<?xml version="1.0"?>
<VTKFile type="UnstructuredGrid" version="0.1" byte_order="LittleEndian" header_type="UInt32" compressor="vtkZLibDataCompressor">
  <UnstructuredGrid>
    <Piece NumberOfPoints="565" NumberOfCells="344">
      <PointData>
        <DataArray type="Int32" Name="libmesh_node_id" format="ascii" RangeMin="611" RangeMax="5442">
          735 743 745 1210 1215 1216
          1217 1218 1222 1223 1225 1226
          1228 1232 1235 1237 1240 1244
          1246 1248 2325 2359 2367 2368
          2369 2370 2371 2372 2375 2376
          2377 2378 2379 2380 2384 2385
          2387 2388 2390 2391 2392 2393
          2394 2395 2396 2397 2398 2399
          2400 2401 2402 2405 2406 2408
          2410 2413 2414 2415 2416 2419
          2420 2421 2422 2425 2427 2428
          2430 2431 2432 2433 2434 2435
          2436 2437 2438 2440 2442 2444
          2457 2458 2461 2463 2473 2475
          2477 2479 2480 2481 2482 2483
          2484 2485 2486 2487 2488 2489
          2490 2493 2494 2496 2498 2693
          2694 2695 2696 2697 2698 2699
          2700 2701 2702 2703 2704 2705
          2706 4526 4529 4531 4747 4749
          4751 4775 4777 4779 4807 4831
          4832 4834 4837 4842 4848 4849
          4850 4851 4852 4854 4855 4856
          4857 4858 4859 4860 4861 4862
          4863 4864 4865 4866 4867 4868
          4869 4870 4871 4872 4873 4877
          4878 4880 4881 4883 4884 4885
          4886 4887 4888 4889 4890 4891
          4892 4893 4894 4895 4898 4899
          4901 4903 4906 4907 4910 4912
          4914 4915 4916 4917 4918 4919
          4920 4921 4922 4923 4924 4925
          4926 4927 4928 4929 4930 4931
          4932 4933 4934 4935 4936 4937
          4938 4939 4940 4941 4942 4943
          4944 4945 4946 4947 4948 4949
          4950 4951 4952 4953 4954 4955
          4956 4957 4958 4959 4960 4961
          4963 4964 4965 4966 4967 4968
          4969 4970 4971 4972 4973 4986
          4987 4989 4992 4997 5002 5003
          5004 5006 5007 5020 5021 5023
          5026 5031 5036 5037 5038 5040
          5041 5042 5043 5044 5045 5046
          5047 5048 5049 5050 5051 5052
          5053 5056 5058 5059 5061 5062
          5063 5064 5065 5066 5067 5068
          5069 5071 5073 5075 5076 5077
          5078 5079 5080 5081 5082 5083
          5084 5085 5086 5087 5090 5092
          5093 5095 5096 5097 5098 5099
          5100 5101 5102 5103 5105 5107
          5109 5111 5113 5115 5117 5118
          5119 5120 5121 5122 5123 5124
          5125 5126 5127 5128 5129 5130
          5131 5132 5133 5134 5135 5136
          5137 5139 5141 5143 5145 5146
          5147 5148 5149 5150 5151 5152
          5153 5154 5155 5156 5157 5158
          5159 5160 5161 5162 5163 5164
          5165 5166 5167 5168 5169 5170
          5171 5172 5173 5175 5177 5179
          5180 5181 5182 5183 5184 5185
          5186 5187 5188 5191 5192 5194
          5196 5197 5198 5199 5200 5201
          5202 5203 5204 5206 5208 5210
          5211 5212 5213 5214 5215 5216
          5217 5218 5220 5222 5224 5263
          5335 5337 5339 5359 5361 5363
          5382 5383 5384 5385 5386 5387
          5388 5389 5390 5391 5392 5393
          5394 5395 5396 5397 5398 5399
          5400 5401 5402 5403 5404 5405
          5406 5407 5408 5409 5410 5411
          5412 5413 5414 5415 5416 5417
          5418 5419 5420 5421 5422 5423
          5424 5425 5426 5427 5428 5429
          5430 5431 5432 5433 5434 5435
          5436 5437 5438 5439 5440 5441
          5442 740 741 889 887 612
          894 893 1231 1239 1243 1241
          1242 1245 1247 1631 1634 1635
          1632 737 1219 1638 1637 738
          2381 2382 2383 2386 2403 2404
          2407 2409 1224 2491 2441 2492
          2495 2497 1628 2629 1642 2631
          4874 4875 4876 4879 1220 4882
          2389 4896 4897 4900 4902 1221
          4962 5054 5055 5057 2423 5060
          2424 5070 5072 5074 2426 5088
          5089 5091 611 5094 2429 5104
          5106 5108 1227 5174 5176 5178
          2439 5189 5190 5193 5195 5205
          5207 5209 2443 5219 5221 5223
          744
        </DataArray>
        <DataArray type="Float64" Name="bounds" format="ascii" RangeMin="0" RangeMax="0">
          0 0 0 0 0 0
          0 0 0 0 0 0
          0 0 0 0 0 0
          0 0 0 0 0 0
          0 0 0 0 0 0
          0 0 0 0 0 0
          0 0 0 0 0 0
          0 0 0 0 0 0
          0 0 0 0 0 0
          0 0 0 0 0 0
          0 0 0 0 0 0
          0 0 0 0 0 0
          0 0 0 0 0 0
          0 0 0 0 0 0
          0 0 0 0 0 0
          0 0 0 0 0 0
          0 0 0 0 0 0
          0 0 0 0 0 0
          0 0 0 0 0 0
          0 0 0 0 0 0
          0 0 0 0 0 0
          0 0 0 0 0 0
          0 0 0 0 0 0
          0 0 0 0 0 0
          0 0 0 0 0 0
          0 0 0 0 0 0
          0 0 0 0 0 0
          0 0 0 0 0 0
          0 0 0 0 0 0
          0 0 0 0 0 0
          0 0 0 0 0 0
          0 0 0 0 0 0
          0 0 0 0 0 0
          0 0 0 0 0 0
          0 0 0 0 0 0
          0 0 0 0 0 0
          0 0 0 0 0 0
          0 0 0 0 0 0
          0 0 0 0 0 0
          0 0 0 0 0 0
          0 0 0 0 0 0
          0 0 0 0 0 0
          0 0 0 0 0 0
          0 0 0 0 0 0
          0 0 0 0 0 0
          0 0 0 0 0 0
          0 0 0 0 0 0
          0 0 0 0 0 0
          0 0 0 0 0 0
          0 0 0 0 0 0
          0 0 0 0 0 0
          0 0 0 0 0 0
          0 0 0 0 0 0
          0 0 0 0 0 0
          0 0 0 0 0 0
          0 0 0 0 0 0
          0 0 0 0 0 0
          0 0 0 0 0 0
          0 0 0 0 0 0
          0 0 0 0 0 0
          0 0 0 0 0 0
          0 0 0 0 0 0
          0 0 0 0 0 0
          0 0 0 0 0 0
          0 0 0 0 0 0
          0 0 0 0 0 0
          0 0 0 0 0 0
          0 0 0 0 0 0
          0 0 0 0 0 0
          0 0 0 0 0 0
          0 0 0 0 0 0
          0 0 0 0 0 0
          0 0 0 0 0 0
          0 0 0 0 0 0
          0 0 0 0 0 0
          0 0 0 0 0 0
          0 0 0 0 0 0
          0 0 0 0 0 0
          0 0 0 0 0 0
          0 0 0 0 0 0
          0 0 0 0 0 0
          0 0 0 0 0 0
          0 0 0 0 0 0
          0 0 0 0 0 0
          0 0 0 0 0 0
          0 0 0 0 0 0
          0 0 0 0 0 0
          0 0 0 0 0 0
          0 0 0 0 0 0
          0 0 0 0 0 0
          0 0 0 0 0 0
          0 0 0 0 0 0
          0 0 0 0 0 0
          0 0 0 0 0 0
          0
        </DataArray>
        <DataArray type="Float64" Name="gradient_error" format="ascii" RangeMin="5.472207017600607e-13" RangeMax="1.3183206508844898e-9">
          2.5367251576302324e-11 2.0596656232528754e-10 1.1068918000682494e-11 4.361137610774596e-11 8.093176410493325e-12 1.4844089986615264e-11
          1.6651058956108736e-10 6.85710662208569e-11 6.818480251660779e-12 8.002408427114015e-12 1.0031088347405748e-9 4.95549769526124e-10
          2.975872166546202e-11 2.6212363838345974e-11 1.699367006696535e-11 2.3002929148421873e-11 7.660199711156046e-12 9.863969445052627e-12
          1.3399523846176366e-11 1.2998662633721711e-11 2.5501846187500463e-11 1.3469617798984756e-10 1.4228032880899641e-11 1.819249733355272e-11
          1.97002341819711e-11 2.3608387033212222e-11 3.248161972890633e-11 1.6599569218346597e-11 1.332653543189955e-10 1.9091549862895993e-10
          1.3130598359260691e-11 1.1769814089163488e-11 1.021037715347459e-11 8.910918821850905e-12 8.308505523674399e-12 5.93672148215182e-12
          5.3567826919468e-11 4.285737455779157e-11 2.2044704530731466e-11 3.0334820172259055e-11 2.1463243926982904e-11 1.2196777527435689e-11
          8.361929836815386e-12 1.2289446115159158e-11 1.55591644407296e-11 6.062149584550044e-12 6.504811675825032e-11 2.327662644383303e-11
          2.1836742086961535e-11 4.327189970332966e-12 3.80108154482281e-12 1.7576852393291125e-12 2.8962300353122915e-12 8.122905774634814e-12
          4.140229471721127e-12 7.838328361001139e-10 6.330287087383427e-10 8.698458598962356e-10 3.1966931963003154e-10 8.803969412223261e-10
          1.3183206508844898e-9 2.5834823724977037e-10 2.0713986090820747e-10 1.0334584454700494e-10 3.498366998819916e-10 2.991307004005781e-10
          1.6252532929052958e-10 2.7006130305631573e-10 9.764448851938099e-11 5.371896692932188e-11 1.9265438834081882e-11 4.2894783029517796e-10
          1.5627926058598422e-10 8.267957410131568e-11 3.141319031717216e-11 6.789797549966169e-12 5.046283032465729e-11 9.596746815664622e-12
          9.995319224691422e-12 1.526726749067559e-11 1.0126197226736478e-11 2.6433960670800135e-11 3.476108662688128e-11 2.938652792410059e-11
          3.832152582016775e-11 1.635384440177078e-11 1.9664367307365915e-11 6.327010381445827e-12 7.501491570451451e-12 1.368897806527124e-11
          2.7897044592977678e-11 1.0923501412745632e-11 2.5803441756572e-11 9.834542896007663e-12 3.4958387842897006e-11 2.9277102528141638e-12
          3.3254063060253443e-12 1.9208923009398743e-12 3.6021332429951223e-12 3.241687590023393e-12 4.5587491893441585e-12 3.9825532750953545e-12
          1.1696019904397244e-11 1.881210943764436e-12 4.738463179571846e-12 2.2226355872585244e-12 4.382445187371326e-12 2.081777079113834e-12
          8.446475751448552e-13 1.682700422874377e-12 5.472207017600607e-13 8.470632888911291e-13 6.203233840149059e-13 9.082953446242843e-13
          5.75115614435661e-13 3.4126200895541494e-11 1.9799160377942265e-11 8.401967341719322e-11 1.7899893217681095e-10 7.992760121013626e-11
          3.136847056365e-10 4.3898950728717313e-10 1.8526131679960882e-10 4.899263036385064e-10 1.6983608118254142e-11 5.20300843046501e-11
          4.940611276848016e-11 4.233981772336599e-11 1.574911864324425e-10 6.505135967809885e-11 1.5044166046301553e-11 3.2817509846426126e-11
          1.8612268979122464e-11 3.924041622779054e-11 2.308108812498418e-11 1.0093773215552276e-10 1.1600497420595037e-10 1.3278453393362674e-11
          1.2628482484035617e-11 2.983478509064251e-11 2.8332995111260827e-11 6.956407925258092e-12 1.663211773914827e-11 1.580652185218662e-11
          1.0896174725940957e-11 2.4287633259702247e-11 1.3573940396999457e-11 9.580814989431021e-11 9.060900532932583e-11 5.0660028915989863e-11
          7.665311964302065e-11 3.97228930469211e-12 3.791675444607092e-12 9.051355003859976e-12 8.6046010603767e-12 3.3168687101893544e-12
          7.400565326825315e-12 2.910117713167548e-11 2.7524452297854174e-11 2.3287305482285442e-11 8.58420980582756e-12 1.8836790804246285e-11
          4.829386171432913e-12 1.0549917275637331e-11 6.22400582703198e-12 1.3265712853169937e-11 7.446226098352237e-12 5.804768681637324e-11
          3.246031456998566e-11 3.942655499190463e-11 2.6994657336752323e-12 5.759279436725998e-12 2.064359368688519e-12 4.051485978678684e-12
          1.7650679239425677e-11 1.197562704548632e-11 2.0620728758974413e-11 4.1701237214480855e-11 2.4506850962760167e-11 1.1702350545273722e-10
          1.232716324130564e-11 2.5158136938332407e-11 7.251836289844473e-12 1.48256346159299e-11 7.579267751232063e-12 1.479403837858908e-11
          8.7297930624309e-12 7.101993366226454e-11 4.1964845997669705e-11 3.942791126802688e-11 1.1893612504430538e-11 2.146030152430116e-11
          7.310923027854785e-12 1.3214692460909477e-11 8.635758170260879e-12 1.4483914248678736e-11 8.905632951830896e-12 5.330988089068524e-11
          3.2993577948052455e-11 2.9871704453339673e-11 4.422547850097128e-12 7.976722072410653e-12 2.6549685980822536e-12 4.7180121968188036e-12
          3.2658627656356664e-12 5.376260112096912e-12 3.2030567290977465e-12 1.9952847700380822e-11 1.1782516345553897e-11 1.1072877795198762e-11
          4.230929533999055e-12 8.535536950815913e-12 2.481432871944994e-12 4.783027158970591e-12 2.70477118877982e-12 5.0048667580258035e-12
          3.2418552593913993e-12 2.4148156823964496e-11 1.3490821908874552e-11 1.3368864041431999e-11 1.4912281315743918e-12 2.5986865468442766e-12
          1.1517248905075502e-12 1.8159851116415374e-12 1.2299931572655755e-12 1.969676473025972e-12 1.4141015130526617e-12 7.28771237862856e-12
          4.843273903575243e-12 1.6182422093961912e-12 2.7151010672441694e-12 1.272230447979926e-12 1.9746130446980485e-12 1.1953711896486516e-12
          1.889637034695912e-12 1.436623998696745e-12 6.7626905517670945e-12 4.519442270026687e-12 3.796399325289536e-12 4.2868927577095045e-10
          4.048514805640436e-10 3.406623861978455e-10 7.437880280849014e-10 4.673626970242686e-10 2.548774762284522e-10 2.856682216794941e-10
          1.693982181798623e-10 4.789630765679334e-10 5.360594618961102e-10 9.82888635224591e-10 9.460868954157157e-10 8.33072508655628e-10
          9.758739763267974e-10 1.20313338501207e-9 6.540255489410498e-10 7.478010064620074e-10 4.4894879018621084e-10 7.085952865386424e-10
          8.226781475553404e-10 2.477042027839671e-10 2.3383378014687e-10 1.3868278531016986e-10 1.3088265164060476e-10 1.965491738930541e-10
          1.0994420025896125e-10 4.578647184001709e-10 4.3397623959640843e-10 2.446550180111335e-10 3.6825207958995944e-10 7.528449924905393e-11
          7.104046860387785e-11 5.96558895446833e-11 1.409719708240281e-10 1.3341197279251901e-10 1.1277066560306434e-10 1.4686343045871068e-10
          8.210754665825818e-11 9.750250309837268e-11 5.450175786754918e-11 2.775820695219486e-10 1.5572014270312784e-10 1.8462842876041063e-10
          4.4568201941187035e-11 2.962070380614481e-11 8.461920200922833e-11 5.6085011398469864e-11 5.848391206268631e-10 5.613405932944036e-10
          3.3516458903476024e-10 3.2094283224955037e-10 4.908769083246243e-10 2.7907045678759656e-10 6.041320270206206e-10 5.852157647695647e-10
          3.3767750970517876e-10 5.227208577628601e-10 1.8530747843108278e-10 1.770989420335752e-10 1.532781250615645e-10 1.9516808015189418e-10
          1.8782349777030595e-10 1.6523634898525736e-10 3.8232586896673175e-10 2.159813240445813e-10 2.60658198211227e-10 1.464876984774144e-10
          4.1620845797690613e-10 2.3608727523929365e-10 2.885188549938767e-10 1.1802720997246904e-10 7.974342773448755e-11 1.2947015446978094e-10
          8.864559878202118e-11 2.7783063875553403e-10 1.478829439801607e-10 5.160121287806629e-10 1.6932985256480245e-10 1.0026132187401446e-10
          8.993397392490675e-11 5.320946835117497e-11 3.1616317804499514e-10 1.8780289279822653e-10 1.6478119953186633e-10 1.1453826888390812e-10
          7.134161826387134e-11 5.0787521893317396e-11 3.148112506692542e-11 2.0181084789210706e-10 1.262648771276491e-10 8.619083750382151e-11
          4.329709155296194e-11 2.5612353665672555e-11 1.9056249948473446e-11 1.1257014543816753e-11 7.683450797540853e-11 4.5485986467535936e-11
          3.260811071527451e-11 7.288440433427508e-10 3.834893738600875e-10 8.100598413997567e-10 4.489111700592073e-10 2.677127346439697e-10
          2.34718343806281e-10 1.393850249156978e-10 5.001049324688593e-10 2.988120683861913e-10 2.6289522286853524e-10 2.834541409059299e-10
          1.7782590188136986e-10 1.1886700613827954e-10 7.423763676729334e-11 3.1677035255826314e-10 1.9893659203304345e-10 1.3228585953908964e-10
          1.0841248473224623e-10 6.424285478449366e-11 4.5126951412024034e-11 2.669751756650322e-11 1.2137533751356184e-10 7.195446706970812e-11
          5.0284193326926875e-11 5.7704639662727395e-11 3.228093774488216e-11 3.0646608763416916e-11 1.7155250689426483e-11 1.082054125639974e-10
          6.04937022482546e-11 5.619312687773647e-11 1.7549841771728323e-11 9.312594669621522e-12 3.2823251139156716e-11 1.706067931546547e-11
          1.4785283605202468e-11 8.282648246643585e-12 6.460788953931397e-12 4.32755486235173e-12 2.622215062121306e-11 1.4693525185022944e-11
          1.1061235983918453e-11 2.94497334571696e-12 4.482514757969227e-12 1.9574162699038128e-12 2.8191788595716537e-12 7.975414783273746e-12
          3.928417548152338e-12 1.5469238191240527e-10 8.665372610696227e-11 8.033375402747951e-11 4.494544312531847e-11 1.7292704874197433e-10
          9.698490083542676e-11 9.014170607072773e-11 4.707664802305113e-11 2.4410688114538112e-11 5.273719751610251e-11 2.7414975976418647e-11
          3.7018054320335114e-11 2.073785127928964e-11 1.5368492340639626e-11 8.575164327684893e-12 4.1448953430206994e-11 2.3213283097488617e-11
          1.713344307324243e-11 1.1300030413072692e-11 4.634797556643379e-12 1.2669287429819388e-11 5.217439515677997e-12 2.0150668187647073e-11
          3.3223428809868004e-11 1.9225160001082054e-11 5.387226016110073e-11 7.253366259269845e-11 3.143295981435364e-11 8.016172104321316e-11
          1.4761059395411484e-11 2.0938638109119395e-11 9.110289421432085e-12 1.293025931108581e-11 9.265686407905915e-12 1.2115595021465011e-11
          7.461448037344516e-12 3.416167413444586e-11 2.1120848178067266e-11 1.8723021408139225e-11 5.500169735330213e-12 7.805872877409824e-12
          3.261340662840913e-12 4.6065742535859005e-12 3.4807047761770233e-12 4.494424711391796e-12 2.6749628551879106e-12 1.2759653165310643e-11
          7.524130717375543e-12 6.866228277911575e-12 4.608796007283824e-11 2.8488757269940444e-11 2.5026935990482232e-11 1.517484141784638e-11
          5.096878869961206e-11 3.148604738448589e-11 2.7573332799710118e-11 1.7215327135588357e-11 1.0167058002978451e-11 9.08412017589956e-12
          5.373865703743793e-12 1.902292396004486e-11 1.1237662415536705e-11 9.943928442582538e-12 1.8809489119693153e-12 2.6354251702919124e-12
          1.3993737141705915e-12 1.906007096503287e-12 1.2324034397430737e-12 1.6227658860876814e-12 1.27408088341862e-12 4.3071151934479924e-12
          2.739325714227865e-12 2.4515141698101746e-12 5.848158450451362e-12 3.2679846111563443e-12 3.1362874538501476e-12 1.8453221122910635e-12
          6.47198794262125e-12 3.6333008903888822e-12 3.382674900512235e-12 1.5838552192247368e-12 1.773022101701135e-12 1.1302885303303472e-12
          1.2361033968591632e-12 1.0924537746488225e-12 1.1101497221884492e-12 8.438005888441733e-13 1.9621889841775325e-12 1.341918263387979e-12
          1.1278456697280759e-12 2.4536775788988355e-11 3.7342668491830976e-12 3.864237399854504e-12 1.8043314931674336e-11 5.289449283381292e-12
          4.548359025480678e-12 1.035271097654759e-11 1.8040177613573742e-11 4.323064966556017e-12 4.799101070883723e-12 1.6247720038071158e-12
          1.9637795285159397e-12 2.6931406831667364e-12 2.583771502778737e-12 2.1783342251242218e-12 1.946989757307717e-12 1.8582840068715593e-12
          4.075624023879838e-12 4.150277497405209e-12 3.0233610060830623e-12 1.6946845636774623e-12 4.849832203761851e-12 1.9218908521048234e-12
          4.012347362220755e-12 3.393310188057099e-12 2.9164332326256894e-12 2.6210102699368175e-12 1.296114979589548e-12 2.7707570763072254e-12
          2.2490215001360216e-12 3.79706763387801e-12 3.1223634555287355e-12 2.192410845678166e-12 3.1199790140561424e-12 2.3006565908047074e-12
          1.076089607922926e-12 1.8959523902154817e-12 1.16160707192332e-11 2.9951127156874913e-12 1.2001569108372128e-11 1.3147950403158122e-12
          2.0778424569897466e-12 4.8036531981226064e-12 4.565022484802928e-12 3.934116369078649e-12 1.5352860158221825e-11 1.4523626206428182e-11
          1.2292704239475005e-11 1.5390073996389042e-12 3.057683076882993e-12 2.4549730281380968e-12 9.300546211365066e-12 6.87406886923576e-12
          4.655154369945258e-12 3.9656764101119406e-11 3.741978474399275e-11 3.1418909428837445e-11 7.445728875869499e-11 7.042979614384482e-11
          5.946399555001752e-11 2.348843487191746e-11 1.562694534740232e-11 4.456528175633716e-11 2.952175721893211e-11 9.896742813323222e-11
          9.443136514727157e-11 8.141905635625475e-11 1.0505242850585807e-10 1.0084765759459875e-10 8.821024562632599e-11 6.244221055127404e-11
          4.206950454187436e-11 6.870599366510563e-11 4.6841880495711534e-11 9.256396899634835e-12 4.908440962821017e-12 1.7292062626573146e-11
          8.993713069046185e-12 1.5689505097422679e-12 2.364681112686961e-12 1.4932396772230447e-12 4.201813662873445e-12 2.481269583077795e-11
          1.2871787267123727e-11 2.781145131914916e-11 1.445464776636679e-11 5.975992091945957e-12 2.967070587492138e-12 6.708768573776678e-12
          3.5245486786407563e-12
        </DataArray>
        <DataArray type="Float64" Name="gradient_matprop_error" format="ascii" RangeMin="0" RangeMax="0">
          0 0 0 0 0 0
          0 0 0 0 0 0
          0 0 0 0 0 0
          0 0 0 0 0 0
          0 0 0 0 0 0
          0 0 0 0 0 0
          0 0 0 0 0 0
          0 0 0 0 0 0
          0 0 0 0 0 0
          0 0 0 0 0 0
          0 0 0 0 0 0
          0 0 0 0 0 0
          0 0 0 0 0 0
          0 0 0 0 0 0
          0 0 0 0 0 0
          0 0 0 0 0 0
          0 0 0 0 0 0
          0 0 0 0 0 0
          0 0 0 0 0 0
          0 0 0 0 0 0
          0 0 0 0 0 0
          0 0 0 0 0 0
          0 0 0 0 0 0
          0 0 0 0 0 0
          0 0 0 0 0 0
          0 0 0 0 0 0
          0 0 0 0 0 0
          0 0 0 0 0 0
          0 0 0 0 0 0
          0 0 0 0 0 0
          0 0 0 0 0 0
          0 0 0 0 0 0
          0 0 0 0 0 0
          0 0 0 0 0 0
          0 0 0 0 0 0
          0 0 0 0 0 0
          0 0 0 0 0 0
          0 0 0 0 0 0
          0 0 0 0 0 0
          0 0 0 0 0 0
          0 0 0 0 0 0
          0 0 0 0 0 0
          0 0 0 0 0 0
          0 0 0 0 0 0
          0 0 0 0 0 0
          0 0 0 0 0 0
          0 0 0 0 0 0
          0 0 0 0 0 0
          0 0 0 0 0 0
          0 0 0 0 0 0
          0 0 0 0 0 0
          0 0 0 0 0 0
          0 0 0 0 0 0
          0 0 0 0 0 0
          0 0 0 0 0 0
          0 0 0 0 0 0
          0 0 0 0 0 0
          0 0 0 0 0 0
          0 0 0 0 0 0
          0 0 0 0 0 0
          0 0 0 0 0 0
          0 0 0 0 0 0
          0 0 0 0 0 0
          0 0 0 0 0 0
          0 0 0 0 0 0
          0 0 0 0 0 0
          0 0 0 0 0 0
          0 0 0 0 0 0
          0 0 0 0 0 0
          0 0 0 0 0 0
          0 0 0 0 0 0
          0 0 0 0 0 0
          0 0 0 0 0 0
          0 0 0 0 0 0
          0 0 0 0 0 0
          0 0 0 0 0 0
          0 0 0 0 0 0
          0 0 0 0 0 0
          0 0 0 0 0 0
          0 0 0 0 0 0
          0 0 0 0 0 0
          0 0 0 0 0 0
          0 0 0 0 0 0
          0 0 0 0 0 0
          0 0 0 0 0 0
          0 0 0 0 0 0
          0 0 0 0 0 0
          0 0 0 0 0 0
          0 0 0 0 0 0
          0 0 0 0 0 0
          0 0 0 0 0 0
          0 0 0 0 0 0
          0 0 0 0 0 0
          0 0 0 0 0 0
          0
        </DataArray>
        <DataArray type="Float64" Name="initial_marker" format="ascii" RangeMin="0" RangeMax="2">
          0 2 0 1.75 0 0
          2 2 0 0.5 2 2
          2 0 0 0 0 0
          0 0 0 2 0 1
          1 0 1 1 2 2
          0 0 1 1 0 0.25
          2 2 2 0 0.5 0
          0 0 0 0 2 2
          1.5 0 0 0 0 1.5
          0.25 2 2 2 2 2
          2 2 2 2 2 2
          2 2 2 2 2 2
          2 2 2 1.5 2 2
          0 0 0 0.25 1.25 0
          1.5 0 0.75 0 0.25 0
          0 0 1 0.5 0 0
          0 0 0 0 0 0
          0 0 0 0 0 0
          0 0 0 0 0 0
          0 1.5 1 2 2 2
          2 2 2 2 1.3333333333333333 2
          2 2 2 2 2 2
          2 2 2 2 2 2
          2 2 2 2 2 2
          2 2 2 2 2 2
          2 1 1 1.5 1.5 1
          1.5 2 2 2 2 2
          1.5 1.75 1.5 1.75 1.25 2
          2 2 0.5 1.25 0 1
          2 2 2 2 1.5 2
          1.5 1.75 1 1.5 0.5 1.25
          1 2 2 2 0.5 1.25
          0 1 0 1 1 2
          2 2 0 0.75 0 0.5
          0 0.5 0 1.75 1.5 1.3333333333333333
          0.5 1.25 0 1 0 0.75
          0.6666666666666666 2 2 1.75 0 0.75
          0 0.5 0 0.5 0 1.75
          1.6666666666666667 0 0.25 0 0 0
          0 0 1.25 1 0.6666666666666666 2
          2 2 2 2 2 2
          2 2 2 2 2 2
          2 2 2 2 2 2
          2 2 2 2 2 2
          2 2 2 2 2 2
          2 2 2 2 2 2
          2 2 2 2 2 2
          2 2 2 2 2 2
          2 2 2 2 2 2
          2 2 2 2 2 2
          2 2 2 2 2 2
          2 2 2 2 2 2
          2 2 2 2 2 2
          2 2 2 2 2 2
          2 2 2 2 2 2
          2 2 1.75 1.5 2 2
          2 2 2 2 2 2
          2 2 2 2 2 2
          2 2 2 2 2 2
          2 2 2 2 2 2
          2 2 2 2 2 2
          2 2 2 2 2 2
          2 1.75 1.25 1 2 2
          1.75 1 1.5 0 1 2
          1.6666666666666667 2 2 2 2 2
          2 2 2 2 2 2
          2 2 2 2 2 2
          2 2 1.5 2 1.5 1.3333333333333333
          1.75 1.5 2 2 2 2
          1 1.5 1 1.25 0 1
          0.5 2 1.75 2 0.5 0.75
          0 0.5 0 0 0 1.5
          1.25 1 2 2 2 2
          2 2 2 2 1.5 2
          1 2 1.5 2 0 0.25
          0 0 0 0 0 0.75
          0.6666666666666666 0 1 1 0 0
          1 1 0 0.5 0.5 0
          0 0 0 0 0.5 0
          0 0 0 0 0 0
          0 0 0 0 0 0
          0 0 0 0 0 0
          0 0 0 0 0 0
          0 0 0 0 0 0
          0 0.75 0 0 0.75 0
          0 0 0 0 0 0
          0 1 1 1 2 2
          2 0 1 1 2 1.75
          1.6666666666666667 2 2 2 2 2
          2 2 2 2 2 2
          2 2 2 2 2 2
          2 2 2 2 1.75 2
          2 0.5 1 0.5 1.75 2
          2 2 2 2 1.3333333333333333 2
          1
        </DataArray>
        <DataArray type="Float64" Name="markers_norefine" format="ascii" RangeMin="0" RangeMax="0">
          0 0 0 0 0 0
          0 0 0 0 0 0
          0 0 0 0 0 0
          0 0 0 0 0 0
          0 0 0 0 0 0
          0 0 0 0 0 0
          0 0 0 0 0 0
          0 0 0 0 0 0
          0 0 0 0 0 0
          0 0 0 0 0 0
          0 0 0 0 0 0
          0 0 0 0 0 0
          0 0 0 0 0 0
          0 0 0 0 0 0
          0 0 0 0 0 0
          0 0 0 0 0 0
          0 0 0 0 0 0
          0 0 0 0 0 0
          0 0 0 0 0 0
          0 0 0 0 0 0
          0 0 0 0 0 0
          0 0 0 0 0 0
          0 0 0 0 0 0
          0 0 0 0 0 0
          0 0 0 0 0 0
          0 0 0 0 0 0
          0 0 0 0 0 0
          0 0 0 0 0 0
          0 0 0 0 0 0
          0 0 0 0 0 0
          0 0 0 0 0 0
          0 0 0 0 0 0
          0 0 0 0 0 0
          0 0 0 0 0 0
          0 0 0 0 0 0
          0 0 0 0 0 0
          0 0 0 0 0 0
          0 0 0 0 0 0
          0 0 0 0 0 0
          0 0 0 0 0 0
          0 0 0 0 0 0
          0 0 0 0 0 0
          0 0 0 0 0 0
          0 0 0 0 0 0
          0 0 0 0 0 0
          0 0 0 0 0 0
          0 0 0 0 0 0
          0 0 0 0 0 0
          0 0 0 0 0 0
          0 0 0 0 0 0
          0 0 0 0 0 0
          0 0 0 0 0 0
          0 0 0 0 0 0
          0 0 0 0 0 0
          0 0 0 0 0 0
          0 0 0 0 0 0
          0 0 0 0 0 0
          0 0 0 0 0 0
          0 0 0 0 0 0
          0 0 0 0 0 0
          0 0 0 0 0 0
          0 0 0 0 0 0
          0 0 0 0 0 0
          0 0 0 0 0 0
          0 0 0 0 0 0
          0 0 0 0 0 0
          0 0 0 0 0 0
          0 0 0 0 0 0
          0 0 0 0 0 0
          0 0 0 0 0 0
          0 0 0 0 0 0
          0 0 0 0 0 0
          0 0 0 0 0 0
          0 0 0 0 0 0
          0 0 0 0 0 0
          0 0 0 0 0 0
          0 0 0 0 0 0
          0 0 0 0 0 0
          0 0 0 0 0 0
          0 0 0 0 0 0
          0 0 0 0 0 0
          0 0 0 0 0 0
          0 0 0 0 0 0
          0 0 0 0 0 0
          0 0 0 0 0 0
          0 0 0 0 0 0
          0 0 0 0 0 0
          0 0 0 0 0 0
          0 0 0 0 0 0
          0 0 0 0 0 0
          0 0 0 0 0 0
          0 0 0 0 0 0
          0 0 0 0 0 0
          0 0 0 0 0 0
          0
        </DataArray>
        <DataArray type="Float64" Name="markers_mustrefine" format="ascii" RangeMin="0" RangeMax="2">
          0 2 0 1.75 0 0
          2 2 0 0.5 2 2
          2 0 0 0 0 0
          0 0 0 2 0 1
          1 0 1 1 2 2
          0 0 1 1 0 0.25
          2 2 2 0 0.5 0
          0 0 0 0 2 2
          1.5 0 0 0 0 1.5
          0.25 2 2 2 2 2
          2 2 2 2 2 2
          2 2 2 2 2 2
          2 2 2 1.5 2 2
          0 0 0 0.25 1.25 0
          1.5 0 0.75 0 0.25 0
          0 0 1 0.5 0 0
          0 0 0 0 0 0
          0 0 0 0 0 0
          0 0 0 0 0 0
          0 1.5 1 2 2 2
          2 2 2 2 1.3333333333333333 2
          2 2 2 2 2 2
          2 2 2 2 2 2
          2 2 2 2 2 2
          2 2 2 2 2 2
          2 1 1 1.5 1.5 1
          1.5 2 2 2 2 2
          1.5 1.75 1.5 1.75 1.25 2
          2 2 0.5 1.25 0 1
          2 2 2 2 1.5 2
          1.5 1.75 1 1.5 0.5 1.25
          1 2 2 2 0.5 1.25
          0 1 0 1 1 2
          2 2 0 0.75 0 0.5
          0 0.5 0 1.75 1.5 1.3333333333333333
          0.5 1.25 0 1 0 0.75
          0.6666666666666666 2 2 1.75 0 0.75
          0 0.5 0 0.5 0 1.75
          1.6666666666666667 0 0.25 0 0 0
          0 0 1.25 1 0.6666666666666666 2
          2 2 2 2 2 2
          2 2 2 2 2 2
          2 2 2 2 2 2
          2 2 2 2 2 2
          2 2 2 2 2 2
          2 2 2 2 2 2
          2 2 2 2 2 2
          2 2 2 2 2 2
          2 2 2 2 2 2
          2 2 2 2 2 2
          2 2 2 2 2 2
          2 2 2 2 2 2
          2 2 2 2 2 2
          2 2 2 2 2 2
          2 2 2 2 2 2
          2 2 1.75 1.5 2 2
          2 2 2 2 2 2
          2 2 2 2 2 2
          2 2 2 2 2 2
          2 2 2 2 2 2
          2 2 2 2 2 2
          2 2 2 2 2 2
          2 1.75 1.25 1 2 2
          1.75 1 1.5 0 1 2
          1.6666666666666667 2 2 2 2 2
          2 2 2 2 2 2
          2 2 2 2 2 2
          2 2 1.5 2 1.5 1.3333333333333333
          1.75 1.5 2 2 2 2
          1 1.5 1 1.25 0 1
          0.5 2 1.75 2 0.5 0.75
          0 0.5 0 0 0 1.5
          1.25 1 2 2 2 2
          2 2 2 2 1.5 2
          1 2 1.5 2 0 0.25
          0 0 0 0 0 0.75
          0.6666666666666666 0 1 1 0 0
          1 1 0 0.5 0.5 0
          0 0 0 0 0.5 0
          0 0 0 0 0 0
          0 0 0 0 0 0
          0 0 0 0 0 0
          0 0 0 0 0 0
          0 0 0 0 0 0
          0 0.75 0 0 0.75 0
          0 0 0 0 0 0
          0 1 1 1 2 2
          2 0 1 1 2 1.75
          1.6666666666666667 2 2 2 2 2
          2 2 2 2 2 2
          2 2 2 2 2 2
          2 2 2 2 1.75 2
          2 0.5 1 0.5 1.75 2
          2 2 2 2 1.3333333333333333 2
          1
        </DataArray>
        <DataArray type="Float64" Name="gradient_marker" format="ascii" RangeMin="1" RangeMax="1">
          1 1 1 1 1 1
          1 1 1 1 1 1
          1 1 1 1 1 1
          1 1 1 1 1 1
          1 1 1 1 1 1
          1 1 1 1 1 1
          1 1 1 1 1 1
          1 1 1 1 1 1
          1 1 1 1 1 1
          1 1 1 1 1 1
          1 1 1 1 1 1
          1 1 1 1 1 1