<?xml version="1.0"?>
<VTKFile type="UnstructuredGrid" version="0.1" byte_order="LittleEndian" header_type="UInt32" compressor="vtkZLibDataCompressor">
  <UnstructuredGrid>
    <Piece NumberOfPoints="1489" NumberOfCells="966">
      <PointData>
        <DataArray type="Int32" Name="libmesh_node_id" format="ascii" RangeMin="0" RangeMax="14992">
          0 1 2 3 4 5
          6 7 8 9 10 11
          12 13 14 15 16 17
          18 19 20 21 22 23
          24 25 26 27 28 29
          30 31 32 33 34 35
          36 37 38 39 40 41
          42 43 44 45 46 47
          48 49 50 51 52 53
          54 55 56 57 58 59
          60 61 62 63 64 65
          66 67 68 69 70 71
          72 73 74 75 76 77
          78 79 80 81 82 83
          84 85 86 87 88 89
          90 91 92 93 94 95
          96 97 98 99 100 101
          102 103 104 105 106 107
          108 109 110 111 112 113
          114 115 116 117 118 119
          120 121 122 123 124 125
          126 127 128 129 130 131
          132 133 134 135 136 137
          138 139 140 141 142 143
          144 145 146 147 148 149
          150 151 152 153 154 155
          156 157 158 159 160 161
          162 163 164 165 166 167
          168 169 170 171 172 173
          174 175 176 177 178 179
          180 181 182 183 184 185
          186 187 188 189 190 191
          192 193 194 195 196 197
          198 199 200 201 202 203
          204 205 206 207 208 209
          210 211 212 213 214 215
          216 217 218 219 220 221
          222 223 224 225 226 227
          228 229 230 231 232 233
          234 235 236 237 238 239
          240 241 242 243 244 245
          246 247 248 249 250 251
          252 253 254 255 256 257
          258 259 260 261 262 263
          264 265 266 267 268 269
          270 271 272 273 274 275
          276 277 278 279 280 281
          282 283 284 285 286 287
          288 289 290 291 292 293
          294 295 296 297 298 299
          300 301 302 303 304 305
          306 307 308 309 310 311
          312 313 314 315 316 317
          318 319 320 321 322 323
          324 325 326 327 328 329
          330 331 332 333 334 335
          336 337 338 339 340 341
          342 343 344 345 346 347
          348 349 350 351 352 353
          354 355 356 357 358 359
          360 361 362 363 364 365
          366 367 368 369 370 371
          372 373 374 375 376 377
          378 379 380 381 382 383
          384 385 386 387 388 389
          390 391 392 393 394 395
          396 397 398 399 400 401
          402 403 404 405 406 407
          408 409 410 411 412 413
          414 415 416 417 418 419
          420 421 422 423 424 425
          426 427 428 429 430 431
          432 433 434 435 436 437
          438 439 440 441 442 443
          444 445 446 447 448 449
          450 451 452 453 454 455
          456 457 458 459 460 461
          462 463 464 465 466 467
          468 469 470 471 472 473
          474 475 476 477 478 479
          480 481 482 483 484 485
          486 487 488 489 490 491
          492 493 494 495 496 497
          498 499 500 501 502 503
          504 505 506 507 508 509
          510 511 512 513 514 515
          516 517 518 519 520 521
          522 523 524 525 526 527
          528 529 530 531 532 533
          534 535 536 537 538 539
          540 541 542 543 544 545
          546 547 548 549 550 551
          552 553 554 555 556 557
          558 559 560 561 562 563
          564 565 566 567 568 569
          570 571 572 573 574 575
          576 577 578 579 580 581
          582 583 584 585 586 587
          588 589 590 591 592 593
          594 595 596 597 598 599
          600 601 602 603 604 605
          606 607 608 609 610 611
          612 613 614 615 616 617
          618 619 620 621 622 623
          624 625 626 627 628 629
          630 631 632 633 634 635
          636 637 638 639 640 641
          642 643 644 645 646 647
          648 649 650 651 652 653
          654 655 656 657 658 659
          660 661 662 663 664 665
          666 667 668 669 670 671
          672 673 674 675 676 677
          678 679 680 681 682 683
          684 685 686 687 688 689
          690 691 692 693 694 695
          696 697 698 699 700 701
          702 703 704 705 706 707
          708 709 710 711 712 713
          714 715 716 717 718 719
          720 721 722 723 724 725
          726 727 728 729 730 731
          732 733 734 735 736 737
          738 739 740 741 742 743
          744 745 746 747 748 749
          750 751 752 753 754 755
          756 757 758 759 760 761
          762 763 764 765 766 767
          768 769 780 781 782 783
          784 785 786 787 788 789
          790 791 792 793 794 795
          796 797 798 799 800 806
          807 808 809 810 811 812
          813 814 815 816 817 818
          819 820 821 822 823 824
          825 826 832 833 834 835
          836 837 838 839 840 841
          842 843 844 845 846 847
          848 849 850 851 852 853
          854 855 856 857 858 859
          860 861 862 863 864 865
          866 867 868 869 870 871
          872 873 884 885 886 887
          888 889 890 891 892 893
          894 895 896 897 898 899
          900 901 902 903 904 910
          911 912 913 914 915 916
          917 918 919 920 921 922
          923 924 925 926 927 928
          929 930 936 937 938 939
          940 941 942 943 944 945
          946 947 948 949 950 951
          952 953 954 955 956 957
          958 959 960 961 962 963
          964 965 966 967 968 969
          970 971 972 973 974 975
          976 977 988 989 990 991
          992 993 994 995 996 997
          998 999 1000 1001 1002 1003
          1004 1005 1006 1007 1008 1014
          1015 1016 1017 1018 1019 1020
          1021 1022 1023 1024 1025 1026
          1027 1028 1029 1030 1031 1032
          1033 1034 1040 1041 1042 1043
          1044 1045 1046 1047 1048 1049
          1050 1051 1052 1053 1054 1055
          1056 1057 1058 1059 1060 1061
          1062 1063 1064 1065 1066 1067
          1068 1069 1070 1071 1072 1073
          1074 1075 1076 1077 1092 1093
          1094 1095 1096 1097 1098 1099
          1100 1101 1102 1103 1104 1105
          1106 1107 1108 1109 1110 1118
          1119 1120 1121 1122 1123 1124
          1125 1126 1127 1128 1129 1130
          1131 1132 1133 1134 1135 1136
          1144 1145 1146 1147 1148 1149
          1150 1151 1152 1153 1154 1155
          1156 1157 1158 1159 1160 1161
          1162 1163 1164 1165 1166 1167
          1168 1169 1170 1171 1172 1173
          1174 1175 1176 1177 1178 1179
          1180 1181 1196 1197 1198 1199
          1200 1201 1202 1203 1204 1205
          1206 1207 1208 1209 1210 1211
          1212 1213 1214 1222 1223 1224
          1225 1226 1227 1228 1229 1230
          1231 1232 1233 1234 1235 1236
          1237 1238 1239 1240 1248 1249
          1250 1251 1252 1253 1254 1255
          1256 1257 1258 1259 1260 1261
          1262 1263 1264 1265 1266 1267
          1268 1269 1270 1271 1272 1273
          1274 1275 1276 1277 1278 1279
          1280 1281 1282 1283 1284 1285
          1300 1301 1302 1303 1304 1305
          1306 1307 1308 1309 1310 1311
          1312 1313 1314 1315 1316 1317
          1318 1326 1327 1328 1329 1330
          1331 1332 1333 1334 1335 1336
          1337 1338 1339 1340 1341 1342
          1343 1344 1352 1353 1354 1355
          1356 1357 1358 1359 1360 1361
          1362 1363 1364 1365 1366 1367
          1368 1369 1370 1371 1372 1373
          1374 1375 1376 1377 1378 1379
          1380 1381 1382 1383 1384 1385
          1386 1387 1404 1405 1406 1407
          1408 1409 1410 1411 1412 1413
          1414 1415 1416 1417 1418 1419
          1420 1421 1430 1431 1432 1433
          1434 1435 1436 1437 1438 1439
          1440 1441 1442 1443 1444 1445
          1446 1447 1456 1457 1458 1459
          1460 1461 1462 1463 1464 1465
          1466 1467 1468 1469 1470 1471
          1472 1473 1474 1475 1476 1477
          1478 1479 1480 1481 1482 1483
          1484 1485 1486 1487 1488 1489
          1490 1491 1508 1509 1510 1511
          1512 1513 1514 1515 1516 1517
          1518 1519 1520 1521 1522 1523
          1524 1525 1534 1535 1536 1537
          1538 1539 1540 1541 1542 1543
          1544 1545 1546 1547 1548 1549
          1550 1551 1560 1561 1562 1563
          1564 1565 1570 1571 1572 1573
          1574 1575 1576 1577 1578 1579
          1612 1613 1614 1617 1618 1619
          1620 1621 1638 1639 1640 1643
          1644 1645 1646 1647 1664 1665
          1666 1667 1668 1669 1716 1717
          1718 1742 1743 1744 1768 1769
          1770 1771 1772 1773 1820 1821
          1822 1846 1847 1848 14737 14738
          14739 14740 14741 14742 14743 14744
          14745 14746 14747 14748 14749 14750
          14751 14752 14753 14754 14755 14756
          14757 14758 14759 14760 14761 14762
          14763 14764 14765 14766 14767 14768
          14769 14822 14823 14824 14825 14826
          14827 14828 14829 14830 14831 14832
          14833 14834 14835 14836 14837 14838
          14839 14840 14841 14842 14843 14844
          14845 14969 14970 14971 14972 14973
          14974 14975 14976 14977 14978 14979
          14980 14981 14982 14983 14984 14985
          14986 14987 14988 14989 14990 14991
          14992
        </DataArray>
        <DataArray type="Float64" Name="bounds" format="ascii" RangeMin="0" RangeMax="0">
          0 0 0 0 0 0
          0 0 0 0 0 0
          0 0 0 0 0 0
          0 0 0 0 0 0
          0 0 0 0 0 0
          0 0 0 0 0 0
          0 0 0 0 0 0
          0 0 0 0 0 0
          0 0 0 0 0 0
          0 0 0 0 0 0
          0 0 0 0 0 0
          0 0 0 0 0 0
          0 0 0 0 0 0
          0 0 0 0 0 0
          0 0 0 0 0 0
          0 0 0 0 0 0
          0 0 0 0 0 0
          0 0 0 0 0 0
          0 0 0 0 0 0
          0 0 0 0 0 0
          0 0 0 0 0 0
          0 0 0 0 0 0
          0 0 0 0 0 0
          0 0 0 0 0 0
          0 0 0 0 0 0
          0 0 0 0 0 0
          0 0 0 0 0 0
          0 0 0 0 0 0
          0 0 0 0 0 0
          0 0 0 0 0 0
          0 0 0 0 0 0
          0 0 0 0 0 0
          0 0 0 0 0 0
          0 0 0 0 0 0
          0 0 0 0 0 0
          0 0 0 0 0 0
          0 0 0 0 0 0
          0 0 0 0 0 0
          0 0 0 0 0 0
          0 0 0 0 0 0
          0 0 0 0 0 0
          0 0 0 0 0 0
          0 0 0 0 0 0
          0 0 0 0 0 0
          0 0 0 0 0 0
          0 0 0 0 0 0
          0 0 0 0 0 0
          0 0 0 0 0 0
          0 0 0 0 0 0
          0 0 0 0 0 0
          0 0 0 0 0 0
          0 0 0 0 0 0
          0 0 0 0 0 0
          0 0 0 0 0 0
          0 0 0 0 0 0
          0 0 0 0 0 0
          0 0 0 0 0 0
          0 0 0 0 0 0
          0 0 0 0 0 0
          0 0 0 0 0 0
          0 0 0 0 0 0
          0 0 0 0 0 0
          0 0 0 0 0 0
          0 0 0 0 0 0
          0 0 0 0 0 0
          0 0 0 0 0 0
          0 0 0 0 0 0
          0 0 0 0 0 0
          0 0 0 0 0 0
          0 0 0 0 0 0
          0 0 0 0 0 0
          0 0 0 0 0 0
          0 0 0 0 0 0
          0 0 0 0 0 0
          0 0 0 0 0 0
          0 0 0 0 0 0
          0 0 0 0 0 0
          0 0 0 0 0 0
          0 0 0 0 0 0
          0 0 0 0 0 0
          0 0 0 0 0 0
          0 0 0 0 0 0
          0 0 0 0 0 0
          0 0 0 0 0 0
          0 0 0 0 0 0
          0 0 0 0 0 0
          0 0 0 0 0 0
          0 0 0 0 0 0
          0 0 0 0 0 0
          0 0 0 0 0 0
          0 0 0 0 0 0
          0 0 0 0 0 0
          0 0 0 0 0 0
          0 0 0 0 0 0
          0 0 0 0 0 0
          0 0 0 0 0 0
          0 0 0 0 0 0
          0 0 0 0 0 0
          0 0 0 0 0 0
          0 0 0 0 0 0
          0 0 0 0 0 0
          0 0 0 0 0 0
          0 0 0 0 0 0
          0 0 0 0 0 0
          0 0 0 0 0 0
          0 0 0 0 0 0
          0 0 0 0 0 0
          0 0 0 0 0 0
          0 0 0 0 0 0
          0 0 0 0 0 0
          0 0 0 0 0 0
          0 0 0 0 0 0
          0 0 0 0 0 0
          0 0 0 0 0 0
          0 0 0 0 0 0
          0 0 0 0 0 0
          0 0 0 0 0 0
          0 0 0 0 0 0
          0 0 0 0 0 0
          0 0 0 0 0 0
          0 0 0 0 0 0
          0 0 0 0 0 0
          0 0 0 0 0 0
          0 0 0 0 0 0
          0 0 0 0 0 0
          0 0 0 0 0 0
          0 0 0 0 0 0
          0 0 0 0 0 0
          0 0 0 0 0 0
          0 0 0 0 0 0
          0 0 0 0 0 0
          0 0 0 0 0 0
          0 0 0 0 0 0
          0 0 0 0 0 0
          0 0 0 0 0 0
          0 0 0 0 0 0
          0 0 0 0 0 0
          0 0 0 0 0 0
          0 0 0 0 0 0
          0 0 0 0 0 0
          0 0 0 0 0 0
          0 0 0 0 0 0
          0 0 0 0 0 0
          0 0 0 0 0 0
          0 0 0 0 0 0
          0 0 0 0 0 0
          0 0 0 0 0 0
          0 0 0 0 0 0
          0 0 0 0 0 0
          0 0 0 0 0 0
          0 0 0 0 0 0
          0 0 0 0 0 0
          0 0 0 0 0 0
          0 0 0 0 0 0
          0 0 0 0 0 0
          0 0 0 0 0 0
          0 0 0 0 0 0
          0 0 0 0 0 0
          0 0 0 0 0 0
          0 0 0 0 0 0
          0 0 0 0 0 0
          0 0 0 0 0 0
          0 0 0 0 0 0
          0 0 0 0 0 0
          0 0 0 0 0 0
          0 0 0 0 0 0
          0 0 0 0 0 0
          0 0 0 0 0 0
          0 0 0 0 0 0
          0 0 0 0 0 0
          0 0 0 0 0 0
          0 0 0 0 0 0
          0 0 0 0 0 0
          0 0 0 0 0 0
          0 0 0 0 0 0
          0 0 0 0 0 0
          0 0 0 0 0 0
          0 0 0 0 0 0
          0 0 0 0 0 0
          0 0 0 0 0 0
          0 0 0 0 0 0
          0 0 0 0 0 0
          0 0 0 0 0 0
          0 0 0 0 0 0
          0 0 0 0 0 0
          0 0 0 0 0 0
          0 0 0 0 0 0
          0 0 0 0 0 0
          0 0 0 0 0 0
          0 0 0 0 0 0
          0 0 0 0 0 0
          0 0 0 0 0 0
          0 0 0 0 0 0
          0 0 0 0 0 0
          0 0 0 0 0 0
          0 0 0 0 0 0
          0 0 0 0 0 0
          0 0 0 0 0 0
          0 0 0 0 0 0
          0 0 0 0 0 0
          0 0 0 0 0 0
          0 0 0 0 0 0
          0 0 0 0 0 0
          0 0 0 0 0 0
          0 0 0 0 0 0
          0 0 0 0 0 0
          0 0 0 0 0 0
          0 0 0 0 0 0
          0 0 0 0 0 0
          0 0 0 0 0 0
          0 0 0 0 0 0
          0 0 0 0 0 0
          0 0 0 0 0 0
          0 0 0 0 0 0
          0 0 0 0 0 0
          0 0 0 0 0 0
          0 0 0 0 0 0
          0 0 0 0 0 0
          0 0 0 0 0 0
          0 0 0 0 0 0
          0 0 0 0 0 0
          0 0 0 0 0 0
          0 0 0 0 0 0
          0 0 0 0 0 0
          0 0 0 0 0 0
          0 0 0 0 0 0
          0 0 0 0 0 0
          0 0 0 0 0 0
          0 0 0 0 0 0
          0 0 0 0 0 0
          0 0 0 0 0 0
          0 0 0 0 0 0
          0 0 0 0 0 0
          0 0 0 0 0 0
          0 0 0 0 0 0
          0 0 0 0 0 0
          0 0 0 0 0 0
          0 0 0 0 0 0
          0 0 0 0 0 0
          0 0 0 0 0 0
          0 0 0 0 0 0
          0 0 0 0 0 0
          0 0 0 0 0 0
          0 0 0 0 0 0
          0 0 0 0 0 0
          0 0 0 0 0 0
          0 0 0 0 0 0
          0 0 0 0 0 0
          0
        </DataArray>
        <DataArray type="Float64" Name="gradient_error" format="ascii" RangeMin="2.660563267636058e-16" RangeMax="2.7366842001441245e-7">
          2.660563267636058e-16 2.7549777962967664e-16 2.8989103534816936e-16 2.8460594667944754e-16 4.1437165901764676e-16 3.906159488200161e-16
          3.642291733942043e-16 3.77972651876806e-16 3.0194739143871434e-16 3.0459127767619297e-16 3.384968563433098e-16 3.336829672645705e-16
          3.365278747703227e-16 3.238594668872398e-16 3.038162706663344e-16 3.113120792120983e-16 3.5372210015562517e-16 3.3421865696259776e-16
          2.925278481003414e-16 3.0197120176282544e-16 3.49115164420988e-16 3.329561959080271e-16 2.7782172008494043e-16 2.928476543823244e-16
          3.4574862106625083e-16 3.31868378589639e-16 2.6811662196469676e-16 2.8725079458348513e-16 3.349281653762811e-16 3.2647424271172433e-16
          2.904134768324928e-16 2.9864912730340816e-16 3.030335545430649e-16 3.095283359929598e-16 3.748098534316208e-16 3.4288689254328875e-16
          2.9142516335401004e-16 3.026913534086965e-16 4.226616078361907e-16 3.6887212955578244e-16 3.1373299038344806e-16 3.1372502084637e-16
          3.5259240472968e-16 3.340025308889563e-16 3.2183328665414e-16 3.179330162225117e-16 3.031267812201741e-16 3.08863037447523e-16
          3.1618995333049154e-16 3.152244259253224e-16 3.0967849569987164e-16 3.1188823018645595e-16 3.156474917871115e-16 3.150211975092005e-16
          3.1109987726148025e-16 3.124668846439405e-16 3.1408267311402476e-16 3.140801099277137e-16 3.145094967505701e-16 3.1450699773521294e-16
          3.1328905173162175e-16 3.1361725731474396e-16 3.161696773299234e-16 3.1546974540479384e-16 3.140955277035489e-16 3.14149817100808e-16
          3.1446839784234887e-16 3.143396045378999e-16 3.1441032968420483e-16 3.143371203739418e-16 3.137667058974461e-16 3.13916811371915e-16
          3.1418838349015013e-16 3.1418936926649987e-16 3.142145859598609e-16 3.142145623105787e-16 3.14193978517183e-16 3.1419663215782273e-16
          3.142096451669329e-16 3.1420411725437505e-16 3.141984052910553e-16 3.1419868743336783e-16 3.142011626812546e-16 3.1420043891326347e-16
          3.1419917947861176e-16 3.141992762523922e-16 3.141994698000396e-16 3.1419946707403075e-16 3.1419942754627415e-16 3.141994398133674e-16
          3.1419923672503843e-16 3.141992639851628e-16 3.1419934849181083e-16 3.1419933213568656e-16 3.1419921627988023e-16 3.1419916925591337e-16
          3.141992449031826e-16 3.1419926671134833e-16 3.1419930214987817e-16 3.141992101465602e-16 3.141992449033427e-16 3.141992667115084e-16
          3.141993893828875e-16 3.141992489927078e-16 3.0969794516254396e-16 3.0919015851556126e-16 3.2523946641550123e-16 3.2697716274871873e-16
          3.110001762269236e-16 3.211330447262889e-16 3.127237651110476e-16 3.166460723114954e-16 3.1427906129994833e-16 3.133670654726297e-16
          3.152262175845293e-16 3.1174335743154053e-16 3.157732877198681e-16 3.110395866240899e-16 3.1580851245059687e-16 3.1119180913766573e-16
          3.1498035562672305e-16 3.12842561983421e-16 3.1412117865166873e-16 3.1454168515934963e-16 3.140121370642634e-16 3.1468880221780943e-16
          3.1412485715247835e-16 3.1437739100650444e-16 3.1421140210621067e-16 3.1418206464447866e-16 3.142774966787543e-16 3.140510184974876e-16
          3.141632884429302e-16 3.142956089252092e-16 3.141105828187651e-16 3.14404111995673e-16 3.1420298265373106e-16 3.142019298703711e-16
          3.1422265136012855e-16 3.1415093444550476e-16 3.141952212243199e-16 3.142056710169272e-16 3.1419934849445687e-16 3.141988053563832e-16
          3.141992258212669e-16 3.141994064217495e-16 3.141994030123079e-16 3.141993273655051e-16 3.1419943981341616e-16 3.1419921764280345e-16
          3.1419939892321834e-16 3.1419912904704446e-16 3.1419933349887996e-16 3.141990963349704e-16 3.141992667115325e-16 3.1419905817090513e-16
          3.1511159925842585e-16 3.152247504358333e-16 3.1263653486260993e-16 3.123806807614721e-16 3.1476518854017554e-16 3.133970112667466e-16
          3.142564712179382e-16 3.1448425686512874e-16 3.1384290883032616e-16 3.153195755199499e-16 3.136552077739924e-16 3.1561312618337265e-16
          3.13558439326709e-16 3.1569420604590644e-16 3.1359670485402623e-16 3.1549884050100804e-16 3.139375938105914e-16 3.1472119231188517e-16
          3.1428481383995447e-16 3.14000719043325e-16 3.1430722281923483e-16 3.139649473873863e-16 3.142169685140732e-16 3.14155488338137e-16
          3.14163905692268e-16 3.142661646159172e-16 3.1416009012621897e-16 3.1426814496857446e-16 3.142490301444577e-16 3.140867191305625e-16
          3.1427570273966406e-16 3.1403841051168157e-16 3.1420185880939513e-16 3.1419304850729124e-16 3.1418139165657827e-16 3.1423495204462553e-16
          3.1420008740579033e-16 3.1419680337255786e-16 3.141994111904513e-16 3.141990213709492e-16 3.141994820668535e-16 3.1419909769822667e-16
          3.1419943299844315e-16 3.1419919038298843e-16 3.141994275463716e-16 3.1419914404031976e-16 3.141994820668743e-16 3.1419913586214245e-16
          3.1419937847824597e-16 3.1419907452669837e-16 3.141992449033908e-16 3.1419900773928226e-16 5.578574291238771e-16 4.767552706052984e-16
          3.9170278000912557e-16 4.3864281704235423e-16 5.091593708592867e-16 4.030841483759609e-16 7.77550810374538e-16 5.478317439713707e-16
          8.836310086371455e-16 6.156019466059404e-16 7.298488464187493e-16 5.456409718163792e-16 5.978534559643345e-16 4.808186334108638e-16
          4.968832625544908e-16 4.2573617139599423e-16 6.474652628026671e-16 4.893634165749145e-16 8.339749090814964e-16 5.735189661989605e-16
          6.235649229546464e-16 4.670796400852175e-16 3.9528304581258035e-16 3.539534180199336e-16 3.359469105986557e-16 3.252441027754922e-16
          3.2720373350167496e-16 3.213066148085523e-16 3.134319293006431e-16 3.1328045423173093e-16 3.072334620817559e-16 3.098024130983015e-16
          3.134380371586922e-16 3.138749490569182e-16 3.157884492408338e-16 3.152516500716358e-16 3.141747961733299e-16 3.1416417928728014e-16
          3.141662257750354e-16 3.141840831749393e-16 3.141922952293442e-16 3.141947989441688e-16 3.1419807680838435e-16 3.1419829489038173e-16
          3.1419887689068143e-16 3.1419896889375294e-16 3.141990718008335e-16 3.141991188244951e-16 3.14199231273618e-16 3.141991713008981e-16
          3.1419929669862405e-16 3.141991835684923e-16 3.123944829783365e-16 3.192959442781201e-16 3.0620576297765515e-16 3.151247501682575e-16
          3.2874603842498807e-16 3.352863800249558e-16 3.3642819144129937e-16 3.322733786074335e-16 3.2207660857209344e-16 3.143449932273558e-16
          3.1303502090505476e-16 3.135421354628768e-16 3.142740862841254e-16 3.147147424561277e-16 3.139222598681231e-16 3.1362592453217016e-16
          3.1428684143269156e-16 3.143936012220866e-16 3.141793681469047e-16 3.142007958451673e-16 3.141983678291497e-16 3.141988039725104e-16
          3.1419900978396954e-16 3.141991181428561e-16 3.1419910792046545e-16 3.1419905817089216e-16 3.1813867654372025e-16 3.1916368359540877e-16
          3.1540260006267523e-16 3.121368227683115e-16 3.099191922752408e-16 3.091396628359026e-16 3.090725720252058e-16 3.099576769773693e-16
          3.12891646797025e-16 3.1562696313828715e-16 3.1547568459432087e-16 3.144604806984669e-16 3.1400687761592214e-16 3.140199887968259e-16
          3.147155405734274e-16 3.148804849494932e-16 3.142618219102389e-16 3.1407235154173547e-16 3.14205173892579e-16 3.1419965111549135e-16
          3.1419943299930597e-16 3.141990949726418e-16 3.1419895867111475e-16 3.141990704375555e-16 3.1419910451275264e-16 3.1419904590342375e-16
          1.560045214447716e-15 1.3017421955659102e-15 9.953321552418878e-16 1.1793153986495838e-15 1.6555905702831763e-15 1.0666792554622787e-15
          3.012394241058063e-15 1.7125852626700342e-15 3.4417526779202714e-15 1.9704180650416125e-15 2.522730347083327e-15 1.5323636873164378e-15
          1.706764513747128e-15 1.1132028293200896e-15 1.3132875164750702e-15 8.758362257195011e-16 2.2920311365139847e-15 1.3279047863078808e-15
          3.1192352322314444e-15 1.7431453847555377e-15 1.869355497999313e-15 1.1117544005008975e-15 6.506020891476117e-16 4.879751824651664e-16
          3.1373941325304795e-16 3.1439427080753096e-16 2.903095188503137e-16 3.0082561362027705e-16 3.2845260886808318e-16 3.256336307362528e-16
          3.484886188237777e-16 3.3780464380161545e-16 3.225797234164193e-16 3.1968852823501207e-16 3.085042508400064e-16 3.105970561800531e-16
          3.1419073271921133e-16 3.1426379340110754e-16 3.143067684078505e-16 3.1424425644489955e-16 3.1422474775411344e-16 3.142146141869721e-16
          3.142034048825375e-16 3.1420236218376556e-16 3.141994957013705e-16 3.141995863413393e-16 3.141991903827451e-16 3.141992987418679e-16
          3.141992258213872e-16 3.1419927148206527e-16 3.1419915494541404e-16 3.141992040135732e-16 4.984997836576435e-16 5.510300113862964e-16
          4.000414534403252e-16 3.777907095000397e-16 4.266928710573535e-16 4.461691364052019e-16 4.3137856607221874e-16 3.86334555815656e-16
          3.433792874496187e-16 3.417158874767435e-16 3.3409950261882236e-16 3.1954444912731538e-16 3.1497831679277013e-16 3.130309890899578e-16
          3.1773411730637856e-16 3.1974884253864485e-16 3.1555491477232545e-16 3.1371187184187744e-16 3.1426176985209694e-16 3.141904561838456e-16
          3.1420120034055474e-16 3.1420003753403984e-16 3.1419934236040586e-16 3.1419929601582623e-16 3.141992735265489e-16 3.1419921219155134e-16
          3.0807745239742125e-16 3.034744399211411e-16 3.223149662392692e-16 3.4280513471807416e-16 3.5430228995175424e-16 3.5034124526085516e-16
          3.431159872513865e-16 3.342841766673798e-16 3.229801387974599e-16 3.1637623767385564e-16 3.140457022351633e-16 3.137406224719095e-16
          3.149075052235264e-16 3.1472026978967515e-16 3.1265358200833466e-16 3.1237701629783663e-16 3.1431249649104593e-16 3.1473388216365503e-16
          3.141866856211902e-16 3.141991678857426e-16 3.141979200612789e-16 3.1419875558308623e-16 3.1419900773950373e-16 3.141991849306617e-16
          3.1419922991035454e-16 3.141991713013703e-16 3.589572396286628e-15 4.3780328420722975e-15 3.0092508351413978e-15 2.857484067233486e-15
          8.371236694390257e-15 4.72366857512643e-15 1.4088440521789783e-14 7.770376702744934e-15 1.4859575892131822e-14 8.463170773175092e-15
          1.0210543339589855e-14 6.16019041484692e-15 6.129273932329514e-15 3.986857144372497e-15 4.772434123415666e-15 3.0630690990882567e-15
          9.357659974138119e-15 5.103290376420392e-15 1.2439162236210189e-14 6.573092802707767e-15 7.120731375706492e-15 3.833169469366207e-15
          2.3140468067708136e-15 1.329697750561932e-15 9.50333599947698e-16 6.413064038159174e-16 6.398658440197443e-16 4.867690023800788e-16
          4.3331485266109225e-16 3.8962290059867155e-16 3.781562901087565e-16 3.6740263500185997e-16 3.856693986402519e-16 3.654110499652897e-16
          3.3983281915472945e-16 3.3267470271142427e-16 3.14781754687047e-16 3.1431055584323193e-16 3.138724538231636e-16 3.1408301292206313e-16
          3.1410753942061286e-16 3.1414609868982495e-16 3.141807076822874e-16 3.1418570850394104e-16 3.141959301082339e-16 3.1419646305055594e-16
          3.1419862609862465e-16 3.141986819815458e-16 3.1419899002052364e-16 3.141990888389412e-16 3.1419904317813553e-16 3.1419916857535044e-16
          9.852802376756096e-16 1.2278997708039876e-15 7.190609004812196e-16 9.521365450939884e-16 1.2794453788330877e-15 1.2658433179940151e-15
          1.0934769587460093e-15 8.297011921050287e-16 6.041361240630475e-16 5.688873377771825e-16 4.689905399150302e-16 3.4000069516179175e-16
          3.244636864719977e-16 3.2478606669556433e-16 3.3909877368280734e-16 3.4615839327115047e-16 3.3248497591211117e-16 3.191954598220131e-16
          3.140286318722067e-16 3.1424344579845506e-16 3.14193528446231e-16 3.1419551209750027e-16 3.14198232896618e-16 3.1419902614074517e-16
          3.1419927080115653e-16 3.141993157809436e-16 3.300916471407199e-16 3.304038034276321e-16 3.6202134509983643e-16 4.519602064878938e-16
          4.921251034478157e-16 4.21849145884048e-16 3.425135610765395e-16 3.056983094492105e-16 3.5935146942342683e-16 4.3075130634902113e-16
          3.9237351680413846e-16 3.3465269597053294e-16 3.1664816525985863e-16 3.1589997265071515e-16 3.3226659882936374e-16 3.356678066473377e-16
          3.1981725053389494e-16 3.1287433337590717e-16 3.142179067449965e-16 3.141933195759475e-16 3.142023989334249e-16 3.1420031486940585e-16
          3.141994698003578e-16 3.141993144170233e-16 3.1419935394495433e-16 3.1419933758932176e-16 1.3811231771737683e-14 2.2304428928777587e-14
          1.3072642570325519e-14 9.319826136659702e-15 4.3845704712729196e-14 2.4044237361603933e-14 6.453894527218213e-14 3.6041521549514064e-14
          6.306318669330633e-14 3.636792903755667e-14 4.028758563992382e-14 2.463898802920743e-14 2.1155412400940727e-14 1.4147202044313271e-14
          1.8831491409007652e-14 1.1739271635750137e-14 4.026279621373333e-14 2.1527984963981508e-14 5.0767967310770063e-14 2.6717585740313034e-14
          2.8070068465457098e-14 1.503306973348978e-14 8.902157231103542e-15 4.907039030356718e-15 3.759694341798235e-15 2.1260233670257277e-15
          2.178305996465122e-15 1.284800881514022e-15 1.364335507029568e-15 1.0388501154493684e-15 1.1984584098360337e-15 1.0094407274002317e-15
          7.899292699960138e-16 6.706825502716644e-16 3.6223769190060053e-16 3.613590473709044e-16 3.126497986501402e-16 3.139782450606378e-16
          3.1516649688575557e-16 3.1444799833581576e-16 3.145089637516189e-16 3.143657414412212e-16 3.1426857208781997e-16 3.1424749225761463e-16
          3.142116025798411e-16 3.142094313725695e-16 3.14200000049392e-16 3.1420035238217755e-16 3.1419809589010943e-16 3.141985886176203e-16
          3.1419798548301285e-16 3.1419838757230956e-16 2.2714900188432492e-15 2.716777271018923e-15 2.6275807747343596e-15 4.487363795485297e-15
          5.6036951764762956e-15 5.095484721144126e-15 3.989361011976287e-15 2.6497583808492235e-15 1.8518743715261803e-15 1.9471399502641476e-15
          1.4558274150330658e-15 7.092659452119127e-16 4.3117369707247973e-16 3.693574697045379e-16 5.687229830655097e-16 6.333030097519172e-16
          4.624795092034086e-16 3.438330257811849e-16 3.147820573647118e-16 3.1398799838740814e-16 3.1420739002984626e-16 3.1421155495406423e-16
          3.1420329138267995e-16 3.1420029511689716e-16 3.1419953522642457e-16 3.141993662134918e-16 7.021238258130495e-16 6.051340404561245e-16
          1.0123915389900559e-15 1.4306297641246103e-15 1.5347189711455862e-15 1.2005790237972104e-15 8.397303362667553e-16 6.524648992058247e-16
          9.105750288226687e-16 1.2270757306722986e-15 9.155838285436706e-16 5.066110608139336e-16 3.6999500189173845e-16 3.474191728461541e-16
          4.2408124226185034e-16 4.46182974539405e-16 3.7352318785950238e-16 3.271856487211615e-16 3.142574232582882e-16 3.142464969889404e-16