<?xml version="1.0"?>
<VTKFile type="UnstructuredGrid" version="0.1" byte_order="LittleEndian" header_type="UInt32" compressor="vtkZLibDataCompressor">
  <UnstructuredGrid>
    <Piece NumberOfPoints="341" NumberOfCells="174">
      <PointData>
        <DataArray type="Int32" Name="libmesh_node_id" format="ascii" RangeMin="120" RangeMax="3141">
          120 121 122 123 124 125
          126 127 140 141 142 143
          150 151 152 153 154 155
          156 157 170 171 172 173
          180 181 182 183 184 185
          186 187 200 201 202 203
          210 211 212 213 214 215
          216 217 230 231 232 233
          2772 2773 2774 2775 2776 2777
          2778 2779 2780 2781 2782 2783
          2784 2785 2786 2787 2788 2789
          2790 2791 2792 2793 2794 2795
          2796 2797 2798 2799 2800 2801
          2802 2803 2804 2805 2806 2807
          2808 2809 2810 2811 2812 2813
          2814 2815 2816 2817 2818 2819
          2820 2821 2822 2823 2824 2825
          2826 2827 2828 2829 2830 2831
          2832 2833 2834 2835 2836 2837
          2838 2839 2840 2841 2900 2901
          2902 2903 2904 2905 2906 2907
          2908 2909 2910 2911 2912 2913
          2916 2917 2920 2921 2922 2923
          2924 2925 2926 2927 2928 2929
          2930 2931 2932 2933 2934 2935
          2936 2937 2938 2939 2940 2941
          2942 2943 2944 2945 2946 2947
          2948 2949 2950 2951 2952 2953
          2954 2955 2956 2957 2958 2959
          2960 2961 2962 2963 2964 2965
          2966 2967 2968 2969 2970 2971
          2972 2973 2974 2975 2976 2977
          2978 2979 2980 2981 2982 2983
          2984 2985 2986 2987 2988 2989
          2990 2991 2992 2993 2994 2995
          2996 2997 2998 2999 3000 3001
          3002 3003 3004 3005 3006 3007
          3008 3009 3010 3011 3012 3013
          3014 3015 3016 3017 3018 3019
          3020 3021 3022 3023 3024 3025
          3026 3027 3028 3029 3030 3031
          3032 3033 3034 3035 3036 3037
          3038 3039 3040 3041 3042 3043
          3044 3045 3046 3047 3048 3049
          3050 3051 3052 3053 3054 3055
          3056 3057 3058 3059 3060 3061
          3062 3063 3064 3065 3066 3067
          3068 3069 3070 3071 3072 3073
          3074 3075 3076 3077 3078 3079
          3080 3081 3082 3083 3084 3085
          3086 3087 3088 3089 3090 3091
          3092 3093 3094 3095 3096 3097
          3098 3099 3100 3101 3102 3103
          3104 3105 3106 3116 3117 3118
          3119 3120 3121 3122 3123 3124
          3125 3132 3133 3134 3135 3136
          3137 3138 3139 3140 3141
        </DataArray>
        <DataArray type="Float64" Name="bounds" format="ascii" RangeMin="0" RangeMax="0">
          0 0 0 0 0 0
          0 0 0 0 0 0
          0 0 0 0 0 0
          0 0 0 0 0 0
          0 0 0 0 0 0
          0 0 0 0 0 0
          0 0 0 0 0 0
          0 0 0 0 0 0
          0 0 0 0 0 0
          0 0 0 0 0 0
          0 0 0 0 0 0
          0 0 0 0 0 0
          0 0 0 0 0 0
          0 0 0 0 0 0
          0 0 0 0 0 0
          0 0 0 0 0 0
          0 0 0 0 0 0
          0 0 0 0 0 0
          0 0 0 0 0 0
          0 0 0 0 0 0
          0 0 0 0 0 0
          0 0 0 0 0 0
          0 0 0 0 0 0
          0 0 0 0 0 0
          0 0 0 0 0 0
          0 0 0 0 0 0
          0 0 0 0 0 0
          0 0 0 0 0 0
          0 0 0 0 0 0
          0 0 0 0 0 0
          0 0 0 0 0 0
          0 0 0 0 0 0
          0 0 0 0 0 0
          0 0 0 0 0 0
          0 0 0 0 0 0
          0 0 0 0 0 0
          0 0 0 0 0 0
          0 0 0 0 0 0
          0 0 0 0 0 0
          0 0 0 0 0 0
          0 0 0 0 0 0
          0 0 0 0 0 0
          0 0 0 0 0 0
          0 0 0 0 0 0
          0 0 0 0 0 0
          0 0 0 0 0 0
          0 0 0 0 0 0
          0 0 0 0 0 0
          0 0 0 0 0 0
          0 0 0 0 0 0
          0 0 0 0 0 0
          0 0 0 0 0 0
          0 0 0 0 0 0
          0 0 0 0 0 0
          0 0 0 0 0 0
          0 0 0 0 0 0
          0 0 0 0 0
        </DataArray>
        <DataArray type="Float64" Name="gradient_error" format="ascii" RangeMin="3.6084013532827623e-9" RangeMax="0.000001672814845849154">
          9.06520801141462e-8 7.553301853650466e-8 4.5256007399331146e-8 5.4048582475786654e-8 4.112882931100168e-8 2.5461074594058725e-8
          1.4441028213352152e-8 9.944451008414918e-9 1.497899626215761e-8 1.7445084837427113e-8 9.793319877115777e-9 5.447873803477684e-9
          4.2558856922878665e-7 3.520057853287704e-7 2.1337320341159177e-7 2.568972611111737e-7 1.54664003954496e-7 9.929134998604857e-8
          2.084951035860517e-8 1.9096609565865185e-8 7.474062149441311e-8 8.820595299356073e-8 4.6465003210610286e-8 2.3542599284251964e-8
          0.0000011276135350434584 0.0000011005259691441707 4.7599574962463043e-7 5.234440489406656e-7 6.085133403974205e-7 3.4043339735400786e-7
          1.002486155486186e-7 2.1501154808624677e-7 7.124990533420102e-8 8.640121201310799e-8 4.2841665289777584e-8 2.1593846240078087e-8
          1.338825582384795e-7 1.7209054797079455e-7 0.0000011220845960635885 0.000001080398814609195 2.4327411724397014e-7 2.7927201157066e-7
          3.9226011310943e-7 2.0780480258505542e-7 1.7042921204270195e-8 2.7206256529934303e-8 1.2241473696601225e-8 1.684299215172825e-8
          0.000001575075050836001 0.0000012867411403989193 0.0000012765956667506215 8.996419895322037e-7 9.20940180608469e-7 0.0000011380301778390777
          0.0000011176994284424307 0.0000013075318392963385 9.663386796522647e-7 0.0000011833692249026707 6.170943668276771e-7 8.552296058795529e-7
          8.516518695509369e-7 8.612460714111542e-7 1.476066848206382e-7 9.90442046802798e-7 9.574861564598033e-7 0.0000010635219295893821
          0.0000010933648449314283 0.000001672814845849154 0.0000013211600123965554 0.0000010191652023766416 0.0000010128660802618453 6.307137537558804e-7
          7.091968631894858e-7 6.398439818399172e-7 5.702685136269993e-7 6.382840628686064e-7 3.91059206234062e-7 2.0106908133915468e-7
          7.2609213457009e-7 3.7991944071850423e-7 7.204240627111111e-7 1.162672044065329e-7 2.669182285642773e-7 4.0805162530342575e-7
          4.657595150006496e-7 2.3689744655759743e-7 4.6782406820483994e-7 4.6866790038963863e-7 3.15600495911247e-7 3.453996482356818e-7
          2.9340989882078676e-7 3.0635891870712877e-7 4.4021951844234904e-7 5.152655634215919e-7 2.494296760887496e-7 8.387284923685639e-8
          2.034121399888464e-7 5.348950454656291e-7 4.647702777025239e-7 2.3143190761835378e-7 2.36245591114571e-7 5.215618043771939e-7
          6.087772438449141e-7 1.6057090885182292e-7 1.2967256017842568e-7 1.3634083140997134e-7 1.879014328626956e-7 1.9629576363318253e-7
          1.1306762945021225e-7 1.6675791699429153e-7 2.356361666333469e-8 2.3768636692698455e-8 2.655773535330965e-8 1.7701448480488785e-8
          2.461303055469656e-7 2.562506958563937e-7 2.2044820453837085e-7 2.397365672206222e-8 2.1880827059242593e-8 1.6579115247707817e-8
          2.0576221461655372e-8 5.121393819637338e-8 5.138786078077384e-8 3.40551822884066e-8 3.623924137284754e-8 1.1863865280661346e-8
          4.144579489236521e-8 2.716184058035065e-8 1.1277403436173039e-8 1.6722503796039374e-8 2.12645445493217e-8 1.2877886268336088e-8
          2.8019542273313228e-8 2.2013383069186183e-8 9.206897940755279e-8 1.4331871412187794e-7 7.097712219882471e-8 1.2352807973284786e-7
          1.3106110505063588e-8 1.2194881281510837e-8 1.07713772644367e-8 1.9456844883620308e-7 1.7607903726687104e-7 1.1283652057958087e-8
          5.197300146090559e-8 1.0128078514116043e-7 3.37794389233898e-8 7.409142177133985e-8 7.0607613963653075e-9 1.173069978740604e-8
          1.1049536462519256e-8 1.5058856882141528e-7 1.1440340461928992e-7 1.6400638178446773e-8 1.7465148305239554e-8 4.7305776440908444e-8
          3.6084013532827623e-9 8.689057981386192e-9 7.714640457657734e-8 1.3769714609489623e-8 2.511495478613972e-7 2.4913191616675143e-7
          2.436169660691034e-7 1.8950630207187195e-7 1.9458821244075515e-7 2.2055911016025827e-7 2.1514657731518905e-7 2.6350050272421096e-7
          2.0720599760078755e-7 2.342622620959172e-7 2.4711428447210564e-7 2.465300078797614e-7 2.4078685255850615e-7 2.613185265910468e-7
          1.380268770201131e-7 1.9198630415376512e-7 1.8667618856127465e-7 2.050240214676234e-7 2.4594573128741715e-7 2.873967780021797e-7
          2.825681891339786e-7 2.2333797967753955e-7 2.5192714287061616e-7 3.0437550392443796e-7 2.413720195281849e-7 2.718924276859323e-7
          2.7773960026577753e-7 2.805163060636928e-7 3.024128358436797e-7 1.5927918135289936e-7 2.2128609660725374e-7 2.3940935144742655e-7
          2.832930118616081e-7 3.365007621318702e-7 3.2899901368655325e-7 2.6097918360840873e-7 2.943006997349791e-7 3.5618029309297977e-7
          2.832923201216418e-7 3.174478666924144e-7 3.214972652412363e-7 3.2762221586154935e-7 3.2736004461049263e-7 1.854576050849473e-7
          2.5960238578340494e-7 2.7871544029184904e-7 3.337471664818625e-7 3.988126894329937e-7 3.86719249933632e-7 3.0946921904663827e-7
          3.414633767741883e-7 3.621472444686067e-7 3.3496362579807206e-7 3.6760943848933244e-7 3.1764930103998053e-7 3.349604133376588e-7
          3.618346496197221e-7 2.201257486602828e-7 2.962075036147445e-7 3.1967518281823505e-7 3.522715256353371e-7 2.2363262599919028e-7
          2.177968160154462e-7 2.5336397502872607e-7 2.4868286707794217e-7 2.3202419506027802e-7 2.6160961136731096e-7 1.8659246035268992e-7
          2.1026465788387272e-7 2.1849242685078054e-7 1.998051746757705e-7 2.830953240582618e-7 2.795689181404381e-7 2.9119502767434387e-7
          2.3393685541505553e-7 1.8067303830486897e-7 1.6605335052956363e-7 1.8213220164077936e-7 2.443181271703434e-7 2.445817090567144e-7
          2.2010404451672882e-7 2.1874327336286984e-7 1.4425064392863474e-7 2.454567779241095e-7 2.2160274929298279e-7 1.514336627542583e-7
          1.9562637997674324e-7 1.9316841955539634e-7 1.9774872066185608e-7 3.7742617573766194e-7 3.573689169064429e-7 3.857932865200284e-7
          3.2368822589495286e-7 1.416409811920391e-7 1.3550063675570013e-7 2.469009685685181e-7 2.2174425181232565e-7 1.293087828885352e-7
          2.4765308328206693e-7 2.2090280020384421e-7 1.2936029231936116e-7 1.9658753505613316e-7 1.941525171256215e-7 4.3730265737162145e-7
          4.1082480547745297e-7 4.360306644375099e-7 3.6228097106478877e-7 3.594284092583929e-7 3.961968285475718e-7 3.9159406388826105e-7
          4.309919218463087e-7 3.871380821024312e-7 4.142731967644259e-7 2.724948468500217e-7 3.5181056178615176e-7 3.8935212530989135e-7
          4.086533739620472e-7 4.337919666623178e-7 4.732636070902902e-7 4.841352400296354e-7 5.220639784877355e-7 4.4357600992654693e-7
          4.750314692564341e-7 3.4513957452638976e-7 4.3286547009462567e-7 4.845634456196045e-7 4.756379521523634e-7 2.3665283194173096e-7
          2.6881393522558024e-7 2.402038661887275e-7 2.7564607251565365e-7 1.768643023490513e-7 1.9631695408304884e-7 1.9313553130681178e-7
          3.0097503850942953e-7 3.110882788425798e-7 2.1576960581704637e-7 2.424235285993172e-7 2.8143723827824016e-7 2.4306404487297615e-7
          2.8585955663565405e-7 1.6669805117083707e-7 1.8845770422164903e-7 1.8164889170427557e-7 3.204509479571631e-7 3.28655068398332e-7
          2.10217357272461e-7 1.3002105671451802e-7 1.22960514405533e-7 2.462651829600262e-7 2.1808093932807592e-7 1.1710112589276427e-7
          2.4209170189855325e-7 2.1268915918441543e-7 1.1589997209654797e-7 1.8989669569612566e-7 1.8328661647027767e-7 5.003744658297882e-7
          4.623053091140691e-7 4.89244270840616e-7 3.9389451913071293e-7 5.44130472207977e-7 5.788475366027684e-7 6.164025502311031e-7
          6.454203440499426e-7 5.091848293590611e-7 5.460408836119647e-7 4.5002132196191187e-7 5.462858192280173e-7 6.206293388947196e-7
          5.594745896699044e-7 2.417938522540047e-7 2.8848536124139874e-7 2.3805127257197832e-7 2.8864472064538007e-7 1.5037645191257058e-7
          1.721656647622352e-7 1.5964581193561282e-7 3.3517687022879285e-7 3.392381687187818e-7 1.9395487761189983e-7
        </DataArray>
        <DataArray type="Float64" Name="gradient_matprop_error" format="ascii" RangeMin="0" RangeMax="0">
          0 0 0 0 0 0
          0 0 0 0 0 0
          0 0 0 0 0 0
          0 0 0 0 0 0
          0 0 0 0 0 0
          0 0 0 0 0 0
          0 0 0 0 0 0
          0 0 0 0 0 0
          0 0 0 0 0 0
          0 0 0 0 0 0
          0 0 0 0 0 0
          0 0 0 0 0 0
          0 0 0 0 0 0
          0 0 0 0 0 0
          0 0 0 0 0 0
          0 0 0 0 0 0
          0 0 0 0 0 0
          0 0 0 0 0 0
          0 0 0 0 0 0
          0 0 0 0 0 0
          0 0 0 0 0 0
          0 0 0 0 0 0
          0 0 0 0 0 0
          0 0 0 0 0 0
          0 0 0 0 0 0
          0 0 0 0 0 0
          0 0 0 0 0 0
          0 0 0 0 0 0
          0 0 0 0 0 0
          0 0 0 0 0 0
          0 0 0 0 0 0
          0 0 0 0 0 0
          0 0 0 0 0 0
          0 0 0 0 0 0
          0 0 0 0 0 0
          0 0 0 0 0 0
          0 0 0 0 0 0
          0 0 0 0 0 0
          0 0 0 0 0 0
          0 0 0 0 0 0
          0 0 0 0 0 0
          0 0 0 0 0 0
          0 0 0 0 0 0
          0 0 0 0 0 0
          0 0 0 0 0 0
          0 0 0 0 0 0
          0 0 0 0 0 0
          0 0 0 0 0 0
          0 0 0 0 0 0
          0 0 0 0 0 0
          0 0 0 0 0 0
          0 0 0 0 0 0
          0 0 0 0 0 0
          0 0 0 0 0 0
          0 0 0 0 0 0
          0 0 0 0 0 0
          0 0 0 0 0
        </DataArray>
        <DataArray type="Float64" Name="initial_marker" format="ascii" RangeMin="0" RangeMax="0">
          0 0 0 0 0 0
          0 0 0 0 0 0
          0 0 0 0 0 0
          0 0 0 0 0 0
          0 0 0 0 0 0
          0 0 0 0 0 0
          0 0 0 0 0 0
          0 0 0 0 0 0
          0 0 0 0 0 0
          0 0 0 0 0 0
          0 0 0 0 0 0
          0 0 0 0 0 0
          0 0 0 0 0 0
          0 0 0 0 0 0
          0 0 0 0 0 0
          0 0 0 0 0 0
          0 0 0 0 0 0
          0 0 0 0 0 0
          0 0 0 0 0 0
          0 0 0 0 0 0
          0 0 0 0 0 0
          0 0 0 0 0 0
          0 0 0 0 0 0
          0 0 0 0 0 0
          0 0 0 0 0 0
          0 0 0 0 0 0
          0 0 0 0 0 0
          0 0 0 0 0 0
          0 0 0 0 0 0
          0 0 0 0 0 0
          0 0 0 0 0 0
          0 0 0 0 0 0
          0 0 0 0 0 0
          0 0 0 0 0 0
          0 0 0 0 0 0
          0 0 0 0 0 0
          0 0 0 0 0 0
          0 0 0 0 0 0
          0 0 0 0 0 0
          0 0 0 0 0 0
          0 0 0 0 0 0
          0 0 0 0 0 0
          0 0 0 0 0 0
          0 0 0 0 0 0
          0 0 0 0 0 0
          0 0 0 0 0 0
          0 0 0 0 0 0
          0 0 0 0 0 0
          0 0 0 0 0 0
          0 0 0 0 0 0
          0 0 0 0 0 0
          0 0 0 0 0 0
          0 0 0 0 0 0
          0 0 0 0 0 0
          0 0 0 0 0 0
          0 0 0 0 0 0
          0 0 0 0 0
        </DataArray>
        <DataArray type="Float64" Name="markers_norefine" format="ascii" RangeMin="0" RangeMax="0">
          0 0 0 0 0 0
          0 0 0 0 0 0
          0 0 0 0 0 0
          0 0 0 0 0 0
          0 0 0 0 0 0
          0 0 0 0 0 0
          0 0 0 0 0 0
          0 0 0 0 0 0
          0 0 0 0 0 0
          0 0 0 0 0 0
          0 0 0 0 0 0
          0 0 0 0 0 0
          0 0 0 0 0 0
          0 0 0 0 0 0
          0 0 0 0 0 0
          0 0 0 0 0 0
          0 0 0 0 0 0
          0 0 0 0 0 0
          0 0 0 0 0 0
          0 0 0 0 0 0
          0 0 0 0 0 0
          0 0 0 0 0 0
          0 0 0 0 0 0
          0 0 0 0 0 0
          0 0 0 0 0 0
          0 0 0 0 0 0
          0 0 0 0 0 0
          0 0 0 0 0 0
          0 0 0 0 0 0
          0 0 0 0 0 0
          0 0 0 0 0 0
          0 0 0 0 0 0
          0 0 0 0 0 0
          0 0 0 0 0 0
          0 0 0 0 0 0
          0 0 0 0 0 0
          0 0 0 0 0 0
          0 0 0 0 0 0
          0 0 0 0 0 0
          0 0 0 0 0 0
          0 0 0 0 0 0
          0 0 0 0 0 0
          0 0 0 0 0 0
          0 0 0 0 0 0
          0 0 0 0 0 0
          0 0 0 0 0 0
          0 0 0 0 0 0
          0 0 0 0 0 0
          0 0 0 0 0 0
          0 0 0 0 0 0
          0 0 0 0 0 0
          0 0 0 0 0 0
          0 0 0 0 0 0
          0 0 0 0 0 0
          0 0 0 0 0 0
          0 0 0 0 0 0
          0 0 0 0 0
        </DataArray>
        <DataArray type="Float64" Name="markers_mustrefine" format="ascii" RangeMin="0" RangeMax="0">
          0 0 0 0 0 0
          0 0 0 0 0 0
          0 0 0 0 0 0
          0 0 0 0 0 0
          0 0 0 0 0 0
          0 0 0 0 0 0
          0 0 0 0 0 0
          0 0 0 0 0 0
          0 0 0 0 0 0
          0 0 0 0 0 0
          0 0 0 0 0 0
          0 0 0 0 0 0
          0 0 0 0 0 0
          0 0 0 0 0 0
          0 0 0 0 0 0
          0 0 0 0 0 0
          0 0 0 0 0 0
          0 0 0 0 0 0
          0 0 0 0 0 0
          0 0 0 0 0 0
          0 0 0 0 0 0
          0 0 0 0 0 0
          0 0 0 0 0 0
          0 0 0 0 0 0
          0 0 0 0 0 0
          0 0 0 0 0 0
          0 0 0 0 0 0
          0 0 0 0 0 0
          0 0 0 0 0 0
          0 0 0 0 0 0
          0 0 0 0 0 0
          0 0 0 0 0 0
          0 0 0 0 0 0
          0 0 0 0 0 0
          0 0 0 0 0 0
          0 0 0 0 0 0
          0 0 0 0 0 0
          0 0 0 0 0 0
          0 0 0 0 0 0
          0 0 0 0 0 0
          0 0 0 0 0 0
          0 0 0 0 0 0
          0 0 0 0 0 0
          0 0 0 0 0 0
          0 0 0 0 0 0
          0 0 0 0 0 0
          0 0 0 0 0 0
          0 0 0 0 0 0
          0 0 0 0 0 0
          0 0 0 0 0 0
          0 0 0 0 0 0
          0 0 0 0 0 0
          0 0 0 0 0 0
          0 0 0 0 0 0
          0 0 0 0 0 0
          0 0 0 0 0 0
          0 0 0 0 0
        </DataArray>
        <DataArray type="Float64" Name="gradient_marker" format="ascii" RangeMin="1" RangeMax="1">
          1 1 1 1 1 1
          1 1 1 1 1 1
          1 1 1 1 1 1
          1 1 1 1 1 1
          1 1 1 1 1 1
          1 1 1 1 1 1
          1 1 1 1 1 1
          1 1 1 1 1 1
          1 1 1 1 1 1
          1 1 1 1 1 1
          1 1 1 1 1 1
          1 1 1 1 1 1
          1 1 1 1 1 1
          1 1 1 1 1 1
          1 1 1 1 1 1
          1 1 1 1 1 1
          1 1 1 1 1 1
          1 1 1 1 1 1
          1 1 1 1 1 1
          1 1 1 1 1 1
          1 1 1 1 1 1
          1 1 1 1 1 1
          1 1 1 1 1 1
          1 1 1 1 1 1
          1 1 1 1 1 1
          1 1 1 1 1 1
          1 1 1 1 1 1
          1 1 1 1 1 1
          1 1 1 1 1 1
          1 1 1 1 1 1
          1 1 1 1 1 1
          1 1 1 1 1 1
          1 1 1 1 1 1
          1 1 1 1 1 1
          1 1 1 1 1 1
          1 1 1 1 1 1
          1 1 1 1 1 1
          1 1 1 1 1 1
          1 1 1 1 1 1
          1 1 1 1 1 1
          1 1 1 1 1 1
          1 1 1 1 1 1
          1 1 1 1 1 1
          1 1 1 1 1 1
          1 1 1 1 1 1
          1 1 1 1 1 1
          1 1 1 1 1 1
          1 1 1 1 1 1
          1 1 1 1 1 1
          1 1 1 1 1 1
          1 1 1 1 1 1
          1 1 1 1 1 1
          1 1 1 1 1 1
          1 1 1 1 1 1
          1 1 1 1 1 1
          1 1 1 1 1 1
          1 1 1 1 1
        </DataArray>
        <DataArray type="Float64" Name="gradient_matprop_marker" format="ascii" RangeMin="0" RangeMax="0">
          0 0 0 0 0 0
          0 0 0 0 0 0
          0 0 0 0 0 0
          0 0 0 0 0 0
          0 0 0 0 0 0
          0 0 0 0 0 0
          0 0 0 0 0 0
          0 0 0 0 0 0
          0 0 0 0 0 0
          0 0 0 0 0 0
          0 0 0 0 0 0
          0 0 0 0 0 0
          0 0 0 0 0 0
          0 0 0 0 0 0
          0 0 0 0 0 0
          0 0 0 0 0 0
          0 0 0 0 0 0
          0 0 0 0 0 0
          0 0 0 0 0 0
          0 0 0 0 0 0
          0 0 0 0 0 0
          0 0 0 0 0 0
          0 0 0 0 0 0
          0 0 0 0 0 0
          0 0 0 0 0 0
          0 0 0 0 0 0
          0 0 0 0 0 0
          0 0 0 0 0 0
          0 0 0 0 0 0
          0 0 0 0 0 0
          0 0 0 0 0 0
          0 0 0 0 0 0
          0 0 0 0 0 0
          0 0 0 0 0 0
          0 0 0 0 0 0
          0 0 0 0 0 0
          0 0 0 0 0 0
          0 0 0 0 0 0
          0 0 0 0 0 0
          0 0 0 0 0 0
          0 0 0 0 0 0
          0 0 0 0 0 0
          0 0 0 0 0 0
          0 0 0 0 0 0
          0 0 0 0 0 0
          0 0 0 0 0 0
          0 0 0 0 0 0
          0 0 0 0 0 0
          0 0 0 0 0 0
          0 0 0 0 0 0
          0 0 0 0 0 0
          0 0 0 0 0 0
          0 0 0 0 0 0
          0 0 0 0 0 0
          0 0 0 0 0 0
          0 0 0 0 0 0
          0 0 0 0 0
        </DataArray>
        <DataArray type="Float64" Name="combo" format="ascii" RangeMin="1" RangeMax="1">
          1 1 1 1 1 1
          1 1 1 1 1 1
          1 1 1 1 1 1
          1 1 1 1 1 1
          1 1 1 1 1 1
          1 1 1 1 1 1
          1 1 1 1 1 1
          1 1 1 1 1 1
          1 1 1 1 1 1
          1 1 1 1 1 1
          1 1 1 1 1 1
          1 1 1 1 1 1
          1 1 1 1 1 1
          1 1 1 1 1 1
          1 1 1 1 1 1
          1 1 1 1 1 1
          1 1 1 1 1 1
          1 1 1 1 1 1
          1 1 1 1 1 1
          1 1 1 1 1 1
          1 1 1 1 1 1
          1 1 1 1 1 1
          1 1 1 1 1 1
          1 1 1 1 1 1
          1 1 1 1 1 1
          1 1 1 1 1 1
          1 1 1 1 1 1
          1 1 1 1 1 1
          1 1 1 1 1 1
          1 1 1 1 1 1
          1 1 1 1 1 1
          1 1 1 1 1 1
          1 1 1 1 1 1
          1 1 1 1 1 1
          1 1 1 1 1 1
          1 1 1 1 1 1
          1 1 1 1 1 1
          1 1 1 1 1 1
          1 1 1 1 1 1
          1 1 1 1 1 1
          1 1 1 1 1 1
          1 1 1 1 1 1
          1 1 1 1 1 1
          1 1 1 1 1 1
          1 1 1 1 1 1
          1 1 1 1 1 1
          1 1 1 1 1 1
          1 1 1 1 1 1
          1 1 1 1 1 1
          1 1 1 1 1 1
          1 1 1 1 1 1
          1 1 1 1 1 1
          1 1 1 1 1 1
          1 1 1 1 1 1
          1 1 1 1 1 1
          1 1 1 1 1 1
          1 1 1 1 1
        </DataArray>
        <DataArray type="Float64" Name="dHdT" format="ascii" RangeMin="25.80545139620548" RangeMax="30.541245581366915">
          25.80814667981791 25.80875663730315 25.810050020440045 25.809711665840133 25.810149824285737 25.810815652802752
          25.811324084847207 25.81145932147556 25.81134340357694 25.811276651862357 25.811481481319763 25.811594558103906
          25.82794519083813 25.824948659604814 25.819305270836182 25.820988144363263 25.815818753980224 25.81469937000194
          25.80832371549423 25.811608197753955 25.813661882067542 25.814031097888396 25.812900219660627 25.812304371011038
          26.215257551516093 26.209063613148874 25.929397093246727 25.94148068960976 26.110998268363005 25.90273472334036
          25.951325392610556 25.870852552121146 25.814887605576757 25.81611994823308 25.813104881116757 25.812225400463923
          28.247840140866355 28.55172357156807 26.355980019317695 26.37496794653146 29.08977919918854 26.170949269126307
          29.911165649938937 26.076501021335144 25.81317697844275 25.81638372411177 25.808327571494786 25.807836922427107
          26.57700572463263 26.38464524813 26.388219947044952 27.139210417325884 27.163926195361306 26.720336716236673
          26.71680702564808 26.373601996511045 27.21007948701456 26.72403938798257 26.0421352010692 26.206017738474497
          26.211356096749224 26.191882948595474 28.349545963084722 27.303127656597077 27.27559020062256 27.357305457224175
          26.369900275879793 26.557464364945986 26.352332390289185 27.25825712601909 26.74180614099341 26.094459313624906
          27.43136604863626 26.781859568206208 26.00718303522561 26.12015182390763 26.03723612882595 28.79800582332819
          27.553373305685813 27.76354089341968 26.27541026793668 25.989751170730116 25.95223030256305 27.604516871128084
          26.78577333484282 25.922460798017624 27.655299557585124 26.750051836837184 25.91063625499716 26.00362916136539
          25.96808793488282 29.444661133145008 27.852353037426656 27.939855155744226 26.128064381209626 25.912330020315473
          25.89316380820354 27.69319367455988 26.695213410374443 25.87095286605275 25.931311640160857 30.541245581366915
          28.024939002681307 26.01850691217458 25.85319120382131 25.85568466741867 25.879150988117228 25.882838941460076
          25.847126791467637 25.87012194729181 25.81439677713159 25.81488871780778 25.815632862899676 25.813246495053697
          25.905110772413146 25.90999321550148 25.89311710311599 25.815380658483964 25.807027887943185 25.809231296050505
          25.81088989378415 25.826272479685745 25.821042785812743 25.818647610685762 25.822809304813546 25.8084065229522
          25.812128168157606 25.81188972339465 25.81143470415783 25.816252435558773 25.81934612994135 25.8116512786317
          25.80545139620548 25.80745340293989 25.83972959680162 25.859665780072696 25.83249241329588 25.84976614705876
          25.81229353878441 25.811461680170126 25.809965849550778 25.879601963343767 25.86703988082163 25.810629821555843
          25.826138557417607 25.840089973900138 25.82070510874383 25.830824115186427 25.811265182066904 25.809319389503415
          25.809570832007573 25.85404139038267 25.84094312162902 25.807373596939925 25.816449576712117 25.822996460716773
          25.81157640946944 25.810285270188462 25.829543344721426 25.808994130907482 27.715272015107203 27.53323349280391
          27.522718561838385 27.974411121106215 27.9958547542554 27.790949220624707 27.77453111990413 27.558971684679705
          28.050196314587357 27.832196245055254 27.35119497050062 27.58604368699401 27.57465111870204 27.614196175523155
          28.2764374934036 28.048664948445506 28.02634367796987 28.105420805430807 27.820892403487406 27.79677410019763
          27.59207090884042 28.120664165872828 27.885799345349415 27.628819956772475 28.19965636852548 27.9462678971788
          27.3873677174832 27.650934524826 27.692879425832118 28.44455423154803 28.179527781858415 28.26371583758513
          27.914501332168797 27.901610162151187 27.66746678634537 28.285753092595755 28.011777875176342 27.711589348621004
          28.37852785521019 28.084782243282675 27.43332341053955 27.73780265775693 27.54502897257912 28.66989602304032
          28.35608896400732 28.457975137944334 28.042281904974317 28.019554547402976 27.761035602644764 28.47854134536343
          28.166304994974055 27.494985619312875 28.59077961722322 28.253561635618677 27.1814139218563 27.451668048613698
          27.478652690861267 28.937528143323885 28.571574387303336 28.69153865191777 27.72192217537109 26.57349111976415
          26.581878616263538 26.708682325333065 26.71935386439342 26.553619744609808 26.689292379879028 26.286671053702243
          26.368097198023413 26.385694073759765 26.337623032049663 26.843873530901984 26.856829112523297 26.82496501514825
          26.449523342344577 26.187533383862288 26.14994688197966 26.17304549077853 26.606060237936553 26.582602292514384
          26.49433135194462 26.513416555039 26.11370567606232 26.546028439490815 26.46159708035821 26.11236038009703
          26.40606041137486 26.42077287214145 26.37716572122561 27.578108006994327 27.3575460356648 27.3707841884706
          27.033168226442353 26.11508212967491 26.086382870377683 26.51909018720199 26.433620448609904 26.05772952965757
          26.489469868778933 26.403138028073272 26.057683611080456 26.348150710017826 26.31680618736761 27.630144334374123
          27.380033102854636 27.386373654070137 27.010082858348763 28.717951787163145 28.347072537116354 28.853041327098733
          28.444441050892994 27.503580852367534 27.526652000214153 29.257358761504122 28.817768824812685 28.956802209498886
          27.807289586397886 28.998659684549125 28.5466192899884 29.163518845203388 28.658046706996583 27.546271952935935
          27.56242518315626 29.66012894507908 29.114030401109666 29.291892632341863 27.896728522826322 26.528703994032334
          26.670447469145067 26.501066263042958 26.648328723420075 26.231871437408167 26.309926520624625 26.2791942210991
          26.812190944257804 26.79559118379719 26.38798160384108 26.471473874002754 26.62190844010696 26.438903446582962
          26.590962577937237 26.172542915629514 26.245851869769727 26.209649358351736 26.772343006211162 26.74302170929151
          26.319160823909932 26.053055959413463 26.028879192768475 26.455668796793393 26.368871487757552 26.000660008458645
          26.41765439913296 26.33123936241874 26.004702426123487 26.282074178721714 26.24482432570452 27.676555771967596
          27.38761710916366 27.383458984601333 26.964993433112998 29.348134049679544 28.779500833909854 29.55737723584476
          28.9139382875169 27.575278216675443 27.58390861810098 30.201438189597223 29.492631232239013 29.72277732220997
          27.982789249341344 26.401737162851287 26.55503563253407 26.359279954686787 26.512762529374243 26.105850919083032
          26.170382449857428 26.128207161735556 26.70833410221686 26.666245104061694 26.234913980631823
        </DataArray>
        <DataArray type="Float64" Name="dk/dtemperature" format="ascii" RangeMin="0.010969811882822264" RangeMax="0.0158045803493432">
          0.015804580349343192 0.015804580349343192 0.015804580349343192 0.015804580349343192 0.01580458034934319 0.01580458034934319
          0.015804580349343192 0.015804580349343192 0.015804580349343192 0.015804580349343192 0.01580458034934319 0.015804580349343192
          0.015804580349343192 0.015804580349343192 0.015804580349343195 0.015804580349343192 0.015804580349343192 0.015804580349343192
          0.015804580349343192 0.015804580349343192 0.015804580349343192 0.015804580349343192 0.015804580349343192 0.015804580349343192
          0.015254076945682312 0.015316725641985588 0.0157523731024238 0.01572104875427216 0.01548756284997724 0.015762814551807683
          0.01565840005796889 0.015762814551807676 0.015804580349343192 0.015804580349343192 0.015804580349343192 0.015804580349343195
          0.01289305137897581 0.012553389772512264 0.015254076945682312 0.015254076945682312 0.012034839719977966 0.01539648321920702
          0.0113253243642541 0.015637517159201135 0.01580458034934319 0.01580458034934319 0.015804580349343192 0.0158045803493432