<?xml version="1.0"?>
<VTKFile type="UnstructuredGrid" version="0.1" byte_order="LittleEndian" header_type="UInt32" compressor="vtkZLibDataCompressor">
  <UnstructuredGrid>
    <Piece NumberOfPoints="314" NumberOfCells="176">
      <PointData>
        <DataArray type="Int32" Name="libmesh_node_id" format="ascii" RangeMin="222" RangeMax="1700">
          337 345 513 514 515 516
          520 521 522 523 524 526
          541 542 543 544 548 549
          733 734 739 740 930 931
          932 933 934 935 936 937
          938 939 940 941 942 943
          944 945 946 947 951 952
          954 955 957 958 959 960
          961 962 963 964 965 966
          967 968 969 970 971 972
          973 974 975 977 978 979
          980 981 982 983 984 985
          986 987 988 989 992 994
          995 997 998 999 1000 1001
          1002 1003 1004 1005 1007 1008
          1009 1011 1537 1538 1539 1540
          1541 1542 1543 1544 1545 1546
          1547 1548 1549 1550 1551 1552
          1553 1554 1559 1560 1561 1562
          1564 1565 1566 1567 1568 1569
          1570 1571 1572 1573 1574 1575
          1576 1577 1578 1579 1580 1581
          1582 1583 1584 1585 1586 1587
          1588 1589 1590 1591 1592 1593
          1594 1595 1596 1597 1598 1599
          1600 1601 1602 1603 1604 1605
          1606 1607 1608 1609 1610 1611
          1612 1613 1614 1615 1616 1617
          1618 1619 1620 1621 1622 1623
          1624 1625 1626 1627 1628 1629
          1630 1631 1632 1633 1634 1635
          1636 1637 1638 1639 1640 1641
          1642 1653 1654 1655 1656 1657
          1658 1659 1660 1662 1664 1666
          1667 1668 1669 1670 1671 1672
          1673 1674 1675 1676 1687 1688
          1689 1690 1691 1692 1693 1694
          1696 1698 1700 326 503 494
          504 332 511 720 721 325
          489 736 737 336 517 724
          866 867 868 871 490 874
          491 948 949 950 953 518
          956 519 888 889 892 894
          976 911 924 926 497 928
          993 1006 525 1010 1420 1483
          1484 1486 908 1489 909 1424
          1497 1499 1501 1515 1516 1518
          222 1521 914 1531 1533 1535
          1555 1556 1643 1644 1558 1647
          1649 1650 1652 1563 1648 1661
          1663 991 1665 1677 1678 1681
          1683 1684 1686 1682 1695 1697
          996 1699
        </DataArray>
        <DataArray type="Float64" Name="bounds" format="ascii" RangeMin="0" RangeMax="0">
          0 0 0 0 0 0
          0 0 0 0 0 0
          0 0 0 0 0 0
          0 0 0 0 0 0
          0 0 0 0 0 0
          0 0 0 0 0 0
          0 0 0 0 0 0
          0 0 0 0 0 0
          0 0 0 0 0 0
          0 0 0 0 0 0
          0 0 0 0 0 0
          0 0 0 0 0 0
          0 0 0 0 0 0
          0 0 0 0 0 0
          0 0 0 0 0 0
          0 0 0 0 0 0
          0 0 0 0 0 0
          0 0 0 0 0 0
          0 0 0 0 0 0
          0 0 0 0 0 0
          0 0 0 0 0 0
          0 0 0 0 0 0
          0 0 0 0 0 0
          0 0 0 0 0 0
          0 0 0 0 0 0
          0 0 0 0 0 0
          0 0 0 0 0 0
          0 0 0 0 0 0
          0 0 0 0 0 0
          0 0 0 0 0 0
          0 0 0 0 0 0
          0 0 0 0 0 0
          0 0 0 0 0 0
          0 0 0 0 0 0
          0 0 0 0 0 0
          0 0 0 0 0 0
          0 0 0 0 0 0
          0 0 0 0 0 0
          0 0 0 0 0 0
          0 0 0 0 0 0
          0 0 0 0 0 0
          0 0 0 0 0 0
          0 0 0 0 0 0
          0 0 0 0 0 0
          0 0 0 0 0 0
          0 0 0 0 0 0
          0 0 0 0 0 0
          0 0 0 0 0 0
          0 0 0 0 0 0
          0 0 0 0 0 0
          0 0 0 0 0 0
          0 0 0 0 0 0
          0 0
        </DataArray>
        <DataArray type="Float64" Name="gradient_error" format="ascii" RangeMin="9.29294315168448e-9" RangeMax="2.560276690237069e-7">
          5.676447176272389e-8 1.1836129130632567e-7 1.3144181429545987e-7 1.0310867618684028e-7 1.1450550914985588e-7 1.2151890949577943e-7
          1.02954324792301e-7 1.5795850145968196e-7 8.164908875341633e-8 1.5606686917777395e-8 1.3301966506694402e-7 2.1482550983337143e-7
          1.006579645893231e-7 1.3851140638978075e-7 3.255744186402657e-8 6.219633228983113e-8 1.7636484819023842e-7 8.086512172031284e-8
          9.677675580133787e-8 8.120013740191988e-8 6.562351900250192e-8 2.1771442330425232e-8 9.51631778534678e-8 8.859495394314581e-8
          1.3873233712610426e-7 1.2942920134164624e-7 8.052000788781903e-8 1.4035128315410457e-7 1.2928210684845034e-7 7.172039330204274e-8
          1.0409359826016648e-7 1.0012534629654539e-7 1.0593500114044924e-7 9.960096314625413e-8 1.0611945345986005e-7 1.183420734018918e-7
          7.384200336941385e-8 6.80752960741348e-8 1.3265691307133822e-7 1.206615053270957e-7 5.3101546698546525e-8 9.0113492219359e-8
          1.1629154167716873e-7 1.0549049196939782e-7 1.1655183761623499e-7 5.2192482187113995e-8 7.205780829487863e-8 4.4553307078251475e-8
          6.53631707332506e-8 4.297090780296633e-8 5.605448562661248e-8 4.868857941620655e-8 1.1631350175858625e-7 1.1448177018141068e-7
          8.778367982124848e-8 3.571732531927889e-8 5.567663561677323e-8 2.046976802381121e-8 4.425154666298914e-8 2.7540146020320493e-8
          3.979238437768157e-8 2.4629195082851357e-8 1.0571459658584921e-7 7.059171029653961e-8 2.0337216906567394e-8 2.3186742681710716e-8
          2.778997661467383e-8 3.007863786342709e-8 1.1019728662271702e-7 1.214407331524634e-7 1.2761949343519012e-8 1.9436609435677417e-8
          2.65505156923176e-8 1.1773697472231874e-7 3.482907004771451e-8 3.706317139956931e-8 1.254610254559405e-7 1.7189116499107474e-8
          3.3403392189416695e-8 1.409640959042632e-7 1.550745128169633e-7 1.6104226562754083e-7 1.1795612846472313e-7 1.1293906312872265e-7
          1.6944515651939732e-7 1.7929402528050994e-7 1.2948296073720794e-7 1.5682424695420852e-7 1.010994598858626e-7 6.488112503747516e-8
          1.7785524665098616e-7 1.130601219136886e-7 2.683877430863708e-8 2.672099892730287e-8 2.947079953579484e-8 2.6304643872574926e-8
          3.231043974370747e-8 3.22752480050601e-8 3.516699042660255e-8 3.16279507446674e-8 2.4858842505941938e-8 2.6980053524728918e-8
          2.3711620812702674e-8 2.9061592056396825e-8 3.0885627594720625e-8 2.7107338889871563e-8 3.83419137196456e-8 3.803128390604044e-8
          4.040253730351977e-8 3.634312650024535e-8 3.215179542856886e-8 3.264075150964266e-8 2.9337991949082297e-8 3.224886504715472e-8
          2.8918810022472666e-8 2.272966285851776e-8 2.320139602977343e-8 2.5611631734406956e-8 2.5973348367237347e-8 2.4401149581701067e-8
          2.6982452295195748e-8 1.713438672246731e-8 1.7966981978169392e-8 2.1100761331063752e-8 2.0315941206269687e-8 2.8841120848525183e-8
          2.9077031266150533e-8 3.225847627667008e-8 3.2365837752620575e-8 2.9815863949854806e-8 3.273086578954675e-8 2.397978972645356e-8
          2.4668257805355064e-8 2.8454464235639755e-8 2.6504516528951564e-8 2.5029198837430243e-8 2.7344652301775015e-8 2.492922771248746e-8
          2.7059465013226248e-8 2.3746529866184805e-8 2.6355427842045922e-8 2.5660754553701717e-8 2.9718002919349387e-8 3.198427219501531e-8
          2.911721962276505e-8 3.09800120395082e-8 2.9296113228830744e-8 3.238716102440818e-8 3.093991928401494e-8 1.335045874736787e-8
          1.459286625924711e-8 1.589081278499882e-8 1.7499782688007754e-8 1.7154388712134884e-8 2.0391833880534468e-8 1.105269545819956e-8
          1.2933561694399428e-8 1.5273939912567845e-8 1.6174550302557588e-8 1.8446127513433226e-8 2.0548880841844664e-8 2.0948203400959383e-8
          2.3638575080650233e-8 2.3969690383171476e-8 2.7720380475358366e-8 1.430447752730223e-8 1.7640060600220176e-8 1.9932906768659543e-8
          2.2934124863482038e-8 2.1419722102132956e-8 2.428927368583262e-8 2.43659405511225e-8 2.6903632201612988e-8 2.0545939640814843e-8
          2.3576942766394502e-8 2.35572066071138e-8 2.7620308459716075e-8 3.1203386957574534e-8 2.9952870323345294e-8 3.3294959724773394e-8
          2.70228042440726e-8 3.07153686616427e-8 2.9153002434319248e-8 3.5644410755022256e-8 3.5624453008343285e-8 3.863124683292894e-8
          3.8506085633054185e-8 3.551422512168738e-8 3.7837495117209685e-8 3.147077121559483e-8 3.2194968615558346e-8 3.5661502675518985e-8
          3.3695684151498094e-8 3.392032655211339e-8 3.524783494274002e-8 3.241669812251636e-8 3.320160408424009e-8 3.5392452423579705e-8
          3.800271219257083e-8 3.631270255968509e-8 3.570266123071057e-8 3.3045754111761416e-8 3.9926613853876546e-8 3.957467791300391e-8
          2.3348976107927137e-8 2.6644063551796838e-8 2.5348011754876732e-8 2.9305413590485024e-8 3.141232092540328e-8 3.479400705643752e-8
          1.6703317575063538e-8 2.211581198312313e-8 2.389745579252067e-8 3.011859729093978e-8 3.474156513713299e-8 3.7944955432937686e-8
          3.6597639419125986e-8 3.9564712179093653e-8 3.438708310276451e-8 3.7739404856571095e-8 3.6065278014832204e-8 4.0555415674438336e-8
          4.2014338646885074e-8 4.041406105538998e-8 4.205201966881249e-8 1.390277309756788e-7 1.1271726206369487e-7 1.9784408225609714e-7
          1.8747255356582867e-7 2.560276690237069e-7 2.3229023289829667e-7 1.3913467047790875e-7 1.1847527446587868e-7 1.7181261380290711e-7
          1.3951449621953703e-7 4.090868211731202e-8 3.42940648131629e-8 6.717566944944453e-8 5.0883148231315064e-8 8.236455829785938e-8
          9.188829383889157e-8 1.311552981909083e-7 1.2375743386938186e-7 1.0301614535732815e-7 9.423695964192984e-8 8.97242051476371e-8
          1.1014159542873602e-7 4.019788859846005e-8 1.1479591305512056e-7 1.0327623887259018e-7 7.479340390822212e-8 1.0688962463594978e-7
          9.494358888409103e-8 1.0191755079442526e-7 5.751219912852344e-8 7.528409483374549e-8 6.089546850069005e-8 1.1284043164990089e-7
          9.013452515259095e-8 9.645780526342453e-8 1.432001525300171e-7 1.168150389870456e-7 1.011425804464176e-7 1.5377543229919993e-7
          1.1771428348095583e-7 1.4007300694192436e-7 1.3611253073006314e-7 1.615286620606702e-7 2.4125770356351542e-8 2.0348999259874673e-8
          2.088973568052745e-8 2.218447676930751e-8 1.4538346644663644e-8 1.542064254022896e-8 1.8049364871265463e-8 2.2800066884967222e-8
          2.2882538851375383e-8 2.2826596265315965e-8 2.1563067880298546e-8 1.095890981327884e-8 1.1928955695193367e-8 1.4413611539889784e-8
          9.29294315168448e-9 1.0670327314632176e-8 1.3275610480461613e-8 1.913548493007006e-8 2.2342748357468447e-8 1.8109844917326575e-8
          4.279206251715381e-8 4.170088301814306e-8 4.090922315025923e-8 4.068269542388591e-8 3.809431179548455e-8 3.940786802358616e-8
          3.77469476991879e-8 3.8633710456095783e-8 3.989951150387643e-8 3.07523525322616e-8 3.991656306410923e-8 3.5020303910802596e-8
          3.16420935767431e-8 4.1961805767370395e-8 4.084478235511317e-8 2.713255569621281e-8 3.156969367922264e-8 3.7551662182112027e-8
          1.779759977741447e-8 2.5536474275882466e-8 3.6025725608158965e-8 3.938841935346754e-8 4.221112972809632e-8 4.351847310824707e-8
          3.765567353055032e-8 4.202095003530987e-8
        </DataArray>
        <DataArray type="Float64" Name="gradient_matprop_error" format="ascii" RangeMin="0" RangeMax="0">
          0 0 0 0 0 0
          0 0 0 0 0 0
          0 0 0 0 0 0
          0 0 0 0 0 0
          0 0 0 0 0 0
          0 0 0 0 0 0
          0 0 0 0 0 0
          0 0 0 0 0 0
          0 0 0 0 0 0
          0 0 0 0 0 0
          0 0 0 0 0 0
          0 0 0 0 0 0
          0 0 0 0 0 0
          0 0 0 0 0 0
          0 0 0 0 0 0
          0 0 0 0 0 0
          0 0 0 0 0 0
          0 0 0 0 0 0
          0 0 0 0 0 0
          0 0 0 0 0 0
          0 0 0 0 0 0
          0 0 0 0 0 0
          0 0 0 0 0 0
          0 0 0 0 0 0
          0 0 0 0 0 0
          0 0 0 0 0 0
          0 0 0 0 0 0
          0 0 0 0 0 0
          0 0 0 0 0 0
          0 0 0 0 0 0
          0 0 0 0 0 0
          0 0 0 0 0 0
          0 0 0 0 0 0
          0 0 0 0 0 0
          0 0 0 0 0 0
          0 0 0 0 0 0
          0 0 0 0 0 0
          0 0 0 0 0 0
          0 0 0 0 0 0
          0 0 0 0 0 0
          0 0 0 0 0 0
          0 0 0 0 0 0
          0 0 0 0 0 0
          0 0 0 0 0 0
          0 0 0 0 0 0
          0 0 0 0 0 0
          0 0 0 0 0 0
          0 0 0 0 0 0
          0 0 0 0 0 0
          0 0 0 0 0 0
          0 0 0 0 0 0
          0 0 0 0 0 0
          0 0
        </DataArray>
        <DataArray type="Float64" Name="initial_marker" format="ascii" RangeMin="0" RangeMax="2">
          0 2 1 1 2 2
          0 1.5 1.5 2 2 2
          0 0.5 0 0.25 1 0.5
          0 0 0 0 2 2
          2 2 2 2 2 2
          2 2 2 2 2 2
          2 2 2 2 2 2
          2 2 2 1 1.5 1
          1.5 0 1 1 2 2
          2 1 1.5 0.6666666666666666 1.5 0
          1 0.6666666666666666 2 2 2 2
          2 2 2 2 2 2
          2 2 2 2 2 2
          2 2 2 2 2 2
          2 2 2 2 2 2
          2 2 2 2 2 2
          2 2 2 2 2 2
          2 2 2 2 2 2
          2 2 2 2 2 2
          2 2 2 2 2 2
          2 2 2 2 2 2
          2 2 2 2 2 2
          2 2 2 2 2 2
          2 2 2 2 2 2
          2 2 2 2 2 2
          2 2 2 2 2 2
          2 2 2 2 2 2
          2 2 2 2 2 2
          2 2 2 2 2 2
          2 2 2 2 2 2
          2 2 2 2 2 2
          2 2 2 2 2 2
          2 2 2 2 2 2
          2 2 2 2 2 2
          2 2 2 2 2 2
          2 2 2 2 2 2
          2 2 2 2 2 2
          2 2 2 0 0 1.5
          0.5 2 1 0 0 1
          1 0 0 1 1 0
          2 2 2 2 2 2
          2 1.3333333333333333 2 2 2 2
          2 2 1 1.5 1 2
          2 2 2 2 2 2
          2 2 2 2 2 2
          2 2 2 2 2 2
          2 2 2 2 2 2
          2 2 2 2 2 2
          2 2 2 2 2 2
          2 2 2 2 2 2
          2 2 2 2 2 2
          2 2 2 2 2 2
          2 2
        </DataArray>
        <DataArray type="Float64" Name="markers_norefine" format="ascii" RangeMin="0" RangeMax="2">
          0 0 0 0 1 0
          0 0 0 2 1 0
          0 0 0 0 0 0
          0 0 0 0 0 0
          0 0 0 0 0 0
          0 0 1 0 0.5 0
          0 0 0 0 0 0
          1 0 0 0 0 0
          0 0 0 0 0 0
          0 0 0 0 0 0
          0 0 0 0 2 2
          2 2 0.5 0.5 2 2
          2 1 2 2 0.5 2
          2 1 0 0 0 0
          0 0 0 0 0 0
          0 0 1 0.5 1 0
          2 1.5 2 0.5 0 0
          0 0 0 0 2 1.5
          1 0.5 0 0 0 0
          0 1.5 1.25 2 1.5 1
          1 2 2 2 2 2
          1.75 2 2 1.25 1.5 2
          2 2 2 0.5 0.5 0
          0 1.5 1.5 1 0.5 0.5
          0 0 1.5 1.5 1 2
          2 2 2 2 2 2
          2 2 2 2 2 2
          2 2 2 2 2 2
          2 2 2 2 2 2
          2 2 2 2 2 2
          2 2 2 2 1.75 2
          1.5 1.25 1 2 2 2
          2 0.5 0.5 0 0 1.5
          1.5 1 0.5 0 1.5 1
          2 2 2 2 2 2
          2 2 2 2 2 2
          2 2 2 2 2 2
          2 2 2 0 0 0
          0 0 0 0 0 0
          0 0 0 0 0 0
          0 0 0 0 0 0
          0 0 0 0 0 0
          0 0 0 0 0 0
          0 0.25 0 0 1 0
          0.25 0 1 0 0 1
          1 1 2 2 2 0
          0.5 0 1.25 2 2 2
          2 2 2 1.75 1.5 2
          1 0.5 1.5 1.25 0 1
          2 2 2 0 1 0.5
          0 2 1.25 2 2 2
          2 2 2 2 1.75 1.5
          2 2
        </DataArray>
        <DataArray type="Float64" Name="markers_mustrefine" format="ascii" RangeMin="0" RangeMax="2">
          0 2 1 1 2 2
          0 1.5 1.5 2 2 2
          0 0.5 0 0.25 1 0.5
          0 0 0 0 2 2
          2 2 2 2 2 2
          2 2 2 2 2 2
          2 2 2 2 2 2
          2 2 2 1 1.5 1
          1.5 0 1 1 2 2
          2 1 1.5 0.6666666666666666 1.5 0
          1 0.6666666666666666 2 2 2 2
          2 2 2 2 2 2
          2 2 2 2 2 2
          2 2 2 2 2 2
          2 2 2 2 2 2
          2 2 2 2 2 2
          2 2 2 2 2 2
          2 2 2 2 2 2
          2 2 2 2 2 2
          2 2 2 2 2 2
          2 2 2 2 2 2
          2 2 2 2 2 2
          2 2 2 2 2 2
          2 2 2 2 2 2
          2 2 2 2 2 2
          2 2 2 2 2 2
          2 2 2 2 2 2
          2 2 2 2 2 2
          2 2 2 2 2 2
          2 2 2 2 2 2
          2 2 2 2 2 2
          2 2 2 2 2 2
          2 2 2 2 2 2
          2 2 2 2 2 2
          2 2 2 2 2 2
          2 2 2 2 2 2
          2 2 2 2 2 2
          2 2 2 0 0 1.5
          0.5 2 1 0 0 1
          1 0 0 1 1 0
          2 2 2 2 2 2
          2 1.3333333333333333 2 2 2 2
          2 2 1 1.5 1 2
          2 2 2 2 2 2
          2 2 2 2 2 2
          2 2 2 2 2 2
          2 2 2 2 2 2
          2 2 2 2 2 2
          2 2 2 2 2 2
          2 2 2 2 2 2
          2 2 2 2 2 2
          2 2 2 2 2 2
          2 2
        </DataArray>
        <DataArray type="Float64" Name="gradient_marker" format="ascii" RangeMin="0" RangeMax="1">
          0.5 0.75 1 0.625 0.5 0.75
          0.6666666666666666 0.75 0.375 0 0.5 1
          0.5 0.5 0.6666666666666666 0.5 0.5 0.5
          0.5 0.5 0.5 0.6666666666666666 1 1
          1 1 0.75 1 0.875 0.5
          0.75 0.625 0.5 0.5 0.5 0.75
          0.5 0.25 0.75 0.625 0 0.5
          0.5 0.5 0.75 0 0.25 0
          0.25 0 0 0 0.75 0.75
          0.5 0 0.25 0 0.125 0
          0 0 0.75 0.5 0 0
          0 0 0.5 0.5 0 0
          0 0.5 0 0 0.5 0
          0 0.5 1 1 1 1
          1 1 1 1 1 0.5
          1 1 0 0 0 0
          0 0 0 0 0 0
          0 0 0 0 0 0
          0 0 0 0 0 0
          0 0 0 0 0 0
          0 0 0 0 0 0
          0 0 0 0 0 0
          0 0 0 0 0 0
          0 0 0 0 0 0
          0 0 0 0 0 0
          0 0 0 0 0 0
          0 0 0 0 0 0
          0 0 0 0 0 0
          0 0 0 0 0 0
          0 0 0 0 0 0
          0 0 0 0 0 0
          0 0 0 0 0 0
          0 0 0 0 0 0
          0 0 0 0 0 0
          0 0 0 0 0 0
          0 0 0 0 0 0
          0 0 0 0 0 0
          0 0 0 0.625 0.3333333333333333 0.75
          0.625 1 0.75 0.5 0.5 1
          0.75 0.5 0.5 0.25 0.25 0.3333333333333333
          1 1 1 0.75 0.5 0.5
          0.75 0 0.5 0.5 0.375 0.5
          0.5 0.625 0 0.25 0 0.75
          0.5 0.5 1 1 0.5 1
          0.5 0.875 0.5 1 0 0
          0 0 0 0 0 0
          0 0 0 0 0 0
          0 0 0 0 0 0
          0 0 0 0 0 0
          0 0 0 0 0 0
          0 0 0 0 0 0
          0 0 0 0 0 0
          0 0
        </DataArray>
        <DataArray type="Float64" Name="gradient_matprop_marker" format="ascii" RangeMin="0" RangeMax="0">
          0 0 0 0 0 0
          0 0 0 0 0 0
          0 0 0 0 0 0
          0 0 0 0 0 0
          0 0 0 0 0 0
          0 0 0 0 0 0
          0 0 0 0 0 0
          0 0 0 0 0 0
          0 0 0 0 0 0
          0 0 0 0 0 0
          0 0 0 0 0 0
          0 0 0 0 0 0
          0 0 0 0 0 0
          0 0 0 0 0 0
          0 0 0 0 0 0
          0 0 0 0 0 0
          0 0 0 0 0 0
          0 0 0 0 0 0
          0 0 0 0 0 0
          0 0 0 0 0 0
          0 0 0 0 0 0
          0 0 0 0 0 0
          0 0 0 0 0 0
          0 0 0 0 0 0
          0 0 0 0 0 0
          0 0 0 0 0 0
          0 0 0 0 0 0
          0 0 0 0 0 0
          0 0 0 0 0 0
          0 0 0 0 0 0
          0 0 0 0 0 0
          0 0 0 0 0 0
          0 0 0 0 0 0
          0 0 0 0 0 0
          0 0 0 0 0 0
          0 0 0 0 0 0
          0 0 0 0 0 0
          0 0 0 0 0 0
          0 0 0 0 0 0
          0 0 0 0 0 0
          0 0 0 0 0 0
          0 0 0 0 0 0
          0 0 0 0 0 0
          0 0 0 0 0 0
          0 0 0 0 0 0
          0 0 0 0 0 0
          0 0 0 0 0 0
          0 0 0 0 0 0
          0 0 0 0 0 0
          0 0 0 0 0 0
          0 0 0 0 0 0
          0 0 0 0 0 0
          0 0
        </DataArray>
        <DataArray type="Float64" Name="combo" format="ascii" RangeMin="0" RangeMax="2">
          0.5 0.75 1 0.625 1.5 0.75
          0.6666666666666666 0.75 0.375 2 1.5 1
          0.5 0.5 0.6666666666666666 0.5 0.5 0.5
          0.5 0.5 0.5 0.6666666666666666 1 1
          1 1 0.75 1 0.875 0.5
          0.75 0.625 1.5 0.5 1 0.75
          0.5 0.25 0.75 0.625 0 0.5
          1.5 0.5 0.75 0 0.25 0
          0.25 0 0 0 0.75 0.75
          0.5 0 0.25 0 0.125 0
          0 0 0.75 0.5 2 2
          2 2 1 1 2 2
          2 1.5 2 2 1 2
          2 1.5 1 1 1 1
          1 1 1 1 1 0.5
          1 1 1 0.5 1 0
          2 1.5 2 0.5 0 0
          0 0 0 0 2 1.5
          1 0.5 0 0 0 0
          0 1.5 1.25 2 1.5 1
          1 2 2 2 2 2
          1.75 2 2 1.25 1.5 2
          2 2 2 0.5 0.5 0
          0 1.5 1.5 1 0.5 0.5
          0 0 1.5 1.5 1 2
          2 2 2 2 2 2
          2 2 2 2 2 2
          2 2 2 2 2 2
          2 2 2 2 2 2
          2 2 2 2 2 2
          2 2 2 2 1.75 2
          1.5 1.25 1 2 2 2
          2 0.5 0.5 0 0 1.5
          1.5 1 0.5 0 1.5 1
          2 2 2 2 2 2
          2 2 2 2 2 2
          2 2 2 2 2 2
          2 2 2 0.625 0.3333333333333333 0.75
          0.625 1 0.75 0.5 0.5 1
          0.75 0.5 0.5 0.25 0.25 0.3333333333333333
          1 1 1 0.75 0.5 0.5
          0.75 0 0.5 0.5 0.375 0.5
          0.5 0.625 0 0.25 0 0.75
          0.5 0.75 1 1 1.5 1
          0.75 0.875 1.5 1 0 1
          1 1 2 2 2 0
          0.5 0 1.25 2 2 2
          2 2 2 1.75 1.5 2
          1 0.5 1.5 1.25 0 1
          2 2 2 0 1 0.5
          0 2 1.25 2 2 2
          2 2 2 2 1.75 1.5
          2 2
        </DataArray>
        <DataArray type="Float64" Name="dHdT" format="ascii" RangeMin="26.002264680768874" RangeMax="65.574264215125">
          26.37260328155227 29.50363471279787 29.37502704984622 28.25082420729145 46.20849053567055 35.87691369935259
          27.077740601501862 29.34081299912189 27.89537106543891 46.281982726858786 50.4104175782977 31.225315889483905
          26.545816892358182 26.912943324964957 26.084232805114482 26.3694358211335 27.28006975757173 26.56288491023483
          26.577251906294066 26.44272465648453 26.30819740667499 26.002264680768874 32.75065823438117 32.112271020417694
          36.09169779245485 34.8428803527911 30.955351439686048 35.10681873514203 33.90943563238354 30.52221743955836
          32.67973918290375 31.818567016481346 47.723993085858865 42.75324189340554 42.692383078958976 36.41396862630835
          30.131410936516627 29.673476451258697 33.30974751606368 32.508258139051506 28.646514809856768 30.811561879622026
          44.00165127461834 40.41092512537017 34.88189398127842 28.795798476069088 30.511007501720247 28.19636028012488
          29.75282202537748 28.021045879475672 29.256599550760335 28.580562547417337 34.140268351573205 33.236574440510125
          31.974696181856213 27.617083514307453 28.918508739267597 26.80037810772764 28.045383330979355 27.156679374902147
          27.920662481330456 27.012894863114564 31.954973520395615 29.904078335811906 52.603743526532476 58.06004851687492
          49.65897948101088 54.65367606153229 47.54788472316059 46.36938101132676 46.22760803846738 50.9984594783912
          49.04358453499425 52.06172483837788 49.38241407769649 52.992315143818516 44.40767824496016 46.303241050045585
          49.11886688953125 48.0266868636575 37.681890764825546 37.02338756533657 34.11734711360782 33.27004879356863
          39.30946135387608 38.882910020282985 34.777455085548226 35.54907179123499 32.085245875438154 29.447163390098098
          37.40813050590647 33.04698066701127 56.195620905111156 53.13603047562631 53.716560772284225 46.48898060377246
          54.892433182911766 53.42265254326908 52.81970000337505 48.67403518834703 40.04084992490867 40.88903346138321
          37.18017868841389 41.42469721911166 41.3354680492081 37.45419596515566 52.57947455524649 51.48315728252001
          49.98380755633249 47.39384505618317 40.93370774291686 39.91153357291507 37.46656538326091 38.90867197058472
          37.04262224680558 61.28876345734032 59.53365066085709 57.58152236976825 57.53262888830055 54.60408194037931
          54.551394407504 56.142694437968075 57.12157843800419 53.93980690529666 60.82179587685104 54.75365734230901
          55.722918503354705 53.437492925737125 54.55475933118805 54.05052864857457 53.13980663321869 50.38447391291934
          52.05108484275979 51.212272937715575 55.991795859361034 46.80488768954207 47.64449764327138 42.18014936269938
          43.66994187836765 58.129029310450036 57.34678088998346 52.7149293052383 47.497443329116635 46.919424149569394
          43.58600902548454 43.23126076934041 55.64400534226044 54.25191070709666 53.022114738399054 46.01638389749031
          47.18100686556196 46.143649586592524 46.351231717013924 55.84976141867436 52.974380899389814 46.129284928613956
          46.0501277012034 46.17154662775141 52.775114360632806 46.209279113520104 46.15547996565216 46.24411405257679
          46.198436097831284 51.14876483558409 50.29628486222917 46.26449190290778 46.23197470922508 46.262144979232474
          49.7409600612482 61.65488835741273 59.187653925978374 59.955883711110346 58.985359900612444 60.62064354810087
          58.081707897149386 61.66202884872898 56.857720788606684 55.25066118357408 57.519592723829405 56.06151078577558
          55.99762033181409 54.50088120288554 58.71277805667414 52.3937603921349 53.25164753407296 52.02141033969418
          52.19921656814149 51.81790276542744 50.13647367371589 49.219673255976076 50.59202499930565 50.48300163900027
          53.58203682889634 46.1948651072884 45.06031940760897 42.86345935973294 42.22471426437495 53.08383792265616
          52.10174993511074 50.967978930154864 43.391218141746506 40.39467926579504 50.64584479461189 47.52673409215066
          46.26319937348603 46.2214547794372 46.27023348983807 46.41915207989793 49.98940118466444 50.15468012681627
          46.29509846404323 46.27899734588901 46.28692646174576 49.05668918620789 54.237266824150936 53.56000113599178
          54.67544146436137 53.37871268830881 53.762880274649504 53.12560764406495 55.67527840461801 52.82817003478972
          52.115247879141684 52.238414793263956 52.92376385876654 27.37417327101959 26.736442782222667 30.67705182747012
          27.481778625462937 32.42785180969231 28.02393386861714 27.024964271666857 26.809328878559242 30.770407543433524
          29.45032856434053 26.180672875026076 26.117490337640206 27.779377193956627 27.169273976167897 26.49404616217349
          32.99869492779423 36.21952597229313 35.25786273123643 33.38874626563479 45.97182704809772 41.19220369979639
          36.56242494689506 27.872516062309142 31.587266896670886 31.087939502801667 29.68937504069453 40.58542132376357
          37.4209402128347 33.47329755583445 29.39227339733589 31.194591913281478 29.907890785473107 34.64163416078561
          30.447254487647328 45.570997129855044 37.82953660402635 34.73806778643078 53.07130641209458 39.37271531570856
          40.58651252767901 33.42637210184378 45.09134357744988 34.970435593999184 50.85564675181486 62.24873847671965
          60.02447609113627 53.91557572557099 58.869053442246184 61.14022228598313 63.89591681320091 39.0718357535664
          45.19208502772614 40.3532323098632 57.300715667384964 46.139260191911696 49.46897555904784 60.96834679476061
          45.946841475277935 45.85081197658711 57.10863454934724 64.43168062400451 59.7253585846718 65.574264215125
          50.165196128468175 48.20937688333551 52.27476485177613 51.38287056219239 43.51413966628335 48.439366645153314
          50.30404335966441 50.95549988449287 52.68595595319722 37.74266837583964 46.34549605300276 41.52434710987224
          38.70226810971646 52.12705066300528 48.514403621526355 46.26461056211204 46.82025112248509 50.458491936647945
          46.30546797997934 46.2858667170337 48.90966559092471 51.11417875503429 51.95411920686682 50.32030560060589
          49.47720184550036 52.18545701458577
        </DataArray>
        <DataArray type="Float64" Name="dk/dtemperature" format="ascii" RangeMin="0.004604500000000015" RangeMax="0.09885725589207975">
          0.01519148945265228 0.012221773238425023 0.012450733092954795 0.013230317683061842 0.057817092306368195 0.00827789271568312
          0.014269219232967728 0.012357765067432597 0.013455938504633749 0.005632375000000005 0.033606011111101335 0.010832431467394186
          0.014968004695658777 0.014622114262719161 0.015582666968437521 0.015233947153460214 0.014276223829779545 0.014998574240240488
          0.01495957435877043 0.015127141599804562 0.015294708840838694 0.0156849859170427 0.009985040526747604 0.010388862585914453
          0.008657343196520333 0.008800838547630224 0.011096996284353632 0.009377931153863178 0.009480277348648815 0.011334631911258868
          0.009623133825562373 0.01030892278497343 0.022192240004630687 0.00804981819169196 0.008686968662981635 0.007971943661105084
          0.011541449786440918 0.011847517542970296 0.00999991350976034 0.010078154237927708 0.012643073717567883 0.010992708524974016
          0.028596924946646687 0.00865605185794158 0.008611410872636284 0.012533254889217438 0.011251601284228472 0.013065134713747583
          0.011890161710331427 0.01318993060099844 0.012201268816072317 0.01274510139415044 0.00903896626013027 0.00962280863072258
          0.010313383303552654 0.01364306264711554 0.012609927269010288 0.014605947754913903 0.013345925035805936 0.014153563158594984
          0.013390832454167619 0.014375059466883028 0.010512097693438121 0.01180537157199548 0.008164312499999994 0.024468926215282526
          0.007499624999999995 0.02826187936867451 0.015939590694149967 0.014426939689472153 0.006908500000000011 0.007871187499999998
          0.007085562500000014 0.010812542963756788 0.007132812500000012 0.021576395348319195 0.009160149953323711 0.00470762500000001
          0.006640999999999973 0.010907399489627559 0.008214350714291746 0.008438664409221952 0.008542864655082652 0.009375916195083205
          0.008320716587562461 0.008346900263914013 0.007671569734206195 0.008979479883967054 0.010306713722758182 0.012220851624613241
          0.008511556271962904 0.009630786051265654 0.011487883479392388 0.010151568245690235 0.022941151664342983 0.008880716024550966
          0.08014917934233462 0.044800367632037874 0.058823730637463274 0.009205784274773917 0.009102927628282378 0.009104433810481913
          0.009259676219450905 0.009126096914665996 0.008957144824995234 0.009292181201525283 0.09885725589207975 0.05413865433787496
          0.02881040014305948 0.00923306098397949 0.008652935821849327 0.008485044584091928 0.008259802459409837 0.00788874326074926