<?xml version="1.0"?>
<VTKFile type="UnstructuredGrid" version="0.1" byte_order="LittleEndian" header_type="UInt32" compressor="vtkZLibDataCompressor">
  <UnstructuredGrid>
    <Piece NumberOfPoints="422" NumberOfCells="174">
      <PointData>
        <DataArray type="Int32" Name="libmesh_node_id" format="ascii" RangeMin="164" RangeMax="2744">
          194 196 197 198 199 208
          209 224 225 226 227 228
          229 237 238 239 264 265
          268 270 271 287 288 289
          290 291 292 293 294 295
          296 297 298 299 300 338
          343 348 349 351 352 353
          354 355 356 357 359 360
          361 378 379 382 384 424
          425 426 427 428 429 430
          431 432 433 434 435 436
          437 553 554 557 559 568
          570 575 576 577 578 579
          580 581 582 583 584 585
          586 587 588 657 658 659
          660 661 662 663 664 665
          666 667 668 669 670 671
          672 673 674 675 676 750
          755 756 757 758 759 760
          761 762 763 764 765 766
          767 768 769 770 771 772
          773 774 775 776 777 778
          779 780 781 782 783 784
          785 786 787 788 789 790
          1110 1111 1114 1116 1158 1160
          1162 1195 1196 1200 1201 1202
          1203 1204 1205 1206 1207 1208
          1209 1210 1211 1212 1213 1214
          1215 1216 1217 1218 1219 1220
          1221 1222 1223 1224 1225 1226
          1227 1228 1229 1230 1231 1232
          1233 1249 1250 1253 1254 1255
          1256 1257 1258 1259 1260 1261
          1262 1263 1264 1265 1266 1267
          1268 1269 1270 1271 1272 1273
          1274 1287 1288 1291 1292 1293
          1294 1295 1296 1297 1298 1299
          1300 1301 1302 1303 1304 1305
          1306 1307 1308 1309 1310 1311
          1312 1349 1353 1364 1365 1368
          1369 1370 1371 1373 1374 1376
          1378 1379 1380 1381 1382 1383
          1384 1385 1386 1387 1388 1389
          1390 1391 1392 1393 1394 1395
          1396 1397 1398 1399 1400 1401
          1402 1403 1404 1405 1406 1407
          2660 2661 2662 2663 2664 2665
          2666 2667 2668 2669 2672 2676
          2677 2679 2682 2684 2685 2686
          2687 2688 2689 2690 2691 2692
          2693 2694 2695 2696 2697 2706
          2710 2711 2713 2716 2718 2719
          2720 2721 2722 2723 2724 2725
          2726 2727 2729 2731 2733 2735
          2736 2737 2738 2739 2740 2741
          2742 2743 2744 164 166 167
          165 195 168 169 178 177
          207 179 260 263 266 262
          267 376 377 380 381 272
          383 385 605 608 609 606
          259 651 652 653 656 261
          402 403 406 408 751 752
          753 754 745 747 562 565
          350 569 1146 1148 1150 1147
          1149 1152 1151 1139 1156 1140
          1141 1159 1157 1161 1163 1164
          1165 1136 1137 1138 340 1358
          1359 1366 1367 1360 1372 1363
          1132 1133 1361 1339 1362 1375
          1350 1377 1052 1056 2330 2331
          2332 2335
        </DataArray>
        <DataArray type="Float64" Name="bounds" format="ascii" RangeMin="0" RangeMax="0">
          0 0 0 0 0 0
          0 0 0 0 0 0
          0 0 0 0 0 0
          0 0 0 0 0 0
          0 0 0 0 0 0
          0 0 0 0 0 0
          0 0 0 0 0 0
          0 0 0 0 0 0
          0 0 0 0 0 0
          0 0 0 0 0 0
          0 0 0 0 0 0
          0 0 0 0 0 0
          0 0 0 0 0 0
          0 0 0 0 0 0
          0 0 0 0 0 0
          0 0 0 0 0 0
          0 0 0 0 0 0
          0 0 0 0 0 0
          0 0 0 0 0 0
          0 0 0 0 0 0
          0 0 0 0 0 0
          0 0 0 0 0 0
          0 0 0 0 0 0
          0 0 0 0 0 0
          0 0 0 0 0 0
          0 0 0 0 0 0
          0 0 0 0 0 0
          0 0 0 0 0 0
          0 0 0 0 0 0
          0 0 0 0 0 0
          0 0 0 0 0 0
          0 0 0 0 0 0
          0 0 0 0 0 0
          0 0 0 0 0 0
          0 0 0 0 0 0
          0 0 0 0 0 0
          0 0 0 0 0 0
          0 0 0 0 0 0
          0 0 0 0 0 0
          0 0 0 0 0 0
          0 0 0 0 0 0
          0 0 0 0 0 0
          0 0 0 0 0 0
          0 0 0 0 0 0
          0 0 0 0 0 0
          0 0 0 0 0 0
          0 0 0 0 0 0
          0 0 0 0 0 0
          0 0 0 0 0 0
          0 0 0 0 0 0
          0 0 0 0 0 0
          0 0 0 0 0 0
          0 0 0 0 0 0
          0 0 0 0 0 0
          0 0 0 0 0 0
          0 0 0 0 0 0
          0 0 0 0 0 0
          0 0 0 0 0 0
          0 0 0 0 0 0
          0 0 0 0 0 0
          0 0 0 0 0 0
          0 0 0 0 0 0
          0 0 0 0 0 0
          0 0 0 0 0 0
          0 0 0 0 0 0
          0 0 0 0 0 0
          0 0 0 0 0 0
          0 0 0 0 0 0
          0 0 0 0 0 0
          0 0 0 0 0 0
          0 0
        </DataArray>
        <DataArray type="Float64" Name="gradient_error" format="ascii" RangeMin="9.593344946583438e-13" RangeMax="5.092640501389864e-9">
          1.762932074861002e-10 2.0950494335326952e-10 2.4257414360179963e-10 2.3800594681001347e-10 2.35575546521083e-10 2.7562346572755173e-10
          2.331451462321526e-10 1.951800582692743e-12 1.7904487732971267e-10 8.830655874353287e-11 1.5241620192086936e-10 1.5648319023677637e-10
          1.5116881052737702e-10 1.71423686376202e-10 2.1042868844705709e-10 1.4585443081797766e-10 6.436334020254846e-11 3.110290558576473e-10
          3.5914490904348563e-10 5.092640501389864e-9 1.2550229107358324e-10 7.392877585601911e-11 6.554396591570978e-11 4.432795281235371e-11
          6.004066137816735e-11 3.0981139671085024e-11 2.55356553379091e-11 2.8604111786261576e-11 5.7159155975400453e-11 7.3894926330326e-11
          3.167256823461405e-11 1.098496954541356e-11 5.663392847811727e-11 2.6227083901438124e-11 9.063069668525156e-11 1.3814218615865223e-9
          3.2510197254421964e-9 2.57132400316851e-10 2.885085668262908e-10 1.3191548474015514e-10 1.0111243007983521e-10 9.844629136253687e-12
          4.826009305578203e-11 4.480648653008519e-10 5.803553747428786e-10 1.3589942545936572e-10 4.022043034420873e-11 2.0096073856340818e-11
          7.261410261948646e-10 1.5381308275264566e-10 1.2363680099235538e-10 8.331110504098505e-11 9.346051923206508e-11 1.356591550464932e-11
          1.7712704739766653e-11 7.571578158505983e-12 1.8454709744955676e-11 1.3041219514397239e-11 5.582172063812493e-12 1.3266711040252209e-11
          2.1859493974883987e-11 2.914765970325177e-11 2.0951250016691924e-11 1.2221055228334435e-12 1.9195526048681797e-11 1.3492202566107176e-11
          3.643582543161955e-11 1.465597039182601e-9 1.65563724773636e-9 2.7362478877307444e-9 2.0959150805976946e-9 2.5199594041345115e-10
          8.981129060369971e-11 1.7647122895897115e-11 1.9629656520205185e-11 6.860939281312483e-12 1.1373877939255444e-11 1.0648362378813743e-11
          4.541927441891937e-12 7.192791986463566e-12 2.6326091337996535e-11 2.5389871052605232e-11 1.2716322401086055e-11 4.3847826458939386e-12
          8.43906744544307e-12 5.505748448993626e-12 2.661335733128429e-11 8.777983866505303e-11 1.2969797504185022e-10 2.6965353396522546e-10
          2.9558018671214323e-10 7.364520150450014e-11 7.599232683847814e-11 1.1687890154093292e-10 1.7161611141864744e-10 3.215068394590609e-10
          1.5776547624338767e-10 4.79206846784839e-10 6.452672927424767e-10 1.8005381910656788e-10 2.0014322093828267e-10 2.517312373164286e-10
          3.025390374395524e-10 1.5759123578647313e-10 8.113277387001144e-10 2.2023262276999746e-10 3.5334683756267625e-10 1.1619993153766206e-9
          6.35912519326217e-11 4.6636271734236104e-11 7.218971746758188e-11 2.1753241078157996e-10 2.5466607527678063e-10 1.0301571818432038e-10
          2.0061517417874407e-11 1.8974866692331165e-11 2.3194108723650896e-11 2.3700507764711046e-11 1.3693456006143509e-11 1.1110191942512344e-11
          1.3926092747560953e-11 1.7888215966787923e-11 2.4206906805771188e-11 1.6741993552609565e-11 3.5845197314301576e-10 3.80588831612081e-10
          1.638534303273494e-10 1.4383504555138776e-10 3.8614660247997087e-10 5.715473888275388e-10 1.6332083594601926e-10 4.148986841720442e-10
          1.1665124908488488e-10 6.69448083509913e-10 3.594002682098775e-11 4.09938218984167e-11 2.4221365805117186e-11 2.5346756992590398e-11
          3.5612531530769966e-11 4.291915338983283e-11 3.214484922896687e-11 4.604761697584565e-11 2.6472148180063615e-11 5.022577524889569e-11
          1.131173682712744e-9 1.1569580360067641e-9 7.368026072663213e-10 9.030741777822556e-10 2.6512428175861416e-11 6.369482497767494e-11
          3.0362515558630504e-11 7.793151762941483e-11 4.5129935943594204e-11 1.3395516797074956e-11 1.2601345750815162e-11 1.0326522875052392e-11
          1.481513091438719e-11 6.5942501693110155e-12 8.527248104668072e-12 8.202731288752326e-12 1.1081754953664897e-11 1.647859875854031e-11
          7.2642806588337205e-12 7.861605413311968e-12 1.3800519340157542e-11 7.609683585456614e-12 1.5798226563958568e-11 1.3549399329338875e-11
          1.2490778904337857e-11 3.472208820203938e-12 5.17504626971216e-12 9.977262100562722e-12 8.387931057285623e-12 1.8170123909255745e-11
          1.4558136562866482e-11 3.612370206211735e-12 1.0141026902524043e-11 1.307782746047569e-11 1.2755501033741745e-11 7.7649806004577e-12
          9.98779523918798e-12 1.4157251367808998e-11 1.7339574572340478e-11 8.076628444234945e-12 1.418534830796135e-11 1.1187868826502817e-11
          1.874027826481086e-11 7.363026337472752e-10 1.2238758417346616e-9 8.320397347574799e-10 1.8660355624324463e-10 2.7742062752423915e-10
          1.0370849985293609e-10 1.268401462133316e-10 1.7208149452064383e-10 2.3536400266771045e-10 1.3880610535043543e-10 1.9046704142434367e-12
          2.2056912511813427e-12 1.7342257299155005e-12 2.19648937778266e-12 1.6948330404947554e-12 9.593344946583438e-13 1.5160766942672486e-12
          2.5067120881192484e-12 2.6587530256498193e-12 2.0728188938761535e-12 1.5637810455875644e-12 2.187287504383977e-12 1.3373203480397419e-12
          2.8107939631803902e-12 4.784652605631923e-10 6.666752828756209e-10 4.176362219857585e-10 9.023565054812154e-12 1.1901476362387282e-11
          6.085161886534539e-12 6.413700717788397e-12 7.690794906849881e-12 1.0033213381298892e-11 6.177054590745935e-12 2.4132180538974527e-12
          2.220918610570549e-12 2.849616973873006e-12 2.592882006732626e-12 1.6041986002426478e-12 1.4487131322779942e-12 1.583304473571309e-12
          2.0286191672436448e-12 2.3361470395922457e-12 1.7178958148646236e-12 3.286015893848559e-12 2.964845402894703e-12 1.5624103468999702e-12
          2.6436749119408467e-12 2.783030099164041e-10 3.716248198390364e-10 2.774684187596179e-11 2.797615102292672e-11 1.7173761993101554e-11
          1.999753988295255e-11 2.2601284017042864e-11 2.8205460169891655e-11 2.520502815113318e-11 1.1541267375470494e-10 7.551115412279795e-11
          1.0243013394424871e-10 1.439205290369291e-10 9.326851367290845e-11 1.882780999692766e-10 2.721135356423817e-10 1.2000177248733999e-10
          1.5609410792854343e-10 1.4112436725784007e-10 1.828802544174167e-10 1.222387088951615e-10 4.692556614436971e-10 2.089511317242445e-10
          2.647961898619131e-10 6.629405470952707e-10 2.534686790688159e-10 3.1932787579788257e-10 1.4777807574004451e-10 7.433187426186338e-10
          2.896038822361385e-10 3.3369951344893224e-10 7.355311911271821e-11 8.353157869930762e-11 4.271077606655915e-11 4.273106904275743e-11
          5.253889444272091e-11 5.65433638681605e-11 3.227042881538796e-11 9.351003828589702e-11 4.27513620189557e-11 6.054783329360008e-11
          5.5844495102565806e-12 5.611310229957348e-12 7.993253050822497e-12 7.707513794408061e-12 3.995926929685331e-12 4.908578290453516e-12
          5.162604094626468e-12 5.638170949658116e-12 7.421774537993629e-12 5.4166298987994205e-12 6.750416531991851e-12 9.394150220628867e-12
          8.854483844770247e-12 8.907898781971796e-12 1.2739887210213418e-11 2.797124083019864e-12 2.7024567883150216e-12 3.5706054882331943e-12
          3.4075426859354014e-12 1.813165286523319e-12 2.023120891064664e-12 2.154262989929017e-12 2.607789493610179e-12 3.244479883637609e-12
          2.2854050887933696e-12 5.0711800039082065e-12 4.786054332201757e-12 2.778697720751696e-12 4.376873840899461e-12 9.669017438381394e-12
          1.69005455396338e-11 1.5966410023622772e-11 1.3456799674358676e-11 1.720102914815523e-11 6.251581951193954e-12 5.907901112613408e-12
          3.3349261326189094e-12 3.2218221134074035e-12 5.022031506373167e-12 2.881461547756567e-12 6.704890788018018e-12 6.356322144379083e-12
          3.3816094786461296e-12 5.419337388229662e-12 1.0169979143063641e-11 8.306135262406543e-12 1.0992747811604734e-11 3.550490549601285e-12
          3.8313817556222295e-12 2.4576027603271677e-12 2.3972876931591174e-12 2.9722168974947998e-12 3.1829207725309854e-12 2.1403703850009984e-12
          4.112272961643173e-12 2.3369726259910668e-12 3.3936246475671702e-12 4.4883832604928265e-10 3.281607585318403e-10 3.2931418664198294e-10
          5.865805999943715e-10 5.901841859353396e-10 3.2247898186027575e-10 3.219281395236362e-10 3.304676147521256e-10 7.251764980453043e-10
          6.011898163602962e-10 3.213772971869966e-10 2.1383899999632307e-9 3.848184823163304e-10 2.5005102091443007e-9 2.7327580109473195e-9
          1.8846733408319475e-9 2.9471872096614197e-10 2.72270937388624e-10 1.8015045111318072e-10 1.2395537330932547e-10 6.203315156928791e-10
          2.4982315381110604e-10 6.776029550547017e-11 6.037554020940588e-10 1.6686076979978881e-10 1.9761484867000206e-10 6.243926543203342e-10
          5.646855635254145e-10 3.9876258188593157e-10 1.2436370574872823e-9 1.076675582098406e-9 9.097141067095297e-10 1.862084829157567e-9
          1.8698538045675504e-9 2.8391236825402583e-9 7.483605250101107e-10 3.808393560512966e-9 2.949707996945097e-10 2.644550016459121e-10
          1.8427020740279304e-10 1.864471134044908e-10 1.314294821843896e-9 8.28045697863458e-10 1.9545646053123743e-10 6.000624887916231e-11
          4.300713923630493e-11 2.6846869425920065e-10 3.0595981122527785e-10 2.0164050345201608e-10 2.951216764614274e-10 3.450465173859236e-10
          2.396657037457855e-10 2.571513552005918e-10 3.913182984500911e-10 9.885501695940534e-11 8.074420064699725e-11 8.922040702401882e-11
          4.2538814048479424e-11 4.0313859249874e-11 8.892152777127693e-11 9.429310338951057e-11 7.854945114677449e-11 4.517586115004511e-11
          9.332749409069302e-11 4.027008235487635e-11 3.1790775954827786e-11 3.3283716725435885e-11 1.177716367997511e-9 7.071451467057603e-11
          1.287136532956392e-10 4.184915498391746e-11 3.965498039651171e-11 1.1664239429971227e-10 3.746080580910594e-11 1.065184808655813e-10
          5.327751561067265e-11 7.668849863092777e-11 1.4521656855563616e-10 6.477559627389121e-10 2.534421634152592e-10 1.7689516570797897e-10
          4.5371209394042455e-10 1.0184084283104082e-10 6.66383535678334e-10 8.214287521345087e-10 1.1860174046134154e-11 1.8186289642392303e-11
          1.721066575146542e-11 1.7157557528829216e-11
        </DataArray>
        <DataArray type="Float64" Name="gradient_matprop_error" format="ascii" RangeMin="0" RangeMax="0">
          0 0 0 0 0 0
          0 0 0 0 0 0
          0 0 0 0 0 0
          0 0 0 0 0 0
          0 0 0 0 0 0
          0 0 0 0 0 0
          0 0 0 0 0 0
          0 0 0 0 0 0
          0 0 0 0 0 0
          0 0 0 0 0 0
          0 0 0 0 0 0
          0 0 0 0 0 0
          0 0 0 0 0 0
          0 0 0 0 0 0
          0 0 0 0 0 0
          0 0 0 0 0 0
          0 0 0 0 0 0
          0 0 0 0 0 0
          0 0 0 0 0 0
          0 0 0 0 0 0
          0 0 0 0 0 0
          0 0 0 0 0 0
          0 0 0 0 0 0
          0 0 0 0 0 0
          0 0 0 0 0 0
          0 0 0 0 0 0
          0 0 0 0 0 0
          0 0 0 0 0 0
          0 0 0 0 0 0
          0 0 0 0 0 0
          0 0 0 0 0 0
          0 0 0 0 0 0
          0 0 0 0 0 0
          0 0 0 0 0 0
          0 0 0 0 0 0
          0 0 0 0 0 0
          0 0 0 0 0 0
          0 0 0 0 0 0
          0 0 0 0 0 0
          0 0 0 0 0 0
          0 0 0 0 0 0
          0 0 0 0 0 0
          0 0 0 0 0 0
          0 0 0 0 0 0
          0 0 0 0 0 0
          0 0 0 0 0 0
          0 0 0 0 0 0
          0 0 0 0 0 0
          0 0 0 0 0 0
          0 0 0 0 0 0
          0 0 0 0 0 0
          0 0 0 0 0 0
          0 0 0 0 0 0
          0 0 0 0 0 0
          0 0 0 0 0 0
          0 0 0 0 0 0
          0 0 0 0 0 0
          0 0 0 0 0 0
          0 0 0 0 0 0
          0 0 0 0 0 0
          0 0 0 0 0 0
          0 0 0 0 0 0
          0 0 0 0 0 0
          0 0 0 0 0 0
          0 0 0 0 0 0
          0 0 0 0 0 0
          0 0 0 0 0 0
          0 0 0 0 0 0
          0 0 0 0 0 0
          0 0 0 0 0 0
          0 0
        </DataArray>
        <DataArray type="Float64" Name="initial_marker" format="ascii" RangeMin="0" RangeMax="2">
          0 0 0 0 0 0
          0 0 0 0 0 0
          0 0 0 0 0 0
          0 0 0 0 0 0
          0 0 0 0 0 0
          0 0 0 0 0 0
          0 0 0 0 0 0
          0 0 0 0 0 0
          0 0 0 0 0 0
          0 0 0 0 0 0
          0 0 0 0 0 0
          0 0 0 0 0 0
          0 0 0 0 0 0
          0 0 0 0 0 1
          0 0 0 0 0 0
          0 0 0 0 0 0
          0 0 0 0 0 0
          0 0 0 0 0 0
          0 0 0 0 0 0
          0 0 0 0 0 0
          0 0 0 0 0 0
          0 0 0 0 0 0
          0 0 0 0 0 0
          0 0 0 0 0 0
          0 0 0 0 0 0
          0 0 0 0 0 0
          0 0 0 0 0 0
          0 0.5 0.5 0 0 2
          1.75 0 0 0.5 0 2
          2 0 1 0 0 0
          0 0 0 0 0 0
          0 0 0 0 0 0
          0 0 0 0 0 0
          0 0 0 0 0 0
          0 0 0 0 0 0
          0 0 0 0 0 0
          0 0 0 0 0 0
          0 0 0 0 0 0
          0 0 0 0 0 0
          0 0 0 0 0 0
          0 0 0 0 0 0
          0 0 0 0 0 0
          0 0 0 0 0 0
          0 0 0 0 0 0
          0 0 0 0 0 0
          0 0 0 0 0 0
          0 0 0.5 0.5 0 0
          0 0 0.5 0 0.6666666666666666 1.5
          1.5 1.6666666666666667 2 0 0 0.5
          0.5 0 0 0 0 0.5
          0 1 1 0 1 1.6666666666666667
          2 2 2 2 1.5 1.25
          1 0.5 1 0 2 1.5
          1 1 1.5 1 1.5 0.5
          0.5 0 0 0 0 0
          0.5 0 0 0 0 0
          0 0 0 0 0 0
          0 0 0 0 0 0
          0 0 0 0 0 0
          0 0 0 0 0 0
          0 0 0 0 0 0
          0 0 0 0 0 0
          0 0 0 0 0 0
          0 0 0 0 0 0.25
          0 0 0 0 0 0.25
          0 0 0 0 0.25 0
          0 0 0 0 0 0
          0 0 0 0 0 0
          0 0 0 0 0 0
          0 0 0 0 0 1
          1 1
        </DataArray>
        <DataArray type="Float64" Name="markers_norefine" format="ascii" RangeMin="0" RangeMax="0">
          0 0 0 0 0 0
          0 0 0 0 0 0
          0 0 0 0 0 0
          0 0 0 0 0 0
          0 0 0 0 0 0
          0 0 0 0 0 0
          0 0 0 0 0 0
          0 0 0 0 0 0
          0 0 0 0 0 0
          0 0 0 0 0 0
          0 0 0 0 0 0
          0 0 0 0 0 0
          0 0 0 0 0 0
          0 0 0 0 0 0
          0 0 0 0 0 0
          0 0 0 0 0 0
          0 0 0 0 0 0
          0 0 0 0 0 0
          0 0 0 0 0 0
          0 0 0 0 0 0
          0 0 0 0 0 0
          0 0 0 0 0 0
          0 0 0 0 0 0
          0 0 0 0 0 0
          0 0 0 0 0 0
          0 0 0 0 0 0
          0 0 0 0 0 0
          0 0 0 0 0 0
          0 0 0 0 0 0
          0 0 0 0 0 0
          0 0 0 0 0 0
          0 0 0 0 0 0
          0 0 0 0 0 0
          0 0 0 0 0 0
          0 0 0 0 0 0
          0 0 0 0 0 0
          0 0 0 0 0 0
          0 0 0 0 0 0
          0 0 0 0 0 0
          0 0 0 0 0 0
          0 0 0 0 0 0
          0 0 0 0 0 0
          0 0 0 0 0 0
          0 0 0 0 0 0
          0 0 0 0 0 0
          0 0 0 0 0 0
          0 0 0 0 0 0
          0 0 0 0 0 0
          0 0 0 0 0 0
          0 0 0 0 0 0
          0 0 0 0 0 0
          0 0 0 0 0 0
          0 0 0 0 0 0
          0 0 0 0 0 0
          0 0 0 0 0 0
          0 0 0 0 0 0
          0 0 0 0 0 0
          0 0 0 0 0 0
          0 0 0 0 0 0
          0 0 0 0 0 0
          0 0 0 0 0 0
          0 0 0 0 0 0
          0 0 0 0 0 0
          0 0 0 0 0 0
          0 0 0 0 0 0
          0 0 0 0 0 0
          0 0 0 0 0 0
          0 0 0 0 0 0
          0 0 0 0 0 0
          0 0 0 0 0 0
          0 0
        </DataArray>
        <DataArray type="Float64" Name="markers_mustrefine" format="ascii" RangeMin="0" RangeMax="2">
          0 0 0 0 0 0
          0 0 0 0 0 0
          0 0 0 0 0 0
          0 0 0 0 0 0
          0 0 0 0 0 0
          0 0 0 0 0 0
          0 0 0 0 0 0
          0 0 0 0 0 0
          0 0 0 0 0 0
          0 0 0 0 0 0
          0 0 0 0 0 0
          0 0 0 0 0 0
          0 0 0 0 0 0
          0 0 0 0 0 1
          0 0 0 0 0 0
          0 0 0 0 0 0
          0 0 0 0 0 0
          0 0 0 0 0 0
          0 0 0 0 0 0
          0 0 0 0 0 0
          0 0 0 0 0 0
          0 0 0 0 0 0
          0 0 0 0 0 0
          0 0 0 0 0 0
          0 0 0 0 0 0
          0 0 0 0 0 0
          0 0 0 0 0 0
          0 0.5 0.5 0 0 2
          1.75 0 0 0.5 0 2
          2 0 1 0 0 0
          0 0 0 0 0 0
          0 0 0 0 0 0
          0 0 0 0 0 0
          0 0 0 0 0 0
          0 0 0 0 0 0
          0 0 0 0 0 0
          0 0 0 0 0 0
          0 0 0 0 0 0
          0 0 0 0 0 0
          0 0 0 0 0 0
          0 0 0 0 0 0
          0 0 0 0 0 0
          0 0 0 0 0 0
          0 0 0 0 0 0
          0 0 0 0 0 0
          0 0 0 0 0 0
          0 0 0.5 0.5 0 0
          0 0 0.5 0 0.6666666666666666 1.5
          1.5 1.6666666666666667 2 0 0 0.5
          0.5 0 0 0 0 0.5
          0 1 1 0 1 1.6666666666666667
          2 2 2 2 1.5 1.25
          1 0.5 1 0 2 1.5
          1 1 1.5 1 1.5 0.5
          0.5 0 0 0 0 0
          0.5 0 0 0 0 0
          0 0 0 0 0 0
          0 0 0 0 0 0
          0 0 0 0 0 0
          0 0 0 0 0 0
          0 0 0 0 0 0
          0 0 0 0 0 0
          0 0 0 0 0 0
          0 0 0 0 0 0.25
          0 0 0 0 0 0.25
          0 0 0 0 0.25 0
          0 0 0 0 0 0
          0 0 0 0 0 0
          0 0 0 0 0 0
          0 0 0 0 0 1
          1 1
        </DataArray>
        <DataArray type="Float64" Name="gradient_marker" format="ascii" RangeMin="1" RangeMax="1">
          1 1 1 1 1 1
          1 1 1 1 1 1
          1 1 1 1 1 1
          1 1 1 1 1 1
          1 1 1 1 1 1
          1 1 1 1 1 1
          1 1 1 1 1 1
          1 1 1 1 1 1
          1 1 1 1 1 1
          1 1 1 1 1 1
          1 1 1 1 1 1
          1 1 1 1 1 1
          1 1 1 1 1 1
          1 1 1 1 1 1
          1 1 1 1 1 1
          1 1 1 1 1 1
          1 1 1 1 1 1
          1 1 1 1 1 1
          1 1 1 1 1 1
          1 1 1 1 1 1
          1 1 1 1 1 1
          1 1 1 1 1 1
          1 1 1 1 1 1
          1 1 1 1 1 1
          1 1 1 1 1 1
          1 1 1 1 1 1
          1 1 1 1 1 1
          1 1 1 1 1 1
          1 1 1 1 1 1
          1 1 1 1 1 1
          1 1 1 1 1 1
          1 1 1 1 1 1
          1 1 1 1 1 1
          1 1 1 1 1 1
          1 1 1 1 1 1
          1 1 1 1 1 1
          1 1 1 1 1 1
          1 1 1 1 1 1
          1 1 1 1 1 1
          1 1 1 1 1 1
          1 1 1 1 1 1
          1 1 1 1 1 1
          1 1 1 1 1 1
          1 1 1 1 1 1
          1 1 1 1 1 1
          1 1 1 1 1 1
          1 1 1 1 1 1
          1 1 1 1 1 1
          1 1 1 1 1 1
          1 1 1 1 1 1
          1 1 1 1 1 1
          1 1 1 1 1 1
          1 1 1 1 1 1
          1 1 1 1 1 1
          1 1 1 1 1 1
          1 1 1 1 1 1
          1 1 1 1 1 1
          1 1 1 1 1 1
          1 1 1 1 1 1
          1 1 1 1 1 1
          1 1 1 1 1 1
          1 1 1 1 1 1
          1 1 1 1 1 1
          1 1 1 1 1 1
          1 1 1 1 1 1
          1 1 1 1 1 1
          1 1 1 1 1 1
          1 1 1 1 1 1
          1 1 1 1 1 1
          1 1 1 1 1 1
          1 1
        </DataArray>
        <DataArray type="Float64" Name="gradient_matprop_marker" format="ascii" RangeMin="0" RangeMax="0">
          0 0 0 0 0 0
          0 0 0 0 0 0
          0 0 0 0 0 0
          0 0 0 0 0 0
          0 0 0 0 0 0
          0 0 0 0 0 0
          0 0 0 0 0 0
          0 0 0 0 0 0
          0 0 0 0 0 0
          0 0 0 0 0 0
          0 0 0 0 0 0
          0 0 0 0 0 0
          0 0 0 0 0 0
          0 0 0 0 0 0
          0 0 0 0 0 0
          0 0 0 0 0 0
          0 0 0 0 0 0
          0 0 0 0 0 0
          0 0 0 0 0 0
          0 0 0 0 0 0
          0 0 0 0 0 0
          0 0 0 0 0 0
          0 0 0 0 0 0
          0 0 0 0 0 0
          0 0 0 0 0 0
          0 0 0 0 0 0
          0 0 0 0 0 0
          0 0 0 0 0 0
          0 0 0 0 0 0
          0 0 0 0 0 0
          0 0 0 0 0 0
          0 0 0 0 0 0
          0 0 0 0 0 0
          0 0 0 0 0 0
          0 0 0 0 0 0
          0 0 0 0 0 0
          0 0 0 0 0 0
          0 0 0 0 0 0
          0 0 0 0 0 0
          0 0 0 0 0 0
          0 0 0 0 0 0
          0 0 0 0 0 0
          0 0 0 0 0 0
          0 0 0 0 0 0
          0 0 0 0 0 0
          0 0 0 0 0 0
          0 0 0 0 0 0
          0 0 0 0 0 0
          0 0 0 0 0 0
          0 0 0 0 0 0
          0 0 0 0 0 0
          0 0 0 0 0 0
          0 0 0 0 0 0
          0 0 0 0 0 0
          0 0 0 0 0 0
          0 0 0 0 0 0
          0 0 0 0 0 0
          0 0 0 0 0 0
          0 0 0 0 0 0
          0 0 0 0 0 0
          0 0 0 0 0 0
          0 0 0 0 0 0
          0 0 0 0 0 0
          0 0 0 0 0 0
          0 0 0 0 0 0
          0 0 0 0 0 0
          0 0 0 0 0 0
          0 0 0 0 0 0
          0 0 0 0 0 0
          0 0 0 0 0 0
          0 0
        </DataArray>
        <DataArray type="Float64" Name="combo" format="ascii" RangeMin="1" RangeMax="1">
          1 1 1 1 1 1
          1 1 1 1 1 1
          1 1 1 1 1 1
          1 1 1 1 1 1
          1 1 1 1 1 1
          1 1 1 1 1 1
          1 1 1 1 1 1
          1 1 1 1 1 1
          1 1 1 1 1 1
          1 1 1 1 1 1
          1 1 1 1 1 1
          1 1 1 1 1 1
          1 1 1 1 1 1
          1 1 1 1 1 1
          1 1 1 1 1 1
          1 1 1 1 1 1
          1 1 1 1 1 1
          1 1 1 1 1 1
          1 1 1 1 1 1
          1 1 1 1 1 1
          1 1 1 1 1 1
          1 1 1 1 1 1
          1 1 1 1 1 1
          1 1 1 1 1 1
          1 1 1 1 1 1
          1 1 1 1 1 1
          1 1 1 1 1 1
          1 1 1 1 1 1
          1 1 1 1 1 1
          1 1 1 1 1 1
          1 1 1 1 1 1
          1 1 1 1 1 1
          1 1 1 1 1 1
          1 1 1 1 1 1
          1 1 1 1 1 1
          1 1 1 1 1 1
          1 1 1 1 1 1
          1 1 1 1 1 1
          1 1 1 1 1 1
          1 1 1 1 1 1
          1 1 1 1 1 1
          1 1 1 1 1 1
          1 1 1 1 1 1
          1 1 1 1 1 1
          1 1 1 1 1 1
          1 1 1 1 1 1
          1 1 1 1 1 1
          1 1 1 1 1 1
          1 1 1 1 1 1
          1 1 1 1 1 1
          1 1 1 1 1 1
          1 1 1 1 1 1
          1 1 1 1 1 1
          1 1 1 1 1 1
          1 1 1 1 1 1
          1 1 1 1 1 1
          1 1 1 1 1 1
          1 1 1 1 1 1
          1 1 1 1 1 1
          1 1 1 1 1 1
          1 1 1 1 1 1
          1 1 1 1 1 1
          1 1 1 1 1 1
          1 1 1 1 1 1
          1 1 1 1 1 1
          1 1 1 1 1 1
          1 1 1 1 1 1
          1 1 1 1 1 1
          1 1 1 1 1 1
          1 1 1 1 1 1
          1 1
        </DataArray>
        <DataArray type="Float64" Name="dHdT" format="ascii" RangeMin="25.811708780145263" RangeMax="25.877244652335687">
          25.81184906992973 25.81184469877949 25.811846919440427 25.81184640213586 25.811845737829174 25.811847446709464
          25.81184507352249 25.81194260255704 25.81197671106242 25.811877409532823 25.81187768119268 25.81187192599455
          25.8118707673071 25.81187365294472 25.811873196398004 25.81186960861965 25.8119889265369 25.812112620213693
          25.812004826474674 25.83202550486989 25.812178608136982 25.811876901351713 25.81187993537725 25.811882669117622
          25.811894403537504 25.811867967931494 25.811873737109398 25.81187780872856 25.81188296940278 25.811902083932768
          25.811881880347723 25.811883925752134 25.811910427594114 25.811887649525627 25.811921198462755 25.817346584120607
          25.823744295882562 25.812679898157484 25.812727371539886 25.81337932759618 25.812104487975855 25.8119692770899
          25.81205837682276 25.812991692596142 25.813552740527882 25.812237880318538 25.813947208305382 25.812019225225832
          25.814151518629824 25.811897665593364 25.811896874131005 25.81186516898866 25.811896082668646 25.811913021534615
          25.811925598616856 25.811901217033313 25.811923317995735 25.811902088745207 25.81188946956457 25.81190138907586
          25.811938175699098 25.811944413241623 25.811913308587147 25.811888224993744 25.81192106838623 25.81190068940651
          25.811950650784148 25.83064117038647 25.84229027962902 25.836791381745922 25.851191341267636 25.817671755782953
          25.814093887388452 25.812171004750038 25.812199044434685 25.8122390099891 25.812261189743438 25.812002862214126
          25.81195847452696 25.811979441584814 25.81230222459014 25.812310145944195 25.81203779903386 25.812487896598704
          25.812309152797056 25.811972651981137 25.81233314687796 25.811927517281134 25.811942895901407 25.812253718602058
          25.812295764966954 25.81192116959654 25.811991776249574 25.812034751049822 25.811958274521675 25.812337811331858
          25.812077725850067 25.81276883557001 25.813019098975527 25.81224251526966 25.812284073601344 25.812284542265758
          25.812356504595368 25.81213021125925 25.813269362381046 25.81232563193302 25.812428466924977 25.825244433764688
          25.812767403529193 25.812728606634995 25.812871037889757 25.814760517494797 25.815303386260776 25.813155131151504
          25.81218439806454 25.812176602926787 25.81218497277628 25.812200593674373 25.812056203540976 25.81202893682768
          25.812047229178596 25.812168807789032 25.81221621457247 25.81206552152951 25.816729674704387 25.8188242468264
          25.81376764942127 25.813790594018997 25.816847631974838 25.818770152465554 25.813930458183727 25.82056601561305
          25.8138340031466 25.819798349403335 25.812427959238462 25.81246700050389 25.812181009304588 25.812187410520878
          25.812459499500434 25.812528282680887 25.8122560119567 25.812506041769314 25.81219381173716 25.81259706586134