<?xml version="1.0"?>
<VTKFile type="UnstructuredGrid" version="0.1" byte_order="LittleEndian" header_type="UInt32" compressor="vtkZLibDataCompressor">
  <UnstructuredGrid>
    <Piece NumberOfPoints="1520" NumberOfCells="894">
      <PointData>
        <DataArray type="Int32" Name="libmesh_node_id" format="ascii" RangeMin="1316" RangeMax="14788">
          1316 1317 1318 1319 1320 1321
          1322 1323 1324 1325 1326 1327
          1328 1329 1330 1331 1360 1361
          1362 1363 1364 1385 1386 1387
          1388 1389 1414 1415 1416 1417
          1418 1419 1420 1421 1422 1423
          1424 1425 1426 1427 1428 1429
          1430 1457 1458 1459 1460 1461
          1462 1463 1464 1482 1483 1484
          1485 1486 1487 1488 1489 1490
          1514 1515 1516 1517 1518 1519
          1520 1521 1522 1523 1524 1525
          1526 1527 1528 1529 1557 1558
          1559 1560 1561 1562 1563 1564
          1582 1583 1584 1585 1586 1587
          1588 1589 1614 1615 1616 1617
          1618 1619 1620 1621 1622 1623
          1624 1625 1626 1627 1628 1629
          1630 1657 1658 1659 1660 1661
          1662 1663 1664 1682 1683 1684
          1685 1686 1687 1688 1689 1700
          1701 1702 1703 1704 1705 1706
          1707 1708 1709 1710 1711 1712
          1713 1714 1715 1716 1717 1718
          1719 1720 1721 1722 1723 1724
          1725 1726 1727 1728 1729 1730
          1731 1732 1733 1734 1735 1736
          1740 1741 1743 1744 1745 1746
          1803 1804 1805 1806 1809 1810
          1811 1813 1814 1816 1847 1848
          1849 1850 1851 1852 1853 1854
          1855 1856 1857 1858 1859 1860
          1861 1862 1863 1864 1865 1866
          1867 1868 1869 1870 1871 1872
          1873 1874 1875 1876 1877 1878
          1879 1880 1881 1882 1883 1884
          1885 1886 1887 1888 1889 1890
          1891 1892 1893 1894 1895 1896
          1897 1898 1899 1900 1901 1902
          1903 1904 1905 1906 1907 1908
          1909 1910 1911 1915 1916 1918
          1919 1921 1922 1923 1924 1925
          1926 1927 1928 1929 1930 1931
          1932 1933 1934 1935 1936 1937
          1940 1941 1943 1944 1945 2104
          2105 2106 2107 2108 2109 2110
          2111 2114 2115 2116 2148 2149
          2150 2151 2152 2153 2154 2155
          2156 2157 2168 2169 2170 2171
          2172 2173 2174 2175 2176 2177
          2178 2179 2180 2181 2182 2183
          2184 2185 2186 2187 2188 2189
          2190 2191 2192 2193 2194 2198
          2199 2200 2272 2273 2274 2275
          2276 2277 2278 2279 2280 2281
          2282 2283 2284 2285 2286 2287
          2288 2289 2290 2291 2292 2293
          2294 2295 2296 2297 2298 2299
          2300 2301 2302 2303 2304 2305
          2306 2307 2308 2309 2310 2311
          2312 2313 2314 2315 2316 2317
          2318 2319 2320 2321 2322 2323
          2324 2325 2326 2327 2328 2329
          2330 2331 2332 2333 2334 2335
          2336 2337 2338 2339 2340 2341
          2342 2343 2344 2345 2346 2347
          2348 2349 2350 2351 2352 2353
          2354 2355 2356 2357 2358 2359
          2360 2361 2362 2363 2364 2365
          2366 2367 2368 2369 2370 2371
          2372 2373 2374 2375 2376 2377
          2378 2379 2380 2381 2382 2383
          2384 2385 2386 2387 2388 2389
          2390 2391 2392 2393 2394 2395
          2396 2397 2398 2399 2400 2401
          2402 2403 2404 2405 2406 2407
          2408 2409 2410 2411 2412 2413
          2414 2415 2416 2417 2418 2419
          2420 2421 2422 2423 2424 2425
          2426 2427 2428 2429 2430 2431
          2432 2433 2434 2435 2436 2437
          2438 2439 2440 2441 2442 2443
          2444 2445 2446 2447 2448 2449
          2450 2451 2452 2453 2454 2455
          2456 2457 2458 2459 2460 2464
          2465 2467 2468 2470 2471 2472
          2473 2474 2475 2476 2477 2478
          2479 2480 2481 2482 2485 2487
          2488 2490 2491 2492 2493 2494
          2495 2496 2497 2498 2499 2500
          2501 2502 2505 2506 2507 2508
          2510 2511 2512 2513 2514 2515
          2516 2517 2518 2519 2520 2521
          2522 2523 2524 2525 2526 2527
          2528 2529 2530 2531 2532 2533
          2534 2535 2536 2537 2538 2539
          2540 2541 2542 2543 2544 3144
          3145 3146 3147 3148 3149 3150
          3151 3152 3153 3178 3179 3180
          3181 3182 3183 3184 3185 3186
          3187 3188 3189 3190 3191 3192
          3193 3194 3195 3196 3197 3198
          3199 3200 3201 3202 3203 3204
          3205 3206 3207 3208 3209 3210
          3211 3212 3213 3214 3215 3216
          3217 3218 3219 3220 3221 3222
          3223 3224 3225 3226 3227 3228
          3229 3230 3231 3232 3233 3234
          3235 3236 3237 3341 3342 3343
          3344 3345 3346 3347 3348 3349
          3350 3351 3352 3353 3354 3355
          3356 3357 3358 3359 3360 3361
          3362 3363 3364 3365 3366 3367
          3368 3369 3370 3371 3372 3373
          3374 3375 3376 3377 3378 3379
          3380 3381 3382 3383 3384 3385
          3386 3387 3388 3389 3390 3391
          3392 3393 3394 3395 3396 3397
          3398 3399 3400 3401 3402 3403
          3404 3405 3406 3407 3408 3409
          3410 3411 3412 3413 3414 3415
          3416 3417 3418 3419 3420 3421
          3422 3423 3424 3425 3426 3427
          3428 3429 3430 3431 3432 3433
          3434 3435 3436 3437 3438 3439
          3440 3441 3442 3443 3444 3445
          3446 3447 3448 3449 3450 3451
          3452 3453 3454 3455 3569 3570
          3571 3572 3573 3574 3575 3576
          3577 3578 3579 3580 3581 3582
          3583 3584 3585 3586 3587 3588
          3589 3590 3591 3592 3593 3595
          3596 3597 3598 3599 3600 3601
          3602 3603 3605 3606 3607 3608
          5404 5405 5406 5407 5408 5409
          5410 5411 5412 5413 5414 5415
          5416 5417 5418 5419 5420 5421
          5422 5423 5424 5425 5426 5427
          5428 5429 5430 5431 5432 5433
          5434 5435 5436 5437 5438 5446
          5447 5448 5449 5452 5453 5454
          5456 5457 5459 5466 5467 5468
          5469 5470 5471 5472 5473 5474
          5475 5476 5477 5478 5479 5480
          5481 5482 5483 5484 5485 5486
          5487 5488 5489 5490 5491 5492
          5493 5494 5495 5496 5497 5498
          5499 5500 5501 5502 5503 5504
          5505 5506 5507 5508 5509 5510
          5545 5546 5547 5548 5549 5550
          5551 5552 5553 5554 5856 5857
          5858 5859 5860 5866 5867 5869
          5878 5879 5882 5884 5885 5887
          14082 14083 14084 14085 14086 14087
          14088 14089 14090 14091 14092 14093
          14094 14095 14096 14097 14098 14099
          14100 14101 14182 14183 14184 14187
          14190 14192 14193 14194 14195 14196
          14197 14198 14199 14200 14201 14202
          14203 14204 14205 14206 14207 14208
          14209 14210 14211 14212 14213 14214
          14215 14216 14217 14218 14219 14220
          14221 14222 14223 14224 14225 14226
          14227 14228 14229 14230 14231 14232
          14233 14234 14235 14236 14237 14238
          14239 14240 14241 14242 14309 14310
          14313 14315 14317 14318 14319 14320
          14321 14322 14323 14324 14325 14326
          14327 14328 14329 14330 14331 14332
          14333 14334 14335 14336 14337 14338
          14339 14340 14341 14342 14343 14344
          14345 14346 14347 14348 14349 14350
          14351 14352 14353 14354 14355 14356
          14357 14358 14359 14360 14361 14362
          14363 14364 14365 14366 14367 14368
          14369 14370 14371 14372 14373 14374
          14375 14376 14377 14378 14379 14380
          14381 14382 14383 14384 14385 14386
          14387 14388 14389 14390 14391 14392
          14393 14394 14395 14396 14397 14398
          14399 14400 14401 14402 14403 14404
          14405 14406 14407 14408 14409 14410
          14411 14412 14413 14414 14415 14416
          14417 14418 14419 14420 14421 14422
          14423 14424 14425 14426 14427 14428
          14429 14430 14431 14432 14433 14434
          14435 14436 14437 14438 14439 14440
          14441 14442 14443 14444 14445 14446
          14447 14448 14449 14450 14451 14452
          14453 14454 14455 14456 14457 14458
          14459 14460 14461 14462 14463 14464
          14465 14466 14467 14468 14469 14470
          14471 14472 14473 14474 14475 14476
          14477 14478 14479 14480 14481 14482
          14483 14484 14518 14519 14520 14521
          14522 14523 14524 14525 14526 14527
          14528 14529 14530 14531 14532 14533
          14534 14535 14536 14537 14538 14539
          14540 14541 14542 14543 14544 14545
          14546 14547 14548 14549 14550 14551
          14552 14553 14554 14555 14556 14557
          14558 14559 14560 14561 14562 14563
          14564 14565 14566 14567 14568 14569
          14570 14571 14572 14573 14574 14575
          14576 14577 14578 14579 14580 14581
          14582 14583 14584 14585 14586 14587
          14588 14589 14590 14591 14592 14593
          14594 14595 14596 14597 14598 14599
          14600 14601 14602 14603 14604 14605
          14606 14607 14608 14609 14610 14611
          14612 14613 14614 14615 14616 14617
          14618 14619 14620 14621 14622 14623
          14624 14625 14626 14627 14628 14629
          14630 14631 14632 14633 14634 14635
          14636 14637 14638 14639 14640 14641
          14642 14643 14644 14645 14646 14647
          14648 14649 14650 14651 14652 14653
          14654 14655 14656 14657 14658 14659
          14660 14661 14662 14663 14664 14665
          14666 14667 14668 14669 14670 14671
          14672 14673 14674 14675 14676 14677
          14678 14679 14680 14681 14682 14683
          14684 14685 14686 14687 14688 14689
          14690 14691 14692 14693 14694 14695
          14696 14697 14698 14699 14700 14701
          14702 14703 14704 14705 14706 14707
          14708 14709 14710 14711 14712 14713
          14714 14715 14716 14717 14718 14719
          14720 14721 14722 14723 14724 14725
          14726 14727 14728 14729 14730 14731
          14732 14733 14734 14735 14736 14737
          14738 14739 14740 14741 14742 14743
          14744 14745 14746 14747 14748 14749
          14750 14751 14752 14753 14754 14755
          14756 14757 14758 14759 14760 14761
          14762 14763 14764 14765 14766 14767
          14768 14773 14774 14778 14781 14783
          14784 14785 14786 14787 14788 1431
          1465 1531 1565 1590 1665 1690
          1807 1742 1808 1812 1815 1739
          1938 1917 1939 1942 1631 1974
          1978 1975 1979 1981 1983 2112
          2113 2117 1530 1737 2195 2196
          2197 2201 1738 1912 2203 2209
          2205 2210 2461 2462 2463 2466
          1913 2469 1914 2483 2484 2486
          2489 1920 2503 2504 2509 2583
          2585 2616 2618 2620 2622 2712
          2713 2716 2717 2719 2721 3238
          3239 3242 3243 1953 2574 2576
          2581 3604 3629 3630 3649 3650
          3632 3653 3656 3658 5450 5451
          5455 5458 5868 5880 5881 5883
          3655 5886
        </DataArray>
        <DataArray type="Float64" Name="bounds" format="ascii" RangeMin="0" RangeMax="0">
          0 0 0 0 0 0
          0 0 0 0 0 0
          0 0 0 0 0 0
          0 0 0 0 0 0
          0 0 0 0 0 0
          0 0 0 0 0 0
          0 0 0 0 0 0
          0 0 0 0 0 0
          0 0 0 0 0 0
          0 0 0 0 0 0
          0 0 0 0 0 0
          0 0 0 0 0 0
          0 0 0 0 0 0
          0 0 0 0 0 0
          0 0 0 0 0 0
          0 0 0 0 0 0
          0 0 0 0 0 0
          0 0 0 0 0 0
          0 0 0 0 0 0
          0 0 0 0 0 0
          0 0 0 0 0 0
          0 0 0 0 0 0
          0 0 0 0 0 0
          0 0 0 0 0 0
          0 0 0 0 0 0
          0 0 0 0 0 0
          0 0 0 0 0 0
          0 0 0 0 0 0
          0 0 0 0 0 0
          0 0 0 0 0 0
          0 0 0 0 0 0
          0 0 0 0 0 0
          0 0 0 0 0 0
          0 0 0 0 0 0
          0 0 0 0 0 0
          0 0 0 0 0 0
          0 0 0 0 0 0
          0 0 0 0 0 0
          0 0 0 0 0 0
          0 0 0 0 0 0
          0 0 0 0 0 0
          0 0 0 0 0 0
          0 0 0 0 0 0
          0 0 0 0 0 0
          0 0 0 0 0 0
          0 0 0 0 0 0
          0 0 0 0 0 0
          0 0 0 0 0 0
          0 0 0 0 0 0
          0 0 0 0 0 0
          0 0 0 0 0 0
          0 0 0 0 0 0
          0 0 0 0 0 0
          0 0 0 0 0 0
          0 0 0 0 0 0
          0 0 0 0 0 0
          0 0 0 0 0 0
          0 0 0 0 0 0
          0 0 0 0 0 0
          0 0 0 0 0 0
          0 0 0 0 0 0
          0 0 0 0 0 0
          0 0 0 0 0 0
          0 0 0 0 0 0
          0 0 0 0 0 0
          0 0 0 0 0 0
          0 0 0 0 0 0
          0 0 0 0 0 0
          0 0 0 0 0 0
          0 0 0 0 0 0
          0 0 0 0 0 0
          0 0 0 0 0 0
          0 0 0 0 0 0
          0 0 0 0 0 0
          0 0 0 0 0 0
          0 0 0 0 0 0
          0 0 0 0 0 0
          0 0 0 0 0 0
          0 0 0 0 0 0
          0 0 0 0 0 0
          0 0 0 0 0 0
          0 0 0 0 0 0
          0 0 0 0 0 0
          0 0 0 0 0 0
          0 0 0 0 0 0
          0 0 0 0 0 0
          0 0 0 0 0 0
          0 0 0 0 0 0
          0 0 0 0 0 0
          0 0 0 0 0 0
          0 0 0 0 0 0
          0 0 0 0 0 0
          0 0 0 0 0 0
          0 0 0 0 0 0
          0 0 0 0 0 0
          0 0 0 0 0 0
          0 0 0 0 0 0
          0 0 0 0 0 0
          0 0 0 0 0 0
          0 0 0 0 0 0
          0 0 0 0 0 0
          0 0 0 0 0 0
          0 0 0 0 0 0
          0 0 0 0 0 0
          0 0 0 0 0 0
          0 0 0 0 0 0
          0 0 0 0 0 0
          0 0 0 0 0 0
          0 0 0 0 0 0
          0 0 0 0 0 0
          0 0 0 0 0 0
          0 0 0 0 0 0
          0 0 0 0 0 0
          0 0 0 0 0 0
          0 0 0 0 0 0
          0 0 0 0 0 0
          0 0 0 0 0 0
          0 0 0 0 0 0
          0 0 0 0 0 0
          0 0 0 0 0 0
          0 0 0 0 0 0
          0 0 0 0 0 0
          0 0 0 0 0 0
          0 0 0 0 0 0
          0 0 0 0 0 0
          0 0 0 0 0 0
          0 0 0 0 0 0
          0 0 0 0 0 0
          0 0 0 0 0 0
          0 0 0 0 0 0
          0 0 0 0 0 0
          0 0 0 0 0 0
          0 0 0 0 0 0
          0 0 0 0 0 0
          0 0 0 0 0 0
          0 0 0 0 0 0
          0 0 0 0 0 0
          0 0 0 0 0 0
          0 0 0 0 0 0
          0 0 0 0 0 0
          0 0 0 0 0 0
          0 0 0 0 0 0
          0 0 0 0 0 0
          0 0 0 0 0 0
          0 0 0 0 0 0
          0 0 0 0 0 0
          0 0 0 0 0 0
          0 0 0 0 0 0
          0 0 0 0 0 0
          0 0 0 0 0 0
          0 0 0 0 0 0
          0 0 0 0 0 0
          0 0 0 0 0 0
          0 0 0 0 0 0
          0 0 0 0 0 0
          0 0 0 0 0 0
          0 0 0 0 0 0
          0 0 0 0 0 0
          0 0 0 0 0 0
          0 0 0 0 0 0
          0 0 0 0 0 0
          0 0 0 0 0 0
          0 0 0 0 0 0
          0 0 0 0 0 0
          0 0 0 0 0 0
          0 0 0 0 0 0
          0 0 0 0 0 0
          0 0 0 0 0 0
          0 0 0 0 0 0
          0 0 0 0 0 0
          0 0 0 0 0 0
          0 0 0 0 0 0
          0 0 0 0 0 0
          0 0 0 0 0 0
          0 0 0 0 0 0
          0 0 0 0 0 0
          0 0 0 0 0 0
          0 0 0 0 0 0
          0 0 0 0 0 0
          0 0 0 0 0 0
          0 0 0 0 0 0
          0 0 0 0 0 0
          0 0 0 0 0 0
          0 0 0 0 0 0
          0 0 0 0 0 0
          0 0 0 0 0 0
          0 0 0 0 0 0
          0 0 0 0 0 0
          0 0 0 0 0 0
          0 0 0 0 0 0
          0 0 0 0 0 0
          0 0 0 0 0 0
          0 0 0 0 0 0
          0 0 0 0 0 0
          0 0 0 0 0 0
          0 0 0 0 0 0
          0 0 0 0 0 0
          0 0 0 0 0 0
          0 0 0 0 0 0
          0 0 0 0 0 0
          0 0 0 0 0 0
          0 0 0 0 0 0
          0 0 0 0 0 0
          0 0 0 0 0 0
          0 0 0 0 0 0
          0 0 0 0 0 0
          0 0 0 0 0 0
          0 0 0 0 0 0
          0 0 0 0 0 0
          0 0 0 0 0 0
          0 0 0 0 0 0
          0 0 0 0 0 0
          0 0 0 0 0 0
          0 0 0 0 0 0
          0 0 0 0 0 0
          0 0 0 0 0 0
          0 0 0 0 0 0
          0 0 0 0 0 0
          0 0 0 0 0 0
          0 0 0 0 0 0
          0 0 0 0 0 0
          0 0 0 0 0 0
          0 0 0 0 0 0
          0 0 0 0 0 0
          0 0 0 0 0 0
          0 0 0 0 0 0
          0 0 0 0 0 0
          0 0 0 0 0 0
          0 0 0 0 0 0
          0 0 0 0 0 0
          0 0 0 0 0 0
          0 0 0 0 0 0
          0 0 0 0 0 0
          0 0 0 0 0 0
          0 0 0 0 0 0
          0 0 0 0 0 0
          0 0 0 0 0 0
          0 0 0 0 0 0
          0 0 0 0 0 0
          0 0 0 0 0 0
          0 0 0 0 0 0
          0 0 0 0 0 0
          0 0 0 0 0 0
          0 0 0 0 0 0
          0 0 0 0 0 0
          0 0 0 0 0 0
          0 0 0 0 0 0
          0 0 0 0 0 0
          0 0 0 0 0 0
          0 0 0 0 0 0
          0 0 0 0 0 0
          0 0 0 0 0 0
          0 0 0 0 0 0
          0 0
        </DataArray>
        <DataArray type="Float64" Name="gradient_error" format="ascii" RangeMin="4.138411496035817e-11" RangeMax="5.087152447033744e-7">
          2.2891942970416186e-8 1.4204152675381745e-8 9.78464234031431e-9 6.526953434733284e-9 3.6840633787745435e-9 2.6494106628867924e-9
          3.0248483024696944e-9 1.8689186287289047e-9 2.043835717032804e-9 1.147926938125654e-9 1.7468438509809305e-9 9.487643938620422e-10
          1.012557794066608e-9 5.963673657891063e-10 1.3456589266079888e-10 1.1582180227946469e-10 9.091613439396546e-10 4.0139879818051927e-10
          1.4670113708943117e-10 1.0256858199167317e-10 1.2638916905361309e-10 2.035647408802676e-10 8.980864137292389e-11 4.138411496035817e-11
          5.4452227240192496e-11 7.260140059562131e-11 1.531638150128643e-7 9.507154345835128e-8 7.790513855515113e-8 5.042389067277765e-8
          1.1928892692762083e-8 1.211705926510897e-8 7.833917847596485e-9 5.488859125892271e-9 5.795889259443693e-9 2.72684228206426e-9
          3.616931701252083e-9 1.5145241918824626e-9 5.975826534951607e-9 1.7412875594712252e-9 2.112890909102048e-9 1.2225869998322524e-9
          1.7837403480777104e-10 2.0429631646697175e-8 1.3775848560810845e-8 7.624837213836085e-9 3.3745398298524724e-9 1.2237286200569892e-9
          4.0328203762774435e-10 3.39527092497122e-10 3.3132579800555803e-10 3.8799913895561164e-9 2.8482790336545613e-9 1.539188253009258e-9
          5.933875141524247e-10 2.1747005957787172e-10 1.4665583997511025e-10 2.2150006783089856e-10 2.18169629769768e-10 9.437209612156885e-11
          3.7404622632197857e-7 1.9376396729843724e-7 2.112659951200023e-7 1.5200735325307553e-7 5.373934938105136e-8 1.1542410596787053e-7
          4.409510808245233e-8 1.015687107664644e-7 3.381555596107454e-8 8.85703616884746e-8 4.441709467065132e-8 7.503273610172359e-8
          1.6164813076577778e-7 5.6236971441560826e-8 8.106390022655453e-9 1.9990116174796174e-8 2.3733858698480448e-8 1.6619594037423575e-8
          9.678792794372767e-9 4.559829043065537e-9 1.8445488200264645e-9 9.014535871649468e-10 7.077528034503917e-10 6.162061453498468e-10
          7.913333493797795e-9 7.209457324021067e-9 5.396358200841348e-9 3.2730341887572563e-9 1.4740293323927728e-9 7.392185536083278e-10
          9.159968945755534e-10 7.830571459266815e-10 4.098299003125727e-8 1.5529694767197886e-7 4.866245941444647e-8 1.5391697713065185e-7
          6.156709062770072e-8 1.49120869879137e-7 7.8711987545707e-8 1.3993121311512315e-7 1.0338769211402182e-7 1.2543168933466504e-7
          1.3815778778812798e-7 1.048553952425511e-7 1.3105685960901172e-8 7.833208789885415e-8 2.1680787117728622e-8 4.913172975659809e-8
          2.797167793646111e-9 2.0611031419952422e-8 1.5310555868326427e-8 9.412671156336648e-9 4.3849794886490655e-9 4.1603991226742816e-9
          4.8631561259551165e-9 4.616601304709948e-9 2.6540696231652733e-9 9.664106712434484e-9 9.958782639479504e-9 8.43361564024115e-9
          5.683901860028204e-9 2.656874283556854e-9 1.2529623005567162e-9 1.4776958299045533e-9 1.24643310345126e-9 1.657170658348637e-7
          1.4294367445085258e-7 8.695641261378015e-8 1.5322960752655664e-7 2.691849421422162e-7 2.1341043867857586e-7 1.6137831657100303e-7
          1.3286329993183642e-7 2.2347851625320875e-7 2.094431318895059e-7 8.902147934510676e-8 1.0098905069573686e-7 1.1645332370566013e-7
          8.303975228821133e-8 8.600405482645578e-8 2.0526933203584405e-7 1.8379986538468632e-7 1.1670375024534863e-7 9.230851310714394e-8
          2.179407180981669e-8 5.394971691600031e-8 7.27056213863396e-8 9.465785071236429e-8 2.5798787078640977e-8 6.920252504254669e-8
          7.260875241685327e-8 5.720614128968498e-8 6.284548242315458e-8 3.456216657773967e-8 1.6502863241744697e-8 3.581970162239743e-8
          4.10889428777551e-8 6.436740400520276e-8 3.179612312379185e-9 3.163165345680866e-9 5.988958766718627e-8 2.682062460275153e-8
          2.4646830597343607e-9 1.1057720839431724e-8 3.118068897908086e-8 4.704286633672974e-8 5.3536706796144416e-8 3.247378546708273e-8
          1.103392924132046e-9 1.3333971677100454e-9 3.801917800723269e-9 9.254252729391396e-9 2.8755404125087535e-10 1.160992730122576e-9
          2.1816486470476425e-9 6.6395329727476e-9 1.7175108291072742e-8 2.0344314189942767e-9 2.631354270981528e-7 2.436478630928511e-7
          1.7879793043841726e-7 1.688373151191706e-7 1.450748030412572e-7 1.6178595955636967e-7 1.945917327079447e-7 1.534286932803088e-7
          9.137863802685952e-8 1.1183619687632957e-7 1.7803847786257127e-7 1.698819653615065e-7 1.8889434668767575e-7 1.4879795379993902e-7
          1.2187249744875058e-8 7.776670345008649e-8 1.5702110109879349e-7 2.7744611928690185e-8 1.6234517215154232e-7 6.766598564002394e-8
          8.358712020887719e-8 3.527004325490167e-8 6.073765442679388e-8 6.135340043948707e-8 3.876309152552681e-8 3.931760048852355e-8
          1.1040208053075821e-7 1.0340068569718482e-7 5.7211223477794686e-8 1.4726948124976605e-8 3.008271256760917e-8 3.330335596440453e-8
          7.663440081564124e-8 7.195811523843838e-8 6.023258737626582e-8 4.296377443828083e-8 4.289079995320751e-8 5.765205700956557e-8
          4.7983123710019925e-8 4.698770803701812e-8 7.487681745947472e-8 5.797134869476011e-8 5.856374631032774e-8 1.8758506124706375e-8
          3.714000221266533e-8 4.185692376715308e-8 3.836856747310728e-8 6.510548272178248e-8 5.4183585468128945e-8 5.402033656109406e-8
          5.172637736130765e-8 4.952420299240016e-8 6.130406600970679e-8 5.7189264964826644e-8 4.37194319771457e-8 4.645968356395465e-8
          3.484177608619213e-8 2.5603542932097947e-8 4.771074719398459e-8 5.506415147731938e-8 4.3984544753712767e-8 5.35720125300603e-8
          4.364775217910823e-8 7.001138557425972e-8 6.330087393628326e-8 3.378922143737008e-8 4.537743134413938e-8 3.9887556635487425e-8
          6.446337240198217e-8 5.026855324997063e-8 3.2449613750051674e-8 6.033010380065815e-8 4.617710024208295e-8 6.370002885467212e-8
          1.4661342012774552e-8 2.8239227887891704e-8 2.0248478988050364e-8 4.6381756401869435e-8 5.268805791883986e-8 2.6981865791973684e-8
          4.247286781292238e-8 4.60355947741676e-8 3.8388927601761713e-8 6.098838120579541e-8 2.2956731577565792e-8 3.543087334661381e-8
          8.087484966605005e-9 1.6848310817547895e-8 3.362996330003775e-8 2.8460883601016488e-8 2.3291794263335947e-8 9.567150597957285e-10
          9.3326899798293e-10 2.4850902410598264e-9 7.370893171147395e-9 2.8207995993942576e-9 2.797781472020497e-9 7.374292824280065e-9
          9.951294754281745e-11 9.098229361701314e-10 2.7747633446467368e-9 7.3776924774127344e-9 2.3443240274612743e-9 4.78878601157163e-9
          1.521009129861921e-8 2.234477967832277e-8 2.3737981147308624e-10 3.1833804589143228e-9 4.044842306895364e-9 2.8075858569777147e-8
          3.990077334507391e-8 6.129381106355559e-9 9.32217434378998e-8 9.523830512584079e-8 9.52011895583912e-8 1.1852795632223595e-7
          8.995619892572529e-8 7.027869017653173e-8 5.29841852573587e-8 6.734675481184347e-8 7.095978226613925e-8 6.339358963636148e-8
          9.794879985924944e-8 1.418176075186311e-7 5.133664634811038e-8 8.170932436632825e-8 8.627656684713909e-8 6.731345111404136e-8
          4.290936158630275e-8 5.8526892007483494e-8 4.908476200968513e-8 7.414442242866424e-8 2.476453932559502e-9 2.0359872616493348e-9
          1.7407252272612047e-9 4.076664125955504e-8 3.482393213290256e-8 2.8844847318201607e-8 3.420514302811412e-8 9.614995754211684e-10
          1.507770743397141e-8 1.9121650477796653e-8 2.8656324114350632e-8 2.91147301382345e-8 2.739196016788983e-8 1.9600714364618325e-8
          2.0552662931087028e-8 2.3484236801337038e-8 2.2481345044980687e-8 3.2259843375983385e-8 2.145658612125522e-8 2.450748702565083e-8
          3.0659783227307014e-8 2.8995928510124716e-8 2.727766367333964e-8 3.015654203433337e-8 1.2449001747823424e-8 1.7853743464439576e-8
          1.7570729922071545e-8 1.841564562688037e-8 2.7332073792942422e-8 3.3900974490474076e-8 3.416449769966773e-8 2.2291287606030567e-8
          2.566632493509441e-8 3.571715082992946e-8 2.3310586407936543e-8 2.69530205807233e-8 3.4795236532415474e-8 3.164392627001089e-8
          3.3202543498962757e-8 1.3891711801118481e-8 1.9266313637820566e-8 2.0257571859860746e-8 2.8802114123363022e-8 3.6935045717316804e-8
          3.742354714378961e-8 2.4591641098626618e-8 2.833429819566308e-8 3.9238764023175565e-8 2.6033859670886085e-8 2.986648137059161e-8
          3.7599627008803474e-8 3.473565043380629e-8 3.639300210894902e-8 1.5568382933245523e-8 2.1377107451354553e-8 2.262671138936057e-8
          3.161601036647653e-8 3.485413648088172e-8 3.333779738413241e-8 3.4649376541098956e-8 3.320740866832413e-8 3.489617357268398e-8
          3.5960915368350246e-8 3.4178605182239775e-8 3.5052262806334377e-8 3.3660121198027946e-8 3.3374465848675825e-8 3.444461660131619e-8
          3.307701995251584e-8 3.571049953570632e-8 3.592592043042898e-8 3.5267732388850965e-8 3.7150023287222516e-8 3.667473982972228e-8
          3.8580481245267346e-8 3.1098955528699366e-8 3.295314269996425e-8 3.4306019449162433e-8 3.6863782781926205e-8 3.828468673732305e-8
          3.444109883788633e-8 4.077159106250334e-8 4.1195883944884886e-8 2.7626344582679625e-8 3.161147423174142e-8 4.3315616303272284e-8
          2.940364130509269e-8 3.3554330369402864e-8 4.1049597357629553e-8 3.8284015830234585e-8 4.0377347048127386e-8 1.7561576416565112e-8
          2.4006746856738006e-8 2.554944367244255e-8 3.5122826935253275e-8 4.5359776596060075e-8 4.562531586707681e-8 3.1395419910489495e-8
          3.5719127280437145e-8 4.814235122448498e-8 3.364113381396173e-8 3.8142410664901604e-8 4.486557715478211e-8 4.268113183179012e-8
          4.5218349287745665e-8 2.012005110371275e-8 2.728352695873261e-8 2.924373423400477e-8 3.937520624678209e-8 3.799624834943118e-8
          4.0276832480986657e-8 3.930752822066618e-8 4.208915920075985e-8 3.325659749423327e-8 3.545220439714616e-8 3.6570715669659e-8
          4.003141139519167e-8 4.1945488107694594e-8 3.7085297289898584e-8 4.067292319799299e-8 4.4037738045430086e-8 4.210530928490938e-8
          4.614237547028867e-8 3.4905777555864445e-8 3.7723040770911723e-8 3.8925181412559845e-8 4.4017879242733115e-8 4.625936931257422e-8
          3.970308975770463e-8 5.086042382778572e-8 5.0885640156142054e-8 3.618954183280574e-8 4.0871344983710494e-8 5.3879150824468695e-8
          3.910339987707524e-8 4.395945207409276e-8 4.92681870943562e-8 4.8015918856281976e-8 5.11239338707774e-8 2.3487761755187674e-8
          3.147581881023292e-8 3.404315888567156e-8 4.4623106337977895e-8 5.749231701749715e-8 5.714706533573596e-8 4.2464134794676867e-8
          4.74742253078944e-8 6.070976741047782e-8 4.6379628366806866e-8 5.1507372594737684e-8 5.4371063473838e-8 5.458960929175721e-8
          5.84339060831578e-8 2.811924160510594e-8 3.703205202396902e-8 4.056092240718868e-8 5.1167653377774164e-8 4.361667968767047e-8
          4.8415469702101535e-8 4.514105716751119e-8 5.079929345646213e-8 3.6602746314914474e-8 4.018857144422961e-8 4.148737748021121e-8
          4.8681170933809665e-8 5.132594072022171e-8 4.251861778943095e-8 4.667571077790547e-8 5.3305019894641846e-8 4.833104683445193e-8
          5.60731605022725e-8 3.425346213371799e-8 4.2791917466756804e-8 4.408248779960921e-8 5.421548639754388e-8 5.731637502548556e-8
          4.548771522265937e-8 4.0059419682933555e-8 3.7970360447895945e-8 3.796443781006764e-8 5.047489878295438e-8 5.2016700248964654e-8
          4.979404825715664e-8 4.84650749243683e-8 3.77490479651081e-8 5.347208653347694e-8 5.1024750090080546e-8 3.211506258560963e-8
          4.327214106541168e-8 4.247685719824517e-8 4.3945914519340465e-8 6.54751166478906e-8 6.458133428805637e-8 6.87620186682795e-8
          6.016638566491137e-8 3.9610118363626374e-8 3.727255652159362e-8 5.4818682776256125e-8 5.213232179182905e-8 3.092756796805866e-8
          4.4459869628190316e-8 7.482969840154415e-8 7.320192183937364e-8 6.660109411020833e-8 5.099510277510753e-8 5.617182543212257e-8
          5.6469384721963984e-8 6.158707616175922e-8 6.268851620794143e-8 6.740754410966517e-8 3.501395306942962e-8 4.479871835454974e-8
          4.995056720201246e-8 5.947348063127386e-8 5.220433590714012e-8 6.242187598354052e-8 7.260345638041458e-8 2.4155220992014264e-8
          4.5355334948007744e-8 6.999689582873447e-8 5.012479795528265e-8 5.914476838907786e-8 5.192913799324808e-8 6.241257999859485e-8
          3.495436761641597e-8 4.5362093599946845e-8 4.661957225156372e-8 6.062124817590914e-8 6.417069138337694e-8 4.864324662398845e-8
          5.359305081082499e-8 6.577630473074474e-8 4.088055371886706e-8 4.780210557675179e-8 4.890595662419553e-8 6.80106579224146e-8
          5.191382283707764e-8 2.2379957433433925e-8 2.3764939640657666e-8 2.8971811257172576e-8 2.8781587661587193e-8 2.207976731323089e-8
          2.9032872691210018e-8 1.7664098861541573e-8 2.227492460771275e-8 2.2754643805231715e-8 2.1814395444099503e-8 3.136988391429086e-8
          3.110664101787774e-8 3.1574575122695776e-8 2.380486586563454e-8 2.1573647716030195e-8 2.896274229226568e-8 2.271353607057034e-8
          2.8776718952761737e-8 1.684293670819317e-8 2.1462349836048127e-8 2.1029132781809857e-8 3.1715097538216405e-8 3.1746978929799586e-8