<?xml version="1.0"?>
<VTKFile type="UnstructuredGrid" version="0.1" byte_order="LittleEndian" header_type="UInt32" compressor="vtkZLibDataCompressor">
  <UnstructuredGrid>
    <Piece NumberOfPoints="1537" NumberOfCells="947">
      <PointData>
        <DataArray type="Int32" Name="libmesh_node_id" format="ascii" RangeMin="1431" RangeMax="6750">
          1431 1433 1465 1466 1530 1531
          1532 1533 1565 1566 1590 1591
          1592 1631 1633 1665 1666 1690
          1691 1692 1737 1738 1739 1742
          1747 1748 1749 1750 1751 1752
          1753 1754 1755 1756 1757 1758
          1759 1760 1761 1762 1807 1808
          1812 1815 1817 1818 1819 1820
          1821 1822 1823 1824 1825 1826
          1912 1913 1914 1917 1920 1938
          1939 1942 1946 1947 1948 1949
          1950 1951 1952 1953 1954 1955
          1956 1957 1958 1959 1960 1961
          1962 1963 1964 1967 1968 1969
          1970 1971 1973 1974 1975 1976
          1977 1978 1979 1980 1981 1982
          1983 1984 1985 1986 1987 1988
          1989 1990 1991 1992 1993 2031
          2112 2113 2117 2120 2121 2123
          2124 2126 2127 2130 2131 2136
          2195 2196 2197 2201 2202 2203
          2204 2205 2206 2207 2208 2209
          2210 2211 2212 2213 2214 2215
          2216 2217 2218 2219 2220 2221
          2222 2223 2224 2225 2226 2227
          2228 2229 2461 2462 2463 2466
          2469 2483 2484 2486 2489 2503
          2504 2509 2545 2546 2547 2548
          2549 2550 2551 2552 2553 2554
          2555 2556 2557 2558 2559 2560
          2561 2562 2563 2564 2565 2566
          2567 2568 2569 2570 2571 2572
          2573 2574 2575 2576 2577 2578
          2579 2580 2581 2582 2583 2584
          2585 2586 2587 2588 2589 2590
          2591 2592 2593 2594 2595 2596
          2597 2598 2599 2600 2601 2602
          2603 2604 2605 2606 2607 2608
          2609 2610 2611 2612 2613 2614
          2615 2616 2617 2618 2619 2620
          2621 2622 2623 2624 2625 2626
          2627 2628 2629 2630 2631 2632
          2633 2634 2635 2636 2637 2638
          2639 2640 2641 2642 2643 2644
          2645 2646 2647 2651 2652 2654
          2655 2657 2658 2659 2660 2661
          2662 2663 2664 2665 2666 2667
          2668 2669 2672 2673 2675 2677
          2678 2679 2680 2681 2682 2683
          2684 2685 2686 2687 2688 2689
          2692 2694 2695 2697 2698 2699
          2700 2701 2702 2703 2704 2705
          2707 2708 2709 2711 2712 2713
          2714 2715 2716 2717 2718 2719
          2720 2721 2722 2723 2724 2725
          2726 2727 2728 2729 2730 2731
          2732 2733 2734 2735 2736 2737
          2738 2739 2740 2741 2742 2743
          2744 2745 2746 2747 2748 2749
          2750 2751 3238 3239 3240 3241
          3242 3243 3244 3245 3246 3247
          3248 3249 3250 3251 3252 3254
          3256 3297 3298 3299 3300 3301
          3302 3303 3304 3305 3306 3307
          3308 3309 3310 3311 3312 3315
          3316 3318 3320 3594 3604 3609
          3610 3611 3612 3613 3614 3615
          3616 3617 3618 3619 3620 3621
          3622 3623 3624 3625 3626 3627
          3628 3629 3630 3631 3632 3633
          3634 3635 3636 3637 3638 3639
          3640 3641 3642 3643 3644 3645
          3646 3647 3648 3649 3650 3651
          3652 3653 3654 3655 3656 3657
          3658 3659 3660 3661 3662 3663
          3664 3665 3666 3667 3668 3669
          3670 3671 3672 3673 3674 3675
          3676 3677 3678 3679 3680 3681
          3682 3683 3684 3685 3686 3687
          3688 3689 3690 3691 3692 3693
          3694 3695 3696 3697 3698 3699
          3700 3701 3702 3703 3704 3705
          3706 3707 3708 3709 3710 3711
          3712 3713 3714 3715 3716 3717
          3718 3719 3720 3721 3722 3723
          3724 3725 3726 3727 3728 3729
          3730 3731 3732 3733 3734 3735
          3736 3737 3738 3739 3740 3741
          3742 3743 3744 3745 3746 3747
          3748 3749 3750 3751 3752 3753
          3754 3755 3756 3757 3758 3759
          3760 3761 3762 3763 3764 3766
          3767 3768 3769 3773 3774 3775
          3776 3777 3778 3779 3780 3781
          3782 3783 3784 3785 3786 3787
          3788 3789 3790 3791 3792 3793
          3794 3795 3796 3797 3798 3799
          3800 3801 3802 3803 3804 3805
          3806 3807 3808 3809 3810 3811
          3812 3813 3814 3815 3816 3817
          3818 3819 3820 3821 3822 3823
          3824 3825 3826 3827 3828 3829
          3830 3831 3832 3833 3834 3835
          3836 3837 3838 3839 3840 3841
          3842 3843 3844 3845 3846 3847
          3848 3849 3850 3851 3852 3855
          3857 3858 3860 3861 3862 3863
          3864 3865 3866 3867 3868 3870
          3872 3874 3875 3876 3877 3878
          3879 3880 3881 3882 3883 3884
          3885 3886 3889 3891 3892 3894
          3895 3896 3897 3898 3899 3900
          3901 3902 3904 3906 3908 3909
          3910 3911 3912 3913 3914 3915
          3916 3917 3918 3919 3920 3921
          3922 3923 3924 3925 3926 3929
          3930 3931 3932 3933 3934 3935
          3936 3940 5450 5451 5455 5458
          5460 5461 5462 5463 5464 5465
          5861 5862 5863 5864 5865 5868
          5870 5871 5872 5873 5874 5875
          5876 5877 5880 5881 5883 5886
          5888 5889 5890 5891 5892 5893
          5894 5895 5896 5897 5898 5899
          5900 5901 5902 5903 5904 5905
          5906 5907 5908 5909 5910 5911
          5912 5913 5914 5915 5916 5917
          5918 5919 5920 5921 5922 5923
          5924 5925 5926 5927 5928 5929
          5930 5931 5932 5933 5934 5935
          5936 5937 5938 5939 5940 5941
          5942 5943 5944 5945 5946 5947
          5948 5949 5950 5951 5952 5953
          5954 5955 5956 5957 5958 5959
          5960 5961 5962 5963 5964 5965
          5966 5967 5968 5969 5970 5971
          5972 5973 5974 5975 5976 5977
          5978 5979 5980 5981 5982 5983
          5984 5985 5986 5987 5988 5989
          5990 5991 5992 5993 5994 5995
          5996 5997 5998 5999 6000 6001
          6002 6003 6004 6005 6006 6007
          6008 6009 6010 6011 6012 6013
          6014 6015 6016 6017 6018 6019
          6020 6021 6022 6023 6024 6025
          6026 6027 6028 6029 6030 6031
          6032 6033 6034 6035 6036 6037
          6038 6039 6040 6041 6042 6043
          6044 6045 6046 6047 6048 6049
          6050 6051 6052 6053 6054 6055
          6056 6057 6058 6059 6060 6061
          6062 6063 6064 6065 6066 6067
          6068 6069 6070 6071 6072 6073
          6074 6075 6076 6077 6078 6079
          6080 6081 6082 6083 6084 6085
          6086 6087 6088 6089 6090 6091
          6092 6093 6094 6095 6096 6097
          6098 6099 6100 6101 6102 6103
          6104 6105 6106 6107 6108 6109
          6110 6111 6112 6113 6114 6115
          6116 6117 6118 6119 6120 6121
          6122 6123 6124 6125 6126 6127
          6128 6129 6130 6131 6132 6133
          6134 6135 6136 6137 6138 6139
          6140 6141 6142 6143 6144 6145
          6146 6147 6148 6149 6150 6151
          6152 6153 6154 6155 6156 6157
          6158 6159 6160 6161 6162 6163
          6164 6165 6166 6167 6168 6169
          6170 6171 6172 6173 6174 6175
          6176 6177 6178 6179 6180 6181
          6182 6183 6184 6185 6186 6187
          6188 6189 6190 6191 6192 6193
          6194 6195 6196 6197 6198 6199
          6200 6201 6202 6203 6204 6205
          6206 6207 6208 6209 6210 6211
          6212 6213 6214 6215 6216 6217
          6218 6219 6220 6221 6222 6223
          6224 6225 6226 6227 6228 6229
          6230 6231 6232 6233 6234 6235
          6236 6237 6238 6239 6240 6241
          6242 6243 6244 6245 6246 6247
          6248 6249 6250 6251 6252 6253
          6254 6255 6256 6257 6258 6259
          6260 6261 6262 6263 6264 6265
          6266 6267 6268 6269 6270 6271
          6272 6273 6274 6275 6276 6277
          6278 6279 6280 6281 6282 6283
          6284 6285 6286 6287 6288 6289
          6290 6291 6292 6293 6294 6295
          6296 6297 6298 6299 6300 6301
          6302 6303 6304 6305 6306 6307
          6308 6309 6310 6311 6312 6313
          6314 6315 6316 6317 6318 6319
          6320 6321 6322 6323 6324 6325
          6326 6327 6328 6329 6330 6331
          6332 6333 6334 6335 6336 6337
          6338 6339 6340 6341 6342 6343
          6344 6345 6346 6347 6348 6349
          6350 6351 6352 6353 6354 6355
          6356 6357 6358 6359 6360 6361
          6362 6363 6364 6365 6366 6367
          6368 6369 6370 6371 6372 6373
          6374 6375 6376 6377 6378 6379
          6380 6381 6382 6383 6384 6385
          6386 6387 6388 6389 6390 6391
          6392 6393 6394 6395 6396 6397
          6398 6399 6400 6401 6402 6403
          6404 6405 6406 6407 6408 6409
          6410 6411 6412 6413 6414 6415
          6416 6417 6418 6419 6420 6421
          6422 6423 6424 6425 6426 6427
          6428 6429 6430 6431 6432 6433
          6434 6435 6436 6437 6438 6439
          6440 6441 6442 6443 6444 6445
          6446 6447 6448 6449 6450 6451
          6452 6457 6458 6459 6463 6464
          6465 6466 6467 6468 6469 6470
          6471 6472 6483 6484 6485 6486
          6487 6488 6489 6497 6498 6499
          6500 6501 6502 6503 6504 6505
          6506 6510 6511 6512 6516 6517
          6518 6519 6520 6521 6522 6523
          6524 6525 6526 6527 6528 6529
          6530 6531 6532 6533 6534 6535
          6536 6537 6538 6539 6540 6541
          6542 6543 6544 6545 6546 6547
          6548 6549 6550 6551 6552 6553
          6554 6555 6556 6557 6558 6559
          6560 6561 6562 6563 6564 6565
          6566 6567 6568 6569 6570 6571
          6572 6573 6574 6575 6576 6577
          6578 6579 6580 6581 6582 6583
          6584 6585 6586 6587 6588 6589
          6590 6591 6592 6593 6604 6605
          6606 6607 6608 6609 6610 6618
          6619 6620 6621 6622 6623 6624
          6625 6626 6627 6638 6639 6640
          6641 6642 6643 6644 6652 6653
          6654 6655 6656 6657 6658 6659
          6660 6661 6662 6663 6664 6665
          6666 6667 6668 6669 6670 6671
          6672 6673 6674 6675 6676 6677
          6678 6679 6680 6681 6682 6683
          6684 6685 6686 6687 6688 6689
          6690 6691 6692 6693 6694 6695
          6696 6697 6698 6699 6700 6701
          6702 6703 6704 6705 6706 6707
          6708 6716 6717 6718 6719 6720
          6721 6722 6730 6731 6732 6733
          6734 6735 6736 6744 6745 6746
          6747 6748 6749 6750 1567 1667
          1768 1827 1769 1828 1831 1832
          1834 1836 2022 2026 2023 2027
          2230 2231 3253 3255 3257 3258
          2001 3313 2028 3314 3317 1774
          3319
        </DataArray>
        <DataArray type="Float64" Name="bounds" format="ascii" RangeMin="0" RangeMax="0">
          0 0 0 0 0 0
          0 0 0 0 0 0
          0 0 0 0 0 0
          0 0 0 0 0 0
          0 0 0 0 0 0
          0 0 0 0 0 0
          0 0 0 0 0 0
          0 0 0 0 0 0
          0 0 0 0 0 0
          0 0 0 0 0 0
          0 0 0 0 0 0
          0 0 0 0 0 0
          0 0 0 0 0 0
          0 0 0 0 0 0
          0 0 0 0 0 0
          0 0 0 0 0 0
          0 0 0 0 0 0
          0 0 0 0 0 0
          0 0 0 0 0 0
          0 0 0 0 0 0
          0 0 0 0 0 0
          0 0 0 0 0 0
          0 0 0 0 0 0
          0 0 0 0 0 0
          0 0 0 0 0 0
          0 0 0 0 0 0
          0 0 0 0 0 0
          0 0 0 0 0 0
          0 0 0 0 0 0
          0 0 0 0 0 0
          0 0 0 0 0 0
          0 0 0 0 0 0
          0 0 0 0 0 0
          0 0 0 0 0 0
          0 0 0 0 0 0
          0 0 0 0 0 0
          0 0 0 0 0 0
          0 0 0 0 0 0
          0 0 0 0 0 0
          0 0 0 0 0 0
          0 0 0 0 0 0
          0 0 0 0 0 0
          0 0 0 0 0 0
          0 0 0 0 0 0
          0 0 0 0 0 0
          0 0 0 0 0 0
          0 0 0 0 0 0
          0 0 0 0 0 0
          0 0 0 0 0 0
          0 0 0 0 0 0
          0 0 0 0 0 0
          0 0 0 0 0 0
          0 0 0 0 0 0
          0 0 0 0 0 0
          0 0 0 0 0 0
          0 0 0 0 0 0
          0 0 0 0 0 0
          0 0 0 0 0 0
          0 0 0 0 0 0
          0 0 0 0 0 0
          0 0 0 0 0 0
          0 0 0 0 0 0
          0 0 0 0 0 0
          0 0 0 0 0 0
          0 0 0 0 0 0
          0 0 0 0 0 0
          0 0 0 0 0 0
          0 0 0 0 0 0
          0 0 0 0 0 0
          0 0 0 0 0 0
          0 0 0 0 0 0
          0 0 0 0 0 0
          0 0 0 0 0 0
          0 0 0 0 0 0
          0 0 0 0 0 0
          0 0 0 0 0 0
          0 0 0 0 0 0
          0 0 0 0 0 0
          0 0 0 0 0 0
          0 0 0 0 0 0
          0 0 0 0 0 0
          0 0 0 0 0 0
          0 0 0 0 0 0
          0 0 0 0 0 0
          0 0 0 0 0 0
          0 0 0 0 0 0
          0 0 0 0 0 0
          0 0 0 0 0 0
          0 0 0 0 0 0
          0 0 0 0 0 0
          0 0 0 0 0 0
          0 0 0 0 0 0
          0 0 0 0 0 0
          0 0 0 0 0 0
          0 0 0 0 0 0
          0 0 0 0 0 0
          0 0 0 0 0 0
          0 0 0 0 0 0
          0 0 0 0 0 0
          0 0 0 0 0 0
          0 0 0 0 0 0
          0 0 0 0 0 0
          0 0 0 0 0 0
          0 0 0 0 0 0
          0 0 0 0 0 0
          0 0 0 0 0 0
          0 0 0 0 0 0
          0 0 0 0 0 0
          0 0 0 0 0 0
          0 0 0 0 0 0
          0 0 0 0 0 0
          0 0 0 0 0 0
          0 0 0 0 0 0
          0 0 0 0 0 0
          0 0 0 0 0 0
          0 0 0 0 0 0
          0 0 0 0 0 0
          0 0 0 0 0 0
          0 0 0 0 0 0
          0 0 0 0 0 0
          0 0 0 0 0 0
          0 0 0 0 0 0
          0 0 0 0 0 0
          0 0 0 0 0 0
          0 0 0 0 0 0
          0 0 0 0 0 0
          0 0 0 0 0 0
          0 0 0 0 0 0
          0 0 0 0 0 0
          0 0 0 0 0 0
          0 0 0 0 0 0
          0 0 0 0 0 0
          0 0 0 0 0 0
          0 0 0 0 0 0
          0 0 0 0 0 0
          0 0 0 0 0 0
          0 0 0 0 0 0
          0 0 0 0 0 0
          0 0 0 0 0 0
          0 0 0 0 0 0
          0 0 0 0 0 0
          0 0 0 0 0 0
          0 0 0 0 0 0
          0 0 0 0 0 0
          0 0 0 0 0 0
          0 0 0 0 0 0
          0 0 0 0 0 0
          0 0 0 0 0 0
          0 0 0 0 0 0
          0 0 0 0 0 0
          0 0 0 0 0 0
          0 0 0 0 0 0
          0 0 0 0 0 0
          0 0 0 0 0 0
          0 0 0 0 0 0
          0 0 0 0 0 0
          0 0 0 0 0 0
          0 0 0 0 0 0
          0 0 0 0 0 0
          0 0 0 0 0 0
          0 0 0 0 0 0
          0 0 0 0 0 0
          0 0 0 0 0 0
          0 0 0 0 0 0
          0 0 0 0 0 0
          0 0 0 0 0 0
          0 0 0 0 0 0
          0 0 0 0 0 0
          0 0 0 0 0 0
          0 0 0 0 0 0
          0 0 0 0 0 0
          0 0 0 0 0 0
          0 0 0 0 0 0
          0 0 0 0 0 0
          0 0 0 0 0 0
          0 0 0 0 0 0
          0 0 0 0 0 0
          0 0 0 0 0 0
          0 0 0 0 0 0
          0 0 0 0 0 0
          0 0 0 0 0 0
          0 0 0 0 0 0
          0 0 0 0 0 0
          0 0 0 0 0 0
          0 0 0 0 0 0
          0 0 0 0 0 0
          0 0 0 0 0 0
          0 0 0 0 0 0
          0 0 0 0 0 0
          0 0 0 0 0 0
          0 0 0 0 0 0
          0 0 0 0 0 0
          0 0 0 0 0 0
          0 0 0 0 0 0
          0 0 0 0 0 0
          0 0 0 0 0 0
          0 0 0 0 0 0
          0 0 0 0 0 0
          0 0 0 0 0 0
          0 0 0 0 0 0
          0 0 0 0 0 0
          0 0 0 0 0 0
          0 0 0 0 0 0
          0 0 0 0 0 0
          0 0 0 0 0 0
          0 0 0 0 0 0
          0 0 0 0 0 0
          0 0 0 0 0 0
          0 0 0 0 0 0
          0 0 0 0 0 0
          0 0 0 0 0 0
          0 0 0 0 0 0
          0 0 0 0 0 0
          0 0 0 0 0 0
          0 0 0 0 0 0
          0 0 0 0 0 0
          0 0 0 0 0 0
          0 0 0 0 0 0
          0 0 0 0 0 0
          0 0 0 0 0 0
          0 0 0 0 0 0
          0 0 0 0 0 0
          0 0 0 0 0 0
          0 0 0 0 0 0
          0 0 0 0 0 0
          0 0 0 0 0 0
          0 0 0 0 0 0
          0 0 0 0 0 0
          0 0 0 0 0 0
          0 0 0 0 0 0
          0 0 0 0 0 0
          0 0 0 0 0 0
          0 0 0 0 0 0
          0 0 0 0 0 0
          0 0 0 0 0 0
          0 0 0 0 0 0
          0 0 0 0 0 0
          0 0 0 0 0 0
          0 0 0 0 0 0
          0 0 0 0 0 0
          0 0 0 0 0 0
          0 0 0 0 0 0
          0 0 0 0 0 0
          0 0 0 0 0 0
          0 0 0 0 0 0
          0 0 0 0 0 0
          0 0 0 0 0 0
          0 0 0 0 0 0
          0 0 0 0 0 0
          0 0 0 0 0 0
          0 0 0 0 0 0
          0 0 0 0 0 0
          0 0 0 0 0 0
          0 0 0 0 0 0
          0 0 0 0 0 0
          0 0 0 0 0 0
          0
        </DataArray>
        <DataArray type="Float64" Name="gradient_error" format="ascii" RangeMin="5.292535222680062e-12" RangeMax="9.360250545155218e-8">
          1.9437570624229583e-10 5.421899905390098e-11 1.718761598192921e-10 4.971622118601079e-11 1.8752198932438775e-9 5.728707817638097e-10
          4.576684398272419e-10 9.585764177916251e-11 2.87280473545026e-10 6.741098027581288e-11 3.123874231920155e-10 5.725402733221549e-11
          7.366824146998255e-12 1.8596412371779624e-8 3.6192741579444566e-9 5.467969002341723e-10 6.506563757145322e-11 4.95304429736349e-10
          8.319003243716754e-11 1.1140718590377708e-11 8.038029969567568e-10 4.606688394288146e-8 3.904654717617514e-8 4.685571614461676e-9
          1.3129954950403972e-9 5.410001197577713e-10 2.8366065136894475e-8 2.394338509072944e-8 2.857175634666748e-10 1.1194951098586636e-8
          1.1123035604202592e-8 2.2138659424262653e-10 2.0169470607280354e-9 6.255912875605731e-10 1.395224361445026e-10 5.8717857137576277e-8
          5.693336466567789e-8 1.03151329651088e-8 8.474281161805045e-11 1.1284054354132501e-10 7.608188678265299e-10 5.729381596762659e-10
          3.895580789032048e-10 3.6294823556698683e-10 2.5779377315656107e-10 1.6103176868589702e-10 6.233135974129395e-11 4.6353903950096606e-11
          6.888125314415183e-11 7.346388881602434e-11 3.2481341375239905e-11 9.246918363579721e-11 1.0321492842652547e-10 7.804652448789686e-11
          3.6812321332603414e-8 7.980306580487285e-8 6.999078244940484e-8 5.458591063011456e-8 5.9466489937887665e-8 3.0215746346732225e-8
          4.085545686270741e-8 1.300982573237502e-8 3.752100852461276e-8 2.9304736210348074e-8 4.6419622952193755e-8 7.695833839211908e-8
          2.157692532212796e-8 5.031179773612062e-8 7.092682222363554e-8 3.1573605570939936e-8 5.11974055641904e-8 4.631274951857381e-8
          1.4837998826834998e-10 5.234875201464663e-8 6.21321189782591e-8 5.649358519715726e-8 1.926790889850235e-8 1.426665514973542e-8
          5.2818674211454966e-8 6.009622537020102e-8 8.161157627303091e-9 1.6927681727936054e-8 3.9852904204116506e-8 3.178857648896355e-8
          4.296148719258722e-10 1.0021978195386483e-8 5.957880406040371e-8 2.4578565391903902e-8 3.36286103841826e-8 1.884765454690271e-8
          2.6019857456490267e-8 3.998891010370039e-9 9.644652030910647e-9 6.7282949648161105e-9 2.3051721650716115e-8 1.7596538280533802e-8
          1.4235598337622042e-8 1.3600793068022743e-8 1.864069793189313e-8 9.190586107916444e-9 1.2271397141129692e-8 1.4851979514189458e-9
          4.2286535581833885e-9 2.2529764949694423e-9 1.2454867910166388e-8 8.624150369492254e-9 6.691794358559847e-9 2.390007017799758e-9
          4.766707082512743e-10 3.562556760489371e-10 2.358406438465999e-10 3.319905718499885e-10 1.9309573628095872e-10 1.9505086050056304e-10
          1.1069947658330499e-10 5.420090071192886e-11 2.6348092666046913e-11 5.353962270810713e-11 3.7073437970641514e-11 2.0607253233175905e-11
          2.40049361545144e-9 2.8089511969413543e-8 2.3049909220289627e-8 1.134041698163973e-8 2.74209430096371e-9 2.2364905050545245e-9
          2.0836272138556666e-8 1.6971217572708142e-8 1.7150157897249254e-9 1.3822112432174959e-8 1.1227796407055514e-8 9.240490219898526e-10
          7.926560248798801e-9 5.012178732637314e-9 1.2672629415927372e-9 1.0764127436681976e-9 7.921684804849747e-9 6.4845597272475164e-9
          5.582003668463279e-10 3.801191078399537e-9 3.224545715067523e-9 5.689312578429352e-10 2.8961851122282617e-9 1.6506060745286455e-9
          2.2523512978720376e-10 2.676839741872683e-10 1.5269046384128294e-9 1.4404499862978753e-9 1.2638469556177024e-10 5.556125134963756e-10
          6.057371847406959e-10 2.731017661731939e-10 3.645930439191329e-8 5.604542042740855e-8 5.3100743994895956e-8 4.478330666856505e-8
          7.777230227874103e-8 4.7587338837606334e-8 5.494276642842452e-8 6.986525932089373e-8 2.3489351100463893e-8 5.5160732152517104e-8
          6.934336719339537e-8 7.225851426770435e-8 3.7745850671979915e-8 3.5237788863475835e-8 5.709380442306466e-8 5.3878315954253943e-8
          3.356150108294107e-8 5.784970266861204e-8 5.434494742667682e-8 2.8592814018057555e-8 4.487194593621795e-8 4.464033214065302e-8
          6.373735287426518e-8 7.178785216262683e-8 6.533507984638375e-8 7.34121502353844e-8 3.3934701907002284e-8 3.138999204869091e-8
          5.820071007223756e-8 5.439675276122062e-8 2.8693664477756484e-8 5.801325147783793e-8 5.3913659170386894e-8 2.483972343493765e-8
          4.4011817754199455e-8 4.287960351449874e-8 4.8462426321141806e-8 6.874973640498113e-8 5.904644931925127e-8 8.061190292380224e-8
          2.0499198416443296e-8 2.181533658828335e-8 3.222075217364248e-8 3.2854290387115574e-8 1.8958528818973597e-8 3.1326987242679604e-8
          1.654249585174323e-8 2.536043996029226e-8 2.629803499948441e-8 2.4213502388794764e-8 5.670599384569493e-8 5.813523448894755e-8
          4.1242497218046294e-8 1.720133430902759e-8 3.012213796335551e-8 1.5264250474998882e-8 2.8548734266184538e-8 1.3568503938559421e-8
          2.2813435868515807e-8 2.115232836630747e-8 5.933400558577938e-8 6.017503421193341e-8 4.0756174163404766e-8 3.0454380283561966e-8
          4.0743070332681526e-8 6.985753762907533e-9 3.3417937584032054e-8 6.699163520064921e-8 7.199165871141161e-8 2.5007253630683155e-10
          5.2959588465447376e-9 5.72797900937163e-9 4.824229784341874e-8 7.71635789981797e-9 3.3631770223740225e-8 8.442509154214387e-9
          2.1998606715534392e-8 7.756476393898068e-8 7.050781581513504e-8 1.2054555979709498e-10 9.611937481554344e-10 6.991894410313533e-10
          5.701984188381478e-8 7.323470778869326e-8 7.737178341460947e-8 4.992431772996768e-8 5.0789095720277914e-8 7.699973381683834e-8
          8.216854351770943e-8 5.507408166728657e-8 8.168000241048403e-8 8.60596779090244e-8 5.141898980489433e-8 5.173625775671081e-8
          8.773493526709278e-8 9.360250545155218e-8 5.7732902263917606e-8 2.7827505076554425e-8 2.5491440576919243e-8 5.7131687967059065e-8
          5.27540717111493e-8 2.184506204171928e-8 5.537373769859342e-8 5.07775750036178e-8 1.9662169869255084e-8 4.1162445418050915e-8
          3.8815100245844384e-8 5.182854237777922e-8 4.813954019339505e-8 4.8665388751833045e-8 5.982788215907142e-8 1.9718397234013292e-8
          1.7901723084306034e-8 5.2518272790878886e-8 4.7801514817239494e-8 1.3496391891090062e-8 3.57127867269896e-8 5.298590220260684e-8
          4.833948378275298e-8 5.962898189152083e-8 1.3186081613380374e-8 2.6599137800378485e-8 1.1018708316632548e-8 2.4290085295136155e-8
          1.0203199565534646e-8 1.9249840219894642e-8 1.713138240722572e-8 6.039109715267954e-8 5.985740378454216e-8 3.870926609306634e-8
          8.870461042573256e-9 2.158940561880055e-8 6.83318723756516e-9 1.4837994627222003e-8 5.8627564527001586e-8 3.4411861272588486e-8
          9.274190698494252e-9 9.519219899561984e-9 6.000590245819611e-9 1.0661262040063566e-8 4.9193164130987275e-8 3.911430653225248e-8
          2.866670510718073e-10 5.910141579702904e-10 7.91210177400279e-10 4.055985659770457e-8 2.127807484158663e-9 9.536077098116824e-9
          3.9126089448021264e-8 6.065574253730815e-10 1.1193205290391914e-9 1.1337984048405023e-8 7.655519195797529e-8 6.574935794699988e-8
          5.166145780883001e-8 5.100396399133509e-8 7.266658015183877e-8 4.9774055549640415e-8 5.9407256915187845e-8 6.692877807951203e-8
          4.951613736824652e-8 4.7026255466960706e-8 5.1493705769837845e-8 5.883588383604973e-8 2.3867050135986505e-8 2.734564821640261e-8
          2.2885958313990065e-8 2.6496407542747126e-8 1.7061310011344543e-8 1.8371293253738596e-8 1.7140565415929965e-8 3.082424629681872e-8
          3.010685677150419e-8 1.9681276496132653e-8 2.1705126780767272e-8 2.5419633350912698e-8 2.0311080847362918e-8 2.409271568055339e-8
          1.4460578100877221e-8 1.5772351930033133e-8 1.4299972394347751e-8 2.913413992105812e-8 2.787435051374387e-8 1.7084125759189046e-8
          1.8703478260664307e-8 2.248826538593512e-8 1.6898934267914268e-8 2.0606775916973885e-8 1.15063609270414e-8 1.2781887859727736e-8
          1.1322724101855804e-8 2.6273052511205936e-8 2.4314617566033503e-8 1.4057414792414075e-8 1.4919027103914804e-8 1.8475090065635912e-8
          1.2800874950061056e-8 1.6140840517449325e-8 8.67250896444416e-9 1.0054218445621572e-8 9.232912367781711e-9 2.2031153027357023e-8
          1.9480806084837588e-8 1.1435927926798983e-8 1.3593120490835465e-10 1.884456909792479e-9 1.695299034051796e-10 1.0647812230195426e-9
          1.5465107498234314e-10 1.0219563288469773e-9 7.386853627005277e-10 1.8667607296379428e-10 6.33872916062708e-10 1.8121863511773504e-10
          5.071908698577942e-10 1.2105217598537627e-10 5.228102573141769e-10 3.6106994239380824e-10 1.5358284875272432e-10 9.716268133915035e-11
          7.109498374639372e-11 4.6598473949880174e-11 1.0809534411916968e-10 3.362555733767817e-10 3.380860533111425e-10 2.3396286340261882e-11
          2.647015824954638e-10 2.597761805430109e-11 9.361877087747289e-11 7.869242336313335e-11 8.665013387968584e-11 6.259126728036833e-10
          5.680767625031153e-10 5.060068786506657e-10 1.6125992370064468e-10 1.5072937735318155e-11 2.144575208078008e-10 7.715517491866848e-12
          6.796999072697089e-11 4.138421038802835e-10 1.2822446396207495e-10 9.506665227134865e-9 8.571361163489266e-9 9.510639635544314e-9
          9.602167488511885e-9 9.514614043953763e-9 1.205358910671761e-8 1.2603427801999416e-8 1.2427237518261945e-8 1.30933466590852e-8
          1.2251047234524472e-8 1.384862970194812e-8 1.367936637688384e-8 1.4279962702806959e-8 1.3510103051819558e-8 1.509809345644469e-8
          1.4905104801623693e-8 1.5558118379040882e-8 1.4712116146802695e-8 1.4176350537965853e-8 1.2116266675778509e-8 1.1984334316238898e-8
          1.1852401956699284e-8 9.57537542542986e-9 9.526741924647422e-9 1.0671846663022646e-8 9.738814016865755e-9 1.236010377540621e-8
          1.2284876842277778e-8 1.2912078320786682e-8 1.288291631963449e-8 1.2209649909149346e-8 1.28537543184823e-8 8.924827497159947e-9
          1.0118055079650389e-8 9.375610868983148e-9 1.1350989155476969e-8 9.998943235995304e-9 1.0786998026941556e-8 9.998366862124077e-9
          1.1353699581953553e-8 1.1874827292715895e-8 1.1291336558425905e-8 5.217359528347346e-9 6.091057173516344e-9 5.408041781476772e-9
          5.496486777699453e-9 8.290882903657623e-9 7.875292282749112e-9 3.6613360462073313e-10 2.5777180320369196e-9 6.742046676392104e-10
          6.8436254757932175e-9 3.190827939569571e-9 4.495050241870652e-9 8.48446976666187e-10 3.4113096393442157e-9 8.27102606358495e-9
          8.574582817237212e-9 1.816533164269284e-10 5.251805110902315e-10 4.086977649210881e-10 5.569874045111539e-9 9.83200741609714e-9
          1.044391677851341e-8 1.0041382014458748e-8 1.0733825231718385e-8 9.665071596198975e-9 1.0100835530085266e-8 1.008439716679342e-8
          1.0980741835084501e-8 1.1441629758410787e-8 1.121923418204408e-8 1.1688113437502721e-8 1.0607784088215448e-8 1.1008432224105681e-8
          1.1147131805662254e-8 1.3539312807188489e-8 1.3486808588002177e-8 1.4192438179985897e-8 1.4118940193984244e-8 1.3434304368815867e-8
          1.4045442207982589e-8 7.346381441266802e-9 8.558922238458071e-9 7.74958998318116e-9 1.0656469044001482e-8 1.4866553560867614e-8
          1.478174090876771e-8 1.5569021346248694e-8 1.547896904072383e-8 1.4696928256667806e-8 1.537083853466119e-8 8.076957903841463e-9
          8.124647325887297e-9 8.511972809016318e-9 9.932638041144188e-9 1.2386338584300361e-8 1.2960188015914318e-8 1.2342931263207747e-8
          1.470306183782184e-8 1.407144154205806e-8 1.3602224218001856e-8 1.2512972168351106e-8 1.3698317694364668e-8 7.418759130110445e-10
          2.1847078056970635e-9 6.373714594382166e-10 8.557266630345647e-10 6.424802029372143e-9 4.201830145320676e-9 1.2992162531969647e-10
          3.1446806002022187e-10 2.562909243123713e-10 3.441464805570815e-9 5.593409848848413e-10 7.58459904555579e-10 5.087673323659151e-10
          6.771158549114999e-10 4.311103113216225e-9 2.822455422540204e-9 1.1793414219993653e-10 2.2673339331999758e-10 2.263303832310802e-10
          8.19567775483503e-10 1.0717042608611085e-8 1.0061489955236458e-8 1.2235244147963634e-8 1.2921255898355339e-8 9.05628930688466e-9
          7.156453481251113e-9 1.2127557032719522e-8 1.05875229947624e-8 9.551492016533925e-9 1.3657737430713833e-8 1.4418785310101943e-8
          7.557204125849004e-9 7.924620715746463e-9 1.3617157167062994e-8 1.6475671145131802e-8 1.6242968264112617e-8 1.696857685592431e-8
          1.559782185553175e-8 1.8009266169081856e-8 1.773427859925932e-8 1.854019351111144e-8 1.693725411215384e-8 1.4500008472275052e-8
          1.5092811573126e-8 1.3814638616580037e-8 1.5604836908387283e-8 1.6099354139909667e-8 1.479445662190367e-8 1.973776163337596e-8
          1.937734627135995e-8 2.022603368525217e-8 1.830721041318615e-8 2.1562916257359485e-8 2.1056053069247187e-8 1.9603455639293617e-8
          1.6598088389392202e-8 1.7074076998743227e-8 1.5598686861756043e-8 1.6327732433948855e-8 1.6233471610481307e-8 1.7162037325319475e-8
          1.7059394749769137e-8 1.5905725005596762e-8 1.6679407646873388e-8 8.837234309171824e-9 8.93374138375763e-9 9.394815929615748e-9
          9.037335763577217e-9 1.8071818560126903e-8 1.7956036391955447e-8 1.471669000179055e-8 1.675234714934039e-8 1.7519415581059532e-8
          1.8413567020920562e-8 9.775029032088754e-9 9.902136901961385e-9 8.298125817526408e-9 1.0065864062779473e-8 1.506400697408027e-8