<?xml version="1.0"?>
<VTKFile type="UnstructuredGrid" version="0.1" byte_order="LittleEndian" header_type="UInt32" compressor="vtkZLibDataCompressor">
  <UnstructuredGrid>
    <Piece NumberOfPoints="759" NumberOfCells="447">
      <PointData>
        <DataArray type="Int32" Name="libmesh_node_id" format="ascii" RangeMin="736" RangeMax="5829">
          736 737 743 894 896 897
          898 899 901 902 903 1073
          1074 1076 1077 1088 1089 1090
          1091 1492 1493 1494 1498 1502
          1503 1504 1505 1507 1508 1509
          1510 1511 1512 1513 1514 1515
          1516 1517 1518 1862 1863 1864
          1865 1866 1867 1868 1869 1870
          1871 1874 1877 1878 1879 1880
          1881 1882 1883 1884 1885 2510
          2514 2515 2521 2542 2546 2547
          2548 2551 2556 2557 2558 2561
          2584 2585 2588 2591 2592 2595
          2612 2614 2624 2626 2628 2630
          2631 2632 2633 2634 2635 2636
          2637 2638 2639 2640 2641 2642
          2643 2644 2645 2646 2647 2648
          2649 2650 2651 2652 2653 2654
          2655 2656 2657 2658 2659 2660
          2661 2662 2663 3009 3010 3011
          3012 3016 3017 3019 3020 3021
          3022 3026 3027 3065 3069 3073
          3075 3076 3077 3078 3079 3081
          3082 3086 3091 3092 3093 3095
          3096 3097 3098 3099 3100 3101
          3102 3103 3104 3105 3106 3107
          3108 3109 3110 3111 3112 3113
          3114 3115 3116 3117 3118 3119
          3120 3121 3122 3123 3185 3186
          3187 3188 3189 3192 3193 3195
          3196 3199 3202 3205 3206 3207
          3209 3210 3211 3212 3214 3216
          3217 3218 4936 4940 4941 4942
          4943 4944 4945 4946 4947 4948
          4949 4954 4955 4961 4968 4969
          4970 4971 4972 4973 4974 4978
          4982 4983 5104 5105 5106 5107
          5108 5109 5110 5114 5115 5118
          5119 5124 5125 5126 5127 5128
          5129 5130 5131 5132 5133 5134
          5135 5136 5137 5138 5139 5140
          5141 5142 5143 5158 5159 5160
          5161 5164 5165 5166 5167 5168
          5171 5192 5193 5194 5195 5196
          5197 5198 5201 5202 5203 5204
          5205 5206 5207 5208 5211 5228
          5229 5232 5235 5236 5239 5392
          5393 5396 5399 5400 5403 5420
          5421 5424 5427 5428 5431 5448
          5449 5452 5455 5456 5459 5476
          5477 5480 5483 5484 5487 5546
          5547 5548 5549 5550 5551 5552
          5553 5554 5555 5605 5606 5608
          5609 5617 5618 5619 5620 5621
          5622 5623 5632 5633 5634 5636
          5637 5645 5646 5647 5648 5649
          5650 5651 5652 5653 5654 5655
          5656 5657 5658 5659 5660 5661
          5662 5663 5664 5665 5666 5667
          5668 5669 5670 5671 5672 5673
          5674 5675 5676 5677 5678 5679
          5680 5681 5682 5683 5684 5685
          5686 5687 5688 5689 5690 5691
          5692 5693 5694 5695 5696 5697
          5698 5699 5700 5701 5702 5703
          5704 5705 5706 5707 5708 5709
          5710 5711 5712 5713 5714 5715
          5716 5717 5718 5719 5720 5721
          5722 5723 5724 5725 5726 5727
          5728 5729 5730 5731 5732 5733
          5734 5735 5736 5737 5738 5739
          5740 5741 5742 5743 5744 5745
          5746 5747 5748 5749 5750 5751
          5752 5753 5754 5755 5756 5757
          5758 5759 5760 5761 5762 5763
          5764 5765 5766 5767 5768 5769
          5770 5771 5772 5773 5774 5775
          5776 5777 5778 5779 5780 5781
          5782 5783 5784 5785 5786 5787
          5788 5789 5790 5791 5792 5793
          5794 5795 5796 5797 5798 5799
          5800 5801 5802 5803 5804 5805
          5806 5807 5808 5809 5810 5811
          5812 5813 5814 5815 5816 5817
          5818 5819 5820 5821 5822 5823
          5824 5825 5826 5827 5828 5829
          1070 1071 890 891 1465 1466
          1467 1470 1873 1875 1499 1501
          893 2606 2608 2610 2607 2609
          2611 2476 2602 3074 3066 2615
          3080 3071 2625 3090 3084 2629
          3094 3088 2430 2431 2432 3190
          3191 2435 3194 892 2438 1485
          2518 1473 1486 3197 3198 3200
          3201 3203 3204 3058 3059 3208
          3062 2472 2544 3213 3215 2552
          2554 4905 4906 4908 4907 4909
          4910 4911 4933 4934 4935 4937
          4938 4939 4453 4524 4525 4527
          2452 4950 4951 4530 2516 4952
          4953 2453 2517 4956 4957 4958
          4959 4960 4962 4963 4964 4965
          4967 4544 4545 4548 4975 4550
          4976 4977 2455 2522 4979 4980
          4981 4984 4985 4987 4986 2523
          4646 4647 4650 5111 4652 5112
          5113 2473 2543 5116 5117 5120
          5121 5122 5123 2545 4666 4667
          4670 4672 4684 5146 4696 5147
          4698 2478 5150 5162 4700 2549
          5163 1480 5153 5154 5157 5169
          2550 5170 5176 5177 5178 5181
          5199 2553 5200 5186 5187 5188
          5191 5209 2555 5210 5214 5226
          5227 5218 5230 5231 5233 5234
          5237 5238 5390 5391 5394 5395
          5397 5398 5401 5402 5418 5419
          5422 5423 5425 5426 5429 5430
          5446 5447 5450 5451 5453 5454
          5457 5458 5474 5475 5478 5479
          5481 5482 5485 5486 5527 5529
          5532 5531 5533 5534 5535 5530
          5538 5522 5539 5542 2613 5544
          5524 5597 5603 5599 5604 5607
          5601 2623 5611 5613 5615 5631
          5625 5627 5635 5629 2627 5639
          5641 5643 5528
        </DataArray>
        <DataArray type="Float64" Name="bounds" format="ascii" RangeMin="0" RangeMax="0">
          0 0 0 0 0 0
          0 0 0 0 0 0
          0 0 0 0 0 0
          0 0 0 0 0 0
          0 0 0 0 0 0
          0 0 0 0 0 0
          0 0 0 0 0 0
          0 0 0 0 0 0
          0 0 0 0 0 0
          0 0 0 0 0 0
          0 0 0 0 0 0
          0 0 0 0 0 0
          0 0 0 0 0 0
          0 0 0 0 0 0
          0 0 0 0 0 0
          0 0 0 0 0 0
          0 0 0 0 0 0
          0 0 0 0 0 0
          0 0 0 0 0 0
          0 0 0 0 0 0
          0 0 0 0 0 0
          0 0 0 0 0 0
          0 0 0 0 0 0
          0 0 0 0 0 0
          0 0 0 0 0 0
          0 0 0 0 0 0
          0 0 0 0 0 0
          0 0 0 0 0 0
          0 0 0 0 0 0
          0 0 0 0 0 0
          0 0 0 0 0 0
          0 0 0 0 0 0
          0 0 0 0 0 0
          0 0 0 0 0 0
          0 0 0 0 0 0
          0 0 0 0 0 0
          0 0 0 0 0 0
          0 0 0 0 0 0
          0 0 0 0 0 0
          0 0 0 0 0 0
          0 0 0 0 0 0
          0 0 0 0 0 0
          0 0 0 0 0 0
          0 0 0 0 0 0
          0 0 0 0 0 0
          0 0 0 0 0 0
          0 0 0 0 0 0
          0 0 0 0 0 0
          0 0 0 0 0 0
          0 0 0 0 0 0
          0 0 0 0 0 0
          0 0 0 0 0 0
          0 0 0 0 0 0
          0 0 0 0 0 0
          0 0 0 0 0 0
          0 0 0 0 0 0
          0 0 0 0 0 0
          0 0 0 0 0 0
          0 0 0 0 0 0
          0 0 0 0 0 0
          0 0 0 0 0 0
          0 0 0 0 0 0
          0 0 0 0 0 0
          0 0 0 0 0 0
          0 0 0 0 0 0
          0 0 0 0 0 0
          0 0 0 0 0 0
          0 0 0 0 0 0
          0 0 0 0 0 0
          0 0 0 0 0 0
          0 0 0 0 0 0
          0 0 0 0 0 0
          0 0 0 0 0 0
          0 0 0 0 0 0
          0 0 0 0 0 0
          0 0 0 0 0 0
          0 0 0 0 0 0
          0 0 0 0 0 0
          0 0 0 0 0 0
          0 0 0 0 0 0
          0 0 0 0 0 0
          0 0 0 0 0 0
          0 0 0 0 0 0
          0 0 0 0 0 0
          0 0 0 0 0 0
          0 0 0 0 0 0
          0 0 0 0 0 0
          0 0 0 0 0 0
          0 0 0 0 0 0
          0 0 0 0 0 0
          0 0 0 0 0 0
          0 0 0 0 0 0
          0 0 0 0 0 0
          0 0 0 0 0 0
          0 0 0 0 0 0
          0 0 0 0 0 0
          0 0 0 0 0 0
          0 0 0 0 0 0
          0 0 0 0 0 0
          0 0 0 0 0 0
          0 0 0 0 0 0
          0 0 0 0 0 0
          0 0 0 0 0 0
          0 0 0 0 0 0
          0 0 0 0 0 0
          0 0 0 0 0 0
          0 0 0 0 0 0
          0 0 0 0 0 0
          0 0 0 0 0 0
          0 0 0 0 0 0
          0 0 0 0 0 0
          0 0 0 0 0 0
          0 0 0 0 0 0
          0 0 0 0 0 0
          0 0 0 0 0 0
          0 0 0 0 0 0
          0 0 0 0 0 0
          0 0 0 0 0 0
          0 0 0 0 0 0
          0 0 0 0 0 0
          0 0 0 0 0 0
          0 0 0 0 0 0
          0 0 0 0 0 0
          0 0 0 0 0 0
          0 0 0 0 0 0
          0 0 0 0 0 0
          0 0 0
        </DataArray>
        <DataArray type="Float64" Name="gradient_error" format="ascii" RangeMin="2.855278035422848e-12" RangeMax="4.238243510199648e-9">
          2.1396281201131244e-11 6.500878760890049e-11 3.3475525484248163e-12 2.0219635290605266e-11 1.950022261335144e-11 1.350803215618288e-10
          8.406056963404064e-11 1.88104858795819e-11 1.914212694641221e-9 2.3895026781207135e-10 3.410808324178658e-11 2.0986481153671938e-11
          2.35547123225757e-11 1.0631629138350767e-10 2.6122943491479457e-11 1.1077035000351597e-10 7.952062045148175e-11 2.5067895108339325e-11
          1.532463648584661e-11 7.611832496052596e-11 2.0002232207605386e-10 5.485341459451597e-11 7.908721095790579e-10 6.998665080760064e-11
          1.8972642024851308e-10 7.805000648554097e-11 2.7787924232720915e-11 1.4389576243809676e-10 9.22278805462293e-11 5.44966539529535e-11
          3.141595554750301e-11 1.9426289839563795e-11 1.623627292449959e-11 2.2171085010275854e-11 1.3404889297010938e-11 8.97545072782804e-12
          4.56662064313948e-11 1.194045620917037e-11 1.1149807293542757e-11 5.7727266926753205e-11 4.71430858355123e-11 4.3734323719196844e-11
          3.530198371845175e-11 1.2923581557950873e-11 1.2400950712394211e-11 9.726408151326078e-12 3.0812918464920785e-11 5.177356076784358e-11
          1.4203472097395655e-11 7.609732213414903e-11 3.199755227218966e-10 8.79336134062571e-11 2.1258215277111034e-11 5.190547417424317e-11
          6.925193108194434e-12 1.4632284558816793e-11 1.7449498368651887e-11 2.6417004302547342e-11 8.029777561849465e-12 1.4068966954358258e-9
          3.107215088674244e-10 2.7697885276631686e-10 1.9645887347087073e-10 1.0874073937517861e-10 1.0820517795356014e-10 1.2193782018092152e-10
          6.656501462935287e-11 3.458979619903299e-10 2.9603553340191503e-11 3.444907335890254e-11 1.6767813995179568e-11 1.0829124325346977e-10
          9.194775452157487e-10 5.581387352096257e-10 1.2789542800032031e-9 3.1428035297202704e-10 1.6419104934148198e-10 4.520274277357394e-10
          5.429190768205737e-11 1.3108312854696558e-10 2.8971683737439385e-10 1.1961283444582927e-10 3.834244307758982e-10 1.2385411707217085e-10
          7.730472166562477e-11 6.641131800710832e-11 4.8669915641643123e-11 3.457828950188896e-11 2.854745781767805e-11 2.7145315841194094e-11
          7.694661221159551e-11 4.8771448067177443e-11 3.858584041842502e-11 3.394979591824387e-11 3.2439752810848195e-11 1.6655347696269328e-11
          1.6034322744349876e-11 1.4463014854152461e-11 3.2341245442802845e-11 1.6364726871341372e-11 3.225918851406102e-11 1.6061639635423325e-11
          2.631680261314468e-11 1.7691800954615091e-10 1.0179147426544889e-10 6.803371690926983e-11 3.7134156754434776e-11 2.374964400281492e-10
          1.3835838826218668e-10 8.251918561441314e-11 5.502363417449718e-11 2.787644523799233e-11 1.924572632709321e-11 9.517980045880416e-12
          7.559307916668672e-11 3.8651565001109956e-11 2.4035987152673493e-11 7.694697366045314e-11 9.632552398781804e-11 2.7247577821303982e-11
          3.010477444158634e-11 1.1570407431518294e-10 3.29619710618687e-11 8.025018176750519e-12 8.999592905698265e-12 2.8807404627662984e-12
          3.0058721979376356e-12 9.97416763464601e-12 3.1310039331089724e-12 8.133200597480637e-11 4.1596241974163665e-11 3.832743905682059e-11
          2.0229758280901053e-11 3.1438487946347356e-11 2.176137672834843e-11 2.4478209113405812e-11 1.4730506375543415e-11 6.269258202147389e-11
          3.261880804489969e-11 4.5564826958712324e-11 9.929768481641843e-11 4.109891654976001e-11 2.8537125179246213e-11 1.1585742320168273e-10
          4.4155258508183846e-11 1.0768609558822995e-11 1.663863630206449e-11 7.82065579461539e-12 1.1422227424983936e-11 7.399186807737417e-12
          8.671171811428649e-12 6.702876899736278e-12 3.455722301449125e-11 2.18592998756487e-11 1.250932228512758e-11 5.631012684613533e-11
          3.081234437611869e-11 1.673676676678285e-11 9.533812099876419e-12 6.601447070859416e-11 3.6347638466440565e-11 1.8398045778430424e-11
          1.3152469922095318e-11 1.6143417217923114e-11 6.6532187400895865e-12 8.100124043241534e-12 5.478866547849837e-12 5.362486457123733e-12
          2.855278035422848e-12 1.9134364513750907e-11 9.547029346393481e-12 5.2461063663976295e-12 4.624933615606168e-11 4.653248075910984e-11
          2.3129395794217887e-10 2.1152524416972894e-10 2.830020676141194e-11 4.253638637183274e-11 1.596916309803903e-10 1.7366181135358207e-11
          1.6090816886286786e-11 8.472654051356521e-12 1.2664456443370873e-11 3.3767018621745074e-11 9.6406255781168e-11 1.790509021341198e-11
          2.927688986198267e-11 6.518577999883444e-11 3.476914364932864e-11 9.250250502630287e-12 4.70610248679529e-12 7.9870407557342e-12
          1.756713748209019e-11 8.56673846979655e-12 1.7749682620547113e-9 2.7861541960956205e-10 2.679451517242157e-10 5.060525187871586e-10
          4.871916379532301e-10 1.9781761133246492e-10 3.837630864502201e-10 3.696125437605028e-10 2.3902321556747885e-10 4.351036413728664e-10
          3.3025551663350514e-10 1.5066085958466536e-10 1.4546383527704895e-10 1.3073166051565395e-10 1.990601623639492e-10 3.612276051546665e-10
          1.4854892966485496e-10 2.7414668386105465e-10 1.5496608952721596e-10 2.791246239234162e-10 2.1162275385751632e-10 1.0964011722030521e-10
          8.573185235305699e-11 1.581154674862848e-10 1.1351510250604665e-10 2.013479113410472e-10 8.502060012185787e-11 1.522754786898917e-10
          7.841802131818152e-11 1.3585998124800637e-10 1.0232225810582043e-10 6.26811986111541e-11 1.1348007645458406e-10 4.298013420323151e-11
          7.60151013099274e-11 5.237701033910584e-11 8.510886346489488e-11 3.852722113620509e-11 6.36147740967021e-11 4.236478143131995e-11
          6.352302395194085e-11 4.713481717239864e-11 1.9521122969104152e-10 1.4858625846491508e-10 1.296623136687333e-10 2.840114677528492e-11
          4.71375826118904e-11 2.0799086107071707e-11 3.4545395134847995e-11 2.2824442039036098e-11 3.4882110610888033e-11 2.5625256450066934e-11
          1.1143692000953197e-10 8.23671879399156e-11 7.342144333702501e-11 4.2355714572570115e-10 3.2782677001385624e-10 2.3120613119994534e-10
          1.7750338135249538e-10 4.43937629596963e-10 2.497118534695123e-10 1.8716991012894644e-10 1.3414991694991524e-10 9.984681885596797e-11
          2.652009649039129e-10 1.4779407544489825e-11 2.4830019443475723e-11 1.0339481351697164e-11 1.7584179530946143e-11 1.1881651222458324e-11
          1.8321790039308576e-11 1.2903236036514647e-11 3.925614147702114e-11 7.278630556791335e-12 1.2332363661158421e-11 5.183239485074826e-12
          8.553663340051677e-12 5.8310420016551574e-12 9.062361317845152e-12 6.350597675166901e-12 1.9794513033972813e-11 7.32291637841223e-11
          5.2894936858830543e-11 1.484038714302728e-10 3.7586133415393276e-11 2.629882336962366e-11 7.77191479377529e-11 7.657939398197743e-10
          6.058317570104807e-10 1.1476980256017436e-9 4.709982592877323e-10 3.5976547677357134e-10 7.231190711218001e-10 1.4604630833906049e-9
          1.1794232926454386e-9 1.5795021611564168e-9 9.343395451163614e-10 7.259283199698407e-10 1.0156730952424244e-9 2.699776548690993e-10
          1.9903107281405518e-10 4.227740889252466e-10 1.4414061434639252e-10 1.0254669086358168e-10 2.292934220945175e-10 5.531232241647924e-10
          4.1335432372299036e-10 6.038009171375367e-10 3.029880569699975e-10 2.1785672959745739e-10 3.31859540165084e-10 3.4173915124203865e-11
          4.6605085332410834e-11 2.5780591665106542e-11 3.544653040434379e-11 2.3320969637302848e-11 2.9830771383305765e-11 2.2534469114711242e-11
          7.63221017934936e-11 5.873834853864925e-11 4.651305381042282e-11 2.611791994193388e-10 2.0625075354407797e-10 6.61936169874237e-10
          3.6338347687827386e-10 1.1392585488658713e-10 8.854253317437472e-11 6.763774405373236e-11 5.1998046623825546e-11 1.5380581162629484e-10
          1.2043857490126822e-10 8.94744476106545e-11 8.2956503887835e-10 4.454411303900604e-10 3.572979152346007e-10 8.942617976254027e-10
          4.77030634147916e-10 1.8527432114196744e-10 1.4578538188824129e-10 1.0662611667605643e-10 8.274527281116051e-11 1.971807807581501e-10
          1.554144523889781e-10 1.1289329174673161e-10 7.984094013131595e-11 1.1835710118154083e-10 6.047326887081184e-11 9.01489207110684e-11
          4.0874818347198e-11 5.790486829410345e-11 4.3608033743668316e-11 2.1807051448923463e-10 1.6804853328363525e-10 1.0113058288285047e-10
          4.5001933700290645e-11 6.76736966706197e-11 3.3001321183598194e-11 5.000721465575804e-11 2.2738213219892007e-11 3.2141796256211654e-11
          2.724331060235744e-11 1.2777433193376512e-10 9.564219453473399e-11 5.757889188103251e-11 1.9437376830848374e-11 2.6815895584614993e-11
          1.4608769979719893e-11 2.0108233037355467e-11 1.3151541267623904e-11 1.7008937067467734e-11 1.2955076119949106e-11 4.481951459158995e-11
          3.382327536543113e-11 2.6976844058882888e-11 1.0991283672237019e-11 1.4890515481254165e-11 9.546605669378007e-12 1.264435055634138e-11
          7.850268123537664e-12 1.034848968063097e-11 9.459288834451979e-12 2.5154433903214895e-11 2.0700555866156372e-11 1.6135569184432703e-11
          2.3860394611925328e-11 3.633180498629502e-11 1.7025555118030367e-11 2.6024628142230514e-11 1.6425102494859937e-11 2.3665601177255762e-11
          1.678631984118993e-11 7.027664163502685e-11 5.0799240778548146e-11 3.675117438567458e-11 1.1912698183483768e-11 1.8361254920285366e-11
          8.234787245759988e-12 1.2782121038386339e-11 8.093748011843478e-12 1.1760808495712918e-11 8.150086422189233e-12 3.619732543393841e-11
          2.5413329489428624e-11 1.8588647624371198e-11 3.6206557126793593e-10 2.8240088114965193e-10 1.6092187592762722e-10 1.2386909995598247e-10
          5.297890669649844e-10 4.172523502907417e-10 2.2801283860321086e-10 2.169224983765847e-10 1.6396747520240008e-10 9.401508267290271e-11
          7.020283668736691e-11 3.23203660267551e-10 2.4616471197917783e-10 1.3522814696660685e-10 6.816217852321467e-11 5.188201202799717e-11
          3.970643545329421e-11 3.012860086475052e-11 9.333083799684638e-11 7.142254359286424e-11 5.302774296092503e-11 3.902401729105949e-11
          2.889923176261979e-11 2.286207701258316e-11 1.7255823509325527e-11 5.3923322735102884e-11 4.015178140834936e-11 3.005472144901575e-11
          6.685195531153713e-10 5.298268814931728e-10 2.827542644633969e-10 2.2051337120170958e-10 7.223243480899421e-10 5.736783306882202e-10
          3.0400035605093443e-10 4.127931664223074e-10 3.1608933467083405e-10 1.6937270048685117e-10 1.28071727623621e-10 4.4782080483610065e-10
          3.435129148465624e-10 1.827068679167604e-10 1.1346242476403166e-10 8.716455286911304e-11 6.364500095975917e-11 4.835010629210263e-11
          1.2114291573600165e-10 9.320918797262076e-11 6.756003165380249e-11 6.602511336125699e-11 4.929791948917892e-11 3.62157315747349e-11
          2.6758771950410724e-11 7.073249531826871e-11 5.291095360931651e-11 3.862174714546351e-11 1.2181442477830878e-10 8.897976858523058e-11
          5.152335620965355e-11 3.7256953080157854e-11 1.8433761961527184e-10 1.356968837723142e-10 7.54403142478493e-11 6.394998149635742e-11
          4.521615185075086e-11 2.656582654445366e-11 1.8663015566846125e-11 9.818002104205825e-11 6.981180849799425e-11 3.948879755404703e-11
          1.6698909483818268e-11 2.101136404458731e-11 1.1874132501756834e-11 1.504506314404152e-11 1.1166998827391766e-11 1.2638247386347188e-11
          8.97909659302175e-12 2.945234259119865e-11 2.127575135505252e-11 1.612816077322324e-11 8.37903714405933e-12 1.0646757288985128e-11
          5.832474980647802e-12 7.425727957747837e-12 5.561357435370468e-12 6.31660816283265e-12 4.382128869266844e-12 1.5134200618507454e-11
          1.060053621047317e-11 8.168748856554328e-12 2.3784704248576243e-10 1.758516334162319e-10 9.530721433629834e-11 6.978436610714837e-11
          2.588976273882098e-10 1.9169425606763092e-10 1.0310680094751911e-10 1.277355323375418e-10 9.11468806220611e-11 5.026289585654902e-11
          3.560141946211732e-11 1.3942614637289203e-10 9.960524380179088e-11 5.451081274714568e-11 3.6285148650787994e-11 2.631715985228386e-11
          1.95262957405927e-11 1.4065113160383593e-11 3.898943072453505e-11 2.8298810780788892e-11 2.090576588004153e-11 1.8788799039404977e-11
          1.3204939780089306e-11 9.97025633082828e-12 6.966340319940477e-12 2.022367427570597e-11 1.4227788074080142e-11 1.0674873838842732e-11
          1.0845438293131344e-10 1.0738533715741056e-10 1.707581428713809e-10 1.416821798472591e-10 1.4564339675031684e-10 1.2995122779707033e-10
          1.1199849500659758e-10 1.915091062808261e-10 5.365945487822445e-10 1.8944770178412874e-10 5.192387812974232e-10 1.8408166774533415e-10
          2.682222119623851e-10 3.9371789679351006e-10 2.218601105230105e-10 1.2603421557434302e-10 2.431192504608848e-10 1.3783933351841886e-10
          1.0406463127543197e-10 2.1169657308497612e-10 2.2039380191513911e-10 5.911056330685536e-11 1.1572011138722091e-10 1.271324406908224e-10
          1.1297448794487593e-10 2.003011892264732e-10 2.1076102237502212e-10 1.737265148975995e-10 2.9609778210807075e-10 2.515155001610705e-10
          2.0139774146233733e-10 3.417014025628306e-10 9.035349131314324e-11 1.9875485198442855e-10 2.7061299194135975e-10 1.3131189374190867e-10
          1.1832745248997017e-10 2.8637911790565924e-10 8.648851093096577e-11 3.476071757308528e-10 3.871805006610859e-10 1.7142162251189106e-10
          1.518578535396884e-10 3.493533923425444e-10 1.059910131012992e-10 6.83483302859643e-11 6.142507657977111e-11 3.3621598063245675e-11
          3.0203967010612784e-11 4.4577333415635466e-11 2.1865941802834058e-11 6.436435539614031e-11 1.768269750449923e-10 5.120157713661424e-11
          1.2182860529988401e-10 1.9661630185201474e-10 5.786503130240154e-11 2.6109990719891595e-11 1.2756143058742383e-11 2.940415031392086e-11
          1.4272294902249627e-11 2.1896097544580946e-9 1.8249186164021355e-9 9.517194501630178e-10 1.1638453348200186e-9 3.200861129691671e-9
          2.714506502400179e-9 1.69521940643156e-9 3.966265311884143e-9 3.399259708505394e-9 2.119206531710836e-9 4.238243510199648e-9
          3.644660049124998e-9 2.2785557158487143e-9 2.7631982076627547e-10 6.556133153416847e-10 6.312681513894186e-10 5.642221010726354e-10
          1.635670773965246e-9 1.3031905879163658e-9 1.2533812020989717e-9 1.574608409315553e-9 1.0203732722398969e-9 9.805642550675887e-10
          1.1150300860363521e-9 1.4044139070807201e-9 8.702738852199432e-10 2.874379631285315e-10 2.768379925891058e-10 1.061483538443087e-10
          2.1240102672035057e-10 2.045222538133024e-10 2.4729383596467375e-10 1.8257121424785507e-10 7.845133516444006e-10 7.534088295683193e-10
          6.673366205326329e-10 2.6296054714181125e-10 4.690175750730377e-10 3.630631830537064e-10 9.174660488152655e-10 1.1601728325131895e-9
          7.134557166560635e-10 6.983951020104936e-10 8.877982821125335e-10 5.405487016636266e-10 2.0512878997501543e-10 7.994927525731544e-11
          1.512719009731057e-10 1.1641037994885814e-10 5.453284394724177e-10 4.114972693316938e-10 4.096310625385504e-10 3.080706054594931e-10
          1.4990804910859874e-10 2.6276401449264797e-10 1.7806657261176934e-10 4.923311677677836e-10 6.297050651488993e-10 3.790352936745999e-10
          3.220362951070611e-10 4.1458336506866145e-10 2.465404880892117e-10 4.557409100294278e-11 8.335443701151873e-11 5.569925115085289e-11
          2.8724584964162967e-10 2.1423232413842797e-10 1.8592832554803635e-10 1.3808247078751924e-10 6.991769869843315e-11 1.1219710158754339e-10
          8.417665626738861e-11 2.5297863047828254e-10 9.059656777652952e-10 7.192955678747351e-10 5.389737540936645e-10 5.617356094954009e-10
          2.970392578859181e-10 1.8118047748696621e-9 1.474878336037235e-9 8.429254182876837e-10 1.0505751737985605e-9 1.1789384650502617e-9
          6.648744922241799e-10 5.609678941355868e-10 4.3133583690991075e-10 3.2559700584604177e-10 9.247550017261417e-10 5.153415711942128e-10
          7.115639357480003e-10 3.924309532368561e-10 2.2378642531955386e-11 4.023643465225829e-11 2.865564419182636e-11 1.00978530544028e-10
          5.999796936242325e-11 7.270079755197936e-11 4.306076157178013e-11 1.1076161115797424e-11 2.010526381502245e-11 1.3889650014781137e-11
          5.1521308571830125e-11 3.041193337552776e-11 3.590851644982244e-11 2.1124741348624708e-11 2.4159832881605166e-10 1.3806847944063976e-10
          1.0022114093049099e-10 5.370569494325569e-10 2.9356293595437634e-10 2.157342739253061e-10 7.156612583885568e-11 5.028722421195821e-11
          1.5575684271798304e-10 1.1048336409105123e-10 1.494655518437016e-9 1.2017986333188865e-9 2.2605763471577075e-9 1.8466124605430407e-9
          9.480443443421687e-10 7.334722332000837e-10 1.4783300138401834e-9 1.1592143046196233e-9 2.8604755383068072e-9 2.359932420564139e-9
          3.0777911312568673e-9 2.5476715523866918e-9 1.9069532222070277e-9 1.5082883613269037e-9 2.065075848398057e-9 1.638127821881702e-9
          5.564996115495493e-10 4.140963085626984e-10 8.901395241951638e-10 6.693988800728883e-10 3.0223636883527556e-10 2.1640715842500122e-10
          4.931065123113397e-10 3.559036270450817e-10 1.1672954899420176e-9 8.839287445263373e-10 1.271206934182948e-9 9.649334346092994e-10
          6.551201776505353e-10 4.753593080658286e-10 7.166808646051574e-10 5.210080036310895e-10 1.9709532480833892e-10 1.5348867032046985e-10
          7.58727907875435e-11 9.858881890422605e-11 3.526142375646219e-10 2.790896716215271e-10 1.6799466650743025e-10 7.06313765079262e-11
          4.5689193276888996e-11 1.2752982761617445e-10 6.138927255686527e-11 3.9787106773843466e-11 2.1374587580055058e-10 9.884301304735606e-11
          4.4091868972530714e-10 7.00419577257438e-10 5.694060535329214e-10 3.2777065412103314e-10 4.5727320806957256e-10 8.145245883700619e-10
          9.887476117904935e-10 4.510914467739438e-10 1.4582438274355563e-10 8.771897758387526e-11 1.9510312023420535e-10 1.013144437997227e-9
          1.2196919325253688e-9 5.491810302124105e-10 1.0894046500925208e-9 1.3078875034855993e-9 5.86767774621988e-10 2.3369472786696365e-10
          1.365908288053666e-10 2.482353064947573e-10 1.0434035391985391e-10
        </DataArray>
        <DataArray type="Float64" Name="gradient_matprop_error" format="ascii" RangeMin="0" RangeMax="0">
          0 0 0 0 0 0
          0 0 0 0 0 0
          0 0 0 0 0 0
          0 0 0 0 0 0
          0 0 0 0 0 0
          0 0 0 0 0 0
          0 0 0 0 0 0
          0 0 0 0 0 0
          0 0 0 0 0 0
          0 0 0 0 0 0
          0 0 0 0 0 0
          0 0 0 0 0 0
          0 0 0 0 0 0
          0 0 0 0 0 0
          0 0 0 0 0 0
          0 0 0 0 0 0
          0 0 0 0 0 0
          0 0 0 0 0 0
          0 0 0 0 0 0
          0 0 0 0 0 0
          0 0 0 0 0 0
          0 0 0 0 0 0
          0 0 0 0 0 0
          0 0 0 0 0 0
          0 0 0 0 0 0
          0 0 0 0 0 0
          0 0 0 0 0 0
          0 0 0 0 0 0
          0 0 0 0 0 0
          0 0 0 0 0 0
          0 0 0 0 0 0
          0 0 0 0 0 0
          0 0 0 0 0 0
          0 0 0 0 0 0
          0 0 0 0 0 0
          0 0 0 0 0 0
          0 0 0 0 0 0
          0 0 0 0 0 0
          0 0 0 0 0 0
          0 0 0 0 0 0
          0 0 0 0 0 0
          0 0 0 0 0 0
          0 0 0 0 0 0
          0 0 0 0 0 0
          0 0 0 0 0 0
          0 0 0 0 0 0
          0 0 0 0 0 0
          0 0 0 0 0 0
          0 0 0 0 0 0
          0 0 0 0 0 0
          0 0 0 0 0 0
          0 0 0 0 0 0
          0 0 0 0 0 0
          0 0 0 0 0 0
          0 0 0 0 0 0
          0 0 0 0 0 0
          0 0 0 0 0 0
          0 0 0 0 0 0
          0 0 0 0 0 0
          0 0 0 0 0 0
          0 0 0 0 0 0
          0 0 0 0 0 0
          0 0 0 0 0 0
          0 0 0 0 0 0
          0 0 0 0 0 0
          0 0 0 0 0 0
          0 0 0 0 0 0
          0 0 0 0 0 0
          0 0 0 0 0 0
          0 0 0 0 0 0
          0 0 0 0 0 0
          0 0 0 0 0 0
          0 0 0 0 0 0
          0 0 0 0 0 0
          0 0 0 0 0 0
          0 0 0 0 0 0
          0 0 0 0 0 0
          0 0 0 0 0 0
          0 0 0 0 0 0
          0 0 0 0 0 0
          0 0 0 0 0 0
          0 0 0 0 0 0
          0 0 0 0 0 0
          0 0 0 0 0 0
          0 0 0 0 0 0
          0 0 0 0 0 0
          0 0 0 0 0 0
          0 0 0 0 0 0
          0 0 0 0 0 0
          0 0 0 0 0 0
          0 0 0 0 0 0
          0 0 0 0 0 0
          0 0 0 0 0 0
          0 0 0 0 0 0
          0 0 0 0 0 0
          0 0 0 0 0 0
          0 0 0 0 0 0
          0 0 0 0 0 0
          0 0 0 0 0 0
          0 0 0 0 0 0
          0 0 0 0 0 0
          0 0 0 0 0 0
          0 0 0 0 0 0
          0 0 0 0 0 0
          0 0 0 0 0 0
          0 0 0 0 0 0
          0 0 0 0 0 0
          0 0 0 0 0 0
          0 0 0 0 0 0
          0 0 0 0 0 0
          0 0 0 0 0 0
          0 0 0 0 0 0
          0 0 0 0 0 0
          0 0 0 0 0 0
          0 0 0 0 0 0
          0 0 0 0 0 0
          0 0 0 0 0 0
          0 0 0 0 0 0
          0 0 0 0 0 0
          0 0 0 0 0 0
          0 0 0 0 0 0
          0 0 0 0 0 0
          0 0 0 0 0 0
          0 0 0 0 0 0
          0 0 0 0 0 0
          0 0 0 0 0 0
          0 0 0
        </DataArray>
        <DataArray type="Float64" Name="initial_marker" format="ascii" RangeMin="0" RangeMax="2">
          0 0 0 0 0 0
          0 0 2 2 0 0
          0 0 0 0 0 0
          0 0 2 2 2 0.25
          0 0 0 1 0 0
          0 0 0 0 0 0
          1 0.5 0 0 0 0
          0 0 0 0 0 0
          0 0 0 0 0 0
          0 0 0 0 0 2
          1 1 1 0.5 0 1.5
          1.5 2 0 1.25 1 2
          2 2 2 2 2 2