<?xml version="1.0"?>
<VTKFile type="UnstructuredGrid" version="0.1" byte_order="LittleEndian" header_type="UInt32" compressor="vtkZLibDataCompressor">
  <UnstructuredGrid>
    <Piece NumberOfPoints="388" NumberOfCells="219">
      <PointData>
        <DataArray type="Int32" Name="libmesh_node_id" format="ascii" RangeMin="192" RangeMax="2481">
          192 235 241 336 337 338
          341 344 347 348 349 353
          354 356 357 359 442 445
          451 458 463 468 481 487
          650 651 654 657 671 672
          674 677 695 696 699 701
          705 706 708 709 711 712
          713 714 715 716 731 732
          733 734 735 736 737 738
          739 740 751 752 753 754
          755 756 757 758 759 760
          1103 1109 1191 1192 1194 1197
          1207 1209 1211 1225 1226 1228
          1231 1241 1243 1245 1247 1248
          1249 1250 1255 1256 1257 1258
          1259 1260 1261 1265 1266 1267
          1316 1317 1318 1319 1320 1321
          1322 1323 1324 1325 1326 1327
          1328 1329 1330 1331 1332 1333
          1334 1335 1336 1337 1338 1339
          1340 1341 1342 1343 1344 1345
          1346 1347 1348 1349 1350 1351
          1352 1353 1354 1355 1356 1357
          1358 1359 1360 1361 1362 1363
          1364 1365 1366 1367 1368 1369
          1370 1371 1372 1373 1374 1375
          1376 1377 1378 1379 1380 1381
          1382 1383 1999 2013 2014 2016
          2019 2025 2107 2108 2110 2113
          2123 2125 2127 2141 2142 2144
          2147 2157 2159 2161 2278 2279
          2280 2281 2282 2283 2284 2285
          2286 2287 2288 2289 2290 2291
          2292 2293 2294 2295 2296 2297
          2298 2299 2300 2301 2302 2303
          2304 2305 2306 2307 2308 2309
          2310 2311 2312 2313 2314 2315
          2316 2317 2318 2319 2320 2321
          2322 2323 2324 2325 2326 2327
          2328 2329 2330 2331 2332 2333
          2334 2335 2336 2337 2338 2339
          2340 2341 2342 2343 2344 2345
          2346 2347 2348 2349 2350 2351
          2352 2353 2354 2355 2356 2357
          2358 2359 2360 2361 2362 2363
          2364 2365 2366 2367 2368 2369
          2370 2371 2372 2373 2374 2375
          2376 2377 2378 2379 2380 2381
          2382 2383 2384 2385 2386 2387
          2388 2389 2390 2391 2392 2393
          2394 2395 2396 2397 2398 2399
          2400 2401 2402 2403 2404 2405
          2406 2407 2408 2409 2410 2411
          2412 2413 2414 2415 2416 2417
          2418 2419 2420 2421 2422 2423
          2424 2425 2426 2427 2428 2429
          2430 2431 2432 2433 2434 2435
          2436 2437 2438 2439 2440 2441
          2442 2443 2444 2445 2446 2447
          2448 2449 2450 2451 2452 2453
          2454 2455 2456 2457 2458 2459
          2460 2461 2462 2463 2464 2465
          2466 2467 2468 2469 2470 2471
          2472 2473 2474 2475 2476 2477
          2478 2479 2480 2481
        </DataArray>
        <DataArray type="Float64" Name="bounds" format="ascii" RangeMin="0" RangeMax="0">
          0 0 0 0 0 0
          0 0 0 0 0 0
          0 0 0 0 0 0
          0 0 0 0 0 0
          0 0 0 0 0 0
          0 0 0 0 0 0
          0 0 0 0 0 0
          0 0 0 0 0 0
          0 0 0 0 0 0
          0 0 0 0 0 0
          0 0 0 0 0 0
          0 0 0 0 0 0
          0 0 0 0 0 0
          0 0 0 0 0 0
          0 0 0 0 0 0
          0 0 0 0 0 0
          0 0 0 0 0 0
          0 0 0 0 0 0
          0 0 0 0 0 0
          0 0 0 0 0 0
          0 0 0 0 0 0
          0 0 0 0 0 0
          0 0 0 0 0 0
          0 0 0 0 0 0
          0 0 0 0 0 0
          0 0 0 0 0 0
          0 0 0 0 0 0
          0 0 0 0 0 0
          0 0 0 0 0 0
          0 0 0 0 0 0
          0 0 0 0 0 0
          0 0 0 0 0 0
          0 0 0 0 0 0
          0 0 0 0 0 0
          0 0 0 0 0 0
          0 0 0 0 0 0
          0 0 0 0 0 0
          0 0 0 0 0 0
          0 0 0 0 0 0
          0 0 0 0 0 0
          0 0 0 0 0 0
          0 0 0 0 0 0
          0 0 0 0 0 0
          0 0 0 0 0 0
          0 0 0 0 0 0
          0 0 0 0 0 0
          0 0 0 0 0 0
          0 0 0 0 0 0
          0 0 0 0 0 0
          0 0 0 0 0 0
          0 0 0 0 0 0
          0 0 0 0 0 0
          0 0 0 0 0 0
          0 0 0 0 0 0
          0 0 0 0 0 0
          0 0 0 0 0 0
          0 0 0 0 0 0
          0 0 0 0 0 0
          0 0 0 0 0 0
          0 0 0 0 0 0
          0 0 0 0 0 0
          0 0 0 0 0 0
          0 0 0 0 0 0
          0 0 0 0 0 0
          0 0 0 0
        </DataArray>
        <DataArray type="Float64" Name="gradient_error" format="ascii" RangeMin="2.1628232128790375e-9" RangeMax="2.60670665518579e-7">
          1.7985320271818307e-8 5.000308520239123e-8 2.014702846388325e-8 5.58221065857975e-8 2.60670665518579e-7 1.472388741205441e-7
          5.6152909191658e-8 2.5811174509556147e-7 1.6925048312274624e-8 1.0666053189137493e-7 4.032781230801263e-8 1.935312830197105e-8
          1.69630705247376e-8 2.6319949867985624e-8 8.805709449074631e-8 5.302772342016182e-9 7.482953109731073e-9 6.551954729247497e-9
          6.609760668418283e-9 9.17218429373707e-9 2.5056898960307683e-9 2.2481396850331296e-9 2.1628232128790375e-9 2.8464041607796172e-9
          1.735507523363909e-7 1.371026181730485e-7 1.0065448400970614e-7 1.8849171234759355e-7 3.3985570268237956e-8 1.9371480520510545e-7
          1.8940728145279119e-7 1.797952762377132e-7 1.0335296974070256e-7 1.4294656787470512e-7 2.493393561071765e-8 1.825401660087077e-7
          1.1850995925297546e-7 9.157281171744089e-8 4.9369631806043543e-8 3.731885983543334e-8 6.463566418190632e-8 1.8636142958044302e-8
          2.002312191879506e-7 1.355534173496223e-7 6.766401089789551e-8 8.768822575704408e-8 4.9275907107658156e-8 1.9849417138630302e-7
          1.2613041888563379e-7 1.5464775324519529e-7 1.2856059040049613e-7 5.9472426789785976e-8 2.154167976872556e-8 2.0845286805389556e-7
          1.829048511449822e-7 1.8180896055033467e-7 6.368084725686101e-8 9.048943464859168e-8 1.805142368672778e-8 3.5559658131636397e-8
          1.4608696088885931e-8 1.3025158933948795e-8 6.311922959337563e-9 1.1729802204032236e-7 4.6584700118132006e-8 1.1441621779011658e-8
          1.6788996395500453e-7 7.239720065037182e-8 1.1319477443600023e-7 1.6196984053182093e-7 1.7459820560752132e-7 9.625678642713236e-8
          1.0515392976120585e-7 7.230876696677524e-8 1.735990812793175e-7 2.5985552666266522e-8 3.157604330231523e-8 1.6937759043160902e-7
          3.016233379248676e-8 2.2951162206079796e-7 1.5928533649897707e-7 2.4973574043500083e-7 1.8284168165357576e-7 1.610426723178356e-7
          1.464719560928611e-7 1.1071686129784591e-7 1.441369245552762e-7 1.2403526122891987e-7 7.121485517307694e-8 7.996385005614496e-8
          6.261546744442863e-8 5.159277025886309e-8 4.304087527526086e-8 4.0309135709183146e-8 2.254677751753308e-8 2.4624169208639905e-8
          1.1292583075844637e-7 1.6405078982738149e-7 1.0708441566981479e-7 1.58471631732764e-7 1.7273106830849223e-7 1.6340005442149895e-7
          4.1172419994819925e-8 1.0590663395978533e-7 1.1278640640125293e-7 2.0076305864625833e-7 9.42787095777782e-8 1.4318175291409807e-7
          1.4940188614183224e-7 1.566295244391171e-7 1.4549174808469e-7 1.2074999317744985e-7 5.582834964049378e-8 1.133894427972948e-7
          1.3939350475100542e-7 1.8312141114285142e-7 9.579053644646569e-8 8.311167676942572e-8 6.18810429646488e-8 5.014495859857303e-8
          1.6855128900193838e-7 1.5572683301787505e-7 1.0554595624254756e-7 6.793775769907057e-8 5.186717934102745e-8 3.820604203743603e-8
          2.0631655173110176e-8 1.3458994239977747e-7 1.0720981259786515e-7 7.028793082510096e-8 3.416836469560585e-8 4.161812914728251e-8
          4.309492213121144e-8 5.3030938629012676e-8 1.8293147327877766e-7 1.8889347258520489e-7 2.1685734365803435e-8 4.079706852642246e-8
          5.200720249630927e-8 1.9795614657916963e-7 5.119028175428873e-8 6.349331806576096e-8 5.7704178974521784e-8 6.944615889362068e-8
          1.8202508839775216e-7 1.591202874514394e-7 1.9711072901946914e-8 6.2559185835972e-8 7.08619822900243e-8 2.050088162246408e-7
          2.32330469938356e-7 2.2379646950391756e-7 1.4599877612482012e-7 1.260017673382557e-7 2.565239673213379e-7 2.507698562520734e-7
          1.6162685041858185e-7 2.0102356433342551e-7 1.653756091516167e-7 1.0111800167835345e-7 5.544690418557831e-8 2.2843362355625413e-7
          1.9027694851919904e-7 1.1344805657273712e-7 3.842394103878923e-8 3.824961662784153e-8 3.830212499130928e-8 3.8354633354777024e-8
          3.487494047886732e-8 4.070816757298369e-8 2.946994286079773e-8 3.065918355774001e-8 3.406976500979552e-8 2.7994354089561147e-8
          3.8917262834820844e-8 4.154341990473294e-8 3.608310216618692e-8 2.0682400117051273e-8 2.437522782161394e-8 3.062782088770061e-8
          2.2510542565680288e-8 3.4647110858134195e-8 3.610663546704377e-8 3.4254375480552536e-8 4.110644146841557e-8 4.058650660196714e-8
          4.242362207093165e-8 4.006657173551871e-8 4.450015515871772e-8 4.379697331474827e-8 4.4456027168150793e-8 4.309379147077882e-8
          4.062951057814016e-8 4.060860448614276e-8 4.313167417436304e-8 4.294723535237539e-8 4.058769839414535e-8 4.2762796530387724e-8
          3.736339036275252e-8 3.814280395016537e-8 4.182229130750694e-8 4.019654543828319e-8 4.558040845814061e-8 4.5146341442170626e-8
          4.7763908795910936e-8 4.7002230871545836e-8 4.471227442620065e-8 4.624055294718075e-8 4.5220445683149254e-8 4.572915641050793e-8
          4.965715838015284e-8 4.753611558840058e-8 4.38183293787589e-8 4.703005043525574e-8 4.489145751782465e-8 5.0143465243961186e-8
          5.288709664028275e-8 5.015431799845386e-8 4.51838460978052e-8 4.416349600880914e-8 4.3191268042023196e-8 4.3143145919813076e-8
          4.453149291550025e-8 4.25268189156931e-8 4.2420090224529324e-8 4.052214491588594e-8 4.9449100565675344e-8 4.825576062965341e-8
          5.021914718801371e-8 4.8516728569902755e-8 4.706242069363148e-8 4.681430995179179e-8 5.3012568027120236e-8 5.3259114916618316e-8
          5.582572475111835e-8 5.463968971904666e-8 4.96008765589637e-8 4.721960507054628e-8 4.8892875692480506e-8 4.6090057343616484e-8
          4.483833358212887e-8 4.328723899475247e-8 5.7163001597382093e-8 5.665375149787098e-8 5.919067385274895e-8 5.7446121441700715e-8
          5.487331657562294e-8 5.5612206329309365e-8 5.2838887606338696e-8 5.4818384724430644e-8 5.224477109040599e-8 4.958740792047888e-8
          3.3778896366283e-8 3.4993650948607335e-8 3.8457054883371933e-8 3.978648040883951e-8 3.817750745759541e-8 4.27473979834288e-8
          2.993111570418241e-8 3.237536428124351e-8 3.716772619907177e-8 3.634133787894509e-8 4.338630696496322e-8 4.4896761801828276e-8
          4.832093790619072e-8 5.008061785766866e-8 4.760575507725638e-8 5.251698907197884e-8 3.859477386539768e-8 4.2260375703333245e-8
          4.749355783922221e-8 4.725805287101599e-8 4.245410339268828e-8 4.6218122954841286e-8 4.4761597401117383e-8 4.805735587713206e-8
          4.03794283061724e-8 4.513497669884539e-8 4.289579371275924e-8 5.001752136356102e-8 5.357514561002034e-8 5.1230749211302606e-8
          5.3956610885229606e-8 5.016840099541751e-8 5.518272860581137e-8 5.174667379007184e-8 2.354974735475197e-8 2.8204560851906142e-8
          2.6099912747251014e-8 3.20959730012529e-8 3.566287140874545e-8 4.11836795924659e-8 2.0220854996064827e-8 2.5990789508527552e-8
          2.925572044084651e-8 3.525767634375277e-8 2.807026506200118e-8 3.579352972730045e-8 2.9716269058709252e-8 3.934444449714398e-8
          4.6957340924629084e-8 5.2744607577089864e-8 2.1943366714398438e-8 3.189722840016808e-8 3.4097126845816096e-8 4.647129156994932e-8
          3.940903297901233e-8 4.4746788829432134e-8 4.0351697489594065e-8 4.5218251729187264e-8 3.914908675229751e-8 4.4629819735600325e-8
          3.9543544838079776e-8 5.048536888130835e-8 5.6348969684030526e-8 5.057285030595826e-8 5.6181344149460064e-8 5.052551325494254e-8
          5.659567673619626e-8 4.995953345592415e-8 5.291745060886308e-8 5.4961780222074465e-8 5.7014432948812415e-8 5.91532071356767e-8
          5.7155452837050766e-8 6.101156078587816e-8 4.7395299372221344e-8 5.255847824093624e-8 5.7081534751870084e-8 5.8587982901682185e-8
          6.079305855913488e-8 6.263465821156205e-8 6.320246282948205e-8 6.459043357775552e-8 6.369138457426485e-8 6.467550765595378e-8
          5.46615281821031e-8 6.086511897004083e-8 6.351350100459858e-8 6.724640046457338e-8 5.657185239671238e-8 5.8574663880496865e-8
          5.583890895460908e-8 5.6418187511778405e-8 5.980699011249076e-8 6.356744909453865e-8 6.015967153126826e-8 5.912573634342028e-8
          5.777839333854749e-8 5.534496140230007e-8 5.218417569121639e-8 6.594767236469954e-8 6.640640204608428e-8 6.44712535582309e-8
          3.1024489982167724e-8 4.274301294282368e-8 3.1850835009069945e-8 4.589555525771514e-8 5.834428853712544e-8 6.356053646151268e-8
          2.0782501416923935e-8 3.6122425265184884e-8 3.8125194878589154e-8 5.735483010014299e-8 3.404875320376804e-8 4.95841481855946e-8
          3.924208527128897e-8 5.426716576568066e-8 6.800637087380109e-8 7.106035263870872e-8 2.0704824169262616e-8 4.131226308388915e-8
          4.67821981299036e-8 6.731078892861995e-8 6.191407422784843e-8 6.659326256025223e-8 6.160110728492563e-8 6.600572770383941e-8
          6.248455644851718e-8 6.75887483631115e-8 6.172180181019422e-8 6.982318823028386e-8 7.102048398208973e-8 6.875317788038672e-8
          6.921250894683435e-8 7.118411969357856e-8 7.25401794586999e-8 6.966636352843289e-8
        </DataArray>
        <DataArray type="Float64" Name="gradient_matprop_error" format="ascii" RangeMin="0" RangeMax="0">
          0 0 0 0 0 0
          0 0 0 0 0 0
          0 0 0 0 0 0
          0 0 0 0 0 0
          0 0 0 0 0 0
          0 0 0 0 0 0
          0 0 0 0 0 0
          0 0 0 0 0 0
          0 0 0 0 0 0
          0 0 0 0 0 0
          0 0 0 0 0 0
          0 0 0 0 0 0
          0 0 0 0 0 0
          0 0 0 0 0 0
          0 0 0 0 0 0
          0 0 0 0 0 0
          0 0 0 0 0 0
          0 0 0 0 0 0
          0 0 0 0 0 0
          0 0 0 0 0 0
          0 0 0 0 0 0
          0 0 0 0 0 0
          0 0 0 0 0 0
          0 0 0 0 0 0
          0 0 0 0 0 0
          0 0 0 0 0 0
          0 0 0 0 0 0
          0 0 0 0 0 0
          0 0 0 0 0 0
          0 0 0 0 0 0
          0 0 0 0 0 0
          0 0 0 0 0 0
          0 0 0 0 0 0
          0 0 0 0 0 0
          0 0 0 0 0 0
          0 0 0 0 0 0
          0 0 0 0 0 0
          0 0 0 0 0 0
          0 0 0 0 0 0
          0 0 0 0 0 0
          0 0 0 0 0 0
          0 0 0 0 0 0
          0 0 0 0 0 0
          0 0 0 0 0 0
          0 0 0 0 0 0
          0 0 0 0 0 0
          0 0 0 0 0 0
          0 0 0 0 0 0
          0 0 0 0 0 0
          0 0 0 0 0 0
          0 0 0 0 0 0
          0 0 0 0 0 0
          0 0 0 0 0 0
          0 0 0 0 0 0
          0 0 0 0 0 0
          0 0 0 0 0 0
          0 0 0 0 0 0
          0 0 0 0 0 0
          0 0 0 0 0 0
          0 0 0 0 0 0
          0 0 0 0 0 0
          0 0 0 0 0 0
          0 0 0 0 0 0
          0 0 0 0 0 0
          0 0 0 0
        </DataArray>
        <DataArray type="Float64" Name="initial_marker" format="ascii" RangeMin="0" RangeMax="2">
          2 0 0 0 2 1
          0 2 0 2 0.75 0
          0 2 2 0 0 0
          0 0 0 0 0 0
          1 1 1 2 2 2
          1.5 2 0 0.5 0 1
          1 1 0.5 0.5 1 0.3333333333333333
          2 2 2 1.3333333333333333 2 2
          2 2 1.5 1.5 2 2
          2 2 0 0.5 0 0.25
          0 0 0 1 0.5 0
          2 2 2 2 2 2
          2 2 2 2 2 2
          2 2 2 2 2 2
          2 2 2 2 2 2
          2 2 2 2 1.6666666666666667 2
          2 2 2 2 2 2
          2 2 2 2 2 2
          2 2 2 2 2 2
          2 2 2 2 2 2
          2 2 2 2 2 2
          1.3333333333333333 2 2 2 2 2
          2 2 2 2 2 2
          2 2 2 2 2 2
          2 2 2 2 2 2
          2 2 2 2 2 2
          2 2 2 2 2 2
          2 2 2 2 2 2
          2 2 2 2 2 2
          2 2 2 2 2 2
          2 2 2 2 2 2
          2 2 2 2 2 2
          2 2 2 2 2 2
          2 2 2 2 2 2
          2 2 2 2 2 2
          2 2 2 2 2 2
          2 2 2 2 2 2
          2 2 2 2 2 2
          2 2 2 2 2 2
          2 2 2 2 2 2
          2 2 2 2 2 2
          2 2 2 2 2 2
          2 2 2 2 2 2
          2 2 2 2 2 2
          2 2 2 2 2 2
          2 2 2 2 2 2
          2 2 2 2 2 2
          2 2 2 2 2 2
          2 2 2 2 2 2
          2 2 2 2 2 2
          2 2 2 2 2 2
          2 2 2 2 2 2
          2 2 2 2 2 2
          2 2 2 2 2 2
          2 2 2 2 2 2
          2 2 2 2 2 2
          2 2 2 2 2 2
          2 2 2 2 2 2
          2 2 2 2 2 2
          2 2 2 2 2 2
          2 2 2 2 2 2
          2 2 2 2 2 2
          2 2 2 2 2 2
          2 2 2 2 2 2
          2 2 2 2
        </DataArray>
        <DataArray type="Float64" Name="markers_norefine" format="ascii" RangeMin="0" RangeMax="2">
          2 0 0 0 0 0
          0 0 0 0 0 0
          0 2 0 0 0 0
          0 0 0 0 0 0
          0 0 0 0 2 0
          0 1 0 0 0 0
          0 0 0 0 0 0
          0 0 0 0 2 0
          1 0 0 0 2 1
          1 0 0 0 0 0
          0 0 0 0 0 0
          0 0 0 0 0 1.5
          0 0 0 2 2 1
          2 0 0 0 0 0
          0 0 0 0 0 0
          0 0 0 0 0 0
          0 0 0 0 0 0
          2 1.5 1.5 0 0 0
          0 0 0 0 2 1
          0.75 0 0 0 0 0
          0 0 0 0 0 0
          0 0 0 0 2 2
          2 2 1 1 2 2
          2 1 2 2 2 2
          1 0.5 2 2 2 1
          0 0 0 0 0 0
          0 0 0 0 0 0
          0 0 0 1 1 1
          2 1 2 2 2 2
          1.5 1 2 2 2 2
          2 2 2 2 0 0
          0 0 0 0 0 0
          1 1 1 1 1 1
          2 2 2 2 1 1
          1 1 1 1 2 2
          2 2 1 1 0 1
          1 0 0 0 0 0
          0 0 0 0 1 0.75
          1 0.5 0.5 0 2 1.75
          1.5 1.6666666666666667 0.5 0.25 0 0
          0 0 1.5 1.25 1.3333333333333333 1.3333333333333333
          1 1 0 1 0.5 0
          2 2 2 2 2 2
          2 2 2 2 2 2
          2 2 2 2 2 2
          2 2 1.5 1.5 1 1
          2 2 2 1.5 1.5 1
          1 2 2 2 2 2
          2 2 2 2 2 2
          2 2 2 2 2 2
          2 2 2 2 2 2
          2 2 2 2 2 2
          2 2 2 2 2 2
          2 2 2 2 2 2
          2 2 2 2 2 2
          2 2 2 2 2 1.75
          2 2 2 2 1.5 1.5
          1 1 2 2 2 1.25
          0.75 0.5 0 1.75 1.5 1.5
          2 2 2 2 2 2
          2 2 2 2 2 2
          2 2 2 2 2 2
          2 2 2 2 2 2
          2 2 2 2 2 2
          2 2 2 2
        </DataArray>
        <DataArray type="Float64" Name="markers_mustrefine" format="ascii" RangeMin="0" RangeMax="2">
          2 0 0 0 2 1
          0 2 0 2 0.75 0
          0 2 2 0 0 0
          0 0 0 0 0 0
          1 1 1 2 2 2
          1.5 2 0 0.5 0 1
          1 1 0.5 0.5 1 0.3333333333333333
          2 2 2 1.3333333333333333 2 2
          2 2 1.5 1.5 2 2
          2 2 0 0.5 0 0.25
          0 0 0 1 0.5 0
          2 2 2 2 2 2
          2 2 2 2 2 2
          2 2 2 2 2 2
          2 2 2 2 2 2
          2 2 2 2 1.6666666666666667 2
          2 2 2 2 2 2
          2 2 2 2 2 2
          2 2 2 2 2 2
          2 2 2 2 2 2
          2 2 2 2 2 2
          1.3333333333333333 2 2 2 2 2
          2 2 2 2 2 2
          2 2 2 2 2 2
          2 2 2 2 2 2
          2 2 2 2 2 2
          2 2 2 2 2 2
          2 2 2 2 2 2
          2 2 2 2 2 2
          2 2 2 2 2 2
          2 2 2 2 2 2
          2 2 2 2 2 2
          2 2 2 2 2 2
          2 2 2 2 2 2
          2 2 2 2 2 2
          2 2 2 2 2 2
          2 2 2 2 2 2
          2 2 2 2 2 2
          2 2 2 2 2 2
          2 2 2 2 2 2
          2 2 2 2 2 2
          2 2 2 2 2 2
          2 2 2 2 2 2
          2 2 2 2 2 2
          2 2 2 2 2 2
          2 2 2 2 2 2
          2 2 2 2 2 2
          2 2 2 2 2 2
          2 2 2 2 2 2
          2 2 2 2 2 2
          2 2 2 2 2 2
          2 2 2 2 2 2
          2 2 2 2 2 2
          2 2 2 2 2 2
          2 2 2 2 2 2
          2 2 2 2 2 2
          2 2 2 2 2 2
          2 2 2 2 2 2
          2 2 2 2 2 2
          2 2 2 2 2 2
          2 2 2 2 2 2
          2 2 2 2 2 2
          2 2 2 2 2 2
          2 2 2 2 2 2
          2 2 2 2
        </DataArray>
        <DataArray type="Float64" Name="gradient_marker" format="ascii" RangeMin="0" RangeMax="1">
          0 1 0.5 0.75 1 0.75
          0.75 1 0.875 0.5 0.25 1
          0.875 0 0.25 0.75 1 1
          1 1 1 1 1 1
          0.5 0.5 0.5 0.75 0 0.75
          0.75 0.5 0.5 0.5 0 0.5
          0.5 0.375 0.5 0.375 0.25 0.5
          1 0.5 0.125 0.3333333333333333 0 0.75
          0.25 0.625 0.375 0.125 0 0.5
          0.5 1 0.25 0.375 0.5 0.375
          0 0 0.5 0.5 0.5 0
          1 0 0.5 0.75 0.75 0.25
          0.25 0 0.75 0 0 0.5
          0 1 1 1 1 1
          0.75 0.5 1 0.5 0.16666666666666666 0
          0 0 0 0 0 0
          0.5 0.75 0.5 0.625 0.75 0.625
          0 0.25 0.25 0.75 0.5 0.5
          0.5 0.5 0.5 0.375 0 0.25
          0.375 0.75 0.25 0.25 0 0
          0.625 0.5 0.25 0.25 0.125 0
          0 0.5 0.375 0 0 0
          0 0 0.5 0.5 0 0
          0 0.5 0 0 0 0
          0.5 0.5 0 0 0 0.5
          0.875 0.75 0.75 0.5 1 1
          1 0.625 0.5 0.25 0 0.75
          0.5 0.5 0 0 0 0
          0 0 0 0 0 0
          0 0 0 0 0 0
          0 0 0 0 0 0
          0 0 0 0 0 0
          0 0 0 0 0 0
          0 0 0 0 0 0
          0 0 0 0 0 0
          0 0 0 0 0 0
          0 0 0 0 0 0
          0 0 0 0 0 0
          0 0 0 0 0 0
          0 0 0 0 0 0
          0 0 0 0 0 0
          0 0 0 0 0 0
          0 0 0 0 0 0
          0 0 0 0 0 0
          0 0 0 0 0 0
          0 0 0 0 0 0
          0 0 0 0 0 0
          0 0 0 0 0 0
          0 0 0 0 0 0
          0 0 0 0 0 0
          0 0 0 0 0 0
          0 0 0 0 0 0
          0 0 0 0 0 0
          0 0 0 0 0 0
          0 0 0 0 0 0
          0 0 0 0 0 0
          0 0 0 0 0 0
          0 0 0 0 0 0
          0 0 0 0 0 0
          0 0 0 0 0 0
          0 0 0 0 0 0
          0 0 0 0 0 0
          0 0 0 0 0 0
          0 0 0 0 0 0
          0 0 0 0
        </DataArray>
        <DataArray type="Float64" Name="gradient_matprop_marker" format="ascii" RangeMin="0" RangeMax="0">
          0 0 0 0 0 0
          0 0 0 0 0 0
          0 0 0 0 0 0
          0 0 0 0 0 0
          0 0 0 0 0 0
          0 0 0 0 0 0
          0 0 0 0 0 0
          0 0 0 0 0 0
          0 0 0 0 0 0
          0 0 0 0 0 0
          0 0 0 0 0 0
          0 0 0 0 0 0
          0 0 0 0 0 0
          0 0 0 0 0 0
          0 0 0 0 0 0
          0 0 0 0 0 0
          0 0 0 0 0 0
          0 0 0 0 0 0
          0 0 0 0 0 0
          0 0 0 0 0 0
          0 0 0 0 0 0
          0 0 0 0 0 0
          0 0 0 0 0 0
          0 0 0 0 0 0
          0 0 0 0 0 0
          0 0 0 0 0 0
          0 0 0 0 0 0
          0 0 0 0 0 0
          0 0 0 0 0 0
          0 0 0 0 0 0
          0 0 0 0 0 0
          0 0 0 0 0 0
          0 0 0 0 0 0
          0 0 0 0 0 0
          0 0 0 0 0 0
          0 0 0 0 0 0
          0 0 0 0 0 0
          0 0 0 0 0 0
          0 0 0 0 0 0
          0 0 0 0 0 0
          0 0 0 0 0 0
          0 0 0 0 0 0
          0 0 0 0 0 0
          0 0 0 0 0 0
          0 0 0 0 0 0
          0 0 0 0 0 0
          0 0 0 0 0 0
          0 0 0 0 0 0
          0 0 0 0 0 0
          0 0 0 0 0 0
          0 0 0 0 0 0
          0 0 0 0 0 0
          0 0 0 0 0 0
          0 0 0 0 0 0
          0 0 0 0 0 0
          0 0 0 0 0 0
          0 0 0 0 0 0
          0 0 0 0 0 0
          0 0 0 0 0 0
          0 0 0 0 0 0
          0 0 0 0 0 0
          0 0 0 0 0 0
          0 0 0 0 0 0
          0 0 0 0 0 0
          0 0 0 0
        </DataArray>
        <DataArray type="Float64" Name="combo" format="ascii" RangeMin="0" RangeMax="2">
          2 1 0.5 0.75 1 0.75
          0.75 1 0.875 0.5 0.25 1
          0.875 2 0.25 0.75 1 1
          1 1 1 1 1 1
          0.5 0.5 0.5 0.75 2 0.75
          0.75 1.5 0.5 0.5 0 0.5
          0.5 0.375 0.5 0.375 0.25 0.5
          1 0.5 0.125 0.3333333333333333 2 0.75
          1.25 0.625 0.375 0.125 2 1.5
          1.5 1 0.25 0.375 0.5 0.375
          0 0 0.5 0.5 0.5 0
          1 0 0.5 0.75 0.75 1.75
          0.25 0 0.75 2 2 1.5
          2 1 1 1 1 1
          0.75 0.5 1 0.5 0.16666666666666666 0
          0 0 0 0 0 0
          0.5 0.75 0.5 0.625 0.75 0.625
          2 1.75 1.75 0.75 0.5 0.5
          0.5 0.5 0.5 0.375 2 1.25
          1.125 0.75 0.25 0.25 0 0
          0.625 0.5 0.25 0.25 0.125 0
          0 0.5 0.375 0 2 2
          2 2 1.5 1.5 2 2
          2 1.5 2 2 2 2
          1.5 1 2 2 2 1.5
          0.875 0.75 0.75 0.5 1 1
          1 0.625 0.5 0.25 0 0.75
          0.5 0.5 0 1 1 1
          2 1 2 2 2 2
          1.5 1 2 2 2 2
          2 2 2 2 0 0
          0 0 0 0 0 0
          1 1 1 1 1 1
          2 2 2 2 1 1
          1 1 1 1 2 2
          2 2 1 1 0 1
          1 0 0 0 0 0
          0 0 0 0 1 0.75
          1 0.5 0.5 0 2 1.75
          1.5 1.6666666666666667 0.5 0.25 0 0
          0 0 1.5 1.25 1.3333333333333333 1.3333333333333333
          1 1 0 1 0.5 0
          2 2 2 2 2 2
          2 2 2 2 2 2
          2 2 2 2 2 2
          2 2 1.5 1.5 1 1
          2 2 2 1.5 1.5 1
          1 2 2 2 2 2
          2 2 2 2 2 2
          2 2 2 2 2 2
          2 2 2 2 2 2
          2 2 2 2 2 2
          2 2 2 2 2 2
          2 2 2 2 2 2
          2 2 2 2 2 2
          2 2 2 2 2 1.75
          2 2 2 2 1.5 1.5
          1 1 2 2 2 1.25
          0.75 0.5 0 1.75 1.5 1.5
          2 2 2 2 2 2
          2 2 2 2 2 2
          2 2 2 2 2 2
          2 2 2 2 2 2
          2 2 2 2 2 2
          2 2 2 2
        </DataArray>
        <DataArray type="Float64" Name="dHdT" format="ascii" RangeMin="25.810152946376842" RangeMax="59.82934323996711">
          46.28951722261092 25.84437519915449 25.887289215595516 25.86851407336333 30.959007251362213 26.762323882813114
          25.879005986218445 30.783632640188777 25.829835641575404 28.3790464685492 26.10692979577559 25.825812602873906
          25.83341937280289 46.32447499128082 27.64859155908501 25.830513930206457 25.811007464636486 25.810152946376842
          25.81413756177441 25.816370592436584 25.811527374262614 25.811360530381737 25.812639855867555 25.813222851984925
          26.82712839052969 26.572010480813383 26.31689257109708 29.255518637653605 55.94778113339301 40.32803037233832
          29.17949997346804 52.75752224797164 26.34027504168674 26.604274263207998 25.945435361721884 26.868273484729258
          26.43754080388054 26.278895618524505 26.10204547289934 26.025110723204712 26.12025043316847 25.913783939613598
          29.90131407647963 28.135984642231303 27.093922230071826 26.559586516249254 52.25342711160045 37.92487757891833
          47.86084221731615 33.558249852102506 27.927036087270796 26.888946059799654 46.3242364685945 48.120012216196166
          42.9952457076532 29.376188135605343 26.125597777343028 26.27725881813569 25.91461772656976 26.020043003202687
          25.882280149771013 25.882038337508604 25.846666487018197 26.42891985892835 26.090355200341463 25.881796525246195
          33.42340824547178 28.73210817764413 36.172408447148584 36.061288890466145 34.13329266624744 52.63936804186637
          30.299106286051703 28.693055993336806 33.69867970772012 46.22264930425468 49.84707026900563 49.715340514082996
          46.1805678147349 37.508509293206544 33.111584089741015 39.48576356543215 33.56609857188228 32.70372720881926
          31.782961526220436 30.44899971664453 31.614773774824513 30.620806630147193 28.370507897175795 28.65343662474264
          28.16415350047021 27.63249687061509 27.27166341340761 27.15263040608793 26.51805456198592 26.625227048160454
          36.33259409884698 35.43489684361312 35.15715214090639 34.49849037877127 33.28595347149612 32.220739743549075
          54.05648186996818 50.76450535390166 48.691128879605095 39.432321120367874 34.16913062173014 33.46771126784889
          33.559019776378875 32.436437914125115 31.170054887875217 29.868998459847276 51.03783249599891 46.664550557145674
          42.89599381393913 35.750961115998074 29.621838721666773 28.932832164887998 28.105993718197546 27.563918096891623
          32.836964838366455 31.881256756002106 30.172702236532757 28.217467220610743 27.499618292529654 27.083065001030143
          26.46827092969333 30.716416771406276 29.417744047670332 28.237250064766233 46.27411820865031 49.22021285111306
          46.29647727185243 49.06946475095722 47.82620600836499 45.820472100232294 46.317069005260606 46.230179232813796
          46.24662770131465 50.5830550047875 46.29626635459398 49.58248399305377 46.60115707152955 50.211419830286125
          43.595385392799926 40.40699608597268 46.32461660706288 47.87508552334182 48.165272027225946 45.54779382137668
          36.505822389456796 35.16078090789101 32.18091791258285 30.97288538238201 38.417239045044006 36.79221576293871
          32.95675537508767 33.51459447666777 31.592856348726325 29.587837894556614 27.687766888986715 34.87865944565653
          32.6188215978357 30.242078613480594 37.78380031234835 47.47729855601926 46.34687124407617 45.21644393213309
          56.42389849323612 52.70751016361463 50.654019800802374 52.01592472861932 55.48704254227643 46.172559994994714
          54.89890725224327 52.20155907636995 55.54845819188522 46.28140055827797 46.26495160075581 46.81814338836811
          46.278777858092596 53.60856368673484 59.82934323996711 53.210515330571155 38.94504849443142 38.153363455479514
          38.202065996334696 37.36167841652761 38.396609961127695 37.783959239289864 37.24876251185567 37.17130851745204
          47.45104587674125 46.44908162776739 47.04065016777083 46.13659612443376 45.44711737879353 45.23254208109671
          55.00821053059863 55.42616954159078 54.397978239057224 55.77896075109902 46.16884312189195 45.34960550443679
          45.209477711767235 44.30251361030703 44.53036788698163 43.39554950884683 53.13340314226444 53.38016280429613
          52.343231163743035 53.57455364101134 51.943531077385444 51.125860310236405 48.23843700663963 50.26969943668122
          48.73887647656967 47.06958288298402 37.08141337550836 36.8641315853454 36.50153904704432 36.64684979518243