<?xml version="1.0"?>
<VTKFile type="UnstructuredGrid" version="0.1" byte_order="LittleEndian" header_type="UInt32" compressor="vtkZLibDataCompressor">
  <UnstructuredGrid>
    <Piece NumberOfPoints="399" NumberOfCells="219">
      <PointData>
        <DataArray type="Int32" Name="libmesh_node_id" format="ascii" RangeMin="245" RangeMax="3351">
          245 351 352 721 722 723
          726 729 771 772 773 774
          778 779 781 782 784 785
          786 791 1286 1287 1288 1291
          1294 1308 1309 1312 1314 1396
          1397 1399 1412 1414 1476 1477
          1478 1479 1480 1481 1482 1483
          1484 1485 1486 1487 1488 1489
          1490 1491 1492 1493 1494 1495
          1496 1497 1498 1499 1500 1501
          1502 1503 1507 1508 1510 1511
          1513 1514 1515 1516 1517 1518
          1519 1520 1534 1535 1536 1537
          1540 1541 1542 1690 1691 1697
          1698 1703 1705 1706 1707 1708
          1709 1710 1711 1740 1741 2214
          2215 2216 2219 2222 2236 2237
          2240 2242 2276 2545 2546 2547
          2548 2549 2550 2551 2552 2553
          2554 2562 2563 2564 2565 2566
          2567 2568 2579 2580 2581 2582
          2583 2584 2596 2597 2598 2599
          2654 2655 2657 2658 2659 2673
          2674 2677 2679 2688 2689 2999
          3000 3001 3002 3003 3004 3005
          3006 3007 3008 3009 3010 3011
          3012 3013 3014 3015 3016 3017
          3018 3019 3020 3021 3022 3023
          3024 3025 3026 3027 3028 3029
          3030 3031 3032 3033 3034 3035
          3036 3037 3038 3039 3040 3041
          3042 3043 3044 3045 3046 3047
          3048 3049 3050 3051 3052 3053
          3054 3055 3056 3057 3058 3059
          3060 3061 3062 3063 3064 3065
          3066 3067 3068 3069 3070 3071
          3072 3073 3074 3075 3076 3077
          3078 3079 3080 3081 3082 3083
          3084 3085 3086 3087 3088 3089
          3090 3091 3092 3093 3094 3095
          3096 3097 3098 3099 3100 3101
          3102 3103 3104 3105 3106 3107
          3108 3109 3110 3111 3112 3113
          3114 3115 3116 3117 3118 3119
          3120 3121 3122 3123 3124 3125
          3126 3127 3128 3143 3144 3145
          3146 3147 3148 3149 3150 3151
          3152 3163 3164 3165 3166 3167
          3168 3169 3170 3171 3172 3183
          3184 3185 3186 3187 3188 3189
          3197 3198 3199 3200 3201 3202
          3203 3204 3205 3206 3207 3208
          3209 3210 3211 3212 3213 3214
          3215 3216 3217 3218 3219 3220
          3221 3222 3223 3224 3225 3226
          3227 3228 3231 3232 3234 3235
          3285 3286 3287 3288 3289 3290
          3291 3292 3293 3294 3295 3296
          3297 3298 3299 3300 3301 3302
          3303 3304 3305 3306 3309 3310
          3312 3313 3316 3317 3319 3320
          3321 3322 3323 3324 3325 3326
          3327 3328 3329 3330 3331 3332
          3333 3334 3335 3336 3337 3338
          3339 3340 3343 3344 3346 3347
          3350 3351 350 1643 984 1644
          985 999 763
        </DataArray>
        <DataArray type="Float64" Name="bounds" format="ascii" RangeMin="0" RangeMax="0">
          0 0 0 0 0 0
          0 0 0 0 0 0
          0 0 0 0 0 0
          0 0 0 0 0 0
          0 0 0 0 0 0
          0 0 0 0 0 0
          0 0 0 0 0 0
          0 0 0 0 0 0
          0 0 0 0 0 0
          0 0 0 0 0 0
          0 0 0 0 0 0
          0 0 0 0 0 0
          0 0 0 0 0 0
          0 0 0 0 0 0
          0 0 0 0 0 0
          0 0 0 0 0 0
          0 0 0 0 0 0
          0 0 0 0 0 0
          0 0 0 0 0 0
          0 0 0 0 0 0
          0 0 0 0 0 0
          0 0 0 0 0 0
          0 0 0 0 0 0
          0 0 0 0 0 0
          0 0 0 0 0 0
          0 0 0 0 0 0
          0 0 0 0 0 0
          0 0 0 0 0 0
          0 0 0 0 0 0
          0 0 0 0 0 0
          0 0 0 0 0 0
          0 0 0 0 0 0
          0 0 0 0 0 0
          0 0 0 0 0 0
          0 0 0 0 0 0
          0 0 0 0 0 0
          0 0 0 0 0 0
          0 0 0 0 0 0
          0 0 0 0 0 0
          0 0 0 0 0 0
          0 0 0 0 0 0
          0 0 0 0 0 0
          0 0 0 0 0 0
          0 0 0 0 0 0
          0 0 0 0 0 0
          0 0 0 0 0 0
          0 0 0 0 0 0
          0 0 0 0 0 0
          0 0 0 0 0 0
          0 0 0 0 0 0
          0 0 0 0 0 0
          0 0 0 0 0 0
          0 0 0 0 0 0
          0 0 0 0 0 0
          0 0 0 0 0 0
          0 0 0 0 0 0
          0 0 0 0 0 0
          0 0 0 0 0 0
          0 0 0 0 0 0
          0 0 0 0 0 0
          0 0 0 0 0 0
          0 0 0 0 0 0
          0 0 0 0 0 0
          0 0 0 0 0 0
          0 0 0 0 0 0
          0 0 0 0 0 0
          0 0 0
        </DataArray>
        <DataArray type="Float64" Name="gradient_error" format="ascii" RangeMin="1.4365745396532007e-11" RangeMax="1.8544007935909096e-8">
          9.087174854513757e-10 6.566302950303968e-10 4.277318124644422e-10 8.535429407091254e-10 6.581615280912611e-10 5.262616356756304e-10
          6.218801695732871e-10 2.7060355283036403e-10 2.317281325720004e-10 1.9478036897691344e-10 1.371896663328411e-10 1.125119393570268e-10
          1.3978823750997272e-10 1.245942803532812e-10 9.001515612178992e-11 5.082315502878775e-11 1.0391424029017741e-10 1.5533415960910211e-9
          3.961144860569936e-10 4.1897268683595065e-9 2.874742706267074e-10 2.250995018903797e-10 1.955619750024558e-10 1.6839616119073385e-10
          5.040187015226099e-10 1.3277493020821344e-10 1.7739434325955335e-10 1.8620963354507158e-10 1.7138296182715567e-10 3.8864580766991994e-9
          2.840811086897545e-9 1.1335254510150436e-9 3.1070497778416515e-10 2.4638590402012213e-10 1.2270884655248313e-10 1.0821946890959938e-10
          8.45282453101445e-11 7.307844826626567e-11 3.868233414152082e-11 5.360223304525109e-11 4.6309309534768015e-11 7.386633688663699e-11
          1.015092034922533e-10 4.6134238731243356e-11 2.3253339767536013e-10 1.7842647629173857e-10 7.123679493792266e-11 1.3102294967772347e-10
          1.4004726879193411e-9 1.0141748412849304e-9 4.06959473481033e-10 2.9616272517940553e-10 4.024038141653825e-10 1.2093411008057998e-10
          5.249074991207028e-9 3.81226763154882e-9 1.1087216457583899e-9 1.349041998333976e-9 4.8020843923796595e-11 3.9667692962837777e-11
          9.773468614935422e-11 7.227711491647379e-11 2.7785415542798113e-11 3.4516859401323706e-11 3.604146461053726e-10 2.582898780677736e-10
          9.726208252208493e-11 1.1456665848366367e-10 1.2335287898351394e-10 5.793676933724571e-11 6.706324700522463e-11 8.829334817555551e-11
          1.0595226924640072e-10 8.232274564101107e-11 1.048413985905339e-8 8.19943514929988e-9 3.3367648785946216e-9 2.4633814470495364e-9
          1.2516232171724178e-8 1.0390464469452877e-8 3.1893724279453214e-9 2.0661956589809114e-10 2.7419461281488324e-10 4.2014839335473244e-11
          3.607752769984096e-11 2.39172347953524e-11 4.920633259082653e-11 1.0346504261830515e-10 2.46916181591587e-11 4.178301943357576e-11
          4.441008267509467e-11 6.550468030010776e-11 3.0372738510542335e-11 7.448403045459184e-11 1.0213728803482745e-10 1.20123624969014e-10
          2.4220481987226886e-10 2.2848317503131455e-10 1.9291588045770094e-10 6.142174256470586e-10 8.438700070823292e-11 1.4613342367571483e-10
          1.130684670184661e-10 3.6640894358587367e-10 1.696304296387944e-10 2.6156925199794455e-9 2.4323944457556146e-9 1.6756732945622227e-9
          1.5557276190160576e-9 1.956890724893345e-9 1.2462376033696436e-9 5.943746294209454e-9 5.517170791357006e-9 3.5971480982631386e-9
          4.38978952172605e-9 1.3745878740393336e-9 8.710951822582645e-10 8.622290117350136e-10 5.431342863135408e-10 2.9910199621384696e-9
          1.9171877470458644e-9 1.7849490729769473e-9 1.1635042156059638e-8 1.086324180774007e-8 7.843093372333721e-9 7.283710568875799e-9
          8.701749966082106e-9 5.758394574156116e-9 5.869358572219054e-9 3.82359916231135e-9 3.388478210704549e-9 2.175303329361961e-9
          4.967669019177856e-10 3.101786581147586e-10 1.66071971550943e-10 9.706310197658988e-10 6.115050505647619e-10 6.200890550532804e-11
          8.585899455087445e-11 5.91598908494325e-11 1.5060134315010809e-10 1.7548788657312337e-9 1.113303034520589e-9 7.701825998866459e-11
          7.303724977850611e-11 1.4685305985881844e-10 1.3852476947985632e-10 4.4021601747473987e-11 8.607804304500637e-11 8.125925078896689e-11
          6.296688508685029e-11 1.1689830691161522e-10 6.858697546911699e-11 3.989353944031535e-10 3.7303541052759214e-10 2.1749957209465036e-10
          3.058449911896174e-10 2.777423701056229e-11 2.632193508676161e-11 4.8004526667858076e-11 4.5323600972123874e-11 2.0218486301922023e-11
          3.360215133064755e-11 3.173633986304774e-11 2.258245886879844e-11 3.834684963683668e-11 2.6862384686765267e-11 1.2994979838882835e-10
          1.2164428051529898e-10 7.878527019878254e-11 1.0002317845065011e-10 5.248211476119608e-11 8.82874415340369e-11 3.181760432400716e-11
          5.214110549056427e-11 4.808669891703923e-11 7.297474834573762e-11 4.3548718575821987e-11 2.2084161093003163e-10 1.287472742817926e-10
          1.6908036758093772e-10 1.877549599251957e-11 2.9454491231691474e-11 1.4365745396532007e-11 2.1214562219104377e-11 1.7255707410403186e-11
          2.4857958466099262e-11 1.8574883460126135e-11 7.249245170610164e-11 4.737604510680024e-11 5.564271286045577e-11 1.0229669390658714e-9
          9.490111631265492e-10 5.956853022303341e-10 5.525839796530826e-10 7.588484922467956e-10 4.419803495684276e-10 2.3996540885232207e-9
          2.216543572253343e-9 1.2923268695004558e-9 1.7423858861351902e-9 3.318037678415673e-10 3.0800107432414753e-10 1.7635664876121707e-10
          1.6391642441767324e-10 2.46895737808313e-10 1.318840198242924e-10 7.744602462533203e-10 7.145834438117695e-10 3.757758737775734e-10
          5.612983150783504e-10 5.290306871491081e-10 3.081796584184577e-10 3.284708239862361e-10 1.914649978729317e-10 1.1705211235768673e-9
          6.812605244839133e-10 6.899290257484273e-10 1.7276468832042402e-10 9.295208130491989e-11 1.0779835236977836e-10 5.853353399599587e-11
          3.785245757044348e-10 2.0125453828483248e-10 2.2512928403063934e-10 4.945329015216627e-9 4.574251570577534e-9 2.921951985046963e-9
          2.694982233200999e-9 3.5823896671678337e-9 2.0979996647051916e-9 8.690832798967286e-9 8.105525497326502e-9 4.868067261571647e-9
          6.42564160772688e-9 1.6219141465084073e-9 1.493588053430678e-9 8.4943052477608e-10 7.818930574424571e-10 1.160013831161741e-9
          6.078018181276793e-10 2.9521724263664524e-9 2.726960111100347e-9 1.4314862658717247e-9 2.1190856150934644e-9 2.3548873884785556e-9
          1.3730325931100092e-9 1.329909479634123e-9 7.751606896918626e-10 4.206580796534383e-9 2.4684196726229277e-9 2.311061078157087e-9
          7.599076247550029e-10 4.0046179506027966e-10 4.31457827610115e-10 2.2988410321629536e-10 1.366279710622832e-9 7.162279654377691e-10
          7.486162881504858e-10 5.170718115240458e-11 4.842346416786121e-11 8.896582023266754e-11 8.283684217335078e-11 2.3538778629161738e-11
          4.308327461372043e-11 4.020513147322185e-11 3.979908846660242e-11 6.702415781189412e-11 3.281453992815429e-11 2.03922615523925e-10
          1.8858609841795301e-10 9.058089707035756e-11 1.4941766711122094e-10 2.9248129639737326e-11 4.779208673057301e-11 1.4696856597496276e-11
          2.3606036713296863e-11 1.942814397297382e-11 3.042528300725629e-11 1.7647688070477654e-11 1.0272400149690238e-10 5.0220332011138375e-11
          6.253729340031149e-11 4.215851381449407e-10 3.8830918746678924e-10 1.9925654398634484e-10 1.8381171939358114e-10 3.029700261832269e-10
          1.4428826181440256e-10 7.69100060352441e-10 7.081417662748052e-10 3.319766377482804e-10 5.487974298487601e-10 2.0167771175113552e-10
          9.73476554985569e-11 1.1762021434479138e-10 5.7672642264106045e-11 3.570842111369879e-10 1.7006145287056217e-10 2.0043270418766878e-10
          1.2091043863354245e-10 1.872922010959323e-10 7.059879978300028e-11 1.0926358845586262e-10 6.736603550473916e-11 9.962275175259961e-11
          6.753511474983394e-11 3.721154732665888e-10 2.1778943349639647e-10 1.8826138185228096e-10 3.987753847096178e-11 6.14200519129424e-11
          2.2095407353113857e-11 3.359640894093846e-11 2.938155666590161e-11 4.3179680917277974e-11 2.3738072925269543e-11 1.223872523879214e-10
          6.627669786082202e-11 7.239529064348555e-11 3.5898596488368155e-11 5.048630059428537e-11 2.674203641514398e-11 3.710151055874457e-11
          2.5902228757248446e-11 3.4789628894615835e-11 2.6554588751493794e-11 9.061907089555367e-11 6.115897818456384e-11 5.879180398968707e-11
          6.784146773001393e-10 3.969305205907314e-10 1.1269208346157886e-9 6.583901463362782e-10 2.230908003126373e-10 1.2019698858426985e-10
          1.2856539290214845e-8 1.2186438671866464e-8 8.018283324931502e-9 7.522271892775102e-9 9.938493985010223e-9 6.0038023511779956e-9
          1.6194935435266084e-8 1.569799953489316e-8 9.995563589710421e-9 1.3309276689546448e-8 4.6039045718331e-9 4.2877420104512845e-9
          2.451498490537317e-9 2.271674297602174e-9 3.3723883446126828e-9 1.770864934391971e-9 6.168183282559265e-9 5.8127459044708506e-9
          3.1185001743663226e-9 4.661860826930948e-9 6.585283075445567e-9 3.901848052705132e-9 9.011497556062768e-9 5.395424985346783e-9
          2.1679428904515894e-9 1.134879728414203e-9 3.014551522022865e-9 1.5797102002374992e-9 1.8023182510752463e-8 1.784645242195445e-8
          1.2025512188497305e-8 1.1647996146105421e-8 1.5674172213386648e-8 9.806135706042542e-9 1.8544007935909096e-8 1.853011191423001e-8
          1.220725081754532e-8 1.651234009516311e-8 7.229912043036263e-9 6.890161234126301e-9 3.966273442049371e-9 3.73743181774374e-9
          5.6297981772824465e-9 2.9918553821303993e-9 7.593772367628097e-9 7.271442531725776e-9 3.961755757794758e-9 5.987767551028417e-9
          1.0829628488991651e-8 6.537035489046831e-9 1.150286987422854e-8 6.96495127974715e-9 3.669649844322194e-9 1.9261997713689234e-9
          3.916967062056817e-9 2.0575689662370873e-9 6.693638063245387e-10 1.0082021985481122e-10 4.0753003453561283e-10 1.3121314506517674e-10
          6.183505382809134e-10 1.408593546442874e-10 6.439436768069714e-10
        </DataArray>
        <DataArray type="Float64" Name="gradient_matprop_error" format="ascii" RangeMin="0" RangeMax="0">
          0 0 0 0 0 0
          0 0 0 0 0 0
          0 0 0 0 0 0
          0 0 0 0 0 0
          0 0 0 0 0 0
          0 0 0 0 0 0
          0 0 0 0 0 0
          0 0 0 0 0 0
          0 0 0 0 0 0
          0 0 0 0 0 0
          0 0 0 0 0 0
          0 0 0 0 0 0
          0 0 0 0 0 0
          0 0 0 0 0 0
          0 0 0 0 0 0
          0 0 0 0 0 0
          0 0 0 0 0 0
          0 0 0 0 0 0
          0 0 0 0 0 0
          0 0 0 0 0 0
          0 0 0 0 0 0
          0 0 0 0 0 0
          0 0 0 0 0 0
          0 0 0 0 0 0
          0 0 0 0 0 0
          0 0 0 0 0 0
          0 0 0 0 0 0
          0 0 0 0 0 0
          0 0 0 0 0 0
          0 0 0 0 0 0
          0 0 0 0 0 0
          0 0 0 0 0 0
          0 0 0 0 0 0
          0 0 0 0 0 0
          0 0 0 0 0 0
          0 0 0 0 0 0
          0 0 0 0 0 0
          0 0 0 0 0 0
          0 0 0 0 0 0
          0 0 0 0 0 0
          0 0 0 0 0 0
          0 0 0 0 0 0
          0 0 0 0 0 0
          0 0 0 0 0 0
          0 0 0 0 0 0
          0 0 0 0 0 0
          0 0 0 0 0 0
          0 0 0 0 0 0
          0 0 0 0 0 0
          0 0 0 0 0 0
          0 0 0 0 0 0
          0 0 0 0 0 0
          0 0 0 0 0 0
          0 0 0 0 0 0
          0 0 0 0 0 0
          0 0 0 0 0 0
          0 0 0 0 0 0
          0 0 0 0 0 0
          0 0 0 0 0 0
          0 0 0 0 0 0
          0 0 0 0 0 0
          0 0 0 0 0 0
          0 0 0 0 0 0
          0 0 0 0 0 0
          0 0 0 0 0 0
          0 0 0 0 0 0
          0 0 0
        </DataArray>
        <DataArray type="Float64" Name="initial_marker" format="ascii" RangeMin="0" RangeMax="2">
          0 2 0 0 0 0
          0 1.75 0 0 0 0
          0 0 1.5 0.5 0 2
          2 2 0 1 0.75 0
          2 0 0 0 0.5 2
          2 2 2 0 0 0
          0 0 0 0 0 0
          0 0 2 2 1.25 1.25
          2 2 2 2 2 2
          2 2 2 2 0.5 0.5
          2 2 0 1.25 2 2
          2 0 1.5 0 0.5 0
          0 0 2 2 2 2
          2 2 2 0 0 0
          0 0 0 0 0 0
          0 0 0 0 0 2
          2 2 1.75 2 0.5 1.25
          1 2 1.6666666666666667 2 2 2
          2 2 2 2 2 2
          2 2 2 2 2 2
          2 2 2 2 2 2
          2 2 2 2 2 2
          2 2 1.5 2 2 0
          0.5 0 1 2 2 1
          1 1.5 1.5 0 1 1
          0.5 1.25 1 2 2 2
          2 0 0 1 1 0
          1 1 0 0.75 0.5 2
          2 2 1.75 0 1 0
          0.75 0 1 0.5 2 1.75
          2 0 0.25 0 0 0
          0 0 1.25 1.3333333333333333 1 2
          2 2 2 2 2 2
          2 2 2 2 2 2
          2 2 2 2 2 2
          2 2 2 2 2 2
          2 2 2 2 1.75 1.5
          2 2 2 2 2 2
          2 2 2 2 2 2
          2 2 2 2 2 2
          2 2 2 2 2 2
          2 2 2 2 2 2
          2 2 2 2 2 2
          2 2 2 2 2 1
          1.5 1.5 2 2 1.5 2
          2 2 2 1.5 1.75 0.5
          1 0.5 1 0.3333333333333333 2 1.75
          1.75 2 2 2 2 2
          2 2 2 2 2 2
          2 2 2 2 2 2
          1.5 1.75 1 1.5 0.5 1
          0.6666666666666666 2 2 1.75 0.5 1
          0 0.5 0 0.5 0 1.75
          1.5 1.3333333333333333 0 0.25 0 0
          0 0 0 0.75 0.6666666666666666 0
          2 2 2 2 2 2
          2 2 2 2 2 2
          2 2 2 2 2 2
          2 2 2 2 2 2
          2 2 2 2 2 2
          2 2 2 2 2 2
          2 2 2 2 2 2
          2 2 2 2 2 2
          2 2 2 2 2 2
          2 2 2 2 2 2
          2 2 0 0 0 0
          0 0 0
        </DataArray>
        <DataArray type="Float64" Name="markers_norefine" format="ascii" RangeMin="0" RangeMax="0">
          0 0 0 0 0 0
          0 0 0 0 0 0
          0 0 0 0 0 0
          0 0 0 0 0 0
          0 0 0 0 0 0
          0 0 0 0 0 0
          0 0 0 0 0 0
          0 0 0 0 0 0
          0 0 0 0 0 0
          0 0 0 0 0 0
          0 0 0 0 0 0
          0 0 0 0 0 0
          0 0 0 0 0 0
          0 0 0 0 0 0
          0 0 0 0 0 0
          0 0 0 0 0 0
          0 0 0 0 0 0
          0 0 0 0 0 0
          0 0 0 0 0 0
          0 0 0 0 0 0
          0 0 0 0 0 0
          0 0 0 0 0 0
          0 0 0 0 0 0
          0 0 0 0 0 0
          0 0 0 0 0 0
          0 0 0 0 0 0
          0 0 0 0 0 0
          0 0 0 0 0 0
          0 0 0 0 0 0
          0 0 0 0 0 0
          0 0 0 0 0 0
          0 0 0 0 0 0
          0 0 0 0 0 0
          0 0 0 0 0 0
          0 0 0 0 0 0
          0 0 0 0 0 0
          0 0 0 0 0 0
          0 0 0 0 0 0
          0 0 0 0 0 0
          0 0 0 0 0 0
          0 0 0 0 0 0
          0 0 0 0 0 0
          0 0 0 0 0 0
          0 0 0 0 0 0
          0 0 0 0 0 0
          0 0 0 0 0 0
          0 0 0 0 0 0
          0 0 0 0 0 0
          0 0 0 0 0 0
          0 0 0 0 0 0
          0 0 0 0 0 0
          0 0 0 0 0 0
          0 0 0 0 0 0
          0 0 0 0 0 0
          0 0 0 0 0 0
          0 0 0 0 0 0
          0 0 0 0 0 0
          0 0 0 0 0 0
          0 0 0 0 0 0
          0 0 0 0 0 0
          0 0 0 0 0 0
          0 0 0 0 0 0
          0 0 0 0 0 0
          0 0 0 0 0 0
          0 0 0 0 0 0
          0 0 0 0 0 0
          0 0 0
        </DataArray>
        <DataArray type="Float64" Name="markers_mustrefine" format="ascii" RangeMin="0" RangeMax="2">
          0 2 0 0 0 0
          0 1.75 0 0 0 0
          0 0 1.5 0.5 0 2
          2 2 0 1 0.75 0
          2 0 0 0 0.5 2
          2 2 2 0 0 0
          0 0 0 0 0 0
          0 0 2 2 1.25 1.25
          2 2 2 2 2 2
          2 2 2 2 0.5 0.5
          2 2 0 1.25 2 2
          2 0 1.5 0 0.5 0
          0 0 2 2 2 2
          2 2 2 0 0 0
          0 0 0 0 0 0
          0 0 0 0 0 2
          2 2 1.75 2 0.5 1.25
          1 2 1.6666666666666667 2 2 2
          2 2 2 2 2 2
          2 2 2 2 2 2
          2 2 2 2 2 2
          2 2 2 2 2 2
          2 2 1.5 2 2 0
          0.5 0 1 2 2 1
          1 1.5 1.5 0 1 1
          0.5 1.25 1 2 2 2
          2 0 0 1 1 0
          1 1 0 0.75 0.5 2
          2 2 1.75 0 1 0
          0.75 0 1 0.5 2 1.75
          2 0 0.25 0 0 0
          0 0 1.25 1.3333333333333333 1 2
          2 2 2 2 2 2
          2 2 2 2 2 2
          2 2 2 2 2 2
          2 2 2 2 2 2
          2 2 2 2 1.75 1.5
          2 2 2 2 2 2
          2 2 2 2 2 2
          2 2 2 2 2 2
          2 2 2 2 2 2
          2 2 2 2 2 2
          2 2 2 2 2 2
          2 2 2 2 2 1
          1.5 1.5 2 2 1.5 2
          2 2 2 1.5 1.75 0.5
          1 0.5 1 0.3333333333333333 2 1.75
          1.75 2 2 2 2 2
          2 2 2 2 2 2
          2 2 2 2 2 2
          1.5 1.75 1 1.5 0.5 1
          0.6666666666666666 2 2 1.75 0.5 1
          0 0.5 0 0.5 0 1.75
          1.5 1.3333333333333333 0 0.25 0 0
          0 0 0 0.75 0.6666666666666666 0
          2 2 2 2 2 2
          2 2 2 2 2 2
          2 2 2 2 2 2
          2 2 2 2 2 2
          2 2 2 2 2 2
          2 2 2 2 2 2
          2 2 2 2 2 2
          2 2 2 2 2 2
          2 2 2 2 2 2
          2 2 2 2 2 2
          2 2 0 0 0 0
          0 0 0
        </DataArray>
        <DataArray type="Float64" Name="gradient_marker" format="ascii" RangeMin="1" RangeMax="1">
          1 1 1 1 1 1
          1 1 1 1 1 1
          1 1 1 1 1 1
          1 1 1 1 1 1
          1 1 1 1 1 1
          1 1 1 1 1 1
          1 1 1 1 1 1
          1 1 1 1 1 1
          1 1 1 1 1 1
          1 1 1 1 1 1
          1 1 1 1 1 1
          1 1 1 1 1 1
          1 1 1 1 1 1
          1 1 1 1 1 1
          1 1 1 1 1 1
          1 1 1 1 1 1
          1 1 1 1 1 1
          1 1 1 1 1 1
          1 1 1 1 1 1
          1 1 1 1 1 1
          1 1 1 1 1 1
          1 1 1 1 1 1
          1 1 1 1 1 1
          1 1 1 1 1 1
          1 1 1 1 1 1
          1 1 1 1 1 1
          1 1 1 1 1 1
          1 1 1 1 1 1
          1 1 1 1 1 1
          1 1 1 1 1 1
          1 1 1 1 1 1
          1 1 1 1 1 1
          1 1 1 1 1 1
          1 1 1 1 1 1
          1 1 1 1 1 1
          1 1 1 1 1 1
          1 1 1 1 1 1
          1 1 1 1 1 1
          1 1 1 1 1 1
          1 1 1 1 1 1
          1 1 1 1 1 1
          1 1 1 1 1 1
          1 1 1 1 1 1
          1 1 1 1 1 1
          1 1 1 1 1 1
          1 1 1 1 1 1
          1 1 1 1 1 1
          1 1 1 1 1 1
          1 1 1 1 1 1
          1 1 1 1 1 1
          1 1 1 1 1 1
          1 1 1 1 1 1
          1 1 1 1 1 1
          1 1 1 1 1 1
          1 1 1 1 1 1
          1 1 1 1 1 1
          1 1 1 1 1 1
          1 1 1 1 1 1
          1 1 1 1 1 1
          1 1 1 1 1 1
          1 1 1 1 1 1
          1 1 1 1 1 1
          1 1 1 1 1 1
          1 1 1 1 1 1
          1 1 1 1 1 1
          1 1 1 1 1 1
          1 1 1
        </DataArray>
        <DataArray type="Float64" Name="gradient_matprop_marker" format="ascii" RangeMin="0" RangeMax="0">
          0 0 0 0 0 0
          0 0 0 0 0 0
          0 0 0 0 0 0
          0 0 0 0 0 0
          0 0 0 0 0 0
          0 0 0 0 0 0
          0 0 0 0 0 0
          0 0 0 0 0 0
          0 0 0 0 0 0
          0 0 0 0 0 0
          0 0 0 0 0 0
          0 0 0 0 0 0
          0 0 0 0 0 0
          0 0 0 0 0 0
          0 0 0 0 0 0
          0 0 0 0 0 0
          0 0 0 0 0 0
          0 0 0 0 0 0
          0 0 0 0 0 0
          0 0 0 0 0 0
          0 0 0 0 0 0
          0 0 0 0 0 0
          0 0 0 0 0 0
          0 0 0 0 0 0
          0 0 0 0 0 0
          0 0 0 0 0 0
          0 0 0 0 0 0
          0 0 0 0 0 0
          0 0 0 0 0 0
          0 0 0 0 0 0
          0 0 0 0 0 0
          0 0 0 0 0 0
          0 0 0 0 0 0
          0 0 0 0 0 0
          0 0 0 0 0 0
          0 0 0 0 0 0
          0 0 0 0 0 0
          0 0 0 0 0 0
          0 0 0 0 0 0
          0 0 0 0 0 0
          0 0 0 0 0 0
          0 0 0 0 0 0
          0 0 0 0 0 0
          0 0 0 0 0 0
          0 0 0 0 0 0
          0 0 0 0 0 0
          0 0 0 0 0 0
          0 0 0 0 0 0
          0 0 0 0 0 0
          0 0 0 0 0 0
          0 0 0 0 0 0
          0 0 0 0 0 0
          0 0 0 0 0 0
          0 0 0 0 0 0
          0 0 0 0 0 0
          0 0 0 0 0 0
          0 0 0 0 0 0
          0 0 0 0 0 0
          0 0 0 0 0 0
          0 0 0 0 0 0
          0 0 0 0 0 0
          0 0 0 0 0 0
          0 0 0 0 0 0
          0 0 0 0 0 0
          0 0 0 0 0 0
          0 0 0 0 0 0
          0 0 0
        </DataArray>
        <DataArray type="Float64" Name="combo" format="ascii" RangeMin="1" RangeMax="1">
          1 1 1 1 1 1
          1 1 1 1 1 1
          1 1 1 1 1 1
          1 1 1 1 1 1
          1 1 1 1 1 1
          1 1 1 1 1 1
          1 1 1 1 1 1
          1 1 1 1 1 1
          1 1 1 1 1 1
          1 1 1 1 1 1
          1 1 1 1 1 1
          1 1 1 1 1 1
          1 1 1 1 1 1
          1 1 1 1 1 1
          1 1 1 1 1 1
          1 1 1 1 1 1
          1 1 1 1 1 1
          1 1 1 1 1 1
          1 1 1 1 1 1
          1 1 1 1 1 1
          1 1 1 1 1 1
          1 1 1 1 1 1
          1 1 1 1 1 1
          1 1 1 1 1 1
          1 1 1 1 1 1
          1 1 1 1 1 1
          1 1 1 1 1 1
          1 1 1 1 1 1
          1 1 1 1 1 1
          1 1 1 1 1 1
          1 1 1 1 1 1
          1 1 1 1 1 1
          1 1 1 1 1 1
          1 1 1 1 1 1
          1 1 1 1 1 1
          1 1 1 1 1 1
          1 1 1 1 1 1
          1 1 1 1 1 1
          1 1 1 1 1 1
          1 1 1 1 1 1
          1 1 1 1 1 1
          1 1 1 1 1 1
          1 1 1 1 1 1
          1 1 1 1 1 1
          1 1 1 1 1 1
          1 1 1 1 1 1
          1 1 1 1 1 1
          1 1 1 1 1 1
          1 1 1 1 1 1
          1 1 1 1 1 1
          1 1 1 1 1 1
          1 1 1 1 1 1
          1 1 1 1 1 1
          1 1 1 1 1 1
          1 1 1 1 1 1
          1 1 1 1 1 1
          1 1 1 1 1 1
          1 1 1 1 1 1
          1 1 1 1 1 1
          1 1 1 1 1 1
          1 1 1 1 1 1
          1 1 1 1 1 1
          1 1 1 1 1 1
          1 1 1 1 1 1
          1 1 1 1 1 1
          1 1 1 1 1 1
          1 1 1
        </DataArray>
        <DataArray type="Float64" Name="dHdT" format="ascii" RangeMin="25.812411367624453" RangeMax="33.10842200126352">
          25.81410499627946 25.92509411740751 25.821368636248884 25.81573294223212 25.820208481793237 25.817786014578004
          25.816543910310145 25.852550426241052 25.812531244648 25.812505956673434 25.812983137890885 25.812748714808713
          25.81248130467118 25.812711700885142 25.82268348268627 25.81625594602984 25.813486560598363 26.105451670048186
          25.875715521230724 26.81616923673213 25.822655557414173 25.83057662626132 25.8277335550201 25.822448692022164
          25.89800941482106 25.817997701409134 25.81976516350343 25.819423998724393 25.82814363529082 26.516247881256295
          26.303341199241807 26.001503309437958 25.865661940200546 25.828573812561682 25.816554893127623 25.81601203405496
          25.81859492922073 25.817599186059645 25.813278025074126 25.814220151441873 25.813886332813105 25.814990973194515
          25.816373122161714 25.81348962694741 25.850626761369142 25.841485664712646 25.82023321173052 25.826285942891793
          26.056096738857114 25.981681291264024 25.880349712897512 25.860176298170565 25.87731991387869 25.831217329610787
          26.86311175185324 26.498946674840735 26.004771378945627 26.033648271600757 25.814764203680546 25.8141508323859
          25.827790896229374 25.823362036951963 25.81308643142019 25.816590155527003 25.876498969130424 25.855406866778292
          25.827333495238992 25.818099444746228 25.830138470663627 25.81420915948364 25.817564332977998 25.815823672150497
          25.81787452489114 25.81475156047125 28.51134248141765 27.484238052630857 26.54761428365856 26.27895077483924
          29.609280847642783 28.09871314181498 26.442455739193765 25.82020350905827 25.821921440827815 25.812871658348918
          25.812713587126495 25.81241448019412 25.814363130816183 25.815534275433492 25.812818551610356 25.813208949309765
          25.814213490225633 25.814786692592463 25.812976003447506 25.815038438558663 25.81571893739245 25.83592397142369
          25.85560029048509 25.853186281846508 25.84689623166686 25.91742199266646 25.82879952159249 25.83895035583108
          25.833890113208213 25.874454255306944 25.842448037314497 26.27750191067734 26.24148368094127 26.10425510883605
          26.08123912275529 26.15185100237119 26.02419744566796 26.920410572815342 26.823484887778346 26.454143193335316
          26.588362908772467 26.047467760505388 25.958109710705187 25.95914234600849 25.90269435734955 26.326283208200948
          26.135360361840647 26.11622031395447 28.28239773407789 28.032357949125746 27.359755058389915 27.20773468550744
          27.449560077982554 26.848420382415945 26.84271440091071 26.465969696605285 26.39066403312583 26.17656437382238
          25.89785810307487 25.864700433421906 25.8418199633834 25.978569022402798 25.91483376154698 25.825461639779316
          25.829564193580495 25.825548279287876 25.840372704167642 26.112312888157152 25.99884640986743 25.826964416467654
          25.82627820647111 25.837995896931837 25.836560424488923 25.820233646886837 25.826960731689066 25.826136176522386
          25.824428640425705 25.832823791437196 25.824013777004193 25.879424461728213 25.87485997421185 25.848035661803703
          25.863316016837217 25.816878363056272 25.816643324837216 25.820317041843424 25.819853449044448 25.815376957408894
          25.817880232352415 25.817546057318815 25.81605865225474 25.818691500553072 25.816730073992066 25.83317618993734
          25.831768633017425 25.824529781288035 25.828230950215406 25.822190269461103 25.828274012841835 25.817999972392165
          25.821528579458338 25.82111525454536 25.82602539485529 25.820341226264 25.849416393197586 25.833676285370704
          25.84106960802873 25.815424346397545 25.817362100018634 25.814491607982028 25.815811415409456 25.815139674903765
          25.816731055176596 25.815374565120003 25.824031082216898 25.819639329065883 25.82155016768263 25.987035378331367
          25.97316168988792 25.911921165993196 25.904059144710544 25.938837519696758 25.884622523610048 26.237897146479575