<?xml version="1.0"?>
<VTKFile type="UnstructuredGrid" version="0.1" byte_order="LittleEndian" header_type="UInt32" compressor="vtkZLibDataCompressor">
  <UnstructuredGrid>
    <Piece NumberOfPoints="456" NumberOfCells="226">
      <PointData>
        <DataArray type="Int32" Name="libmesh_node_id" format="ascii" RangeMin="162" RangeMax="1967">
          162 163 193 229 230 231
          232 233 234 236 237 238
          239 240 242 322 323 324
          327 330 332 333 334 335
          339 340 343 345 346 378
          379 382 383 400 403 408
          410 429 430 431 435 436
          437 438 439 440 441 443
          444 446 447 448 449 450
          452 453 454 455 456 457
          459 462 601 602 603 606
          608 609 610 622 623 624
          625 626 628 629 630 631
          632 633 634 635 636 637
          638 639 640 641 642 643
          644 645 646 649 652 659
          660 663 664 665 666 668
          679 680 681 682 683 684
          685 686 687 688 689 690
          691 692 697 698 702 703
          704 707 710 963 964 967
          969 970 971 972 973 974
          975 976 977 978 1020 1021
          1022 1023 1036 1037 1038 1039
          1040 1041 1042 1043 1044 1045
          1046 1047 1048 1049 1050 1051
          1052 1058 1063 1064 1065 1066
          1067 1068 1069 1070 1071 1072
          1073 1074 1075 1076 1077 1078
          1079 1080 1081 1082 1083 1084
          1085 1086 1087 1088 1089 1090
          1091 1092 1093 1094 1095 1096
          1097 1098 1100 1105 1107 1111
          1112 1113 1114 1115 1116 1117
          1118 1119 1120 1131 1132 1133
          1134 1135 1136 1137 1140 1141
          1144 1145 1146 1147 1148 1149
          1150 1151 1152 1153 1154 1165
          1166 1167 1168 1169 1170 1171
          1174 1175 1178 1201 1205 1235
          1239 1767 1789 1791 1792 1793
          1794 1795 1796 1797 1798 1801
          1802 1804 1807 1809 1810 1811
          1812 1813 1814 1815 1816 1817
          1818 1819 1820 1821 1822 1823
          1824 1825 1826 1827 1828 1829
          1830 1831 1832 1834 1839 1841
          1845 1846 1847 1848 1849 1850
          1851 1852 1853 1854 1855 1856
          1857 1858 1859 1860 1861 1862
          1863 1864 1865 1866 1867 1868
          1869 1870 1871 1872 1873 1874
          1875 1876 1877 1878 1879 1880
          1881 1882 1883 1884 1885 1886
          1887 1888 1889 1890 1891 1892
          1893 1894 1895 1896 1897 1898
          1899 1900 1901 1902 1903 1904
          1905 1906 1907 1908 1911 1913
          1914 1916 1927 1929 1931 1933
          1941 1942 1945 1947 1948 1950
          1961 1963 1965 1967 235 336
          338 341 442 445 451 241
          458 463 347 647 648 650
          651 653 654 655 656 658
          693 673 694 695 696 699
          678 700 701 705 706 708
          709 711 712 1121 1122 1123
          1124 1125 1126 1127 1128 1130
          1138 1139 1142 1143 1159 1172
          1173 1164 1176 1177 1179 1180
          1099 1181 1182 1183 1184 1199
          1106 1200 1202 1203 1204 1233
          1234 1236 1237 1238 1833 1909
          1910 1912 1155 1915 1156 1840
          1928 1930 1932 1943 1944 1946
          1161 1949 1162 1962 1964 1966
        </DataArray>
        <DataArray type="Float64" Name="bounds" format="ascii" RangeMin="0" RangeMax="0">
          0 0 0 0 0 0
          0 0 0 0 0 0
          0 0 0 0 0 0
          0 0 0 0 0 0
          0 0 0 0 0 0
          0 0 0 0 0 0
          0 0 0 0 0 0
          0 0 0 0 0 0
          0 0 0 0 0 0
          0 0 0 0 0 0
          0 0 0 0 0 0
          0 0 0 0 0 0
          0 0 0 0 0 0
          0 0 0 0 0 0
          0 0 0 0 0 0
          0 0 0 0 0 0
          0 0 0 0 0 0
          0 0 0 0 0 0
          0 0 0 0 0 0
          0 0 0 0 0 0
          0 0 0 0 0 0
          0 0 0 0 0 0
          0 0 0 0 0 0
          0 0 0 0 0 0
          0 0 0 0 0 0
          0 0 0 0 0 0
          0 0 0 0 0 0
          0 0 0 0 0 0
          0 0 0 0 0 0
          0 0 0 0 0 0
          0 0 0 0 0 0
          0 0 0 0 0 0
          0 0 0 0 0 0
          0 0 0 0 0 0
          0 0 0 0 0 0
          0 0 0 0 0 0
          0 0 0 0 0 0
          0 0 0 0 0 0
          0 0 0 0 0 0
          0 0 0 0 0 0
          0 0 0 0 0 0
          0 0 0 0 0 0
          0 0 0 0 0 0
          0 0 0 0 0 0
          0 0 0 0 0 0
          0 0 0 0 0 0
          0 0 0 0 0 0
          0 0 0 0 0 0
          0 0 0 0 0 0
          0 0 0 0 0 0
          0 0 0 0 0 0
          0 0 0 0 0 0
          0 0 0 0 0 0
          0 0 0 0 0 0
          0 0 0 0 0 0
          0 0 0 0 0 0
          0 0 0 0 0 0
          0 0 0 0 0 0
          0 0 0 0 0 0
          0 0 0 0 0 0
          0 0 0 0 0 0
          0 0 0 0 0 0
          0 0 0 0 0 0
          0 0 0 0 0 0
          0 0 0 0 0 0
          0 0 0 0 0 0
          0 0 0 0 0 0
          0 0 0 0 0 0
          0 0 0 0 0 0
          0 0 0 0 0 0
          0 0 0 0 0 0
          0 0 0 0 0 0
          0 0 0 0 0 0
          0 0 0 0 0 0
          0 0 0 0 0 0
          0 0 0 0 0 0
        </DataArray>
        <DataArray type="Float64" Name="gradient_error" format="ascii" RangeMin="7.966813405536663e-10" RangeMax="5.521403664887821e-7">
          2.036709148094128e-9 2.81741443851248e-9 1.6802393188077238e-9 4.292998343013545e-9 6.590378051011488e-9 7.569530492883138e-8
          2.1286612729421052e-8 3.090491614976628e-9 1.3818352965914552e-8 7.194003410348575e-9 6.092553831432372e-9 2.871545388911275e-9
          2.1256112659433997e-9 1.1468600962714618e-7 4.413129988733078e-9 4.771705824020544e-8 3.182108546021062e-7 3.2980999158395005e-7
          6.71996222707229e-8 3.5242021261824856e-7 3.854777894173273e-8 5.8616603050634945e-8 3.183157532362495e-7 2.123139430576736e-7
          5.335584599810762e-8 6.498767584823377e-8 3.451351483139459e-7 5.735520986462559e-8 3.776562078989479e-9 2.2987608591429964e-9
          2.014980615073785e-9 9.789656466871278e-10 9.313385761166665e-10 1.6204469079398637e-9 7.966813405536663e-10 1.9652104734639262e-9
          8.726031067283884e-10 4.1171008905986776e-9 2.488774271045782e-8 1.7989380152441266e-8 1.1091017594424715e-8 3.765950142212e-9
          3.4483091514440537e-9 1.4365407566123886e-8 1.1450077470782573e-8 2.4134440438350013e-9 8.41395149021465e-9 3.130668160676108e-9
          8.534747375441256e-9 7.3143681708269264e-9 1.6360159126974888e-8 1.4478018532134648e-8 3.111432657457906e-8 4.047337043099495e-9
          2.758584566791889e-9 3.289039333546749e-9 4.601530853055756e-9 2.0332390786454602e-9 2.1641668893442372e-8 4.5868494022183227e-8
          3.819494100301609e-9 2.7632401070284065e-9 9.382674513066616e-8 3.0897179074671055e-7 2.638401008477037e-7 1.5773768625678238e-7
          5.239549401500646e-7 3.5649913138105907e-7 4.2556209295622134e-7 4.5809235055319774e-7 9.862098885008963e-8 2.148465486614184e-7
          5.521403664887821e-7 3.805497031187165e-7 3.0270220430600487e-7 1.0373022072769595e-7 5.286281728834791e-7 7.907989396500611e-8
          7.17739321580814e-8 2.919848626027555e-7 2.450869854704119e-7 5.09246055251286e-8 2.643960732368141e-7 2.1788848272308857e-7
          5.351827396719617e-8 1.3691483076809816e-7 1.3569719363123038e-7 3.233247296438413e-7 2.6737551072656275e-7 2.546366786106502e-7
          2.1875772393941894e-7 2.9134801724080244e-8 3.208504315005313e-8 1.7564025971824984e-8 3.503528457602601e-8 8.873759232213797e-8
          1.3723146078212917e-7 2.896363260001334e-7 2.722435939055114e-7 2.262418121389419e-9 9.370361756313052e-8 3.558351140899983e-7
          1.4801838970323566e-7 1.7150258086668793e-7 2.7690224345826535e-7 3.0071393403104013e-7 1.4580922462332416e-7 2.421789505098061e-7
          6.3631486495106e-8 9.53962474851318e-8 1.2322439427649412e-7 6.83148251103847e-8 3.351089544864356e-7 3.5759142574831067e-7
          2.98503677966068e-7 1.0949948711978408e-7 4.221899973775976e-8 4.3840004281474914e-8 4.546100882519006e-8 5.407418194522201e-9
          8.931039955572216e-9 4.399397684538748e-9 1.2454661716622232e-8 1.9001154813450168e-7 3.154865575012964e-7 3.6890159694177956e-7
          3.083654011518057e-8 3.310835484537242e-8 5.408889354577846e-8 6.613853713248934e-8 3.047011180483992e-8 4.8094669783861804e-8
          1.9104502647125454e-8 3.253723389342897e-8 3.5510112700110776e-8 3.1859543092758484e-8 1.180319792303888e-7 1.1403822704409583e-7
          1.2101444307553688e-7 1.1004447485780285e-7 1.2111700826576417e-7 1.1828553843291389e-7 1.2951704287695756e-7 1.2743435588641746e-7
          1.1545406860006361e-7 1.2134124432879893e-7 1.172423524372866e-7 1.2000704483721875e-7 1.1616410945978898e-7 1.2349839534333683e-7
          1.1488737277021217e-7 8.964470326039851e-8 1.0210252216255781e-7 9.088464913047345e-8 1.2035154648613866e-7 1.2514697807160706e-7
          1.157513814165687e-7 1.151462662507229e-7 5.95204260235846e-8 8.994970577810627e-8 3.473997807088988e-8 6.79757896877911e-8
          1.238545324984116e-7 1.196935940807978e-7 3.2995522133777664e-9 6.18658369800358e-8 3.6228682895451724e-8 1.2289330315298016e-7
          1.196778363480352e-7 1.167991950111014e-7 1.2446829992585828e-7 1.2439153104032376e-7 1.339772806576872e-7 1.207127545238152e-7
          1.2833506123086148e-7 1.2843151559450885e-7 1.3751426474032236e-7 1.256741276310617e-7 1.3314925545811268e-7 1.2801372223997433e-7
          1.353728593931979e-7 1.1214282432285281e-7 1.5074777346404506e-7 1.4297236578367315e-7 1.5057907766796637e-7 1.2071045685461033e-7
          8.990694397975517e-8 9.101296910575666e-8 7.840642833564065e-8 9.252243363971363e-8 9.271139094865018e-8 7.882091167350785e-8
          1.6915943080339382e-7 1.5791348631581243e-7 1.2695243177938962e-7 9.051245132528873e-8 7.378758092002922e-8 1.3972839461683143e-7
          1.3716126210426975e-7 1.5085375524735148e-7 1.475411190186458e-7 1.2566955074975997e-7 1.3371365706387454e-7 8.150739089900093e-8
          1.1288295825290978e-7 1.0509175974536932e-7 1.4276714119512363e-7 1.0393470874533896e-7 1.0770180248729226e-7 9.112444558286604e-8
          9.220477363677553e-8 1.2893584171727535e-7 1.370704275680294e-7 1.1663377753814167e-7 9.368396224166953e-8 9.379273187781335e-8
          1.251059974570903e-7 8.01402326614387e-9 4.505532725188743e-8 6.710878345822831e-9 2.9459420513720606e-8 1.1610719346364964e-7
          1.0864219324525513e-7 1.7495167408432973e-9 8.689559981032615e-9 7.519579140834448e-9 8.59542729314501e-8 1.4408703002497388e-7
          1.5483982779958998e-7 1.35734030174638e-7 1.4329057390052972e-7 1.4826485012631977e-7 1.5992943633194903e-7 1.4204296810308406e-7
          1.5079996934274918e-7 1.5779058326340807e-7 1.5993495658114897e-7 9.146249272926224e-8 1.302460715363988e-7 1.6359372098653315e-7
          1.7583270343876398e-7 1.509043888184142e-8 9.49841256637258e-9 1.4513754823808615e-8 1.459164314730567e-8 1.4669531470802724e-8
          8.066969000311867e-9 9.110649676708312e-9 1.0323110274805944e-8 1.0154330353104754e-8 1.5209088239090014e-8 6.028868343556642e-9
          7.857587139547554e-9 9.686305935538466e-9 6.21676171272253e-9 5.3592496467436625e-9 7.3316842615365624e-9 4.576305892625245e-9
          6.615941812552967e-9 9.304118876329462e-9 1.0632940510741148e-8 2.6515302931754584e-9 5.552718846364815e-9 4.79364191928198e-9
          8.45390739955417e-9 1.5169289208733824e-8 1.5750912350205582e-8 1.5129490178377635e-8 1.5856119864894657e-8 1.571589637476877e-8
          1.6669397135432137e-8 1.5575672884642882e-8 1.7193923325348743e-8 1.7230192029017672e-8 1.7708006545780562e-8 1.7266460732686605e-8
          1.9698919061722795e-8 1.7821145417898635e-8 1.819053415848351e-8 1.952622579941001e-8 2.046837333704088e-8 2.0444217974330135e-8
          1.4344998181521142e-8 1.4710752164379173e-8 1.4073236953491094e-8 1.4861798972916654e-8 1.5076506147237204e-8 1.565036099234221e-8
          9.255717458068669e-9 1.0561509397860229e-8 9.738910760618556e-9 1.2896293235803301e-8 1.3839174155462834e-8 1.4868503208480219e-8
          1.3582523487196407e-8 1.476508167503177e-8 1.5897832261497603e-8 1.7113275255734517e-8 7.228626574242655e-9 9.091695723710919e-9
          8.524755846128038e-9 1.2282201268979645e-8 1.558737134247718e-8 1.613853047457496e-8 1.6220465652848025e-8 1.962708349222119e-8
          1.9809620942973095e-8 1.6422274291472472e-8 1.7562763351835437e-8 1.790747452236437e-8 3.763732506285404e-9 5.715709348390889e-9
          3.169168694300275e-9 4.9261427077521826e-9 1.09401312529359e-8 1.016214260181172e-8 1.8499065945810923e-9 4.014007855050899e-9
          3.4286647046684215e-9 9.824492357082608e-9 2.894566244597281e-9 4.409289426724826e-9 3.023215017696505e-9 4.243567303152402e-9
          9.57344442621989e-9 9.05564034310196e-9 1.816304326286177e-9 3.1420017939705782e-9 3.259779718331703e-9 7.988188844124612e-9
          1.5299786045338043e-8 1.5492545489016588e-8 1.638699577530066e-8 1.7343922495613825e-8 1.5012200748198903e-8 1.4846560503458218e-8
          1.6553525897753295e-8 1.5583116941153123e-8 1.5603806972113505e-8 1.794335763871884e-8 1.856025284663139e-8 1.4743959590833777e-8
          1.4641092877833647e-8 1.797924075507331e-8 1.337195496169254e-8 1.4602183553893124e-8 1.7685163222902648e-8 6.5351757921210915e-9
          8.162106827443204e-9 1.2973646351031453e-8 2.0078496469524797e-8 2.0619078639338016e-8 1.8148960992052442e-8 2.0139667144807287e-8
          3.598722075890503e-9 4.5690061758378985e-9 8.742655822767935e-9 3.049857073025272e-9 3.827631646092126e-9 7.382119589868251e-9
          1.5604029419865697e-8 1.9262037469980813e-8 1.4598756457635234e-8 1.903867995469295e-8 5.000308520239123e-8 5.58221065857975e-8
          1.472388741205441e-7 5.6152909191658e-8 7.482953109731073e-9 6.551954729247497e-9 6.609760668418283e-9 2.014702846388325e-8
          9.17218429373707e-9 2.5056898960307683e-9 1.6925048312274624e-8 2.2455573626320713e-7 1.8127858393276577e-7 1.735507523363909e-7
          1.371026181730485e-7 1.380014316023244e-7 1.0065448400970614e-7 2.989459432773617e-7 2.2906551803944052e-7 1.8631526982142344e-7
          1.461997395597756e-7 2.3920587965754703e-7 1.9631261153153666e-7 1.0335296974070256e-7 1.4294656787470512e-7 2.493393561071765e-8
          3.139549956748505e-7 2.4642548350329776e-7 1.825401660087077e-7 1.1850995925297546e-7 9.157281171744089e-8 4.9369631806043543e-8
          3.731885983543334e-8 6.463566418190632e-8 1.8636142958044302e-8 1.628899210164161e-7 1.586575326029987e-7 1.7638229348538884e-7
          1.7093608738823672e-7 1.4178744115642693e-7 1.5002349665349684e-7 9.653276844918427e-8 9.73804431052034e-8 1.3152341895700584e-7
          1.1141685018247104e-7 1.1417492194686123e-7 1.4517681429584104e-7 1.5332012885598374e-7 1.0152394867134165e-7 1.6631609854062363e-7
          1.7886101415124512e-7 1.0240309528596577e-7 1.725898352147936e-7 1.8672022353559503e-7 1.9163374863626893e-7 1.845739165239208e-7
          1.6426249719932575e-7 1.5318567017643966e-7 1.714048477553713e-7 1.5817256668051533e-7 1.65638779136172e-7 1.151467708393601e-7
          8.62528977671995e-8 1.1421696136112531e-7 8.698378348439173e-8 1.6114801471225154e-7 1.6800924485191423e-7 1.924656103118797e-7
          2.0650768737979863e-7 1.6680164936017973e-7 2.0241628155268785e-7 2.1917791001081986e-7 1.8605886495327733e-8 1.325905955672452e-8
          1.4519585109602305e-8 1.7849728909815486e-8 6.733253555378456e-9 8.153089532467222e-9 1.2613936477329839e-8 2.1801576099034804e-8
          2.096602304111226e-8 2.201269892507365e-8 1.8435308524644443e-8 4.406234362549831e-9 5.2508698040976e-9 8.783394161109498e-9
          3.8306123982103826e-9 4.628844267137637e-9 7.620186399107703e-9 1.5713766879460537e-8 1.9956250682347452e-8 1.4687386692821912e-8
        </DataArray>
        <DataArray type="Float64" Name="gradient_matprop_error" format="ascii" RangeMin="0" RangeMax="0">
          0 0 0 0 0 0
          0 0 0 0 0 0
          0 0 0 0 0 0
          0 0 0 0 0 0
          0 0 0 0 0 0
          0 0 0 0 0 0
          0 0 0 0 0 0
          0 0 0 0 0 0
          0 0 0 0 0 0
          0 0 0 0 0 0
          0 0 0 0 0 0
          0 0 0 0 0 0
          0 0 0 0 0 0
          0 0 0 0 0 0
          0 0 0 0 0 0
          0 0 0 0 0 0
          0 0 0 0 0 0
          0 0 0 0 0 0
          0 0 0 0 0 0
          0 0 0 0 0 0
          0 0 0 0 0 0
          0 0 0 0 0 0
          0 0 0 0 0 0
          0 0 0 0 0 0
          0 0 0 0 0 0
          0 0 0 0 0 0
          0 0 0 0 0 0
          0 0 0 0 0 0
          0 0 0 0 0 0
          0 0 0 0 0 0
          0 0 0 0 0 0
          0 0 0 0 0 0
          0 0 0 0 0 0
          0 0 0 0 0 0
          0 0 0 0 0 0
          0 0 0 0 0 0
          0 0 0 0 0 0
          0 0 0 0 0 0
          0 0 0 0 0 0
          0 0 0 0 0 0
          0 0 0 0 0 0
          0 0 0 0 0 0
          0 0 0 0 0 0
          0 0 0 0 0 0
          0 0 0 0 0 0
          0 0 0 0 0 0
          0 0 0 0 0 0
          0 0 0 0 0 0
          0 0 0 0 0 0
          0 0 0 0 0 0
          0 0 0 0 0 0
          0 0 0 0 0 0
          0 0 0 0 0 0
          0 0 0 0 0 0
          0 0 0 0 0 0
          0 0 0 0 0 0
          0 0 0 0 0 0
          0 0 0 0 0 0
          0 0 0 0 0 0
          0 0 0 0 0 0
          0 0 0 0 0 0
          0 0 0 0 0 0
          0 0 0 0 0 0
          0 0 0 0 0 0
          0 0 0 0 0 0
          0 0 0 0 0 0
          0 0 0 0 0 0
          0 0 0 0 0 0
          0 0 0 0 0 0
          0 0 0 0 0 0
          0 0 0 0 0 0
          0 0 0 0 0 0
          0 0 0 0 0 0
          0 0 0 0 0 0
          0 0 0 0 0 0
          0 0 0 0 0 0
        </DataArray>
        <DataArray type="Float64" Name="initial_marker" format="ascii" RangeMin="0" RangeMax="2">
          0 0 0 0 0 0
          0 0 0 0 0 0
          2 0 0 0 2 0.75
          0 1.5 0 0 2 1
          0 0 2 0 0 0
          0 0 0 0 0 0
          0 0 0 0 0 0
          0 0 0 0 0 0
          0 0 0 0 0 0
          0 0 0 0 0 0
          0 0 0 1 0.75 0.25
          1.5 1.75 0.5 2 2 2
          1 1.25 2 2 1 0
          0 1 1 0 1 1
          0 0.5 0.6666666666666666 2 2 2
          1 0 0 0 0 2
          2 1.5 1.5 2 2 2
          0 0 0.5 0.25 0 0.5
          0 0 0 0 1 0.5
          1 0 0 0 0 0
          0 0 0 0 0 0
          0 0 0 0 0 0
          0 0 0 0 2 2
          2 2 2 2 2 2
          2 2 2 2 2 2
          2 2 2 2 2 2
          2 2 2 2 2 2
          2 2 2 2 2 2
          2 2 2 2 2 2
          2 2 2 2 2 2
          2 2 2 2 2 2
          2 2 2 2 2 2
          2 2 2 2 2 2
          2 2 2 2 2 2
          2 2 2 2 2 2
          2 2 2 2 2 2
          2 2 2 2 2 2
          2 2 2 2 2 2
          2 2 2 2 2 2
          2 2 2 2 2 2
          2 2 2 2 2 2
          2 2 2 2 2 2
          2 2 2 2 2 2
          2 2 2 2 2 2
          2 2 2 2 2 2
          2 2 2 2 2 2
          2 2 2 2 2 2
          2 2 2 2 2 2
          2 2 2 2 2 2
          2 2 2 2 2 2
          2 2 2 2 2 2
          2 2 2 2 2 2
          2 2 2 2 2 2
          2 2 2 2 2 2
          2 2 2 2 2 2
          2 2 2 2 2 2
          2 2 2 2 2 2
          2 2 2 2 2 2
          2 2 2 2 2 2
          2 2 2 2 2 2
          2 2 2 2 0 0
          1 0 0 0 0 0
          0 0 0 1 1 1
          1 1 1 2 2 1.3333333333333333
          0 1.5 0.5 0 0.5 0
          2 1 1 1 1 0.5
          0.5 1 0.3333333333333333 2 2 2
          2 2 2 2 2 2
          2 2 2 2 2 2
          2 2 2 2 2 2
          2 2 2 2 2 2
          2 2 2 2 2 2
          2 2 2 2 2 2
          2 2 2 2 2 2
          2 2 2 2 2 2
          2 2 2 2 2 2
        </DataArray>
        <DataArray type="Float64" Name="markers_norefine" format="ascii" RangeMin="0" RangeMax="2">
          0 0 0 0 0 0
          0 0 0 0 0 0
          2 0 0 0 0 0
          0 0 0 0 0 0
          0 0 0 0 0 0
          0 0 0 0 0 0
          0 0 0 0 0 0
          0 0 0 0 0 0
          0 0 0 0 0 0
          0 0 0 0 0 0
          0 0 0 0 0 0
          0 0 0 0 0 0
          0 0 0 0 0 0
          0 0 0 0 0 0
          0 0 0 0 0 0
          0 0 0 0 0 0
          0 0 0 2 0 0
          0 0 0 0 0 0
          0 0 0 0 0 0
          0 0 0 0 0 0
          0 0 0 0 0 0
          0 0 0 0 0 0
          0 0 0 0 0 0
          0 0 0 0 0 0
          0 0 0 0 0 0
          0 0 0 0 0 0
          0 0 1 0.25 1.5 0.5
          0 0 2 1 1.5 0
          0 0 0 0 0 0
          0 0 0 0 0 0
          0 0 0 0 0 0
          0 0 0 0 0 0
          0 0 0 0 0 0
          0 0 0 0 0 0
          0 0 0 0 0 0
          0 0 0 0 0 0
          0 2 1 2 1.5 0
          0 2 2 2 0 0
          0 0 0 0 0 0
          0 0 0 0 0 0
          0 0 1.5 1 0.5 0
          2 2 1.6666666666666667 2 0 2
          1.75 1.5 2 2 2 2
          2 2 1.6666666666666667 2 2 2
          2 0.5 0 1 0 0
          0 0 0 0 0 0
          0 1 0.5 0 0 0
          1 0.5 1 0.75 0 0.5
          2 1.5 1.75 0.6666666666666666 1 1
          1 1 1 0.6666666666666666 2 2
          2 2 0 0.5 0 0
          0 1 0.6666666666666666 0 2 2
          2 2 1.5 1.75 2 2
          2 2 2 2 2 2
          2 2 2 2 2 2
          0.5 0.75 0 0 1 1
          0 1 1 0 0 1
          1 0 1.5 1.25 0.75 2
          2 1.75 0.25 0 0.75 0
          2 2 2 2 2 2
          1.25 0.5 1.5 1 0 0
          0 0 0 0 0 0
          0 0 0 0 0 0
          0 0 0 0 0 0
          0 0 0 0 0 0
          0 0 0 0 0 0
          0 0 0 0 0 0
          0 0 0 1 0 0
          0 0 0 0 0 0
          0 1 0 0 0 0
          0 0 0 0 0 0
          0 0 0 0 0 0
          0 0 0 0 1 2
          1.5 1 2 2 2 0
          0.5 0 1 2 2 2
          2 2 2 1.5 1 2
        </DataArray>
        <DataArray type="Float64" Name="markers_mustrefine" format="ascii" RangeMin="0" RangeMax="2">
          0 0 0 0 0 0
          0 0 0 0 0 0
          2 0 0 0 2 0.75
          0 1.5 0 0 2 1
          0 0 2 0 0 0
          0 0 0 0 0 0
          0 0 0 0 0 0
          0 0 0 0 0 0
          0 0 0 0 0 0
          0 0 0 0 0 0
          0 0 0 1 0.75 0.25
          1.5 1.75 0.5 2 2 2
          1 1.25 2 2 1 0
          0 1 1 0 1 1
          0 0.5 0.6666666666666666 2 2 2
          1 0 0 0 0 2
          2 1.5 1.5 2 2 2
          0 0 0.5 0.25 0 0.5
          0 0 0 0 1 0.5
          1 0 0 0 0 0
          0 0 0 0 0 0
          0 0 0 0 0 0
          0 0 0 0 2 2
          2 2 2 2 2 2
          2 2 2 2 2 2
          2 2 2 2 2 2
          2 2 2 2 2 2
          2 2 2 2 2 2
          2 2 2 2 2 2
          2 2 2 2 2 2
          2 2 2 2 2 2
          2 2 2 2 2 2
          2 2 2 2 2 2
          2 2 2 2 2 2
          2 2 2 2 2 2
          2 2 2 2 2 2
          2 2 2 2 2 2
          2 2 2 2 2 2
          2 2 2 2 2 2
          2 2 2 2 2 2
          2 2 2 2 2 2
          2 2 2 2 2 2
          2 2 2 2 2 2
          2 2 2 2 2 2
          2 2 2 2 2 2
          2 2 2 2 2 2
          2 2 2 2 2 2
          2 2 2 2 2 2
          2 2 2 2 2 2
          2 2 2 2 2 2
          2 2 2 2 2 2
          2 2 2 2 2 2
          2 2 2 2 2 2
          2 2 2 2 2 2
          2 2 2 2 2 2
          2 2 2 2 2 2
          2 2 2 2 2 2
          2 2 2 2 2 2
          2 2 2 2 2 2
          2 2 2 2 2 2
          2 2 2 2 0 0
          1 0 0 0 0 0
          0 0 0 1 1 1
          1 1 1 2 2 1.3333333333333333
          0 1.5 0.5 0 0.5 0
          2 1 1 1 1 0.5
          0.5 1 0.3333333333333333 2 2 2
          2 2 2 2 2 2
          2 2 2 2 2 2
          2 2 2 2 2 2
          2 2 2 2 2 2
          2 2 2 2 2 2
          2 2 2 2 2 2
          2 2 2 2 2 2
          2 2 2 2 2 2
          2 2 2 2 2 2
        </DataArray>
        <DataArray type="Float64" Name="gradient_marker" format="ascii" RangeMin="0" RangeMax="1">
          1 1 1 1 1 0.5
          0.75 1 0.5 1 1 1
          0 1 1 0.5 0.75 0.875
          0.5 1 0.5 0.625 1 0.625
          0.8333333333333334 0.625 1 0.5 0.75 1
          1 1 1 1 1 1
          1 1 1 1 1 1
          1 1 1 1 1 1
          1 1 1 1 1 1
          1 1 1 1 1 1
          1 1 0 0.5 0.5 0.5
          0.875 0.625 1 0.5 0.5 1
          0.875 0.75 0.5 0.5 0.75 0
          0 0.5 0.5 0 0.5 0.5
          0 0.375 0.3333333333333333 1 0.75 0.75
          0.625 0 0 0 0 0.5
          0.875 0.75 0.75 0 0.5 1
          0.375 0.5 0.625 0.75 0.3333333333333333 0.5
          0 0.25 0.5 0 0.75 1
          0.5 0.5 0 0 0 0
          0 0.5 0 0.625 0.875 1
          0 0 0.125 0.25 0 0
          0 0 0 0 0 0
          0.25 0 0.25 0.25 0.75 0.625
          0.25 0.5 0.25 0.375 0.75 0.5
          0 0 0.25 0 0.25 0.6666666666666666
          0 0.16666666666666666 0 0.125 0 0.25
          0.5 0.75 0 0 0 0.5
          0.25 0 0.5 0.5 0.875 0.25
          0.75 0.75 1 0.5 1 0.75
          1 0.25 1 1 1 0.5
          0 0 0 0 0 0
          1 1 0.5 0 0 1
          0.875 1 1 0.625 0.75 0.5
          0.75 0.625 1 0.25 0.25 0
          0 0.75 0.75 0.5 0 0
          0.5 0 0.25 0 0.125 0.75
          0.625 0 0 0 0.5 1
          1 1 1 1 1 1
          1 1 1 0 0.5 1
          1 0 0 0 0 0
          0 0 0 0 0 0
          0 0 0 0 0 0
          0 0 0 0 0 0
          0 0 0 0 0 0
          0 0 0 0 0 0
          0 0 0 0 0 0
          0 0 0 0 0 0
          0 0 0 0 0 0
          0 0 0 0 0 0
          0 0 0 0 0 0
          0 0 0 0 0 0
          0 0 0 0 0 0
          0 0 0 0 0 0
          0 0 0 0 0 0
          0 0 0 0 0 0
          0 0 0 0 0 0
          0 0 0 0 0 0
          0 0 0 0 0 0
          0 0 0 0 0 0
          0 0 0 0 1 0.75
          0.75 0.75 1 1 1 0.5
          1 1 0.875 0.5 0.5 0.5
          0.5 0.5 0.5 1 0.75 0.6666666666666666
          0.5 0.75 0.5 0.5 0.5 0
          1 0.5 0.5 0.5 0.375 0.5
          0.375 0.25 0.5 1 1 1
          1 0.75 0.75 0.5 0.5 0.75
          0.25 0.25 0.75 0.75 0.5 1
          1 0.5 1 1 1 1
          1 0.75 0.875 0.75 0.75 0.25
          0 0.25 0 0.75 0.75 1
          1 1 1 1 0 0
          0 0 0 0 0 0
          0 0 0 0 0 0
          0 0 0 0 0 0
        </DataArray>
        <DataArray type="Float64" Name="gradient_matprop_marker" format="ascii" RangeMin="0" RangeMax="0">
          0 0 0 0 0 0
          0 0 0 0 0 0
          0 0 0 0 0 0
          0 0 0 0 0 0
          0 0 0 0 0 0
          0 0 0 0 0 0
          0 0 0 0 0 0
          0 0 0 0 0 0
          0 0 0 0 0 0
          0 0 0 0 0 0
          0 0 0 0 0 0
          0 0 0 0 0 0
          0 0 0 0 0 0
          0 0 0 0 0 0
          0 0 0 0 0 0
          0 0 0 0 0 0
          0 0 0 0 0 0
          0 0 0 0 0 0
          0 0 0 0 0 0
          0 0 0 0 0 0
          0 0 0 0 0 0
          0 0 0 0 0 0
          0 0 0 0 0 0
          0 0 0 0 0 0
          0 0 0 0 0 0
          0 0 0 0 0 0
          0 0 0 0 0 0
          0 0 0 0 0 0
          0 0 0 0 0 0
          0 0 0 0 0 0
          0 0 0 0 0 0
          0 0 0 0 0 0
          0 0 0 0 0 0
          0 0 0 0 0 0
          0 0 0 0 0 0
          0 0 0 0 0 0
          0 0 0 0 0 0
          0 0 0 0 0 0
          0 0 0 0 0 0
          0 0 0 0 0 0
          0 0 0 0 0 0
          0 0 0 0 0 0
          0 0 0 0 0 0
          0 0 0 0 0 0
          0 0 0 0 0 0
          0 0 0 0 0 0
          0 0 0 0 0 0
          0 0 0 0 0 0
          0 0 0 0 0 0
          0 0 0 0 0 0
          0 0 0 0 0 0
          0 0 0 0 0 0
          0 0 0 0 0 0
          0 0 0 0 0 0
          0 0 0 0 0 0
          0 0 0 0 0 0
          0 0 0 0 0 0
          0 0 0 0 0 0
          0 0 0 0 0 0
          0 0 0 0 0 0
          0 0 0 0 0 0
          0 0 0 0 0 0
          0 0 0 0 0 0
          0 0 0 0 0 0
          0 0 0 0 0 0
          0 0 0 0 0 0
          0 0 0 0 0 0
          0 0 0 0 0 0
          0 0 0 0 0 0
          0 0 0 0 0 0
          0 0 0 0 0 0
          0 0 0 0 0 0
          0 0 0 0 0 0
          0 0 0 0 0 0
          0 0 0 0 0 0
          0 0 0 0 0 0
        </DataArray>
        <DataArray type="Float64" Name="combo" format="ascii" RangeMin="0" RangeMax="2">
          1 1 1 1 1 0.5
          0.75 1 0.5 1 1 1
          2 1 1 0.5 0.75 0.875
          0.5 1 0.5 0.625 1 0.625
          0.8333333333333334 0.625 1 0.5 0.75 1
          1 1 1 1 1 1
          1 1 1 1 1 1
          1 1 1 1 1 1
          1 1 1 1 1 1
          1 1 1 1 1 1
          1 1 0 0.5 0.5 0.5
          0.875 0.625 1 0.5 0.5 1
          0.875 0.75 0.5 0.5 0.75 0
          0 0.5 0.5 0 0.5 0.5
          0 0.375 0.3333333333333333 1 0.75 0.75
          0.625 0 0 0 0 0.5
          0.875 0.75 0.75 2 0.5 1
          0.375 0.5 0.625 0.75 0.3333333333333333 0.5
          0 0.25 0.5 0 0.75 1
          0.5 0.5 0 0 0 0
          0 0.5 0 0.625 0.875 1
          0 0 0.125 0.25 0 0
          0 0 0 0 0 0
          0.25 0 0.25 0.25 0.75 0.625
          0.25 0.5 0.25 0.375 0.75 0.5
          0 0 0.25 0 0.25 0.6666666666666666
          0 0.16666666666666666 1 0.375 1.5 0.75
          0.5 0.75 2 1 1.5 0.5
          0.25 0 0.5 0.5 0.875 0.25
          0.75 0.75 1 0.5 1 0.75
          1 0.25 1 1 1 0.5
          0 0 0 0 0 0
          1 1 0.5 0 0 1
          0.875 1 1 0.625 0.75 0.5
          0.75 0.625 1 0.25 0.25 0
          0 0.75 0.75 0.5 0 0
          0.5 2 1.25 2 1.625 0.75
          0.625 2 2 2 0.5 1
          1 1 1 1 1 1
          1 1 1 0 0.5 1
          1 0 1.5 1 0.5 0
          2 2 1.6666666666666667 2 0 2
          1.75 1.5 2 2 2 2
          2 2 1.6666666666666667 2 2 2
          2 0.5 0 1 0 0
          0 0 0 0 0 0
          0 1 0.5 0 0 0
          1 0.5 1 0.75 0 0.5
          2 1.5 1.75 0.6666666666666666 1 1
          1 1 1 0.6666666666666666 2 2
          2 2 0 0.5 0 0
          0 1 0.6666666666666666 0 2 2
          2 2 1.5 1.75 2 2
          2 2 2 2 2 2
          2 2 2 2 2 2
          0.5 0.75 0 0 1 1
          0 1 1 0 0 1
          1 0 1.5 1.25 0.75 2
          2 1.75 0.25 0 0.75 0
          2 2 2 2 2 2
          1.25 0.5 1.5 1 1 0.75
          0.75 0.75 1 1 1 0.5
          1 1 0.875 0.5 0.5 0.5
          0.5 0.5 0.5 1 0.75 0.6666666666666666
          0.5 0.75 0.5 0.5 0.5 0
          1 0.5 0.5 0.5 0.375 0.5
          0.375 0.25 0.5 1 1 1
          1 0.75 0.75 1.5 0.5 0.75
          0.25 0.25 0.75 0.75 0.5 1
          1 1.5 1 1 1 1
          1 0.75 0.875 0.75 0.75 0.25
          0 0.25 0 0.75 0.75 1
          1 1 1 1 1 2
          1.5 1 2 2 2 0
          0.5 0 1 2 2 2
          2 2 2 1.5 1 2
        </DataArray>
        <DataArray type="Float64" Name="dHdT" format="ascii" RangeMin="25.80900334641873" RangeMax="139.13544524476495">