<?xml version="1.0"?>
<VTKFile type="UnstructuredGrid" version="0.1" byte_order="LittleEndian" header_type="UInt32" compressor="vtkZLibDataCompressor">
  <UnstructuredGrid>
    <Piece NumberOfPoints="395" NumberOfCells="227">
      <PointData>
        <DataArray type="Int32" Name="libmesh_node_id" format="ascii" RangeMin="245" RangeMax="2688">
          717 718 719 720 724 725
          727 728 730 1251 1252 1253
          1254 1262 1263 1264 1268 1269
          1270 1271 1272 1273 1274 1275
          1276 1277 1278 1279 1280 1281
          1282 1283 1284 1285 1289 1290
          1292 1293 1295 1296 1297 1298
          1299 1300 1301 1302 1303 1304
          1305 1306 1307 1310 1311 1313
          1315 1384 1385 1386 1387 1388
          1389 1394 1395 1398 1404 1405
          1406 1407 1411 1413 1678 1679
          1680 1681 1682 1683 1684 1685
          1686 1687 1688 1689 1692 1693
          2163 2164 2165 2166 2167 2168
          2169 2170 2171 2172 2173 2174
          2175 2176 2177 2178 2179 2180
          2181 2182 2183 2184 2185 2186
          2187 2188 2189 2190 2191 2192
          2193 2194 2195 2196 2197 2198
          2199 2200 2201 2202 2203 2204
          2205 2206 2207 2208 2209 2210
          2211 2212 2213 2217 2218 2220
          2221 2223 2224 2225 2226 2227
          2228 2229 2230 2231 2232 2233
          2234 2235 2238 2239 2241 2243
          2244 2245 2246 2247 2248 2249
          2250 2251 2252 2253 2254 2255
          2256 2257 2258 2259 2260 2261
          2262 2263 2264 2265 2266 2267
          2268 2269 2270 2271 2272 2273
          2274 2275 2277 2482 2483 2484
          2485 2486 2487 2488 2489 2490
          2491 2492 2493 2494 2495 2496
          2497 2498 2499 2500 2501 2502
          2503 2504 2505 2513 2514 2515
          2516 2517 2518 2528 2529 2530
          2531 2535 2536 2537 2538 2539
          2540 2541 2542 2543 2544 2555
          2556 2557 2558 2559 2560 2561
          2569 2570 2571 2572 2573 2574
          2589 2590 2591 2592 2603 2604
          2605 2606 2607 2608 2609 2610
          2611 2612 2613 2614 2615 2616
          2617 2618 2619 2620 2621 2622
          2623 2624 2625 2626 2630 2631
          2647 2648 2649 2650 2651 2652
          2653 2656 2660 2661 2662 2663
          2664 2665 2666 2667 2668 2669
          2670 2671 2672 2675 2676 2678
          2680 2681 2682 462 465 466
          463 346 245 350 347 707
          708 709 721 722 723 712
          726 982 979 983 980 984
          985 349 761 753 352 763
          348 1257 715 1286 1287 1288
          1291 1266 1308 1309 1312 1314
          1328 1329 1331 1344 1346 1690
          1414 1691 1694 2214 2215 2216
          2219 351 2222 1294 2236 2237
          2240 2242 729 2276 2545 2546
          2547 2548 2549 2550 2551 2552
          2554 2562 2563 2564 2565 2566
          2568 2579 2580 2583 2596 2598
          2654 2655 2657 2658 2659 1412
          2673 2674 2677 2679 2688
        </DataArray>
        <DataArray type="Float64" Name="bounds" format="ascii" RangeMin="0" RangeMax="0">
          0 0 0 0 0 0
          0 0 0 0 0 0
          0 0 0 0 0 0
          0 0 0 0 0 0
          0 0 0 0 0 0
          0 0 0 0 0 0
          0 0 0 0 0 0
          0 0 0 0 0 0
          0 0 0 0 0 0
          0 0 0 0 0 0
          0 0 0 0 0 0
          0 0 0 0 0 0
          0 0 0 0 0 0
          0 0 0 0 0 0
          0 0 0 0 0 0
          0 0 0 0 0 0
          0 0 0 0 0 0
          0 0 0 0 0 0
          0 0 0 0 0 0
          0 0 0 0 0 0
          0 0 0 0 0 0
          0 0 0 0 0 0
          0 0 0 0 0 0
          0 0 0 0 0 0
          0 0 0 0 0 0
          0 0 0 0 0 0
          0 0 0 0 0 0
          0 0 0 0 0 0
          0 0 0 0 0 0
          0 0 0 0 0 0
          0 0 0 0 0 0
          0 0 0 0 0 0
          0 0 0 0 0 0
          0 0 0 0 0 0
          0 0 0 0 0 0
          0 0 0 0 0 0
          0 0 0 0 0 0
          0 0 0 0 0 0
          0 0 0 0 0 0
          0 0 0 0 0 0
          0 0 0 0 0 0
          0 0 0 0 0 0
          0 0 0 0 0 0
          0 0 0 0 0 0
          0 0 0 0 0 0
          0 0 0 0 0 0
          0 0 0 0 0 0
          0 0 0 0 0 0
          0 0 0 0 0 0
          0 0 0 0 0 0
          0 0 0 0 0 0
          0 0 0 0 0 0
          0 0 0 0 0 0
          0 0 0 0 0 0
          0 0 0 0 0 0
          0 0 0 0 0 0
          0 0 0 0 0 0
          0 0 0 0 0 0
          0 0 0 0 0 0
          0 0 0 0 0 0
          0 0 0 0 0 0
          0 0 0 0 0 0
          0 0 0 0 0 0
          0 0 0 0 0 0
          0 0 0 0 0 0
          0 0 0 0 0
        </DataArray>
        <DataArray type="Float64" Name="gradient_error" format="ascii" RangeMin="5.599886513986379e-11" RangeMax="1.566295244391171e-7">
          1.877744353550808e-9 2.084566300031013e-9 2.2554011422248768e-9 1.8560853012891392e-9 2.2355095028999506e-9 2.3610409367252867e-9
          3.3274042260567923e-9 1.411559276081014e-9 1.994978283666486e-9 1.089909392749224e-8 1.6498677934154257e-8 1.4329311310341181e-8
          1.0065977403723807e-8 4.2578434134491665e-9 6.1600847126652344e-9 4.3481593044109636e-9 8.354337852293121e-9 7.222026112394218e-9
          9.700427274829304e-9 8.423907563024574e-9 2.3252528509299922e-9 1.69793299207182e-9 1.4831059071262811e-9 4.951204796028514e-9
          5.88998766917218e-9 1.0133081365512601e-9 3.2549735271257486e-8 2.8075439348271783e-8 2.656853630595939e-9 1.8021893776511237e-8
          8.575145131722123e-10 7.632187403348847e-10 5.908744972110295e-10 5.152571761875806e-10 5.381134712387137e-10 3.4770437638267535e-10
          1.5806902206504797e-9 1.226448129429748e-9 6.036945304431417e-10 2.856236229014772e-9 3.842414684788224e-9 9.644182349744574e-10
          9.836656889563016e-10 1.899777238467834e-9 3.083402560815044e-9 1.2225417278092505e-9 9.049619437588962e-9 9.148334875007708e-10
          5.0456690900947576e-9 3.3939771912464993e-10 3.537653898776754e-10 2.7149146326942967e-10 4.565173334088087e-10 3.4757079717192585e-10
          4.716570880118813e-10 1.175167802681348e-7 9.917774460057112e-8 1.546937096011393e-8 1.2038699679078468e-8 5.813788750271664e-8
          5.598878743514261e-9 8.589986032634259e-9 6.434677326209032e-9 2.6981287193977717e-9 2.3646374100688896e-8 1.8123077617059887e-9
          8.665055204391639e-9 1.6082913473878828e-9 7.760091231505493e-10 6.417907885292434e-10 3.834954711164715e-9 5.509380403349162e-9
          3.945833693734087e-9 2.752325469955307e-9 4.004082931011356e-9 1.1709921797381968e-9 1.7440669355626667e-9 1.7861220224781437e-9
          2.6349106958837687e-9 9.077763990735062e-10 4.912087432147155e-10 6.965181124260116e-10 3.108328503835125e-10 3.5857647996328047e-10
          1.6923758938324589e-9 2.213602836709997e-9 2.103491361627574e-9 1.8656424994002806e-9 5.615331526408685e-9 1.3509752569304845e-9
          1.2873007611885628e-9 1.92426856768309e-9 1.8301657913591214e-9 7.299963219452763e-10 1.3633843856104608e-9 1.296581940117075e-9
          1.1356795124014725e-9 1.6074841710691298e-9 1.118892435525819e-9 4.93197612556543e-9 4.654260301395185e-9 3.143545149391044e-9
          3.993035955685075e-9 1.2341414714683918e-9 1.5570421601102768e-9 1.206530602503064e-9 3.842241514571547e-9 9.383395771185598e-10
          1.3164082132204506e-9 5.231356097352927e-10 8.851709778219371e-10 7.242606394103787e-10 1.0007576093093332e-9 6.480519529702714e-10
          3.130991916618797e-9 2.025887296567989e-9 2.2245615751318564e-9 5.010156610603303e-10 4.778264608309534e-10 9.102640465790491e-10
          8.631609315692817e-10 3.088331146390966e-10 6.014675897993219e-10 5.69072964098648e-10 4.151936312611072e-10 7.378545016148992e-10
          4.832445601518138e-10 2.3255290177441653e-9 2.1873180723013237e-9 1.482535724315439e-9 1.8244866777340957e-9 2.0501979143800942e-10
          1.947854464832675e-10 3.87347131558565e-10 3.65836087400932e-10 1.680605241894383e-10 3.093084644154926e-10 1.038187132676018e-9
          9.720693453621645e-10 7.999959188470667e-10 3.3273647875396983e-10 5.74109784248348e-10 2.1297512350667352e-10 3.7191775577922856e-10
          2.476920554239091e-10 4.113634290499543e-10 2.622860262362718e-10 1.362253842775967e-9 9.039912897381813e-10 9.256555400844494e-10
          1.3423528008042275e-10 2.3623169369760834e-10 9.979922356127718e-11 1.637853191096615e-10 5.854275961141212e-10 3.8609714355746514e-10
          6.974394130135279e-10 8.787978253160028e-10 7.207136535910207e-10 1.8503203823949488e-9 5.355482033973866e-10 7.162880151724129e-10
          2.9415226185621046e-10 4.433494833917509e-10 4.5152152285483155e-10 5.849719110639539e-10 3.5293164005888415e-10 1.4813244065016154e-9
          9.087193883660979e-10 1.0690460495149516e-9 1.7770361190485557e-10 2.7375962313963216e-10 1.1226135490267342e-10 1.726304436775639e-10
          1.4974606854919479e-10 2.1336077000576782e-10 1.3471356453538788e-10 5.803910872246798e-10 3.7233063577262343e-10 3.940870130863795e-10
          6.988094053333761e-11 1.0527171371065732e-10 5.599886513986379e-11 7.988102459077244e-11 5.706404725461533e-11 8.114429100952206e-11
          6.294988137892264e-11 2.3389031406288296e-10 1.5565387331984268e-10 1.1249449780605258e-8 1.0593042082900821e-8 9.178125917949483e-9
          2.1571681690457766e-8 1.0012411184014494e-8 9.427549064112405e-9 7.628553970010729e-9 7.166883430270851e-9 8.038615823179184e-9
          5.944811382245014e-9 2.039559243396662e-8 1.9017087089722324e-8 1.4550465333708668e-8 1.5870577980569092e-8 7.301732580137942e-9
          5.1011528419558096e-9 1.3899280600322036e-8 6.222099606917607e-9 4.381753321190044e-9 4.283062838391286e-9 2.9134454731768674e-9
          1.1980445224896214e-8 8.723888369322083e-9 7.886491524990797e-9 3.446018954766364e-8 3.221607317478925e-8 2.7290538988115672e-8
          2.5811400936741416e-8 2.698006938658014e-8 2.1482661345861554e-8 2.0379508678618045e-8 1.5484681391365347e-8 1.3164602821785631e-8
          9.764526987389344e-9 5.551989013151428e-9 5.1930253194869686e-9 3.893548842617376e-9 3.6298768318053407e-9 4.249053605625364e-9
          2.9411427356703864e-9 1.1760556641697134e-8 1.1013751498635463e-8 8.004426305281029e-9 8.977446418836894e-9 3.0602845876192386e-9
          2.085710675554609e-9 1.9779213926155773e-9 1.322513950132785e-9 6.332149926976865e-9 4.448037290589363e-9 3.933654481219676e-9
          2.144447322643767e-8 2.0213733504314386e-8 1.619273521355121e-8 1.5205077157740263e-8 1.665460558353784e-8 1.2370309799396516e-8
          1.1736766261408143e-8 8.521321670752573e-9 7.13573383157007e-9 5.029250848557843e-9 3.367235863994462e-9 2.045369764684087e-9
          5.7798842247798486e-9 2.7603985966246275e-9 1.7870435778914785e-9 1.653609939501156e-9 1.0310361401525277e-9 4.834987699316186e-9
          3.275003971932398e-9 2.8313529116446167e-9 9.121521161069589e-10 1.1443172844433199e-9 9.139087931690705e-10 1.8671953627324914e-9
          7.175391601688292e-10 9.239693870328105e-10 4.104174803892084e-10 5.630846878836194e-10 5.599042954566055e-10 7.05044923217156e-10
          3.9039007331243746e-10 1.5199084833634901e-9 9.533266007545045e-10 1.1324197262207993e-9 7.792913346590018e-9 5.538444479996052e-9
          1.1786168791426196e-9 7.723609662721868e-10 6.57712113833828e-10 4.2177452344404367e-10 2.2284723120452756e-9 1.4909062304177044e-9
          1.1889165049524105e-9 2.6750939042000314e-10 4.975171107981794e-10 2.4156843649870836e-10 3.4422951817013363e-10 1.48551945534299e-10
          2.1520232393182805e-10 1.691009361836486e-10 2.309493715369569e-10 1.418903340161235e-10 6.029622044455047e-10 3.849992748712584e-10
          3.94080432491123e-10 9.54192145339811e-11 1.361701980701245e-10 6.867931629494527e-11 9.088806548954683e-11 2.427573908609141e-10
          1.5490062303277125e-10 3.8905561567844285e-9 2.6596127962287365e-9 2.7632401070284065e-9 4.82740153094909e-10 4.540743818652405e-10
          2.5056898960307683e-9 3.776562078989479e-9 9.087174854513757e-10 6.693638063245387e-10 1.6925048312274624e-8 4.399397684538748e-9
          4.9369631806043543e-8 3.731885983543334e-8 8.535429407091254e-10 6.581615280912611e-10 5.262616356756304e-10 1.8636142958044302e-8
          6.218801695732871e-10 1.5977051423102302e-9 2.537323056367891e-9 2.4305639780834104e-9 3.834921059603315e-9 4.0753003453561283e-10
          6.183505382809134e-10 4.032781230801263e-8 2.497677913488746e-9 1.805142368672778e-8 4.277318124644422e-10 6.439436768069714e-10
          1.0666053189137493e-7 7.121485517307694e-8 6.766401089789551e-8 2.874742706267074e-10 2.250995018903797e-10 1.955619750024558e-10
          1.6839616119073385e-10 2.254677751753308e-8 1.3277493020821344e-10 1.7739434325955335e-10 1.8620963354507158e-10 1.7138296182715567e-10
          1.4940188614183224e-7 1.566295244391171e-7 1.2074999317744985e-7 5.186717934102745e-8 2.0631655173110176e-8 2.0661956589809114e-10
          2.4638590402012213e-10 2.7419461281488324e-10 1.519607875445613e-10 1.20123624969014e-10 2.4220481987226886e-10 2.2848317503131455e-10
          1.9291588045770094e-10 6.566302950303968e-10 6.142174256470586e-10 5.040187015226099e-10 8.438700070823292e-11 1.4613342367571483e-10
          1.130684670184661e-10 3.6640894358587367e-10 2.7060355283036403e-10 1.696304296387944e-10 2.6156925199794455e-9 2.4323944457556146e-9
          1.6756732945622227e-9 1.5557276190160576e-9 1.956890724893345e-9 1.2462376033696436e-9 5.943746294209454e-9 5.517170791357006e-9
          4.38978952172605e-9 1.3745878740393336e-9 8.710951822582645e-10 8.622290117350136e-10 5.431342863135408e-10 2.9910199621384696e-9
          1.7849490729769473e-9 1.1635042156059638e-8 1.086324180774007e-8 8.701749966082106e-9 5.869358572219054e-9 3.388478210704549e-9
          4.967669019177856e-10 3.101786581147586e-10 1.66071971550943e-10 9.706310197658988e-10 6.115050505647619e-10 3.1070497778416515e-10
          6.200890550532804e-11 8.585899455087445e-11 5.91598908494325e-11 1.5060134315010809e-10 1.7548788657312337e-9
        </DataArray>
        <DataArray type="Float64" Name="gradient_matprop_error" format="ascii" RangeMin="0" RangeMax="0">
          0 0 0 0 0 0
          0 0 0 0 0 0
          0 0 0 0 0 0
          0 0 0 0 0 0
          0 0 0 0 0 0
          0 0 0 0 0 0
          0 0 0 0 0 0
          0 0 0 0 0 0
          0 0 0 0 0 0
          0 0 0 0 0 0
          0 0 0 0 0 0
          0 0 0 0 0 0
          0 0 0 0 0 0
          0 0 0 0 0 0
          0 0 0 0 0 0
          0 0 0 0 0 0
          0 0 0 0 0 0
          0 0 0 0 0 0
          0 0 0 0 0 0
          0 0 0 0 0 0
          0 0 0 0 0 0
          0 0 0 0 0 0
          0 0 0 0 0 0
          0 0 0 0 0 0
          0 0 0 0 0 0
          0 0 0 0 0 0
          0 0 0 0 0 0
          0 0 0 0 0 0
          0 0 0 0 0 0
          0 0 0 0 0 0
          0 0 0 0 0 0
          0 0 0 0 0 0
          0 0 0 0 0 0
          0 0 0 0 0 0
          0 0 0 0 0 0
          0 0 0 0 0 0
          0 0 0 0 0 0
          0 0 0 0 0 0
          0 0 0 0 0 0
          0 0 0 0 0 0
          0 0 0 0 0 0
          0 0 0 0 0 0
          0 0 0 0 0 0
          0 0 0 0 0 0
          0 0 0 0 0 0
          0 0 0 0 0 0
          0 0 0 0 0 0
          0 0 0 0 0 0
          0 0 0 0 0 0
          0 0 0 0 0 0
          0 0 0 0 0 0
          0 0 0 0 0 0
          0 0 0 0 0 0
          0 0 0 0 0 0
          0 0 0 0 0 0
          0 0 0 0 0 0
          0 0 0 0 0 0
          0 0 0 0 0 0
          0 0 0 0 0 0
          0 0 0 0 0 0
          0 0 0 0 0 0
          0 0 0 0 0 0
          0 0 0 0 0 0
          0 0 0 0 0 0
          0 0 0 0 0 0
          0 0 0 0 0
        </DataArray>
        <DataArray type="Float64" Name="initial_marker" format="ascii" RangeMin="0" RangeMax="2">
          0 0 0 0 0 0
          2 2 0 0 1 1
          1 0 0.5 0 0 0
          1 1 0 1 1 0
          0.75 0.5 2 2 2 2
          0 0 1 1 0 0.25
          2 2 2 0 0.25 0
          0 0 0 0 1.5 1
          0.3333333333333333 0 0 0 0 0.5
          0 2 2 2 2 2
          2 2 2 2 2 2
          0.75 0.5 2 0.5 0 0
          0 0 0 0 0 0
          0 0 0 0 0 0
          2 2 2 2 2 2
          2 2 2 2 2 2
          2 2 2 2 2 2
          2 2 2 1.5 2 2
          2 2 2 1 1.5 1.5
          2 2 2 2 2 2
          2 2 2 2 2 2
          2 2 2 2 2 2
          2 2 2 2 2 2
          2 2 2 2 1.5 1.75
          1 1.5 1.25 2 2 2
          1 1.5 0 1 2 2
          0 1 1 2 0 1
          0 0.75 0 1 0.5 2
          1.75 2 0 0.5 0 0.5
          0 0 0 1.5 1.5 0.6666666666666666
          0 0.5 0 0.5 0 0
          0 1.5 0.6666666666666666 2 2 2
          2 2 2 2 2 2
          2 2 2 2 2 2
          2 2 2 2 2 2
          2 2 2 2 2 2
          2 2 2 2 2 2
          2 2 2 2 2 2
          2 2 2 2 2 2
          2 2 2 2 2 2
          2 2 2 2 2 2
          2 2 2 2 2 2
          2 2 2 2 1.75 2
          2 2 1 1 0 1.5
          1 1 0.5 0.75 0 0
          0 1.5 1.5 1 2 2
          2 2 1.5 1.5 2 2
          2 1.5 2 0 0.5 0
          0.5 0 0 0 1.5 1.5
          1 0 0.5 0 0 1.25
          0.5 2 2 0 0 0
          0 0 0 0 0 0
          0.5 0.5 0 0 0 0.3333333333333333
          0 0 0 0 0 0
          0 0.75 0 0 0 0
          2 2 2 0 1 0.75
          0 1.6666666666666667 0 0 0 0.5
          2 2 2 2 1.3333333333333333 0
          0 0 0 2 2 2
          1.75 2 2 2 0.5 1.25
          1 2 1.75 1.6666666666666667 2 2
          2 2 2 2 2 2
          2 2 2 2 2 2
          2 2 2 2 2 2
          2 2 1.5 2 2 2
          0 0.5 0 1 2
        </DataArray>
        <DataArray type="Float64" Name="markers_norefine" format="ascii" RangeMin="0" RangeMax="0">
          0 0 0 0 0 0
          0 0 0 0 0 0
          0 0 0 0 0 0
          0 0 0 0 0 0
          0 0 0 0 0 0
          0 0 0 0 0 0
          0 0 0 0 0 0
          0 0 0 0 0 0
          0 0 0 0 0 0
          0 0 0 0 0 0
          0 0 0 0 0 0
          0 0 0 0 0 0
          0 0 0 0 0 0
          0 0 0 0 0 0
          0 0 0 0 0 0
          0 0 0 0 0 0
          0 0 0 0 0 0
          0 0 0 0 0 0
          0 0 0 0 0 0
          0 0 0 0 0 0
          0 0 0 0 0 0
          0 0 0 0 0 0
          0 0 0 0 0 0
          0 0 0 0 0 0
          0 0 0 0 0 0
          0 0 0 0 0 0
          0 0 0 0 0 0
          0 0 0 0 0 0
          0 0 0 0 0 0
          0 0 0 0 0 0
          0 0 0 0 0 0
          0 0 0 0 0 0
          0 0 0 0 0 0
          0 0 0 0 0 0
          0 0 0 0 0 0
          0 0 0 0 0 0
          0 0 0 0 0 0
          0 0 0 0 0 0
          0 0 0 0 0 0
          0 0 0 0 0 0
          0 0 0 0 0 0
          0 0 0 0 0 0
          0 0 0 0 0 0
          0 0 0 0 0 0
          0 0 0 0 0 0
          0 0 0 0 0 0
          0 0 0 0 0 0
          0 0 0 0 0 0
          0 0 0 0 0 0
          0 0 0 0 0 0
          0 0 0 0 0 0
          0 0 0 0 0 0
          0 0 0 0 0 0
          0 0 0 0 0 0
          0 0 0 0 0 0
          0 0 0 0 0 0
          0 0 0 0 0 0
          0 0 0 0 0 0
          0 0 0 0 0 0
          0 0 0 0 0 0
          0 0 0 0 0 0
          0 0 0 0 0 0
          0 0 0 0 0 0
          0 0 0 0 0 0
          0 0 0 0 0 0
          0 0 0 0 0
        </DataArray>
        <DataArray type="Float64" Name="markers_mustrefine" format="ascii" RangeMin="0" RangeMax="2">
          0 0 0 0 0 0
          2 2 0 0 1 1
          1 0 0.5 0 0 0
          1 1 0 1 1 0
          0.75 0.5 2 2 2 2
          0 0 1 1 0 0.25
          2 2 2 0 0.25 0
          0 0 0 0 1.5 1
          0.3333333333333333 0 0 0 0 0.5
          0 2 2 2 2 2
          2 2 2 2 2 2
          0.75 0.5 2 0.5 0 0
          0 0 0 0 0 0
          0 0 0 0 0 0
          2 2 2 2 2 2
          2 2 2 2 2 2
          2 2 2 2 2 2
          2 2 2 1.5 2 2
          2 2 2 1 1.5 1.5
          2 2 2 2 2 2
          2 2 2 2 2 2
          2 2 2 2 2 2
          2 2 2 2 2 2
          2 2 2 2 1.5 1.75
          1 1.5 1.25 2 2 2
          1 1.5 0 1 2 2
          0 1 1 2 0 1
          0 0.75 0 1 0.5 2
          1.75 2 0 0.5 0 0.5
          0 0 0 1.5 1.5 0.6666666666666666
          0 0.5 0 0.5 0 0
          0 1.5 0.6666666666666666 2 2 2
          2 2 2 2 2 2
          2 2 2 2 2 2
          2 2 2 2 2 2
          2 2 2 2 2 2
          2 2 2 2 2 2
          2 2 2 2 2 2
          2 2 2 2 2 2
          2 2 2 2 2 2
          2 2 2 2 2 2
          2 2 2 2 2 2
          2 2 2 2 1.75 2
          2 2 1 1 0 1.5
          1 1 0.5 0.75 0 0
          0 1.5 1.5 1 2 2
          2 2 1.5 1.5 2 2
          2 1.5 2 0 0.5 0
          0.5 0 0 0 1.5 1.5
          1 0 0.5 0 0 1.25
          0.5 2 2 0 0 0
          0 0 0 0 0 0
          0.5 0.5 0 0 0 0.3333333333333333
          0 0 0 0 0 0
          0 0.75 0 0 0 0
          2 2 2 0 1 0.75
          0 1.6666666666666667 0 0 0 0.5
          2 2 2 2 1.3333333333333333 0
          0 0 0 2 2 2
          1.75 2 2 2 0.5 1.25
          1 2 1.75 1.6666666666666667 2 2
          2 2 2 2 2 2
          2 2 2 2 2 2
          2 2 2 2 2 2
          2 2 1.5 2 2 2
          0 0.5 0 1 2
        </DataArray>
        <DataArray type="Float64" Name="gradient_marker" format="ascii" RangeMin="0" RangeMax="1">
          1 1 1 1 1 1
          1 1 1 0 0 0
          0 0 0 0 0.5 0.5
          0.5 0.5 1 1 1 0.5
          0.5 1 0.5 0.5 1 0.5
          1 1 1 1 1 1
          1 1 1 0.5 0.5 1
          1 0.5 0.5 1 0.5 1
          0.5 1 1 1 1 1
          1 0.75 0.75 1 1 0.625
          1 1 1 1 0.5 1
          0.5 1 1 1 0 0
          0 0.5 0.5 1 1 0.5
          0.5 1 1 1 1 1
          1 1 1 1 1 1
          1 1 1 1 1 1
          1 1 1 1 1 1
          1 1 1 1 1 1
          1 1 1 1 1 1
          1 1 1 1 1 1
          1 1 1 1 1 1
          1 1 1 1 1 1
          1 1 1 1 1 1
          1 1 1 1 1 1
          1 1 1 1 1 1
          1 1 1 1 1 1
          1 1 1 1 1 1
          1 1 1 1 1 1
          1 1 1 1 1 1
          1 1 1 1 1 1
          1 1 1 1 1 1
          1 1 1 1 1 1
          1 1 1 1 1 1
          1 1 1 1 1 1
          1 1 1 1 1 1
          1 1 1 1 1 1
          1 1 1 1 1 1
          1 1 1 1 1 1
          1 1 1 1 1 1
          1 1 1 1 1 1
          1 1 1 1 1 1
          1 1 1 1 1 1
          1 1 1 1 1 1
          1 1 1 1 1 1
          1 1 1 1 1 1
          1 1 1 1 1 1
          1 1 1 1 1 1
          1 1 1 1 1 1
          1 1 1 1 1 1
          1 1 1 1 1 1
          1 1 1 1 1 1
          1 0.75 1 1 0.875 0.5
          0.5 0.375 1 1 1 0.5
          1 1 1 1 1 1
          1 0.25 1 0.5 1 1
          0.5 0.16666666666666666 0.125 1 1 1
          1 0 1 1 1 1
          0.5 0.5 0.375 0.125 0 1
          1 1 1 1 1 1
          1 1 1 1 1 1
          1 1 1 1 1 1
          1 1 1 1 1 1
          1 1 1 1 1 1
          1 1 1 1 1 1
          1 1 1 1 1 1
          1 1 1 1 1
        </DataArray>
        <DataArray type="Float64" Name="gradient_matprop_marker" format="ascii" RangeMin="0" RangeMax="0">
          0 0 0 0 0 0
          0 0 0 0 0 0
          0 0 0 0 0 0
          0 0 0 0 0 0
          0 0 0 0 0 0
          0 0 0 0 0 0
          0 0 0 0 0 0
          0 0 0 0 0 0
          0 0 0 0 0 0
          0 0 0 0 0 0
          0 0 0 0 0 0
          0 0 0 0 0 0
          0 0 0 0 0 0
          0 0 0 0 0 0
          0 0 0 0 0 0
          0 0 0 0 0 0
          0 0 0 0 0 0
          0 0 0 0 0 0
          0 0 0 0 0 0
          0 0 0 0 0 0
          0 0 0 0 0 0
          0 0 0 0 0 0
          0 0 0 0 0 0
          0 0 0 0 0 0
          0 0 0 0 0 0
          0 0 0 0 0 0
          0 0 0 0 0 0
          0 0 0 0 0 0
          0 0 0 0 0 0
          0 0 0 0 0 0
          0 0 0 0 0 0
          0 0 0 0 0 0
          0 0 0 0 0 0
          0 0 0 0 0 0
          0 0 0 0 0 0
          0 0 0 0 0 0
          0 0 0 0 0 0
          0 0 0 0 0 0
          0 0 0 0 0 0
          0 0 0 0 0 0
          0 0 0 0 0 0
          0 0 0 0 0 0
          0 0 0 0 0 0
          0 0 0 0 0 0
          0 0 0 0 0 0
          0 0 0 0 0 0
          0 0 0 0 0 0
          0 0 0 0 0 0
          0 0 0 0 0 0
          0 0 0 0 0 0
          0 0 0 0 0 0
          0 0 0 0 0 0
          0 0 0 0 0 0
          0 0 0 0 0 0
          0 0 0 0 0 0
          0 0 0 0 0 0
          0 0 0 0 0 0
          0 0 0 0 0 0
          0 0 0 0 0 0
          0 0 0 0 0 0
          0 0 0 0 0 0
          0 0 0 0 0 0
          0 0 0 0 0 0
          0 0 0 0 0 0
          0 0 0 0 0 0
          0 0 0 0 0
        </DataArray>
        <DataArray type="Float64" Name="combo" format="ascii" RangeMin="0" RangeMax="1">
          1 1 1 1 1 1
          1 1 1 0 0 0
          0 0 0 0 0.5 0.5
          0.5 0.5 1 1 1 0.5
          0.5 1 0.5 0.5 1 0.5
          1 1 1 1 1 1
          1 1 1 0.5 0.5 1
          1 0.5 0.5 1 0.5 1
          0.5 1 1 1 1 1
          1 0.75 0.75 1 1 0.625
          1 1 1 1 0.5 1
          0.5 1 1 1 0 0
          0 0.5 0.5 1 1 0.5
          0.5 1 1 1 1 1
          1 1 1 1 1 1
          1 1 1 1 1 1
          1 1 1 1 1 1
          1 1 1 1 1 1
          1 1 1 1 1 1
          1 1 1 1 1 1
          1 1 1 1 1 1
          1 1 1 1 1 1
          1 1 1 1 1 1
          1 1 1 1 1 1
          1 1 1 1 1 1
          1 1 1 1 1 1
          1 1 1 1 1 1
          1 1 1 1 1 1
          1 1 1 1 1 1
          1 1 1 1 1 1
          1 1 1 1 1 1
          1 1 1 1 1 1
          1 1 1 1 1 1
          1 1 1 1 1 1
          1 1 1 1 1 1
          1 1 1 1 1 1
          1 1 1 1 1 1
          1 1 1 1 1 1
          1 1 1 1 1 1
          1 1 1 1 1 1
          1 1 1 1 1 1
          1 1 1 1 1 1
          1 1 1 1 1 1
          1 1 1 1 1 1
          1 1 1 1 1 1
          1 1 1 1 1 1
          1 1 1 1 1 1
          1 1 1 1 1 1
          1 1 1 1 1 1
          1 1 1 1 1 1
          1 1 1 1 1 1
          1 0.75 1 1 0.875 0.5
          0.5 0.375 1 1 1 0.5
          1 1 1 1 1 1
          1 0.25 1 0.5 1 1
          0.5 0.16666666666666666 0.125 1 1 1
          1 0 1 1 1 1
          0.5 0.5 0.375 0.125 0 1
          1 1 1 1 1 1
          1 1 1 1 1 1
          1 1 1 1 1 1
          1 1 1 1 1 1
          1 1 1 1 1 1
          1 1 1 1 1 1
          1 1 1 1 1 1
          1 1 1 1 1
        </DataArray>
        <DataArray type="Float64" Name="dHdT" format="ascii" RangeMin="25.811527374262614" RangeMax="34.73562830584633">
          25.820043526265522 25.821283886644554 25.84984949448315 25.839877385181573 25.821910183695188 25.83154769872207
          26.445791761598638 26.07812919901431 25.86690632523605 26.031125806255844 26.348809452464856 26.27975344168762
          26.140108196080668 25.924570694055546 26.008727600671047 25.947936240091146 25.981780669618008 25.964210267390847
          26.18998127044511 26.14041402661434 25.87307562582298 25.927661991980703 25.911766068178707 25.927163612648187
          26.040689300141075 25.87959393788231 27.43185055077568 27.14235686564718 26.312644993502047 26.594050400456073
          25.84133171269245 25.83811392888108 25.85921881812348 25.85219243760099 25.831390613567553 25.838350732756904
          26.09666263970227 26.030622522135985 25.920068293525844 25.891858519948403 25.94838782210329 25.845585447163707
          25.858415256101168 25.876029679764123 25.910837341643656 25.855775555579353 26.173431679513545 25.92388816203471
          25.99088373604815 25.826320806590303 25.830565264939285 25.824756531115206 25.830333455696586 25.855176297772065
          25.838710908337323 32.616579547501786 31.06143541141229 29.391307590444836 28.300837120069936 28.376462637706133
          26.852595979735856 27.488358652218796 26.987495040673295 26.282294980332345 26.806970822134772 26.153091370377375
          26.140771703363228 25.921343994639493 25.951436492510993 25.85549495534903 25.94229587407835 25.995333480981557
          25.923364964498145 25.9077889864839 25.944682935769023 25.856434783328492 25.870483247709025 25.87682452999782
          25.891744348951555 25.846958253609646 25.831781320233418 25.836662704942153 25.826140827588894 25.827798960233086
          26.141300243290495 26.314171037166815 26.29053209686274 26.23276893427058 26.86130949270272 26.084905663388327
          26.07317544339079 26.226359745225054 26.206706427379928 25.968690463569185 26.081271207345882 26.06801559393493
          26.0439365304793 26.15730603775154 26.03327377352062 26.743736846639592 26.69177844379632 26.408614013924012
          26.561932809681156 26.0566885062867 26.157373320562805 26.077970269435248 26.520789410391217 26.005109390339214
          26.09269643700065 25.925985223509308 25.987938388001922 25.96393322020336 26.025923938055058 25.94290967448068
          26.395937321712147 26.192119666979604 26.23208620785555 25.914972329732798 25.910411296055965 25.98658774840111
          25.977497656017835 25.87411601012508 25.92420353460107 25.918138037128593 25.898420331826454 25.953710154560635
          25.90233598685794 26.241569916109025 26.21473385364068 26.07808792450351 26.14584529470344 25.852691213646295
          25.850794421599403 25.88280096647931 25.878897209592058 25.845783158916134 25.868737788878484 25.99479170801427
          25.982530964210973 25.951332333975177 25.882312893287775 25.923010626899675 25.85580283847226 25.882090645731992
          25.86597109917266 25.89322437374554 25.86268603906085 26.060573887280395 25.972540095816736 25.982005597493337
          25.839140713614952 25.855757160248668 25.832653647796715 25.843486150760775 25.913435253369343 25.879595298157795
          25.959237806306117 26.00879142154824 25.977744233369094 26.168268601562346 25.92835406228533 25.96937707781179
          25.880164043509254 25.906708573583394 25.912632627277024 25.94474018754647 25.89168700769201 26.098876494566007
          25.98835962154984 26.025908405771975 25.853037828104085 25.869794405323677 25.837070444596364 25.847605517637938
          25.84776884316463 25.86014857146892 25.84142081455839 25.922069934910738 25.880893008364595 25.891878806305897
          25.827569670615755 25.834048207343816 25.824216339493006 25.82901977696766 25.825444784588242 25.830156308611265
          25.826130257383404 25.854714170616298 25.842568169065604 28.28262959253109 28.119084554061185 27.730707147362967
          31.15516294880075 27.924472440819535 27.782025907016298 27.306330541280907 27.20079841566331 27.436473151672853
          26.938388816779913 30.80679742209311 30.407356829997543 29.063503576773986 29.421635704556543 27.25547380975054