<?xml version="1.0"?>
<VTKFile type="UnstructuredGrid" version="0.1" byte_order="LittleEndian" header_type="UInt32" compressor="vtkZLibDataCompressor">
  <UnstructuredGrid>
    <Piece NumberOfPoints="456" NumberOfCells="220">
      <PointData>
        <DataArray type="Int32" Name="libmesh_node_id" format="ascii" RangeMin="162" RangeMax="2551">
          162 163 233 234 235 238
          241 243 244 245 246 250
          251 308 313 318 319 321
          322 324 325 326 327 331
          354 355 362 363 412 413
          414 417 422 423 430 432
          433 434 435 436 437 438
          439 440 441 442 443 444
          445 452 453 454 455 459
          555 594 599 600 601 602
          603 604 605 606 607 608
          610 611 612 613 614 615
          616 617 619 620 621 622
          623 624 626 637 647 649
          651 652 653 656 657 659
          661 668 674 782 783 784
          785 786 787 788 789 790
          791 1012 1013 1014 1015 1016
          1020 1021 1022 1023 1024 1025
          1026 1027 1028 1029 1030 1031
          1032 1033 1034 1035 1036 1037
          1038 1039 1040 1041 1042 1043
          1044 1045 1046 1047 1051 1052
          1054 1055 1057 1058 1059 1060
          1061 1062 1063 1064 1065 1066
          1067 1068 1069 1070 1071 1072
          1073 1074 1075 1077 1101 1107
          1108 1148 1149 1151 1154 1497
          1498 1499 1500 1501 1502 1503
          1504 1505 1506 1507 1508 1509
          1510 1511 1512 1513 1514 1518
          1519 1535 1536 1537 1538 1539
          1540 1541 1542 1543 1544 1545
          1546 1547 1548 1549 1550 1551
          1552 1553 1554 1555 1556 1557
          1558 1859 1860 1861 1862 1863
          1864 1865 1866 1867 1868 1869
          1870 1871 1872 1873 1874 1875
          1876 1877 1878 1879 1880 1881
          1882 1883 1884 1885 1886 1887
          1888 1889 1890 1891 1892 1893
          1894 1895 1896 1897 1898 1899
          1900 1901 1902 1903 1904 1905
          1906 1907 1908 1909 1910 1911
          1912 1913 1914 1915 1916 1917
          1918 1919 1920 1921 1922 1923
          1924 1925 1926 1927 1928 1929
          1944 1945 1946 1947 1948 1949
          1950 1951 1952 1953 1964 1965
          1966 1967 1968 1969 1970 1971
          1972 1973 1984 1985 1986 1987
          1988 1989 1990 1998 1999 2000
          2001 2002 2003 2004 2005 2006
          2007 2008 2009 2010 2011 2012
          2013 2014 2015 2016 2017 2018
          2019 2020 2021 2236 2237 2238
          2239 2240 2241 2242 2243 2244
          2245 2246 2247 2248 2249 2250
          2251 2252 2253 2254 2255 2256
          2257 2258 2259 2269 2270 2272
          2275 2283 2287 2289 2290 2293
          2295 2296 2298 2309 2311 2313
          2315 2323 2324 2327 2329 2330
          2332 2343 2347 2531 2532 2535
          2551 310 556 557 560 309
          609 563 320 589 580 631
          648 590 632 650 597 654
          655 1019 865 1010 954 1079
          1082 956 1011 1081 1083 1018
          1089 1092 1091 1093 871 1098
          969 1099 1100 971 1102 1103
          1104 1105 1106 1109 1111 1110
          1090 1146 1147 1150 2260 2267
          2268 2261 2271 2262 2273 2274
          2276 2282 2277 2286 2473 2475
          2476 2474 2478 2477 2491 2490
        </DataArray>
        <DataArray type="Float64" Name="bounds" format="ascii" RangeMin="0" RangeMax="0">
          0 0 0 0 0 0
          0 0 0 0 0 0
          0 0 0 0 0 0
          0 0 0 0 0 0
          0 0 0 0 0 0
          0 0 0 0 0 0
          0 0 0 0 0 0
          0 0 0 0 0 0
          0 0 0 0 0 0
          0 0 0 0 0 0
          0 0 0 0 0 0
          0 0 0 0 0 0
          0 0 0 0 0 0
          0 0 0 0 0 0
          0 0 0 0 0 0
          0 0 0 0 0 0
          0 0 0 0 0 0
          0 0 0 0 0 0
          0 0 0 0 0 0
          0 0 0 0 0 0
          0 0 0 0 0 0
          0 0 0 0 0 0
          0 0 0 0 0 0
          0 0 0 0 0 0
          0 0 0 0 0 0
          0 0 0 0 0 0
          0 0 0 0 0 0
          0 0 0 0 0 0
          0 0 0 0 0 0
          0 0 0 0 0 0
          0 0 0 0 0 0
          0 0 0 0 0 0
          0 0 0 0 0 0
          0 0 0 0 0 0
          0 0 0 0 0 0
          0 0 0 0 0 0
          0 0 0 0 0 0
          0 0 0 0 0 0
          0 0 0 0 0 0
          0 0 0 0 0 0
          0 0 0 0 0 0
          0 0 0 0 0 0
          0 0 0 0 0 0
          0 0 0 0 0 0
          0 0 0 0 0 0
          0 0 0 0 0 0
          0 0 0 0 0 0
          0 0 0 0 0 0
          0 0 0 0 0 0
          0 0 0 0 0 0
          0 0 0 0 0 0
          0 0 0 0 0 0
          0 0 0 0 0 0
          0 0 0 0 0 0
          0 0 0 0 0 0
          0 0 0 0 0 0
          0 0 0 0 0 0
          0 0 0 0 0 0
          0 0 0 0 0 0
          0 0 0 0 0 0
          0 0 0 0 0 0
          0 0 0 0 0 0
          0 0 0 0 0 0
          0 0 0 0 0 0
          0 0 0 0 0 0
          0 0 0 0 0 0
          0 0 0 0 0 0
          0 0 0 0 0 0
          0 0 0 0 0 0
          0 0 0 0 0 0
          0 0 0 0 0 0
          0 0 0 0 0 0
          0 0 0 0 0 0
          0 0 0 0 0 0
          0 0 0 0 0 0
          0 0 0 0 0 0
        </DataArray>
        <DataArray type="Float64" Name="gradient_error" format="ascii" RangeMin="1.7649236499552218e-10" RangeMax="3.268519012335259e-7">
          3.0568652436149177e-9 1.2118706053213447e-8 1.1422469034253501e-8 8.05651662772628e-8 5.349104187414845e-8 1.1631677196542475e-8
          5.75537179170398e-8 7.013694534720824e-10 3.1120950046747315e-9 7.188363575728625e-10 4.399957908973714e-9 3.825517540964593e-9
          3.144185259125378e-9 7.923285319727122e-8 6.876135371220424e-8 2.3226404112137274e-8 4.758421784369453e-8 8.44787659455771e-8
          2.8882334997161968e-9 2.134705177949505e-9 4.6320995268875465e-8 4.461258960212148e-8 3.759794125400985e-9 2.0915532108288097e-8
          1.702920392257558e-9 1.7102869938112997e-9 5.148375099178023e-10 5.921035861043781e-10 3.982184218309322e-9 3.902434624873896e-8
          2.7001469605907653e-8 1.4978592963076346e-8 1.1043773395280945e-8 2.0242435814579436e-8 2.9441098233877923e-8 1.976139970112708e-9
          2.377926476002117e-9 1.2834693892819937e-8 8.848907424805681e-9 8.983775394882199e-10 5.904714463757951e-10 1.5371467831985165e-9
          2.7797129818915252e-9 5.0965583922938505e-9 2.478787374375174e-9 2.761896035007944e-10 3.6345105585296897e-10 2.504385640750927e-10
          5.943755228510343e-10 3.0518514747328207e-9 7.464035357206798e-9 1.785335628908778e-9 2.8019854135971183e-9 1.1876219239680774e-8
          7.735789141834475e-8 5.69793611512423e-8 5.493884671853168e-8 5.052091573219004e-8 2.289451371791594e-7 1.8128259885892158e-7
          1.745830998390297e-8 1.06902892413544e-7 8.410432655762174e-8 4.61029847458484e-8 1.3362006053868377e-7 4.7369670806347785e-8
          2.110019970010424e-7 1.1663552330468427e-7 1.4486526284679778e-7 1.8997795507680088e-9 4.674254276875014e-9 2.0946272959692057e-9
          5.3080715604325515e-9 1.618510441948268e-9 1.4824681571361448e-9 7.792575643136666e-9 1.0357944926816299e-8 3.3041178171077148e-9
          7.0385829030498914e-9 3.3962237789273527e-9 7.173236371605873e-9 3.787524940502574e-8 1.0070783413792084e-7 3.6349863483439195e-8
          3.71089462843732e-8 3.671317090413383e-8 2.1001912718836056e-8 3.631739552389445e-8 9.485621641081554e-9 3.0237453041563776e-9
          9.345551884189486e-9 5.396135194778005e-10 7.971784564522507e-10 9.808597654776267e-9 1.4426646478985269e-8 9.857272480300326e-9
          6.4943675611962244e-9 9.609862801288e-9 2.0883085413262554e-9 3.0727326772650062e-9 4.236120331592015e-9 6.41977717142974e-9
          1.9471412562675797e-9 1.1665274444652782e-7 1.5432318590710085e-8 3.842070616013681e-8 3.387758026419681e-8 2.4851221099651477e-8
          9.850690943012939e-8 7.465174338347592e-8 6.598942109526123e-8 5.808063781345895e-8 1.177116995844091e-8 1.6042258962773328e-8
          1.1716530094500517e-8 5.577183501523732e-8 3.6959663701322584e-8 3.9628280894827416e-8 1.033839560446472e-8 9.120383630956857e-9
          2.1115700385166024e-8 1.859004240368294e-8 1.8543560534425299e-9 2.1694836351232346e-9 1.866425771216747e-9 9.027056968720652e-9
          1.4253032776435349e-8 2.311076551615276e-9 4.984260448211444e-8 4.350583513927106e-8 5.792920573283393e-9 2.952054422847591e-8
          9.616118581861548e-10 8.834221429114248e-10 1.0908159906715707e-9 9.209258569116688e-10 1.2919604320801607e-9 1.0516872157209946e-9
          4.043422234144163e-9 3.239780619716304e-9 1.771905267287415e-9 8.734616294634061e-9 1.0715608559008533e-8 4.0846354052302e-9
          3.803684014761253e-9 6.1362132194529e-9 8.982971133203e-9 4.537848072412104e-9 1.7303809384790332e-8 2.8353088439306746e-9
          1.1389905386768238e-8 1.8824287316396866e-9 1.7708576847340103e-9 9.17593939263517e-10 8.560163175572594e-10 1.4840915501340896e-9
          2.1740174864513746e-9 1.0730794872835868e-9 1.3549952460216685e-9 1.927389308707583e-9 6.136112306254579e-8 5.0629006570772005e-8
          3.11617523233875e-8 1.9392267450574033e-8 1.567062470225655e-8 8.321710371795782e-9 3.255907018446119e-8 1.938007467654702e-9
          3.245990979478324e-9 2.584378739301997e-9 1.92276649912567e-9 1.5629493550295835e-9 1.315787893992087e-9 2.225139746225621e-9
          1.826793062443505e-9 4.892751197911445e-10 8.151282562106412e-10 7.602825876993876e-10 1.0686264329545904e-9 1.4284463786613889e-9
          7.05436919188134e-10 1.7649236499552218e-10 2.0967147674766804e-10 2.796082486567086e-10 3.1998491261439027e-10 2.428505884998139e-10
          3.603615765720719e-10 2.790423292433394e-9 3.746004365163793e-9 3.535754697477556e-9 3.325505029791319e-9 1.9819065922834653e-9
          2.0537595626344874e-9 3.2845780982225283e-9 3.0950824826852383e-9 1.0484018977915944e-9 2.1218405320524244e-9 2.000811997630682e-9
          2.1256125329855094e-9 2.9055868671479483e-9 1.8797834632089392e-9 5.460699521342527e-10 6.131201587078289e-10 1.04250175038354e-9
          1.0211822646113091e-9 3.209769993986394e-10 4.881710263773377e-10 4.94216490687227e-10 6.801703652814052e-10 9.998627788390781e-10
          5.002619549971164e-10 1.7845203995129108e-9 2.2261905781807857e-9 2.14212230239459e-9 1.9584710247019624e-9 3.6506459303140576e-9
          1.4513736517863584e-9 1.3993904702097696e-9 1.8431870882328756e-9 1.7769247187047756e-9 8.304133480088725e-10 1.213897293151441e-9
          1.1730241456647535e-9 1.2739969481671462e-9 1.6176597192156084e-9 1.060504337447438e-9 3.171866139643366e-9 3.046439824666358e-9
          2.0886858224285855e-9 2.7459674694194006e-9 1.4092331008498262e-9 1.6784089380461093e-9 1.497929853296687e-9 2.7846167259274436e-9
          1.1243468079134226e-9 1.3953685703684787e-9 6.770851837857108e-10 9.081612129576584e-10 1.048107008125734e-9 1.2660800514824155e-9
          8.274647491985073e-10 2.313839871156419e-9 1.552542950222277e-9 2.0373168068860734e-9 5.781029241954792e-9 5.529445622525358e-9
          4.9964050485548855e-9 9.817393343524673e-9 5.136735645849465e-9 4.917278125656502e-9 3.923230554757513e-9 3.7541180493632435e-9
          4.3987256508157254e-9 3.299560615115797e-9 9.149324206468632e-9 8.683216244920153e-9 6.6991689975009784e-9 7.605296943743623e-9
          4.24847323987637e-9 3.34655407473019e-9 7.140601796962762e-9 3.6855895367939736e-9 2.6896282589465686e-9 2.8761255518605822e-9
          2.0516996807516537e-9 6.199729929981711e-9 4.597609695283553e-9 4.669157976184093e-9 5.655545764585276e-10 5.491140501989227e-10
          8.189385822026099e-10 7.91174304634455e-10 3.739553530662954e-10 5.634329041275705e-10 5.441162536234478e-10 4.978978062700118e-10
          7.122300127134142e-10 4.873833322384913e-10 1.5438053727964023e-9 1.4820350387819968e-9 1.045156794424943e-9 1.313714970490239e-9
          4.3357673212772404e-10 5.946322381885184e-10 2.9356974146072934e-10 4.050550085999618e-10 4.040313756547422e-10 5.282144780165086e-10
          3.601429558422661e-10 1.0738154443974196e-9 7.469557731170331e-10 9.262646780214166e-10 2.9085834652737603e-9 2.7745365598035626e-9
          2.1143799973750477e-9 2.0121788809564205e-9 2.415267226543354e-9 1.7394587643304185e-9 5.413251167338719e-9 5.13286819932955e-9
          3.822570422270834e-9 4.3877179075477125e-9 1.9387058595140194e-9 1.381685969886019e-9 1.451440856332853e-9 1.0216321683783392e-9
          3.41767152475953e-9 2.4910344772480974e-9 2.470044842228167e-9 2.098967812078097e-9 2.5116578047959242e-9 2.1122058458703624e-9
          3.936943990030031e-9 1.738124010380339e-9 2.1358063381789806e-9 1.1373169128668439e-9 1.4754837125384193e-9 1.4778142264292306e-9
          1.7909099500568318e-9 1.2127088952040466e-9 3.3507690295713476e-9 2.36176450459237e-9 2.553614683784741e-9 7.765558893855407e-10
          1.023048594301823e-9 5.38748970724307e-10 7.135762096944405e-10 6.552490498707371e-10 8.30582396212636e-10 5.783202582811967e-10
          1.6797380625073526e-9 1.1876309377976292e-9 1.2180531019151902e-9 1.6301862644961874e-8 1.5370434357831683e-8 1.350408039809439e-8
          2.4083209127231315e-8 1.4847268124846709e-8 1.4054608192802281e-8 1.2105314764542459e-8 1.1490003493817404e-8 1.2231023207609957e-8
          9.819483444174173e-9 2.3532654624874802e-8 2.213075968696891e-8 1.8414821398956187e-8 1.8982018463888215e-8 1.1115145620039323e-8
          8.228573729064038e-9 1.67365216791639e-8 9.849617267115323e-9 7.609902298906156e-9 7.2220197191970486e-9 5.4438834616008084e-9
          1.5020449789988043e-8 1.1951915220463588e-8 1.065542072045337e-8 2.8796893647787738e-8 2.7488914412200568e-8 2.3405270655473885e-8
          3.704191715244244e-8 1.7575051336484566e-8 2.4339056027459513e-8 9.636530029263643e-9 9.106585669162398e-9 7.680074097266872e-9
          1.5852599251931134e-8 1.5010421582918835e-8 1.262930508778134e-8 5.8252817289369646e-9 4.064189474638694e-9 9.413022012249226e-9
          6.372211760979912e-9 2.3939967903905873e-8 2.277955012174256e-8 1.924740778553761e-8 3.2790853594442304e-8 3.167582459145056e-8
          2.7238856231007663e-8 1.4214802716824991e-8 2.000668898144649e-8 3.8434510178479804e-8 3.870976682059554e-8 3.5295401156782984e-8
          2.625690583761739e-8 1.8954047667834742e-7 2.853377632826058e-7 2.322916124207086e-7 1.425443436870125e-7 3.268519012335259e-7
          2.9044093316130524e-7 2.5289574488734945e-7 1.717118982142182e-7 1.1830485644181473e-7 2.0065283958804112e-7 1.529835699551011e-7
          1.2739259459879593e-7 1.7721795429320804e-7 7.883613185358443e-8 5.755752804460965e-8 2.113107243960714e-7 1.54077355059671e-7
          6.972116102438603e-8 9.792007121288771e-8 1.5511025165026606e-7 1.5993895960691777e-7 1.6032830084125728e-7 1.45662601717259e-7
          1.543916064881471e-7 1.4992810183215417e-7 1.5751147537128497e-7 1.48625790680693e-7 1.5305554188286495e-7 1.454862283165217e-7
          1.4287272629828265e-7 1.4407363498768445e-7 1.6133195875522356e-7 1.2772513524932076e-7 8.062933116546123e-8 9.652368708269266e-8
          1.0075725962396062e-7 8.84223316397105e-8 7.066113930309575e-8 7.735269110514161e-8 1.4012669123236018e-7 1.3467054416292678e-7
          9.790830377677088e-8 7.703295201097647e-8 6.362242505819941e-8 1.221731947209058e-7 7.45245303358566e-8 1.0353522592819017e-7
          1.5573685939876067e-7 1.195487464201029e-7 1.0300023551916919e-7 6.492407750760336e-8 3.70522458377153e-8 3.4127356981373404e-8
          3.221514950502569e-8 3.458229652242518e-8 2.7677125484895244e-8 2.9832899674261305e-8 4.1444862467638434e-8 4.0762545206983906e-8
          3.6830981262726616e-8 2.170509464226604e-8 2.409313972452966e-8 2.880678758501493e-8 4.247834719887657e-8 4.123268315797062e-8
          4.271392064055252e-8 4.489212404394766e-8 4.099625609691485e-8 4.512982412003818e-8 3.16227159150949e-8 3.6456020849739375e-8
        </DataArray>
        <DataArray type="Float64" Name="gradient_matprop_error" format="ascii" RangeMin="0" RangeMax="0">
          0 0 0 0 0 0
          0 0 0 0 0 0
          0 0 0 0 0 0
          0 0 0 0 0 0
          0 0 0 0 0 0
          0 0 0 0 0 0
          0 0 0 0 0 0
          0 0 0 0 0 0
          0 0 0 0 0 0
          0 0 0 0 0 0
          0 0 0 0 0 0
          0 0 0 0 0 0
          0 0 0 0 0 0
          0 0 0 0 0 0
          0 0 0 0 0 0
          0 0 0 0 0 0
          0 0 0 0 0 0
          0 0 0 0 0 0
          0 0 0 0 0 0
          0 0 0 0 0 0
          0 0 0 0 0 0
          0 0 0 0 0 0
          0 0 0 0 0 0
          0 0 0 0 0 0
          0 0 0 0 0 0
          0 0 0 0 0 0
          0 0 0 0 0 0
          0 0 0 0 0 0
          0 0 0 0 0 0
          0 0 0 0 0 0
          0 0 0 0 0 0
          0 0 0 0 0 0
          0 0 0 0 0 0
          0 0 0 0 0 0
          0 0 0 0 0 0
          0 0 0 0 0 0
          0 0 0 0 0 0
          0 0 0 0 0 0
          0 0 0 0 0 0
          0 0 0 0 0 0
          0 0 0 0 0 0
          0 0 0 0 0 0
          0 0 0 0 0 0
          0 0 0 0 0 0
          0 0 0 0 0 0
          0 0 0 0 0 0
          0 0 0 0 0 0
          0 0 0 0 0 0
          0 0 0 0 0 0
          0 0 0 0 0 0
          0 0 0 0 0 0
          0 0 0 0 0 0
          0 0 0 0 0 0
          0 0 0 0 0 0
          0 0 0 0 0 0
          0 0 0 0 0 0
          0 0 0 0 0 0
          0 0 0 0 0 0
          0 0 0 0 0 0
          0 0 0 0 0 0
          0 0 0 0 0 0
          0 0 0 0 0 0
          0 0 0 0 0 0
          0 0 0 0 0 0
          0 0 0 0 0 0
          0 0 0 0 0 0
          0 0 0 0 0 0
          0 0 0 0 0 0
          0 0 0 0 0 0
          0 0 0 0 0 0
          0 0 0 0 0 0
          0 0 0 0 0 0
          0 0 0 0 0 0
          0 0 0 0 0 0
          0 0 0 0 0 0
          0 0 0 0 0 0
        </DataArray>
        <DataArray type="Float64" Name="initial_marker" format="ascii" RangeMin="0" RangeMax="2">
          0 0 0 0 0 0
          0 0 0 0 0 0
          0 0 0 0 0 0.75
          0 0 0 0 0 0
          0 0 0 0 0 0
          0 0 0 0 0 0
          0 0 0 0 0 0
          0 0 0 0 0 0
          0 0 0 0 0 0
          0 0 0 0 1 1
          0 1 0.75 0 1 0.3333333333333333
          2 2 1.3333333333333333 0 0 1
          0 0 0 0 0 0
          2 2 0 2 0 0
          0 0 0 0 0 0
          0 0 0 0 0 0
          0 0 0 0 0 0
          0 2 1 2 2 1.5
          2 2 2 2 0 0.5
          0 2 1.6666666666666667 2 1 0.75
          2 2 0 2 2 0.3333333333333333
          1.5 1.5 2 2 2 2
          0 0 2 2 0 1.5
          2 2 2 0 0.25 0
          0 0 0 0 1.5 1.5
          0.3333333333333333 0 0 0 0 0
          0 0 1.5 0 2 2
          1.3333333333333333 2 2 2 2 0
          0 0 0 0 0 0
          0 0 0 0 0 0
          0 0 0 0 0 0
          0 0 0 0 0 0
          0 0 0 0 0 0
          0 0 0 0 0 0
          0 0 0 0 0 0
          0 2 2 2 1.5 2
          2 1.5 2 1.75 1 2
          1.5 0.5 1.25 1 2 2
          2 2 0 1 1 2
          0 1 0 1 0 1
          1 2 2 2 2 2
          2 2 2 2 2 2
          2 2 2 2 2 2
          2 2 2 2 2 2
          2 2 2 2 1 0.5
          1.5 1.25 0 1 1 0
          1 1 2 2 2 2
          0 1 0 1 0 1
          1 2 2 2 2 2
          2 2 2 2 2 2
          2 2 2 2 2 2
          2 2 2 1 1.5 1
          2 1 1.5 1 1.5 0
          1 1 2 2 2 1
          1.5 1 1.5 0 1 1
          2 2 2 2 2 2
          2 2 2 2 2 2
          2 2 2 2 2 2
          2 2 2 2 2 2
          2 2 2 2 2 2
          2 2 2 2 2 2
          2 2 2 2 2 2
          2 2 2 2 2 2
          2 2 2 2 2 2
          2 1 1 1 0.6666666666666666 2
          2 2 2 0 1.5 1.5
          0.5 0.5 1.5 0.25 1 1
          0.5 2 2 2 2 2
          2 2 2 2 2 2
          2 2 2 2 2 2
          2 2 2 2 2 2
          2 2 2 2 2 2
          2 2 2 2 2 2
          2 2 2 2 2 2
          2 2 2 2 2 2
          2 2 2 2 2 2
        </DataArray>
        <DataArray type="Float64" Name="markers_norefine" format="ascii" RangeMin="0" RangeMax="1.5">
          0 0 0 0 0 0
          0 0 0 0 0 0
          0 0 0 0 0 0
          0 0 0 0 0 0
          0 0 0 0 0 0
          0 0 0 0 0 0
          0 0 0 0 0 0
          0 0 0 0 0 0
          0 0 0 0 0 0
          0 0 0 0 0 0
          0 0 0 0 0 0
          0 0 0 0 0 0
          0 0 0 0 0 0
          0 0 0 0 0 0
          0 0 0 0 0 0
          0 0 0 0 0 0
          0 0 0 0 0 0
          0 0 0 0 0 0
          0 0 0 0 0 0
          0 0 0 0 0 0
          0 0 0 0 0 0
          0 0 0 0 0 0
          0 0 0 0 0 0
          0 0 0 0 0 0
          0 0 0 0 0 0
          0 0 0 0 0 0
          0 0 0 0 0 0
          0 0 0 0 0 0
          0 0 0 0 0 0
          0 0 0 0 0 0
          0 0 0 0 0 0
          0 0 0 0 0 0
          0 0 0 0 0 0
          0 0 0 0 0 0
          0 0 0 0 0 0
          0 0 0 0 0 0
          0 0 0 0 0 0
          0 0 0 0 0 0
          0 0 0 0 0 0
          0 0 0 0 0 0
          0 0 0 0 0 0
          0 0 0 0 0 0
          0 0 0 0 0 0
          0 0 0 0 0 0
          0 0 0 0 0 0
          0 0 0 0 0 0
          0 0 0 0 0 0
          0 0 0 0 0 0
          0 0 0 0 0 0
          0 0 0 0 0 0
          0 0 0 0 0 0
          0 0 0 0 0 0
          0 0 0 0 0 0
          0 0 0 0 0 0
          0 0 0 0 0 0
          0 0 0 0 0 0
          0 0 0 0 0 0
          0 0 0 0 0 0
          0 0 0 0 0 0
          0 0 0 0 0 0
          0 0 0 0 0 0
          0 0 0 0 0 0
          0 0 0 0 0 0
          0 0 0 0.5 0.25 0
          0 0 0 0 0 0
          0 0 0 0 0 0
          0 0 0 0 0 0
          0 0 0 0 0 0
          0 0 0 0 0 0
          0 0 0 0 0 0
          0 0 0 0 0 0
          0 0 0 0 0 0
          0 0 0 0 0 0
          0 0 0 0 0.5 0.25
          0 0 0 0 1.5 1
          0.75 1.25 0.25 0.5 0 0
        </DataArray>
        <DataArray type="Float64" Name="markers_mustrefine" format="ascii" RangeMin="0" RangeMax="2">
          0 0 0 0 0 0
          0 0 0 0 0 0
          0 0 0 0 0 0.75
          0 0 0 0 0 0
          0 0 0 0 0 0
          0 0 0 0 0 0
          0 0 0 0 0 0
          0 0 0 0 0 0
          0 0 0 0 0 0
          0 0 0 0 1 1
          0 1 0.75 0 1 0.3333333333333333
          2 2 1.3333333333333333 0 0 1
          0 0 0 0 0 0
          2 2 0 2 0 0
          0 0 0 0 0 0
          0 0 0 0 0 0
          0 0 0 0 0 0
          0 2 1 2 2 1.5
          2 2 2 2 0 0.5
          0 2 1.6666666666666667 2 1 0.75
          2 2 0 2 2 0.3333333333333333
          1.5 1.5 2 2 2 2
          0 0 2 2 0 1.5
          2 2 2 0 0.25 0
          0 0 0 0 1.5 1.5
          0.3333333333333333 0 0 0 0 0
          0 0 1.5 0 2 2
          1.3333333333333333 2 2 2 2 0
          0 0 0 0 0 0
          0 0 0 0 0 0
          0 0 0 0 0 0
          0 0 0 0 0 0
          0 0 0 0 0 0
          0 0 0 0 0 0
          0 0 0 0 0 0
          0 2 2 2 1.5 2
          2 1.5 2 1.75 1 2
          1.5 0.5 1.25 1 2 2
          2 2 0 1 1 2
          0 1 0 1 0 1
          1 2 2 2 2 2
          2 2 2 2 2 2
          2 2 2 2 2 2
          2 2 2 2 2 2
          2 2 2 2 1 0.5
          1.5 1.25 0 1 1 0
          1 1 2 2 2 2
          0 1 0 1 0 1
          1 2 2 2 2 2
          2 2 2 2 2 2
          2 2 2 2 2 2
          2 2 2 1 1.5 1
          2 1 1.5 1 1.5 0
          1 1 2 2 2 1
          1.5 1 1.5 0 1 1
          2 2 2 2 2 2
          2 2 2 2 2 2
          2 2 2 2 2 2
          2 2 2 2 2 2
          2 2 2 2 2 2
          2 2 2 2 2 2
          2 2 2 2 2 2
          2 2 2 2 2 2
          2 2 2 2 2 2
          2 1 1 1 0.6666666666666666 2
          2 2 2 0 1.5 1.5
          0.5 0.5 1.5 0.25 1 1
          0.5 2 2 2 2 2
          2 2 2 2 2 2
          2 2 2 2 2 2
          2 2 2 2 2 2
          2 2 2 2 2 2
          2 2 2 2 2 2
          2 2 2 2 2 2
          2 2 2 2 2 2
          2 2 2 2 2 2
        </DataArray>
        <DataArray type="Float64" Name="gradient_marker" format="ascii" RangeMin="0" RangeMax="1">
          1 1 1 0.75 0.875 1
          0.5 1 1 1 1 1
          1 0.625 0.625 0.5 0.875 0.5
          1 1 1 0.875 1 0.75
          1 1 1 1 1 1
          1 1 1 1 1 1
          1 1 1 1 1 1
          1 1 1 1 1 1
          1 1 1 1 1 1
          0.25 0 0 0 0.5 0.5
          0.5 0.25 0.375 0 0.5 0.6666666666666666
          0.75 0.5 0.6666666666666666 1 1 1
          1 1 1 1 1 1
          1 1 1 1 0.5 0.6666666666666666
          0 0 0.5 0 1 1
          1 1 1 1 1 1
          1 1 1 1 1 1
          1 0.75 0 0 0 0
          0.5 0.25 0 0 0 0
          0 0 0 0 0.5 0.5
          0.5 0.5 1 1 1 0.5
          0.5 1 0.75 0.75 1 0.625
          1 1 1 1 1 1
          1 1 1 0.5 0.5 1
          1 0.5 0.5 1 0.5 1
          0.5 1 1 1 1 1
          1 1 1 1 0 0
          0 1 1 1 1 1
          1 1 1 1 1 1
          1 1 1 1 1 1
          1 1 1 1 1 1
          1 0 0 0 0 0.5
          0.5 0.5 0.5 1 1 1
          0.5 0.5 1 1 1 1
          1 1 1 1 1 1
          1 1 1 1 1 1
          1 1 1 1 1 1
          1 1 1 1 1 1
          1 1 1 1 1 1
          1 1 1 1 1 1
          1 1 1 1 1 1
          1 1 1 1 1 1
          1 1 1 1 1 1
          1 1 1 1 1 1
          1 1 1 1 1 1
          1 1 1 1 1 1
          1 1 1 1 1 1
          1 1 1 1 1 1
          1 1 1 1 1 1
          1 1 1 1 1 1
          1 1 1 1 1 1
          1 1 1 1 1 1
          1 1 1 1 1 1
          1 1 1 1 1 1
          1 1 1 1 1 1
          1 1 1 1 1 1
          1 1 1 1 1 1
          1 1 1 1 1 1
          1 1 1 1 1 1
          1 1 1 1 1 1
          1 1 1 1 1 1
          1 1 1 1 1 1
          1 1 1 1 1 1
          1 1 1 1 1 1
          1 0.625 0.75 0.625 0.3333333333333333 1
          1 1 0.75 0.3333333333333333 0.75 0.75
          0.5 0.5 0.25 0.5 0.5 0.5
          0.5 0.6666666666666666 1 1 0.875 0.75
          0.875 1 1 0.75 0.75 1
          0.75 0.75 0.875 0.75 0.5 0.375
          0.5 0.25 0 0 0.75 0.75
          0.5 0.25 0.25 0.625 0.25 0.5
          0.75 1 1 0.875 1 1
          1 1 1 1 1 1
          1 1 1 1 1 1
          1 1 1 1 1 1
        </DataArray>
        <DataArray type="Float64" Name="gradient_matprop_marker" format="ascii" RangeMin="0" RangeMax="0">
          0 0 0 0 0 0
          0 0 0 0 0 0
          0 0 0 0 0 0
          0 0 0 0 0 0
          0 0 0 0 0 0
          0 0 0 0 0 0
          0 0 0 0 0 0
          0 0 0 0 0 0
          0 0 0 0 0 0
          0 0 0 0 0 0
          0 0 0 0 0 0
          0 0 0 0 0 0
          0 0 0 0 0 0
          0 0 0 0 0 0
          0 0 0 0 0 0
          0 0 0 0 0 0
          0 0 0 0 0 0
          0 0 0 0 0 0
          0 0 0 0 0 0
          0 0 0 0 0 0
          0 0 0 0 0 0
          0 0 0 0 0 0
          0 0 0 0 0 0
          0 0 0 0 0 0
          0 0 0 0 0 0
          0 0 0 0 0 0
          0 0 0 0 0 0
          0 0 0 0 0 0
          0 0 0 0 0 0
          0 0 0 0 0 0
          0 0 0 0 0 0
          0 0 0 0 0 0
          0 0 0 0 0 0
          0 0 0 0 0 0
          0 0 0 0 0 0
          0 0 0 0 0 0
          0 0 0 0 0 0
          0 0 0 0 0 0
          0 0 0 0 0 0
          0 0 0 0 0 0
          0 0 0 0 0 0
          0 0 0 0 0 0
          0 0 0 0 0 0
          0 0 0 0 0 0
          0 0 0 0 0 0
          0 0 0 0 0 0
          0 0 0 0 0 0
          0 0 0 0 0 0
          0 0 0 0 0 0
          0 0 0 0 0 0
          0 0 0 0 0 0
          0 0 0 0 0 0
          0 0 0 0 0 0
          0 0 0 0 0 0
          0 0 0 0 0 0
          0 0 0 0 0 0
          0 0 0 0 0 0
          0 0 0 0 0 0
          0 0 0 0 0 0
          0 0 0 0 0 0
          0 0 0 0 0 0
          0 0 0 0 0 0
          0 0 0 0 0 0
          0 0 0 0 0 0
          0 0 0 0 0 0
          0 0 0 0 0 0
          0 0 0 0 0 0
          0 0 0 0 0 0
          0 0 0 0 0 0
          0 0 0 0 0 0
          0 0 0 0 0 0
          0 0 0 0 0 0
          0 0 0 0 0 0
          0 0 0 0 0 0
          0 0 0 0 0 0
          0 0 0 0 0 0
        </DataArray>
        <DataArray type="Float64" Name="combo" format="ascii" RangeMin="0" RangeMax="1.75">
          1 1 1 0.75 0.875 1
          0.5 1 1 1 1 1
          1 0.625 0.625 0.5 0.875 0.5
          1 1 1 0.875 1 0.75
          1 1 1 1 1 1
          1 1 1 1 1 1
          1 1 1 1 1 1
          1 1 1 1 1 1
          1 1 1 1 1 1
          0.25 0 0 0 0.5 0.5
          0.5 0.25 0.375 0 0.5 0.6666666666666666
          0.75 0.5 0.6666666666666666 1 1 1
          1 1 1 1 1 1
          1 1 1 1 0.5 0.6666666666666666
          0 0 0.5 0 1 1
          1 1 1 1 1 1
          1 1 1 1 1 1
          1 0.75 0 0 0 0
          0.5 0.25 0 0 0 0
          0 0 0 0 0.5 0.5
          0.5 0.5 1 1 1 0.5
          0.5 1 0.75 0.75 1 0.625
          1 1 1 1 1 1
          1 1 1 0.5 0.5 1
          1 0.5 0.5 1 0.5 1
          0.5 1 1 1 1 1
          1 1 1 1 0 0
          0 1 1 1 1 1
          1 1 1 1 1 1
          1 1 1 1 1 1
          1 1 1 1 1 1
          1 0 0 0 0 0.5
          0.5 0.5 0.5 1 1 1
          0.5 0.5 1 1 1 1
          1 1 1 1 1 1
          1 1 1 1 1 1
          1 1 1 1 1 1
          1 1 1 1 1 1
          1 1 1 1 1 1
          1 1 1 1 1 1
          1 1 1 1 1 1
          1 1 1 1 1 1
          1 1 1 1 1 1
          1 1 1 1 1 1
          1 1 1 1 1 1
          1 1 1 1 1 1
          1 1 1 1 1 1
          1 1 1 1 1 1
          1 1 1 1 1 1
          1 1 1 1 1 1
          1 1 1 1 1 1
          1 1 1 1 1 1
          1 1 1 1 1 1
          1 1 1 1 1 1
          1 1 1 1 1 1
          1 1 1 1 1 1
          1 1 1 1 1 1
          1 1 1 1 1 1
          1 1 1 1 1 1
          1 1 1 1 1 1
          1 1 1 1 1 1
          1 1 1 1 1 1
          1 1 1 1 1 1
          1 1 1 1.25 1.125 1
          1 0.625 0.75 0.625 0.3333333333333333 1
          1 1 0.75 0.3333333333333333 0.75 0.75
          0.5 0.5 0.25 0.5 0.5 0.5
          0.5 0.6666666666666666 1 1 0.875 0.75
          0.875 1 1 0.75 0.75 1
          0.75 0.75 0.875 0.75 0.5 0.375
          0.5 0.25 0 0 0.75 0.75
          0.5 0.25 0.25 0.625 0.25 0.5
          0.75 1 1 0.875 1 1
          1 1 1 1 1.25 1.125
          1 1 1 1 1.75 1.5
          1.375 1.625 1.125 1.25 1 1
        </DataArray>
        <DataArray type="Float64" Name="dHdT" format="ascii" RangeMin="25.81319214824286" RangeMax="53.67471077412129">
          25.814455373272416 25.814977986466538 25.816318720463975 26.16749512699897 25.872925842212993 25.816203288803216
          26.06170880487967 25.813833187182418 25.81415766323506 25.82580099592918 25.819611849072267 25.814044280542117
          25.81417937202713 26.02147546052488 25.984087415815274 25.936096830676778 25.907392685724794 26.54329754956409