<?xml version="1.0"?>
<VTKFile type="UnstructuredGrid" version="0.1" byte_order="LittleEndian" header_type="UInt32" compressor="vtkZLibDataCompressor">
  <UnstructuredGrid>
    <Piece NumberOfPoints="389" NumberOfCells="219">
      <PointData>
        <DataArray type="Int32" Name="libmesh_node_id" format="ascii" RangeMin="245" RangeMax="3056">
          323 618 625 1048 1049 1050
          1053 1056 1076 1156 1157 1158
          1159 1160 1161 1238 1239 1240
          1241 1245 1246 1248 1249 1251
          1266 1267 1270 1271 1276 1277
          1280 1576 1577 1578 1579 1580
          1581 1582 1583 1584 1585 1930
          1931 1932 1933 1934 1935 1936
          1937 1938 1939 1940 1941 1942
          1943 1954 1955 1956 1957 1958
          1959 1960 1961 1962 1963 1974
          1975 1976 1977 1978 1979 1980
          1981 1982 1983 1991 1992 1993
          1994 1995 1996 1997 2022 2023
          2024 2025 2026 2027 2028 2029
          2030 2031 2291 2292 2294 2297
          2299 2300 2301 2302 2303 2304
          2305 2306 2307 2308 2310 2312
          2314 2316 2317 2318 2319 2320
          2321 2322 2325 2326 2328 2333
          2334 2335 2336 2337 2338 2344
          2346 2350 2351 2352 2353 2402
          2404 2406 2408 2409 2410 2411
          2412 2413 2417 2418 2421 2425
          2426 2427 2428 2429 2430 2431
          2436 2442 2443 2753 2754 2755
          2756 2757 2758 2759 2760 2761
          2762 2763 2764 2765 2766 2767
          2768 2769 2770 2771 2772 2773
          2774 2775 2776 2777 2778 2779
          2780 2781 2782 2783 2784 2785
          2786 2801 2802 2803 2804 2805
          2806 2807 2856 2857 2858 2859
          2860 2861 2862 2863 2864 2865
          2870 2871 2872 2876 2877 2878
          2879 2880 2881 2882 2883 2884
          2885 2896 2897 2898 2899 2900
          2901 2902 2910 2911 2912 2913
          2916 2917 3015 3017 3019 3029
          3030 3033 3034 617 668 674
          322 619 670 675 622 1051
          1070 1068 1052 1071 1069 1074
          1073 1075 324 1077 669 1242
          1243 1244 1247 1268 1269 1272
          1273 1275 1274 680 1506 1513
          1514 1507 245 667 1551 1554
          1555 1552 1044 1045 1558 1557
          1553 1920 1921 1922 1925 1046
          1928 1047 1946 1947 1950 1952
          1966 1967 1969 1054 1972 1055
          1985 1987 1989 1057 2014 2015
          2018 2020 1970 1971 2289 2290
          1973 2293 2295 2296 2298 1988
          2309 1990 2311 2313 2315 2323
          2324 2327 2343 2787 2788 2789
          2790 2794 2795 2797 2798 2800
          2808 2809 2812 2813 2815 2817
          2866 2867 2868 2869 2873 2875
          2874 2886 2887 2890 2892 2893
          2895 2903 2905 2907 2909 2914
          2915 1282 2918 1283 2919 2920
          2921 2924 2926 2927 2929 2930
          2931 2932 2933 2937 2939 3016
          3018 3020 3022 3024 3026 3031
          3032 3035 3049 3050 3056
        </DataArray>
        <DataArray type="Float64" Name="bounds" format="ascii" RangeMin="0" RangeMax="0">
          0 0 0 0 0 0
          0 0 0 0 0 0
          0 0 0 0 0 0
          0 0 0 0 0 0
          0 0 0 0 0 0
          0 0 0 0 0 0
          0 0 0 0 0 0
          0 0 0 0 0 0
          0 0 0 0 0 0
          0 0 0 0 0 0
          0 0 0 0 0 0
          0 0 0 0 0 0
          0 0 0 0 0 0
          0 0 0 0 0 0
          0 0 0 0 0 0
          0 0 0 0 0 0
          0 0 0 0 0 0
          0 0 0 0 0 0
          0 0 0 0 0 0
          0 0 0 0 0 0
          0 0 0 0 0 0
          0 0 0 0 0 0
          0 0 0 0 0 0
          0 0 0 0 0 0
          0 0 0 0 0 0
          0 0 0 0 0 0
          0 0 0 0 0 0
          0 0 0 0 0 0
          0 0 0 0 0 0
          0 0 0 0 0 0
          0 0 0 0 0 0
          0 0 0 0 0 0
          0 0 0 0 0 0
          0 0 0 0 0 0
          0 0 0 0 0 0
          0 0 0 0 0 0
          0 0 0 0 0 0
          0 0 0 0 0 0
          0 0 0 0 0 0
          0 0 0 0 0 0
          0 0 0 0 0 0
          0 0 0 0 0 0
          0 0 0 0 0 0
          0 0 0 0 0 0
          0 0 0 0 0 0
          0 0 0 0 0 0
          0 0 0 0 0 0
          0 0 0 0 0 0
          0 0 0 0 0 0
          0 0 0 0 0 0
          0 0 0 0 0 0
          0 0 0 0 0 0
          0 0 0 0 0 0
          0 0 0 0 0 0
          0 0 0 0 0 0
          0 0 0 0 0 0
          0 0 0 0 0 0
          0 0 0 0 0 0
          0 0 0 0 0 0
          0 0 0 0 0 0
          0 0 0 0 0 0
          0 0 0 0 0 0
          0 0 0 0 0 0
          0 0 0 0 0 0
          0 0 0 0 0
        </DataArray>
        <DataArray type="Float64" Name="gradient_error" format="ascii" RangeMin="5.280208472346082e-11" RangeMax="2.3939967903905873e-8">
          2.0303675873644406e-9 4.302078934459471e-10 8.542277908272264e-10 4.105416243172649e-10 5.175496668407129e-10 4.340243944394316e-10
          4.91660293519105e-10 1.606613102465283e-9 6.453321323461323e-10 1.2553634763105992e-8 9.829774885544647e-9 6.85746073868296e-9
          5.220917205020885e-9 4.760975946001929e-9 2.401099213708229e-9 3.0481854970984504e-10 2.8041961775141684e-10 3.2830918853595803e-10
          2.8088042083509536e-10 3.2769461022421164e-10 2.590178622553203e-10 8.773564736952139e-10 6.93867857823853e-10 3.697954651950105e-10
          4.129341985531491e-10 3.8291365530073637e-10 3.5161940830431524e-10 4.821770046241815e-10 3.0595775299627573e-9 2.298017716510351e-9
          1.0458196537370747e-9 1.478985917724407e-10 1.5649335131936613e-10 2.1907067904421687e-10 2.1782961955885246e-10 1.175650585095028e-10
          1.2627357327725394e-10 1.4237705959742623e-10 1.6508811086629158e-10 2.16588560073488e-10 1.5848054591759854e-10 2.587763497854147e-10
          2.502816176080415e-10 3.847325954330497e-10 3.705512577496253e-10 1.6906776875351772e-10 2.5994734986679176e-10 2.499722249971829e-10
          2.2665954668065493e-10 3.317815591039238e-10 2.2375884120435705e-10 7.5942690004882e-10 7.267839735045588e-10 4.951290910783022e-10
          6.383670884677906e-10 2.0686878549665844e-10 2.797369950474624e-10 1.4340108568704375e-10 1.9156103292003653e-10 2.0220536306267533e-10
          2.522807919532782e-10 1.756014835589329e-10 5.142498593715242e-10 3.4975346046554683e-10 4.3705747493409124e-10 1.4981945460817252e-9
          1.4235609687217462e-9 1.0319869291489669e-9 9.7977757753927e-10 1.2252218181959254e-9 8.413258234114528e-10 2.9183732109777984e-9
          2.753215168510775e-9 1.9130639878557826e-9 2.319946950179891e-9 9.658633803236542e-10 6.604501303118429e-10 7.065008961069721e-10
          4.801668602025834e-10 1.7686878200147658e-9 1.2192288810266897e-9 1.2458560328176046e-9 3.574759458930162e-10 4.83488459215479e-10
          2.4157804622992264e-10 3.277547018799286e-10 2.955926445192881e-10 3.8418564183423817e-10 2.609925230850435e-10 8.230216810112347e-10
          5.606229508627967e-10 5.836908974660981e-10 7.404822903987403e-9 6.971942262351145e-9 5.81865604776949e-9 1.1832928508515256e-8
          5.464006449845174e-9 5.129477903487666e-9 3.859334963443763e-9 3.615138623708768e-9 4.246819932647323e-9 2.9766060024766235e-9
          9.511078771428376e-9 8.925436548693066e-9 6.412226421647107e-9 7.331322046765525e-9 4.344252421110785e-9 2.9748574955627975e-9
          7.189740074229291e-9 3.1351757076612213e-9 2.182330637702175e-9 2.1199055827966428e-9 1.4652188013565918e-9 5.283473881481094e-9
          3.722904361111442e-9 3.4427371398966613e-9 1.9241099030178317e-8 1.8262879323502185e-8 1.530134428542124e-8 1.4939150694636533e-8
          1.4111814160700755e-8 1.1059163612199982e-8 1.0384777360992697e-8 1.1669394508497026e-8 8.469474569069964e-9 1.1108868666436326e-8
          7.1756332029619896e-9 8.318281056414157e-9 5.944512328085476e-9 5.267228954151643e-9 3.7110637006279522e-9 1.9216552450305866e-9
          1.1815014717659463e-9 2.9603615045251705e-9 1.3511059673723714e-9 9.269196916101919e-10 8.210638260477845e-10 5.609629240810207e-10
          2.1074015951665323e-9 1.4566193392164571e-9 5.521277442087484e-10 6.960951454126187e-10 5.130372136263984e-10 3.9165035224150575e-10
          4.865959182708098e-10 2.7436394811561286e-10 3.3606659967241343e-10 3.1196833628624076e-10 3.6512586075546294e-10 2.560006861148627e-10
          4.322592252832358e-9 3.1128137294326033e-9 2.1666543521321998e-9 1.191463352062386e-10 1.1521401413201587e-10 1.7041002394899573e-10
          1.6430529853874352e-10 9.66069651272173e-11 1.3379090716267029e-10 1.2956360828984096e-10 1.0407429796404576e-10 1.4703517202077748e-10
          1.1564887962491287e-10 3.44220477711255e-10 3.294253439682927e-10 2.4673261767671417e-10 2.8880981539608206e-10 9.062366434191075e-11
          1.2279529071773354e-10 7.34868570426381e-11 9.71027416429631e-11 8.438042581352308e-11 1.0972081052240343e-10 8.824403345311208e-11
          2.3226448174960904e-10 1.7427417592473532e-10 1.974805005159319e-10 6.916344042605406e-10 6.56549459170279e-10 4.4699000088606463e-10
          4.244229506266684e-10 5.634508189347041e-10 3.64383696402606e-10 1.3599700742552976e-9 1.2807318016961135e-9 8.263911561763681e-10
          1.0743498325798373e-9 4.41721592885439e-10 2.8625435270341625e-10 3.207774484404965e-10 2.0884419419002707e-10 8.144035889323179e-10
          5.271085517728147e-10 5.700679056584e-10 1.6405545705159953e-10 2.2048889508563945e-10 1.0930036202352351e-10 1.4517247221643336e-10
          1.38748498420172e-10 1.7742895527177303e-10 1.1825376902170514e-10 3.7471451774665715e-10 2.4482712901198167e-10 2.658015075474201e-10
          5.548394297615622e-11 7.204186364523236e-11 5.754087698707593e-11 2.6065251204887e-9 2.438455046306322e-9 1.6848128607775395e-9
          1.5755521812332655e-9 2.0020660285954645e-9 1.2932464281276023e-9 4.698413559327171e-9 4.381444435086982e-9 2.848384702329586e-9
          3.5456725240202383e-9 1.4638676115271974e-9 9.4680802843077e-10 9.809019108321479e-10 6.361494454744137e-10 2.513094980414492e-9
          1.626613721540807e-9 1.6138112632492675e-9 7.737728702422295e-9 7.229808177744437e-9 5.11220420342909e-9 4.758964217716045e-9
          1.1418985715291446e-8 1.0756447150816354e-8 6.197697015651708e-10 3.743239600866732e-10 9.761412387307222e-10 1.7428391346145237e-10
          2.1957206662562088e-10 1.3295183631745382e-10 1.622199325313515e-10 1.618510441948268e-9 5.396135194778005e-10 7.971784564522507e-10
          2.8882334997161968e-9 1.4824681571361448e-9 4.5532901966377967e-10 8.821722490065986e-10 3.3041178171077148e-9 1.2919604320801607e-9
          9.17593939263517e-10 1.8824287316396866e-9 1.0516872157209946e-9 8.560163175572594e-10 1.7708576847340103e-9 1.0730794872835868e-9
          2.1740174864513746e-9 1.3549952460216685e-9 2.134705177949505e-9 1.927389308707583e-9 3.2466630754075893e-10 2.8129615355039796e-10
          2.471834295975169e-10 2.1533452333086537e-10 1.8276547148952064e-10 1.9359075676647667e-10 2.0419646420039715e-10 2.26118969290103e-10
          2.8434055694199313e-10 4.178273805993012e-10 1.776354574599675e-10 5.303099680806958e-10 8.151282562106412e-10 2.796082486567086e-10
          3.1998491261439027e-10 7.602825876993876e-10 7.188363575728625e-10 3.1293777085860267e-10 1.04250175038354e-9 4.881710263773377e-10
          4.94216490687227e-10 1.0211822646113091e-9 9.616118581861548e-10 8.834221429114248e-10 5.002619549971164e-10 9.998627788390781e-10
          3.209769993986394e-10 3.739553530662954e-10 5.634329041275705e-10 5.441162536234478e-10 4.873833322384913e-10 1.0908159906715707e-9
          1.045156794424943e-9 9.209258569116688e-10 2.9356974146072934e-10 4.050550085999618e-10 3.601429558422661e-10 7.469557731170331e-10
          2.1143799973750477e-9 2.0121788809564205e-9 1.7394587643304185e-9 4.043422234144163e-9 3.822570422270834e-9 3.239780619716304e-9
          1.381685969886019e-9 1.0216321683783392e-9 2.4910344772480974e-9 1.771905267287415e-9 5.38748970724307e-10 7.135762096944405e-10
          5.783202582811967e-10 1.1876309377976292e-9 5.413251167338719e-9 5.13286819932955e-9 9.636530029263643e-9 9.106585669162398e-9
          4.3877179075477125e-9 7.680074097266872e-9 1.5852599251931134e-8 1.5010421582918835e-8 1.262930508778134e-8 3.41767152475953e-9
          5.8252817289369646e-9 2.470044842228167e-9 4.064189474638694e-9 9.413022012249226e-9 6.372211760979912e-9 2.3939967903905873e-8
          2.277955012174256e-8 1.924740778553761e-8 1.4214802716824991e-8 1.8420256776732296e-10 1.757608735134776e-10 2.7673279862672415e-10
          2.628939007830202e-10 1.5304693031641078e-10 2.2614600666195565e-10 5.459473273784941e-10 5.147075008388554e-10 4.332291545077988e-10
          1.2362358045043206e-10 1.7848257319208317e-10 9.311220581063997e-11 1.3039106913372586e-10 3.3103003229616815e-10 2.3365352763695274e-10
          6.661793753488068e-11 8.954793295655638e-11 5.280208472346082e-11 6.912844202258799e-11 1.54602058676468e-10 1.1049703971870024e-10
          1.0811040993602277e-10 1.0443312799071876e-9 9.770777417462998e-10 8.036602536024904e-10 1.897688949165519e-9 1.7656911773510598e-9
          1.4245625047697106e-9 5.915744641583429e-10 4.00454961290759e-10 1.0114150426857285e-9 6.539583451328473e-10 5.832125285243117e-9
          3.8102221385882936e-9 7.705082196362887e-9 7.20909261171168e-9 5.793192292696383e-9 8.7623863750952e-9 3.194300404066755e-9
          2.9665848880273053e-9 2.366299105501398e-9 4.883094304314132e-9 4.546355367083308e-9 3.6204622691568545e-9 4.049370826839465e-9
          2.630823956665517e-9 2.5077503221950833e-9 1.6267681502695827e-9 1.633754688083545e-9 1.0148810733871525e-9 4.036336691276819e-10
          2.444507037668293e-10 6.343589456018529e-10 2.5602610227813046e-10 1.5548897345002905e-10 4.004561864468178e-10 1.1361756781389017e-10
          1.4325942321298806e-10 1.0600058849418081e-10 1.4564663416616018e-9 9.461369030207784e-10 5.948895738028571e-10
        </DataArray>
        <DataArray type="Float64" Name="gradient_matprop_error" format="ascii" RangeMin="0" RangeMax="0">
          0 0 0 0 0 0
          0 0 0 0 0 0
          0 0 0 0 0 0
          0 0 0 0 0 0
          0 0 0 0 0 0
          0 0 0 0 0 0
          0 0 0 0 0 0
          0 0 0 0 0 0
          0 0 0 0 0 0
          0 0 0 0 0 0
          0 0 0 0 0 0
          0 0 0 0 0 0
          0 0 0 0 0 0
          0 0 0 0 0 0
          0 0 0 0 0 0
          0 0 0 0 0 0
          0 0 0 0 0 0
          0 0 0 0 0 0
          0 0 0 0 0 0
          0 0 0 0 0 0
          0 0 0 0 0 0
          0 0 0 0 0 0
          0 0 0 0 0 0
          0 0 0 0 0 0
          0 0 0 0 0 0
          0 0 0 0 0 0
          0 0 0 0 0 0
          0 0 0 0 0 0
          0 0 0 0 0 0
          0 0 0 0 0 0
          0 0 0 0 0 0
          0 0 0 0 0 0
          0 0 0 0 0 0
          0 0 0 0 0 0
          0 0 0 0 0 0
          0 0 0 0 0 0
          0 0 0 0 0 0
          0 0 0 0 0 0
          0 0 0 0 0 0
          0 0 0 0 0 0
          0 0 0 0 0 0
          0 0 0 0 0 0
          0 0 0 0 0 0
          0 0 0 0 0 0
          0 0 0 0 0 0
          0 0 0 0 0 0
          0 0 0 0 0 0
          0 0 0 0 0 0
          0 0 0 0 0 0
          0 0 0 0 0 0
          0 0 0 0 0 0
          0 0 0 0 0 0
          0 0 0 0 0 0
          0 0 0 0 0 0
          0 0 0 0 0 0
          0 0 0 0 0 0
          0 0 0 0 0 0
          0 0 0 0 0 0
          0 0 0 0 0 0
          0 0 0 0 0 0
          0 0 0 0 0 0
          0 0 0 0 0 0
          0 0 0 0 0 0
          0 0 0 0 0 0
          0 0 0 0 0
        </DataArray>
        <DataArray type="Float64" Name="initial_marker" format="ascii" RangeMin="0" RangeMax="2">
          2 0 2 0 2 2
          1 2 1.25 2 2 2
          2 2 2 0 0 1.5
          1.25 0 0.5 2 2 2
          0 0 0 0 2 2
          2 0 0 0 0 0
          0 0 0 0 0 0
          0 1 1 0 1 1
          0 1 1 2 2 2
          2 0 0.75 0 0.5 0
          0.5 0 1.75 1.5 1.6666666666666667 2
          2 2 2 2 2 2
          2 2 2 2 2 2
          2 2 2 2 1 1.5
          1 1.5 0 1 1 2
          2 2 2 2 2 2
          2 2 2 2 2 2
          2 2 2 2 2 2
          2 2 2 2 2 2
          2 2 2 2 2 2
          2 2 2 2 2 2
          2 2 2 2 2 2
          2 2 2 2 2 1.75
          2 2 1 1.25 0.5 1
          1 0.5 0.75 0 0 0
          2 2 2 0 0 1
          1 0 1 1 0 0.75
          0.5 2 2 2 1.75 0
          0.25 0 0 0 0 0
          1.25 1.3333333333333333 1 2 2 2
          2 2 2 2 2 2
          2 2 2 1.75 1.5 2
          2 2 0.5 1 0 0.5
          0 0.5 0 1.75 1.5 1
          0 0 0 2 2 2
          2 2 2 2 2 2
          2 2 2 2 2 2
          2 2 2 2 2 2
          2 2 2 1.5 2 0
          0.5 0 0 0 0 0
          0 0 0 0 0 0
          0 0 1.5 0 0 0
          0 1.5 0 0 0 0
          1 0.75 0 0 0 0
          0.5 0 0 0 0 0
          0 0 0 0 0 0
          0 0 0 0 0 0
          0 0 1 1 1 2
          2 2 0 1 1 2
          2 2 2 2 2 2
          2 2 2 2 1 1.5
          1 2 2 2 2 2
          2 2 2 2 2 2
          2 2 2 2 2 2
          2 2 2 2 2 2
          2 2 2 2 2 2
          1.5 1.75 0.5 1 2 1.75
          0 0.25 0 0 1 0.3333333333333333
          0.6666666666666666 2 2 2 2 2
          2 2 2 2 2 2
          2 2 2 2 2 2
          2 2 2 2 2 2
          2 2 2 2 2 2
          1.5 2 1.75 1 2 0
          0.5 0 2 2 2
        </DataArray>
        <DataArray type="Float64" Name="markers_norefine" format="ascii" RangeMin="0" RangeMax="0">
          0 0 0 0 0 0
          0 0 0 0 0 0
          0 0 0 0 0 0
          0 0 0 0 0 0
          0 0 0 0 0 0
          0 0 0 0 0 0
          0 0 0 0 0 0
          0 0 0 0 0 0
          0 0 0 0 0 0
          0 0 0 0 0 0
          0 0 0 0 0 0
          0 0 0 0 0 0
          0 0 0 0 0 0
          0 0 0 0 0 0
          0 0 0 0 0 0
          0 0 0 0 0 0
          0 0 0 0 0 0
          0 0 0 0 0 0
          0 0 0 0 0 0
          0 0 0 0 0 0
          0 0 0 0 0 0
          0 0 0 0 0 0
          0 0 0 0 0 0
          0 0 0 0 0 0
          0 0 0 0 0 0
          0 0 0 0 0 0
          0 0 0 0 0 0
          0 0 0 0 0 0
          0 0 0 0 0 0
          0 0 0 0 0 0
          0 0 0 0 0 0
          0 0 0 0 0 0
          0 0 0 0 0 0
          0 0 0 0 0 0
          0 0 0 0 0 0
          0 0 0 0 0 0
          0 0 0 0 0 0
          0 0 0 0 0 0
          0 0 0 0 0 0
          0 0 0 0 0 0
          0 0 0 0 0 0
          0 0 0 0 0 0
          0 0 0 0 0 0
          0 0 0 0 0 0
          0 0 0 0 0 0
          0 0 0 0 0 0
          0 0 0 0 0 0
          0 0 0 0 0 0
          0 0 0 0 0 0
          0 0 0 0 0 0
          0 0 0 0 0 0
          0 0 0 0 0 0
          0 0 0 0 0 0
          0 0 0 0 0 0
          0 0 0 0 0 0
          0 0 0 0 0 0
          0 0 0 0 0 0
          0 0 0 0 0 0
          0 0 0 0 0 0
          0 0 0 0 0 0
          0 0 0 0 0 0
          0 0 0 0 0 0
          0 0 0 0 0 0
          0 0 0 0 0 0
          0 0 0 0 0
        </DataArray>
        <DataArray type="Float64" Name="markers_mustrefine" format="ascii" RangeMin="0" RangeMax="2">
          2 0 2 0 2 2
          1 2 1.25 2 2 2
          2 2 2 0 0 1.5
          1.25 0 0.5 2 2 2
          0 0 0 0 2 2
          2 0 0 0 0 0
          0 0 0 0 0 0
          0 1 1 0 1 1
          0 1 1 2 2 2
          2 0 0.75 0 0.5 0
          0.5 0 1.75 1.5 1.6666666666666667 2
          2 2 2 2 2 2
          2 2 2 2 2 2
          2 2 2 2 1 1.5
          1 1.5 0 1 1 2
          2 2 2 2 2 2
          2 2 2 2 2 2
          2 2 2 2 2 2
          2 2 2 2 2 2
          2 2 2 2 2 2
          2 2 2 2 2 2
          2 2 2 2 2 2
          2 2 2 2 2 1.75
          2 2 1 1.25 0.5 1
          1 0.5 0.75 0 0 0
          2 2 2 0 0 1
          1 0 1 1 0 0.75
          0.5 2 2 2 1.75 0
          0.25 0 0 0 0 0
          1.25 1.3333333333333333 1 2 2 2
          2 2 2 2 2 2
          2 2 2 1.75 1.5 2
          2 2 0.5 1 0 0.5
          0 0.5 0 1.75 1.5 1
          0 0 0 2 2 2
          2 2 2 2 2 2
          2 2 2 2 2 2
          2 2 2 2 2 2
          2 2 2 1.5 2 0
          0.5 0 0 0 0 0
          0 0 0 0 0 0
          0 0 1.5 0 0 0
          0 1.5 0 0 0 0
          1 0.75 0 0 0 0
          0.5 0 0 0 0 0
          0 0 0 0 0 0
          0 0 0 0 0 0
          0 0 1 1 1 2
          2 2 0 1 1 2
          2 2 2 2 2 2
          2 2 2 2 1 1.5
          1 2 2 2 2 2
          2 2 2 2 2 2
          2 2 2 2 2 2
          2 2 2 2 2 2
          2 2 2 2 2 2
          1.5 1.75 0.5 1 2 1.75
          0 0.25 0 0 1 0.3333333333333333
          0.6666666666666666 2 2 2 2 2
          2 2 2 2 2 2
          2 2 2 2 2 2
          2 2 2 2 2 2
          2 2 2 2 2 2
          1.5 2 1.75 1 2 0
          0.5 0 2 2 2
        </DataArray>
        <DataArray type="Float64" Name="gradient_marker" format="ascii" RangeMin="1" RangeMax="1">
          1 1 1 1 1 1
          1 1 1 1 1 1
          1 1 1 1 1 1
          1 1 1 1 1 1
          1 1 1 1 1 1
          1 1 1 1 1 1
          1 1 1 1 1 1
          1 1 1 1 1 1
          1 1 1 1 1 1
          1 1 1 1 1 1
          1 1 1 1 1 1
          1 1 1 1 1 1
          1 1 1 1 1 1
          1 1 1 1 1 1
          1 1 1 1 1 1
          1 1 1 1 1 1
          1 1 1 1 1 1
          1 1 1 1 1 1
          1 1 1 1 1 1
          1 1 1 1 1 1
          1 1 1 1 1 1
          1 1 1 1 1 1
          1 1 1 1 1 1
          1 1 1 1 1 1
          1 1 1 1 1 1
          1 1 1 1 1 1
          1 1 1 1 1 1
          1 1 1 1 1 1
          1 1 1 1 1 1
          1 1 1 1 1 1
          1 1 1 1 1 1
          1 1 1 1 1 1
          1 1 1 1 1 1
          1 1 1 1 1 1
          1 1 1 1 1 1
          1 1 1 1 1 1
          1 1 1 1 1 1
          1 1 1 1 1 1
          1 1 1 1 1 1
          1 1 1 1 1 1
          1 1 1 1 1 1
          1 1 1 1 1 1
          1 1 1 1 1 1
          1 1 1 1 1 1
          1 1 1 1 1 1
          1 1 1 1 1 1
          1 1 1 1 1 1
          1 1 1 1 1 1
          1 1 1 1 1 1
          1 1 1 1 1 1
          1 1 1 1 1 1
          1 1 1 1 1 1
          1 1 1 1 1 1
          1 1 1 1 1 1
          1 1 1 1 1 1
          1 1 1 1 1 1
          1 1 1 1 1 1
          1 1 1 1 1 1
          1 1 1 1 1 1
          1 1 1 1 1 1
          1 1 1 1 1 1
          1 1 1 1 1 1
          1 1 1 1 1 1
          1 1 1 1 1 1
          1 1 1 1 1
        </DataArray>
        <DataArray type="Float64" Name="gradient_matprop_marker" format="ascii" RangeMin="0" RangeMax="0">
          0 0 0 0 0 0
          0 0 0 0 0 0
          0 0 0 0 0 0
          0 0 0 0 0 0
          0 0 0 0 0 0
          0 0 0 0 0 0
          0 0 0 0 0 0
          0 0 0 0 0 0
          0 0 0 0 0 0
          0 0 0 0 0 0
          0 0 0 0 0 0
          0 0 0 0 0 0
          0 0 0 0 0 0
          0 0 0 0 0 0
          0 0 0 0 0 0
          0 0 0 0 0 0
          0 0 0 0 0 0
          0 0 0 0 0 0
          0 0 0 0 0 0
          0 0 0 0 0 0
          0 0 0 0 0 0
          0 0 0 0 0 0
          0 0 0 0 0 0
          0 0 0 0 0 0
          0 0 0 0 0 0
          0 0 0 0 0 0
          0 0 0 0 0 0
          0 0 0 0 0 0
          0 0 0 0 0 0
          0 0 0 0 0 0
          0 0 0 0 0 0
          0 0 0 0 0 0
          0 0 0 0 0 0
          0 0 0 0 0 0
          0 0 0 0 0 0
          0 0 0 0 0 0
          0 0 0 0 0 0
          0 0 0 0 0 0
          0 0 0 0 0 0
          0 0 0 0 0 0
          0 0 0 0 0 0
          0 0 0 0 0 0
          0 0 0 0 0 0
          0 0 0 0 0 0
          0 0 0 0 0 0
          0 0 0 0 0 0
          0 0 0 0 0 0
          0 0 0 0 0 0
          0 0 0 0 0 0
          0 0 0 0 0 0
          0 0 0 0 0 0
          0 0 0 0 0 0
          0 0 0 0 0 0
          0 0 0 0 0 0
          0 0 0 0 0 0
          0 0 0 0 0 0
          0 0 0 0 0 0
          0 0 0 0 0 0
          0 0 0 0 0 0
          0 0 0 0 0 0
          0 0 0 0 0 0
          0 0 0 0 0 0
          0 0 0 0 0 0
          0 0 0 0 0 0
          0 0 0 0 0
        </DataArray>
        <DataArray type="Float64" Name="combo" format="ascii" RangeMin="1" RangeMax="1">
          1 1 1 1 1 1
          1 1 1 1 1 1
          1 1 1 1 1 1
          1 1 1 1 1 1
          1 1 1 1 1 1
          1 1 1 1 1 1
          1 1 1 1 1 1
          1 1 1 1 1 1
          1 1 1 1 1 1
          1 1 1 1 1 1
          1 1 1 1 1 1
          1 1 1 1 1 1
          1 1 1 1 1 1
          1 1 1 1 1 1
          1 1 1 1 1 1
          1 1 1 1 1 1
          1 1 1 1 1 1
          1 1 1 1 1 1
          1 1 1 1 1 1
          1 1 1 1 1 1
          1 1 1 1 1 1
          1 1 1 1 1 1
          1 1 1 1 1 1
          1 1 1 1 1 1
          1 1 1 1 1 1
          1 1 1 1 1 1
          1 1 1 1 1 1
          1 1 1 1 1 1
          1 1 1 1 1 1
          1 1 1 1 1 1
          1 1 1 1 1 1
          1 1 1 1 1 1
          1 1 1 1 1 1
          1 1 1 1 1 1
          1 1 1 1 1 1
          1 1 1 1 1 1
          1 1 1 1 1 1
          1 1 1 1 1 1
          1 1 1 1 1 1
          1 1 1 1 1 1
          1 1 1 1 1 1
          1 1 1 1 1 1
          1 1 1 1 1 1
          1 1 1 1 1 1
          1 1 1 1 1 1
          1 1 1 1 1 1
          1 1 1 1 1 1
          1 1 1 1 1 1
          1 1 1 1 1 1
          1 1 1 1 1 1
          1 1 1 1 1 1
          1 1 1 1 1 1
          1 1 1 1 1 1
          1 1 1 1 1 1
          1 1 1 1 1 1
          1 1 1 1 1 1
          1 1 1 1 1 1
          1 1 1 1 1 1
          1 1 1 1 1 1
          1 1 1 1 1 1
          1 1 1 1 1 1
          1 1 1 1 1 1
          1 1 1 1 1 1
          1 1 1 1 1 1
          1 1 1 1 1
        </DataArray>
        <DataArray type="Float64" Name="dHdT" format="ascii" RangeMin="25.816001775494012" RangeMax="34.0345490182319">
          26.25825378779756 25.85117278519363 26.007549702459308 25.849757761882312 25.931809566264537 25.915196261397444
          25.88368775975793 26.165704860107027 25.906941561495955 29.13065069633531 28.18603893183998 27.384550842962444
          26.955575220084416 26.902789885409263 26.33660088058437 25.831043446961772 25.830449289581818 25.861001874595168
          25.854689452753643 25.8319089229128 25.843570133987544 25.99941253525365 25.960869258653354 25.895413168258838
          25.834655558444968 25.838024751014963 25.83377303873725 25.837769775243515 26.471534899406144 26.29511324798574
          26.03443403147695 25.821589951087176 25.82204169971351 25.824132874671974 25.824488625493736 25.819510043707908
          25.82047990621291 25.820860354470604 25.82249344833984 25.824844376315497 25.821240802728298 25.883769834289282
          25.88222672544216 25.91007505999319 25.907336085778482 25.859585351912166 25.87792279519626 25.876172947860994
          25.878699242162572 25.900397498926576 25.87162621227568 25.99078561212446 25.983870037574103 25.927225358808986
          25.965751448467955 25.875900814583474 25.892656772170227 25.854866779530617 25.866277886629277 25.87508676143684
          25.889115658051075 25.86372644923292 25.94248253208859 25.89984754012744 25.929087768205616 26.153168453322962
          26.136716164343664 26.042085899660023 26.030905483033074 26.09382310965311 26.00175438129626 26.467061739095527
          26.429216836722176 26.23224118860589 26.33255386784819 26.038668224952733 25.964546143029576 25.985161369824798
          25.928864027992564 26.2131119056276 26.08361011993737 26.101813336520472 25.9152667363676 25.942383211560323
          25.88308762272085 25.900914279719036 25.904103428648384 25.924397789434675 25.889409093325682 26.014183928179207
          25.948640321768703 25.96772520397864 27.568685607142264 27.44869124300191 27.15188596152672 28.84864680037048
          27.054139394281254 26.968730670548233 26.663620487593267 26.604845312476648 26.757498027855032 26.45923756296051
          28.12342671678967 27.933914151231072 27.258890765814687 27.48201023794556 26.804759255398746 26.499486068818165
          27.474436129526815 26.509674617989727 26.288185484931304 26.29150247816035 26.137681993274466 26.985163833688606
          26.616752986085963 26.578906784542887 32.05456222338951 31.44225051202397 29.993594182728266 30.090530920404714
          29.65802802820119 28.620047839290045 28.357614361766288 28.682126165117953 27.746685679638937 28.519933031226667
          27.473420637163187 27.706005215770617 27.107209566299353 26.983862518694156 26.61632268123116 26.26867034473999
          26.111019472428907 26.501633734903866 26.12767444097639 26.02540000113609 26.017333732150483 25.950774209051506
          26.29294869791984 26.138854874120995 25.985861372461297 26.013700371019613 25.97817381563069 25.931589542461268
          25.950594499113514 25.89261482692158 25.905748846981645 25.914461859436848 25.92654058664275 25.889351272885133
          26.811065967353763 26.5136035853825 26.291370771367607 25.84468025008109 25.844076689738078 25.855905674511863
          25.85473754106752 25.837931490234837 25.847066517562098 25.846094812040697 25.842663189662648 25.851849894463058
          25.8438708183344 25.890755820663674 25.88776815593026 25.86831890266636 25.88002651486697 25.841299773724465
          25.848583272061447 25.83625901702414 25.841657524047804 25.8407462975187 25.847036162819947 25.840696517946107
          25.870239938818997 25.855269379782456 25.86489404605108 25.962930918488397 25.955642052773694 25.908853232766674
          25.904280754454934 25.936693286049714 25.892398227279475 26.10605289759694 26.088892625816857 25.988569674372872
          26.04497336330585 25.912584649207442 25.877222760401818 25.889524939712437 25.86266845014545 25.99085933487974
          25.92681220839303 25.941034810497772 25.859905301839277 25.87151756600533 25.843810257797177 25.851228497126325
          25.85554314372711 25.864121165960224 25.846477436349637 25.90266175849992 25.871062664950625 25.882597913878097
          25.831732861544175 25.834976727205675 25.830633209272214 26.37488878275724 26.33631627215688 26.170172886283368
          26.1457929596124 26.24014274834999 26.084879684648516 26.849092871753033 26.76771884754064 26.420340845851996
          26.56953519220248 26.126576836371793 26.01294710106253 26.026851496261095 25.94984972501603 26.345629187978176
          26.153013678611597 26.159314328956395 27.63142164856164 27.469020717742914 26.959208375946957 26.85951611354555
          28.831696670779813 28.524795949134013 25.952974519104515 25.904230983607047 26.02793835523169 25.866550147470136