<?xml version="1.0"?>
<VTKFile type="UnstructuredGrid" version="0.1" byte_order="LittleEndian" header_type="UInt32" compressor="vtkZLibDataCompressor">
  <UnstructuredGrid>
    <Piece NumberOfPoints="414" NumberOfCells="226">
      <PointData>
        <DataArray type="Int32" Name="libmesh_node_id" format="ascii" RangeMin="194" RangeMax="3528">
          194 267 336 337 338 341
          342 343 344 462 463 464
          465 466 467 468 469 470
          471 472 473 474 475 683
          684 686 689 691 692 693
          694 695 696 697 698 699
          700 701 702 703 704 813
          817 820 822 826 827 1288
          1289 1291 1294 1306 1309 1311
          1325 1326 1328 1331 1341 1343
          1345 1349 1350 1351 1352 1353
          1355 1356 1357 1358 1359 1360
          1362 1364 1366 1367 1368 1369
          1370 1371 1372 1373 1374 1375
          1376 1377 1378 1379 1380 1381
          1382 1383 1384 1385 1386 1387
          1521 1522 1523 1524 1525 1526
          1527 1528 1529 1530 1531 1532
          1533 1534 1593 1594 1595 1596
          1597 1598 1599 1600 1601 1602
          1603 1604 1605 1606 1607 1608
          1609 1610 1611 1612 1613 1614
          1615 1616 1645 1655 1659 2960
          2961 2962 2963 2978 2979 2980
          2991 2992 2993 2994 2996 2999
          3009 3011 3013 3094 3095 3096
          3105 3106 3107 3109 3110 3201
          3202 3204 3207 3217 3219 3221
          3235 3236 3238 3241 3251 3253
          3255 3321 3322 3323 3325 3326
          3334 3335 3336 3337 3338 3339
          3340 3341 3342 3343 3352 3353
          3354 3356 3357 3365 3366 3367
          3368 3369 3370 3371 3382 3383
          3384 3385 3393 3394 3395 3396
          3397 3398 3399 3400 3401 3402
          3403 3404 3405 3406 3407 3408
          3409 3410 3411 3412 3413 3414
          3415 3416 3417 3418 3419 3420
          3421 3422 3423 3424 3425 3426
          3427 3428 3429 3430 3431 3432
          3433 3434 3435 3436 3437 3438
          3439 3440 3441 3442 3443 3444
          3445 3446 3447 3448 3449 3450
          3451 3452 3453 3454 3455 3456
          3457 3458 3459 3460 3461 3462
          3463 3464 3465 3466 3467 3468
          3469 3470 3471 3472 3473 3474
          3475 3476 3477 3478 3479 3480
          3481 3482 3483 3484 3485 3486
          3487 3488 3489 3490 3491 3492
          3493 3494 3495 3496 3497 3498
          3499 3500 3501 3502 3503 3504
          3505 3506 3507 3508 3509 3510
          3511 3512 3513 3514 3515 3516
          3517 3518 3519 3520 3521 3522
          3523 3524 3525 3526 3527 3528
          259 262 263 260 196 269
          268 248 249 255 1304 1308
          1310 1312 1644 1342 1654 1346
          1658 2995 2997 2998 3000 3008
          3010 3012 3014 3104 3085 3098
          3100 3108 3102 3199 3200 3203
          3205 3206 3208 3216 3218 3220
          3222 3233 3234 3237 3239 3240
          3242 3250 3252 3254 3256 3320
          3314 3316 3324 3318 1340 3119
          3328 3330 3332 3351 3345 3347
          3355 3349 1344 3359 3361 3363
        </DataArray>
        <DataArray type="Float64" Name="bounds" format="ascii" RangeMin="0" RangeMax="0">
          0 0 0 0 0 0
          0 0 0 0 0 0
          0 0 0 0 0 0
          0 0 0 0 0 0
          0 0 0 0 0 0
          0 0 0 0 0 0
          0 0 0 0 0 0
          0 0 0 0 0 0
          0 0 0 0 0 0
          0 0 0 0 0 0
          0 0 0 0 0 0
          0 0 0 0 0 0
          0 0 0 0 0 0
          0 0 0 0 0 0
          0 0 0 0 0 0
          0 0 0 0 0 0
          0 0 0 0 0 0
          0 0 0 0 0 0
          0 0 0 0 0 0
          0 0 0 0 0 0
          0 0 0 0 0 0
          0 0 0 0 0 0
          0 0 0 0 0 0
          0 0 0 0 0 0
          0 0 0 0 0 0
          0 0 0 0 0 0
          0 0 0 0 0 0
          0 0 0 0 0 0
          0 0 0 0 0 0
          0 0 0 0 0 0
          0 0 0 0 0 0
          0 0 0 0 0 0
          0 0 0 0 0 0
          0 0 0 0 0 0
          0 0 0 0 0 0
          0 0 0 0 0 0
          0 0 0 0 0 0
          0 0 0 0 0 0
          0 0 0 0 0 0
          0 0 0 0 0 0
          0 0 0 0 0 0
          0 0 0 0 0 0
          0 0 0 0 0 0
          0 0 0 0 0 0
          0 0 0 0 0 0
          0 0 0 0 0 0
          0 0 0 0 0 0
          0 0 0 0 0 0
          0 0 0 0 0 0
          0 0 0 0 0 0
          0 0 0 0 0 0
          0 0 0 0 0 0
          0 0 0 0 0 0
          0 0 0 0 0 0
          0 0 0 0 0 0
          0 0 0 0 0 0
          0 0 0 0 0 0
          0 0 0 0 0 0
          0 0 0 0 0 0
          0 0 0 0 0 0
          0 0 0 0 0 0
          0 0 0 0 0 0
          0 0 0 0 0 0
          0 0 0 0 0 0
          0 0 0 0 0 0
          0 0 0 0 0 0
          0 0 0 0 0 0
          0 0 0 0 0 0
          0 0 0 0 0 0
        </DataArray>
        <DataArray type="Float64" Name="gradient_error" format="ascii" RangeMin="6.122156904479965e-12" RangeMax="9.799672750583167e-10">
          2.302816578311434e-11 7.149602836754216e-11 3.23407229444131e-10 4.0878168157870736e-11 1.6107462089493456e-10 3.958916376130242e-10
          4.813364742436484e-10 1.231598507547684e-10 7.705302695154017e-11 6.778378224605716e-11 8.521033542165935e-11 4.015837498634803e-11
          7.216044039587647e-11 6.267893270557114e-11 2.924073687727844e-11 5.414522631649874e-11 1.0263688859726155e-10 1.028147560400734e-10
          7.904971575571904e-11 1.2696254965876036e-11 5.882881874064024e-11 4.561151992742633e-11 1.0299262348288525e-10 2.2924500569401662e-10
          8.141768198303111e-11 1.1582905932761347e-10 1.5209085978680378e-10 3.354211075504648e-11 5.6693590240782187e-11 2.42131744312432e-11
          4.19867229628464e-11 3.8801598314445093e-11 1.7622078349926163e-11 3.506887626544696e-11 9.074818131079339e-11 8.902145910342626e-11
          5.708683580116146e-11 4.052994034329602e-11 5.681703830457708e-11 4.093965611827907e-11 9.964079356993813e-11 2.2046566236857918e-10
          2.4244603179284757e-10 1.1588436531962526e-10 7.650032276659213e-11 1.2885178581974704e-10 7.626727630087236e-11 9.574884858677681e-11
          7.509926981692093e-11 4.5619581854374295e-11 1.7304660403028343e-10 6.800145059849661e-11 9.385686494688888e-11 6.589074271059899e-11
          3.992607025569787e-10 2.9627253827110116e-10 1.2963860639476015e-10 3.5625729268058744e-10 6.282083078527121e-11 8.586698831075431e-11
          7.066952072075495e-11 3.3515363229080197e-11 2.7970535257394195e-11 2.778347682825426e-11 2.539629561856564e-11 2.202536939523605e-11
          2.950347914481301e-11 2.3494939257923567e-11 5.2424799757879275e-11 4.083646883032919e-11 1.99124208632714e-11 3.1075603192196274e-11
          3.5933654676763306e-11 2.74068290841014e-11 3.4789287610917704e-11 2.15039297589452e-11 4.2339601574650697e-11 3.9978682373240555e-11
          5.1438072148698166e-11 8.769713132836113e-11 6.685827084913785e-11 3.552183226208803e-11 2.8779082603644736e-11 4.620515893456189e-11
          3.8789033510500234e-11 1.0454710998479003e-10 7.919451266306496e-11 3.2688649107083107e-11 5.2749885896822593e-11 5.638560100363128e-11
          5.3478278080601216e-11 6.597272685058762e-11 3.3769301759643494e-11 6.210252008987983e-11 5.871857123667559e-11 7.18317349027682e-11
          1.3139040164022105e-11 1.4808915990203732e-11 1.5732847730548713e-11 1.641852038727446e-11 1.1059542780433963e-11 8.527330489008067e-12
          1.0859459770599176e-11 1.6478791816385357e-11 1.7104193044000207e-11 1.3191589052190284e-11 1.8326655297075317e-11 1.8028124784345185e-11
          1.0659376760764388e-11 1.7729594271615056e-11 1.0960265744313489e-11 9.918398760169479e-12 1.4304850771845837e-11 1.272391658373403e-11
          7.002645886898137e-12 8.610011601619368e-12 8.288301581802172e-12 8.87653177602547e-12 1.1142982395622223e-11 7.966591561984976e-12
          2.2704800787089868e-11 1.9668176239709738e-11 1.1708004619042167e-11 1.663155169232961e-11 3.1415743459161856e-11 2.6900501692481317e-11
          1.6427421006461488e-11 1.5409211074138245e-11 2.238525992580078e-11 1.4391001141815e-11 3.5071321143522164e-11 2.999408531284174e-11
          1.6976370186898365e-11 2.4916849482161314e-11 8.464287078977991e-11 1.0527162776313467e-10 1.138786788232414e-10 1.8573564745553875e-10
          1.7402538629994379e-10 9.000112652848638e-11 1.4385173395029084e-10 1.0702482780074755e-10 5.6477768883061586e-11 7.31635805184512e-11
          3.0309138652928154e-10 2.8245706262783184e-10 1.5337081046827434e-10 1.4339588240793834e-10 1.1777106510668584e-10 2.1349396162422922e-10
          8.65617391601683e-11 5.81286439972571e-11 1.2421353005176634e-10 4.626444886406792e-11 2.8737613741597415e-11 3.486304953649564e-11
          3.6427073235942976e-11 5.006603622954623e-11 2.7599160931939018e-11 5.0021188188233136e-11 5.976732783404606e-11 3.162854644718674e-10
          2.9391323037429435e-10 2.360688838299477e-10 3.707530872002041e-10 1.6637912264471958e-10 1.0652137950241644e-10 2.0614990455135341e-10
          4.59363106979119e-10 4.265916868820802e-10 3.4014169113015563e-10 4.470532837784175e-10 2.3493735429456515e-10 1.4610901058185085e-10
          2.4548026574442906e-10 6.412282887821105e-11 6.815612817708541e-11 4.3292909353882787e-11 7.683592145244645e-11 8.139105235923661e-11
          3.4634817917592464e-11 3.838491472842856e-11 2.7348875862054403e-11 2.8968795994162632e-11 2.6965147177148827e-11 2.8700542256226653e-11
          2.2787609242385396e-11 4.4804303893216e-11 3.2696231865820975e-11 3.222240824531185e-11 8.565816602035042e-11 8.995471178692787e-11
          5.643344173282239e-11 8.879134635579228e-11 9.298227048460523e-11 4.893474764039969e-11 3.578303616077404e-11 3.498144304439401e-11
          2.7285555104800064e-11 5.039589903363207e-11 3.676232471617699e-11 3.59540069334688e-11 4.8336320245997756e-11 4.561410818471281e-11
          2.5738929983562538e-11 3.845970983199503e-11 2.916986442828128e-11 1.6941665164104016e-11 2.2670543075894178e-11 7.571197024848834e-11
          7.105467570667784e-11 3.61223455612296e-11 3.402624145394653e-11 5.900467744058756e-11 2.8583905984646658e-11 1.1092585314958494e-10
          1.0367519591159953e-10 4.919120332263375e-11 8.498772436607295e-11 1.3172908970510343e-11 1.2467817415622754e-11 1.6771371961315468e-11
          1.5848303924342923e-11 8.615242427904752e-12 1.0920026018771024e-11 1.0345754327868106e-11 1.0698374681953764e-11 1.3484533055172129e-11
          8.839075277910675e-12 2.4367249207139755e-11 2.295074416186684e-11 1.4477130732631043e-11 1.9287752410949086e-11 4.419478972547734e-11
          2.1692887900159492e-11 3.029768414339123e-11 1.765808551515993e-11 6.248262374654115e-11 3.0395098160610965e-11 4.21107930393633e-11
          8.428669429148305e-12 1.0386250268426294e-11 6.122156904479965e-12 7.153148916965081e-12 7.223315355124245e-12 8.728670313878708e-12
          6.399629915074e-12 1.4481357510246331e-11 9.616055726627887e-12 1.1921449315188412e-11 1.607720050659865e-11 1.9388013541384044e-11
          1.2378674213449925e-11 1.4081233488382606e-11 1.2767182417515527e-11 1.4958264530632513e-11 1.1484412786663658e-11 2.6233783329694788e-11
          1.8204437573680565e-11 1.966031801521347e-11 1.51362719651991e-10 1.410827845916873e-10 7.060939457457493e-11 6.60527627993504e-11
          1.1454013911393897e-10 5.429796084410786e-11 1.8971178916541506e-10 1.7657574191163833e-10 8.188214897582062e-11 1.4247500436777943e-10
          3.235884571552728e-11 3.037686931549201e-11 2.023347992079437e-11 1.904834855931947e-11 2.5282439335978662e-11 1.589828591372513e-11
          3.975875195252608e-11 3.72359521298338e-11 2.3132041826057657e-11 3.0773565406882987e-11 8.274553346781002e-11 3.978933480439995e-11
          5.452281893326404e-11 3.0979666549464545e-11 1.0164578229097465e-10 4.843368184257572e-11 6.586550230377027e-11 1.871880631769551e-11
          1.2363709601617245e-11 1.5267626878890434e-11 1.0794064573628797e-11 2.253738008949493e-11 1.475429408664193e-11 1.8240781672365423e-11
          2.1748458008842405e-10 2.0231850787829218e-10 1.0003679212676011e-10 9.331552254806526e-11 1.6272545375841623e-10 7.589581465718515e-11
          2.276457409896163e-10 2.117482658715161e-10 9.749656187201256e-11 1.7014683692700152e-10 4.5105842149220646e-11 4.219506910802334e-11
          2.7857845271834456e-11 2.6123778620981067e-11 3.470838925866362e-11 2.1526053536606447e-11 4.704720836228478e-11 4.39992746966925e-11
          2.7202175471055124e-11 3.61297129820109e-11 1.15226270479995e-10 5.457158251419748e-11 7.388732724144803e-11 4.1577782461309405e-11
          1.2016766333978689e-10 5.677800008693303e-11 7.676595729530402e-11 2.5185762584216023e-11 1.6381011275626957e-11 2.0239042717930858e-11
          1.4099627448168704e-11 2.611549371204483e-11 1.693288305739897e-11 2.0922902491168082e-11 3.317552870465146e-11 2.2810512621595623e-11
          2.451905778190052e-11 1.7639783484217747e-11 3.936717517284503e-11 2.6803550014083963e-11 2.8784596242401563e-11 4.3680307073253914e-11
          2.960585564764731e-11 3.1740028774929605e-11 2.2369941278156607e-11 4.5208581126900556e-11 3.060055412627209e-11 3.2777691242179685e-11
          2.3907357569910295e-10 1.557815467612863e-10 1.6259541916503984e-10 3.2000924426216545e-10 5.789979873146259e-10 1.4694394019494275e-10
          2.6484695010401624e-10 2.705016997066382e-10 9.634385892667253e-10 4.0329257070476763e-10 1.1195267290650028e-10 1.4289091380748453e-10
          1.1464214978630031e-10 1.35213687514764e-10 1.4294906139332542e-10 1.4910037643201637e-10 1.7795386663911633e-10 1.6351238487938033e-10
          1.9238476662593632e-10 2.2954749423881543e-10 4.596350631322352e-10 4.2688957114153764e-10 3.425217293799323e-10 1.6572695332424208e-10
          1.0949221425694972e-10 2.4110774100613496e-10 1.543333145687302e-10 6.743440392310512e-11 8.295960357907619e-11 1.220855007124749e-10
          8.247530367692857e-11 9.292463707813296e-11 1.689038518138043e-10 6.397338108110137e-10 5.933836145325456e-10 4.724267340823777e-10
          8.111597499354405e-10 7.526092519689678e-10 5.971814501244789e-10 3.2648183689410815e-10 2.0371251540368988e-10 4.0766201246022134e-10
          2.495836287888883e-10 9.348763565300444e-10 8.681619790443581e-10 6.883410439511603e-10 9.799672750583167e-10 9.104371840017628e-10
          7.218613205897418e-10 4.667343016367622e-10 2.82480758758131e-10 4.884299609855083e-10 2.9447355412299544e-10 1.2026218804169078e-10
          2.1837623946061636e-10 1.2143088998702955e-10 1.447716420405748e-10 2.632519858875129e-10 1.4442120974486735e-10 5.989427736379885e-11
          6.667410925032185e-11 4.8187935942393444e-11 7.814515398202092e-11 1.6187438596191859e-10 2.951647535415524e-10 1.6001098486439472e-10
          1.68014742172332e-10 3.0668913903139156e-10 1.6557258350800923e-10 8.55043366752145e-11 5.945410257436524e-11 8.8198117644489e-11
        </DataArray>
        <DataArray type="Float64" Name="gradient_matprop_error" format="ascii" RangeMin="0" RangeMax="0">
          0 0 0 0 0 0
          0 0 0 0 0 0
          0 0 0 0 0 0
          0 0 0 0 0 0
          0 0 0 0 0 0
          0 0 0 0 0 0
          0 0 0 0 0 0
          0 0 0 0 0 0
          0 0 0 0 0 0
          0 0 0 0 0 0
          0 0 0 0 0 0
          0 0 0 0 0 0
          0 0 0 0 0 0
          0 0 0 0 0 0
          0 0 0 0 0 0
          0 0 0 0 0 0
          0 0 0 0 0 0
          0 0 0 0 0 0
          0 0 0 0 0 0
          0 0 0 0 0 0
          0 0 0 0 0 0
          0 0 0 0 0 0
          0 0 0 0 0 0
          0 0 0 0 0 0
          0 0 0 0 0 0
          0 0 0 0 0 0
          0 0 0 0 0 0
          0 0 0 0 0 0
          0 0 0 0 0 0
          0 0 0 0 0 0
          0 0 0 0 0 0
          0 0 0 0 0 0
          0 0 0 0 0 0
          0 0 0 0 0 0
          0 0 0 0 0 0
          0 0 0 0 0 0
          0 0 0 0 0 0
          0 0 0 0 0 0
          0 0 0 0 0 0
          0 0 0 0 0 0
          0 0 0 0 0 0
          0 0 0 0 0 0
          0 0 0 0 0 0
          0 0 0 0 0 0
          0 0 0 0 0 0
          0 0 0 0 0 0
          0 0 0 0 0 0
          0 0 0 0 0 0
          0 0 0 0 0 0
          0 0 0 0 0 0
          0 0 0 0 0 0
          0 0 0 0 0 0
          0 0 0 0 0 0
          0 0 0 0 0 0
          0 0 0 0 0 0
          0 0 0 0 0 0
          0 0 0 0 0 0
          0 0 0 0 0 0
          0 0 0 0 0 0
          0 0 0 0 0 0
          0 0 0 0 0 0
          0 0 0 0 0 0
          0 0 0 0 0 0
          0 0 0 0 0 0
          0 0 0 0 0 0
          0 0 0 0 0 0
          0 0 0 0 0 0
          0 0 0 0 0 0
          0 0 0 0 0 0
        </DataArray>
        <DataArray type="Float64" Name="initial_marker" format="ascii" RangeMin="0" RangeMax="2">
          0 0 0 0 0 0
          2 0 0 0 0 0
          0 0 0 0 0 0
          0 0 0 0 0 2
          2 0 2 0 0 0.5
          0 0 0 0 0 0
          0 1 0 0 0 0
          0 0 0 0 0 2
          2 1 2 0 0 0.25
          2 2 2 2 1 0
          1 1 0.5 0 0 0
          0 0 2 2 0.25 1
          0 0 0 0 0 0
          0 2 2 1 1 1.5
          0 2 2 1 1.5 0
          0 0 0 0 0 0
          0 0 0 0 0 0
          0 0 0 0 0 0
          0 0 0 0 0 0
          0 0 0 0 0 0
          0 0 0 0 0 0
          0 0 0 0 0 0
          0 0 0 0 0 2
          2 2 2 2 1.75 1.75
          2 2 2 2 2 2
          2 1.75 2 0.75 0.3333333333333333 0
          0.75 0.5 0 1.25 1 2
          2 2 2 2 2 2
          2 2 2 2 2 2
          2 1.75 1.25 1 2 1.5
          0 0.25 0 0 0 0
          0 0.5 0 0 2 1.5
          1.3333333333333333 2 1.5 0.5 0 0
          0 0.5 0 0 2 1.75
          1 1.5 1 0.3333333333333333 0.3333333333333333 2
          2 1.5 1.5 2 1.5 2
          2 2 2 0 0 0.5
          0.5 0 0 0 0 0.5
          0 1.5 1.5 1 1.25 1.75
          1 1 0.3333333333333333 2 1.75 1.75
          0 0.25 0 0 0 0
          0 0.75 0 0.5 0 0.25
          0 0 0 0 0 0.75
          0.5 0 2 2 2 2
          2 2 2 2 2 2
          2 2 2 2 1.75 1.5
          2 2 2 2 2 2
          2 2 2 2 2 1.25
          0.5 1 0 1.5 1 1
          2 2 2 2 2 2
          2 2 2 2 2 2
          2 2 2 2 2 2
          2 2 2 2 2 2
          2 2 2 1.5 1 1
          0 1.5 1 1 1.25 1
          0.5 0 1.5 1 1 1.5
          1 1 0 1.5 1 1
          0 0 0 0 0 0
          0 0 0 0 0.25 0
          1.25 0 0 0 0 0
          0 2 2 2 2 2
          2 2 2 1.25 1.25 1.75
          1 1.75 2 2 2 2
          2 2 2 2 2 2
          2 2 2 2 2 2
          2 2 2 2 2 2
          2 1.75 2 2 2 0.3333333333333333
          0.75 0 1 2 2 2
          2 2 2 1 0 1
        </DataArray>
        <DataArray type="Float64" Name="markers_norefine" format="ascii" RangeMin="0" RangeMax="0">
          0 0 0 0 0 0
          0 0 0 0 0 0
          0 0 0 0 0 0
          0 0 0 0 0 0
          0 0 0 0 0 0
          0 0 0 0 0 0
          0 0 0 0 0 0
          0 0 0 0 0 0
          0 0 0 0 0 0
          0 0 0 0 0 0
          0 0 0 0 0 0
          0 0 0 0 0 0
          0 0 0 0 0 0
          0 0 0 0 0 0
          0 0 0 0 0 0
          0 0 0 0 0 0
          0 0 0 0 0 0
          0 0 0 0 0 0
          0 0 0 0 0 0
          0 0 0 0 0 0
          0 0 0 0 0 0
          0 0 0 0 0 0
          0 0 0 0 0 0
          0 0 0 0 0 0
          0 0 0 0 0 0
          0 0 0 0 0 0
          0 0 0 0 0 0
          0 0 0 0 0 0
          0 0 0 0 0 0
          0 0 0 0 0 0
          0 0 0 0 0 0
          0 0 0 0 0 0
          0 0 0 0 0 0
          0 0 0 0 0 0
          0 0 0 0 0 0
          0 0 0 0 0 0
          0 0 0 0 0 0
          0 0 0 0 0 0
          0 0 0 0 0 0
          0 0 0 0 0 0
          0 0 0 0 0 0
          0 0 0 0 0 0
          0 0 0 0 0 0
          0 0 0 0 0 0
          0 0 0 0 0 0
          0 0 0 0 0 0
          0 0 0 0 0 0
          0 0 0 0 0 0
          0 0 0 0 0 0
          0 0 0 0 0 0
          0 0 0 0 0 0
          0 0 0 0 0 0
          0 0 0 0 0 0
          0 0 0 0 0 0
          0 0 0 0 0 0
          0 0 0 0 0 0
          0 0 0 0 0 0
          0 0 0 0 0 0
          0 0 0 0 0 0
          0 0 0 0 0 0
          0 0 0 0 0 0
          0 0 0 0 0 0
          0 0 0 0 0 0
          0 0 0 0 0 0
          0 0 0 0 0 0
          0 0 0 0 0 0
          0 0 0 0 0 0
          0 0 0 0 0 0
          0 0 0 0 0 0
        </DataArray>
        <DataArray type="Float64" Name="markers_mustrefine" format="ascii" RangeMin="0" RangeMax="2">
          0 0 0 0 0 0
          2 0 0 0 0 0
          0 0 0 0 0 0
          0 0 0 0 0 2
          2 0 2 0 0 0.5
          0 0 0 0 0 0
          0 1 0 0 0 0
          0 0 0 0 0 2
          2 1 2 0 0 0.25
          2 2 2 2 1 0
          1 1 0.5 0 0 0
          0 0 2 2 0.25 1
          0 0 0 0 0 0
          0 2 2 1 1 1.5
          0 2 2 1 1.5 0
          0 0 0 0 0 0
          0 0 0 0 0 0
          0 0 0 0 0 0
          0 0 0 0 0 0
          0 0 0 0 0 0
          0 0 0 0 0 0
          0 0 0 0 0 0
          0 0 0 0 0 2
          2 2 2 2 1.75 1.75
          2 2 2 2 2 2
          2 1.75 2 0.75 0.3333333333333333 0
          0.75 0.5 0 1.25 1 2
          2 2 2 2 2 2
          2 2 2 2 2 2
          2 1.75 1.25 1 2 1.5
          0 0.25 0 0 0 0
          0 0.5 0 0 2 1.5
          1.3333333333333333 2 1.5 0.5 0 0
          0 0.5 0 0 2 1.75
          1 1.5 1 0.3333333333333333 0.3333333333333333 2
          2 1.5 1.5 2 1.5 2
          2 2 2 0 0 0.5
          0.5 0 0 0 0 0.5
          0 1.5 1.5 1 1.25 1.75
          1 1 0.3333333333333333 2 1.75 1.75
          0 0.25 0 0 0 0
          0 0.75 0 0.5 0 0.25
          0 0 0 0 0 0.75
          0.5 0 2 2 2 2
          2 2 2 2 2 2
          2 2 2 2 1.75 1.5
          2 2 2 2 2 2
          2 2 2 2 2 1.25
          0.5 1 0 1.5 1 1
          2 2 2 2 2 2
          2 2 2 2 2 2
          2 2 2 2 2 2
          2 2 2 2 2 2
          2 2 2 1.5 1 1
          0 1.5 1 1 1.25 1
          0.5 0 1.5 1 1 1.5
          1 1 0 1.5 1 1
          0 0 0 0 0 0
          0 0 0 0 0.25 0
          1.25 0 0 0 0 0
          0 2 2 2 2 2
          2 2 2 1.25 1.25 1.75
          1 1.75 2 2 2 2
          2 2 2 2 2 2
          2 2 2 2 2 2
          2 2 2 2 2 2
          2 1.75 2 2 2 0.3333333333333333
          0.75 0 1 2 2 2
          2 2 2 1 0 1
        </DataArray>
        <DataArray type="Float64" Name="gradient_marker" format="ascii" RangeMin="1" RangeMax="1">
          1 1 1 1 1 1
          1 1 1 1 1 1
          1 1 1 1 1 1
          1 1 1 1 1 1
          1 1 1 1 1 1
          1 1 1 1 1 1
          1 1 1 1 1 1
          1 1 1 1 1 1
          1 1 1 1 1 1
          1 1 1 1 1 1
          1 1 1 1 1 1
          1 1 1 1 1 1
          1 1 1 1 1 1
          1 1 1 1 1 1
          1 1 1 1 1 1
          1 1 1 1 1 1
          1 1 1 1 1 1
          1 1 1 1 1 1
          1 1 1 1 1 1
          1 1 1 1 1 1
          1 1 1 1 1 1
          1 1 1 1 1 1
          1 1 1 1 1 1
          1 1 1 1 1 1
          1 1 1 1 1 1
          1 1 1 1 1 1
          1 1 1 1 1 1
          1 1 1 1 1 1
          1 1 1 1 1 1
          1 1 1 1 1 1
          1 1 1 1 1 1
          1 1 1 1 1 1
          1 1 1 1 1 1
          1 1 1 1 1 1
          1 1 1 1 1 1
          1 1 1 1 1 1
          1 1 1 1 1 1
          1 1 1 1 1 1
          1 1 1 1 1 1
          1 1 1 1 1 1
          1 1 1 1 1 1
          1 1 1 1 1 1
          1 1 1 1 1 1
          1 1 1 1 1 1
          1 1 1 1 1 1
          1 1 1 1 1 1
          1 1 1 1 1 1
          1 1 1 1 1 1
          1 1 1 1 1 1
          1 1 1 1 1 1
          1 1 1 1 1 1
          1 1 1 1 1 1
          1 1 1 1 1 1
          1 1 1 1 1 1
          1 1 1 1 1 1
          1 1 1 1 1 1
          1 1 1 1 1 1
          1 1 1 1 1 1
          1 1 1 1 1 1
          1 1 1 1 1 1
          1 1 1 1 1 1
          1 1 1 1 1 1
          1 1 1 1 1 1
          1 1 1 1 1 1
          1 1 1 1 1 1
          1 1 1 1 1 1
          1 1 1 1 1 1
          1 1 1 1 1 1
          1 1 1 1 1 1
        </DataArray>
        <DataArray type="Float64" Name="gradient_matprop_marker" format="ascii" RangeMin="0" RangeMax="0">
          0 0 0 0 0 0
          0 0 0 0 0 0
          0 0 0 0 0 0
          0 0 0 0 0 0
          0 0 0 0 0 0
          0 0 0 0 0 0
          0 0 0 0 0 0
          0 0 0 0 0 0
          0 0 0 0 0 0
          0 0 0 0 0 0
          0 0 0 0 0 0
          0 0 0 0 0 0
          0 0 0 0 0 0
          0 0 0 0 0 0
          0 0 0 0 0 0
          0 0 0 0 0 0
          0 0 0 0 0 0
          0 0 0 0 0 0
          0 0 0 0 0 0
          0 0 0 0 0 0
          0 0 0 0 0 0
          0 0 0 0 0 0
          0 0 0 0 0 0
          0 0 0 0 0 0
          0 0 0 0 0 0
          0 0 0 0 0 0
          0 0 0 0 0 0
          0 0 0 0 0 0
          0 0 0 0 0 0
          0 0 0 0 0 0
          0 0 0 0 0 0
          0 0 0 0 0 0
          0 0 0 0 0 0
          0 0 0 0 0 0
          0 0 0 0 0 0
          0 0 0 0 0 0
          0 0 0 0 0 0
          0 0 0 0 0 0
          0 0 0 0 0 0
          0 0 0 0 0 0
          0 0 0 0 0 0
          0 0 0 0 0 0
          0 0 0 0 0 0
          0 0 0 0 0 0
          0 0 0 0 0 0
          0 0 0 0 0 0
          0 0 0 0 0 0
          0 0 0 0 0 0
          0 0 0 0 0 0
          0 0 0 0 0 0
          0 0 0 0 0 0
          0 0 0 0 0 0
          0 0 0 0 0 0
          0 0 0 0 0 0
          0 0 0 0 0 0
          0 0 0 0 0 0
          0 0 0 0 0 0
          0 0 0 0 0 0
          0 0 0 0 0 0
          0 0 0 0 0 0
          0 0 0 0 0 0
          0 0 0 0 0 0
          0 0 0 0 0 0
          0 0 0 0 0 0
          0 0 0 0 0 0
          0 0 0 0 0 0
          0 0 0 0 0 0
          0 0 0 0 0 0
          0 0 0 0 0 0
        </DataArray>
        <DataArray type="Float64" Name="combo" format="ascii" RangeMin="1" RangeMax="1">
          1 1 1 1 1 1
          1 1 1 1 1 1
          1 1 1 1 1 1
          1 1 1 1 1 1
          1 1 1 1 1 1
          1 1 1 1 1 1
          1 1 1 1 1 1
          1 1 1 1 1 1
          1 1 1 1 1 1
          1 1 1 1 1 1
          1 1 1 1 1 1
          1 1 1 1 1 1
          1 1 1 1 1 1
          1 1 1 1 1 1
          1 1 1 1 1 1
          1 1 1 1 1 1
          1 1 1 1 1 1
          1 1 1 1 1 1
          1 1 1 1 1 1
          1 1 1 1 1 1
          1 1 1 1 1 1
          1 1 1 1 1 1
          1 1 1 1 1 1
          1 1 1 1 1 1
          1 1 1 1 1 1
          1 1 1 1 1 1
          1 1 1 1 1 1
          1 1 1 1 1 1
          1 1 1 1 1 1
          1 1 1 1 1 1
          1 1 1 1 1 1
          1 1 1 1 1 1
          1 1 1 1 1 1
          1 1 1 1 1 1
          1 1 1 1 1 1
          1 1 1 1 1 1
          1 1 1 1 1 1
          1 1 1 1 1 1
          1 1 1 1 1 1
          1 1 1 1 1 1
          1 1 1 1 1 1
          1 1 1 1 1 1
          1 1 1 1 1 1
          1 1 1 1 1 1
          1 1 1 1 1 1
          1 1 1 1 1 1
          1 1 1 1 1 1
          1 1 1 1 1 1
          1 1 1 1 1 1
          1 1 1 1 1 1
          1 1 1 1 1 1
          1 1 1 1 1 1
          1 1 1 1 1 1
          1 1 1 1 1 1
          1 1 1 1 1 1
          1 1 1 1 1 1
          1 1 1 1 1 1
          1 1 1 1 1 1
          1 1 1 1 1 1
          1 1 1 1 1 1
          1 1 1 1 1 1
          1 1 1 1 1 1
          1 1 1 1 1 1
          1 1 1 1 1 1
          1 1 1 1 1 1
          1 1 1 1 1 1
          1 1 1 1 1 1
          1 1 1 1 1 1
          1 1 1 1 1 1
        </DataArray>
        <DataArray type="Float64" Name="dHdT" format="ascii" RangeMin="25.81352801563338" RangeMax="26.034271920727367">
          25.81411606174192 25.813604258102682 25.814220583499946 25.813887891543523 25.81415059953129 25.81440517052307
          25.91808724740477 25.818361074983322 25.8141211802129 25.81370099946212 25.8137550271925 25.813673304311465
          25.813742250314792 25.813665635491287 25.81362640795422 25.813662186214014 25.813809054922874 25.813804012293495
          25.813697964473807 25.81365058071095 25.813731205508684 25.81365873693674 25.813798969664113 25.86037415538461
          25.830278355752338 25.81768583052463 25.844047088766896 25.81466485897602 25.814639059325003 25.81588176076119
          25.815097893428348 25.81402824122786 25.813987039437514 25.814049493237988 25.814776206983556 25.81483532666034
          25.81417910515532 25.817564929941575 25.815759197644258 25.81412516593044 25.814947875543638 25.81679500193408
          25.81704019544988 25.814949470983347 25.814399588134673 25.814995318984217 25.81438919218241 25.832887331960958
          25.828888443402935 25.82203306969225 25.848306501985405 25.818467201997755 25.817918144505512 25.82059792853359
          25.8983766739114 25.87373835418339 25.83963383047783 25.886554710514197 25.822863135822715 25.818885383942256
          25.82398501136995 25.818328270973137 25.817567682060677 25.814816250344947 25.81508866986335 25.814956810909642
          25.816312833323565 25.814931579793452 25.824267745288388 25.82196838219229 25.81556314815448 25.81800153329291
          25.815809095123083 25.815147557520028 25.815717795486712 25.815095599633597 25.81624341365056 25.815420553020846
          25.81605874701229 25.831580017898393 25.827134477513436 25.817016453880004 25.816433004851362 25.820007565457423
          25.815915205868198 25.83524540881364 25.829662109403838 25.81685036335575 25.820957645851703 25.816898123026625
          25.81582345862272 25.81647980748133 25.815381294929573 25.81721633854963 25.81602876152308 25.81669055200247
          25.81373038752968 25.813752951657268 25.81374929926987 25.813765874545354 25.813684266672524 25.813674870173386
          25.813688484519183 25.813775515784847 25.813782449820835 25.81370209886498 25.813768211010057 25.81377879743344
          25.81369270236584 25.81378938385682 25.814169416433288 25.814158697222744 25.814279570842416 25.814259643845347
          25.813978503487014 25.81401586313908 25.81402841956878 25.8141479780122 25.81423971684827 25.81404097599848
          25.814568220988736 25.81451054301048 25.81415255565739 25.81445286503223 25.814904007844987 25.814796006832854
          25.814304686337042 25.814292681702703 25.81468800582073 25.81428067706836 25.815061298964046 25.81493151811269
          25.81435858774117 25.81480173726134 25.81798312057137 25.81855643720762 25.81880034242736 25.850995827745336
          25.84861209315531 25.831755479857357 25.842624070192024 25.835436147890327 25.825373839767465 25.82904233920495
          25.875031892155818 25.870571915951913 25.844490442500252 25.842413879099375 25.83724058379794 25.85687695377119