<?xml version="1.0"?>
<VTKFile type="UnstructuredGrid" version="0.1" byte_order="LittleEndian" header_type="UInt32" compressor="vtkZLibDataCompressor">
  <UnstructuredGrid>
    <Piece NumberOfPoints="345" NumberOfCells="191">
      <PointData>
        <DataArray type="Int32" Name="libmesh_node_id" format="ascii" RangeMin="218" RangeMax="2230">
          218 508 514 568 574 827
          828 920 921 922 923 926
          927 928 954 955 956 957
          958 959 960 961 962 963
          1068 1069 1070 1071 1074 1075
          1076 1102 1103 1104 1105 1106
          1108 1109 1110 1111 1501 1502
          1503 1504 1505 1506 1507 1508
          1509 1510 1511 1512 1513 1514
          1583 1584 1585 1586 1587 1588
          1589 1590 1591 1592 1593 1594
          1595 1596 1597 1598 1599 1600
          1601 1602 1603 1604 1605 1606
          1607 1608 1609 1610 1611 1612
          1613 1614 1615 1616 1617 1618
          1619 1620 1621 1622 1623 1624
          1625 1626 1627 1628 1629 1630
          1631 1632 1633 1634 1635 1636
          1637 1638 1639 1640 1641 1642
          1643 1644 1645 1646 1647 1648
          1649 1650 1838 1839 1840 1841
          1842 1843 1844 1845 1846 1847
          1848 1849 1850 1851 1854 1859
          1860 1862 1863 1864 1865 1866
          1867 1868 1869 1870 1871 1872
          1873 1874 1875 1876 1877 1878
          1879 1881 1882 1883 1884 1885
          1888 1889 1891 1892 1895 1897
          1898 1900 1915 1925 1926 1929
          1945 2065 2066 2067 2068 2069
          2070 2071 2072 2073 2074 2075
          2076 2077 2078 2079 2080 2081
          2082 2083 2084 2085 2086 2087
          2088 2089 2090 2091 2092 2093
          2094 2096 2097 2098 2099 2100
          2101 2102 2103 2104 2105 2106
          2107 2108 2109 2110 2111 2112
          2113 2114 2115 2116 2117 2118
          2119 2120 2121 2122 2123 2124
          2125 2126 2127 2128 2130 2131
          2132 2201 2203 2204 2208 2221
          2223 2224 2228 492 821 912
          913 260 829 830 493 924
          915 494 925 506 918 929
          507 509 941 935 949 971
          965 942 972 513 975 969
          976 992 993 995 1072 1077
          1092 1122 1126 1493 1527 1528
          1530 946 1533 947 1499 1543
          1545 1547 1561 1562 1564 512
          1567 952 1577 1579 1581 1666
          1667 1655 550 1668 1669 994
          1681 1673 1855 1852 1682 1856
          1857 1853 1861 1858 1073 1886
          1880 1887 1890 569 1694 1695
          1697 1719 1911 1913 1917 1947
          1990 1985 1992 2206 2202 2210
          2226 2222 2230
        </DataArray>
        <DataArray type="Float64" Name="bounds" format="ascii" RangeMin="0" RangeMax="0">
          0 0 0 0 0 0
          0 0 0 0 0 0
          0 0 0 0 0 0
          0 0 0 0 0 0
          0 0 0 0 0 0
          0 0 0 0 0 0
          0 0 0 0 0 0
          0 0 0 0 0 0
          0 0 0 0 0 0
          0 0 0 0 0 0
          0 0 0 0 0 0
          0 0 0 0 0 0
          0 0 0 0 0 0
          0 0 0 0 0 0
          0 0 0 0 0 0
          0 0 0 0 0 0
          0 0 0 0 0 0
          0 0 0 0 0 0
          0 0 0 0 0 0
          0 0 0 0 0 0
          0 0 0 0 0 0
          0 0 0 0 0 0
          0 0 0 0 0 0
          0 0 0 0 0 0
          0 0 0 0 0 0
          0 0 0 0 0 0
          0 0 0 0 0 0
          0 0 0 0 0 0
          0 0 0 0 0 0
          0 0 0 0 0 0
          0 0 0 0 0 0
          0 0 0 0 0 0
          0 0 0 0 0 0
          0 0 0 0 0 0
          0 0 0 0 0 0
          0 0 0 0 0 0
          0 0 0 0 0 0
          0 0 0 0 0 0
          0 0 0 0 0 0
          0 0 0 0 0 0
          0 0 0 0 0 0
          0 0 0 0 0 0
          0 0 0 0 0 0
          0 0 0 0 0 0
          0 0 0 0 0 0
          0 0 0 0 0 0
          0 0 0 0 0 0
          0 0 0 0 0 0
          0 0 0 0 0 0
          0 0 0 0 0 0
          0 0 0 0 0 0
          0 0 0 0 0 0
          0 0 0 0 0 0
          0 0 0 0 0 0
          0 0 0 0 0 0
          0 0 0 0 0 0
          0 0 0 0 0 0
          0 0 0
        </DataArray>
        <DataArray type="Float64" Name="gradient_error" format="ascii" RangeMin="4.046979186268937e-9" RangeMax="2.8206092975606776e-7">
          1.9563930799779355e-8 1.7180950407895994e-7 1.597963400913302e-7 4.3612459771641884e-8 3.3074534674947855e-8 1.522316691222473e-7
          1.3903753268343793e-7 2.1821060508263634e-7 1.9952247358929152e-7 2.2022406685348144e-7 1.97838626630794e-7 1.6049440963769498e-7
          1.500586791813706e-7 1.5709308408348116e-7 3.00967899611857e-8 3.6374000191480115e-8 3.653535104786463e-8 4.49783541433354e-8
          1.4427572316106232e-7 1.4554042638210554e-7 1.9685653125499902e-8 3.5686355704577964e-8 4.4585229828216476e-8 1.5528170932905129e-7
          1.2188375643843624e-7 1.0779010414467039e-7 2.078780416034613e-8 1.7393399833153178e-8 1.1019743183236809e-7 9.980045424244747e-8
          3.81890834351999e-8 4.095891492630082e-8 5.121853544987291e-8 4.218185105372729e-8 5.208117002844817e-8 9.06773205417648e-8
          2.460308965008304e-8 5.09195563696663e-8 5.276595398980728e-8 1.017765366319286e-7 3.324564956716402e-8 3.447795611282012e-8
          3.8079495158937145e-8 3.681759044947229e-8 4.060163971368549e-8 4.1872892995614476e-8 4.537088070975028e-8 4.337610146608188e-8
          3.644859811005024e-8 3.903736183487358e-8 3.497227797963214e-8 4.1100432623512966e-8 4.230801811937949e-8 3.859280859240561e-8
          3.0878346450691605e-8 3.198422397098503e-8 3.479771590527409e-8 3.5978102101448473e-8 3.4796163134372657e-8 3.850020592908795e-8
          2.6399175654265106e-8 2.829887762248186e-8 3.2506910897065766e-8 3.191480201593061e-8 3.8680721765906204e-8 3.994968509440514e-8
          4.214403073648612e-8 4.3480366027071094e-8 4.226645507114121e-8 4.565095504190639e-8 3.3527942181486274e-8 3.648517818779862e-8
          3.999093729301736e-8 4.083592438556194e-8 3.678105839297694e-8 3.978010482901912e-8 3.705989200848701e-8 3.971828609748521e-8
          3.639728202804209e-8 4.019831716255224e-8 3.916353961492159e-8 4.249657425110766e-8 4.452227426480626e-8 4.1678886782836984e-8
          4.255933976345581e-8 4.399278572274979e-8 4.732283460420385e-8 4.575613686848666e-8 2.143044150288767e-8 2.5392270176342324e-8
          2.354153973484386e-8 2.8858021518469148e-8 3.088725937428811e-8 3.577194404847918e-8 1.857357503146431e-8 2.367727693687086e-8
          2.6578930286766558e-8 3.071965053598802e-8 2.512965004007784e-8 3.198776863254883e-8 2.6289859830612026e-8 3.4710604047386066e-8
          4.0472349725314196e-8 4.4678998645503406e-8 1.9963219535310038e-8 2.9031658082696252e-8 3.102918485312933e-8 4.042965935570506e-8
          3.5406855217428385e-8 3.9810799577132374e-8 3.8393290536077555e-8 4.225221435940081e-8 3.513266505467622e-8 3.974781265232494e-8
          3.7607007879653813e-8 4.422428760868386e-8 4.818701397334362e-8 4.634976299175916e-8 5.014737891984054e-8 4.43557196505705e-8
          4.8464889148512575e-8 4.595221721981337e-8 1.6183756386183625e-8 1.5508113397492778e-8 1.4088784561081831e-8 2.5063310306348332e-8
          1.500945166659396e-8 1.4408180967581394e-8 1.263777620953176e-8 1.2133163780962904e-8 1.2964485592249689e-8 1.0739963985319927e-8
          2.4480961457378677e-8 2.329067705923834e-8 1.9887448709588195e-8 2.0523621677648074e-8 1.8481797876141858e-8 1.6896819450258592e-8
          1.3992702553131238e-8 3.8790131012363244e-8 3.661605824306309e-8 3.237855709221538e-8 4.6922568881545216e-8 4.788372475740422e-8
          4.633498490338281e-8 4.764975806563043e-8 3.65204301232118e-8 3.4738777305887105e-8 3.217864172140804e-8 3.0811307314250625e-8
          3.05346458800945e-8 2.6769863299666645e-8 4.557774208944944e-8 4.4832137986142056e-8 4.261867532138461e-8 4.129159165523144e-8
          2.6916585427400655e-8 4.2242002536439454e-8 3.759417173994991e-8 3.802936957488127e-8 2.4828448650832796e-8 2.106253660889062e-8
          3.382055161238258e-8 3.005438488453098e-8 1.0294025694093854e-8 9.844917344040355e-9 8.622638534897762e-9 1.7442334129658998e-8
          1.664093711434373e-8 1.4434100270281144e-8 1.141850473159613e-8 2.768981681332255e-8 2.641690194360874e-8 2.2751382212036844e-8
          1.7656968836433554e-8 4.472160857328295e-8 4.617607733067975e-8 4.6091981654344596e-8 4.784417154736675e-8 4.814283271089573e-8
          4.958689102675176e-8 3.9073059379390515e-8 4.290790771164424e-8 4.5021172735963276e-8 4.854237403854528e-8 4.6758632061209854e-8
          4.866962124720306e-8 4.66808491746412e-8 4.818039365839119e-8 4.974982197167438e-8 4.7725353090691377e-8 4.200395576837431e-8
          4.6172563594771404e-8 4.6440259121590975e-8 5.2576274108300635e-8 4.537197517073079e-8 4.498253557434933e-8 4.208883100774668e-8
          3.580987311642766e-8 4.967712684839642e-8 5.067753844419781e-8 4.9012261663600236e-8 4.32790453071758e-8 3.9690416879915554e-8
          3.1493151512222404e-8 5.0124582839108755e-8 4.735595116580751e-8 3.7760721557875576e-8 2.8120270830519504e-8 3.741618492759239e-8
          3.135437690910283e-8 4.016783184209085e-8 4.824844132123736e-8 5.108421484774433e-8 2.061507116727867e-8 3.3484984335851574e-8
          3.677505464491196e-8 4.804804192154516e-8 3.4617098078550986e-8 4.209910448587674e-8 3.627227091379703e-8 4.272052271523793e-8
          5.275585860598599e-8 5.280803388450951e-8 2.950092616791267e-8 3.953555372903536e-8 4.084474720019039e-8 5.269059975500215e-8
          5.126056236373553e-8 5.301062732574916e-8 5.273634110966163e-8 4.665093391657269e-8 5.166881883570036e-8 5.358601244591988e-8
          5.359645133273488e-8 5.328065209837674e-8 5.1495718964132945e-8 4.204690597832168e-8 5.407889008830728e-8 5.266652026120828e-8
          4.360676963613478e-8 2.36351422441772e-8 2.777305477724615e-8 2.1755242305657348e-8 2.5742219850621316e-8 3.065992453749758e-8
          3.199308112182696e-8 2.8564922576318464e-8 2.9726568634691436e-8 2.8206092975606776e-7 1.4301744289027608e-7 2.0375492450311362e-7
          1.8955565305662684e-7 1.7425965107757247e-7 9.974224741438176e-8 1.047151223941384e-7 2.2381928468243128e-7 1.4920711396160904e-7
          1.4901695782465025e-7 1.2984453710231258e-7 1.4073107060799854e-7 1.4131683126369008e-7 1.3490135122815547e-7 1.6190400571442942e-7
          1.5482906579711932e-7 1.577689915429928e-7 1.430300384924744e-7 1.4564576872429092e-7 1.330891945461064e-7 1.864694696325017e-7
          1.831026211140788e-7 1.3169617600636468e-7 1.771752417712649e-7 1.409134293621102e-7 2.0317141073873896e-7 1.968860744515803e-7
          1.9522108909186173e-7 5.0653224064608466e-8 4.5595823512346936e-8 3.37666738619028e-8 7.410913146974571e-8 8.89815179879529e-8
          6.837274675924864e-8 9.381773328409641e-8 1.0423809354848283e-7 3.1251676053562496e-8 2.7188031694186803e-8 2.8270581881818305e-8
          3.1375180681362666e-8 2.267763185416478e-8 2.4181202293796413e-8 2.777462320276362e-8 3.366775236137028e-8 3.375811570666121e-8
          3.411900212004688e-8 3.283782069430753e-8 1.8965987953840346e-8 2.1820949853419034e-8 2.6180738194011785e-8 1.6888852959483386e-8
          2.0568982829319355e-8 2.5853752111888312e-8 3.134426580465625e-8 3.5002966974286646e-8 3.086136927264957e-8 9.304354838508324e-9
          8.96528034533166e-9 1.0065018498191173e-8 7.312762122758681e-9 7.049726463147221e-9 8.13210719269365e-9 6.321487702868086e-9
          6.94676158451297e-9 7.907260407141488e-9 1.0946847761203375e-8 1.2094189677273583e-8 5.3013035222062705e-9 8.8156572504316e-9
          8.622705872892543e-9 9.630553674231303e-9 1.28697428250518e-8 6.779662828070846e-9 1.0498328464460151e-8 1.8344722082043344e-8
          1.9902422125422753e-8 1.5375252827763793e-8 2.4544733894901926e-8 2.1336502680485466e-8 5.738128589216676e-9 5.5124124549477775e-9
          4.897175658933236e-9 4.046979186268937e-9 6.959498984863301e-9 5.2398145045859204e-9 8.360176675069265e-9 1.2601728679213539e-8
          1.7193775296203345e-8 1.8656525098298763e-8 1.1749111553079319e-8 1.4560730869629265e-8 1.6153985065522874e-8 1.6969221203682617e-8
          1.8638753752824192e-8 2.0604316450308098e-8 1.9315430478062334e-8
        </DataArray>
        <DataArray type="Float64" Name="gradient_matprop_error" format="ascii" RangeMin="0" RangeMax="0">
          0 0 0 0 0 0
          0 0 0 0 0 0
          0 0 0 0 0 0
          0 0 0 0 0 0
          0 0 0 0 0 0
          0 0 0 0 0 0
          0 0 0 0 0 0
          0 0 0 0 0 0
          0 0 0 0 0 0
          0 0 0 0 0 0
          0 0 0 0 0 0
          0 0 0 0 0 0
          0 0 0 0 0 0
          0 0 0 0 0 0
          0 0 0 0 0 0
          0 0 0 0 0 0
          0 0 0 0 0 0
          0 0 0 0 0 0
          0 0 0 0 0 0
          0 0 0 0 0 0
          0 0 0 0 0 0
          0 0 0 0 0 0
          0 0 0 0 0 0
          0 0 0 0 0 0
          0 0 0 0 0 0
          0 0 0 0 0 0
          0 0 0 0 0 0
          0 0 0 0 0 0
          0 0 0 0 0 0
          0 0 0 0 0 0
          0 0 0 0 0 0
          0 0 0 0 0 0
          0 0 0 0 0 0
          0 0 0 0 0 0
          0 0 0 0 0 0
          0 0 0 0 0 0
          0 0 0 0 0 0
          0 0 0 0 0 0
          0 0 0 0 0 0
          0 0 0 0 0 0
          0 0 0 0 0 0
          0 0 0 0 0 0
          0 0 0 0 0 0
          0 0 0 0 0 0
          0 0 0 0 0 0
          0 0 0 0 0 0
          0 0 0 0 0 0
          0 0 0 0 0 0
          0 0 0 0 0 0
          0 0 0 0 0 0
          0 0 0 0 0 0
          0 0 0 0 0 0
          0 0 0 0 0 0
          0 0 0 0 0 0
          0 0 0 0 0 0
          0 0 0 0 0 0
          0 0 0 0 0 0
          0 0 0
        </DataArray>
        <DataArray type="Float64" Name="initial_marker" format="ascii" RangeMin="2" RangeMax="2">
          2 2 2 2 2 2
          2 2 2 2 2 2
          2 2 2 2 2 2
          2 2 2 2 2 2
          2 2 2 2 2 2
          2 2 2 2 2 2
          2 2 2 2 2 2
          2 2 2 2 2 2
          2 2 2 2 2 2
          2 2 2 2 2 2
          2 2 2 2 2 2
          2 2 2 2 2 2
          2 2 2 2 2 2
          2 2 2 2 2 2
          2 2 2 2 2 2
          2 2 2 2 2 2
          2 2 2 2 2 2
          2 2 2 2 2 2
          2 2 2 2 2 2
          2 2 2 2 2 2
          2 2 2 2 2 2
          2 2 2 2 2 2
          2 2 2 2 2 2
          2 2 2 2 2 2
          2 2 2 2 2 2
          2 2 2 2 2 2
          2 2 2 2 2 2
          2 2 2 2 2 2
          2 2 2 2 2 2
          2 2 2 2 2 2
          2 2 2 2 2 2
          2 2 2 2 2 2
          2 2 2 2 2 2
          2 2 2 2 2 2
          2 2 2 2 2 2
          2 2 2 2 2 2
          2 2 2 2 2 2
          2 2 2 2 2 2
          2 2 2 2 2 2
          2 2 2 2 2 2
          2 2 2 2 2 2
          2 2 2 2 2 2
          2 2 2 2 2 2
          2 2 2 2 2 2
          2 2 2 2 2 2
          2 2 2 2 2 2
          2 2 2 2 2 2
          2 2 2 2 2 2
          2 2 2 2 2 2
          2 2 2 2 2 2
          2 2 2 2 2 2
          2 2 2 2 2 2
          2 2 2 2 2 2
          2 2 2 2 2 2
          2 2 2 2 2 2
          2 2 2 2 2 2
          2 2 2 2 2 2
          2 2 2
        </DataArray>
        <DataArray type="Float64" Name="markers_norefine" format="ascii" RangeMin="0" RangeMax="2">
          2 1 1 0.5 2 0
          0 0 0 0 0 1
          0.5 0.5 2 2 2 2
          0.5 0.5 2 2 2 1
          0 0 0 0 1 0.5
          0 2 2 2 1.25 0
          2 2 2 0.5 2 2
          2 1 2 2 2 1
          0 0 0 0 0 0
          2 2 2 2 1.5 1.5
          2 2 2 2 2 2
          2 2 1.5 1.5 2 2
          2 2 0.5 0.5 0 0
          1.5 1.5 1 0.5 0.5 0
          0 1.5 1.5 1 2 2
          2 2 2 2 2 2
          2 2 2 2 2 2
          2 2 2 2 2 2
          2 2 2 2 2 2
          2 2 2 2 2 2
          2 2 0 0 0 0
          0 0 0 0 0 0
          0 0 0 0 0 0
          0 0 0 0 2 2
          1.3333333333333333 1 0 0 0 0
          0 0 1 0.75 0.25 0.25
          0 0 0 0 0 0
          0 0 0 0 0 0
          0 0 0 0 0 0
          0 2 2 2 2 1.5
          1.5 2 2 2 2 2
          1.75 1.5 1.25 1 0.5 2
          2 2 1.75 0.5 0.5 0
          0 1.25 1 0.5 0.25 0
          0 0.75 0.25 0 2 2
          2 2 2 2 2 2
          2 2 2 2 2 2
          2 1.75 2 2 2 2
          1.75 1.25 1.5 0.3333333333333333 2 1.5
          2 1 0.75 0 1 1
          0 0 0 0 0 0
          0 0 0 0 0 0
          0 0 0 0 0 0
          0 0 0 1 0.5 0
          0 0 0 0 0.5 0
          0 0 0 1 0 0
          0 0 0 0 0 0
          0 0 0 2 2 2
          1.5 2 2 2 0 0.5
          0 1.5 2 2 2 2
          2 2 2 2 2 0
          0 0 0 0 0 0
          0 0 0 0 0 0
          0 0 0 0 0 0
          0 0 0 0 0 0
          0 0 0 0 0 0
          0 0 0 0 0 0
          0 0 0
        </DataArray>
        <DataArray type="Float64" Name="markers_mustrefine" format="ascii" RangeMin="2" RangeMax="2">
          2 2 2 2 2 2
          2 2 2 2 2 2
          2 2 2 2 2 2
          2 2 2 2 2 2
          2 2 2 2 2 2
          2 2 2 2 2 2
          2 2 2 2 2 2
          2 2 2 2 2 2
          2 2 2 2 2 2
          2 2 2 2 2 2
          2 2 2 2 2 2
          2 2 2 2 2 2
          2 2 2 2 2 2
          2 2 2 2 2 2
          2 2 2 2 2 2
          2 2 2 2 2 2
          2 2 2 2 2 2
          2 2 2 2 2 2
          2 2 2 2 2 2
          2 2 2 2 2 2
          2 2 2 2 2 2
          2 2 2 2 2 2
          2 2 2 2 2 2
          2 2 2 2 2 2
          2 2 2 2 2 2
          2 2 2 2 2 2
          2 2 2 2 2 2
          2 2 2 2 2 2
          2 2 2 2 2 2
          2 2 2 2 2 2
          2 2 2 2 2 2
          2 2 2 2 2 2
          2 2 2 2 2 2
          2 2 2 2 2 2
          2 2 2 2 2 2
          2 2 2 2 2 2
          2 2 2 2 2 2
          2 2 2 2 2 2
          2 2 2 2 2 2
          2 2 2 2 2 2
          2 2 2 2 2 2
          2 2 2 2 2 2
          2 2 2 2 2 2
          2 2 2 2 2 2
          2 2 2 2 2 2
          2 2 2 2 2 2
          2 2 2 2 2 2
          2 2 2 2 2 2
          2 2 2 2 2 2
          2 2 2 2 2 2
          2 2 2 2 2 2
          2 2 2 2 2 2
          2 2 2 2 2 2
          2 2 2 2 2 2
          2 2 2 2 2 2
          2 2 2 2 2 2
          2 2 2 2 2 2
          2 2 2
        </DataArray>
        <DataArray type="Float64" Name="gradient_marker" format="ascii" RangeMin="0" RangeMax="1">
          0 0.5 0.5 1 1 1
          1 1 1 1 1 0.5
          0.5 0.5 0 0 0 0
          0.5 0.5 0 0 0 0.5
          0.5 0.5 1 1 0.25 0.25
          1 0 0 1 1 0.25
          0 0 1 0.25 0 0
          0 0 0 0 0 0
          0 0 0 0 0 0
          0 0 0 0 0 0
          0 0 0 0 0 0
          0 0 0 0 0 0
          0 0 0 0 0 0
          0 0 0 0 0 0
          0 0 0 0 0 0
          0 0 0 0 0 0
          0 0 0 0 0 0
          0 0 0 0 0 0
          0 0 0 0 0 0
          0 0 0 0 0 0
          0 0 0 0 0 0
          0.5 0.5 1 1 0.5 1
          0.5 0.5 1 0.5 0 0.5
          1 0 0 0 0 0
          0 0 0.5 0.5 1 1
          0.5 1 0.5 0.5 1 0.5
          0 0 0 0 0.5 1
          0.5 1 1 1 1 1
          1 1 1 1 1 1
          1 0 0 0 0 0
          0 0 0 0 0 0.5
          0.5 1 1 0.5 1 0.5
          0.5 1 0.5 0 0 0
          0 0 0 0 0.5 1
          0.5 0.5 1 0.5 0 0
          0 0 0 0 0 0
          0 0 0.5 0.5 1 1
          0.5 1 0.5 0.5 1 0.5
          0 0 0 0 0 0
          0 0.5 1 0.5 0.5 1
          0.5 0 0 0.5 0.5 0
          0 0.5 0.5 1 1 1
          1 0.75 0.6666666666666666 0.5 0.75 0.75
          0.75 0.5 0.75 0.5 0.5 0.75
          0.75 0.75 0.75 0.75 0.5 1
          1 0.625 0.875 0.5 1 1
          1 0.25 0.25 0.125 0.375 0.375
          0.25 0.375 0.5 0 0 0
          0 0 0 0 0 0
          0 0 0 0 0 0
          0 0 0 0 0 0.5
          0.5 0 1 1 0.5 1
          0.5 0 0.5 0 1 1
          0.5 0 0.5 1 1 0.5
          0 1 0.5 1 1 1
          1 1 1 1 1 1
          0.5 0 0.5 0.5 0 0.5
          0.5 0 0.5
        </DataArray>
        <DataArray type="Float64" Name="gradient_matprop_marker" format="ascii" RangeMin="0" RangeMax="0">
          0 0 0 0 0 0
          0 0 0 0 0 0
          0 0 0 0 0 0
          0 0 0 0 0 0
          0 0 0 0 0 0
          0 0 0 0 0 0
          0 0 0 0 0 0
          0 0 0 0 0 0
          0 0 0 0 0 0
          0 0 0 0 0 0
          0 0 0 0 0 0
          0 0 0 0 0 0
          0 0 0 0 0 0
          0 0 0 0 0 0
          0 0 0 0 0 0
          0 0 0 0 0 0
          0 0 0 0 0 0
          0 0 0 0 0 0
          0 0 0 0 0 0
          0 0 0 0 0 0
          0 0 0 0 0 0
          0 0 0 0 0 0
          0 0 0 0 0 0
          0 0 0 0 0 0
          0 0 0 0 0 0
          0 0 0 0 0 0
          0 0 0 0 0 0
          0 0 0 0 0 0
          0 0 0 0 0 0
          0 0 0 0 0 0
          0 0 0 0 0 0
          0 0 0 0 0 0
          0 0 0 0 0 0
          0 0 0 0 0 0
          0 0 0 0 0 0
          0 0 0 0 0 0
          0 0 0 0 0 0
          0 0 0 0 0 0
          0 0 0 0 0 0
          0 0 0 0 0 0
          0 0 0 0 0 0
          0 0 0 0 0 0
          0 0 0 0 0 0
          0 0 0 0 0 0
          0 0 0 0 0 0
          0 0 0 0 0 0
          0 0 0 0 0 0
          0 0 0 0 0 0
          0 0 0 0 0 0
          0 0 0 0 0 0
          0 0 0 0 0 0
          0 0 0 0 0 0
          0 0 0 0 0 0
          0 0 0 0 0 0
          0 0 0 0 0 0
          0 0 0 0 0 0
          0 0 0 0 0 0
          0 0 0
        </DataArray>
        <DataArray type="Float64" Name="combo" format="ascii" RangeMin="0" RangeMax="2">
          2 1.5 1.5 1.25 2 1
          1 1 1 1 1 1.5
          1 1 2 2 2 2
          1 1 2 2 2 1.5
          0.5 0.5 1 1 1.25 0.75
          1 2 2 2 1.625 0.25
          2 2 2 0.75 2 2
          2 1 2 2 2 1
          0 0 0 0 0 0
          2 2 2 2 1.5 1.5
          2 2 2 2 2 2
          2 2 1.5 1.5 2 2
          2 2 0.5 0.5 0 0
          1.5 1.5 1 0.5 0.5 0
          0 1.5 1.5 1 2 2
          2 2 2 2 2 2
          2 2 2 2 2 2
          2 2 2 2 2 2
          2 2 2 2 2 2
          2 2 2 2 2 2
          2 2 0 0 0 0
          0.5 0.5 1 1 0.5 1
          0.5 0.5 1 0.5 0 0.5
          1 0 0 0 2 2
          1.3333333333333333 1 0.5 0.5 1 1
          0.5 1 1.25 1.125 1.125 0.75
          0 0 0 0 0.5 1
          0.5 1 1 1 1 1
          1 1 1 1 1 1
          1 2 2 2 2 1.5
          1.5 2 2 2 2 2
          1.875 1.75 1.625 1.375 1.25 2
          2 2 1.875 0.5 0.5 0
          0 1.25 1 0.5 0.75 1
          0.5 1.125 1.125 0.5 2 2
          2 2 2 2 2 2
          2 2 2 2 2 2
          2 1.875 2 2 2 2
          1.75 1.25 1.5 0.3333333333333333 2 1.5
          2 1.25 1.375 0.5 1.25 1.5
          0.5 0 0 0.5 0.5 0
          0 0.5 0.5 1 1 1
          1 0.75 0.6666666666666666 0.5 0.75 0.75
          0.75 0.5 0.75 1.5 1 0.75
          0.75 0.75 0.75 0.75 1 1
          1 0.625 0.875 1.5 1 1
          1 0.25 0.25 0.125 0.375 0.375
          0.25 0.375 0.5 2 2 2
          1.5 2 2 2 0 0.5
          0 1.5 2 2 2 2
          2 2 2 2 2 0.5
          0.5 0 1 1 0.5 1
          0.5 0 0.5 0 1 1
          0.5 0 0.5 1 1 0.5
          0 1 0.5 1 1 1
          1 1 1 1 1 1
          0.5 0 0.5 0.5 0 0.5
          0.5 0 0.5
        </DataArray>
        <DataArray type="Float64" Name="dHdT" format="ascii" RangeMin="26.794038304654286" RangeMax="62.0148675834956">
          46.299494785309136 49.51093600857028 46.267342142298816 42.07950433911785 46.16177942584257 34.29313776736305
          33.50775459319319 38.49413691067794 37.05431240386505 37.51044067180318 35.89009014430254 51.545916307756514
          47.337573110768716 45.577932256087074 46.112571401410676 55.18776988178227 46.607374868476455 53.60457885143323
          45.8048079566463 42.915457915810315 46.27914041288342 49.94788558942568 49.16288248192424 49.219281355955935
          35.69906600334495 34.230839768271416 32.54790694111534 31.055360150753316 47.39106662882476 42.06347610953388
          37.72864208754028 49.531848964720965 53.01066844398183 53.9847542856132 49.759845598893165 39.42574144560581
          46.29331368865657 50.90476980465938 53.08602096740802 43.07696478656985 61.96693373626841 60.548477936043085
          59.03572446929695 55.230851983047316 58.79467950619397 57.49094768849168 56.01547412350104 52.87547589766239
          44.79894776598388 44.55359991679127 38.26621370169089 43.81430950399209 43.11169294973695 38.06488308344878
          54.379340807943656 56.984127443611776 53.186711781023114 55.494162637359665 57.685664133305124 56.18035584251229
          46.49856508551025 49.76678989304911 49.06291559355032 56.75225054204381 52.410432054904184 54.47532915179922
          52.097059265825926 53.77388154854148 54.89671419868811 53.69951732271951 46.14668683785302 48.82957561224962
          48.86639959262453 54.25344471081571 49.93639569927795 49.34283537991009 44.09037721122557 44.12657256849182
          56.82769162449828 55.35566872973929 53.18589686549691 48.17872163473955 46.707634211408575 43.10424112079716
          41.46693760863518 53.95057342238284 52.363461377747164 50.906721809780485 46.23325763090513 46.162409735521834
          46.26377810758937 46.209431332634125 51.96844368647987 51.01849483748307 46.26113297040865 46.21101663612593
          46.245632283589984 50.57286257243505 46.27956782891886 46.2316144838404 46.2869265672201 46.23497546080434
          50.52394148563393 50.35227143417564 46.291946585746075 46.26378835828832 46.269440709941534 49.45894604935024
          57.58527626297848 55.86523903538426 57.32522699313572 55.84857295348125 56.589012909532386 55.15121145431885
          58.193200976037886 54.5905492649756 53.57149782954435 54.316876697445295 52.62147714512601 53.82308545067253
          52.719648376674584 54.963908933475174 31.04866323500618 30.77090096645096 30.10343874317676 34.22426838705781
          30.404238770503945 30.164117326454242 29.270846048596535 29.093177478098657 29.571627951763748 28.63829665969056
          33.92566556606419 33.58337752611804 32.14306032428807 32.55922295088606 31.77039273794834 31.029698820644843
          29.712860877474213 37.8989985579712 37.29648898205864 36.256370782998054 55.862387651905664 54.630000967332684
          47.85825953417257 49.457592067734204 37.18366592944044 36.723726482218765 35.8932095252526 35.521109196105535
          35.679949329361925 34.35183232720856 45.23445408883847 43.55916928487299 40.661710149330844 39.859020052200265
          34.83537868581953 41.434498164611746 38.38754548099479 37.3514264765148 34.01744614844798 32.38623390255717
          36.69671697469202 35.1153661550092 28.39923715769854 28.266372922473927 27.923419900578473 30.943517264363443
          30.58460896433514 29.70179901734236 28.69989664169782 34.55590781280338 34.09837467074422 32.74590239717017
          30.818264177653482 53.00096265433503 53.8151193737129 53.669653014260135 53.47384168565882 52.07381047226892
          49.89638746331244 48.205174826126424 49.91125548775673 51.387591908710306 53.23172245871057 53.807101967100664
          52.220753655719705 51.898162214403484 49.383435746752674 47.0250164476597 43.393849521794834 50.83617486072048
          52.619149971599626 53.81657228686294 52.23878910778281 44.68779333250936 42.44571691916825 39.85724181357165
          37.5364867616359 50.259894355336016 47.65034592729991 45.67367994263795 40.2534847539053 37.98063206476097
          36.00960386647087 44.769121678553006 41.57274667373821 37.85300414727815 46.28561612940469 46.54137008508319
          46.269215588463204 47.42980863480523 50.89865739414788 51.6942429114755 46.300420263320916 46.260466974746016
          46.42756792273204 50.023898747678295 46.240542045022835 49.01957502802016 48.73383030462534 51.81577677499099
          52.44009097039347 52.623140824608186 46.271635179083674 47.85849162033096 50.278236448182206 51.587471485513845
          52.72974991972761 51.012765776652884 50.45930909192113 43.846971811181106 52.880799629190165 52.1667814888638
          51.934315449194855 48.04271400642155 44.61863111953731 39.849346456240006 49.23171071326824 45.82083762564278
          40.758357795671785 34.017909427845446 35.28193881550495 33.10481020803946 34.435215841725864 35.88011351543854
          36.046260316863595 35.124658404424736 35.33111770029688 31.87321775659164 34.34015812237645 39.088842867522494
          37.74307896809576 30.720358279965723 30.877600018407758 31.393037849106843 30.225315627832266 33.807768384584975
          34.65484325877314 28.904419525670882 32.584093716130965 53.35157922132183 48.637433512667265 36.94493201808241
          37.200935506967085 35.631499172172724 33.183577906004096 34.12626202684787 46.56583535445728 36.10141034113955
          37.03566326293685 31.896245899677567 34.34283748228287 51.13357179929919 37.74774363210082 38.654037111861214
          35.70414718897516 29.529249418557033 29.045541297128494 28.019452089421065 30.953178987972034 34.95675776466178
          30.436903229794456 32.57222964859976 33.51516960262772 62.0148675834956 57.516385310023125 59.706008921988655
          59.310666426238726 48.818325602513916 51.71328725673767 58.9437428188201 44.5886310102854 49.93714917831254
          43.148598038101795 58.17064712154935 46.16711103048249 46.08578729484948 53.490787759293305 46.21902999364941
          46.14215033670533 51.586555521904394 59.70303204451967 58.42895212966921 58.35043719228031 28.306115844282466
          28.21164931922417 28.558959703115175 27.679032739033687 27.606680845729215 27.963665846083433 27.412203937497114
          27.625271565657883 27.90131086009601 28.83493213929775 29.2753848263209 27.14857793399078 28.069099004254966
          28.117252667283783 28.462313370556185 29.507277946697126 27.51948155295971 28.554880416942623 31.674071555134624
          32.473409123485894 30.22156175704549 34.112628237594855 32.46338381792073 27.203365267886397 27.147353618096744
          26.996938062885306 26.794038304654286 27.491126992560964 27.072400325336258 27.848722193547623 29.06481547961226
          31.285312131449768 32.089292340314785 29.112750085194754 30.11397200128514 30.791627854956175 31.074747520957526
          31.746730621154335 32.60398737136252 31.987644510706854
        </DataArray>
        <DataArray type="Float64" Name="dk/dtemperature" format="ascii" RangeMin="0.0048284999999999995" RangeMax="0.06266362136127254">
          0.004896874999999995 0.03299106694389201 0.03202510245240804 0.008640177731278434 0.006814749999999998 0.00858513580425831