<?xml version="1.0"?>
<VTKFile type="UnstructuredGrid" version="0.1" byte_order="LittleEndian" header_type="UInt32" compressor="vtkZLibDataCompressor">
  <UnstructuredGrid>
    <Piece NumberOfPoints="402" NumberOfCells="193">
      <PointData>
        <DataArray type="Int32" Name="libmesh_node_id" format="ascii" RangeMin="115" RangeMax="3137">
          143 144 157 170 171 184
          189 190 191 192 193 194
          195 197 199 200 201 203
          204 205 207 236 237 238
          239 240 241 242 246 247
          248 250 251 252 253 254
          321 322 325 326 328 329
          331 332 334 349 350 351
          352 353 354 355 359 360
          361 363 364 365 366 367
          368 369 370 371 372 373
          374 375 376 421 422 423
          424 425 426 427 428 431
          432 433 437 439 440 441
          442 443 444 445 446 447
          448 449 450 451 452 453
          454 455 456 457 462 463
          467 468 469 632 633 634
          635 636 637 638 639 640
          641 652 653 654 655 656
          657 658 659 660 661 682
          683 684 685 686 687 688
          689 690 691 692 693 694
          695 696 697 698 699 700
          701 702 703 704 705 706
          707 708 709 710 711 763
          764 765 766 767 768 769
          770 771 772 773 774 775
          776 782 783 784 785 786
          787 788 789 790 793 796
          797 798 799 800 801 802
          803 804 805 806 863 864
          868 898 902 1306 1307 1308
          1309 1310 1311 1312 3052 3054
          3056 3057 3059 3061 3062 3063
          3066 3067 3069 3070 3071 3072
          3073 3075 3076 3077 3079 3080
          3081 3082 3083 3084 3085 3086
          3087 3088 3089 3090 3091 3092
          3093 3095 3096 3098 3099 3100
          3102 3103 3104 3106 3107 3108
          3109 3110 3111 3112 3113 3114
          3116 3118 3119 3120 3121 3123
          3124 3126 3127 3128 3129 3130
          3131 3132 3133 3134 3135 3136
          3137 115 117 130 129 142
          156 119 131 146 158 196
          198 202 300 301 302 303
          305 306 145 308 309 310
          323 327 330 356 357 358
          362 243 379 380 255 256
          429 430 434 435 436 244
          438 245 458 459 461 464
          465 470 471 472 473 474
          475 476 477 479 481 516
          517 500 518 519 505 526
          527 336 338 343 173 346
          185 398 249 400 405 206
          408 524 794 466 810 860
          780 844 861 816 862 865
          849 866 867 880 896 897
          899 885 900 901 713 715
          720 3003 3004 3005 3006 141
          3008 3009 3053 3055 3058 169
          3060 183 3064 3065 3068 3074
          324 3078 3094 3097 3101 168
          3105 333 3115 3117 3122 3125
        </DataArray>
        <DataArray type="Float64" Name="bounds" format="ascii" RangeMin="0" RangeMax="0">
          0 0 0 0 0 0
          0 0 0 0 0 0
          0 0 0 0 0 0
          0 0 0 0 0 0
          0 0 0 0 0 0
          0 0 0 0 0 0
          0 0 0 0 0 0
          0 0 0 0 0 0
          0 0 0 0 0 0
          0 0 0 0 0 0
          0 0 0 0 0 0
          0 0 0 0 0 0
          0 0 0 0 0 0
          0 0 0 0 0 0
          0 0 0 0 0 0
          0 0 0 0 0 0
          0 0 0 0 0 0
          0 0 0 0 0 0
          0 0 0 0 0 0
          0 0 0 0 0 0
          0 0 0 0 0 0
          0 0 0 0 0 0
          0 0 0 0 0 0
          0 0 0 0 0 0
          0 0 0 0 0 0
          0 0 0 0 0 0
          0 0 0 0 0 0
          0 0 0 0 0 0
          0 0 0 0 0 0
          0 0 0 0 0 0
          0 0 0 0 0 0
          0 0 0 0 0 0
          0 0 0 0 0 0
          0 0 0 0 0 0
          0 0 0 0 0 0
          0 0 0 0 0 0
          0 0 0 0 0 0
          0 0 0 0 0 0
          0 0 0 0 0 0
          0 0 0 0 0 0
          0 0 0 0 0 0
          0 0 0 0 0 0
          0 0 0 0 0 0
          0 0 0 0 0 0
          0 0 0 0 0 0
          0 0 0 0 0 0
          0 0 0 0 0 0
          0 0 0 0 0 0
          0 0 0 0 0 0
          0 0 0 0 0 0
          0 0 0 0 0 0
          0 0 0 0 0 0
          0 0 0 0 0 0
          0 0 0 0 0 0
          0 0 0 0 0 0
          0 0 0 0 0 0
          0 0 0 0 0 0
          0 0 0 0 0 0
          0 0 0 0 0 0
          0 0 0 0 0 0
          0 0 0 0 0 0
          0 0 0 0 0 0
          0 0 0 0 0 0
          0 0 0 0 0 0
          0 0 0 0 0 0
          0 0 0 0 0 0
          0 0 0 0 0 0
        </DataArray>
        <DataArray type="Float64" Name="gradient_error" format="ascii" RangeMin="2.904301567416611e-9" RangeMax="0.000001939414927988164">
          5.677377046568882e-7 1.5971107211403336e-7 1.793203964205948e-8 0.0000015154016108623855 6.735297842487465e-7 2.9716376994561768e-8
          5.306192568642429e-7 3.4858598741274023e-7 4.1860593907389574e-7 0.0000013445257701242471 0.0000010334764442852672 8.836817620402157e-7
          9.61536408311739e-7 1.763662813781139e-7 1.2645916672159944e-7 3.960691975039975e-7 4.634008014198772e-7 2.2483353112081562e-7
          0.0000011701744621526113 0.0000014839560388248238 6.363703576541986e-7 2.2713192849997128e-7 2.9501276196188284e-7 8.14989056370884e-7
          7.544988465811914e-7 4.526334131234566e-7 4.538932988050832e-7 9.486296649685464e-7 2.9584994843106636e-7 3.219015696755025e-7
          8.499314834371937e-7 3.404058832021011e-7 4.671112977231278e-7 7.857421086979942e-7 2.956127577377945e-7 2.6962727672702074e-7
          1.54540408065532e-7 2.57263311145576e-7 8.632274871162658e-7 6.144467967146159e-7 2.670624269189303e-7 2.6557448169334895e-7
          0.0000010135372632258074 9.125953386669052e-7 1.8860684992495426e-7 8.450367870721629e-8 6.89709136749065e-8 1.0828231357470571e-7
          2.0291568402034158e-7 1.68120650250676e-7 1.3026487445012022e-7 1.5858136134566678e-7 5.343814864259672e-8 9.240909864956445e-8
          1.1424703867099201e-7 0.0000018534927185846842 0.0000015231570175904067 0.000001040774770193838 0.0000015875006033097369 0.0000014182252211613855
          0.0000014896846869832609 0.0000015099171513418655 0.0000011928213165961292 0.0000015661181222921465 0.000001080056847868826 9.613433727922996e-7
          0.0000014617449498985976 0.0000016182105243173344 0.000001939414927988164 1.8764756373511956e-7 1.708931129054418e-7 1.8880254233826515e-7
          3.0187509449040814e-7 3.1189604879437634e-7 2.814579962992405e-7 2.7502498127673387e-7 1.4885770564694427e-7 1.272558505616927e-7
          2.0137950630650012e-7 2.176631314052636e-7 4.3128076954692734e-7 3.6983835096679534e-7 3.919306857088993e-7 3.756988239316345e-7
          3.487135619765958e-7 3.022327335085685e-7 3.512348471529248e-7 3.9341001236669996e-7 3.403564214498106e-7 4.2222437783700246e-7
          4.639278708573797e-7 3.386604445936847e-7 3.8478879984059743e-7 3.550108716006066e-7 4.4162686651706214e-7 2.711756768306846e-7
          3.5432712353043576e-7 3.0440896171251554e-7 4.265416228361074e-7 4.042080024796559e-7 4.270664615713828e-7 3.261025196369924e-7
          3.9121148485682825e-7 1.3786607593246073e-7 1.2120668343420015e-7 9.811894839338784e-9 1.2141613129653103e-8 5.2394535570669424e-8
          5.537777303109118e-8 2.904301567416611e-9 1.5685801041449228e-8 1.71010493657294e-8 9.497717630200006e-8 9.861393293252927e-8
          2.8467300515481847e-8 1.1168180511301633e-7 1.382058670086832e-7 1.6171767967078624e-7 1.965327327495626e-7 6.283433726211049e-8
          8.564088257568784e-8 1.3422404865555343e-7 2.1175355422855612e-7 2.54859598490442e-7 1.084474278892652e-7 2.2785077393334694e-7
          2.1079045426050448e-7 2.2431453634567022e-7 2.842228233702134e-7 2.9020906393799025e-7 2.648476004604046e-7 2.5892372995062314e-7
          1.9373013458766202e-7 2.394861369828191e-7 2.3362463653103289e-7 2.5149863964361236e-7 2.4489631464144487e-7 2.804511613379009e-7
          2.737060749130164e-7 2.2683398689012163e-7 2.920134374473987e-7 2.0594986981491009e-7 2.2690990057508203e-7 2.393397538063185e-7
          2.0640450573843007e-7 3.0940368303218945e-7 3.0251583518458787e-7 3.2287005293116816e-7 2.4786993133525397e-7 2.087384457990283e-7
          2.9941091451566554e-7 1.359458702098771e-7 1.8866311928702154e-7 3.3482878428439525e-7 2.0929709328636076e-7 3.185220471254813e-7
          3.1098050667083165e-7 2.724819911611011e-7 2.60815579189333e-7 2.7096858060855715e-7 2.9172090779389e-7 2.6720740921068917e-7
          3.0343896621618195e-7 3.1247323497922294e-7 2.735992392320453e-7 2.2341511409163299e-7 2.7246130891694845e-7 2.6193282726027724e-7
          3.2150750374226394e-7 8.280606740591416e-8 7.886821509955792e-8 7.51020748714597e-8 8.347632755733375e-8 7.588456442696715e-8
          8.374727951826679e-8 9.379480676102022e-8 8.468849163061942e-8 8.290593245619415e-8 8.780073282498778e-8 9.279539824406139e-8
          8.225546512259548e-8 8.16049977889968e-8 8.564271514563301e-8 8.724006550346278e-8 9.820570006491959e-8 8.667939818193777e-8
          9.636610027587186e-8 9.073285148865876e-8 1.0164448010991272e-7 8.867030473325612e-8 6.815802308576392e-8 7.709271014616262e-8
          9.397325569943051e-8 1.0551797238147694e-7 1.0911683057065415e-7 7.653928165374889e-8 9.02627438194722e-8 1.1501156425243487e-7
          1.242255302812893e-7 5.270552425987645e-8 7.828405969597415e-8 9.181140247290695e-8 1.454987888576544e-8 4.2513764838202996e-8
          6.9903039121053856e-9 1.8040290658075125e-8 7.047765079064054e-8 2.9090277404044864e-8 2.0706645777856558e-7 1.8432604179432362e-7
          3.6318648050439404e-7 3.142367905260485e-7 1.8415858908105607e-7 3.494063997159205e-7 2.9873952412971606e-7 1.6158562581008168e-7
          2.6528710054770286e-7 2.480726485435117e-7 8.012297129811751e-7 7.200230739941113e-7 7.626309676426586e-7 5.624624962669088e-7
          2.3693152041592012e-7 1.9558407255565473e-7 3.273363077841133e-7 2.756393947821227e-7 2.0492112942522677e-7 3.1400704974632897e-7
          2.619989416369732e-7 1.5423662469538935e-7 2.239424817801321e-7 2.0999083352761745e-7 9.280765366883707e-7 8.035130028789188e-7
          5.644539939817519e-7 9.633989566329898e-7 9.837052974861516e-7 0.0000011274453631653083 0.0000011260622784431243 7.512387840297051e-7
          7.979045083335873e-7 8.43644990533852e-7 9.715119862418542e-7 0.0000011401830807793077 8.432781113017093e-7 0.0000013331653066431383
          0.0000013023221094642247 8.424454442460773e-7 0.0000012279186350618417 0.0000013533129301792029 9.850340669519647e-7 2.978573911942367e-7
          3.600302597657581e-7 2.8120044599965254e-7 3.465278366682449e-7 1.859601636018418e-7 2.2159458981141948e-7 2.2192585039025583e-7
          4.2220312833727965e-7 4.1185522733683724e-7 2.5722901602099716e-7 2.5685687275072733e-7 3.2435065950869974e-7 2.425586143113869e-7
          3.1080703857967575e-7 1.7825070169513273e-7 2.352893428105558e-7 2.4611093230086316e-7 3.918444462666722e-7 3.790554628479646e-7
          2.9232798392597887e-7 2.22234831961239e-8 1.2402119319000457e-8 1.8774427462712715e-8 3.315067382918761e-8 2.6295052605821516e-7
          3.2493418234948364e-8 5.151520349014809e-9 8.373190056995086e-9 4.271366488871913e-8 7.916360102826068e-9 5.57237570290857e-8
          9.39558993357868e-8 5.6894778003804425e-8 9.555889157640292e-8 8.690802154520455e-8 5.1093997407986664e-8 5.776525086648209e-8
          3.250620562225788e-8 1.958473935620956e-8 3.624320557749657e-8 1.5279973270768766e-8 1.9971610156561265e-8 6.6632730901612376e-9
          3.0324403428558603e-7 6.425173683553225e-7 3.296550640953019e-7 1.812144233625885e-8 1.0142658063567255e-7 7.826465366147002e-8
          5.510272668726746e-8 1.2047820752305146e-7 4.988749107654426e-8 3.9172915616888165e-8 9.944724938024458e-8 6.625486237225106e-8
          3.170516691641197e-7 2.81515136863681e-7 1.9175837386370332e-7 5.243229017434503e-7 4.912342911444308e-7 4.272701175926572e-7
          3.889897982306143e-7 3.1769609180477733e-7 5.269483522755304e-7 4.854031379628065e-7 2.8349593789793174e-7 4.413954349177931e-7
          3.8249572175648235e-7 3.113314793228994e-7 2.7065200257900135e-7 8.99161466167829e-8 2.863681919841751e-7 2.4340150082947185e-7
          8.096697417894905e-8 1.730138056280738e-7 1.451992998219924e-7 2.5905580195071233e-7 2.4076105548871414e-7 1.783913385077855e-7
          1.9858088790145977e-7 2.670824724498429e-7 2.846341945039822e-7 2.98937790034587e-7 3.127958100331578e-7 3.299450385010079e-7
          3.4004731374515423e-7 4.521928507763715e-9 2.0777896624731998e-8 7.482588151141498e-9 4.2792166673382316e-8 3.703386474170028e-8
          1.3185638562195876e-8 6.594252689632931e-8 1.41525768027991e-7 9.758989936991735e-8 2.298954969275082e-8 2.1054884573416436e-7
          1.2923727184350538e-7 1.6525521426142284e-7 9.756245505087124e-8 2.0082426415711633e-7 9.101930263822434e-8 7.63701845901757e-8
          9.401305871544258e-8 9.955558551267111e-8 8.58284193473296e-8 7.904409473393506e-8 9.093315284214794e-8 7.959473862586803e-8
          1.0977235411574364e-7 1.0154475950896187e-7 1.1207834280578284e-7 1.1162182088895912e-7 1.1104673189545952e-7 1.2521570874363542e-7
          1.1508400988445299e-7 1.1179080193354886e-7 1.1429059887747875e-7 1.29096942826066e-7 5.517903862980984e-8 9.725627405435479e-8
          5.697440494454538e-8 5.66171102624533e-8 5.752459224247635e-8 3.746604161857599e-8 3.68920873058023e-8 1.4881454687123717e-7
          1.7407490994675626e-8 1.71670643491513e-8 2.6877787465107465e-8 6.130552843439906e-8 2.493786728594813e-8 2.051001198258337e-7
          9.573326940369067e-8 3.9801919087152674e-8 1.9029244242506555e-7 3.700897331419928e-7 3.2347709800852337e-7 2.76864462875054e-7
          7.425183213822894e-7 6.768741119438303e-7 8.319483825412759e-7 8.670423748941571e-7 7.041010053442095e-7 7.098170059757097e-7
          8.369982794926346e-7 7.778814843092851e-7 3.0837997567623095e-7 3.6671974672322783e-7 2.273738500050749e-7 4.2505951777022476e-7
        </DataArray>
        <DataArray type="Float64" Name="gradient_matprop_error" format="ascii" RangeMin="0" RangeMax="0">
          0 0 0 0 0 0
          0 0 0 0 0 0
          0 0 0 0 0 0
          0 0 0 0 0 0
          0 0 0 0 0 0
          0 0 0 0 0 0
          0 0 0 0 0 0
          0 0 0 0 0 0
          0 0 0 0 0 0
          0 0 0 0 0 0
          0 0 0 0 0 0
          0 0 0 0 0 0
          0 0 0 0 0 0
          0 0 0 0 0 0
          0 0 0 0 0 0
          0 0 0 0 0 0
          0 0 0 0 0 0
          0 0 0 0 0 0
          0 0 0 0 0 0
          0 0 0 0 0 0
          0 0 0 0 0 0
          0 0 0 0 0 0
          0 0 0 0 0 0
          0 0 0 0 0 0
          0 0 0 0 0 0
          0 0 0 0 0 0
          0 0 0 0 0 0
          0 0 0 0 0 0
          0 0 0 0 0 0
          0 0 0 0 0 0
          0 0 0 0 0 0
          0 0 0 0 0 0
          0 0 0 0 0 0
          0 0 0 0 0 0
          0 0 0 0 0 0
          0 0 0 0 0 0
          0 0 0 0 0 0
          0 0 0 0 0 0
          0 0 0 0 0 0
          0 0 0 0 0 0
          0 0 0 0 0 0
          0 0 0 0 0 0
          0 0 0 0 0 0
          0 0 0 0 0 0
          0 0 0 0 0 0
          0 0 0 0 0 0
          0 0 0 0 0 0
          0 0 0 0 0 0
          0 0 0 0 0 0
          0 0 0 0 0 0
          0 0 0 0 0 0
          0 0 0 0 0 0
          0 0 0 0 0 0
          0 0 0 0 0 0
          0 0 0 0 0 0
          0 0 0 0 0 0
          0 0 0 0 0 0
          0 0 0 0 0 0
          0 0 0 0 0 0
          0 0 0 0 0 0
          0 0 0 0 0 0
          0 0 0 0 0 0
          0 0 0 0 0 0
          0 0 0 0 0 0
          0 0 0 0 0 0
          0 0 0 0 0 0
          0 0 0 0 0 0
        </DataArray>
        <DataArray type="Float64" Name="initial_marker" format="ascii" RangeMin="0" RangeMax="2">
          0 0 0 0 0 0
          0 0 0 0 0 0
          0 0 0 0 0 1
          0 0 0 0 0 0
          0 1 0.25 0 0 0
          0 2 1 0 1 0
          0 0 0 0 0 0
          0 0 0 0 0 0
          0 0 0 0 0 0
          0 0 0 0 0 0
          0 0 0 0 0 0
          0 0 0 0 0 0
          0 0.5 0.25 0 0 0
          0 0 0.75 0.5 0.5 0.25
          0 0.5 1.5 1 0.25 2
          1.75 0 0.25 0 0.75 2
          1.5 0.5 2 0.5 1 1
          1 0 0 0 0 0
          0 0 0 0 0 0
          0 0 0 0 0 0
          0 0 0 0 0 0
          0 0 0 0 0 0
          0 0 0 0 0 0
          0 0 0 0 0 0
          0 0 0 0 0 0
          0 0 0 0 0 0
          0 0 0 0 0 0
          0 0 0 0 0 0
          0 2 2 1 1.5 1
          2 2 2 2 2 2
          2 2 2 2 2 2
          2 2 2 2 0 1
          2 2 2 0 0 0
          0 0 0 0 0 0
          0 0 0 0 0 0
          0 0 0 0 0 0
          0 0 0 0 0 0
          0 0 0 0 0 0
          0 0 0 0 0 0
          0 0 0 0 0 0
          0 0 0 0 0 0
          0 0 0 0 0 0
          0 0 0 0 0 0
          0 0 0 0 0 0
          0 0 0 0 0 0
          0 0 0 0 0 0
          0 0 0 0 0 0
          0 0 0 0 0 0
          0 0 0 0 0 0
          0 0 0 0 0 0
          0 0 0 0 0 0
          1 0.5 0 1.5 1.25 2
          1.5 0.25 2 2 2 2
          2 1 0.75 0 1 1
          0 0.25 0.5 1.75 0.25 0
          0 1.25 0.25 0 1.5 0.5
          0 0 0 0 0 0
          0 0 0 0 0 0
          0 0 2 2 2 1
          2 2 1.5 1 1.5 1
          2 2 2 2 2 2
          2 2 2 2 0 0
          0 0 0 0 0 0
          0 0 0 0 0 0
          0 0 0 0 0 0
          0 0 0 0 0 0
          0 0 0 0 0 0
        </DataArray>
        <DataArray type="Float64" Name="markers_norefine" format="ascii" RangeMin="0" RangeMax="0">
          0 0 0 0 0 0
          0 0 0 0 0 0
          0 0 0 0 0 0
          0 0 0 0 0 0
          0 0 0 0 0 0
          0 0 0 0 0 0
          0 0 0 0 0 0
          0 0 0 0 0 0
          0 0 0 0 0 0
          0 0 0 0 0 0
          0 0 0 0 0 0
          0 0 0 0 0 0
          0 0 0 0 0 0
          0 0 0 0 0 0
          0 0 0 0 0 0
          0 0 0 0 0 0
          0 0 0 0 0 0
          0 0 0 0 0 0
          0 0 0 0 0 0
          0 0 0 0 0 0
          0 0 0 0 0 0
          0 0 0 0 0 0
          0 0 0 0 0 0
          0 0 0 0 0 0
          0 0 0 0 0 0
          0 0 0 0 0 0
          0 0 0 0 0 0
          0 0 0 0 0 0
          0 0 0 0 0 0
          0 0 0 0 0 0
          0 0 0 0 0 0
          0 0 0 0 0 0
          0 0 0 0 0 0
          0 0 0 0 0 0
          0 0 0 0 0 0
          0 0 0 0 0 0
          0 0 0 0 0 0
          0 0 0 0 0 0
          0 0 0 0 0 0
          0 0 0 0 0 0
          0 0 0 0 0 0
          0 0 0 0 0 0
          0 0 0 0 0 0
          0 0 0 0 0 0
          0 0 0 0 0 0
          0 0 0 0 0 0
          0 0 0 0 0 0
          0 0 0 0 0 0
          0 0 0 0 0 0
          0 0 0 0 0 0
          0 0 0 0 0 0
          0 0 0 0 0 0
          0 0 0 0 0 0
          0 0 0 0 0 0
          0 0 0 0 0 0
          0 0 0 0 0 0
          0 0 0 0 0 0
          0 0 0 0 0 0
          0 0 0 0 0 0
          0 0 0 0 0 0
          0 0 0 0 0 0
          0 0 0 0 0 0
          0 0 0 0 0 0
          0 0 0 0 0 0
          0 0 0 0 0 0
          0 0 0 0 0 0
          0 0 0 0 0 0
        </DataArray>
        <DataArray type="Float64" Name="markers_mustrefine" format="ascii" RangeMin="0" RangeMax="2">
          0 0 0 0 0 0
          0 0 0 0 0 0
          0 0 0 0 0 1
          0 0 0 0 0 0
          0 1 0.25 0 0 0
          0 2 1 0 1 0
          0 0 0 0 0 0
          0 0 0 0 0 0
          0 0 0 0 0 0
          0 0 0 0 0 0
          0 0 0 0 0 0
          0 0 0 0 0 0
          0 0.5 0.25 0 0 0
          0 0 0.75 0.5 0.5 0.25
          0 0.5 1.5 1 0.25 2
          1.75 0 0.25 0 0.75 2
          1.5 0.5 2 0.5 1 1
          1 0 0 0 0 0
          0 0 0 0 0 0
          0 0 0 0 0 0
          0 0 0 0 0 0
          0 0 0 0 0 0
          0 0 0 0 0 0
          0 0 0 0 0 0
          0 0 0 0 0 0
          0 0 0 0 0 0
          0 0 0 0 0 0
          0 0 0 0 0 0
          0 2 2 1 1.5 1
          2 2 2 2 2 2
          2 2 2 2 2 2
          2 2 2 2 0 1
          2 2 2 0 0 0
          0 0 0 0 0 0
          0 0 0 0 0 0
          0 0 0 0 0 0
          0 0 0 0 0 0
          0 0 0 0 0 0
          0 0 0 0 0 0
          0 0 0 0 0 0
          0 0 0 0 0 0
          0 0 0 0 0 0
          0 0 0 0 0 0
          0 0 0 0 0 0
          0 0 0 0 0 0
          0 0 0 0 0 0
          0 0 0 0 0 0
          0 0 0 0 0 0
          0 0 0 0 0 0
          0 0 0 0 0 0
          0 0 0 0 0 0
          1 0.5 0 1.5 1.25 2
          1.5 0.25 2 2 2 2
          2 1 0.75 0 1 1
          0 0.25 0.5 1.75 0.25 0
          0 1.25 0.25 0 1.5 0.5
          0 0 0 0 0 0
          0 0 0 0 0 0
          0 0 2 2 2 1
          2 2 1.5 1 1.5 1
          2 2 2 2 2 2
          2 2 2 2 0 0
          0 0 0 0 0 0
          0 0 0 0 0 0
          0 0 0 0 0 0
          0 0 0 0 0 0
          0 0 0 0 0 0
        </DataArray>
        <DataArray type="Float64" Name="gradient_marker" format="ascii" RangeMin="0" RangeMax="1">
          1 1 1 1 1 1
          1 1 1 1 1 1
          1 1 1 1 1 1
          1 1 1 1 1 1
          1 1 1 1 0.8333333333333334 1
          1 1 1 1 0.75 1
          1 1 1 1 1 1
          1 1 1 1 1 1
          1 1 1 1 1 1
          1 1 1 1 1 1
          1 1 1 1 1 1
          1 1 1 1 1 1
          1 1 1 1 1 0.75
          0.875 1 1 1 1 1
          1 1 1 1 1 1
          1 1 1 1 1 1
          1 1 1 1 0.875 0.75
          0.75 1 0.75 1 1 1
          1 1 1 1 1 1
          1 1 1 1 1 1
          1 1 1 1 1 1
          1 1 1 1 1 1
          1 1 1 1 1 1
          1 1 1 1 1 1
          1 1 1 1 1 0.875
          1 0.75 1 1 1 1
          1 1 1 1 1 1
          1 1 1 1 1 1
          1 0 0 0 0.25 0
          0 0.5 0 0 0.25 0.5
          0 0 0 0.125 0.625 0
          0.5 0.25 0.75 0 0 0
          0.5 1 1 0.25 0.5 0.5
          0.75 0 0.25 0.5 1 1
          1 1 1 1 1 1
          1 1 1 1 1 1
          1 1 1 1 1 1
          1 1 1 1 1 1
          1 1 1 1 1 1
          1 1 1 1 1 1
          1 1 1 1 1 1
          1 1 1 1 1 1
          1 1 1 1 1 1
          1 1 1 1 1 1
          1 1 1 1 1 1
          1 1 1 1 1 1
          1 1 1 1 1 1
          0.75 1 1 1 1 1
          1 1 1 1 1 1
          1 1 1 1 1 1
          1 0.75 1 1 0.75 0.5
          1 1 0.75 1 1 1
          0.75 0.875 1 0.875 0.75 1
          0.75 1 0.875 0.25 0.75 0.625
          0.25 0.625 0.5 0.75 0.75 0.75
          0.75 0.75 1 1 1 1
          1 1 1 1 1 1
          1 1 0.75 1 1 1
          1 1 0.5 0.75 0.25 0
          0.5 0.625 0.25 0 0.25 0
          0.875 0.75 0.75 0.75 1 1
          1 0.75 1 1 0 0.25
          0 1 1 1 1 1
          1 1 1 1 1 1
          1 1 1 1 1 1
          1 1 1 1 1 1
          1 1 1 1 1 1
        </DataArray>
        <DataArray type="Float64" Name="gradient_matprop_marker" format="ascii" RangeMin="0" RangeMax="0">
          0 0 0 0 0 0
          0 0 0 0 0 0
          0 0 0 0 0 0
          0 0 0 0 0 0
          0 0 0 0 0 0
          0 0 0 0 0 0
          0 0 0 0 0 0
          0 0 0 0 0 0
          0 0 0 0 0 0
          0 0 0 0 0 0
          0 0 0 0 0 0
          0 0 0 0 0 0
          0 0 0 0 0 0
          0 0 0 0 0 0
          0 0 0 0 0 0
          0 0 0 0 0 0
          0 0 0 0 0 0
          0 0 0 0 0 0
          0 0 0 0 0 0
          0 0 0 0 0 0
          0 0 0 0 0 0
          0 0 0 0 0 0
          0 0 0 0 0 0
          0 0 0 0 0 0
          0 0 0 0 0 0
          0 0 0 0 0 0
          0 0 0 0 0 0
          0 0 0 0 0 0
          0 0 0 0 0 0
          0 0 0 0 0 0
          0 0 0 0 0 0
          0 0 0 0 0 0
          0 0 0 0 0 0
          0 0 0 0 0 0
          0 0 0 0 0 0
          0 0 0 0 0 0
          0 0 0 0 0 0
          0 0 0 0 0 0
          0 0 0 0 0 0
          0 0 0 0 0 0
          0 0 0 0 0 0
          0 0 0 0 0 0
          0 0 0 0 0 0
          0 0 0 0 0 0
          0 0 0 0 0 0
          0 0 0 0 0 0
          0 0 0 0 0 0
          0 0 0 0 0 0
          0 0 0 0 0 0
          0 0 0 0 0 0
          0 0 0 0 0 0
          0 0 0 0 0 0
          0 0 0 0 0 0
          0 0 0 0 0 0
          0 0 0 0 0 0
          0 0 0 0 0 0
          0 0 0 0 0 0
          0 0 0 0 0 0
          0 0 0 0 0 0
          0 0 0 0 0 0
          0 0 0 0 0 0
          0 0 0 0 0 0
          0 0 0 0 0 0
          0 0 0 0 0 0
          0 0 0 0 0 0
          0 0 0 0 0 0
          0 0 0 0 0 0
        </DataArray>
        <DataArray type="Float64" Name="combo" format="ascii" RangeMin="0" RangeMax="1">
          1 1 1 1 1 1
          1 1 1 1 1 1
          1 1 1 1 1 1
          1 1 1 1 1 1
          1 1 1 1 0.8333333333333334 1
          1 1 1 1 0.75 1
          1 1 1 1 1 1
          1 1 1 1 1 1
          1 1 1 1 1 1
          1 1 1 1 1 1
          1 1 1 1 1 1
          1 1 1 1 1 1
          1 1 1 1 1 0.75
          0.875 1 1 1 1 1
          1 1 1 1 1 1
          1 1 1 1 1 1
          1 1 1 1 0.875 0.75
          0.75 1 0.75 1 1 1
          1 1 1 1 1 1
          1 1 1 1 1 1
          1 1 1 1 1 1
          1 1 1 1 1 1
          1 1 1 1 1 1
          1 1 1 1 1 1
          1 1 1 1 1 0.875
          1 0.75 1 1 1 1
          1 1 1 1 1 1
          1 1 1 1 1 1
          1 0 0 0 0.25 0
          0 0.5 0 0 0.25 0.5
          0 0 0 0.125 0.625 0
          0.5 0.25 0.75 0 0 0
          0.5 1 1 0.25 0.5 0.5
          0.75 0 0.25 0.5 1 1
          1 1 1 1 1 1
          1 1 1 1 1 1
          1 1 1 1 1 1
          1 1 1 1 1 1
          1 1 1 1 1 1
          1 1 1 1 1 1
          1 1 1 1 1 1
          1 1 1 1 1 1
          1 1 1 1 1 1
          1 1 1 1 1 1
          1 1 1 1 1 1
          1 1 1 1 1 1
          1 1 1 1 1 1
          0.75 1 1 1 1 1
          1 1 1 1 1 1
          1 1 1 1 1 1
          1 0.75 1 1 0.75 0.5
          1 1 0.75 1 1 1
          0.75 0.875 1 0.875 0.75 1
          0.75 1 0.875 0.25 0.75 0.625
          0.25 0.625 0.5 0.75 0.75 0.75
          0.75 0.75 1 1 1 1
          1 1 1 1 1 1
          1 1 0.75 1 1 1
          1 1 0.5 0.75 0.25 0
          0.5 0.625 0.25 0 0.25 0
          0.875 0.75 0.75 0.75 1 1
          1 0.75 1 1 0 0.25
          0 1 1 1 1 1
          1 1 1 1 1 1
          1 1 1 1 1 1
          1 1 1 1 1 1
          1 1 1 1 1 1
        </DataArray>
        <DataArray type="Float64" Name="dHdT" format="ascii" RangeMin="25.797424148590892" RangeMax="39.0068287362993">
          25.942235594230056 25.837560948272838 25.812646427221015 33.690317520509915 25.97631040153575 25.81520495337281
          25.910178137108083 25.872778818801073 25.893203998096467 27.8999127343919 27.49631888553658 26.376491689425844
          26.527831441310784 26.587612832745357 25.830819220343187 25.883613639635147 25.907195391596122 39.0068287362993
          27.662965862104066 28.05815850922707 25.93460191769532 26.924094254032187 26.611293753615758 27.342814313621403
          33.16389498248328 33.75779250385783 30.20602287902654 30.01910412918999 26.273566583749993 26.680884684205317
          27.43257874170743 37.69493514821046 33.97187886667446 33.394097566869206 34.11012859795923 27.079981289158276
          25.923404023116206 25.889281325390822 27.99261538369554 26.690995355447225 25.86390003825601 25.902026857513786
          31.98930566041625 28.152735249476276 25.9633984256165 25.854058007154123 25.851239438812836 25.87705261873983
          26.109073357569798 26.041394065629405 25.990277987215567 26.04300058236335 25.84842087047155 25.939161908801733
          25.976927807156905 29.450876088177143 28.457958942929594 27.82009129891003 31.50715585592402 32.00718561001771
          29.974703479752634 30.025262357157647 27.465041797682048 28.573783838805436 27.923296806087745 36.24439497380574
          32.17723202954414 31.608786203544195 29.682525879928825 27.391682928186185 27.206501750237187 27.432071602886385
          29.438747718563146 29.279338306964977 28.75061310041592 28.942692264058547 26.956524368974726 26.798236547446823
          27.67831985803781 28.05592136581431 32.75362586741839 30.117528094807547 33.744818892772784 32.72820245705323
          33.24554100568061 37.483356793026985 37.31368123043503 36.15196102511907 36.08412779545693 36.97624155137976
          36.0287546557751 31.116054532037577 32.87896274958496 33.37963848776464 32.89730195683678 38.38968282515779
          37.3666657696935 37.565917179179564 37.00357050194411 33.977013259758714 32.775390867649385 32.59341011669872
          34.115420685352156 26.831408670091204 26.697729093269526 25.811600946855275 25.811747789556907 25.805835980209803
          25.8051810982356 25.8123933157632 25.813972460523708 25.813739258611143 25.800071013564324 25.798614406914297
          25.815551605284213 25.959879997201202 26.00286232376024 26.028311599159036 26.090844051702934 25.857438471718943
          25.86494257359345 25.896452758806284 26.09674320111688 26.178825779645624 25.872446675467955 27.843888124440404
          27.63952650622747 27.74415179244133 29.59896903859942 29.547923137136852 29.07933756989464 29.138048993007278
          27.435164888014533 28.610752002652433 28.67712894741514 28.74890741162948 28.81202271054074 29.29637402226642
          29.35064121936289 28.15597709120959 29.16002634285747 27.572823269813586 27.82506336516604 27.932164571205604
          27.60671653221183 29.843840632903362 29.88925972818503 29.735237364610953 28.0773034605185 27.75308180479192
          28.951264191888036 26.878772632452332 27.360316234542633 29.553722769107747 27.58345207219955 35.391903491468405
          34.07816448530393 33.747696659193636 36.691721479776845 37.09639893762364 35.63841497485765 35.27393059313583
          32.76442547913946 34.180431012091674 33.85613970649482 38.800894383778875 37.19866546441138 36.80016452707803
          35.596436545043886 38.14313329874858 37.24336275261392 32.410407238515475 33.94666184611986 32.45400998123104
          37.178073782890934 36.49752354378777 36.21301426703329 38.07594923248777 37.95097335897373 37.75881341919889
          37.3925504652122 36.70915169793664 37.54173817781049 37.315063178672276 37.12859825867616 36.679152998370824
          36.559681492947945 37.45205257445362 37.25236942853278 37.14529172970836 30.848083792061004 32.31735340956385
          34.866257939537086 36.35085923926533 36.75582562652319 26.38430504654762 26.472913134956464 26.77083152073157
          26.885606883188615 26.193457570489784 26.406911219254365 26.496723288042205 25.81337373678843 25.810750895284176
          25.811823937905555 25.811455253946583 25.808128053779924 25.811086569987612 26.081986589916205 26.047924112434124