<?xml version="1.0"?>
<VTKFile type="UnstructuredGrid" version="0.1" byte_order="LittleEndian" header_type="UInt32" compressor="vtkZLibDataCompressor">
  <UnstructuredGrid>
    <Piece NumberOfPoints="394" NumberOfCells="188">
      <PointData>
        <DataArray type="Int32" Name="libmesh_node_id" format="ascii" RangeMin="210" RangeMax="2812">
          210 219 255 256 259 260
          261 264 267 269 270 272
          379 380 382 383 389 390
          472 473 474 477 482 483
          484 485 486 487 488 489
          490 491 492 493 494 495
          507 509 510 511 515 530
          531 532 533 536 537 538
          540 541 542 543 544 545
          546 547 548 549 550 551
          553 569 572 577 588 589
          590 592 593 595 597 725
          730 732 823 824 825 826
          829 830 832 834 835 836
          837 838 839 915 924 925
          929 931 933 935 937 938
          939 940 941 942 943 965
          967 969 971 972 973 974
          975 976 977 978 979 980
          981 982 983 984 985 986
          987 988 989 990 991 992
          993 994 995 996 997 998
          999 1003 1004 1010 1011 1012
          1013 1014 1015 1016 1017 1018
          1019 1020 1021 1024 1025 1027
          1029 1072 1073 1077 1088 1089
          1090 1091 1092 1093 1094 1095
          1097 1122 1123 1124 1125 1126
          1128 1207 1208 1209 1210 1211
          1212 1213 1214 1215 1216 1327
          1328 1329 1337 1338 1339 1340
          1341 1342 1343 1344 1345 1651
          1652 1653 1654 1655 1656 1657
          1658 1659 1660 1661 1662 1663
          1664 1665 1666 1667 1668 1669
          1670 1671 1672 1673 1674 1675
          1676 1677 1678 1679 1680 1681
          1682 1683 1684 1685 1686 1687
          1688 1689 1690 1691 1692 1693
          1694 1695 1697 1712 1713 1714
          1715 1716 1717 1718 1719 1721
          1732 1733 1734 1735 1736 1737
          1738 1739 1740 1741 1742 1743
          1744 1745 1746 1747 1748 1749
          1750 1751 1752 1753 1755 1852
          1853 1855 1856 1857 1858 1861
          1880 1886 1887 1890 1911 1913
          1917 1947 1959 1960 1961 1962
          1963 1964 1965 1966 1967 1968
          1969 1970 1971 1972 1973 1974
          1975 1976 1977 1978 1979 1980
          1981 1982 1983 1984 1985 1986
          1987 1988 1989 1990 1991 1992
          1993 1994 1995 1996 1997 1998
          1999 2000 2001 2002 2003 2005
          2006 2007 2009 2017 2018 2019
          2020 2021 2022 2023 2024 2025
          2026 2037 2039 2202 2206 2207
          2210 2211 2212 2213 2214 2215
          2216 2217 2218 2219 2220 2222
          2226 2230 2231 2232 2233 2234
          2236 2237 2238 2240 2789 2790
          2791 2792 2793 2794 2795 2796
          2797 2798 2799 2800 2801 2802
          2803 2804 2805 2806 2807 2808
          2809 2810 2811 2812
        </DataArray>
        <DataArray type="Float64" Name="bounds" format="ascii" RangeMin="0" RangeMax="0">
          0 0 0 0 0 0
          0 0 0 0 0 0
          0 0 0 0 0 0
          0 0 0 0 0 0
          0 0 0 0 0 0
          0 0 0 0 0 0
          0 0 0 0 0 0
          0 0 0 0 0 0
          0 0 0 0 0 0
          0 0 0 0 0 0
          0 0 0 0 0 0
          0 0 0 0 0 0
          0 0 0 0 0 0
          0 0 0 0 0 0
          0 0 0 0 0 0
          0 0 0 0 0 0
          0 0 0 0 0 0
          0 0 0 0 0 0
          0 0 0 0 0 0
          0 0 0 0 0 0
          0 0 0 0 0 0
          0 0 0 0 0 0
          0 0 0 0 0 0
          0 0 0 0 0 0
          0 0 0 0 0 0
          0 0 0 0 0 0
          0 0 0 0 0 0
          0 0 0 0 0 0
          0 0 0 0 0 0
          0 0 0 0 0 0
          0 0 0 0 0 0
          0 0 0 0 0 0
          0 0 0 0 0 0
          0 0 0 0 0 0
          0 0 0 0 0 0
          0 0 0 0 0 0
          0 0 0 0 0 0
          0 0 0 0 0 0
          0 0 0 0 0 0
          0 0 0 0 0 0
          0 0 0 0 0 0
          0 0 0 0 0 0
          0 0 0 0 0 0
          0 0 0 0 0 0
          0 0 0 0 0 0
          0 0 0 0 0 0
          0 0 0 0 0 0
          0 0 0 0 0 0
          0 0 0 0 0 0
          0 0 0 0 0 0
          0 0 0 0 0 0
          0 0 0 0 0 0
          0 0 0 0 0 0
          0 0 0 0 0 0
          0 0 0 0 0 0
          0 0 0 0 0 0
          0 0 0 0 0 0
          0 0 0 0 0 0
          0 0 0 0 0 0
          0 0 0 0 0 0
          0 0 0 0 0 0
          0 0 0 0 0 0
          0 0 0 0 0 0
          0 0 0 0 0 0
          0 0 0 0 0 0
          0 0 0 0
        </DataArray>
        <DataArray type="Float64" Name="gradient_error" format="ascii" RangeMin="7.332493437578167e-10" RangeMax="2.863681919841751e-7">
          3.8478186685409157e-8 4.679489868080408e-8 9.944724938024458e-8 6.625486237225106e-8 2.5737432910633114e-8 1.7425965107757247e-7
          8.572951838892504e-8 3.0185933437812456e-8 1.5956934568620664e-7 9.935020124879999e-9 6.523723129997256e-9 3.2142512361843547e-9
          4.988749107654426e-8 3.9172915616888165e-8 2.035837620011798e-8 1.5955221382989137e-8 6.658703741973644e-9 5.243538234140834e-9
          8.99161466167829e-8 2.863681919841751e-7 2.4340150082947185e-7 1.451992998219924e-7 6.735552131787117e-8 5.9184207316027303e-8
          2.3826863586145914e-7 1.978411996172118e-7 3.395350900701273e-8 1.1892659156428454e-7 9.680315227554042e-8 3.889800287956609e-8
          1.0980041562566369e-7 5.545292583034675e-8 2.8206092975606776e-7 2.2381928468243128e-7 1.2984453710231258e-7 1.7029476585641455e-7
          1.5482906579711932e-7 1.577689915429928e-7 2.1949236424594418e-7 1.2258779388521397e-7 2.7440676075818844e-7 1.1033243411208297e-7
          1.987805995196468e-7 5.5316723974415644e-8 9.594466063428706e-8 3.812724550323172e-8 2.3954645749003425e-7 1.1754771141057873e-7
          1.9459079576616942e-8 1.6871850835429753e-8 1.5115051472159594e-8 1.2283669174617776e-8 6.638110511724786e-9 5.267561421942841e-9
          4.219117989607358e-9 1.0652009895420869e-8 1.2927441383502702e-8 4.296629612766097e-9 7.312762122758681e-9 4.185914500183075e-9
          1.1258238782778765e-8 2.1336502680485466e-8 6.746138456310716e-9 5.6961551608539646e-9 1.3221906751203465e-8 1.2746676763184985e-8
          4.391875227026927e-9 1.1234551622001908e-8 1.8384615316269452e-8 1.5656247353673287e-8 2.1532565718712927e-8 2.3556865898547344e-8
          1.0848660965776545e-8 3.73350559002625e-9 2.9054118748945726e-8 4.032476904210716e-8 3.653137614148752e-8 2.879777942237117e-8
          9.974224741438176e-8 1.047151223941384e-7 7.541793311252329e-8 1.5198213141053108e-8 2.0201430434589158e-8 1.5545285265303864e-8
          6.761231815531842e-8 4.687972559787652e-8 5.163778776698862e-8 1.4901695782465025e-7 1.4920711396160904e-7 1.4073107060799854e-7
          1.6190400571442942e-7 9.869515139226391e-8 7.47127687453674e-8 1.4564576872429092e-7 9.195243330700139e-8 8.099011104740676e-8
          6.632498078673139e-8 4.516404665520432e-8 1.430300384924744e-7 1.3169617600636468e-7 9.877198353975466e-8 1.831026211140788e-7
          1.3583802085246068e-7 1.968860744515803e-7 1.864694696325017e-7 1.771752417712649e-7 1.2695315871796885e-7 8.769128966828197e-8
          2.0317141073873896e-7 1.9522108909186173e-7 1.373745241629025e-7 2.6992713820688055e-8 3.364238534224782e-8 2.702113215610098e-8
          3.6802731346029124e-8 2.3389541656049724e-8 2.1202981210558393e-8 2.5064931613773515e-8 2.274394995853342e-8 9.896373022341928e-9
          6.828394356912577e-9 6.227856056585559e-9 1.64170792612522e-8 1.7829633153753682e-8 4.761212593550844e-9 5.0653224064608466e-8
          4.5595823512346936e-8 6.321487702868086e-9 3.37666738619028e-8 5.290682653453327e-9 4.841858370002331e-9 3.4168580924323263e-9
          3.096266705338538e-9 3.722613330709088e-9 2.327148466593575e-9 1.1163480207712701e-8 1.3650013710573101e-8 5.2486177696312915e-9
          5.140016588447774e-9 8.509222657988053e-9 1.2134443261746834e-8 6.443918730472341e-9 2.2415502863934498e-8 4.042848210215156e-9
          1.6864526747998752e-8 2.5561165162370974e-9 2.5192094492588125e-9 2.060040457607353e-9 3.187900452850606e-9 2.0374924231808265e-9
          3.1287551421018297e-9 7.410913146974571e-8 1.0498328464460151e-8 8.89815179879529e-8 4.107604065331893e-8 5.054228348659503e-9
          2.349083817965673e-8 7.162665648909083e-9 6.837274675924864e-8 9.370449332007108e-9 3.2608989567637076e-8 2.812388405936138e-9
          3.6810323619853896e-9 9.381773328409641e-8 1.3756995369116511e-8 3.951924634674106e-8 5.086095602673867e-9 1.0423809354848283e-7
          4.31384835247493e-8 1.878930334490809e-8 2.090904384603626e-8 7.822524697724839e-9 5.608588287167273e-9 1.544324538774635e-8
          1.966806602925909e-8 9.032233124277864e-9 2.2846644810280543e-8 6.097741134834147e-9 2.152855577462074e-8 1.4687999373023535e-8
          1.9095693837966564e-8 1.464178228416623e-8 1.1514025951518284e-8 1.5103801996664468e-8 6.301056552891907e-9 8.408897014685526e-9
          8.286248601064047e-9 1.0682581546329651e-8 5.03685018327627e-9 3.277337039077117e-9 4.304757821836428e-9 4.9450013170008316e-9
          5.950240317112816e-9 5.77252851548157e-9 5.357392828530132e-9 1.0065018498191173e-8 4.213526283296105e-9 4.088894625197967e-9
          5.318628449748544e-9 5.157199156051827e-9 2.8000970060577048e-9 4.105489099631339e-9 3.973144249992408e-9 3.763378885626472e-9
          4.74577190418354e-9 3.604573279800119e-9 9.304354838508324e-9 8.96528034533166e-9 7.049726463147221e-9 8.13210719269365e-9
          3.981764226482642e-9 4.715186435893808e-9 3.923532646331425e-9 7.907260407141488e-9 3.2830518580349483e-9 4.134692641845304e-9
          2.218639830031076e-9 3.0825924679249453e-9 2.7177916598722473e-9 3.408789442703692e-9 2.4950714733515624e-9 6.94676158451297e-9
          5.3013035222062705e-9 5.578795962350855e-9 2.130075214370031e-9 2.061800842940833e-9 3.082549388965185e-9 2.9756870630371928e-9
          1.4921547203111587e-9 2.2715167372092498e-9 2.189147444031953e-9 1.8727937509405747e-9 2.6814542710791256e-9 1.9628808598462857e-9
          5.738128589216676e-9 5.5124124549477775e-9 4.897175658933236e-9 1.6080686930566296e-9 2.2686581772816575e-9 1.1528935030230922e-9
          1.647759396785652e-9 1.3091650087120623e-9 1.8121928019702497e-9 1.303130816728862e-9 4.046979186268937e-9 3.137504754949606e-9
          2.621864224209937e-9 3.1098124465239617e-9 2.6829635289627525e-9 4.947356768250856e-9 2.1762002145277533e-9 2.677519699269267e-9
          1.461910872205975e-9 1.913957123365055e-9 1.920426021227794e-9 2.3110718508097893e-9 1.6346090766301142e-9 4.268846296034256e-9
          3.1161776953003175e-9 3.459860832180146e-9 1.036678469529784e-9 1.371050629382484e-9 7.332493437578167e-10 9.77601350126899e-10
          9.191032773791884e-10 1.1609482043387326e-9 8.254762915294635e-10 2.2927998225661767e-9 1.7828253583843644e-9 1.2094189677273583e-8
          9.630553674231303e-9 1.0946847761203375e-8 8.8156572504316e-9 8.622705872892543e-9 6.779662828070846e-9 1.28697428250518e-8
          1.9902422125422753e-8 1.8344722082043344e-8 1.5375252827763793e-8 2.4544733894901926e-8 6.959498984863301e-9 5.2398145045859204e-9
          8.360176675069265e-9 1.2601728679213539e-8 7.4187721187390425e-9 5.357950710988786e-9 1.0553121912434175e-8 6.5129828897583895e-9
          4.938334909469989e-9 4.654886395318122e-9 3.4321955216242896e-9 9.444911400255079e-9 7.439123282736558e-9 6.647606605213038e-9
          3.1616050798220923e-9 3.7286601338730385e-9 3.1611363759694166e-9 5.155938758117782e-9 2.6896503296483193e-9 3.210532284917348e-9
          1.865913654205811e-9 2.2956244276447753e-9 2.270948769077069e-9 2.663480419406346e-9 1.824139857456654e-9 4.4805936673946215e-9
          3.2927779068515966e-9 3.6630994810887666e-9 1.4413879882310603e-8 1.0234741385487186e-8 1.8656525098298763e-8 1.3090469796720122e-8
          1.0634771303222178e-8 9.08874978727173e-9 7.067609827060407e-9 1.7193775296203345e-8 1.436224660772333e-8 1.1749111553079319e-8
          6.89069562635311e-9 5.852866139641032e-9 8.617338149003383e-9 6.038440710796256e-9 4.528435633720144e-9 4.9356073064416194e-9
          3.4700080897774e-9 7.669199670114638e-9 5.9184838360361755e-9 5.447345217973679e-9 3.732474552965765e-9 2.5250737834214975e-9
          1.8317147281397554e-9 5.7740433307420896e-9 3.811414612949135e-9 1.2938651570502445e-9 1.6310498229559925e-9 9.055239502142216e-10
          1.157522217909286e-9 1.0330412601142365e-9 1.266802069746615e-9 8.860223829718176e-10 2.4110049222034243e-9 1.744811274916733e-9
          1.835262951512659e-9 8.470078918450241e-9 5.450525451754356e-9 1.6153985065522874e-8 1.4560730869629265e-8 1.1710997397312898e-8
          1.6969221203682617e-8 1.0326042973202382e-8 6.825527665295097e-9 1.1694203392216162e-8 9.27700075051336e-9 7.299015263696126e-9
          5.91710850361916e-9 4.375268694234036e-9 1.0607619887272775e-8 8.48547645856139e-9 6.799833558249779e-9 2.0604316450308098e-8
          1.8638753752824192e-8 1.9315430478062334e-8 1.2614723102474852e-8 8.41036822837751e-9 1.3023677993310018e-8 1.1512589475348574e-8
          7.345926952496172e-9 5.5385253504414366e-9 1.1872649663938683e-8 7.555899828991254e-9 3.729130693348429e-9 4.1334504292233995e-9
          3.575927553455086e-9 4.728837559560026e-9 3.294552007537073e-9 3.608708336847811e-9 2.425001672967917e-9 2.6366244705365885e-9
          2.812494028773964e-9 2.9789781192944793e-9 2.0257459647861755e-9 4.109808922125092e-9 3.0049729237418652e-9 3.2975335632071774e-9
          5.044352969201864e-9 4.324053573436408e-9 5.168800984382045e-9 4.408510506933309e-9 3.249837747905626e-9 3.539569627900567e-9
          2.3530174147973217e-9 4.520267835774982e-9 3.3379769164327816e-9 3.629534339201774e-9
        </DataArray>
        <DataArray type="Float64" Name="gradient_matprop_error" format="ascii" RangeMin="0" RangeMax="0">
          0 0 0 0 0 0
          0 0 0 0 0 0
          0 0 0 0 0 0
          0 0 0 0 0 0
          0 0 0 0 0 0
          0 0 0 0 0 0
          0 0 0 0 0 0
          0 0 0 0 0 0
          0 0 0 0 0 0
          0 0 0 0 0 0
          0 0 0 0 0 0
          0 0 0 0 0 0
          0 0 0 0 0 0
          0 0 0 0 0 0
          0 0 0 0 0 0
          0 0 0 0 0 0
          0 0 0 0 0 0
          0 0 0 0 0 0
          0 0 0 0 0 0
          0 0 0 0 0 0
          0 0 0 0 0 0
          0 0 0 0 0 0
          0 0 0 0 0 0
          0 0 0 0 0 0
          0 0 0 0 0 0
          0 0 0 0 0 0
          0 0 0 0 0 0
          0 0 0 0 0 0
          0 0 0 0 0 0
          0 0 0 0 0 0
          0 0 0 0 0 0
          0 0 0 0 0 0
          0 0 0 0 0 0
          0 0 0 0 0 0
          0 0 0 0 0 0
          0 0 0 0 0 0
          0 0 0 0 0 0
          0 0 0 0 0 0
          0 0 0 0 0 0
          0 0 0 0 0 0
          0 0 0 0 0 0
          0 0 0 0 0 0
          0 0 0 0 0 0
          0 0 0 0 0 0
          0 0 0 0 0 0
          0 0 0 0 0 0
          0 0 0 0 0 0
          0 0 0 0 0 0
          0 0 0 0 0 0
          0 0 0 0 0 0
          0 0 0 0 0 0
          0 0 0 0 0 0
          0 0 0 0 0 0
          0 0 0 0 0 0
          0 0 0 0 0 0
          0 0 0 0 0 0
          0 0 0 0 0 0
          0 0 0 0 0 0
          0 0 0 0 0 0
          0 0 0 0 0 0
          0 0 0 0 0 0
          0 0 0 0 0 0
          0 0 0 0 0 0
          0 0 0 0 0 0
          0 0 0 0 0 0
          0 0 0 0
        </DataArray>
        <DataArray type="Float64" Name="initial_marker" format="ascii" RangeMin="0" RangeMax="2">
          0 0 0 0 0 2
          0.75 0 2 0 0 0
          0 0 0 0 0 0
          0 1 1 0.5 0 0
          1 1 0 0.5 0.5 0
          0.5 0.25 2 2 2 1
          2 2 1.5 1.5 2 0
          0.5 0 0.25 0 1 0.5
          0 0 0 0 0 0
          0 0 0 0 2 2
          0 2 1.5 2 0 0
          0 0 0 0 0 0
          0 0 0 1 1 1
          2 2 2 0 0.5 0
          2 1.6666666666666667 2 2 2 2
          2 2 2 2 2 2
          2 1.3333333333333333 2 2 2 2
          2 2 2 2 2 2
          2 2 2 0.5 1 0
          1 0 0 1 1 0
          1 1 0 0.75 0.5 2
          2 2 2 0 0 1
          1 0 0.5 0 0.25 0
          0 0 0 0 1 0.5
          0.3333333333333333 0 0 0 0 0.5
          0 2 2 2 2 2
          0.75 0.5 2 2 1.5 2
          0.5 2 2 2 2 2
          2 0.25 0.5 0 0 0
          0 0 0.5 0 0 0
          0 0 0 0 0 0
          0 0 0 0 0 2
          2 2 2 2 2 2
          2 2 2 2 2 2
          2 2 2 2 2 2
          2 2 1.5 2 2 2
          2 2 1 1.5 1.5 2
          2 2 2 2 2 2
          2 2 2 2 2 2
          2 2 2 2 2 2
          2 1 1.5 1.5 2 2
          0 0.5 0 1.5 0 0.5
          0 0.5 0 0 0 1.5
          1.5 0.6666666666666666 0 0.5 0 0.5
          0 0 0 1.5 0.6666666666666666 2
          2 2 2 2 2 2
          2 2 2 2 2 2
          2 2 2 1.5 2 2
          2 1.5 1.5 2 2 2
          0 0.5 0 1.5 0 0.5
          0 0.5 0 0 0 1.5
          1.5 1 2 2 2 2
          2 2 2 2 2 2
          2 2 2 2 2 2
          2 2 2 2 2 1.5
          1.5 2 2 0 0.5 0
          0.5 0 0 0 1.5 1.5
          1 2 2 2 2 2
          2 2 2 2 2 2
          2 2 2 2 2 2
          2 2 2 2 2 2
          2 2 2 2 1 1
          0 1 1 1 1 1
          0 0 0 1 1 0
          1 0 1 1 1 0
          0 1 1 0
        </DataArray>
        <DataArray type="Float64" Name="markers_norefine" format="ascii" RangeMin="0" RangeMax="0">
          0 0 0 0 0 0
          0 0 0 0 0 0
          0 0 0 0 0 0
          0 0 0 0 0 0
          0 0 0 0 0 0
          0 0 0 0 0 0
          0 0 0 0 0 0
          0 0 0 0 0 0
          0 0 0 0 0 0
          0 0 0 0 0 0
          0 0 0 0 0 0
          0 0 0 0 0 0
          0 0 0 0 0 0
          0 0 0 0 0 0
          0 0 0 0 0 0
          0 0 0 0 0 0
          0 0 0 0 0 0
          0 0 0 0 0 0
          0 0 0 0 0 0
          0 0 0 0 0 0
          0 0 0 0 0 0
          0 0 0 0 0 0
          0 0 0 0 0 0
          0 0 0 0 0 0
          0 0 0 0 0 0
          0 0 0 0 0 0
          0 0 0 0 0 0
          0 0 0 0 0 0
          0 0 0 0 0 0
          0 0 0 0 0 0
          0 0 0 0 0 0
          0 0 0 0 0 0
          0 0 0 0 0 0
          0 0 0 0 0 0
          0 0 0 0 0 0
          0 0 0 0 0 0
          0 0 0 0 0 0
          0 0 0 0 0 0
          0 0 0 0 0 0
          0 0 0 0 0 0
          0 0 0 0 0 0
          0 0 0 0 0 0
          0 0 0 0 0 0
          0 0 0 0 0 0
          0 0 0 0 0 0
          0 0 0 0 0 0
          0 0 0 0 0 0
          0 0 0 0 0 0
          0 0 0 0 0 0
          0 0 0 0 0 0
          0 0 0 0 0 0
          0 0 0 0 0 0
          0 0 0 0 0 0
          0 0 0 0 0 0
          0 0 0 0 0 0
          0 0 0 0 0 0
          0 0 0 0 0 0
          0 0 0 0 0 0
          0 0 0 0 0 0
          0 0 0 0 0 0
          0 0 0 0 0 0
          0 0 0 0 0 0
          0 0 0 0 0 0
          0 0 0 0 0 0
          0 0 0 0 0 0
          0 0 0 0
        </DataArray>
        <DataArray type="Float64" Name="markers_mustrefine" format="ascii" RangeMin="0" RangeMax="2">
          0 0 0 0 0 2
          0.75 0 2 0 0 0
          0 0 0 0 0 0
          0 1 1 0.5 0 0
          1 1 0 0.5 0.5 0
          0.5 0.25 2 2 2 1
          2 2 1.5 1.5 2 0
          0.5 0 0.25 0 1 0.5
          0 0 0 0 0 0
          0 0 0 0 2 2
          0 2 1.5 2 0 0
          0 0 0 0 0 0
          0 0 0 1 1 1
          2 2 2 0 0.5 0
          2 1.6666666666666667 2 2 2 2
          2 2 2 2 2 2
          2 1.3333333333333333 2 2 2 2
          2 2 2 2 2 2
          2 2 2 0.5 1 0
          1 0 0 1 1 0
          1 1 0 0.75 0.5 2
          2 2 2 0 0 1
          1 0 0.5 0 0.25 0
          0 0 0 0 1 0.5
          0.3333333333333333 0 0 0 0 0.5
          0 2 2 2 2 2
          0.75 0.5 2 2 1.5 2
          0.5 2 2 2 2 2
          2 0.25 0.5 0 0 0
          0 0 0.5 0 0 0
          0 0 0 0 0 0
          0 0 0 0 0 2
          2 2 2 2 2 2
          2 2 2 2 2 2
          2 2 2 2 2 2
          2 2 1.5 2 2 2
          2 2 1 1.5 1.5 2
          2 2 2 2 2 2
          2 2 2 2 2 2
          2 2 2 2 2 2
          2 1 1.5 1.5 2 2
          0 0.5 0 1.5 0 0.5
          0 0.5 0 0 0 1.5
          1.5 0.6666666666666666 0 0.5 0 0.5
          0 0 0 1.5 0.6666666666666666 2
          2 2 2 2 2 2
          2 2 2 2 2 2
          2 2 2 1.5 2 2
          2 1.5 1.5 2 2 2
          0 0.5 0 1.5 0 0.5
          0 0.5 0 0 0 1.5
          1.5 1 2 2 2 2
          2 2 2 2 2 2
          2 2 2 2 2 2
          2 2 2 2 2 1.5
          1.5 2 2 0 0.5 0
          0.5 0 0 0 1.5 1.5
          1 2 2 2 2 2
          2 2 2 2 2 2
          2 2 2 2 2 2
          2 2 2 2 2 2
          2 2 2 2 1 1
          0 1 1 1 1 1
          0 0 0 1 1 0
          1 0 1 1 1 0
          0 1 1 0
        </DataArray>
        <DataArray type="Float64" Name="gradient_marker" format="ascii" RangeMin="0" RangeMax="1">
          0.5 0.5 0.75 0.5 0.5 0.75
          0.25 0.5 0.75 1 1 1
          1 1 1 1 1 1
          0.25 0.75 0.625 0.5 0 0
          0.5 0.5 0 0.25 0.25 0
          0.375 0.125 1 0.75 0.5 0.625
          0.75 0.75 0.75 0.375 1 0.375
          0.5 0.125 0.25 0 0.5 0.25
          0.5 0.5 0.5 0.5 1 1
          1 0.5 0.5 1 1 1
          0.625 1 0.875 1 0.5 0.5
          1 0.5 0.5 0.5 0.5 0
          0.5 1 0 0 0 0
          0.6666666666666666 0.5 0 0 0 0
          0 0 0 0.75 0.75 0.75
          0.75 0.25 0 0.75 0.25 0.25
          0 0 0.75 0.625 0.5 1
          1 1 1 0.875 1 0.5
          1 1 1 0 0 0
          0 0 0 0 0 0.5
          0.75 0.75 0 0 0.75 0.25
          0.25 1 0.125 1 1 1
          1 1 1 0 0 0.5
          0.625 0 0 0.5 0 0.875
          0 1 1 1 1 1
          1 0.375 1 0.375 0.125 1
          0 0.75 0.25 1 0 1
          1 0.375 1 0.125 1 0.5
          0.25 0 0 0.625 0.75 0
          0 0.5 0 0.75 0 0
          0 0 0 0 0.5 0.5
          0 0 0.5 1 1 0
          0 0 0 0 0.5 0.5
          0.5 0.5 1 1 1 0.5
          0.5 1 0.5 0.5 1 0.5
          0 0 0 0 0.5 0.5
          1 1 0.5 0.5 1 0.5
          1 0.5 1 1 1 1
          1 1 1 1 1 1
          1 1 1 1 1 1
          1 1 1 1 1 1
          0 0 0 0 0.5 0.5
          1 1 0.5 0.5 1 0.5
          1 0.5 1 1 1 1
          1 1 1 1 1 0
          0 0.5 1 0.5 1 0.5
          0 0.5 1 0.5 1 1
          1 1 0 0 0 0.5
          1 0.5 1 0.5 1 0.5
          0 0 0 0 0.5 0.5
          1 1 0.5 0.5 1 0.5
          1 0.5 0 0 0 0.5
          1 0.5 1 0.5 1 0.5
          0 0 0 0.5 1 0.5
          1 0.5 1 0.5 1 1
          1 1 1 1 1 1
          1 1 1 1 1 1
          1 1 1 0 0.5 1
          0.5 0 0 0 0.5 1
          0.5 1 0.5 1 0.5 0
          0.5 0.5 0 0 0 0.5
          0.5 1 0.5 0.5 0 0
          0 0 0.5 0.5 1 1
          0.5 0.5 1 0.5 1 0.5
          0 0 0 0.5 1 0.5
          1 0.5 1 0.5
        </DataArray>
        <DataArray type="Float64" Name="gradient_matprop_marker" format="ascii" RangeMin="0" RangeMax="0">
          0 0 0 0 0 0
          0 0 0 0 0 0
          0 0 0 0 0 0
          0 0 0 0 0 0
          0 0 0 0 0 0
          0 0 0 0 0 0
          0 0 0 0 0 0
          0 0 0 0 0 0
          0 0 0 0 0 0
          0 0 0 0 0 0
          0 0 0 0 0 0
          0 0 0 0 0 0
          0 0 0 0 0 0
          0 0 0 0 0 0
          0 0 0 0 0 0
          0 0 0 0 0 0
          0 0 0 0 0 0
          0 0 0 0 0 0
          0 0 0 0 0 0
          0 0 0 0 0 0
          0 0 0 0 0 0
          0 0 0 0 0 0
          0 0 0 0 0 0
          0 0 0 0 0 0
          0 0 0 0 0 0
          0 0 0 0 0 0
          0 0 0 0 0 0
          0 0 0 0 0 0
          0 0 0 0 0 0
          0 0 0 0 0 0
          0 0 0 0 0 0
          0 0 0 0 0 0
          0 0 0 0 0 0
          0 0 0 0 0 0
          0 0 0 0 0 0
          0 0 0 0 0 0
          0 0 0 0 0 0
          0 0 0 0 0 0
          0 0 0 0 0 0
          0 0 0 0 0 0
          0 0 0 0 0 0
          0 0 0 0 0 0
          0 0 0 0 0 0
          0 0 0 0 0 0
          0 0 0 0 0 0
          0 0 0 0 0 0
          0 0 0 0 0 0
          0 0 0 0 0 0
          0 0 0 0 0 0
          0 0 0 0 0 0
          0 0 0 0 0 0
          0 0 0 0 0 0
          0 0 0 0 0 0
          0 0 0 0 0 0
          0 0 0 0 0 0
          0 0 0 0 0 0
          0 0 0 0 0 0
          0 0 0 0 0 0
          0 0 0 0 0 0
          0 0 0 0 0 0
          0 0 0 0 0 0
          0 0 0 0 0 0
          0 0 0 0 0 0
          0 0 0 0 0 0
          0 0 0 0 0 0
          0 0 0 0
        </DataArray>
        <DataArray type="Float64" Name="combo" format="ascii" RangeMin="0" RangeMax="1">
          0.5 0.5 0.75 0.5 0.5 0.75
          0.25 0.5 0.75 1 1 1
          1 1 1 1 1 1
          0.25 0.75 0.625 0.5 0 0
          0.5 0.5 0 0.25 0.25 0
          0.375 0.125 1 0.75 0.5 0.625
          0.75 0.75 0.75 0.375 1 0.375
          0.5 0.125 0.25 0 0.5 0.25
          0.5 0.5 0.5 0.5 1 1
          1 0.5 0.5 1 1 1
          0.625 1 0.875 1 0.5 0.5
          1 0.5 0.5 0.5 0.5 0
          0.5 1 0 0 0 0
          0.6666666666666666 0.5 0 0 0 0
          0 0 0 0.75 0.75 0.75
          0.75 0.25 0 0.75 0.25 0.25
          0 0 0.75 0.625 0.5 1
          1 1 1 0.875 1 0.5
          1 1 1 0 0 0
          0 0 0 0 0 0.5
          0.75 0.75 0 0 0.75 0.25
          0.25 1 0.125 1 1 1
          1 1 1 0 0 0.5
          0.625 0 0 0.5 0 0.875
          0 1 1 1 1 1
          1 0.375 1 0.375 0.125 1
          0 0.75 0.25 1 0 1
          1 0.375 1 0.125 1 0.5
          0.25 0 0 0.625 0.75 0
          0 0.5 0 0.75 0 0
          0 0 0 0 0.5 0.5
          0 0 0.5 1 1 0
          0 0 0 0 0.5 0.5
          0.5 0.5 1 1 1 0.5
          0.5 1 0.5 0.5 1 0.5
          0 0 0 0 0.5 0.5
          1 1 0.5 0.5 1 0.5
          1 0.5 1 1 1 1
          1 1 1 1 1 1
          1 1 1 1 1 1
          1 1 1 1 1 1
          0 0 0 0 0.5 0.5
          1 1 0.5 0.5 1 0.5
          1 0.5 1 1 1 1
          1 1 1 1 1 0
          0 0.5 1 0.5 1 0.5
          0 0.5 1 0.5 1 1
          1 1 0 0 0 0.5
          1 0.5 1 0.5 1 0.5
          0 0 0 0 0.5 0.5
          1 1 0.5 0.5 1 0.5
          1 0.5 0 0 0 0.5
          1 0.5 1 0.5 1 0.5
          0 0 0 0.5 1 0.5
          1 0.5 1 0.5 1 1
          1 1 1 1 1 1
          1 1 1 1 1 1
          1 1 1 0 0.5 1
          0.5 0 0 0 0.5 1
          0.5 1 0.5 1 0.5 0
          0.5 0.5 0 0 0 0.5
          0.5 1 0.5 0.5 0 0
          0 0 0.5 0.5 1 1
          0.5 0.5 1 0.5 1 0.5
          0 0 0 0.5 1 0.5
          1 0.5 1 0.5
        </DataArray>
        <DataArray type="Float64" Name="dHdT" format="ascii" RangeMin="25.81916203625092" RangeMax="38.654037111861214">
          25.968313472755707 25.99167726291996 26.234985817088077 26.06261777193745 25.904321052838874 30.720358279965723
          26.841290090249103 25.914247315903793 30.115274643958998 25.84643208913605 25.833070205909046 25.895197594288774
          25.872728032468945 25.859325195483777 25.83700112872928 25.83180638560514 25.82075610996305 25.81916203625092
          26.44279020568457 28.14454819446305 27.673390906361305 26.80654885340555 26.27973395591451 26.217026494117405
          27.52016534718123 27.15415410081166 26.041864146234616 26.781741662869983 26.564007649758697 26.074643011717157
          26.496433176257337 26.181895441897453 31.87321775659164 30.225315627832266 28.904419525670882 27.47779801436378
          37.200935506967085 35.631499172172724 30.08487694994428 28.64068870040029 31.65954773353613 26.505507272085797
          27.156563756441024 26.18514175089414 26.55542748621614 26.067995464223692 27.512316610320703 26.760914906185626
          25.943999805938436 25.92472115397932 26.080524961410028 26.017571384406484 25.857352758511805 25.89366109424062
          25.874816429374725 25.88419477452073 25.93046637994175 25.852920682854624 27.679032739033687 26.871173381147194
          26.131531813957448 32.46338381792073 26.732392157709903 27.272918566366563 25.93400823232421 26.01870630708671
          25.854801901884077 25.88958480667129 25.93521107374587 26.076004304854653 25.957362306239517 25.961590180023617
          25.88255163489255 25.83996226705692 26.674820854922828 27.448100556739483 27.29795734964249 26.962485607753013
          30.877600018407758 31.393037849106843 29.842000026425225 26.313973115145963 26.590430047259694 26.403703021558872
          29.0825689331082 27.829721412335743 28.101433587026044 34.65484325877314 33.807768384584975 32.584093716130965
          36.94493201808241 31.338617333054238 29.764863217231216 34.12626202684787 30.497323847469058 29.561051326290723
          28.993598822820324 27.75456991478173 33.183577906004096 31.896245899677567 31.04729406171149 37.03566326293685
          34.00171333337908 38.654037111861214 36.10141034113955 34.34283748228287 32.94226225059052 30.23758086455446
          37.74774363210082 35.70414718897516 33.67570043637266 26.89465507498619 27.182359641740288 26.647873694508434
          27.30805214224616 26.53881363144683 26.484062621663263 27.071927695690988 26.956982244169744 26.18586570824739
          26.401430850763163 26.34532054628355 26.354581089566295 26.694562135135612 26.21564745061404 29.529249418557033
          29.045541297128494 27.412203937497114 28.019452089421065 26.03182369366222 26.013613722763512 26.1219763398913
          26.090283530245642 25.9714007514282 26.018832068743606 26.202640172035217 26.404729636942648 26.0280211195932
          26.10039748941908 26.125429776817555 26.27862024548925 26.074248449316364 27.065269143652195 26.395724375507008
          26.57799571591075 25.928926852345306 25.96139261234258 25.91045595369902 25.950821117303747 26.107542185007375
          26.00866608805949 30.953178987972034 28.554880416942623 34.95675776466178 28.44521397223016 27.091132035486098
          26.99613011441347 26.382519766363252 30.436903229794456 28.24917613344821 27.746391274779207 26.48295855011096
          26.10517424779637 32.57222964859976 29.664653956297734 28.54429492740362 27.118217078720555 33.51516960262772
          28.88123126853521 26.64352421418003 26.86634703182673 26.225413075559338 26.29636588517841 26.341173349130667
          26.460702890577032 26.167736683323767 26.961081436218333 26.33809004045603 26.51080383445302 26.392383641446735
          26.56251332509235 26.308626580082343 26.27168053863377 26.401854631858786 26.075140109713693 26.142787437814132
          26.126228118156405 26.198986434858348 26.028421836019167 25.95482526355113 25.987617449591756 27.026979832393764
          27.46016134040412 27.41216845834368 27.283845306902208 28.558959703115175 26.883390495310053 26.85479496504974