<?xml version="1.0"?>
<VTKFile type="UnstructuredGrid" version="0.1" byte_order="LittleEndian" header_type="UInt32" compressor="vtkZLibDataCompressor">
  <UnstructuredGrid>
    <Piece NumberOfPoints="314" NumberOfCells="192">
      <PointData>
        <DataArray type="Int32" Name="libmesh_node_id" format="ascii" RangeMin="279" RangeMax="2708">
          279 570 571 575 576 1084
          1085 1086 1087 1099 1100 1107
          1112 1113 1114 1115 1116 1117
          1118 1119 1120 1121 1127 1129
          1130 1133 1134 1927 1928 1930
          1931 1932 1933 1934 1935 1936
          1937 1938 1939 1940 1941 1942
          1943 1944 1946 1948 1949 1950
          1951 1952 1953 1954 1955 1956
          1957 1958 2038 2040 2041 2042
          2043 2044 2045 2046 2047 2048
          2049 2050 2095 2129 2133 2134
          2135 2136 2137 2138 2139 2140
          2141 2142 2143 2144 2145 2146
          2147 2148 2149 2150 2151 2152
          2153 2154 2155 2156 2157 2158
          2159 2160 2161 2162 2163 2164
          2165 2166 2167 2168 2169 2170
          2171 2172 2173 2174 2175 2176
          2177 2178 2179 2180 2181 2182
          2183 2184 2185 2186 2187 2188
          2189 2190 2191 2192 2193 2194
          2195 2196 2197 2198 2199 2200
          2205 2209 2225 2227 2229 2241
          2242 2243 2244 2245 2246 2247
          2248 2249 2250 2251 2252 2253
          2254 2269 2270 2271 2272 2273
          2274 2275 2276 2277 2278 2279
          2280 2281 2282 2331 2332 2335
          2337 2338 2340 2351 2353 2355
          2357 2470 2472 2474 2476 2538
          2539 2542 2544 2545 2547 2558
          2560 2562 2564 2572 2573 2576
          2578 2579 2581 2592 2594 2596
          2598 2674 2676 2678 2680 2702
          2704 2706 2708 1871 1925 1926
          1872 568 1877 1929 1874 1076
          1945 1885 1889 1947 1887 569
          2037 1987 1991 2039 1989 1093
          1888 1890 2092 2093 2094 2096
          2097 2098 2126 2127 2128 2130
          2131 2132 2077 2078 2080 1104
          2083 1105 2111 2112 2114 574
          2117 1110 1990 2204 1992 2207
          2206 2208 1123 2210 2224 2226
          2228 2230 2333 2334 1142 2339
          2336 1143 2352 2356 2354 1145
          2471 2475 2473 1160 2540 2541
          2543 1173 2546 1174 2559 2561
          2563 1177 2574 2575 2577 1179
          2580 1180 2593 2595 2597 1182
          2675 2677 2679 1193 2703 2705
          2707 1197
        </DataArray>
        <DataArray type="Float64" Name="bounds" format="ascii" RangeMin="0" RangeMax="0">
          0 0 0 0 0 0
          0 0 0 0 0 0
          0 0 0 0 0 0
          0 0 0 0 0 0
          0 0 0 0 0 0
          0 0 0 0 0 0
          0 0 0 0 0 0
          0 0 0 0 0 0
          0 0 0 0 0 0
          0 0 0 0 0 0
          0 0 0 0 0 0
          0 0 0 0 0 0
          0 0 0 0 0 0
          0 0 0 0 0 0
          0 0 0 0 0 0
          0 0 0 0 0 0
          0 0 0 0 0 0
          0 0 0 0 0 0
          0 0 0 0 0 0
          0 0 0 0 0 0
          0 0 0 0 0 0
          0 0 0 0 0 0
          0 0 0 0 0 0
          0 0 0 0 0 0
          0 0 0 0 0 0
          0 0 0 0 0 0
          0 0 0 0 0 0
          0 0 0 0 0 0
          0 0 0 0 0 0
          0 0 0 0 0 0
          0 0 0 0 0 0
          0 0 0 0 0 0
          0 0 0 0 0 0
          0 0 0 0 0 0
          0 0 0 0 0 0
          0 0 0 0 0 0
          0 0 0 0 0 0
          0 0 0 0 0 0
          0 0 0 0 0 0
          0 0 0 0 0 0
          0 0 0 0 0 0
          0 0 0 0 0 0
          0 0 0 0 0 0
          0 0 0 0 0 0
          0 0 0 0 0 0
          0 0 0 0 0 0
          0 0 0 0 0 0
          0 0 0 0 0 0
          0 0 0 0 0 0
          0 0 0 0 0 0
          0 0 0 0 0 0
          0 0 0 0 0 0
          0 0
        </DataArray>
        <DataArray type="Float64" Name="gradient_error" format="ascii" RangeMin="8.908598526991275e-10" RangeMax="5.407889008830728e-8">
          3.332654037129553e-8 2.0281573175969443e-8 8.018605651585942e-9 3.993296505868895e-8 1.6474421875885504e-8 3.324848981522109e-8
          2.7566464679497522e-8 1.6420802909133e-8 1.4327086522564982e-8 5.600214354333233e-9 2.8829216301711e-9 3.404048952028998e-8
          4.087681361579112e-8 4.38826223384155e-8 3.173399287312395e-8 2.8243821604143193e-8 2.3648003556215698e-8 1.3763963353393481e-8
          3.298898515073934e-8 4.767712998252543e-8 3.334093464980309e-8 2.8106590484538663e-8 1.566820511557263e-8 8.602812394034038e-9
          4.5639294780967465e-9 9.942007780200755e-9 5.334817553793525e-9 2.2780616100576703e-8 2.1684256310096227e-8 1.856113132765825e-8
          3.922133230708251e-8 3.792584183464298e-8 3.19248238651684e-8 3.325036882895239e-8 1.7959114272155324e-8 1.70558657300383e-8
          1.3503179632321106e-8 1.2774062832522028e-8 1.4490294657508171e-8 1.0735112718001827e-8 2.6608407013854822e-8 2.5447084889398332e-8
          1.9333125710486397e-8 2.1790985416666364e-8 1.4232885060107674e-8 9.950283615085198e-9 2.5627364646962368e-8 2.0939909468708515e-8
          1.782520595778837e-8 1.095313945404359e-8 7.992350742679337e-9 7.507487797478556e-9 5.389927618080811e-9 1.6372734620530674e-8
          1.216896887613768e-8 1.100179695189309e-8 6.518660096914323e-9 4.088534638095418e-9 1.168292568943924e-8 9.153777697224347e-9
          7.355677237909508e-9 4.817545234978594e-9 3.406294164891426e-9 2.9631498550577777e-9 2.0667949984285206e-9 6.863059875774549e-9
          4.905301469264758e-9 4.1037091783796865e-9 2.7911328361306423e-8 3.837987104091847e-8 4.4991594142161305e-8 4.5609996900761115e-8
          4.101921458230061e-8 4.0726837564783294e-8 4.326511397384982e-8 3.700440253417171e-8 4.181493573184934e-8 4.569929103297941e-8
          4.3463000393394655e-8 4.918901095633108e-8 3.4668817738539484e-8 3.381483666958517e-8 2.701116534048917e-8 2.6104185020775418e-8
          2.9768393271389093e-8 2.2641235431479757e-8 3.812107468914486e-8 3.8915283752320895e-8 3.1444628172919674e-8 3.65724786755796e-8
          3.4463575763652424e-8 2.8471659875667917e-8 2.3585748580472138e-8 1.9136954826644037e-8 4.216065806446522e-8 3.541343139837089e-8
          2.900382204876274e-8 2.2441869609182924e-8 1.6867570757079664e-8 1.4868905221722536e-8 1.0983907194324265e-8 2.8144351576590713e-8
          2.1258464781245976e-8 1.8468092592138227e-8 3.604124577398902e-8 4.2275601660364775e-8 3.572078312576691e-8 4.137153415976861e-8
          5.0967028548329106e-8 4.6973606742428515e-8 3.3634926895078766e-8 4.062744410685571e-8 3.986102745114735e-8 5.116112990044904e-8
          3.636829251983795e-8 3.966277270512985e-8 3.3306629703841206e-8 3.412275402195628e-8 4.060515517198687e-8 3.203484359657191e-8
          3.4612476423867634e-8 3.915633494351857e-8 3.4739577795429615e-8 4.182607723639854e-8 4.6958264198335876e-8 4.011919410271236e-8
          3.2909512113803944e-8 2.6912450513929413e-8 4.8498849969491714e-8 4.173804804052987e-8 3.433540947823955e-8 3.220412418170149e-8
          2.4418760009219505e-8 2.105848910291715e-8 1.5752204370331543e-8 3.3662610403626694e-8 2.5575325281476536e-8 2.2007023313564884e-8
          1.826979484071896e-8 2.1861488102718782e-8 2.4439677084659843e-8 1.5166297100948034e-8 2.53730882737081e-8 1.5076635977292982e-8
          1.1974903987876428e-8 9.323973204458468e-9 7.185694707323539e-9 1.815873757322697e-8 1.4534531117598537e-8 1.1064129006652318e-8
          9.090833645777735e-9 6.5633972240141275e-9 5.316358569886042e-9 3.761731791412991e-9 1.1135711799197165e-8 8.106822475786252e-9
          6.411676264881444e-9 2.0354447182379907e-8 1.634069201740931e-8 1.2266122774247685e-8 9.588500215354504e-9 2.115568321946403e-8
          1.6995228938758513e-8 1.2696107240814684e-8 1.2581634090223153e-8 9.210542551294168e-9 7.179405593529907e-9 5.130197260290297e-9
          1.310417013161756e-8 9.611887418877626e-9 7.455884788744415e-9 9.556185009777638e-9 9.002108500282065e-9 7.488394757035141e-9
          1.4732444944966051e-8 1.3968092987207089e-8 1.1702137277814838e-8 5.508849606370963e-9 3.673656771638198e-9 8.524531309999745e-9
          5.526566457956997e-9 2.3019887309580904e-9 1.3872884485874117e-9 3.335582980570798e-9 1.9391988122549274e-9 1.9865422935113013e-8
          1.9104551845531168e-8 1.637884258165214e-8 2.3692934146969032e-8 2.3227370410380715e-8 2.0548882237223273e-8 1.1998692912779196e-8
          7.656156276410272e-9 1.526949518904394e-8 9.688800348602525e-9 2.5728616109614648e-8 2.5688379482279546e-8 2.33715936470377e-8
          2.6299892955870245e-8 2.64685545781807e-8 2.4361412508621892e-8 1.759855402487119e-8 1.1161991716629396e-8 1.844062857607346e-8
          1.170055971150559e-8 4.495930374242026e-9 2.5419807203172612e-9 5.5879103789781234e-9 3.0965773059253516e-9 6.375473203343108e-9
          3.4906722001596957e-9 6.663268579605138e-9 3.633611143958041e-9 3.217864172140804e-8 2.768981681332255e-8 2.641690194360874e-8
          3.0811307314250625e-8 4.3612459771641884e-8 4.261867532138461e-8 2.2751382212036844e-8 2.6769863299666645e-8 3.81890834351999e-8
          1.7656968836433554e-8 2.106253660889062e-8 3.005438488453098e-8 1.2601728679213539e-8 1.5375252827763793e-8 2.1336502680485466e-8
          8.470078918450241e-9 1.0634771303222178e-8 1.436224660772333e-8 5.450525451754356e-9 7.067609827060407e-9 9.370449332007108e-9
          3.382055161238258e-8 2.4544733894901926e-8 4.32790453071758e-8 3.9690416879915554e-8 3.1493151512222404e-8 5.0124582839108755e-8
          4.735595116580751e-8 3.7760721557875576e-8 5.328065209837674e-8 5.1495718964132945e-8 4.204690597832168e-8 5.407889008830728e-8
          5.266652026120828e-8 4.360676963613478e-8 4.66808491746412e-8 4.818039365839119e-8 4.7725353090691377e-8 4.218185105372729e-8
          4.6440259121590975e-8 5.208117002844817e-8 3.627227091379703e-8 4.272052271523793e-8 5.280803388450951e-8 3.3074534674947855e-8
          4.084474720019039e-8 5.276595398980728e-8 1.7193775296203345e-8 2.1755242305657348e-8 1.1749111553079319e-8 1.1710997397312898e-8
          1.4560730869629265e-8 2.5742219850621316e-8 1.3756995369116511e-8 1.6969221203682617e-8 2.8564922576318464e-8 1.8638753752824192e-8
          2.9726568634691436e-8 1.9315430478062334e-8 6.324923905534127e-9 5.9397238696977986e-9 1.0014257838237055e-8 9.436706568254608e-9
          4.905936124524043e-9 7.798809181099656e-9 3.5828912819140597e-9 5.604947548191143e-9 2.3765800999778805e-9 3.5981244017734555e-9
          1.4852426203465097e-9 2.1580886342930403e-9 8.908598526991275e-10 1.2497085718582065e-9 1.3908719953850875e-8 1.3252570929054775e-8
          1.1133485725262588e-8 1.694398598033988e-8 1.6426641603170587e-8 1.4195156775626173e-8 7.991803270786729e-9 5.021783857064964e-9
          1.0293750903052175e-8 6.400231795154375e-9 1.8575409729633887e-8 1.832720115493501e-8 1.6286738447168305e-8 1.903058414533311e-8
          1.8923290553031702e-8 1.7018781009969156e-8 1.1960334508244683e-8 7.411826418806339e-9 1.2567170914192453e-8 7.784465988881695e-9
          2.9204585861408366e-9 1.640792985053652e-9 3.643740250137908e-9 2.0024421466925686e-9 4.168892318505646e-9 2.260810290239671e-9
          4.3614970497682014e-9 2.354814494992144e-9
        </DataArray>
        <DataArray type="Float64" Name="gradient_matprop_error" format="ascii" RangeMin="0" RangeMax="0">
          0 0 0 0 0 0
          0 0 0 0 0 0
          0 0 0 0 0 0
          0 0 0 0 0 0
          0 0 0 0 0 0
          0 0 0 0 0 0
          0 0 0 0 0 0
          0 0 0 0 0 0
          0 0 0 0 0 0
          0 0 0 0 0 0
          0 0 0 0 0 0
          0 0 0 0 0 0
          0 0 0 0 0 0
          0 0 0 0 0 0
          0 0 0 0 0 0
          0 0 0 0 0 0
          0 0 0 0 0 0
          0 0 0 0 0 0
          0 0 0 0 0 0
          0 0 0 0 0 0
          0 0 0 0 0 0
          0 0 0 0 0 0
          0 0 0 0 0 0
          0 0 0 0 0 0
          0 0 0 0 0 0
          0 0 0 0 0 0
          0 0 0 0 0 0
          0 0 0 0 0 0
          0 0 0 0 0 0
          0 0 0 0 0 0
          0 0 0 0 0 0
          0 0 0 0 0 0
          0 0 0 0 0 0
          0 0 0 0 0 0
          0 0 0 0 0 0
          0 0 0 0 0 0
          0 0 0 0 0 0
          0 0 0 0 0 0
          0 0 0 0 0 0
          0 0 0 0 0 0
          0 0 0 0 0 0
          0 0 0 0 0 0
          0 0 0 0 0 0
          0 0 0 0 0 0
          0 0 0 0 0 0
          0 0 0 0 0 0
          0 0 0 0 0 0
          0 0 0 0 0 0
          0 0 0 0 0 0
          0 0 0 0 0 0
          0 0 0 0 0 0
          0 0 0 0 0 0
          0 0
        </DataArray>
        <DataArray type="Float64" Name="initial_marker" format="ascii" RangeMin="2" RangeMax="2">
          2 2 2 2 2 2
          2 2 2 2 2 2
          2 2 2 2 2 2
          2 2 2 2 2 2
          2 2 2 2 2 2
          2 2 2 2 2 2
          2 2 2 2 2 2
          2 2 2 2 2 2
          2 2 2 2 2 2
          2 2 2 2 2 2
          2 2 2 2 2 2
          2 2 2 2 2 2
          2 2 2 2 2 2
          2 2 2 2 2 2
          2 2 2 2 2 2
          2 2 2 2 2 2
          2 2 2 2 2 2
          2 2 2 2 2 2
          2 2 2 2 2 2
          2 2 2 2 2 2
          2 2 2 2 2 2
          2 2 2 2 2 2
          2 2 2 2 2 2
          2 2 2 2 2 2
          2 2 2 2 2 2
          2 2 2 2 2 2
          2 2 2 2 2 2
          2 2 2 2 2 2
          2 2 2 2 2 2
          2 2 2 2 2 2
          2 2 2 2 2 2
          2 2 2 2 2 2
          2 2 2 2 2 2
          2 2 2 2 2 2
          2 2 2 2 2 2
          2 2 2 2 2 2
          2 2 2 2 2 2
          2 2 2 2 2 2
          2 2 2 2 2 2
          2 2 2 2 2 2
          2 2 2 2 2 2
          2 2 2 2 2 2
          2 2 2 2 2 2
          2 2 2 2 2 2
          2 2 2 2 2 2
          2 2 2 2 2 2
          2 2 2 2 2 2
          2 2 2 2 2 2
          2 2 2 2 2 2
          2 2 2 2 2 2
          2 2 2 2 2 2
          2 2 2 2 2 2
          2 2
        </DataArray>
        <DataArray type="Float64" Name="markers_norefine" format="ascii" RangeMin="0" RangeMax="2">
          0 0 0 0 0 0
          0 0 0 0 0 0
          1 0.25 0 0 0 0
          2 0.5 0 0 0 0
          0 0 0 0 0 0
          0 0 0 0 0 0
          0 0 0 0 0 0
          0 0 0 0 0 0
          0 0 0 0 0 0
          0 0 0 0 0 0
          0 0 0 0 0 0
          0 0 0 0 1 0.75
          0.5 0.25 0.25 0 2 1.75
          0.75 0.75 0 0 0 0
          0 0 0 0 0 0
          0 0 0 0 0 0
          0 0 0 0 0 0
          0 0 2 2 1.5 1.25
          1.25 0.5 2 2 1.5 1.5
          0.5 0.25 0 0 0 0
          1 0.5 0 0 0.25 0
          0 0 0.5 0 0 0
          0 0 0 0 0 0
          0 0 0 0 0 0
          0 0 0 0 0 0
          0 0 0 0 0 0
          0 0 0 0 0 0
          0 0 0 0 0 0
          0 0 0 0 0 0
          0 0 0 0 0 0
          0 0 0 0 0 0
          0 0 0 0 0 0
          0 0 0 0 0 0
          0 0 0 0 0 0
          0 0 0 0 0 0
          0 0 0 0 0 0
          0 0.5 0.25 0 0 0
          0 0 0 0 0 0
          0 0 0 0 0 0
          0 0 0.25 0 0 0.75
          0.25 0 1 0.75 0 1
          1 0 1.5 1.25 0.5 2
          2 1.25 2 2 1.75 2
          2 2 0 0 0 0
          0 0 0 0 0 0
          0 0 0 0 0 0
          0 0 0 0 0 0
          0 0 0 0 0 0
          0 0 0 0 0 0
          0 0 0 0 0 0
          0 0 0 0 0 0
          0 0 0 0 0 0
          0 0
        </DataArray>
        <DataArray type="Float64" Name="markers_mustrefine" format="ascii" RangeMin="2" RangeMax="2">
          2 2 2 2 2 2
          2 2 2 2 2 2
          2 2 2 2 2 2
          2 2 2 2 2 2
          2 2 2 2 2 2
          2 2 2 2 2 2
          2 2 2 2 2 2
          2 2 2 2 2 2
          2 2 2 2 2 2
          2 2 2 2 2 2
          2 2 2 2 2 2
          2 2 2 2 2 2
          2 2 2 2 2 2
          2 2 2 2 2 2
          2 2 2 2 2 2
          2 2 2 2 2 2
          2 2 2 2 2 2
          2 2 2 2 2 2
          2 2 2 2 2 2
          2 2 2 2 2 2
          2 2 2 2 2 2
          2 2 2 2 2 2
          2 2 2 2 2 2
          2 2 2 2 2 2
          2 2 2 2 2 2
          2 2 2 2 2 2
          2 2 2 2 2 2
          2 2 2 2 2 2
          2 2 2 2 2 2
          2 2 2 2 2 2
          2 2 2 2 2 2
          2 2 2 2 2 2
          2 2 2 2 2 2
          2 2 2 2 2 2
          2 2 2 2 2 2
          2 2 2 2 2 2
          2 2 2 2 2 2
          2 2 2 2 2 2
          2 2 2 2 2 2
          2 2 2 2 2 2
          2 2 2 2 2 2
          2 2 2 2 2 2
          2 2 2 2 2 2
          2 2 2 2 2 2
          2 2 2 2 2 2
          2 2 2 2 2 2
          2 2 2 2 2 2
          2 2 2 2 2 2
          2 2 2 2 2 2
          2 2 2 2 2 2
          2 2 2 2 2 2
          2 2 2 2 2 2
          2 2
        </DataArray>
        <DataArray type="Float64" Name="gradient_marker" format="ascii" RangeMin="0.5" RangeMax="1">
          1 1 1 1 1 1
          1 1 1 1 1 1
          1 1 1 1 1 1
          1 1 1 1 1 1
          1 1 1 1 1 1
          1 1 1 1 1 1
          1 1 1 1 1 1
          1 1 1 1 1 1
          1 1 1 1 1 1
          1 1 1 1 1 1
          1 1 1 1 1 1
          1 1 1 1 1 1
          1 1 1 1 1 1
          1 1 1 1 1 1
          1 1 1 1 1 1
          1 1 1 1 1 1
          1 1 1 1 1 1
          1 1 1 1 1 1
          1 1 1 1 1 1
          1 1 1 1 1 1
          1 1 1 1 1 1
          1 1 1 1 1 1
          1 1 1 1 1 1
          1 1 1 1 1 1
          1 1 1 1 1 1
          1 1 1 1 1 1
          1 1 1 1 1 1
          1 1 1 1 1 1
          1 1 1 1 1 1
          1 1 1 1 1 1
          1 1 1 1 1 1
          1 1 1 1 1 1
          1 1 1 1 1 1
          1 1 1 1 1 1
          1 1 1 1 1 1
          1 1 1 1 1 1
          1 1 1 1 1 1
          1 1 1 1 1 1
          1 1 1 1 1 1
          0.5 0.5 0.5 1 0.5 0.5
          1 0.5 0.5 1 0.5 0.5
          1 0.5 1 1 1 1
          1 1 1 1 1 1
          1 1 0.5 0.5 0.5 1
          0.5 0.5 1 0.5 0.5 0.5
          0.5 0.5 1 1 1 1
          1 1 1 1 1 1
          1 1 1 1 1 1
          1 1 1 1 1 1
          1 1 1 1 1 1
          1 1 1 1 1 1
          1 1 1 1 1 1
          1 1
        </DataArray>
        <DataArray type="Float64" Name="gradient_matprop_marker" format="ascii" RangeMin="0" RangeMax="0">
          0 0 0 0 0 0
          0 0 0 0 0 0
          0 0 0 0 0 0
          0 0 0 0 0 0
          0 0 0 0 0 0
          0 0 0 0 0 0
          0 0 0 0 0 0
          0 0 0 0 0 0
          0 0 0 0 0 0
          0 0 0 0 0 0
          0 0 0 0 0 0
          0 0 0 0 0 0
          0 0 0 0 0 0
          0 0 0 0 0 0
          0 0 0 0 0 0
          0 0 0 0 0 0
          0 0 0 0 0 0
          0 0 0 0 0 0
          0 0 0 0 0 0
          0 0 0 0 0 0
          0 0 0 0 0 0
          0 0 0 0 0 0
          0 0 0 0 0 0
          0 0 0 0 0 0
          0 0 0 0 0 0
          0 0 0 0 0 0
          0 0 0 0 0 0
          0 0 0 0 0 0
          0 0 0 0 0 0
          0 0 0 0 0 0
          0 0 0 0 0 0
          0 0 0 0 0 0
          0 0 0 0 0 0
          0 0 0 0 0 0
          0 0 0 0 0 0
          0 0 0 0 0 0
          0 0 0 0 0 0
          0 0 0 0 0 0
          0 0 0 0 0 0
          0 0 0 0 0 0
          0 0 0 0 0 0
          0 0 0 0 0 0
          0 0 0 0 0 0
          0 0 0 0 0 0
          0 0 0 0 0 0
          0 0 0 0 0 0
          0 0 0 0 0 0
          0 0 0 0 0 0
          0 0 0 0 0 0
          0 0 0 0 0 0
          0 0 0 0 0 0
          0 0 0 0 0 0
          0 0
        </DataArray>
        <DataArray type="Float64" Name="combo" format="ascii" RangeMin="0.5" RangeMax="2">
          1 1 1 1 1 1
          1 1 1 1 1 1
          1.5 1.125 1 1 1 1
          2 1.25 1 1 1 1
          1 1 1 1 1 1
          1 1 1 1 1 1
          1 1 1 1 1 1
          1 1 1 1 1 1
          1 1 1 1 1 1
          1 1 1 1 1 1
          1 1 1 1 1 1
          1 1 1 1 1.5 1.375
          1.25 1.125 1.125 1 2 1.875
          1.375 1.375 1 1 1 1
          1 1 1 1 1 1
          1 1 1 1 1 1
          1 1 1 1 1 1
          1 1 2 2 1.75 1.625
          1.625 1.25 2 2 1.75 1.75
          1.25 1.125 1 1 1 1
          1.5 1.25 1 1 1.125 1
          1 1 1.25 1 1 1
          1 1 1 1 1 1
          1 1 1 1 1 1
          1 1 1 1 1 1
          1 1 1 1 1 1
          1 1 1 1 1 1
          1 1 1 1 1 1
          1 1 1 1 1 1
          1 1 1 1 1 1
          1 1 1 1 1 1
          1 1 1 1 1 1
          1 1 1 1 1 1
          1 1 1 1 1 1
          1 1 1 1 1 1
          1 1 1 1 1 1
          1 1.25 1.125 1 1 1
          1 1 1 1 1 1
          1 1 1 1 1 1
          0.5 0.5 0.75 1 0.5 1.125
          1.125 0.5 1.25 1.375 0.5 1.25
          1.5 0.5 1.75 1.625 1.25 2
          2 1.625 2 2 1.875 2
          2 2 0.5 0.5 0.5 1
          0.5 0.5 1 0.5 0.5 0.5
          0.5 0.5 1 1 1 1
          1 1 1 1 1 1
          1 1 1 1 1 1
          1 1 1 1 1 1
          1 1 1 1 1 1
          1 1 1 1 1 1
          1 1 1 1 1 1
          1 1
        </DataArray>
        <DataArray type="Float64" Name="dHdT" format="ascii" RangeMin="26.00583430886929" RangeMax="59.64743391575688">
          39.23365448576489 31.982249098996654 27.555359066064394 37.87827185702298 29.951492123142366 36.08456600474523
          34.10165582174915 30.065040487111638 29.46455334413322 27.120717747956164 26.44800967174774 36.00786852184978
          49.842959834767065 40.53097896059309 36.93709085530236 34.563934311623534 32.628669045890646 29.069226660281924
          59.64743391575688 46.052383728143276 36.04596560972518 33.887533392482574 30.39964287303936 27.858256815558686
          26.810100211521334 28.21364023890289 26.9807951514615 32.85326048056499 32.35265712485588 31.0229301615463
          38.52976552753199 37.68693813542087 35.602008514531505 35.86641788695431 30.899495925391257 30.473970726684037
          29.171522463485744 28.90015552957354 29.452800768942872 28.255400424702707 34.34721637384125 33.745842425553505
          31.42563719010676 32.08866633776689 29.440259084102017 28.174645724230153 33.53760418208427 31.7471792198843
          30.865943303836552 28.353713249691317 27.54829243084738 27.490273336277355 26.96728610814079 30.015481707061323
          28.617886867193306 28.36558436831516 27.325763396629128 26.7710150878833 28.79646137695571 27.980436942146966
          27.612462452281836 26.88752662584725 26.551248568344967 26.488135731660634 26.273915323079436 27.351946807608762
          26.87246827406515 26.739015156101125 34.51420097295523 37.27022156730913 46.62142954774411 44.58958567953014
          40.93746925266774 39.7565319735044 39.9349702525341 37.081297048316785 55.15852247113033 52.61636386831897
          46.778554752312196 45.40007162120023 37.30332551020335 36.58927872413689 35.09332165343433 34.3996056867597
          34.76876386836372 32.47355922977162 41.399397289418815 39.868708620404234 36.39427224562041 36.95129551631436
          35.97673501310023 34.11481772837813 32.86789091495148 31.107049807920042 38.3972644972631 35.952221076703445
          34.390808107706874 32.112620443365834 30.09767477512984 29.505790274487445 28.28618161354434 33.914503591388055
          31.659343377133236 30.721152835455367 55.27553853263072 54.844597650285344 57.31235404498348 53.25568050413909
          49.80278998883327 44.283186244392226 52.833701459478284 54.292213243932366 55.631897552866285 51.55324711211381
          47.331701760250354 44.38481951040755 38.336790946451686 37.58550170357541 38.929850580460695 35.713046427550296
          50.358722104409196 46.69116470147641 38.15856601552781 39.83658488906801 40.90385450986764 37.45845445740393
          35.237300652897275 33.58010312626965 42.059549081446825 38.1515622565331 35.50387787623587 34.9595002129838
          32.77054124404038 31.62225720424072 29.70429547993675 35.282597302870194 33.157759446804 31.94093112216286
          31.387315973990333 32.74832890997211 33.58122554512466 30.197543281510196 33.84727640312364 29.91857213992604
          28.758122932582587 28.135699519728533 27.501354572002715 31.066589054833333 29.56261762513322 28.63433542595436
          27.888691636864607 27.23767083267455 27.010701091990768 26.636240648689316 28.421277295409983 27.59239788810591
          27.262693337208944 31.894346209225933 30.194791077893544 29.002592167322565 28.118050226939964 32.18279604556486
          30.435460089313963 29.139041828635314 28.829123723250984 27.85788048911205 27.44522428365692 26.934988360090976
          28.984528025108297 27.957131425070784 27.512636570213743 27.972174410744223 27.808351626561205 27.41036541553668
          29.704391111031676 29.341742859810356 28.503880650230617 26.959329625779546 26.578353364626174 27.63322117014219
          26.96461759830553 26.301470383312036 26.11652880393624 26.51596553998597 26.23315014048439 32.271853728549154
          31.629963737423672 30.096560736782596 34.76750773106245 33.966613897850564 31.874218833916363 28.52886114219238
          27.431249872131716 29.54086429872704 27.90977513892231 36.221854697722414 35.4333147300954 33.186737741590846
          36.64800117265348 35.88866894341766 33.64781340602426 30.37018704933402 28.282321782428486 30.68787354140066
          28.42442286165093 26.758008151722834 26.358827081230626 26.990498878529152 26.474688485594818 27.162169350920237
          26.557402731519062 27.225662043131397 26.58750491730835 35.8932095252526 34.55590781280338 34.09837467074422
          35.521109196105535 42.07950433911785 40.661710149330844 32.74590239717017 34.35183232720856 37.72864208754028
          30.818264177653482 32.38623390255717 35.1153661550092 29.06481547961226 30.22156175704549 32.46338381792073
          27.887567834773726 28.61238910714455 29.869362269981902 27.137124780754053 27.611083073256154 28.24917613344821
          36.69671697469202 34.112628237594855 40.2534847539053 37.98063206476097 36.00960386647087 44.769121678553006
          41.57274667373821 37.85300414727815 48.04271400642155 44.61863111953731 39.849346456240006 49.23171071326824
          45.82083762564278 40.758357795671785 51.898162214403484 49.383435746752674 43.393849521794834 53.9847542856132
          53.81657228686294 49.759845598893165 48.73383030462534 51.81577677499099 52.623140824608186 46.16177942584257
          50.278236448182206 53.08602096740802 31.285312131449768 33.10481020803946 29.112750085194754 28.964796162682493
          30.11397200128514 34.435215841725864 29.664653956297734 31.074747520957526 35.124658404424736 31.746730621154335
          35.33111770029688 31.987644510706854 27.161530464017332 27.062940520789383 28.147905363334832 27.949071999104763
          26.82027782853363 27.475237159307632 26.540338718002182 26.958913327033653 26.29981783980796 26.544888560936172
          26.123179708412383 26.260359883654814 26.00583430886929 26.080282402060774 29.60419973798694 29.229239550725907
          28.36934235447583 31.41280069837951 30.794953316657093 29.406922557428167 27.49129966156947 26.836579536939006
          28.062512796957236 27.129985370278987 32.941979119051425 32.13546809725977 30.291768474819747 33.51671062307237
          32.65304668597008 30.643494115353132 28.520902984948076 27.352334891831916 28.6982768430955 27.43519605508544
          26.414854802596693 26.16069185831394 26.56259496488722 26.23486736660286 26.670939319704544 26.287811979048104
          26.710913628485017 26.307089157696318
        </DataArray>
        <DataArray type="Float64" Name="dk/dtemperature" format="ascii" RangeMin="0.006814749999999998" RangeMax="0.0331274829086297">
          0.008151370740242074 0.010270106824247208 0.01369835370563635 0.007621081562689948 0.011687627306160877 0.007783533225441891
          0.008736377672229888 0.01156037884462283 0.011958221529243373 0.01417520425498116 0.015064055146955217 0.007848786831949714
          0.021753311720610676 0.007912874690235504 0.007278378386740525 0.008591184190699425 0.00974165252483575 0.012311593392339101
          0.02799543754850594 0.014893810251437909 0.007486527258893273 0.008946935091549162 0.011338531729703446 0.013346426541161636
          0.014583116078273364 0.012996573389479937 0.01434352714809734 0.009593050171290106 0.009999007079366368 0.010900429856914917
          0.0077607804014701316 0.007725484640858443 0.007901880443550896 0.007913684878075894 0.011055981896339535 0.011328904901335556
          0.012214975989853091 0.012434057726022076 0.011975015060161937 0.012963551581808109 0.008734584761842074 0.009061148341512937
          0.010654238629841392 0.010126554117768593 0.011964700259885178 0.013040981848022298 0.00917175339924704 0.01036816753952705
          0.010994970078677356 0.012844859568950479 0.01369218947648201 0.013765467474549521 0.01441548508842961 0.011554466216658461
          0.01265339276040528 0.012851023798104816 0.013933035564095782 0.014607459341915374 0.012466453924767482 0.013203831566744444
          0.013630608388211875 0.014489267985901316 0.014933221679657143 0.014996437327149979 0.015329054100294257 0.013913788921574974
          0.014507760673364326 0.01467136689268064 0.008462899823186255 0.007705937743661696 0.013036444670602372 0.014262046422662716
          0.008426989116398732 0.007884562038790548 0.011415018315335274 0.007484375989397659 0.025608751912376188 0.024576835757203475
          0.0151101876811854 0.015907186924507842 0.0074654469937106335 0.007490180608208193 0.008042872956319943 0.008619962459808147
          0.00830203599342163 0.009987319193859541 0.008298406181917656 0.007918059864605857 0.007510902774799008 0.007610158942804512
          0.007899801948118977 0.008755634334780668 0.00962897566172545 0.010817401464223827 0.007691124407817284 0.007896525165656797
          0.008523821940943971 0.010124463735379643 0.01154119371657234 0.011941364249515174 0.012947763607137303 0.008930124399938597
          0.010484030424824669 0.011142030663019492 0.020849780340318112 0.026129039109270315 0.03100521720139722 0.023115617013926705
          0.024690347770295086 0.01163448310740624 0.008018874999999995 0.0235453412117125 0.024724140406242462 0.0331274829086297
          0.018636372042684656 0.013458788844447322 0.007897500942704042 0.007529823671049308 0.007714198611892916 0.007754792465060906
          0.02818862052231206 0.018320209114943885 0.007612007020814889 0.007731392855603318 0.012420678620716268 0.007834334952823012
          0.008061801462975507 0.009089187738938301 0.0171215314461309 0.007934360561093898 0.008029334180240457 0.00825828307085988