<?xml version="1.0"?>
<VTKFile type="UnstructuredGrid" version="0.1" byte_order="LittleEndian" header_type="UInt32" compressor="vtkZLibDataCompressor">
  <UnstructuredGrid>
    <Piece NumberOfPoints="336" NumberOfCells="183">
      <PointData>
        <DataArray type="Int32" Name="libmesh_node_id" format="ascii" RangeMin="272" RangeMax="2856">
          280 573 591 594 596 1067
          1096 1098 1101 1131 1132 1135
          1158 1162 1195 1199 1217 1218
          1219 1220 1221 1222 1223 1224
          1225 1226 1227 1228 1231 1232
          1234 1236 1346 1347 1348 1349
          1350 1351 1352 1355 1356 2012
          2013 2016 2027 2028 2029 2030
          2031 2032 2033 2034 2035 2036
          2051 2052 2053 2054 2055 2056
          2057 2058 2059 2060 2061 2062
          2063 2064 2235 2239 2255 2256
          2257 2258 2259 2260 2261 2262
          2263 2264 2265 2266 2267 2268
          2283 2284 2285 2286 2287 2288
          2289 2290 2291 2292 2293 2294
          2295 2296 2445 2449 2460 2461
          2462 2463 2464 2465 2466 2467
          2468 2469 2484 2485 2486 2487
          2488 2489 2490 2491 2492 2495
          2496 2498 2500 2688 2689 2690
          2691 2692 2693 2694 2695 2697
          2699 2701 2716 2717 2718 2719
          2720 2721 2722 2723 2725 2727
          2729 2813 2814 2815 2816 2817
          2818 2819 2820 2821 2822 2823
          2824 2825 2826 2827 2828 2829
          2830 2831 2832 2833 2834 2835
          2836 2837 2838 2839 2840 2841
          2842 2843 2844 2845 2846 2847
          2848 2849 2850 2851 2852 2853
          2854 2855 2856 588 590 277
          592 589 593 595 282 597
          598 602 599 603 605 607
          1065 1066 567 1156 1157 1159
          1209 1210 1213 1215 582 1229
          1196 1230 1233 587 1235 1029
          272 1344 1097 1345 1339 1340
          1343 1091 572 1353 1354 1357
          2019 2020 2023 2006 1095 2025
          1089 2009 2024 1981 1989 2039
          1997 2040 2026 1999 1093 2043
          2001 1099 2046 2047 2050 1100
          2210 1123 2219 2218 2226 2227
          2234 1125 2220 2237 2236 2230
          1127 2238 577 2240 2207 2243
          2215 2244 2217 2247 1129 2250
          2251 2254 1130 2271 2272 2275
          1133 2278 2279 2282 1134 2446
          2472 2473 2476 1160 2459 2479
          2493 2480 2494 2497 2483 1161
          2499 2676 2677 2680 1193 2683
          2684 2696 2698 2687 1194 2700
          2704 2705 2708 1197 2711 2712
          2724 2726 2715 1198 2728 2795
          2796 2799 2801 2807 2809 2811
        </DataArray>
        <DataArray type="Float64" Name="bounds" format="ascii" RangeMin="0" RangeMax="0">
          0 0 0 0 0 0
          0 0 0 0 0 0
          0 0 0 0 0 0
          0 0 0 0 0 0
          0 0 0 0 0 0
          0 0 0 0 0 0
          0 0 0 0 0 0
          0 0 0 0 0 0
          0 0 0 0 0 0
          0 0 0 0 0 0
          0 0 0 0 0 0
          0 0 0 0 0 0
          0 0 0 0 0 0
          0 0 0 0 0 0
          0 0 0 0 0 0
          0 0 0 0 0 0
          0 0 0 0 0 0
          0 0 0 0 0 0
          0 0 0 0 0 0
          0 0 0 0 0 0
          0 0 0 0 0 0
          0 0 0 0 0 0
          0 0 0 0 0 0
          0 0 0 0 0 0
          0 0 0 0 0 0
          0 0 0 0 0 0
          0 0 0 0 0 0
          0 0 0 0 0 0
          0 0 0 0 0 0
          0 0 0 0 0 0
          0 0 0 0 0 0
          0 0 0 0 0 0
          0 0 0 0 0 0
          0 0 0 0 0 0
          0 0 0 0 0 0
          0 0 0 0 0 0
          0 0 0 0 0 0
          0 0 0 0 0 0
          0 0 0 0 0 0
          0 0 0 0 0 0
          0 0 0 0 0 0
          0 0 0 0 0 0
          0 0 0 0 0 0
          0 0 0 0 0 0
          0 0 0 0 0 0
          0 0 0 0 0 0
          0 0 0 0 0 0
          0 0 0 0 0 0
          0 0 0 0 0 0
          0 0 0 0 0 0
          0 0 0 0 0 0
          0 0 0 0 0 0
          0 0 0 0 0 0
          0 0 0 0 0 0
          0 0 0 0 0 0
          0 0 0 0 0 0
        </DataArray>
        <DataArray type="Float64" Name="gradient_error" format="ascii" RangeMin="1.4646079749764653e-10" RangeMax="2.1532565718712927e-8">
          1.5664217689807254e-9 2.0492473854682855e-9 4.190258577711924e-9 6.7398087100883325e-9 5.101631994952914e-9 8.45239981157884e-10
          1.3956584708526058e-9 1.7746555992172384e-9 3.533537422208484e-9 2.8005895463950336e-9 1.6951034219206298e-9 3.171214062955704e-9
          9.182644935704908e-10 1.2701141889352125e-9 1.264550382878926e-9 1.0104146034828914e-9 3.906085932671103e-9 2.7085007674208614e-9
          2.236841110003174e-9 1.660177788487482e-9 3.443710393778674e-9 4.301825427848821e-9 2.0262807815628075e-9 2.938684854841344e-9
          1.389113711782813e-9 4.644198635188114e-9 1.3978769286604169e-9 1.3090513977066002e-9 7.549032975963635e-10 8.900685100282118e-10
          9.903085998234785e-10 9.585652889841019e-10 1.6356865128257018e-9 2.0966545023967335e-9 2.195869566399529e-9 2.5619190667236745e-9
          1.2753893848519067e-9 7.308188356647111e-10 9.52215769919575e-10 5.256199709270592e-10 6.069274175237322e-10 1.2968844295148684e-9
          8.930969185411222e-10 2.0153343739646987e-9 6.489470904336209e-10 8.208715845839115e-10 4.573882079019151e-10 5.704702381580091e-10
          5.264786138678343e-10 6.348215904615646e-10 4.4776045897380226e-10 1.2314442391720446e-9 8.469687051870617e-10 9.180292173048705e-10
          3.3797184442861286e-9 2.4800598244558365e-9 2.550246786225316e-9 1.8512073208936929e-9 4.484191183492498e-9 3.3261714666080963e-9
          2.928584729091713e-9 1.7637162635296478e-9 1.2154554936769488e-9 1.2995544729359295e-9 8.894761661960603e-10 2.391700482549786e-9
          1.6567313473798286e-9 1.5060588225322712e-9 9.299615029178284e-9 9.585990651374521e-9 5.602828488265575e-9 4.195545565996336e-9
          3.2576983421198034e-9 2.3774235481784426e-9 6.573547424859229e-9 4.9572628025046975e-9 3.821345292588255e-9 3.047715759031143e-9
          2.124544860204333e-9 1.6855425116863141e-9 1.3313015022167495e-9 3.619232039291101e-9 2.534371684955747e-9 1.9937886541312034e-9
          7.2403171913543504e-9 5.481437211145322e-9 4.181510135823249e-9 3.074757629559287e-9 7.476475675563547e-9 5.6671146007402875e-9
          4.308114551474182e-9 4.004421668938816e-9 2.8091739401522036e-9 2.1938392621568585e-9 1.505060265553543e-9 4.139749939707553e-9
          2.9057573814358e-9 2.2652055447842376e-9 5.941861875082491e-10 9.334471066776438e-10 2.926476280186135e-10 3.7059228596917775e-10
          2.3096370583560853e-10 2.9019805555567953e-10 2.3285858696535773e-10 2.8715371135283975e-10 2.2753380716076655e-10 5.619357092737171e-10
          4.0430585691307335e-10 4.205535276642671e-10 8.086461239549951e-10 5.186833418770932e-10 5.883209588330915e-10 3.8140616773469354e-10
          1.0982151919541944e-9 7.037172321840306e-10 7.845948984440771e-10 2.655011836261941e-10 3.212870745979348e-10 2.0541466782698985e-10
          2.386267804103231e-10 4.3733459254356917e-10 3.1155005943397564e-10 1.4110984387693932e-9 9.024970859591216e-10 1.001165050771213e-9
          6.338146552696395e-10 1.6945213636442018e-9 1.0870189691076605e-9 1.0051472442465808e-9 5.581348522342194e-10 3.914364618005568e-10
          6.687968692039923e-10 4.651613067060736e-10 1.8930460137563756e-9 1.2194718808764213e-9 9.996964920074038e-10 7.45163687027658e-10
          1.9647735671370427e-9 1.2680896321101548e-9 1.046734119011058e-9 7.47733747496517e-10 5.183521292879114e-10 7.765472415360251e-10
          5.379933428904943e-10 1.7397417597029123e-9 1.899197666417562e-9 1.245803606430668e-9 1.359892161398115e-9 1.4073500375129902e-9
          1.4478072488175632e-9 1.0295124965081138e-9 2.175926000043323e-9 1.5617969845835065e-9 1.5647698506301637e-9 8.575570620304913e-10
          9.381684586789407e-10 7.129604063953534e-10 7.656652307958201e-10 6.924769140113544e-10 7.196313966043736e-10 6.06389053389168e-10
          1.0839190147709917e-9 7.886032459487876e-10 7.838493017359166e-10 2.3601912926645477e-9 1.6981073222314625e-9 1.6880501318019192e-9
          1.202516298223775e-9 2.4271841583746623e-9 1.7466013916614737e-9 1.7348250224656476e-9 1.1851133221828839e-9 8.041641430809597e-10
          8.340611553328854e-10 5.79548642070433e-10 1.221168470151174e-9 8.346084448368815e-10 8.472095863913301e-10 5.190391956204497e-10
          5.350241683783167e-10 4.261296487306246e-10 4.291071846801543e-10 4.169181657464169e-10 4.0442956397403046e-10 3.380026743993354e-10
          5.510091411361837e-10 4.3208472062968385e-10 3.919409622016439e-10 1.3221906751203465e-8 4.391875227026927e-9 7.647107969597966e-9
          1.1234551622001908e-8 1.2746676763184985e-8 1.8384615316269452e-8 1.5656247353673287e-8 1.1507180967671254e-8 2.1532565718712927e-8
          1.1757449191210308e-9 1.2545192022720638e-9 1.0877810348529011e-9 1.7968395545040024e-9 1.2429626387782946e-9 2.0533615941058937e-9
          6.573142535086607e-10 5.149088021588393e-10 8.951619779079072e-10 7.133024366920747e-10 3.9869989195551334e-10 5.235448176222629e-10
          7.822524697724839e-9 5.608588287167273e-9 9.032233124277864e-9 6.097741134834147e-9 5.275172360270272e-10 6.211489397484859e-10
          6.970750627173275e-10 7.699590543699418e-10 4.235892928873178e-10 7.638425008488446e-10 8.220392172482222e-10 3.1287551421018297e-9
          3.2142512361843547e-9 3.277337039077117e-9 3.6810323619853896e-9 4.304757821836428e-9 6.301056552891907e-9 8.408897014685526e-9
          5.03685018327627e-9 7.162665648909083e-9 6.746138456310716e-9 3.3497100826633825e-10 4.296949981358243e-10 3.0269096193137807e-10
          9.055239502142216e-10 1.157522217909286e-9 8.860223829718176e-10 1.8317147281397554e-9 2.812388405936138e-9 1.744811274916733e-9
          5.054228348659503e-9 3.811414612949135e-9 2.4110049222034243e-9 3.2927779068515966e-9 7.067609827060407e-9 5.450525451754356e-9
          4.528435633720144e-9 4.088534638095418e-9 1.835262951512659e-9 3.4700080897774e-9 9.370449332007108e-9 7.355677237909508e-9
          5.9184838360361755e-9 5.600214354333233e-9 2.9631498550577777e-9 2.0667949984285206e-9 4.1037091783796865e-9 2.8829216301711e-9
          1.6969221203682617e-8 1.3756995369116511e-8 8.48547645856139e-9 1.0607619887272775e-8 1.8638753752824192e-8 1.5166297100948034e-8
          1.1512589475348574e-8 5.086095602673867e-9 6.799833558249779e-9 5.5385253504414366e-9 7.345926952496172e-9 1.9315430478062334e-8
          1.566820511557263e-8 1.1872649663938683e-8 5.6961551608539646e-9 7.555899828991254e-9 1.1710997397312898e-8 9.323973204458468e-9
          7.299015263696126e-9 7.185694707323539e-9 4.375268694234036e-9 1.1064129006652318e-8 8.602812394034038e-9 5.316358569886042e-9
          3.761731791412991e-9 6.411676264881444e-9 4.5639294780967465e-9 1.2266122774247685e-8 9.588500215354504e-9 1.2696107240814684e-8
          9.942007780200755e-9 7.179405593529907e-9 5.130197260290297e-9 7.455884788744415e-9 5.334817553793525e-9 4.296735176761252e-10
          1.3872884485874117e-9 8.908598526991275e-10 1.9391988122549274e-9 1.2497085718582065e-9 4.1203453459852366e-10 5.489651454421992e-10
          1.6173013440294041e-10 3.279409114433608e-10 1.9482746102579024e-10 1.4646079749764653e-10 7.73221725404596e-10 4.6021327932268196e-10
          2.6418138364776234e-10 2.5419807203172612e-9 1.640792985053652e-9 3.0965773059253516e-9 2.0024421466925686e-9 1.0140691788280086e-9
          6.015315738845239e-10 3.351116105869645e-10 2.3795240056974405e-10 1.2369848037665192e-9 7.317567528294184e-10 3.9820514342344607e-10
          3.4906722001596957e-9 2.260810290239671e-9 3.633611143958041e-9 2.354814494992144e-9 1.3965962607899995e-9 8.24969719112136e-10
          4.427938816707286e-10 3.059582715327984e-10 1.4547734441524706e-9 8.589503994991476e-10 4.5896271802160964e-10 2.425001672967917e-9
          2.6366244705365885e-9 2.0257459647861755e-9 3.0049729237418652e-9 3.249837747905626e-9 2.3530174147973217e-9 3.3379769164327816e-9
        </DataArray>
        <DataArray type="Float64" Name="gradient_matprop_error" format="ascii" RangeMin="0" RangeMax="0">
          0 0 0 0 0 0
          0 0 0 0 0 0
          0 0 0 0 0 0
          0 0 0 0 0 0
          0 0 0 0 0 0
          0 0 0 0 0 0
          0 0 0 0 0 0
          0 0 0 0 0 0
          0 0 0 0 0 0
          0 0 0 0 0 0
          0 0 0 0 0 0
          0 0 0 0 0 0
          0 0 0 0 0 0
          0 0 0 0 0 0
          0 0 0 0 0 0
          0 0 0 0 0 0
          0 0 0 0 0 0
          0 0 0 0 0 0
          0 0 0 0 0 0
          0 0 0 0 0 0
          0 0 0 0 0 0
          0 0 0 0 0 0
          0 0 0 0 0 0
          0 0 0 0 0 0
          0 0 0 0 0 0
          0 0 0 0 0 0
          0 0 0 0 0 0
          0 0 0 0 0 0
          0 0 0 0 0 0
          0 0 0 0 0 0
          0 0 0 0 0 0
          0 0 0 0 0 0
          0 0 0 0 0 0
          0 0 0 0 0 0
          0 0 0 0 0 0
          0 0 0 0 0 0
          0 0 0 0 0 0
          0 0 0 0 0 0
          0 0 0 0 0 0
          0 0 0 0 0 0
          0 0 0 0 0 0
          0 0 0 0 0 0
          0 0 0 0 0 0
          0 0 0 0 0 0
          0 0 0 0 0 0
          0 0 0 0 0 0
          0 0 0 0 0 0
          0 0 0 0 0 0
          0 0 0 0 0 0
          0 0 0 0 0 0
          0 0 0 0 0 0
          0 0 0 0 0 0
          0 0 0 0 0 0
          0 0 0 0 0 0
          0 0 0 0 0 0
          0 0 0 0 0 0
        </DataArray>
        <DataArray type="Float64" Name="initial_marker" format="ascii" RangeMin="0" RangeMax="2">
          2 1 0 0 0 0
          2 0.25 1.25 2 1.75 2
          0 0.75 1 1 0 0
          0 0 0 0 0 0
          0 0 0 0 0 0
          0 0 0 0 0 0
          0 0 0 0 0 1.5
          1.5 2 0 0.5 0 0.5
          0 0 0 1.5 1.25 1
          2 2 2 2 2 2
          2 2 1.75 2 1.5 2
          2 1.3333333333333333 2 2 2 2
          2 1.75 2 2 2 2
          2 1.5 1.6666666666666667 2 2 2
          2 2 2 2 2 2
          2 2 2 2 2 2
          2 2 1.5 2 0 0.5
          0 0.5 0 0 0 1
          1 0 1.5 1.25 1 0.5
          2 1.75 2 1 1 0
          0 1.5 1 2 2 2
          2 2 2 1.6666666666666667 2 2
          2 2 2 2 1.5 1.3333333333333333
          2 2 1.5 2 2 2
          2 1 1 0.5 0.75 0
          0 0 1 1 0 0
          0.5 0 0.5 0 0 0
          1 1 0 1 1 0
          0 1 1 0 1 1
          0 0 1 1 0 0.5
          0.5 0 0 0 0 0
          0.5 0 0 0 0 0
          0 0 0 0 0 0
          0 0 0 0 0 0
          0.25 0 0 1.75 1 0
          0 0 0 0 0.25 0
          0.75 0 0 1 0 0
          0 0 0.5 0 0 0
          0 0.5 1.5 0 0 0
          0 0.5 0 1.5 2 1.5
          2 2 1.5 1.5 2 2
          2 2 1 2 2 2
          2 2 2 2 2 2
          2 2 2 2 2 2
          2 2 2 2 2 2
          2 2 2 2 2 2
          2 2 2 2 2 2
          2 2 2 2 2 2
          2 2 2 2 2 1.3333333333333333
          2 2 2 2 2 2
          0.5 1.75 0.75 0 2 2
          1.25 2 2 2 2 2
          2 1.5 1 2 2 1.75
          2 2 2 2 2 2
          2 2 2 2 2 1
          1 0 1 1 0 1
        </DataArray>
        <DataArray type="Float64" Name="markers_norefine" format="ascii" RangeMin="0" RangeMax="0">
          0 0 0 0 0 0
          0 0 0 0 0 0
          0 0 0 0 0 0
          0 0 0 0 0 0
          0 0 0 0 0 0
          0 0 0 0 0 0
          0 0 0 0 0 0
          0 0 0 0 0 0
          0 0 0 0 0 0
          0 0 0 0 0 0
          0 0 0 0 0 0
          0 0 0 0 0 0
          0 0 0 0 0 0
          0 0 0 0 0 0
          0 0 0 0 0 0
          0 0 0 0 0 0
          0 0 0 0 0 0
          0 0 0 0 0 0
          0 0 0 0 0 0
          0 0 0 0 0 0
          0 0 0 0 0 0
          0 0 0 0 0 0
          0 0 0 0 0 0
          0 0 0 0 0 0
          0 0 0 0 0 0
          0 0 0 0 0 0
          0 0 0 0 0 0
          0 0 0 0 0 0
          0 0 0 0 0 0
          0 0 0 0 0 0
          0 0 0 0 0 0
          0 0 0 0 0 0
          0 0 0 0 0 0
          0 0 0 0 0 0
          0 0 0 0 0 0
          0 0 0 0 0 0
          0 0 0 0 0 0
          0 0 0 0 0 0
          0 0 0 0 0 0
          0 0 0 0 0 0
          0 0 0 0 0 0
          0 0 0 0 0 0
          0 0 0 0 0 0
          0 0 0 0 0 0
          0 0 0 0 0 0
          0 0 0 0 0 0
          0 0 0 0 0 0
          0 0 0 0 0 0
          0 0 0 0 0 0
          0 0 0 0 0 0
          0 0 0 0 0 0
          0 0 0 0 0 0
          0 0 0 0 0 0
          0 0 0 0 0 0
          0 0 0 0 0 0
          0 0 0 0 0 0
        </DataArray>
        <DataArray type="Float64" Name="markers_mustrefine" format="ascii" RangeMin="0" RangeMax="2">
          2 1 0 0 0 0
          2 0.25 1.25 2 1.75 2
          0 0.75 1 1 0 0
          0 0 0 0 0 0
          0 0 0 0 0 0
          0 0 0 0 0 0
          0 0 0 0 0 1.5
          1.5 2 0 0.5 0 0.5
          0 0 0 1.5 1.25 1
          2 2 2 2 2 2
          2 2 1.75 2 1.5 2
          2 1.3333333333333333 2 2 2 2
          2 1.75 2 2 2 2
          2 1.5 1.6666666666666667 2 2 2
          2 2 2 2 2 2
          2 2 2 2 2 2
          2 2 1.5 2 0 0.5
          0 0.5 0 0 0 1
          1 0 1.5 1.25 1 0.5
          2 1.75 2 1 1 0
          0 1.5 1 2 2 2
          2 2 2 1.6666666666666667 2 2
          2 2 2 2 1.5 1.3333333333333333
          2 2 1.5 2 2 2
          2 1 1 0.5 0.75 0
          0 0 1 1 0 0
          0.5 0 0.5 0 0 0
          1 1 0 1 1 0
          0 1 1 0 1 1
          0 0 1 1 0 0.5
          0.5 0 0 0 0 0
          0.5 0 0 0 0 0
          0 0 0 0 0 0
          0 0 0 0 0 0
          0.25 0 0 1.75 1 0
          0 0 0 0 0.25 0
          0.75 0 0 1 0 0
          0 0 0.5 0 0 0
          0 0.5 1.5 0 0 0
          0 0.5 0 1.5 2 1.5
          2 2 1.5 1.5 2 2
          2 2 1 2 2 2
          2 2 2 2 2 2
          2 2 2 2 2 2
          2 2 2 2 2 2
          2 2 2 2 2 2
          2 2 2 2 2 2
          2 2 2 2 2 2
          2 2 2 2 2 1.3333333333333333
          2 2 2 2 2 2
          0.5 1.75 0.75 0 2 2
          1.25 2 2 2 2 2
          2 1.5 1 2 2 1.75
          2 2 2 2 2 2
          2 2 2 2 2 1
          1 0 1 1 0 1
        </DataArray>
        <DataArray type="Float64" Name="gradient_marker" format="ascii" RangeMin="0.5" RangeMax="1">
          1 1 1 1 1 1
          1 1 1 1 1 1
          1 1 1 1 1 1
          1 1 1 1 1 1
          1 1 1 1 1 1
          1 1 1 1 1 1
          1 1 1 1 1 1
          1 1 1 1 1 1
          1 1 1 1 1 1
          1 1 1 1 1 1
          1 1 1 1 1 1
          1 1 1 1 1 1
          1 1 1 1 1 1
          1 1 1 1 1 1
          1 1 1 1 1 1
          1 1 1 1 1 1
          1 1 1 1 1 1
          1 1 1 1 1 1
          1 1 1 1 1 1
          1 1 1 1 1 1
          1 1 1 1 1 1
          1 1 1 1 1 1
          1 1 1 1 1 1
          1 1 1 1 1 1
          1 1 1 1 1 1
          1 1 1 1 1 1
          1 1 1 1 1 1
          1 1 1 1 1 1
          1 1 1 1 1 1
          1 1 1 1 1 1
          1 1 1 1 1 1
          1 1 1 0.5 1 1
          0.5 0.5 0.5 0.5 1 0.5
          1 1 1 1 1 1
          1 1 1 1 1 1
          0.625 0.75 0.5 0.75 1 1
          1 1 1 1 1 1
          1 1 1 1 0.5 0.5
          0.5 0.75 0.875 1 1 1
          1 1 1 1 1 1
          1 1 1 1 1 1
          1 1 1 1 1 1
          1 1 1 1 1 1
          0.5 1 1 0.5 0.5 1
          0.5 1 0.5 1 0.5 0.5
          1 0.5 1 0.5 1 1
          1 1 1 1 1 1
          1 1 1 1 1 1
          1 1 1 1 1 1
          1 1 1 1 1 1
          1 1 1 1 1 1
          1 1 1 1 1 1
          1 1 1 1 1 1
          1 1 1 1 1 1
          1 1 1 1 1 1
          1 1 1 1 1 1
        </DataArray>
        <DataArray type="Float64" Name="gradient_matprop_marker" format="ascii" RangeMin="0" RangeMax="0">
          0 0 0 0 0 0
          0 0 0 0 0 0
          0 0 0 0 0 0
          0 0 0 0 0 0
          0 0 0 0 0 0
          0 0 0 0 0 0
          0 0 0 0 0 0
          0 0 0 0 0 0
          0 0 0 0 0 0
          0 0 0 0 0 0
          0 0 0 0 0 0
          0 0 0 0 0 0
          0 0 0 0 0 0
          0 0 0 0 0 0
          0 0 0 0 0 0
          0 0 0 0 0 0
          0 0 0 0 0 0
          0 0 0 0 0 0
          0 0 0 0 0 0
          0 0 0 0 0 0
          0 0 0 0 0 0
          0 0 0 0 0 0
          0 0 0 0 0 0
          0 0 0 0 0 0
          0 0 0 0 0 0
          0 0 0 0 0 0
          0 0 0 0 0 0
          0 0 0 0 0 0
          0 0 0 0 0 0
          0 0 0 0 0 0
          0 0 0 0 0 0
          0 0 0 0 0 0
          0 0 0 0 0 0
          0 0 0 0 0 0
          0 0 0 0 0 0
          0 0 0 0 0 0
          0 0 0 0 0 0
          0 0 0 0 0 0
          0 0 0 0 0 0
          0 0 0 0 0 0
          0 0 0 0 0 0
          0 0 0 0 0 0
          0 0 0 0 0 0
          0 0 0 0 0 0
          0 0 0 0 0 0
          0 0 0 0 0 0
          0 0 0 0 0 0
          0 0 0 0 0 0
          0 0 0 0 0 0
          0 0 0 0 0 0
          0 0 0 0 0 0
          0 0 0 0 0 0
          0 0 0 0 0 0
          0 0 0 0 0 0
          0 0 0 0 0 0
          0 0 0 0 0 0
        </DataArray>
        <DataArray type="Float64" Name="combo" format="ascii" RangeMin="0.5" RangeMax="1">
          1 1 1 1 1 1
          1 1 1 1 1 1
          1 1 1 1 1 1
          1 1 1 1 1 1
          1 1 1 1 1 1
          1 1 1 1 1 1
          1 1 1 1 1 1
          1 1 1 1 1 1
          1 1 1 1 1 1
          1 1 1 1 1 1
          1 1 1 1 1 1
          1 1 1 1 1 1
          1 1 1 1 1 1
          1 1 1 1 1 1
          1 1 1 1 1 1
          1 1 1 1 1 1
          1 1 1 1 1 1
          1 1 1 1 1 1
          1 1 1 1 1 1
          1 1 1 1 1 1
          1 1 1 1 1 1
          1 1 1 1 1 1
          1 1 1 1 1 1
          1 1 1 1 1 1
          1 1 1 1 1 1
          1 1 1 1 1 1
          1 1 1 1 1 1
          1 1 1 1 1 1
          1 1 1 1 1 1
          1 1 1 1 1 1
          1 1 1 1 1 1
          1 1 1 0.5 1 1
          0.5 0.5 0.5 0.5 1 0.5
          1 1 1 1 1 1
          1 1 1 1 1 1
          0.625 0.75 0.5 0.75 1 1
          1 1 1 1 1 1
          1 1 1 1 0.5 0.5
          0.5 0.75 0.875 1 1 1
          1 1 1 1 1 1
          1 1 1 1 1 1
          1 1 1 1 1 1
          1 1 1 1 1 1
          0.5 1 1 0.5 0.5 1
          0.5 1 0.5 1 0.5 0.5
          1 0.5 1 0.5 1 1
          1 1 1 1 1 1
          1 1 1 1 1 1
          1 1 1 1 1 1
          1 1 1 1 1 1
          1 1 1 1 1 1
          1 1 1 1 1 1
          1 1 1 1 1 1
          1 1 1 1 1 1
          1 1 1 1 1 1
          1 1 1 1 1 1
        </DataArray>
        <DataArray type="Float64" Name="dHdT" format="ascii" RangeMin="25.82399753141996" RangeMax="31.987644510706854">
          26.174514316950397 26.030742987054463 25.87571036754621 25.86048613164339 25.890448956195275 25.856384416525643
          26.13081174148501 25.951565141130473 26.285865605685604 26.489952281609828 26.12431091511918 26.575017056083865
          25.87368770842824 25.910343303825183 25.94347270535611 25.957136824288046 26.02582880271111 26.059063662183704
          25.918864162304672 25.93219515593632 25.96730697517639 26.00037814653794 25.90548233862157 26.08103176551944
          25.94081559190751 26.014791336664292 25.86868212592305 25.873989532640607 25.851154380762477 25.856931316447298
          25.871864836799325 25.85937119543221 25.88491897600916 25.900036904641492 25.914767697285832 25.931708345613508
          25.875280761337148 25.84746266258644 25.85433409283201 25.84076936487434 25.844293344468454 26.127266008620246
          26.024766877232512 26.281748725609916 25.995203663763476 26.03206363566534 25.934524504195338 25.95994156402617
          25.968948077389655 25.995123294974 25.934753875652337 26.120151447281508 26.02045343383407 26.057532248658617
          26.657776104417636 26.417104500464532 26.47237244730177 26.28112578421862 26.915357267120445 26.605553720671796
          26.56868652110299 26.234615931806793 26.09903403912675 26.137737468905822 26.032734960453645 26.36824878443202
          26.190761195931625 26.185526818662378 28.236581134204748 28.319662612236474 27.183866689930394 26.802333656529807
          26.640060103660424 26.401929703491163 27.425410869763184 26.979224316873648 26.761045193375953 26.50803135174802
          26.286607718926774 26.221143904295616 26.125126882693603 26.634640160841336 26.374001439584568 26.28383415932151
          27.594813658947114 27.103363099375592 26.84591126047571 26.552411977189497 27.655618838633494 27.148121234385638
          26.876307102991998 26.724387754220803 26.436430226983397 26.32927184976115 26.163426058734885 26.75691289800873
          26.459070455230332 26.34572743800333 25.95139211783748 26.021050844767714 25.89361838132797 25.91001417859291
          25.87782056786908 25.890087679762498 25.88201879578221 25.89411430363426 25.878453492364656 25.949329673606545
          25.911066555856078 25.922372465472584 26.00141569457087 25.934071626115916 25.9584650815049 25.907670728200642
          26.062682624876878 25.973253962462138 25.999536500558044 25.87814391147134 25.88914083799966 25.865625066357865
          25.873426850380234 25.912670006525644 25.889736270987346 26.126400767000263 26.01382046182355 26.041338487839234
          25.96100171598675 26.18401161462159 26.049997901190807 26.045522303875472 25.93743043539949 25.906203864837448
          25.95945344233515 25.920241045147563 26.224655900223244 26.07514673627104 26.043458266781798 25.981150797260867
          26.239306873236558 26.084151483158983 26.049632586807057 25.97479744450139 25.929655036979725 25.98034662660815
          25.93299180576713 26.29412607718646 26.325074454309757 26.15197460224659 26.17365697688435 26.18881081003437
          26.208996824099934 26.090195019629405 26.384199371497242 26.215593838928 26.248612155746493 26.046577248871408
          26.061716303144905 26.002629550614195 26.01480560145283 25.99515674396294 26.004553130042048 25.96989733389853
          26.091136781371368 26.01727167233207 26.023183912810765 26.428075637900612 26.247367331956625 26.278648660764958
          26.139455746971393 26.4437753642398 26.258886337579355 26.28925584820243 26.113606090343676 26.01712835315964
          26.037964985924294 25.966660434664234 26.121793975363012 26.021840023966917 26.043511662348223 25.946913345938885
          25.948627770237646 25.9197472910449 25.920408886291362 25.915469243305882 25.916213859258285 25.895574312631915
          25.950342194536407 25.921070481537825 25.916958475210684 25.93400823232421 25.854801901884077 25.835420782269466
          25.88958480667129 26.01870630708671 25.93521107374587 26.076004304854653 25.850022060782507 25.957362306239517
          25.825382795342644 25.82399753141996 25.829859166337414 25.828287277986632 25.83265876053757 25.830445382827403
          25.870278319165273 25.83965446942146 25.833121678601543 25.942297489335044 25.862254528938763 25.840209155217796
          26.225413075559338 26.29636588517841 26.167736683323767 26.33809004045603 25.852354356385597 25.838077203773825
          25.865727896316898 25.843321914787822 25.83396340946932 25.871240894061422 25.845260555325375 26.00866608805949
          25.895197594288774 25.95482526355113 26.10517424779637 25.987617449591756 26.075140109713693 26.142787437814132
          26.028421836019167 26.382519766363252 26.732392157709903 25.829214314453907 25.831992723875643 25.828260500127886
          26.07803128255505 26.130682933007378 26.077545065182505 26.26602536442139 26.48295855011096 26.255629893361515
          27.091132035486098 26.74636895336931 26.435727413400965 26.674772394893633 27.611083073256154 27.137124780754053
          26.97445190789852 26.7710150878833 26.313230984858862 26.726204387138537 28.24917613344821 27.612462452281836
          27.319962932064357 27.120717747956164 26.488135731660634 26.273915323079436 26.739015156101125 26.44800967174774
          31.074747520957526 29.664653956297734 28.006692037907804 28.780394986182074 31.746730621154335 30.197543281510196
          29.089387911442806 27.118217078720555 27.605961283018008 27.232134222427902 27.759039823816032 31.987644510706854
          30.39964287303936 29.204764823278673 27.272918566366563 27.814535650786993 28.964796162682493 28.135699519728533
          27.68087560966155 27.501354572002715 26.954700471347984 28.63433542595436 27.858256815558686 27.010701091990768
          26.636240648689316 27.262693337208944 26.810100211521334 29.002592167322565 28.118050226939964 29.139041828635314
          28.21364023890289 27.44522428365692 26.934988360090976 27.512636570213743 26.9807951514615 25.912101362086542
          26.11652880393624 26.00583430886929 26.23315014048439 26.080282402060774 25.90503821826557 25.93177283127649
          25.853473734248006 25.883876736711315 25.859607164078128 25.850680145594637 25.97652795683614 25.909534415297447
          25.873082109706964 26.358827081230626 26.16069185831394 26.474688485594818 26.23486736660286 26.025471643147643
          25.937809855995198 25.887723363876056 25.86999948382751 26.070728994079957 25.964049852526095 25.900856234974533
          26.557402731519062 26.287811979048104 26.58750491730835 26.307089157696318 26.103093587495607 25.98283008274274
          25.909970072613486 25.884706420022226 26.114901937912894 25.98966259574881 25.913250777524333 26.485220816122855
          26.528861115014436 26.36898454839534 26.611119933603305 26.671118114797416 26.46675528097409 26.692497776294246
        </DataArray>
        <DataArray type="Float64" Name="dk/dtemperature" format="ascii" RangeMin="0.010301055919874081" RangeMax="0.015804580349343192">
          0.015512219766594587 0.01574193165303992 0.015804580349343192 0.015804580349343192 0.015804580349343192 0.015804580349343192
          0.015595751361665617 0.015804580349343192 0.015287288302758743 0.014976749534034594 0.015585309912281738 0.014884977999991953
          0.015804580349343192 0.015804580349343192 0.015804580349343192 0.015804580349343192 0.01574193165303992 0.015689724406120525
          0.015804580349343192 0.015804580349343192 0.015804580349343192 0.015762814551807676 0.015804580349343192 0.01563751715920113
          0.015804580349343192 0.015721048754272163 0.015804580349343192 0.015804580349343192 0.015804580349343192 0.015804580349343192
          0.015804580349343192 0.015804580349343192 0.015804580349343192 0.015804580349343192 0.015804580349343192 0.015804580349343192
          0.015804580349343192 0.015804580349343192 0.015804580349343192 0.015804580349343192 0.015804580349343192 0.015595751361665619