<?xml version="1.0"?>
<VTKFile type="UnstructuredGrid" version="0.1" byte_order="LittleEndian" header_type="UInt32" compressor="vtkZLibDataCompressor">
  <UnstructuredGrid>
    <Piece NumberOfPoints="550" NumberOfCells="312">
      <PointData>
        <DataArray type="Int32" Name="libmesh_node_id" format="ascii" RangeMin="271" RangeMax="3074">
          271 273 274 346 347 350
          352 353 355 486 487 488
          489 490 492 493 494 495
          496 497 653 654 655 658
          663 664 665 666 667 668
          669 670 671 672 675 676
          679 680 683 687 688 689
          690 691 692 693 694 695
          696 731 732 733 734 738
          742 922 923 924 925 926
          927 928 929 930 933 934
          962 1029 1030 1031 1032 1033
          1034 1035 1036 1037 1042 1043
          1044 1047 1052 1053 1055 1057
          1058 1059 1060 1217 1238 1239
          1240 1241 1242 1243 1244 1245
          1246 1247 1248 1249 1250 1251
          1252 1253 1254 1255 1259 1260
          1262 1263 1265 1266 1267 1268
          1269 1270 1271 1273 1274 1275
          1276 1277 1280 1283 1286 1287
          1288 1289 1290 1291 1293 1294
          1295 1306 1307 1308 1310 1311
          1312 1378 1379 1382 1383 1385
          1387 1558 1562 1784 1785 1786
          1787 1788 1789 1790 1791 1792
          1795 1804 1805 1806 1807 1808
          1809 1834 1835 1838 1839 1848
          1849 1852 1853 2411 2412 2413
          2414 2415 2416 2417 2418 2419
          2420 2421 2422 2423 2424 2425
          2426 2427 2428 2429 2430 2431
          2432 2433 2434 2435 2436 2437
          2438 2439 2440 2441 2442 2443
          2444 2445 2446 2447 2448 2449
          2450 2451 2452 2453 2454 2455
          2456 2457 2458 2459 2460 2461
          2465 2466 2468 2469 2471 2472
          2473 2474 2475 2476 2477 2478
          2479 2480 2481 2482 2483 2486
          2487 2489 2491 2492 2493 2494
          2495 2496 2497 2498 2499 2500
          2501 2502 2503 2504 2505 2506
          2507 2508 2509 2510 2511 2512
          2513 2514 2515 2516 2517 2518
          2519 2520 2521 2522 2523 2525
          2526 2527 2528 2529 2530 2531
          2532 2533 2534 2535 2536 2537
          2538 2539 2540 2541 2542 2543
          2544 2545 2546 2547 2548 2549
          2552 2558 2559 2563 2564 2565
          2566 2567 2568 2569 2570 2571
          2572 2573 2574 2575 2576 2577
          2578 2579 2594 2595 2596 2597
          2598 2600 2628 2630 2632 2634
          2642 2643 2644 2645 2646 2647
          2648 2649 2650 2651 2652 2653
          2654 2655 2656 2657 2658 2659
          2660 2661 2663 2664 2665 2666
          2667 2668 2669 2670 2671 2672
          2673 2674 2675 2676 2677 2678
          2679 2680 2681 2683 2685 2686
          2688 2690 2692 2700 2701 2702
          2707 2710 2720 2722 2734 3037
          3038 3039 3040 3041 3042 3045
          3046 3048 3050 3051 3052 3053
          3054 3056 3058 3060 3061 3062
          3063 3064 3065 3066 3069 3070
          3072 3074 759 763 760 764
          931 932 935 360 735 361
          1256 1257 1258 1261 1272 739
          1278 1279 1281 1282 1285 1284
          740 1380 1381 1384 761 1798
          768 970 1836 1837 1840 1841
          1842 1843 1844 1850 1851 1854
          766 1560 2462 2463 2464 2467
          736 2470 1264 2484 2485 2488
          2490 737 2524 2580 2581 1296
          2582 2583 1297 2584 2585 2586
          2587 2588 2589 2590 2591 2593
          2599 1300 2601 2602 2603 2604
          2605 2607 2612 2613 2629 2631
          2617 1303 2633 1305 2662 1309
          2682 2684 744 2687 2689 2691
          1313 2693 2694 2695 2696 2697
          2703 2704 2705 2706 2708 2709
          1315 2711 2712 2713 2714 2715
          2716 2721 2723 2724 2725 2726
          1317 2637 2727 2735 2736 2737
          2738 2739 2740 1319 3043 3044
          3047 3049 3055 3057 3059 1386
          3067 3068 3071 3073
        </DataArray>
        <DataArray type="Float64" Name="bounds" format="ascii" RangeMin="0" RangeMax="0">
          0 0 0 0 0 0
          0 0 0 0 0 0
          0 0 0 0 0 0
          0 0 0 0 0 0
          0 0 0 0 0 0
          0 0 0 0 0 0
          0 0 0 0 0 0
          0 0 0 0 0 0
          0 0 0 0 0 0
          0 0 0 0 0 0
          0 0 0 0 0 0
          0 0 0 0 0 0
          0 0 0 0 0 0
          0 0 0 0 0 0
          0 0 0 0 0 0
          0 0 0 0 0 0
          0 0 0 0 0 0
          0 0 0 0 0 0
          0 0 0 0 0 0
          0 0 0 0 0 0
          0 0 0 0 0 0
          0 0 0 0 0 0
          0 0 0 0 0 0
          0 0 0 0 0 0
          0 0 0 0 0 0
          0 0 0 0 0 0
          0 0 0 0 0 0
          0 0 0 0 0 0
          0 0 0 0 0 0
          0 0 0 0 0 0
          0 0 0 0 0 0
          0 0 0 0 0 0
          0 0 0 0 0 0
          0 0 0 0 0 0
          0 0 0 0 0 0
          0 0 0 0 0 0
          0 0 0 0 0 0
          0 0 0 0 0 0
          0 0 0 0 0 0
          0 0 0 0 0 0
          0 0 0 0 0 0
          0 0 0 0 0 0
          0 0 0 0 0 0
          0 0 0 0 0 0
          0 0 0 0 0 0
          0 0 0 0 0 0
          0 0 0 0 0 0
          0 0 0 0 0 0
          0 0 0 0 0 0
          0 0 0 0 0 0
          0 0 0 0 0 0
          0 0 0 0 0 0
          0 0 0 0 0 0
          0 0 0 0 0 0
          0 0 0 0 0 0
          0 0 0 0 0 0
          0 0 0 0 0 0
          0 0 0 0 0 0
          0 0 0 0 0 0
          0 0 0 0 0 0
          0 0 0 0 0 0
          0 0 0 0 0 0
          0 0 0 0 0 0
          0 0 0 0 0 0
          0 0 0 0 0 0
          0 0 0 0 0 0
          0 0 0 0 0 0
          0 0 0 0 0 0
          0 0 0 0 0 0
          0 0 0 0 0 0
          0 0 0 0 0 0
          0 0 0 0 0 0
          0 0 0 0 0 0
          0 0 0 0 0 0
          0 0 0 0 0 0
          0 0 0 0 0 0
          0 0 0 0 0 0
          0 0 0 0 0 0
          0 0 0 0 0 0
          0 0 0 0 0 0
          0 0 0 0 0 0
          0 0 0 0 0 0
          0 0 0 0 0 0
          0 0 0 0 0 0
          0 0 0 0 0 0
          0 0 0 0 0 0
          0 0 0 0 0 0
          0 0 0 0 0 0
          0 0 0 0 0 0
          0 0 0 0 0 0
          0 0 0 0 0 0
          0 0 0 0
        </DataArray>
        <DataArray type="Float64" Name="gradient_error" format="ascii" RangeMin="1.1141671981156419e-10" RangeMax="3.256903276262956e-7">
          4.613569550955581e-9 4.756997866539921e-8 3.687976875984272e-8 1.450783013613928e-7 1.1077781540993094e-7 3.621575862029146e-8
          1.511602621538802e-7 1.0301753615132894e-7 6.297797415671286e-8 7.627596413857854e-8 6.50800552839946e-8 2.7783311663167106e-9
          2.6092141195357795e-8 2.185101736526337e-8 3.803647896153947e-8 1.319177639429449e-8 1.205999723659142e-9 1.2069122041732507e-9
          9.65128789330554e-10 1.0941258916638005e-9 1.289567865379011e-7 3.256903276262956e-7 2.9449028205301606e-7 2.1430042692287513e-7
          1.0124076900014125e-7 9.3007279107363e-8 2.984931761927245e-7 2.639598257701388e-7 2.8994247268539462e-8 1.5244419475327056e-7
          1.3205235603305492e-7 7.086155043181303e-8 1.7992328900491465e-7 8.565022587771825e-8 1.7775943315635167e-7 2.8627613468985105e-7
          6.338048604617103e-8 1.2451539558957072e-7 8.372017381312781e-8 4.3746343964895465e-8 9.516163413969403e-8 1.5170652318923858e-8
          4.366823183549199e-8 3.054337628074961e-8 5.990316561711191e-8 2.2005859488771518e-8 2.4268980248022896e-7 1.1609275523407765e-7
          1.1599803526621074e-7 3.6521996268066135e-9 3.3176162301293007e-9 1.3879562975604763e-9 1.069733543736501e-9 2.560102137073052e-9
          7.3138337843367694e-9 4.103550121806241e-9 6.045057585312497e-9 5.522448765602289e-9 4.456635975218805e-9 2.8076552586278833e-9
          2.5727588846583682e-9 4.051789135166807e-9 3.7199551576854514e-9 6.821672764730057e-10 2.0627341005315095e-9 2.993326736399635e-9
          2.1165184062822763e-8 5.812991667284262e-9 7.67207060853667e-9 7.528596175885612e-9 7.0969355478773726e-9 2.542700360809777e-8
          4.763039435639517e-9 6.217146677490208e-9 5.0363417928884216e-9 1.7275727673067895e-8 5.5925026809970605e-8 5.218211424027957e-8
          4.437114177407014e-8 1.2339175977416365e-7 3.494448749379537e-8 2.4332239925671548e-8 7.25511004953167e-8 8.659743222008894e-9
          1.6372218455855463e-8 1.063338306327409e-8 2.79765377897151e-8 1.0165123729328486e-8 4.265749416331864e-9 4.194533848290717e-9
          4.787348488901698e-9 4.684817141578501e-9 1.948714059534672e-9 1.2824731945057262e-9 1.2382889738393136e-9 3.923036802482784e-9
          4.376927352460666e-9 1.1123672480010857e-9 1.4760129245743428e-8 1.383526749830444e-8 1.2986769590482406e-9 1.1822251363812942e-8
          1.026102363690395e-9 9.844294917309977e-10 6.476864704971958e-10 6.190919642761899e-10 8.764554737712132e-10 5.467449119598738e-10
          7.180507342911113e-10 6.647341792193687e-10 5.324928383764618e-10 3.3827409528572842e-9 4.3482810115909474e-9 1.4901253446121565e-9
          1.7769746604011245e-9 2.707991976766286e-9 4.000584849735067e-9 9.86572084506184e-9 1.5766231528008528e-9 7.652724313122313e-9
          7.386418119843178e-10 8.359068215705835e-10 6.115571477834325e-10 7.308222144794484e-10 3.091691039147077e-8 2.8860977846177092e-8
          4.0876025491529354e-9 3.753683135555809e-9 2.4433281355442882e-8 2.9417886055719817e-9 5.9121073433891725e-8 9.744026450355552e-9
          4.788750550706487e-8 1.912272062058671e-8 2.041668477098574e-9 1.3298458367215644e-8 3.467339658284876e-8 4.739670394608311e-9
          2.317694412931258e-8 5.821267591043833e-9 9.401779225549119e-9 5.056754889666439e-9 7.196598750079242e-9 1.5324165104152887e-8
          1.1266164257348249e-8 8.003475468227746e-9 5.993170999276259e-9 2.303419485397727e-9 3.1795914653916555e-9 2.4457509262377807e-9
          1.5102055782091441e-9 2.1516487870748825e-9 7.169916710205615e-10 1.1237061087581094e-9 1.232805466044123e-9 1.7047652815545885e-9
          8.041268227948478e-9 2.8576020230564035e-9 3.761577483939369e-9 3.076015384562122e-9 4.627761162847277e-9 6.2375469852204916e-9
          4.87417801429962e-9 2.0742270828648317e-9 2.935684077630329e-9 1.7751967931956615e-9 2.4105689677126777e-9 3.5468773358635115e-9
          4.817882495746096e-9 2.7245191218953882e-9 3.6422076817860608e-9 1.1509028858645822e-9 1.3834974104800378e-9 1.364081587243854e-9
          1.3146359357202697e-9 2.335612170379684e-9 9.175138668621574e-10 9.046431428962916e-10 1.1611696954683087e-9 1.1449134934087904e-9
          5.491589108696515e-10 7.894938983009331e-10 7.780787199106236e-10 8.696756613594905e-10 1.1008842550276978e-9 7.447610295255477e-10
          1.9911817535908873e-9 1.961211859531263e-9 1.3651415975119923e-9 1.8781510902030665e-9 1.0363504403482814e-9 1.2361687970915243e-9
          1.1340567996659856e-9 2.0883343877348766e-9 8.156351266785596e-10 1.0318288762061594e-9 4.950211364749877e-10 6.933229248743172e-10
          7.487614442076394e-10 9.430527919132034e-10 6.293613781641526e-10 1.7437690411601602e-9 1.197018873717491e-9 1.5726373891013088e-9
          3.840931994439248e-10 3.7874087312654365e-10 5.48054728256719e-10 5.394914520203542e-10 2.6517225244452263e-10 3.8574295317704255e-10
          3.793125128627565e-10 3.632510633049603e-10 5.148900736871052e-10 3.610318647306272e-10 1.001442282466161e-9 9.831648848272258e-10
          7.041825423775111e-10 9.310907449169727e-10 1.8255973317941871e-10 1.794855170521517e-10 2.662770000457708e-10 2.615821736316848e-10
          1.7178688290494743e-10 2.484971743681589e-10 5.062624981255314e-10 4.960917007915107e-10 4.67038497504378e-10 3.394888854200868e-10
          4.771812845659381e-10 2.369426266988032e-10 3.3344151120789943e-10 3.1212430746140056e-10 4.309264217133709e-10 2.9940102692989745e-10
          8.520511771474654e-10 6.052946411917217e-10 7.546925189938484e-10 1.6143337338677625e-10 2.2868581466612892e-10 1.4860636084499556e-10
          2.038994733019567e-10 4.239516518432588e-10 3.7159158683267136e-10 8.471328205590367e-10 9.958914867830969e-10 9.114008609844015e-10
          1.650727286926659e-9 6.856021729325834e-10 8.377909451387042e-10 4.3125211771808964e-10 5.609218844375837e-10 6.573728070184522e-10
          7.80022840157197e-10 5.269083447647151e-10 1.3745715756872668e-9 9.268493055872843e-10 1.3030155030907921e-9 2.917494164401055e-10
          3.7882347351229464e-10 2.021358385757437e-10 2.624753830555599e-10 2.851144089968255e-10 3.513047011395028e-10 2.438500777543398e-10
          6.450884060796494e-10 4.52284819458703e-10 5.977188597413241e-10 1.3692328079990207e-10 1.767638342479335e-10 1.1464100719847868e-10
          1.4407048402848112e-10 1.3233812179835536e-10 1.6299334970549258e-10 1.3572407598187363e-10 3.12739683160774e-10 2.8789628022746493e-10
          3.615758654278747e-9 3.562762597274128e-9 3.4261057171524595e-9 5.8018336104175006e-9 3.1822557357215102e-9 3.1313908408196813e-9
          2.4063097899277245e-9 2.3609321134092176e-9 2.9912468142183718e-9 2.2296703125721133e-9 5.2366167967467204e-9 5.138813717031565e-9
          4.001905644861555e-9 4.876250744360733e-9 3.179893106330409e-9 2.860918791360312e-9 5.0848013551387645e-9 2.7597297676363628e-9
          2.032071624484508e-9 2.4678136000603853e-9 1.7927050788681937e-9 4.451081412423848e-9 3.382775077108108e-9 3.919068294509415e-9
          8.19766273310409e-9 7.51062974962739e-9 6.183721443753399e-9 1.1528174642391953e-8 7.525174625185005e-9 6.6111778392954475e-9
          1.1287145201890882e-8 6.820729003436747e-9 5.512400157393215e-9 5.94470091387383e-9 4.7216965594336145e-9 1.0354716753796104e-8
          8.635214242121654e-9 8.8785387759814e-9 1.8013923695316645e-9 1.7635556147844868e-9 1.3294611442188513e-9 1.2997520916261843e-9
          1.6564729542688402e-9 1.2158772831317478e-9 1.4965534100410952e-9 1.0917451924713685e-9 1.305784227348522e-9 9.45032512164635e-10
          2.5919260764416436e-9 2.2232085304686877e-9 4.374427348474482e-9 3.6907340053510274e-9 7.089791184893725e-9 5.905890076000337e-9
          2.527341997901473e-9 2.176708192179505e-9 3.900851139186566e-9 2.159600754286947e-9 1.539210299610971e-9 1.8462207418596716e-9
          1.290739385889443e-9 3.369367423251451e-9 2.480306454889536e-9 2.8278697679807108e-9 1.5422020763418587e-9 1.846095448839106e-9
          1.5266990605359552e-9 2.761492049334822e-9 1.2603028651458813e-9 1.5491521012680298e-9 8.146327761692064e-10 1.056700006342602e-9
          1.0329503227459299e-9 1.2694902804640762e-9 2.3377183500843943e-9 1.6461721977993821e-9 1.8962100630161423e-9 5.6822424282099976e-9
          4.7246961014513116e-9 8.219954055016714e-9 5.04367838001613e-9 3.910471701801388e-9 4.158731802656585e-9 3.159707475021167e-9
          7.419082726317796e-9 5.965035054497156e-9 6.0291691356393644e-9 3.894869920478171e-9 3.170330053971379e-9 5.464273424563891e-9
          3.3820820143165316e-9 2.5005949258251324e-9 2.71258922093422e-9 4.82095275332898e-9 3.798719638465532e-9 1.1071947064809965e-9
          9.140801821913097e-10 1.84711600792833e-9 1.4953180377516024e-9 5.57580627145709e-10 7.365432945187859e-10 3.9024885285113437e-10
          1.1850950796425608e-9 2.7158267235872745e-10 3.006879194032273e-9 2.384075603682508e-9 1.850996240371453e-9 1.0150917666876275e-9
          1.2121957376074343e-9 1.059955599169889e-9 1.794675844528388e-9 8.355628837615457e-10 1.0124673883558612e-9 7.494768241661027e-10
          8.928830958072441e-10 1.4980350738323945e-9 1.2689488914147728e-9 2.529542408173184e-9 1.9601341013363876e-9 3.43869186281622e-9
          2.1382560461102696e-9 1.6455007140095188e-9 2.950675366416967e-9 2.2587281282652205e-9 1.2443114216596551e-9 1.4636468798547195e-9
          1.2709815081871977e-9 1.9881931445081334e-9 1.0487854042464587e-9 1.2352465156218046e-9 9.199589677817682e-10 1.0683297187674926e-9
          1.6816775227445551e-9 1.444997625436298e-9 3.5457444258845753e-9 4.812898014870616e-9 3.822027850549098e-9 5.646130471438284e-9
          1.3116468585040891e-9 1.2121366743942272e-9 1.1696285204045174e-9 1.192129714513838e-9 1.076193274113636e-9 1.1429957194831038e-9
          4.64031017574311e-10 3.0410689524783367e-10 2.9019219214334464e-10 3.265607651556887e-10 2.1760375022501404e-9 1.907640342007795e-9
          3.5177395190399263e-10 4.531125166567897e-10 1.0224500414832208e-9 5.401575579692606e-10 8.723749993095393e-10 3.9695878146993385e-10
          5.879568130278173e-10 2.1168723905857916e-9 1.5644343097150008e-9 2.676483990024447e-9 1.4881140462567046e-9 5.312699864359929e-9
          8.197187673779762e-9 9.676415998796926e-9 9.728423794407585e-10 1.555833330113924e-9 1.277256148653982e-9 5.102574040373367e-10
          7.548938485510321e-10 3.656821918664162e-10 5.079117081955052e-10 1.799578658467116e-9 2.5033191382495496e-9 1.81024300954597e-9
          3.326556173703181e-9 4.294151910636632e-9 1.2101281586702808e-10 1.8080744901515047e-10 1.775931883253143e-10 1.6868006558780707e-10
          3.4788697943539414e-10 3.4074843301321127e-10 3.201189479223803e-10 1.1141671981156419e-10 1.5380853066340927e-10 1.4722953588281785e-10
          2.8807056377529867e-10 3.1434399921396036e-10 2.4366000078760944e-10 3.1967386909519923e-9 3.1210656725949725e-9 2.4290134972485507e-9
          2.367644014192865e-9 2.907539832329586e-9 2.1947324523835895e-9 9.550868738135516e-10 9.328220749019e-10 6.641826063700237e-10
          6.483688725738309e-10 8.702056048270012e-10 6.037857117970397e-10 1.7817997855853436e-9 1.7345651601048742e-9 1.602095612695804e-9
          1.94148907334511e-9 1.6491301202944475e-9 7.789844035369663e-10 5.393412757796644e-10 6.720250219763673e-10 4.638358473767783e-10
          1.4092830610301642e-9 1.1885277607034106e-9 4.9631141111140975e-9 3.8576247070833015e-9 3.36841215898688e-9 2.808607126464757e-9
          8.09679901519445e-9 6.48047794690291e-9 5.6135184451592904e-9 4.612626813789374e-9 8.487110790989335e-10 1.3034385499636543e-9
          1.9467557928286877e-9 3.6876299874942583e-9 2.822765215146624e-9 7.936040482076777e-10 6.490816406364603e-10 1.3547939632561672e-9
          1.0838490648574456e-9 5.60271653420496e-10 3.843367378572115e-10 4.5413007271474506e-10 3.098492913221892e-10 9.686967181542487e-10
          5.189195098869479e-10 4.465548014486062e-10 5.835621366735874e-10 4.0755841556819714e-10 8.48435634259641e-10 9.218704158710639e-10
          6.514269662875004e-10 3.6166814031569714e-10 1.8604983298261612e-10 2.44856997913273e-10 2.1711488850468628e-10 2.8209970810902204e-10
          2.0925139293599822e-10 2.2576675551304746e-9 1.7653279738296944e-9 4.7303285774406635e-9 3.636477640767098e-9 3.6797246823909026e-9
          2.7828658374875282e-9 2.061788180753284e-9 1.641142604899969e-9 1.3510354684705983e-9 1.4125402820975495e-9 1.015678056632415e-9
          2.8021278262489036e-9 2.084095683525966e-9 2.0987601555419376e-9 1.535051934789295e-9 5.365477127178007e-10 6.721946113549235e-10
          5.922558076193523e-10 1.0135414698007081e-9 1.494366973830149e-9 1.126670045701064e-9 2.1295310753861433e-9 1.5822119530955463e-9
          7.006189117204311e-10 8.379511954208038e-10 7.128243483933834e-10 1.1605107691697672e-9
        </DataArray>
        <DataArray type="Float64" Name="gradient_matprop_error" format="ascii" RangeMin="0" RangeMax="0">
          0 0 0 0 0 0
          0 0 0 0 0 0
          0 0 0 0 0 0
          0 0 0 0 0 0
          0 0 0 0 0 0
          0 0 0 0 0 0
          0 0 0 0 0 0
          0 0 0 0 0 0
          0 0 0 0 0 0
          0 0 0 0 0 0
          0 0 0 0 0 0
          0 0 0 0 0 0
          0 0 0 0 0 0
          0 0 0 0 0 0
          0 0 0 0 0 0
          0 0 0 0 0 0
          0 0 0 0 0 0
          0 0 0 0 0 0
          0 0 0 0 0 0
          0 0 0 0 0 0
          0 0 0 0 0 0
          0 0 0 0 0 0
          0 0 0 0 0 0
          0 0 0 0 0 0
          0 0 0 0 0 0
          0 0 0 0 0 0
          0 0 0 0 0 0
          0 0 0 0 0 0
          0 0 0 0 0 0
          0 0 0 0 0 0
          0 0 0 0 0 0
          0 0 0 0 0 0
          0 0 0 0 0 0
          0 0 0 0 0 0
          0 0 0 0 0 0
          0 0 0 0 0 0
          0 0 0 0 0 0
          0 0 0 0 0 0
          0 0 0 0 0 0
          0 0 0 0 0 0
          0 0 0 0 0 0
          0 0 0 0 0 0
          0 0 0 0 0 0
          0 0 0 0 0 0
          0 0 0 0 0 0
          0 0 0 0 0 0
          0 0 0 0 0 0
          0 0 0 0 0 0
          0 0 0 0 0 0
          0 0 0 0 0 0
          0 0 0 0 0 0
          0 0 0 0 0 0
          0 0 0 0 0 0
          0 0 0 0 0 0
          0 0 0 0 0 0
          0 0 0 0 0 0
          0 0 0 0 0 0
          0 0 0 0 0 0
          0 0 0 0 0 0
          0 0 0 0 0 0
          0 0 0 0 0 0
          0 0 0 0 0 0
          0 0 0 0 0 0
          0 0 0 0 0 0
          0 0 0 0 0 0
          0 0 0 0 0 0
          0 0 0 0 0 0
          0 0 0 0 0 0
          0 0 0 0 0 0
          0 0 0 0 0 0
          0 0 0 0 0 0
          0 0 0 0 0 0
          0 0 0 0 0 0
          0 0 0 0 0 0
          0 0 0 0 0 0
          0 0 0 0 0 0
          0 0 0 0 0 0
          0 0 0 0 0 0
          0 0 0 0 0 0
          0 0 0 0 0 0
          0 0 0 0 0 0
          0 0 0 0 0 0
          0 0 0 0 0 0
          0 0 0 0 0 0
          0 0 0 0 0 0
          0 0 0 0 0 0
          0 0 0 0 0 0
          0 0 0 0 0 0
          0 0 0 0 0 0
          0 0 0 0 0 0
          0 0 0 0 0 0
          0 0 0 0
        </DataArray>
        <DataArray type="Float64" Name="initial_marker" format="ascii" RangeMin="0" RangeMax="2">
          0 0.5 0 1 0.25 0.25
          2 0 0.25 0 0 0
          0 0 0 0 0 0
          0 0 1.5 2 1.75 1.25
          2 2 2 2 0.6666666666666666 2
          2 1 1.5 1.25 2 2
          0 0.5 0 0 0.5 0
          0.25 0 0 0 1.25 1.25
          0.3333333333333333 0 0 2 2 0
          2 0 0 0 0 0
          0 0 0 0 0 0
          0 0 1 1 1 2
          0 0.5 0 1.5 2 2
          2 2 2 2 2 0.5
          1.5 0.5 2 0 0 0
          1 1 0 1 0.75 0
          0.5 0 2 2 2 2
          0 0 0.5 0.25 0 0
          2 2 2 0 0.25 0
          0 0 0 1.5 1.5 0.75
          0 0 0 1.25 2 2
          2 2 2 2 2 2
          2 2 2 2 2 2
          2 0.25 1 0 0.25 2
          0.5 0 0 0 0 0
          0 0 0 0 0 0
          0 0 0 0 0 0
          0 0 0 0 0 0
          0 0 0 2 2 2
          2 2 2 2 2 2
          2 2 2 2 2 1.75
          2 2 2 2 1 1.5
          1 2 1 1.5 0.5 1.25
          0 1 1 2 2 2
          2 2 2 2 1 1.5
          1.5 1 1.5 1.25 2 2
          2 2 0 0 1 1
          0 1 2 2 2 0
          1 0 1 0 1 1
          2 2 2 0 1 0
          1 2 2 0 1 1
          2 0 1 0 1 0
          1 1 2 2 2 0
          1 0 0.75 0 1 0.5
          2 1.75 2 0 0.5 0
          0.5 0 0 0 1.5 1.3333333333333333
          2 2 2 2 2 2
          2 2 2 2 2 2
          2 2 2 2 2 2
          2 2 2 2 2 2
          2 2 2 2 2 2
          2 2 2 2 2 2
          2 2 2 2 2 2
          2 2 2 2 2 2
          2 2 2 2 2 2
          2 2 2 2 2 2
          2 2 2 2 2 2
          1.5 2 2 2 2 2
          1 1.5 2 2 2 2
          2 2 2 2 2 2
          2 2 2 2 2 2
          2 2 2 2 2 2
          2 2 2 1.5 1.75 1
          2 1 2 2 2 0
          0.5 0 1.5 0 0.5 0
          0 1.5 0.6666666666666666 2 1.5 2
          2 1.5 2 2 0 0.5
          0 1 0 0.5 0 0
          1 0 0 0 0 0
          0 0 0 0 0 0
          0 0 0 0 0 0.5
          0 0 0 0 0 1
          0 0 0.5 0 0 0
          0 0 0 0 0 0
          0 0 0 0 0 0
          0 0 0 1 1 1
          2 2 2 0 1 1
          2 1.75 1.6666666666666667 2 2 2
          2 2 2 2 2 2
          2 2 2 2 2 2
          2 2 2 2 2 2
          2 2 2 2 2 2
          2 2 2 2 1.5 2
          2 2 2 2 2 2
          2 2 2 2 2 2
          1.5 0.5 1.25 1 2 2
          2 1.5 1 1.5 0 0.75
          0.6666666666666666 2 2 2 2 2
          2 2 2 2 2 2
          2 2 2 2 0 0.5
          0 1.5 2 1.5 2 2
          0 0.5 0 1
        </DataArray>
        <DataArray type="Float64" Name="markers_norefine" format="ascii" RangeMin="0" RangeMax="0">
          0 0 0 0 0 0
          0 0 0 0 0 0
          0 0 0 0 0 0
          0 0 0 0 0 0
          0 0 0 0 0 0
          0 0 0 0 0 0
          0 0 0 0 0 0
          0 0 0 0 0 0
          0 0 0 0 0 0
          0 0 0 0 0 0
          0 0 0 0 0 0
          0 0 0 0 0 0
          0 0 0 0 0 0
          0 0 0 0 0 0
          0 0 0 0 0 0
          0 0 0 0 0 0
          0 0 0 0 0 0
          0 0 0 0 0 0
          0 0 0 0 0 0
          0 0 0 0 0 0
          0 0 0 0 0 0
          0 0 0 0 0 0
          0 0 0 0 0 0
          0 0 0 0 0 0
          0 0 0 0 0 0
          0 0 0 0 0 0
          0 0 0 0 0 0
          0 0 0 0 0 0
          0 0 0 0 0 0
          0 0 0 0 0 0
          0 0 0 0 0 0
          0 0 0 0 0 0
          0 0 0 0 0 0
          0 0 0 0 0 0
          0 0 0 0 0 0
          0 0 0 0 0 0
          0 0 0 0 0 0
          0 0 0 0 0 0
          0 0 0 0 0 0
          0 0 0 0 0 0
          0 0 0 0 0 0
          0 0 0 0 0 0
          0 0 0 0 0 0
          0 0 0 0 0 0
          0 0 0 0 0 0
          0 0 0 0 0 0
          0 0 0 0 0 0
          0 0 0 0 0 0
          0 0 0 0 0 0
          0 0 0 0 0 0
          0 0 0 0 0 0
          0 0 0 0 0 0
          0 0 0 0 0 0
          0 0 0 0 0 0
          0 0 0 0 0 0
          0 0 0 0 0 0
          0 0 0 0 0 0
          0 0 0 0 0 0
          0 0 0 0 0 0
          0 0 0 0 0 0
          0 0 0 0 0 0
          0 0 0 0 0 0
          0 0 0 0 0 0
          0 0 0 0 0 0
          0 0 0 0 0 0
          0 0 0 0 0 0
          0 0 0 0 0 0
          0 0 0 0 0 0
          0 0 0 0 0 0
          0 0 0 0 0 0
          0 0 0 0 0 0
          0 0 0 0 0 0
          0 0 0 0 0 0
          0 0 0 0 0 0
          0 0 0 0 0 0
          0 0 0 0 0 0
          0 0 0 0 0 0
          0 0 0 0 0 0
          0 0 0 0 0 0
          0 0 0 0 0 0
          0 0 0 0 0 0
          0 0 0 0 0 0
          0 0 0 0 0 0
          0 0 0 0 0 0
          0 0 0 0 0 0
          0 0 0 0 0 0
          0 0 0 0 0 0
          0 0 0 0 0 0
          0 0 0 0 0 0
          0 0 0 0 0 0
          0 0 0 0 0 0
          0 0 0 0
        </DataArray>
        <DataArray type="Float64" Name="markers_mustrefine" format="ascii" RangeMin="0" RangeMax="2">
          0 0.5 0 1 0.25 0.25
          2 0 0.25 0 0 0
          0 0 0 0 0 0
          0 0 1.5 2 1.75 1.25
          2 2 2 2 0.6666666666666666 2
          2 1 1.5 1.25 2 2
          0 0.5 0 0 0.5 0
          0.25 0 0 0 1.25 1.25
          0.3333333333333333 0 0 2 2 0
          2 0 0 0 0 0
          0 0 0 0 0 0
          0 0 1 1 1 2
          0 0.5 0 1.5 2 2
          2 2 2 2 2 0.5
          1.5 0.5 2 0 0 0
          1 1 0 1 0.75 0
          0.5 0 2 2 2 2
          0 0 0.5 0.25 0 0
          2 2 2 0 0.25 0
          0 0 0 1.5 1.5 0.75
          0 0 0 1.25 2 2
          2 2 2 2 2 2
          2 2 2 2 2 2
          2 0.25 1 0 0.25 2
          0.5 0 0 0 0 0
          0 0 0 0 0 0
          0 0 0 0 0 0
          0 0 0 0 0 0
          0 0 0 2 2 2
          2 2 2 2 2 2
          2 2 2 2 2 1.75
          2 2 2 2 1 1.5
          1 2 1 1.5 0.5 1.25
          0 1 1 2 2 2
          2 2 2 2 1 1.5
          1.5 1 1.5 1.25 2 2
          2 2 0 0 1 1
          0 1 2 2 2 0
          1 0 1 0 1 1
          2 2 2 0 1 0
          1 2 2 0 1 1
          2 0 1 0 1 0
          1 1 2 2 2 0
          1 0 0.75 0 1 0.5
          2 1.75 2 0 0.5 0
          0.5 0 0 0 1.5 1.3333333333333333
          2 2 2 2 2 2
          2 2 2 2 2 2
          2 2 2 2 2 2
          2 2 2 2 2 2
          2 2 2 2 2 2
          2 2 2 2 2 2
          2 2 2 2 2 2
          2 2 2 2 2 2
          2 2 2 2 2 2
          2 2 2 2 2 2
          2 2 2 2 2 2
          1.5 2 2 2 2 2
          1 1.5 2 2 2 2
          2 2 2 2 2 2
          2 2 2 2 2 2
          2 2 2 2 2 2
          2 2 2 1.5 1.75 1
          2 1 2 2 2 0
          0.5 0 1.5 0 0.5 0
          0 1.5 0.6666666666666666 2 1.5 2
          2 1.5 2 2 0 0.5
          0 1 0 0.5 0 0
          1 0 0 0 0 0
          0 0 0 0 0 0
          0 0 0 0 0 0.5
          0 0 0 0 0 1
          0 0 0.5 0 0 0
          0 0 0 0 0 0
          0 0 0 0 0 0
          0 0 0 1 1 1
          2 2 2 0 1 1
          2 1.75 1.6666666666666667 2 2 2
          2 2 2 2 2 2
          2 2 2 2 2 2
          2 2 2 2 2 2
          2 2 2 2 2 2
          2 2 2 2 1.5 2
          2 2 2 2 2 2
          2 2 2 2 2 2
          1.5 0.5 1.25 1 2 2
          2 1.5 1 1.5 0 0.75
          0.6666666666666666 2 2 2 2 2
          2 2 2 2 2 2
          2 2 2 2 0 0.5
          0 1.5 2 1.5 2 2
          0 0.5 0 1
        </DataArray>
        <DataArray type="Float64" Name="gradient_marker" format="ascii" RangeMin="0" RangeMax="1">
          1 0.25 0.5 1 0.75 0.25
          0.375 0.75 0.25 1 1 1
          0.75 0.75 1 0.875 1 1
          1 1 1 1 1 0.75
          0.5 0.5 0.75 0.75 0 0.25
          0.25 0.25 0.625 0.25 0.625 0.75
          0 0.5 0.5 0 0.375 0
          0.125 0 0.25 0 0.875 0.375
          0.5 0.5 0.5 1 1 0.5
          1 0 0 0 0 0.5
          0.5 0.5 0.5 1 0.5 0.5
          0 0 0 0 0 0
          0 0 0 0 0 0
          0 0.6666666666666666 0 0 0.16666666666666666 0
          0 0 0 0 0 0
          0 0 0.5 0.75 0.75 0
          0 0.75 0 0 1 0
          1 1 1 1 1 1
          1 1 1 0 0 0.5
          0.625 0 0 0 0.875 0
          1 1 1 1 0 0
          1 1 0 1 0.25 1
          0.125 0 1 0 0 1
          0 0 0 0 0 0
          0 0 0 0 0 0
          0.5 0.5 1 1 0.5 0.5
          0 0 0 0 0 0
          0 0 0 0 0 0
          0 0 0 0 0 0
          0 0 0.5 0.5 0.5 0.5
          1 1 1 0.5 0.5 1
          0.5 0.5 1 0.5 0 0
          0 0 0.5 0.5 1 1
          0.5 0.5 1 0.5 1 0.5
          1 1 1 1 1 1
          1 1 1 1 1 1
          1 1 1 1 1 1
          1 1 1 1 1 1
          1 1 1 1 1 1
          1 1 1 1 1 1
          1 1 1 0 0 0
          0 0.5 0.5 1 1 0.5
          0.5 1 0.5 1 0.5 1
          1 1 1 1 1 1
          1 1 1 1 1 1
          1 1 1 1 1 1
          0 0 0 0 0.5 0.5
          1 1 0.5 1 0.5 0.5
          1 0.5 0 0 0 0.5
          1 0.5 1 0.5 1 0.5
          0 0.5 1 0.5 0 0
          0 0.5 1 0.5 1 0.5
          1 0.5 1 1 1 1
          1 1 1 1 1 1
          1 1 1 1 1 1
          0 0 0 0.5 1 0.5
          1 0.5 1 0.5 0 0
          0 0 0.5 0.5 1 1
          0.5 0.5 0.5 1 0.5 0
          0 0 0.5 1 0.5 1
          0.5 1 0.5 0 0 0
          0.5 1 0.5 0.5 0.5 1
          1 1 1 1 1 1
          1 1 1 1 1 0