<?xml version="1.0"?>
<VTKFile type="UnstructuredGrid" version="0.1" byte_order="LittleEndian" header_type="UInt32" compressor="vtkZLibDataCompressor">
  <UnstructuredGrid>
    <Piece NumberOfPoints="548" NumberOfCells="314">
      <PointData>
        <DataArray type="Int32" Name="libmesh_node_id" format="ascii" RangeMin="276" RangeMax="4621">
          276 360 361 364 365 366
          735 736 737 745 746 747
          748 749 750 751 752 753
          754 755 756 757 758 789
          813 814 815 816 820 821
          823 824 826 931 932 935
          938 939 941 942 944 945
          1256 1257 1258 1261 1264 1278
          1279 1282 1284 1320 1321 1322
          1323 1324 1325 1326 1327 1328
          1329 1330 1331 1332 1333 1334
          1335 1336 1337 1338 1339 1342
          1344 1345 1346 1347 1348 1349
          1350 1351 1352 1353 1354 1355
          1356 1357 1358 1360 1361 1364
          1366 1368 1369 1370 1371 1372
          1373 1374 1375 1376 1377 1478
          1479 1481 1484 1486 1487 1490
          1492 1493 1647 1648 1649 1650
          1651 1652 1653 1654 1655 1656
          1657 1658 1659 1660 1671 1673
          1675 1810 1811 1812 1813 1814
          1815 1816 1817 1818 1819 1820
          1821 1822 1823 1824 1825 1826
          1827 1828 1829 1830 1831 1832
          1833 1893 1894 1895 1896 1897
          1898 1899 2462 2463 2464 2467
          2470 2484 2485 2488 2490 2524
          2586 2587 2589 2602 2604 2694
          2696 2748 2749 2750 2751 2752
          2753 2754 2755 2756 2757 2758
          2759 2760 2761 2762 2763 2764
          2765 2766 2767 2768 2769 2770
          2771 2772 2773 2774 2775 2776
          2777 2778 2779 2780 2781 2782
          2783 2784 2785 2786 2787 2788
          2789 2790 2791 2792 2793 2794
          2795 2796 2797 2798 2799 2800
          2801 2802 2803 2804 2805 2806
          2807 2808 2809 2810 2811 2812
          2813 2814 2815 2816 2817 2818
          2819 2820 2821 2822 2823 2824
          2825 2826 2827 2828 2833 2834
          2835 2836 2837 2838 2839 2840
          2841 2842 2843 2844 2845 2846
          2850 2851 2852 2853 2854 2855
          2856 2857 2858 2859 2860 2861
          2862 2863 2864 2865 2866 2867
          2868 2869 2870 2871 2872 2873
          2874 2875 2876 2877 2878 2879
          2880 2881 2882 2883 2884 2885
          2886 2887 2888 2889 2890 2891
          2892 2893 2894 2895 2896 2897
          2898 2899 2900 2901 2902 2903
          2904 2905 2906 2907 2908 2909
          2910 2911 2912 2913 2914 2915
          2916 2917 2918 2919 2920 2921
          2922 2923 2924 2925 2926 2927
          2928 2929 2930 2931 2932 2933
          2934 2935 2936 2937 2938 2939
          2940 2942 2943 2944 2945 2946
          2947 2948 2949 2950 2970 2972
          2973 2979 2980 2982 2983 2984
          2994 2996 2998 3000 3001 3002
          3003 3004 3005 3006 3007 3008
          3009 3010 3011 3012 3013 3014
          3015 3016 3017 3018 3019 3020
          3021 3022 3023 3024 3025 3026
          3027 3028 3029 3030 3031 3032
          3033 3034 3035 3036 3618 3619
          3620 3621 3622 3623 3624 3625
          3626 3627 3635 3636 3637 3638
          3639 3640 3641 3654 3655 3657
          3660 3670 3674 3676 3677 3678
          3679 3680 3681 3682 3683 3684
          3685 3686 3687 3688 3689 3690
          3691 3692 3693 3695 3696 3697
          3698 3699 3700 3701 3702 3703
          3704 3705 3706 3707 3709 3710
          3711 3712 3713 3714 3715 3716
          3717 3718 3719 3720 3721 3724
          3726 3727 3729 3730 3731 3734
          3735 3737 3741 3751 3752 3754
          3755 3756 3766 3768 3800 3801
          3802 3803 3804 3805 3807 3808
          3809 3810 3811 3814 3815 3816
          3817 3821 3822 3823 3824 3825
          3826 3827 4598 4599 4600 4601
          4602 4603 4604 4605 4606 4607
          4608 4609 4610 4611 4612 4613
          4614 4615 4616 4617 4618 4619
          4620 4621
        </DataArray>
        <DataArray type="Float64" Name="bounds" format="ascii" RangeMin="0" RangeMax="0">
          0 0 0 0 0 0
          0 0 0 0 0 0
          0 0 0 0 0 0
          0 0 0 0 0 0
          0 0 0 0 0 0
          0 0 0 0 0 0
          0 0 0 0 0 0
          0 0 0 0 0 0
          0 0 0 0 0 0
          0 0 0 0 0 0
          0 0 0 0 0 0
          0 0 0 0 0 0
          0 0 0 0 0 0
          0 0 0 0 0 0
          0 0 0 0 0 0
          0 0 0 0 0 0
          0 0 0 0 0 0
          0 0 0 0 0 0
          0 0 0 0 0 0
          0 0 0 0 0 0
          0 0 0 0 0 0
          0 0 0 0 0 0
          0 0 0 0 0 0
          0 0 0 0 0 0
          0 0 0 0 0 0
          0 0 0 0 0 0
          0 0 0 0 0 0
          0 0 0 0 0 0
          0 0 0 0 0 0
          0 0 0 0 0 0
          0 0 0 0 0 0
          0 0 0 0 0 0
          0 0 0 0 0 0
          0 0 0 0 0 0
          0 0 0 0 0 0
          0 0 0 0 0 0
          0 0 0 0 0 0
          0 0 0 0 0 0
          0 0 0 0 0 0
          0 0 0 0 0 0
          0 0 0 0 0 0
          0 0 0 0 0 0
          0 0 0 0 0 0
          0 0 0 0 0 0
          0 0 0 0 0 0
          0 0 0 0 0 0
          0 0 0 0 0 0
          0 0 0 0 0 0
          0 0 0 0 0 0
          0 0 0 0 0 0
          0 0 0 0 0 0
          0 0 0 0 0 0
          0 0 0 0 0 0
          0 0 0 0 0 0
          0 0 0 0 0 0
          0 0 0 0 0 0
          0 0 0 0 0 0
          0 0 0 0 0 0
          0 0 0 0 0 0
          0 0 0 0 0 0
          0 0 0 0 0 0
          0 0 0 0 0 0
          0 0 0 0 0 0
          0 0 0 0 0 0
          0 0 0 0 0 0
          0 0 0 0 0 0
          0 0 0 0 0 0
          0 0 0 0 0 0
          0 0 0 0 0 0
          0 0 0 0 0 0
          0 0 0 0 0 0
          0 0 0 0 0 0
          0 0 0 0 0 0
          0 0 0 0 0 0
          0 0 0 0 0 0
          0 0 0 0 0 0
          0 0 0 0 0 0
          0 0 0 0 0 0
          0 0 0 0 0 0
          0 0 0 0 0 0
          0 0 0 0 0 0
          0 0 0 0 0 0
          0 0 0 0 0 0
          0 0 0 0 0 0
          0 0 0 0 0 0
          0 0 0 0 0 0
          0 0 0 0 0 0
          0 0 0 0 0 0
          0 0 0 0 0 0
          0 0 0 0 0 0
          0 0 0 0 0 0
          0 0
        </DataArray>
        <DataArray type="Float64" Name="gradient_error" format="ascii" RangeMin="7.14922962420701e-12" RangeMax="3.958419544914307e-9">
          1.279025985475788e-10 1.192129714513838e-9 1.1429957194831038e-9 4.0774262745593935e-10 5.2776102971593936e-11 1.0212876992158382e-10
          1.076193274113636e-9 3.4788697943539414e-10 3.1434399921396036e-10 2.9050420103618266e-10 2.7090421733582624e-10 8.50693295404422e-11
          1.3282388240331914e-10 1.0882593691210181e-10 4.5666580935796386e-11 6.553569503953373e-11 4.348456392155604e-10 3.22370894181717e-10
          1.0969220784124405e-10 6.779279128576196e-10 4.0333711748202103e-10 4.062366748017866e-11 1.5108823940583868e-10 3.958419544914307e-9
          5.119774975962595e-11 5.146915436361991e-11 3.809443554666762e-11 3.821716742396072e-11 6.042217700219351e-11 6.18429677440925e-11
          1.987917171853999e-11 2.806028300109594e-11 4.639546827771155e-11 1.3116468585040891e-9 1.2121366743942272e-9 1.1696285204045174e-9
          3.5961570086904926e-10 3.4258659324763285e-10 1.544583697510377e-10 1.78361387475425e-10 3.255574856262164e-10 2.022644051998123e-10
          4.64031017574311e-10 3.0410689524783367e-10 2.9019219214334464e-10 3.265607651556887e-10 3.201189479223803e-10 3.5177395190399263e-10
          4.531125166567897e-10 5.401575579692606e-10 3.9695878146993385e-10 2.1734234230645523e-10 2.0515556886679578e-10 1.3610574761205982e-10
          1.6679579841614045e-10 9.022554092953432e-11 8.886336255467271e-11 1.254823127960589e-10 1.7763547977382408e-10 2.523923476343659e-10
          1.489949289228091e-10 1.4984197082498397e-10 1.7002038892284394e-10 1.165756565626084e-10 2.3747731079751425e-10 5.493740962419276e-10
          4.911071656329803e-10 2.0319623023498683e-10 1.824068244176294e-10 3.5964434810132974e-10 1.3484572190073903e-10 5.911388532752792e-10
          6.12282435004771e-11 7.24703785418769e-11 6.44047768999701e-11 7.043624614074655e-11 5.2656587533950226e-11 2.5898199644274536e-11
          3.8396026138999144e-11 7.483651520599806e-11 6.599856672000351e-11 5.1836291071479885e-11 2.0447227471007908e-10 1.7974743959380654e-10
          4.6971498265337716e-11 1.2587127831076775e-10 2.3989396154459213e-10 1.2403612023151976e-10 1.0489280174755333e-10 1.4922104039990213e-10
          2.347122031610159e-10 8.014065225915162e-11 8.326148340240163e-11 5.019254420298103e-11 6.347009284581384e-11 9.146741844120283e-11
          1.2398897258173211e-10 7.356299670079976e-11 9.055881634480012e-11 6.014594635751275e-11 1.1691981428298666e-10 1.889596710745273e-9
          1.6234801629127537e-9 1.0368440338045937e-9 3.428808293847256e-9 5.556422489130674e-10 4.78145052299364e-10 3.124319610685612e-10
          1.1791457670977588e-9 1.0080122655803129e-9 2.7027890027336096e-11 2.610118780915121e-11 2.2166500876483655e-11 2.0980689889051818e-11
          1.3660787938254381e-11 2.0028079782741507e-11 1.9032375979885432e-11 2.3814644941910097e-11 2.6871304384016247e-11 1.733599944468486e-11
          1.7193700752243417e-11 2.1328534310184987e-11 2.1528438863562558e-11 3.0251800578428006e-11 4.091397862004691e-11 2.1067868900048612e-11
          4.4254617640489824e-11 3.890388376504922e-11 3.971124389194485e-11 6.843526737428255e-11 6.646023541954013e-11 2.8727402199614566e-11
          4.139404934674568e-11 3.876774045927637e-11 4.107781910240039e-11 6.138572851064819e-11 3.4925192349743207e-11 1.5715792303233353e-10
          2.712909126600652e-10 8.196988607752435e-11 1.2526801319714894e-10 1.5201368194415522e-10 2.3489122300111136e-10 1.1383176448112162e-10
          4.412802672778057e-11 5.544225931740548e-11 3.455962837656857e-11 3.792884825612503e-11 4.6619019269600843e-11 5.259826507831229e-11
          4.214874338457071e-11 2.137937047820157e-11 3.019564980316875e-11 1.4499791988621198e-11 1.7904342229991133e-11 2.0303936663549263e-11
          2.6575573910727034e-11 1.91733577476419e-11 1.2101281586702808e-10 1.8080744901515047e-10 1.775931883253143e-10 1.6868006558780707e-10
          3.4074843301321127e-10 1.1141671981156419e-10 1.5380853066340927e-10 1.4722953588281785e-10 2.8807056377529867e-10 2.4366000078760944e-10
          6.641826063700237e-10 6.483688725738309e-10 6.037857117970397e-10 5.393412757796644e-10 4.638358473767783e-10 3.843367378572115e-10
          3.098492913221892e-10 8.240395387707088e-11 8.16979659934315e-11 1.2042372870334998e-10 1.1818946129041812e-10 5.5554293868773575e-11
          7.855273211405363e-11 7.65265181738351e-11 7.926830253873704e-11 1.1189090752697491e-10 7.804845701667175e-11 2.3193126416317172e-10
          2.2723443480398129e-10 1.4575627705187752e-10 2.1350495858159947e-10 3.4949089451784644e-11 3.6497241712573337e-11 4.906383253307312e-11
          4.838540270494224e-11 2.943004959744995e-11 3.728649432004601e-11 3.802050032346696e-11 3.8045393973362035e-11 4.770697287681135e-11
          3.875450632688791e-11 9.413496034549797e-11 9.115495150739405e-11 6.471799202913594e-11 9.476929503141145e-11 7.758722121965522e-11
          1.0228839306203013e-10 6.517780709116415e-11 8.265400641773729e-11 7.762981547162849e-11 9.675016494759673e-11 8.016325025269245e-11
          1.9082734283723678e-10 1.428442685577429e-10 1.8495043281534953e-10 4.456581639010827e-10 4.353864382975617e-10 2.882963232082251e-10
          2.81717909816752e-10 4.058608009242988e-10 2.62636651795422e-10 8.484670718752523e-10 8.248347139938737e-10 5.339856608369679e-10
          7.588965190378706e-10 1.804652691367178e-10 1.7596529947844904e-10 1.0842379808865218e-10 1.0574093830824772e-10 1.6332535145096083e-10
          9.822070585029319e-11 3.4097955625479243e-10 3.31540195077822e-10 1.9772073886723127e-10 3.0521016011265333e-10 3.6149431788268e-10
          2.3342675045330634e-10 3.087579504899831e-10 1.9883657359261446e-10 6.637869973445936e-10 4.2941636669360737e-10 5.560048684855516e-10
          1.0091300173975988e-10 1.448286833805068e-10 6.101494239867842e-11 8.725780311560004e-11 8.668374935630729e-11 1.2355598675496574e-10
          7.474602982655169e-11 2.672485871501126e-10 1.6022695799129934e-10 2.2418543373256136e-10 1.5819112969546547e-9 1.5328579309417868e-9
          1.0277030868443574e-9 9.954425978531028e-10 1.3960412288525987e-9 9.05789003691111e-10 6.364875073029101e-10 6.165703279068274e-10
          3.766304107939436e-10 3.650954490039675e-10 5.613343308098913e-10 3.3307828474454663e-10 1.150992766113028e-9 1.1116459513951492e-9
          6.548974294990751e-10 1.0023297019661141e-9 1.2001996812193125e-9 7.780840759963502e-10 9.82620934329392e-10 6.367918607789003e-10
          4.828220704889956e-10 2.8745263013405103e-10 3.9599583065537604e-10 2.367595545045007e-10 8.47548756908298e-10 5.011831948408135e-10
          6.790580026334193e-10 4.303193495165862e-11 4.2288527955443755e-11 6.225058956757015e-11 6.081299489684188e-11 2.4417230197890578e-11
          3.499364080135815e-11 3.3904759774989944e-11 3.9906309636929385e-11 5.6724117658885545e-11 3.498403540242958e-11 1.1642787832577514e-10
          1.1352740877821767e-10 6.235672215304162e-11 1.052672452740299e-10 1.3976703215410153e-11 1.4417793698440516e-11 1.9357903684455867e-11
          1.9058791394072886e-11 1.1315792092342217e-11 1.3840551204689028e-11 1.4388140853412811e-11 1.485888418147088e-11 1.8759679103689898e-11
          1.4935730502136598e-11 3.476461212135759e-11 3.354784814742784e-11 2.0708990967079635e-11 3.404843974672293e-11 3.605163811687599e-11
          5.0723774989344106e-11 2.7558350987373183e-11 3.7050315994606736e-11 3.151877995775063e-11 4.379162209437486e-11 3.222594243133788e-11
          9.295560613782764e-11 5.989750511643776e-11 7.863421126703344e-11 2.1349039282444732e-10 2.0735239098513903e-10 1.1635384442136734e-10
          1.1310691067549929e-10 1.9008919173642935e-10 1.039758840755535e-10 3.8056460354548284e-10 3.678955620287457e-10 1.9789444886866122e-10
          3.3290042458689875e-10 6.139132137165979e-11 5.958244444166253e-11 3.1191374316378285e-11 3.0358590434676406e-11 5.4638346899523257e-11
          2.8033478351871033e-11 1.0562284659689425e-10 1.0239060450416937e-10 5.1252199683596366e-11 9.341777161272574e-11 1.649845484571297e-10
          9.06639365215687e-11 1.366373582167307e-10 7.55282828050523e-11 2.835792111579757e-10 1.5412799691351334e-10 2.2970637663907985e-10
          3.4867762408643875e-11 4.775373755995855e-11 1.8382176556098803e-11 2.4436242373367296e-11 2.950584642180317e-11 4.00312975080473e-11
          2.3214778534383422e-11 8.082217338187759e-11 4.064993456483944e-11 6.68157031695828e-11 1.820750861778384e-10 2.544856108290647e-10
          1.1677433976191265e-10 1.6388071751698532e-10 1.4760633392553396e-10 2.0401741955433227e-10 1.3119250222353398e-10 4.4962303223486634e-10
          2.908413565930101e-10 7.284709127063917e-11 1.0231718001964766e-10 4.502865020454678e-11 6.175608262797606e-11 6.017603748784751e-11
          8.262547061619508e-11 5.567944833906385e-11 1.8198306417279099e-10 1.0930319397873984e-10 7.676203499572627e-11 7.746295204177388e-10
          5.02028573882465e-10 3.13331575373022e-10 1.8826557896955177e-10 1.453619303033289e-10 5.225341667228775e-10 3.1209709607378267e-10
          1.0885721320353178e-10 8.957693620761577e-11 1.7270534477590076e-10 2.7409624423130922e-11 3.6511486532006216e-11 2.168520712096404e-11
          2.7845013595200617e-11 2.561746684988269e-11 3.2814443762293425e-11 2.601842560689369e-11 6.379563518735167e-11 4.1820982627707063e-11
          5.589054306545584e-11 1.0921874909841484e-10 6.031920280228405e-11 8.436091324569217e-11 5.2854668735736116e-11 1.794826094982461e-10
          9.873932744221336e-11 1.3630493435169122e-10 2.4433337511751303e-11 3.218543584394431e-11 1.79305617740125e-11 2.3138618920495388e-11
          2.2107356104011397e-11 2.8312625504329874e-11 2.1295571429774634e-11 5.264973946003557e-11 3.15733981667113e-11 4.4419169707233826e-11
          4.852487719136314e-11 6.2908941680044e-11 3.709328589963654e-11 4.696915517603572e-11 4.203114278414305e-11 5.326394121930339e-11
          4.101014777711339e-11 1.0028629233976236e-10 6.446884817392743e-11 7.980876132828942e-11 1.9802113800133045e-9 1.9095514743034994e-9
          1.1665998361217207e-9 1.124428459141175e-9 1.7110620334822623e-9 1.0070031879861362e-9 3.187877148927813e-9 3.0752481231706284e-9
          1.8200703461126273e-9 2.751327034302971e-9 1.4274342076463323e-9 8.409830023538823e-10 1.1199419033788491e-9 6.621301985439343e-10
          2.2767521411930327e-9 1.3413258025913063e-9 1.7573434495186124e-9 2.8460084630145104e-9 2.7441867579065517e-9 2.4484294313144708e-9
          3.8269464486373775e-9 2.0115546553542847e-9 2.8147524920902984e-9 6.509193251894778e-10 6.275595398061736e-10 3.4576911945619187e-10
          3.336737688196924e-10 5.628849863394988e-10 3.0029606195306924e-10 1.0533962053175973e-9 1.0140820388700608e-9 5.3510445684304e-10
          9.042319709530409e-10 1.7586631830074037e-10 1.6997239649567412e-10 8.617177920155463e-11 8.346768308611404e-11 1.5370963070995225e-10
          7.59496014624214e-11 2.791791137188772e-10 2.6918073833804265e-10 2.4155032923149615e-10 4.719736107068287e-10 2.5345742147963055e-10
          3.74122489070044e-10 2.0281767932672237e-10 7.487207416596529e-10 3.981017423909984e-10 5.821086078097777e-10 1.3092708470916808e-10
          6.526918585729943e-11 1.0606840997768245e-10 5.336256872969418e-11 2.0276042613572378e-10 1.6097976219711554e-10 1.5936325907799577e-9
          1.5340344219675053e-9 8.386979945202999e-10 8.069371084625374e-10 1.3646044874864617e-9 7.179230176444607e-10 2.2360407540509813e-9
          2.1551103649736492e-9 1.1346835530910569e-9 1.9189537860801094e-9 4.180941026691738e-10 4.0249026333176516e-10 3.591299932970949e-10
          5.856223584413862e-10 5.634060214348229e-10 5.01070064536495e-10 1.1204846326642424e-9 5.91665340455561e-10 1.5691727821276227e-9
          8.253052811176589e-10 2.9811902056647797e-10 4.1258261928172705e-10 8.400054606128447e-10 4.993275914655264e-10 3.6596699054322653e-10
          1.28883807929877e-9 7.636685319314996e-10 2.633748427876138e-10 1.8616440527704898e-10 2.8479017282152014e-10 1.560465914499544e-10
          2.108293871611392e-10 1.1648843308956536e-10 4.323599118258227e-10 2.348490260627146e-10 8.262069603335521e-11 4.1706685384335774e-11
          6.223017882763913e-11 3.644153860324481e-11 1.2298496279552038e-10 1.530890498581511e-10 8.480764383215545e-11 1.0843307332011876e-10
          6.901522958683113e-11 3.6715988652897865e-11 4.547262919544949e-11 2.7454689536348713e-11 3.286623985971816e-11 3.144494524540182e-11
          3.810285553600574e-11 2.8589842049127224e-11 1.1266584209778257e-11 1.1029757701483777e-11 1.5327637977095133e-11 1.4975219856302504e-11
          7.747618550173853e-12 1.0207608551357908e-11 1.0002539064136062e-11 1.0358631151383994e-11 1.3966059594065903e-11 9.394307875625322e-12
          2.570366712028715e-11 2.5038671612341222e-11 1.3642646522517146e-11 2.3132194273175388e-11 9.537936159770875e-12 1.2447053335154478e-11
          7.14922962420701e-12 8.992251676967253e-12 9.151541209963056e-12 1.158478921768702e-11 8.993357179598078e-12 2.014162746310127e-11
          1.3729646601982091e-11 1.83588205949849e-11
        </DataArray>
        <DataArray type="Float64" Name="gradient_matprop_error" format="ascii" RangeMin="0" RangeMax="0">
          0 0 0 0 0 0
          0 0 0 0 0 0
          0 0 0 0 0 0
          0 0 0 0 0 0
          0 0 0 0 0 0
          0 0 0 0 0 0
          0 0 0 0 0 0
          0 0 0 0 0 0
          0 0 0 0 0 0
          0 0 0 0 0 0
          0 0 0 0 0 0
          0 0 0 0 0 0
          0 0 0 0 0 0
          0 0 0 0 0 0
          0 0 0 0 0 0
          0 0 0 0 0 0
          0 0 0 0 0 0
          0 0 0 0 0 0
          0 0 0 0 0 0
          0 0 0 0 0 0
          0 0 0 0 0 0
          0 0 0 0 0 0
          0 0 0 0 0 0
          0 0 0 0 0 0
          0 0 0 0 0 0
          0 0 0 0 0 0
          0 0 0 0 0 0
          0 0 0 0 0 0
          0 0 0 0 0 0
          0 0 0 0 0 0
          0 0 0 0 0 0
          0 0 0 0 0 0
          0 0 0 0 0 0
          0 0 0 0 0 0
          0 0 0 0 0 0
          0 0 0 0 0 0
          0 0 0 0 0 0
          0 0 0 0 0 0
          0 0 0 0 0 0
          0 0 0 0 0 0
          0 0 0 0 0 0
          0 0 0 0 0 0
          0 0 0 0 0 0
          0 0 0 0 0 0
          0 0 0 0 0 0
          0 0 0 0 0 0
          0 0 0 0 0 0
          0 0 0 0 0 0
          0 0 0 0 0 0
          0 0 0 0 0 0
          0 0 0 0 0 0
          0 0 0 0 0 0
          0 0 0 0 0 0
          0 0 0 0 0 0
          0 0 0 0 0 0
          0 0 0 0 0 0
          0 0 0 0 0 0
          0 0 0 0 0 0
          0 0 0 0 0 0
          0 0 0 0 0 0
          0 0 0 0 0 0
          0 0 0 0 0 0
          0 0 0 0 0 0
          0 0 0 0 0 0
          0 0 0 0 0 0
          0 0 0 0 0 0
          0 0 0 0 0 0
          0 0 0 0 0 0
          0 0 0 0 0 0
          0 0 0 0 0 0
          0 0 0 0 0 0
          0 0 0 0 0 0
          0 0 0 0 0 0
          0 0 0 0 0 0
          0 0 0 0 0 0
          0 0 0 0 0 0
          0 0 0 0 0 0
          0 0 0 0 0 0
          0 0 0 0 0 0
          0 0 0 0 0 0
          0 0 0 0 0 0
          0 0 0 0 0 0
          0 0 0 0 0 0
          0 0 0 0 0 0
          0 0 0 0 0 0
          0 0 0 0 0 0
          0 0 0 0 0 0
          0 0 0 0 0 0
          0 0 0 0 0 0
          0 0 0 0 0 0
          0 0 0 0 0 0
          0 0
        </DataArray>
        <DataArray type="Float64" Name="initial_marker" format="ascii" RangeMin="0" RangeMax="2">
          0 0 0 0 2 0
          0 2 1.75 0 0 1
          0.25 0 0 0 0 0
          0 2 2 1.5 1.75 2
          0 0 0 0 0 0
          0 0 0 0 0 0
          0 0 0 0 0 0
          0 0 0 0 2 0
          0 0 1 0 0 0
          0 0 0 0 0 0
          0 2 1.5 1 1 2
          2 2 2 2 2 2
          0 0 2 1.75 0 0.5
          0.5 0 1.25 0 2 2
          2 2 0.25 0 1.25 0.25
          2 0 0.25 0 0 0
          0 0 1.75 0.5 0.5 2
          2 2 2 2 2 2
          2 2 0 0 0 0
          0 0 0 0 0 0
          0.5 0.5 0 0 0 0
          0 0 0 0 0 0
          0 0 0 0 0 0
          0 0 0 0 0 0
          0 0 0 0 0 0
          0 0 0 0 0 0
          0 0 0 1 1 1
          2 0 1 1 2 1.6666666666666667
          2 2 2 2 2 2
          2 0 0 1 1 0
          1 0.75 0 1 0.6666666666666666 2
          2 1.75 2 0 0 0.5
          0.25 0 0 0 0 0
          0 1.5 1.25 1.3333333333333333 1.3333333333333333 0
          0.75 0 0.5 0 0.5 0
          1.75 1.6666666666666667 1.6666666666666667 2 2 2
          2 2 2 2 2 2
          2 2 2 2 2 2
          2 2 2 2 2 2
          2 2 2 2 2 2
          2 2 1.5 1.75 1.5 1.75
          1.25 2 2 2 2 2
          2 2 2 2 2 2
          2 2 2 2 2 2
          2 2 2 2 2 2
          2 2 2 2 2 2
          2 1 1 1.5 1.5 0
          1 1 1 1.5 1 2
          2 2 2 0 0 0.5
          0.5 0 0 0 0 0.5
          0 1.5 1.5 0.6666666666666666 1.6666666666666667 0.5
          1.25 0 1 0 0.75 0.5
          2 2 1.75 2 2 2
          2 2 2 2 2 2
          2 2 2 1.5 1.5 2
          1.5 2 2 2 2 2
          2 2 2 2 2 2
          1.5 1.75 0.5 1 1 1.5
          0.6666666666666666 2 1.75 2 2 2
          1.5 1.75 1.5 1.75 1.25 2
          2 0.5 1.25 0 0.75 0
          0.75 0.3333333333333333 2 1.75 1 2
          2 2 2 2 2 2
          1.75 1.3333333333333333 2 0 0.25 0
          0 0 0 0 1.25 1
          1 2 1.75 1.75 1.3333333333333333 2
          2 2 0.5 1 0 0.5
          0 0.5 0 1.75 1.3333333333333333 1.6666666666666667
          0.5 1 0 0.5 0 0.5
          0 1.75 1.6666666666666667 1.3333333333333333 2 2
          2 2 2 2 2 2
          2 2 2 2 2 2
          2 2 2 2 2 2
          2 2 2 2 2 2
          2 2 2 2 2 2
          2 2 2 2 2 2
          2 2 2 2 2 2
          2 2 2 2 2 2
          2 2 2 2 2 2
          2 2 2 2 2 2
          2 2 2 2 2 2
          2 2 2 2 2 2
          2 2 2 2 2 2
          2 2 2 2 2 2
          2 2 2 2 2 1.75
          2 1.6666666666666667 2 2 2 1.75
          1.6666666666666667 1.5 1.5 1 1 1
          1 0 0 0 0.5 0.5
          0 0 0 0 0.5 0
          1.5 1.5 0.6666666666666666 1.5 0 0.25
          0 0 0 0 0 1
          0.5 0.6666666666666666
        </DataArray>
        <DataArray type="Float64" Name="markers_norefine" format="ascii" RangeMin="0" RangeMax="0">
          0 0 0 0 0 0
          0 0 0 0 0 0
          0 0 0 0 0 0
          0 0 0 0 0 0
          0 0 0 0 0 0
          0 0 0 0 0 0
          0 0 0 0 0 0
          0 0 0 0 0 0
          0 0 0 0 0 0
          0 0 0 0 0 0
          0 0 0 0 0 0
          0 0 0 0 0 0
          0 0 0 0 0 0
          0 0 0 0 0 0
          0 0 0 0 0 0
          0 0 0 0 0 0
          0 0 0 0 0 0
          0 0 0 0 0 0
          0 0 0 0 0 0
          0 0 0 0 0 0
          0 0 0 0 0 0
          0 0 0 0 0 0
          0 0 0 0 0 0
          0 0 0 0 0 0
          0 0 0 0 0 0
          0 0 0 0 0 0
          0 0 0 0 0 0
          0 0 0 0 0 0
          0 0 0 0 0 0
          0 0 0 0 0 0
          0 0 0 0 0 0
          0 0 0 0 0 0
          0 0 0 0 0 0
          0 0 0 0 0 0
          0 0 0 0 0 0
          0 0 0 0 0 0
          0 0 0 0 0 0
          0 0 0 0 0 0
          0 0 0 0 0 0
          0 0 0 0 0 0
          0 0 0 0 0 0
          0 0 0 0 0 0
          0 0 0 0 0 0
          0 0 0 0 0 0
          0 0 0 0 0 0
          0 0 0 0 0 0
          0 0 0 0 0 0
          0 0 0 0 0 0
          0 0 0 0 0 0
          0 0 0 0 0 0
          0 0 0 0 0 0
          0 0 0 0 0 0
          0 0 0 0 0 0
          0 0 0 0 0 0
          0 0 0 0 0 0
          0 0 0 0 0 0
          0 0 0 0 0 0
          0 0 0 0 0 0
          0 0 0 0 0 0
          0 0 0 0 0 0
          0 0 0 0 0 0
          0 0 0 0 0 0
          0 0 0 0 0 0
          0 0 0 0 0 0
          0 0 0 0 0 0
          0 0 0 0 0 0
          0 0 0 0 0 0
          0 0 0 0 0 0
          0 0 0 0 0 0
          0 0 0 0 0 0
          0 0 0 0 0 0
          0 0 0 0 0 0
          0 0 0 0 0 0
          0 0 0 0 0 0
          0 0 0 0 0 0
          0 0 0 0 0 0
          0 0 0 0 0 0
          0 0 0 0 0 0
          0 0 0 0 0 0
          0 0 0 0 0 0
          0 0 0 0 0 0
          0 0 0 0 0 0
          0 0 0 0 0 0
          0 0 0 0 0 0
          0 0 0 0 0 0
          0 0 0 0 0 0
          0 0 0 0 0 0
          0 0 0 0 0 0
          0 0 0 0 0 0
          0 0 0 0 0 0
          0 0 0 0 0 0
          0 0
        </DataArray>
        <DataArray type="Float64" Name="markers_mustrefine" format="ascii" RangeMin="0" RangeMax="2">
          0 0 0 0 2 0
          0 2 1.75 0 0 1
          0.25 0 0 0 0 0
          0 2 2 1.5 1.75 2
          0 0 0 0 0 0
          0 0 0 0 0 0
          0 0 0 0 0 0
          0 0 0 0 2 0
          0 0 1 0 0 0
          0 0 0 0 0 0
          0 2 1.5 1 1 2
          2 2 2 2 2 2
          0 0 2 1.75 0 0.5
          0.5 0 1.25 0 2 2
          2 2 0.25 0 1.25 0.25
          2 0 0.25 0 0 0
          0 0 1.75 0.5 0.5 2
          2 2 2 2 2 2
          2 2 0 0 0 0
          0 0 0 0 0 0
          0.5 0.5 0 0 0 0
          0 0 0 0 0 0
          0 0 0 0 0 0
          0 0 0 0 0 0
          0 0 0 0 0 0
          0 0 0 0 0 0
          0 0 0 1 1 1
          2 0 1 1 2 1.6666666666666667
          2 2 2 2 2 2
          2 0 0 1 1 0
          1 0.75 0 1 0.6666666666666666 2
          2 1.75 2 0 0 0.5
          0.25 0 0 0 0 0
          0 1.5 1.25 1.3333333333333333 1.3333333333333333 0
          0.75 0 0.5 0 0.5 0
          1.75 1.6666666666666667 1.6666666666666667 2 2 2
          2 2 2 2 2 2
          2 2 2 2 2 2
          2 2 2 2 2 2
          2 2 2 2 2 2
          2 2 1.5 1.75 1.5 1.75
          1.25 2 2 2 2 2
          2 2 2 2 2 2
          2 2 2 2 2 2
          2 2 2 2 2 2
          2 2 2 2 2 2
          2 1 1 1.5 1.5 0
          1 1 1 1.5 1 2
          2 2 2 0 0 0.5
          0.5 0 0 0 0 0.5
          0 1.5 1.5 0.6666666666666666 1.6666666666666667 0.5
          1.25 0 1 0 0.75 0.5
          2 2 1.75 2 2 2
          2 2 2 2 2 2
          2 2 2 1.5 1.5 2
          1.5 2 2 2 2 2
          2 2 2 2 2 2
          1.5 1.75 0.5 1 1 1.5
          0.6666666666666666 2 1.75 2 2 2
          1.5 1.75 1.5 1.75 1.25 2
          2 0.5 1.25 0 0.75 0
          0.75 0.3333333333333333 2 1.75 1 2
          2 2 2 2 2 2
          1.75 1.3333333333333333 2 0 0.25 0
          0 0 0 0 1.25 1
          1 2 1.75 1.75 1.3333333333333333 2
          2 2 0.5 1 0 0.5
          0 0.5 0 1.75 1.3333333333333333 1.6666666666666667
          0.5 1 0 0.5 0 0.5
          0 1.75 1.6666666666666667 1.3333333333333333 2 2
          2 2 2 2 2 2
          2 2 2 2 2 2
          2 2 2 2 2 2
          2 2 2 2 2 2
          2 2 2 2 2 2
          2 2 2 2 2 2
          2 2 2 2 2 2
          2 2 2 2 2 2
          2 2 2 2 2 2
          2 2 2 2 2 2
          2 2 2 2 2 2
          2 2 2 2 2 2
          2 2 2 2 2 2
          2 2 2 2 2 2
          2 2 2 2 2 1.75
          2 1.6666666666666667 2 2 2 1.75
          1.6666666666666667 1.5 1.5 1 1 1
          1 0 0 0 0.5 0.5
          0 0 0 0 0.5 0
          1.5 1.5 0.6666666666666666 1.5 0 0.25
          0 0 0 0 0 1
          0.5 0.6666666666666666
        </DataArray>
        <DataArray type="Float64" Name="gradient_marker" format="ascii" RangeMin="1" RangeMax="1">
          1 1 1 1 1 1
          1 1 1 1 1 1
          1 1 1 1 1 1
          1 1 1 1 1 1
          1 1 1 1 1 1
          1 1 1 1 1 1
          1 1 1 1 1 1
          1 1 1 1 1 1
          1 1 1 1 1 1
          1 1 1 1 1 1
          1 1 1 1 1 1
          1 1 1 1 1 1
          1 1 1 1 1 1
          1 1 1 1 1 1
          1 1 1 1 1 1
          1 1 1 1 1 1
          1 1 1 1 1 1
          1 1 1 1 1 1
          1 1 1 1 1 1
          1 1 1 1 1 1
          1 1 1 1 1 1
          1 1 1 1 1 1
          1 1 1 1 1 1
          1 1 1 1 1 1
          1 1 1 1 1 1
          1 1 1 1 1 1
          1 1 1 1 1 1
          1 1 1 1 1 1
          1 1 1 1 1 1
          1 1 1 1 1 1
          1 1 1 1 1 1
          1 1 1 1 1 1
          1 1 1 1 1 1
          1 1 1 1 1 1
          1 1 1 1 1 1
          1 1 1 1 1 1
          1 1 1 1 1 1