<?xml version="1.0"?>
<VTKFile type="UnstructuredGrid" version="0.1" byte_order="LittleEndian" header_type="UInt32" compressor="vtkZLibDataCompressor">
  <UnstructuredGrid>
    <Piece NumberOfPoints="1595" NumberOfCells="1026">
      <PointData>
        <DataArray type="Int32" Name="libmesh_node_id" format="ascii" RangeMin="0" RangeMax="15808">
          0 1 2 3 4 5
          6 7 8 9 10 11
          12 13 14 15 16 17
          18 19 20 21 22 23
          24 25 26 27 28 29
          30 31 32 33 34 35
          36 37 38 39 40 41
          42 43 44 45 46 47
          48 49 50 51 52 53
          54 55 56 57 58 59
          60 61 62 63 64 65
          66 67 68 69 70 71
          72 73 74 75 76 77
          78 79 80 81 82 83
          112 113 114 115 116 117
          118 119 120 121 122 123
          124 125 126 127 128 129
          130 131 132 133 134 135
          136 137 138 139 140 141
          142 143 144 145 146 147
          148 149 150 151 152 153
          168 169 170 171 172 173
          174 175 176 177 178 179
          180 181 182 183 184 185
          186 187 188 189 190 191
          192 193 194 195 196 197
          198 199 200 201 202 203
          204 205 206 207 208 209
          224 225 226 227 228 229
          230 231 232 233 234 235
          236 237 238 239 240 241
          242 243 244 245 246 247
          248 249 250 251 252 253
          254 255 256 257 258 259
          260 261 262 263 264 265
          280 281 282 283 284 285
          286 287 288 289 290 291
          292 293 294 295 296 297
          298 299 300 308 309 310
          311 312 313 314 315 316
          317 318 319 320 321 322
          323 324 325 326 327 328
          336 337 338 339 340 341
          342 343 344 345 346 347
          348 349 350 351 352 353
          354 355 356 357 358 359
          360 361 362 363 364 365
          366 367 368 369 370 371
          372 373 374 375 376 377
          392 393 394 395 396 397
          398 399 400 401 402 403
          404 405 406 407 408 409
          410 411 412 420 421 422
          423 424 425 426 427 428
          429 430 431 432 433 434
          435 436 437 438 439 440
          448 449 450 451 452 453
          454 455 456 457 458 459
          460 461 462 463 464 465
          466 467 468 469 470 471
          472 473 474 475 476 477
          478 479 480 481 482 483
          484 485 486 487 488 489
          504 505 506 507 508 509
          510 511 512 513 514 515
          516 517 518 519 520 521
          522 523 524 532 533 534
          535 536 537 538 539 540
          541 542 543 544 545 546
          547 548 549 550 551 552
          560 561 562 563 564 565
          566 567 568 569 570 571
          572 573 574 575 576 577
          578 579 580 581 582 583
          584 585 586 587 588 589
          590 591 592 593 594 595
          596 597 598 599 600 601
          616 617 618 619 620 621
          622 623 624 625 626 627
          628 629 630 631 632 633
          634 635 636 644 645 646
          647 648 649 650 651 652
          653 654 655 656 657 658
          659 660 661 662 663 664
          672 673 674 675 676 677
          678 679 680 681 682 683
          684 685 686 687 688 689
          690 691 692 693 694 695
          696 697 698 699 700 701
          702 703 704 705 706 707
          708 709 710 711 712 713
          728 729 730 731 732 733
          734 735 736 737 738 739
          740 741 742 743 744 745
          746 747 748 756 757 758
          759 760 761 762 763 764
          765 766 767 768 769 770
          771 772 773 774 775 776
          784 785 786 787 788 789
          790 791 792 793 794 795
          796 797 798 799 800 801
          802 803 804 805 806 807
          808 809 810 811 812 813
          814 815 816 817 818 819
          820 821 822 823 824 825
          840 841 842 843 844 845
          846 847 848 849 850 851
          852 853 854 855 856 857
          858 859 860 868 869 870
          871 872 873 874 875 876
          877 878 879 880 881 882
          883 884 885 886 887 888
          896 897 898 899 900 901
          902 903 904 905 906 907
          908 909 910 911 912 913
          914 915 916 917 918 919
          920 921 922 923 924 925
          926 927 928 929 930 931
          932 933 934 935 936 937
          952 953 954 955 956 957
          958 959 960 961 962 963
          964 965 966 967 968 969
          970 971 972 980 981 982
          983 984 985 986 987 988
          989 990 991 992 993 994
          995 996 997 998 999 1000
          1008 1009 1010 1011 1012 1013
          1014 1015 1016 1017 1018 1019
          1020 1021 1022 1023 1024 1025
          1026 1027 1028 1029 1030 1031
          1032 1033 1034 1035 1036 1037
          1064 1065 1066 1067 1068 1069
          1070 1071 1072 1073 1074 1075
          1076 1077 1078 1092 1093 1094
          1095 1096 1097 1098 1099 1100
          1101 1102 1103 1104 1105 1106
          1120 1121 1122 1123 1124 1125
          1126 1127 1128 1129 1130 1131
          1132 1133 1134 1135 1136 1137
          1138 1139 1140 1141 1142 1143
          1144 1145 1146 1147 1176 1177
          1178 1179 1180 1181 1182 1183
          1184 1185 1186 1187 1188 1189
          1204 1205 1206 1207 1208 1209
          1210 1211 1212 1213 1214 1215
          1216 1217 1232 1233 1234 1235
          1236 1237 1238 1239 1240 1241
          1242 1243 1244 1245 1246 1247
          1248 1249 1250 1251 1252 1253
          1254 1255 1256 1257 1288 1289
          1290 1291 1292 1293 1294 1295
          1296 1297 1298 1299 1300 1316
          1317 1318 1319 1320 1321 1322
          1323 1324 1325 1326 1327 1328
          1344 1345 1346 1347 1348 1349
          1350 1351 1352 1353 1354 1355
          1356 1357 1358 1359 1360 1361
          1362 1363 1364 1365 1366 1367
          1368 1369 1400 1401 1402 1403
          1404 1405 1406 1407 1408 1409
          1410 1411 1412 1428 1429 1430
          1431 1432 1433 1434 1435 1436
          1437 1438 1439 1440 1456 1457
          1458 1459 1460 1461 1462 1463
          1464 1465 1466 1467 1468 1469
          1470 1471 1472 1473 1474 1475
          1476 1477 1478 1479 1480 1481
          1512 1513 1514 1515 1516 1517
          1518 1519 1520 1521 1522 1523
          1524 1540 1541 1542 1543 1544
          1545 1546 1547 1548 1549 1550
          1551 1552 1568 1569 1570 1571
          1572 1573 1574 1575 1576 1577
          1578 1579 1580 1581 1582 1583
          1584 1585 1586 1587 1588 1589
          1590 1591 1592 1593 1624 1625
          1626 1627 1628 1629 1630 1631
          1632 1633 1634 1635 1636 1652
          1653 1654 1655 1656 1657 1658
          1659 1660 1661 1662 1663 1664
          1680 1681 1682 1683 1684 1685
          1686 1687 1688 1689 1690 1691
          1692 1693 1694 1695 1696 1697
          1698 1699 1736 1737 1738 1739
          1740 1741 1742 1743 1744 1745
          1764 1765 1766 1767 1768 1769
          1770 1771 1772 1773 1792 1793
          1794 1795 1796 1797 1798 1799
          1800 1801 1802 1803 1804 1805
          1806 1807 1808 1809 1810 1811
          1848 1849 1850 1851 1852 1853
          1854 1855 1856 1857 1876 1877
          1878 1879 1880 1881 1882 1883
          1884 1885 1904 1905 1906 1907
          1908 1909 1910 1911 1912 1913
          1914 1915 1916 1917 1918 1919
          1920 1921 1922 1923 1960 1961
          1962 1963 1964 1965 1966 1967
          1968 1969 1988 1989 1990 1991
          1992 1993 1994 1995 1996 1997
          2016 2017 2018 2019 2020 2021
          2022 2023 2024 2025 2026 2027
          2028 2029 2030 2031 2032 2033
          2034 2035 2072 2073 2074 2075
          2076 2077 2078 2079 2080 2081
          2100 2101 2102 2103 2104 2105
          2106 2107 2108 2109 15405 15406
          15407 15408 15409 15410 15411 15412
          15413 15414 15415 15416 15417 15418
          15419 15420 15421 15422 15423 15424
          15425 15426 15427 15428 15429 15430
          15431 15432 15433 15434 15435 15436
          15437 15438 15439 15440 15441 15442
          15443 15444 15445 15446 15447 15448
          15449 15450 15451 15452 15453 15454
          15455 15456 15457 15458 15459 15460
          15461 15462 15463 15464 15465 15466
          15467 15468 15469 15470 15471 15472
          15473 15474 15475 15476 15477 15478
          15479 15480 15481 15482 15483 15484
          15485 15486 15487 15488 15489 15490
          15491 15492 15493 15494 15495 15496
          15497 15498 15499 15500 15501 15502
          15503 15504 15505 15506 15507 15508
          15509 15510 15511 15512 15513 15514
          15515 15516 15517 15518 15519 15520
          15521 15522 15523 15524 15525 15526
          15527 15528 15529 15530 15531 15532
          15533 15534 15535 15560 15561 15562
          15563 15564 15565 15566 15567 15568
          15569 15570 15571 15572 15573 15574
          15575 15576 15577 15578 15579 15580
          15581 15582 15583 15584 15585 15586
          15587 15588 15589 15590 15591 15592
          15593 15594 15595 15596 15597 15598
          15599 15600 15601 15602 15603 15604
          15605 15606 15607 15608 15609 15610
          15611 15612 15613 15614 15615 15616
          15617 15618 15619 15620 15621 15622
          15623 15624 15625 15626 15627 15628
          15629 15630 15631 15632 15633 15634
          15635 15636 15637 15638 15639 15640
          15641 15642 15643 15644 15645 15646
          15647 15648 15649 15650 15651 15652
          15653 15715 15716 15717 15718 15719
          15720 15721 15722 15723 15724 15725
          15726 15727 15728 15729 15730 15731
          15732 15733 15734 15735 15736 15737
          15738 15739 15740 15741 15742 15743
          15744 15745 15746 15747 15748 15749
          15750 15751 15752 15753 15754 15755
          15756 15757 15758 15759 15760 15761
          15762 15763 15764 15765 15766 15767
          15768 15769 15770 15771 15772 15773
          15774 15775 15776 15777 15778 15779
          15780 15781 15782 15783 15784 15785
          15786 15787 15788 15789 15790 15791
          15792 15793 15794 15795 15796 15797
          15798 15799 15800 15801 15802 15803
          15804 15805 15806 15807 15808 84
          85 86 87 154 155 210
          211 266 267 301 329 378
          379 413 441 490 491 525
          553 602 603 637 665 714
          715 749 777 826 827 861
          889 938 939 973 1001
        </DataArray>
        <DataArray type="Float64" Name="bounds" format="ascii" RangeMin="0" RangeMax="0">
          0 0 0 0 0 0
          0 0 0 0 0 0
          0 0 0 0 0 0
          0 0 0 0 0 0
          0 0 0 0 0 0
          0 0 0 0 0 0
          0 0 0 0 0 0
          0 0 0 0 0 0
          0 0 0 0 0 0
          0 0 0 0 0 0
          0 0 0 0 0 0
          0 0 0 0 0 0
          0 0 0 0 0 0
          0 0 0 0 0 0
          0 0 0 0 0 0
          0 0 0 0 0 0
          0 0 0 0 0 0
          0 0 0 0 0 0
          0 0 0 0 0 0
          0 0 0 0 0 0
          0 0 0 0 0 0
          0 0 0 0 0 0
          0 0 0 0 0 0
          0 0 0 0 0 0
          0 0 0 0 0 0
          0 0 0 0 0 0
          0 0 0 0 0 0
          0 0 0 0 0 0
          0 0 0 0 0 0
          0 0 0 0 0 0
          0 0 0 0 0 0
          0 0 0 0 0 0
          0 0 0 0 0 0
          0 0 0 0 0 0
          0 0 0 0 0 0
          0 0 0 0 0 0
          0 0 0 0 0 0
          0 0 0 0 0 0
          0 0 0 0 0 0
          0 0 0 0 0 0
          0 0 0 0 0 0
          0 0 0 0 0 0
          0 0 0 0 0 0
          0 0 0 0 0 0
          0 0 0 0 0 0
          0 0 0 0 0 0
          0 0 0 0 0 0
          0 0 0 0 0 0
          0 0 0 0 0 0
          0 0 0 0 0 0
          0 0 0 0 0 0
          0 0 0 0 0 0
          0 0 0 0 0 0
          0 0 0 0 0 0
          0 0 0 0 0 0
          0 0 0 0 0 0
          0 0 0 0 0 0
          0 0 0 0 0 0
          0 0 0 0 0 0
          0 0 0 0 0 0
          0 0 0 0 0 0
          0 0 0 0 0 0
          0 0 0 0 0 0
          0 0 0 0 0 0
          0 0 0 0 0 0
          0 0 0 0 0 0
          0 0 0 0 0 0
          0 0 0 0 0 0
          0 0 0 0 0 0
          0 0 0 0 0 0
          0 0 0 0 0 0
          0 0 0 0 0 0
          0 0 0 0 0 0
          0 0 0 0 0 0
          0 0 0 0 0 0
          0 0 0 0 0 0
          0 0 0 0 0 0
          0 0 0 0 0 0
          0 0 0 0 0 0
          0 0 0 0 0 0
          0 0 0 0 0 0
          0 0 0 0 0 0
          0 0 0 0 0 0
          0 0 0 0 0 0
          0 0 0 0 0 0
          0 0 0 0 0 0
          0 0 0 0 0 0
          0 0 0 0 0 0
          0 0 0 0 0 0
          0 0 0 0 0 0
          0 0 0 0 0 0
          0 0 0 0 0 0
          0 0 0 0 0 0
          0 0 0 0 0 0
          0 0 0 0 0 0
          0 0 0 0 0 0
          0 0 0 0 0 0
          0 0 0 0 0 0
          0 0 0 0 0 0
          0 0 0 0 0 0
          0 0 0 0 0 0
          0 0 0 0 0 0
          0 0 0 0 0 0
          0 0 0 0 0 0
          0 0 0 0 0 0
          0 0 0 0 0 0
          0 0 0 0 0 0
          0 0 0 0 0 0
          0 0 0 0 0 0
          0 0 0 0 0 0
          0 0 0 0 0 0
          0 0 0 0 0 0
          0 0 0 0 0 0
          0 0 0 0 0 0
          0 0 0 0 0 0
          0 0 0 0 0 0
          0 0 0 0 0 0
          0 0 0 0 0 0
          0 0 0 0 0 0
          0 0 0 0 0 0
          0 0 0 0 0 0
          0 0 0 0 0 0
          0 0 0 0 0 0
          0 0 0 0 0 0
          0 0 0 0 0 0
          0 0 0 0 0 0
          0 0 0 0 0 0
          0 0 0 0 0 0
          0 0 0 0 0 0
          0 0 0 0 0 0
          0 0 0 0 0 0
          0 0 0 0 0 0
          0 0 0 0 0 0
          0 0 0 0 0 0
          0 0 0 0 0 0
          0 0 0 0 0 0
          0 0 0 0 0 0
          0 0 0 0 0 0
          0 0 0 0 0 0
          0 0 0 0 0 0
          0 0 0 0 0 0
          0 0 0 0 0 0
          0 0 0 0 0 0
          0 0 0 0 0 0
          0 0 0 0 0 0
          0 0 0 0 0 0
          0 0 0 0 0 0
          0 0 0 0 0 0
          0 0 0 0 0 0
          0 0 0 0 0 0
          0 0 0 0 0 0
          0 0 0 0 0 0
          0 0 0 0 0 0
          0 0 0 0 0 0
          0 0 0 0 0 0
          0 0 0 0 0 0
          0 0 0 0 0 0
          0 0 0 0 0 0
          0 0 0 0 0 0
          0 0 0 0 0 0
          0 0 0 0 0 0
          0 0 0 0 0 0
          0 0 0 0 0 0
          0 0 0 0 0 0
          0 0 0 0 0 0
          0 0 0 0 0 0
          0 0 0 0 0 0
          0 0 0 0 0 0
          0 0 0 0 0 0
          0 0 0 0 0 0
          0 0 0 0 0 0
          0 0 0 0 0 0
          0 0 0 0 0 0
          0 0 0 0 0 0
          0 0 0 0 0 0
          0 0 0 0 0 0
          0 0 0 0 0 0
          0 0 0 0 0 0
          0 0 0 0 0 0
          0 0 0 0 0 0
          0 0 0 0 0 0
          0 0 0 0 0 0
          0 0 0 0 0 0
          0 0 0 0 0 0
          0 0 0 0 0 0
          0 0 0 0 0 0
          0 0 0 0 0 0
          0 0 0 0 0 0
          0 0 0 0 0 0
          0 0 0 0 0 0
          0 0 0 0 0 0
          0 0 0 0 0 0
          0 0 0 0 0 0
          0 0 0 0 0 0
          0 0 0 0 0 0
          0 0 0 0 0 0
          0 0 0 0 0 0
          0 0 0 0 0 0
          0 0 0 0 0 0
          0 0 0 0 0 0
          0 0 0 0 0 0
          0 0 0 0 0 0
          0 0 0 0 0 0
          0 0 0 0 0 0
          0 0 0 0 0 0
          0 0 0 0 0 0
          0 0 0 0 0 0
          0 0 0 0 0 0
          0 0 0 0 0 0
          0 0 0 0 0 0
          0 0 0 0 0 0
          0 0 0 0 0 0
          0 0 0 0 0 0
          0 0 0 0 0 0
          0 0 0 0 0 0
          0 0 0 0 0 0
          0 0 0 0 0 0
          0 0 0 0 0 0
          0 0 0 0 0 0
          0 0 0 0 0 0
          0 0 0 0 0 0
          0 0 0 0 0 0
          0 0 0 0 0 0
          0 0 0 0 0 0
          0 0 0 0 0 0
          0 0 0 0 0 0
          0 0 0 0 0 0
          0 0 0 0 0 0
          0 0 0 0 0 0
          0 0 0 0 0 0
          0 0 0 0 0 0
          0 0 0 0 0 0
          0 0 0 0 0 0
          0 0 0 0 0 0
          0 0 0 0 0 0
          0 0 0 0 0 0
          0 0 0 0 0 0
          0 0 0 0 0 0
          0 0 0 0 0 0
          0 0 0 0 0 0
          0 0 0 0 0 0
          0 0 0 0 0 0
          0 0 0 0 0 0
          0 0 0 0 0 0
          0 0 0 0 0 0
          0 0 0 0 0 0
          0 0 0 0 0 0
          0 0 0 0 0 0
          0 0 0 0 0 0
          0 0 0 0 0 0
          0 0 0 0 0 0
          0 0 0 0 0 0
          0 0 0 0 0 0
          0 0 0 0 0 0
          0 0 0 0 0 0
          0 0 0 0 0 0
          0 0 0 0 0 0
          0 0 0 0 0 0
          0 0 0 0 0 0
          0 0 0 0 0 0
          0 0 0 0 0 0
          0 0 0 0 0 0
          0 0 0 0 0 0
          0 0 0 0 0 0
          0 0 0 0 0 0
          0 0 0 0 0
        </DataArray>
        <DataArray type="Float64" Name="gradient_error" format="ascii" RangeMin="7.275755602658921e-16" RangeMax="3.285016273495219e-7">
          7.863389430137399e-16 7.852466283155886e-16 7.845135792338655e-16 7.851481114230254e-16 7.781955520161413e-16 7.805704809322228e-16
          7.809554343728852e-16 7.795664612533134e-16 7.825570458218094e-16 7.829361354866219e-16 7.862642928490514e-16 7.843154844511841e-16
          7.793381825568264e-16 7.810262303293945e-16 7.926658812016161e-16 7.881386168940062e-16 7.765672454995503e-16 7.793567973502039e-16
          7.97511273095667e-16 7.910952165335177e-16 7.754549525236741e-16 7.786135650552662e-16 7.983398088412166e-16 7.917938940299247e-16
          7.774120871312104e-16 7.795758045718912e-16 7.927051360856758e-16 7.8888506139447365e-16 7.832303455269439e-16 7.826775056381438e-16
          7.800063402481151e-16 7.820334819574213e-16 7.911369341226296e-16 7.869758513334356e-16 7.647427512321929e-16 7.736507160277223e-16
          7.929208921545918e-16 7.881338647585136e-16 7.62877932681597e-16 7.722000362169586e-16 7.821930748808786e-16 7.827151586497193e-16
          7.864808580590122e-16 7.841646309901651e-16 7.755477701439905e-16 7.792157354089791e-16 8.008908306038412e-16 7.917625203825461e-16
          7.819607775369272e-16 7.823831426392731e-16 7.863086165632066e-16 7.845581863247346e-16 7.846291896586812e-16 7.837088099588668e-16
          7.791304575505233e-16 7.809842409501342e-16 7.828564299383153e-16 7.828257219435084e-16 7.825711957004137e-16 7.826974662690604e-16
          7.829723289509507e-16 7.829038620142797e-16 7.824244478463034e-16 7.825847452006571e-16 7.828056476097732e-16 7.827936989441827e-16
          7.828040579600093e-16 7.82830470124531e-16 7.826780759974386e-16 7.827189447962647e-16 7.830727177967635e-16 7.8298592433370695e-16
          7.8279763143585785e-16 7.828032259830079e-16 7.82820368540168e-16 7.828072694194835e-16 7.828356797245e-16 7.828263539370059e-16
          7.82736705806285e-16 7.82756037923558e-16 7.82798918363359e-16 7.828003199415701e-16 7.828127112966445e-16 7.828102865682127e-16
          7.8328488845836235e-16 7.833625035264545e-16 7.820519280084917e-16 7.818722395302492e-16 7.830758741841264e-16 7.825189801927796e-16
          7.828005738459367e-16 7.830958059383836e-16 7.825391028759071e-16 7.835935533154643e-16 7.823650868102282e-16 7.838645461911001e-16
          7.823417929419107e-16 7.838010650683025e-16 7.825009005289528e-16 7.833772366581155e-16 7.827930794449974e-16 7.82736675071343e-16
          7.830208362996759e-16 7.822903380252341e-16 7.829785855474111e-16 7.824178468195011e-16 7.828345524170968e-16 7.827377035029585e-16
          7.828055479903098e-16 7.828029131101045e-16 7.827976004082271e-16 7.828174910699949e-16 7.827986497907997e-16 7.828149538574832e-16
          7.828167148192402e-16 7.827794137263864e-16 7.827965974628338e-16 7.828213142716762e-16 7.82787467490941e-16 7.828388323287681e-16
          7.828058202548648e-16 7.827996424273754e-16 7.828086909145906e-16 7.827931135923231e-16 7.828028573090668e-16 7.82805667059313e-16
          7.827892467645822e-16 7.827677272205982e-16 7.827634682034358e-16 7.82807108570013e-16 7.828365232168181e-16 7.826712843322426e-16
          7.828868695899108e-16 7.82580259290371e-16 7.829318565509569e-16 7.825079466595602e-16 7.829579960335983e-16 7.824811131635676e-16
          7.829440638712495e-16 7.825371434333332e-16 7.828771353085616e-16 7.826938496495036e-16 7.827713903457533e-16 7.829146693194342e-16
          7.8269483523691625e-16 7.830585362981483e-16 7.827199286762621e-16 7.829872897176843e-16 7.827854041602259e-16 7.82841196844666e-16
          7.828055882390006e-16 7.827980701339465e-16 7.828067705574018e-16 7.827969577902448e-16 7.828022856328981e-16 7.828061708772594e-16
          7.827980345608719e-16 7.8281378489776215e-16 7.828114446470755e-16 7.827857462542996e-16 7.828151213867913e-16 7.827785337868861e-16
          7.828028199795717e-16 7.828051145559519e-16 7.828003536796693e-16 7.828108571438151e-16 7.828039930983523e-16 7.828034722788451e-16
          7.844671595120186e-16 7.761544930645759e-16 7.804511463373187e-16 7.853845283857788e-16 7.572513277789176e-16 7.69125269398163e-16
          7.38493607545624e-16 7.577054611503683e-16 7.275755602658921e-16 7.507926534461552e-16 7.312413147769622e-16 7.522115120899135e-16
          7.575767438261406e-16 7.662711694126168e-16 8.103708709794933e-16 7.948629784993891e-16 8.705380267237785e-16 8.278178630109505e-16
          8.727763377840579e-16 8.306899677258741e-16 7.938354138550777e-16 7.90313390311696e-16 7.572633946193622e-16 7.703754011483825e-16
          7.93729856572263e-16 7.882415539138674e-16 7.984168014197406e-16 7.905404645326247e-16 7.842728420504267e-16 7.834961746177832e-16
          7.843625733166361e-16 7.836733314509221e-16 7.827954883619897e-16 7.826847758412555e-16 7.817858175991915e-16 7.821124426208973e-16
          7.82726583693258e-16 7.82782229849798e-16 7.830506954820797e-16 7.829814746486176e-16 7.827773423825723e-16 7.827850559432437e-16
          7.840001921939566e-16 7.847032218622594e-16 7.822754820981188e-16 7.803649818275891e-16 7.789900075077154e-16 7.785610291744432e-16
          7.792902740347653e-16 7.81164381954323e-16 7.836438349052146e-16 7.851816452612324e-16 7.844503135469318e-16 7.830852558442087e-16
          7.827985869897402e-16 7.827519417930242e-16 7.827623024590369e-16 7.828829272432383e-16 7.827290084733899e-16 7.826715155486862e-16
          7.828198478455568e-16 7.82845420246642e-16 7.827989807988694e-16 7.832525847778518e-16 7.8310454646498e-16 7.835517531788292e-16
          7.838126489000653e-16 7.839702683890125e-16 7.839403489460215e-16 7.836149530704374e-16 7.829736778893609e-16 7.821899705123063e-16
          7.817596928547747e-16 7.821092603255494e-16 7.826831040110146e-16 7.828439227240088e-16 7.828397559405393e-16 7.828050977329343e-16
          7.827817649012684e-16 7.828839536262587e-16 7.829039634547693e-16 7.828018196847752e-16 7.827785866781288e-16 7.828051920938237e-16
          8.491059509879126e-16 8.838958251600512e-16 8.38140580476582e-16 8.17814041944245e-16 9.600930673728179e-16 8.833037946330237e-16
          1.0277696704268465e-15 9.245100279102922e-16 1.0492169807762433e-15 9.394226573814077e-16 9.964397783244783e-16 9.119525127635185e-16
          8.734614255698282e-16 8.436196931213707e-16 8.090538544369237e-16 8.006405322675404e-16 9.179635937209447e-16 8.446195708496688e-16
          9.65417819006212e-16 8.634426760873129e-16 1.1038408442473023e-15 9.36472959036373e-16 1.2543603328031005e-15 1.0176507352476993e-15
          9.81224111213585e-16 8.823381168027409e-16 7.611810485361018e-16 7.723752008805798e-16 7.751498500776097e-16 7.792110746501884e-16
          7.762435700509791e-16 7.792678432555039e-16 7.829816651390711e-16 7.834450790075413e-16 7.869805701499302e-16 7.85677998428801e-16
          7.832439664056869e-16 7.829886021252091e-16 7.818528977501478e-16 7.821169023320812e-16 7.828874712400711e-16 7.828618382986749e-16
          7.86343722321333e-16 7.836667110318133e-16 7.929270874641614e-16 7.999512667544074e-16 8.040424854073661e-16 8.032314868654066e-16
          7.971833274754664e-16 7.877378244116103e-16 7.787751373743597e-16 7.745385098429889e-16 7.774202776559752e-16 7.820877574054464e-16
          7.830179945367239e-16 7.830961664551284e-16 7.830161604979062e-16 7.825630079072517e-16 7.831794870447092e-16 7.833868514921397e-16
          7.827708105824301e-16 7.82643088200065e-16 7.828190504928978e-16 7.803021088495531e-16 7.808112891630493e-16 7.7933965303509315e-16
          7.786521481150768e-16 7.7845663682815995e-16 7.789977265282548e-16 7.805886942780198e-16 7.832484387250637e-16 7.862747267703264e-16
          7.87609486517564e-16 7.8573548148650745e-16 7.832343771185944e-16 7.825838666815512e-16 7.82622979685199e-16 7.827600217730454e-16
          7.828338993544747e-16 7.8245048121340675e-16 7.823982762766077e-16 7.828083833201287e-16 7.829052694861157e-16 7.828018956285171e-16
          8.983256940408372e-16 1.0794595160700944e-15 8.948096670016451e-16 8.043273325380482e-16 1.4758369927407837e-15 1.0960593972346162e-15
          1.797448423568297e-15 1.264966510575241e-15 1.8099116286567844e-15 1.275723240509686e-15 1.3999471489260711e-15 1.0665443951094858e-15
          1.2457108805136742e-15 9.912938129539075e-16 2.0469436133897446e-15 1.421536645854949e-15 3.1440165665913036e-15 2.0201574322160197e-15
          2.9920126501253518e-15 1.9665312508892488e-15 2.8964580779824402e-15 1.8864974523475687e-15 3.2808049621281892e-15 2.0401433621100336e-15
          2.2929474441708417e-15 1.5372654045396662e-15 1.1353046092146676e-15 9.576888592519344e-16 8.290151096939236e-16 8.049704320882801e-16
          8.142070912771666e-16 7.991691300205984e-16 7.840746256745229e-16 7.813097832196666e-16 7.673187732008302e-16 7.723671041741336e-16
          7.8167117396244e-16 7.826154727430906e-16 7.865819420650357e-16 7.85585976926574e-16 7.825614258868464e-16 7.826439394233861e-16
          7.519063399770829e-16 7.51157272441605e-16 7.564779479942389e-16 7.654200607331895e-16 7.696696438623203e-16 7.636930690660717e-16
          7.620080375949477e-16 7.870036519434947e-16 8.330586171318188e-16 8.540944988871346e-16 8.251587983830659e-16 7.911705081558956e-16
          7.832753749542963e-16 7.821293372155132e-16 7.821653475948298e-16 7.835826795281286e-16 7.815590558951418e-16 7.810518582390399e-16
          7.832302284667992e-16 7.835033815445877e-16 7.827640856479802e-16 7.9365286202097e-16 7.919855738479508e-16 7.96674094260029e-16
          7.983555238841939e-16 7.97804435362053e-16 7.942444968392426e-16 7.871393297957549e-16 7.778776255668359e-16 7.698189364229021e-16
          7.671391461211231e-16 7.737807700534349e-16 7.828592542199134e-16 7.849673850001013e-16 7.841855651418246e-16 7.834049407070229e-16
          7.830341902922269e-16 7.845731710254734e-16 7.846882813306425e-16 7.829006854098572e-16 7.82416751301063e-16 7.828017183360348e-16
          5.067914387748086e-15 5.648600447161224e-15 3.7355738649168605e-15 3.404804896260402e-15 6.7652505590970555e-15 4.375729992877349e-15
          7.307807808966655e-15 4.691767917106539e-15 6.52518342777115e-15 4.246889655955476e-15 4.294665571898211e-15 2.96107338827147e-15
          3.871188521502102e-15 2.5199890120817463e-15 7.929699665283853e-15 4.479150525594789e-15 1.2445620901600586e-14 6.915317671291673e-15
          1.1112446788602707e-14 6.3296285618782476e-15 1.1048329644217153e-14 6.1124024792661756e-15 1.2726517963517615e-14 6.811833299759608e-15
          7.791298086864384e-15 4.319585182416433e-15 2.4208325927120697e-15 1.6213051486819955e-15 8.190274222897265e-16 8.123884449085275e-16
          7.4162920976768e-16 7.637695310304616e-16 8.227638630876792e-16 8.192956963762423e-16 8.639018790217326e-16 8.432244073157273e-16
          8.010802637215574e-16 7.950231825168117e-16 7.694161934049034e-16 7.733255258506207e-16 7.834308681175857e-16 7.831712804948104e-16
          1.289234996842847e-15 1.2541155123977309e-15 1.3630458629247155e-15 1.405636898496774e-15 1.3554523585090015e-15 1.193584599480165e-15
          9.804817408972139e-16 9.355171337408993e-16 1.139660623105647e-15 1.2218504084415998e-15 1.0102550877144578e-15 8.498059726304831e-16
          8.185753908468152e-16 8.025161021907277e-16 7.942285277031408e-16 7.839140129679797e-16 7.967597297900944e-16 8.00234058283963e-16
          7.861695200460895e-16 7.808371314314072e-16 7.828804114573857e-16 7.559227110131963e-16 7.665356200227437e-16 7.398822991917899e-16
          7.355457717471247e-16 7.423088328782004e-16 7.596879943156014e-16 7.92173979133038e-16 8.424328815760737e-16 8.943068052285345e-16
          8.968904817294119e-16 8.440348611137189e-16 8.024633092593646e-16 7.892785037251498e-16 7.832544997295347e-16 7.827075878789529e-16
          7.819181736427166e-16 7.776919299153834e-16 7.77921180958204e-16 7.833729387801126e-16 7.844394045664762e-16 7.828491300427366e-16
          2.6129247768371702e-14 2.7436202400938653e-14 1.753234205755938e-14 1.6788547248524898e-14 2.926083328008239e-14 1.8557748272429712e-14
          2.8027345697235418e-14 1.77791349233505e-14 2.1711033791754482e-14 1.399866146062141e-14 1.3775567048069675e-14 8.953909540872406e-15
          1.8309906873846557e-14 1.0430051319397291e-14 3.711950999794626e-14 2.0289304994686154e-14 5.1405843500646726e-14 2.8486732948915086e-14
          4.3402346370350414e-14 2.4574514951449926e-14 4.4461622597654955e-14 2.4030247148597346e-14 5.144859558290111e-14 2.6682901222362545e-14
          3.025319957433183e-14 1.581875058701492e-14 8.809580914797016e-15 4.942847537323143e-15 2.5562395290095374e-15 1.7465943205698771e-15
          1.7681300492863731e-15 1.3021292566398034e-15 1.2457879730351373e-15 1.0807587241693473e-15 9.839233127560731e-16 9.655271050538942e-16
          9.586354810019117e-16 9.220933244097241e-16 8.474106636410985e-16 8.347007946991028e-16 7.816591461999191e-16 7.824198472686619e-16
          4.324819103153365e-15 4.261419825867921e-15 4.396642291782042e-15 4.213395246185033e-15 3.5713178358258666e-15 2.463254664561298e-15
          1.664768817651508e-15 2.2066045064502644e-15 3.390425939641951e-15 3.444015736311826e-15 2.2982464169498217e-15 1.5091390995622765e-15
          1.2275480944521597e-15 1.0082401336605836e-15 9.00229799299212e-16 8.307195816016283e-16 8.857922902384966e-16 8.986754569050873e-16