<?xml version="1.0"?>
<VTKFile type="UnstructuredGrid" version="0.1" byte_order="LittleEndian" header_type="UInt32" compressor="vtkZLibDataCompressor">
  <UnstructuredGrid>
    <Piece NumberOfPoints="1438" NumberOfCells="1037">
      <PointData>
        <DataArray type="Int32" Name="libmesh_node_id" format="ascii" RangeMin="2191" RangeMax="12924">
          2191 2199 2403 2404 2410 3215
          3216 3217 3220 3223 3257 3258
          3260 3261 3263 3279 3280 3281
          3282 3286 3287 3289 3290 3292
          3317 3318 3321 3323 3324 3326
          4627 4628 4629 4630 4631 4632
          4633 4634 4635 4636 4637 4638
          4639 4640 4651 4652 4653 4654
          4655 4656 4657 4658 4659 4660
          4819 4820 4821 4822 4823 4824
          4825 4826 4827 4828 4836 4837
          4838 4839 4840 4841 4842 4843
          4844 4845 4846 4849 4850 4851
          4853 4854 4855 4856 4857 4858
          4859 4860 4861 4862 4870 4871
          4872 4873 4874 4875 4876 4989
          4990 4991 4992 4993 4994 4995
          4996 4997 4998 4999 5000 5001
          5002 5003 5004 5005 5006 5010
          5011 5013 5014 5016 5017 5018
          5019 5020 5021 5022 5023 5024
          5025 5026 5027 5028 5031 5032
          5034 5036 5105 5106 5107 5108
          5109 5110 5111 5112 5113 5114
          5115 5116 5119 5121 5122 5124
          5125 5126 5127 5128 5129 5130
          5131 5132 5134 5136 5138 5139
          5140 5141 5142 5143 5144 5145
          5146 5147 5148 5149 5150 5153
          5155 5156 5158 5159 5160 5161
          5162 5163 5164 5165 5166 5168
          5170 5172 6016 6017 6018 6019
          6020 6021 6022 6023 6024 6025
          8954 8955 8956 8957 8958 8959
          8960 8961 8962 8963 8964 8965
          8966 8967 8968 8969 8970 8971
          8972 8973 8974 8975 8976 8977
          8978 8979 8980 8981 8982 8983
          8984 8985 8986 8987 8988 8989
          8990 8991 8992 8993 8994 8995
          8996 8997 8998 8999 9000 9001
          9002 9003 9004 9005 9006 9007
          9008 9009 9010 9011 9012 9013
          9014 9015 9016 9017 9018 9019
          9020 9021 9022 9023 9024 9025
          9026 9027 9028 9083 9084 9085
          9086 9087 9088 9089 9090 9091
          9092 9093 9094 9095 9096 9097
          9098 9099 9100 9101 9102 9103
          9104 9105 9106 9107 9108 9109
          9110 9111 9112 9113 9114 9115
          9116 9117 9118 9119 9120 9121
          9122 9917 9918 9919 9920 9921
          9922 9923 9924 9925 9926 9927
          9928 9929 9930 9931 9932 9933
          9934 9935 9936 9937 9938 9939
          9940 9941 9942 9943 9944 9945
          9946 9947 9948 9949 9950 9951
          9952 9953 9954 9955 9956 9957
          9958 9959 9960 9961 9962 9963
          9964 9965 9966 9967 9968 9969
          9970 9971 9972 9973 9974 9975
          9976 9977 9978 9979 9980 9981
          9982 9983 9984 10041 10042 10043
          10044 10045 10046 10047 10048 10049
          10050 10051 10052 10053 10054 10055
          10056 10057 10058 10059 10060 10061
          10062 10063 10064 10065 10066 10067
          10068 10069 10070 10071 10072 10073
          10074 10075 10076 10077 10078 10079
          10080 10081 10082 10083 10084 10085
          10086 10087 10088 10089 10090 10091
          10092 10093 10094 10095 10096 10103
          10104 10105 10106 10113 10114 10115
          10116 10121 10122 10128 10129 10131
          10132 10133 10134 10135 10136 10137
          10138 10139 10140 10141 10142 10143
          10144 10145 10146 10147 10148 10149
          10150 10151 10152 10155 10156 10158
          10159 10162 10163 10165 10166 10167
          10168 10169 10170 10171 10172 10173
          10174 10175 10176 10177 10178 10179
          10180 10181 10182 10183 10184 10185
          10186 10187 10188 10189 10190 10191
          10192 10193 10194 10195 10196 10197
          10198 10199 10200 10201 10202 10203
          10204 10205 10206 10207 10208 10209
          10210 10211 10212 10213 10214 10215
          10216 10217 10218 10219 10220 10221
          10222 10223 10224 10225 10226 10227
          10228 10229 10230 10231 10232 10289
          10290 10291 10292 10293 10294 10295
          10296 10297 10298 10299 10300 10301
          10302 10303 10304 10305 10306 10307
          10308 10309 10310 10311 10312 10313
          10314 10315 10316 10317 10318 10319
          10320 10321 10322 10323 10324 10325
          10326 10327 10328 10329 10330 10331
          10332 10333 10334 10335 10336 10337
          10338 10339 10340 10341 10342 10343
          10344 10889 10890 10893 10894 10896
          10897 10900 10901 11101 11105 11107
          11108 11111 11112 11129 11133 11135
          11136 11139 11140 11268 11269 11270
          11271 11272 11273 11274 11275 11276
          11277 11278 11279 11280 11281 11282
          11283 11284 11285 11286 11287 11288
          11289 11290 11291 11292 11293 11294
          11295 11296 11297 11298 11299 11300
          11301 11302 11303 11304 11305 11306
          11307 11308 11309 11310 11311 11312
          11313 11314 11315 11316 11317 11318
          11319 11320 11321 11322 11323 11324
          11325 11326 11327 11328 11329 11330
          11331 11332 11333 11337 11338 11340
          11341 11343 11344 11345 11346 11347
          11348 11349 11350 11351 11352 11353
          11354 11355 11358 11359 11361 11363
          11364 11365 11366 11367 11368 11369
          11370 11371 11372 11373 11374 11375
          11376 11377 11378 11379 11380 11381
          11382 11383 11384 11385 11386 11387
          11388 11389 11390 11391 11392 11393
          11394 11395 11396 11397 11398 11399
          11400 11401 11402 11403 11404 11405
          11406 11407 11408 11409 11410 11411
          11412 11413 11414 11415 11418 11419
          11421 11423 11424 11425 11426 11427
          11428 11429 11430 11431 11432 11433
          11434 11435 11438 11439 11441 11640
          11641 11642 11643 11644 11645 11646
          11647 11648 11649 11650 11651 11652
          11653 11654 11655 11656 11657 11658
          11659 11660 11661 11662 11663 11664
          11665 11666 11667 11668 11669 11670
          11671 11672 11673 11674 11675 11676
          11677 11678 11679 11680 11681 11682
          11683 11684 11685 11686 11687 11688
          11689 11690 11691 11692 11693 11694
          11695 11696 11697 11698 11699 11700
          11701 11702 11703 11704 11705 11706
          11707 11708 11709 11710 11711 11712
          11713 11714 11715 11716 11717 11718
          11719 11722 11728 11729 11730 11731
          11732 11733 11734 11735 11737 11742
          11743 11744 11745 11746 11747 11748
          11749 11750 11751 11762 11763 11764
          11765 11766 11767 11768 11776 11777
          11778 11779 11780 11781 11782 11783
          11784 11785 11786 11787 11788 11789
          11790 11791 11792 11793 11794 11795
          11796 11797 11798 11799 11800 11801
          11802 11803 11804 11805 11806 11807
          11808 11809 11810 11811 11812 11813
          11814 11815 11816 11817 11818 11819
          11820 11821 11822 11823 11824 11825
          11826 11827 11828 11829 11830 11831
          11832 11833 11834 11835 11836 11837
          11838 11839 11841 11846 11847 11848
          11849 11850 11851 11852 11853 11860
          11861 11862 11863 11864 11865 11866
          11874 11875 11876 11877 11878 11879
          11880 11888 11889 11890 11891 11892
          11893 11894 11895 11896 11897 11898
          11899 11900 11901 11902 11903 11904
          11905 11906 11907 11908 11909 11910
          11911 11912 11913 11914 11915 11916
          11917 11918 11919 11920 11921 11922
          11923 11924 11925 11926 11927 11928
          11929 11930 11931 11932 11933 11934
          11935 11936 11937 11938 11939 11940
          11941 11942 11943 11944 11945 11946
          11947 11948 11949 11950 11951 11952
          11953 11954 11955 11956 11957 11958
          11959 11960 11961 11962 11963 11964
          11965 11976 11977 11978 11979 11980
          11981 11982 11990 11991 11992 11993
          11994 11995 11996 11997 11998 11999
          12010 12011 12012 12013 12014 12015
          12016 12024 12025 12026 12027 12028
          12029 12030 12031 12032 12033 12034
          12035 12036 12037 12038 12039 12040
          12041 12042 12043 12044 12045 12046
          12047 12048 12049 12050 12051 12052
          12053 12054 12055 12056 12057 12058
          12059 12060 12061 12062 12063 12064
          12065 12066 12067 12068 12069 12070
          12071 12072 12073 12074 12075 12076
          12077 12078 12079 12080 12081 12082
          12083 12084 12085 12086 12094 12095
          12096 12097 12098 12099 12100 12108
          12109 12110 12111 12112 12113 12114
          12122 12123 12124 12125 12126 12127
          12128 12672 12676 12891 12892 12895
          12896 12919 12920 12923 12924 2617
          2624 2625 2618 2412 2413 2402
          3212 3218 3214 3219 3283 3284
          3285 3288 4643 4622 4644 4647
          5007 5008 5009 5012 5029 5030
          5033 5910 5913 5914 5911 3211
          5917 5916 6010 6011 6012 6015
          3213 4617 8890 8891 8892 8895
          4618 8898 4619 8912 8913 8916
          8918 8932 8933 8935 3221 8938
          4625 8948 8950 8952 3222 9047
          9057 9059 9061 4649 9075 9076
          9079 9081 3224 9861 9862 9864
          4811 9867 4812 9877 9879 9881
          4814 9895 9896 9898 3255 9901
          4817 9911 9913 9915 3256 9993
          9995 9997 4830 10007 10009 10011
          4832 10021 10023 10025 4834 10035
          10037 10039 3259 10097 10099 10100
          10098 10102 10101 10107 10108 10109
          10110 10111 10112 10118 10117 10120
          10119 4847 10123 10124 10125 10126
          10130 10127 4848 10154 10153 4852
          10157 10160 10161 10164 3262 10241
          10243 10245 4864 10255 10257 10259
          4866 10269 10271 10273 4868 10283
          10285 10287 3264 10841 10845 11100
          11052 11104 11056 11128 11080 11132
          11084 11334 11335 11336 11339 2414
          11342 5015 11356 11357 11360 11362
          3291 11416 11417 11420 11422 5035
          11436 11437 11440 11442 11443 2415
          11720 11721 11723 11724 11725 5117
          11726 11727 5118 11736 11738 11739
          11740 11741 5120 11752 11753 11756
          11758 11759 11761 11769 11771 11773
          11775 11840 11842 11843 11844 11845
          5133 11854 11855 11856 11857 11858
          11859 5135 11867 11869 11871 11873
          11881 11883 11885 11887 11966 11967
          11970 11972 11973 11975 11983 11985
          11987 11989 12000 12001 12004 12006
          12007 12009 12017 12019 12021 12023
          12087 12089 12091 12093 12101 12103
          12105 12107 12115 12117 12119 12121
          12129 12131 12133 12135
        </DataArray>
        <DataArray type="Float64" Name="bounds" format="ascii" RangeMin="0" RangeMax="0">
          0 0 0 0 0 0
          0 0 0 0 0 0
          0 0 0 0 0 0
          0 0 0 0 0 0
          0 0 0 0 0 0
          0 0 0 0 0 0
          0 0 0 0 0 0
          0 0 0 0 0 0
          0 0 0 0 0 0
          0 0 0 0 0 0
          0 0 0 0 0 0
          0 0 0 0 0 0
          0 0 0 0 0 0
          0 0 0 0 0 0
          0 0 0 0 0 0
          0 0 0 0 0 0
          0 0 0 0 0 0
          0 0 0 0 0 0
          0 0 0 0 0 0
          0 0 0 0 0 0
          0 0 0 0 0 0
          0 0 0 0 0 0
          0 0 0 0 0 0
          0 0 0 0 0 0
          0 0 0 0 0 0
          0 0 0 0 0 0
          0 0 0 0 0 0
          0 0 0 0 0 0
          0 0 0 0 0 0
          0 0 0 0 0 0
          0 0 0 0 0 0
          0 0 0 0 0 0
          0 0 0 0 0 0
          0 0 0 0 0 0
          0 0 0 0 0 0
          0 0 0 0 0 0
          0 0 0 0 0 0
          0 0 0 0 0 0
          0 0 0 0 0 0
          0 0 0 0 0 0
          0 0 0 0 0 0
          0 0 0 0 0 0
          0 0 0 0 0 0
          0 0 0 0 0 0
          0 0 0 0 0 0
          0 0 0 0 0 0
          0 0 0 0 0 0
          0 0 0 0 0 0
          0 0 0 0 0 0
          0 0 0 0 0 0
          0 0 0 0 0 0
          0 0 0 0 0 0
          0 0 0 0 0 0
          0 0 0 0 0 0
          0 0 0 0 0 0
          0 0 0 0 0 0
          0 0 0 0 0 0
          0 0 0 0 0 0
          0 0 0 0 0 0
          0 0 0 0 0 0
          0 0 0 0 0 0
          0 0 0 0 0 0
          0 0 0 0 0 0
          0 0 0 0 0 0
          0 0 0 0 0 0
          0 0 0 0 0 0
          0 0 0 0 0 0
          0 0 0 0 0 0
          0 0 0 0 0 0
          0 0 0 0 0 0
          0 0 0 0 0 0
          0 0 0 0 0 0
          0 0 0 0 0 0
          0 0 0 0 0 0
          0 0 0 0 0 0
          0 0 0 0 0 0
          0 0 0 0 0 0
          0 0 0 0 0 0
          0 0 0 0 0 0
          0 0 0 0 0 0
          0 0 0 0 0 0
          0 0 0 0 0 0
          0 0 0 0 0 0
          0 0 0 0 0 0
          0 0 0 0 0 0
          0 0 0 0 0 0
          0 0 0 0 0 0
          0 0 0 0 0 0
          0 0 0 0 0 0
          0 0 0 0 0 0
          0 0 0 0 0 0
          0 0 0 0 0 0
          0 0 0 0 0 0
          0 0 0 0 0 0
          0 0 0 0 0 0
          0 0 0 0 0 0
          0 0 0 0 0 0
          0 0 0 0 0 0
          0 0 0 0 0 0
          0 0 0 0 0 0
          0 0 0 0 0 0
          0 0 0 0 0 0
          0 0 0 0 0 0
          0 0 0 0 0 0
          0 0 0 0 0 0
          0 0 0 0 0 0
          0 0 0 0 0 0
          0 0 0 0 0 0
          0 0 0 0 0 0
          0 0 0 0 0 0
          0 0 0 0 0 0
          0 0 0 0 0 0
          0 0 0 0 0 0
          0 0 0 0 0 0
          0 0 0 0 0 0
          0 0 0 0 0 0
          0 0 0 0 0 0
          0 0 0 0 0 0
          0 0 0 0 0 0
          0 0 0 0 0 0
          0 0 0 0 0 0
          0 0 0 0 0 0
          0 0 0 0 0 0
          0 0 0 0 0 0
          0 0 0 0 0 0
          0 0 0 0 0 0
          0 0 0 0 0 0
          0 0 0 0 0 0
          0 0 0 0 0 0
          0 0 0 0 0 0
          0 0 0 0 0 0
          0 0 0 0 0 0
          0 0 0 0 0 0
          0 0 0 0 0 0
          0 0 0 0 0 0
          0 0 0 0 0 0
          0 0 0 0 0 0
          0 0 0 0 0 0
          0 0 0 0 0 0
          0 0 0 0 0 0
          0 0 0 0 0 0
          0 0 0 0 0 0
          0 0 0 0 0 0
          0 0 0 0 0 0
          0 0 0 0 0 0
          0 0 0 0 0 0
          0 0 0 0 0 0
          0 0 0 0 0 0
          0 0 0 0 0 0
          0 0 0 0 0 0
          0 0 0 0 0 0
          0 0 0 0 0 0
          0 0 0 0 0 0
          0 0 0 0 0 0
          0 0 0 0 0 0
          0 0 0 0 0 0
          0 0 0 0 0 0
          0 0 0 0 0 0
          0 0 0 0 0 0
          0 0 0 0 0 0
          0 0 0 0 0 0
          0 0 0 0 0 0
          0 0 0 0 0 0
          0 0 0 0 0 0
          0 0 0 0 0 0
          0 0 0 0 0 0
          0 0 0 0 0 0
          0 0 0 0 0 0
          0 0 0 0 0 0
          0 0 0 0 0 0
          0 0 0 0 0 0
          0 0 0 0 0 0
          0 0 0 0 0 0
          0 0 0 0 0 0
          0 0 0 0 0 0
          0 0 0 0 0 0
          0 0 0 0 0 0
          0 0 0 0 0 0
          0 0 0 0 0 0
          0 0 0 0 0 0
          0 0 0 0 0 0
          0 0 0 0 0 0
          0 0 0 0 0 0
          0 0 0 0 0 0
          0 0 0 0 0 0
          0 0 0 0 0 0
          0 0 0 0 0 0
          0 0 0 0 0 0
          0 0 0 0 0 0
          0 0 0 0 0 0
          0 0 0 0 0 0
          0 0 0 0 0 0
          0 0 0 0 0 0
          0 0 0 0 0 0
          0 0 0 0 0 0
          0 0 0 0 0 0
          0 0 0 0 0 0
          0 0 0 0 0 0
          0 0 0 0 0 0
          0 0 0 0 0 0
          0 0 0 0 0 0
          0 0 0 0 0 0
          0 0 0 0 0 0
          0 0 0 0 0 0
          0 0 0 0 0 0
          0 0 0 0 0 0
          0 0 0 0 0 0
          0 0 0 0 0 0
          0 0 0 0 0 0
          0 0 0 0 0 0
          0 0 0 0 0 0
          0 0 0 0 0 0
          0 0 0 0 0 0
          0 0 0 0 0 0
          0 0 0 0 0 0
          0 0 0 0 0 0
          0 0 0 0 0 0
          0 0 0 0 0 0
          0 0 0 0 0 0
          0 0 0 0 0 0
          0 0 0 0 0 0
          0 0 0 0 0 0
          0 0 0 0 0 0
          0 0 0 0 0 0
          0 0 0 0 0 0
          0 0 0 0 0 0
          0 0 0 0 0 0
          0 0 0 0 0 0
          0 0 0 0 0 0
          0 0 0 0 0 0
          0 0 0 0 0 0
          0 0 0 0 0 0
          0 0 0 0 0 0
          0 0 0 0 0 0
          0 0 0 0 0 0
          0 0 0 0 0 0
          0 0 0 0 0 0
          0 0 0 0 0 0
          0 0 0 0 0 0
          0 0 0 0
        </DataArray>
        <DataArray type="Float64" Name="gradient_error" format="ascii" RangeMin="7.510750628331913e-13" RangeMax="2.510645235552223e-9">
          1.356936668823595e-11 7.48820871050816e-10 3.6920098960165534e-11 1.3951906649950396e-11 3.85177871074834e-10 2.2484596800227682e-11
          1.8899726637585036e-11 3.148773419747376e-11 2.5896078337491467e-11 2.884367579439443e-11 4.853264653936274e-10 3.6186030182548315e-10
          1.4891651578986437e-10 1.1498996036691244e-9 7.095679675990843e-10 2.2395056921775095e-11 2.0325424651600843e-11 1.8271547401124614e-11
          1.5902991763618894e-11 1.4454988576361884e-11 1.03762005614238e-11 1.3812839348333542e-11 1.0772321208940452e-11 5.1659340733490706e-12
          2.0987128973189932e-10 1.5412435412854857e-10 6.143200853654702e-11 3.992785231888828e-10 3.5281731660193763e-10 1.7354988938996788e-10
          1.0435741072486613e-11 1.4535202174730791e-11 1.5122858620925257e-11 1.852239757552074e-11 2.0600513243104625e-11 1.5405437140977262e-11
          1.9190774050178348e-11 2.7624711918702156e-11 2.6075116497869484e-11 2.098729331789165e-11 5.78130593736937e-11 5.438460807535078e-11
          3.470531123655853e-11 4.5290613493628746e-11 4.037252849479163e-11 2.620661290977061e-11 2.521811183760185e-11 1.633969195811619e-11
          2.8889931684926368e-11 1.8535133153759153e-11 1.1391221239129019e-11 3.3451360776927136e-11 2.1258122206598696e-11 2.201248424906189e-11
          2.1125900430853697e-10 1.9756982691763443e-10 1.3993917625316558e-10 1.306922122972155e-10 1.6161785659076853e-10 1.065103335266195e-10
          6.926779154434206e-10 6.458556840270702e-10 4.511053594148963e-10 5.225472783664827e-10 1.1575771651567279e-10 7.588644560253284e-11
          7.282705515809599e-11 4.74551268803387e-11 3.653889077824185e-10 2.500391721996925e-10 2.203998157846768e-10 2.230596765533271e-9
          2.1025731389908525e-9 1.7627405898541678e-9 1.6694566435599354e-9 1.4662165331822753e-9 1.4940256104980028e-9 1.1769916383481552e-9
          1.3749995417100168e-9 1.2962087339601995e-9 1.0231023238615836e-9 9.597965468408627e-10 1.0781553189728828e-9 7.876999954255316e-10
          9.461466728741188e-10 9.622540326112851e-10 7.503405407196577e-10 9.376886951285937e-10 7.776462420810531e-10 5.572975167994144e-10
          4.774128544560765e-10 3.3485312106979933e-10 7.869500435473517e-10 5.771801009339433e-10 5.406937829001724e-10 2.3768781165202315e-11
          2.26965974798815e-11 1.5677894601003904e-11 1.492309123493978e-11 1.341779267225955e-11 9.303841865261023e-12 8.812155216827537e-12
          1.961737890250256e-11 1.2817345795676695e-11 7.512079458942836e-12 2.2897082836558025e-11 2.1513408804869685e-11 1.2977885562869634e-11
          1.7866150276029168e-11 8.017270147622605e-12 7.624078609095874e-12 5.297505406486272e-12 5.02824705433084e-12 6.550338973220657e-12
          4.300637561010699e-12 8.111815573643713e-12 7.619744458690104e-12 6.319958672411715e-12 1.5208318356783684e-11 9.872287836187565e-12
          8.922736128788285e-12 5.794967928559441e-12 1.0646701817379478e-11 6.863063384307358e-12 4.0527214728701405e-12 1.3149151725632608e-11
          7.916500613316914e-12 8.607239068278026e-12 5.113718101418856e-12 3.3298675910620987e-12 3.602333989419347e-12 2.3309430490523813e-12
          4.637337871329785e-12 3.013161236968027e-12 8.956688166573169e-11 8.357136642433166e-11 5.5508597817790286e-11 5.176032197352168e-11
          6.79343363288299e-11 4.199987280853744e-11 3.2563611563313845e-10 3.019605792261121e-10 1.9427915072559543e-10 2.406683016117128e-10
          3.3354780398964454e-11 3.1088287684949607e-11 2.5192469549018723e-11 1.3027435477071364e-10 1.2044814372132316e-10 9.523361037322782e-11
          4.8220851745259025e-11 2.9730606346985075e-11 3.001905884661838e-11 1.8444326430249775e-11 1.6483179883566284e-10 1.0487946556360449e-10
          9.72397211748655e-11 1.7795662835131876e-11 1.1009221788945331e-11 6.44986757387647e-11 3.757085322046212e-11 7.255093647365449e-10
          6.778256610555857e-10 4.912000713191682e-10 4.5729275279003355e-10 5.499281901229161e-10 3.6740673994435166e-10 5.608616567223994e-10
          5.553766168837672e-10 3.9137135263976544e-10 5.120018056321491e-10 3.1802436217650595e-10 2.952031027420266e-10 2.3529885466738625e-10
          2.706516909006615e-10 2.6297214047781446e-10 2.324881675902841e-10 3.827364521209986e-10 2.522724654808771e-10 2.2593049205432701e-10
          1.4682263848336005e-10 4.051609679565122e-10 2.72512006596395e-10 2.6362325324309665e-10 1.5983259235668344e-10 9.200044073585505e-11
          1.758733068839714e-10 1.1001931620646611e-10 5.7060751949968464e-12 6.328946979169715e-12 1.0631306343489754e-11 1.0052007386852346e-11
          5.4659024117040925e-12 7.84932232151356e-12 7.536389047206965e-12 6.951818763342582e-12 9.472708430214939e-12 7.22345577290037e-12
          6.559211846201862e-12 6.625487056558351e-12 9.700856984357499e-12 9.548268027392578e-12 5.595068619099223e-12 7.727893441296854e-12
          7.598932957581296e-12 6.7201793046716396e-12 9.156994763429385e-12 7.576657937537763e-12 1.9006860878396063e-11 1.86988792088058e-11
          1.4791659393014004e-11 1.783468344464936e-11 4.591151166964525e-12 4.85856839410762e-12 6.093972352484124e-12 6.0256362534955364e-12
          4.556383057499209e-12 5.340681194276919e-12 5.319879712681676e-12 5.125985621250714e-12 5.957300154506947e-12 5.299078231086433e-12
          1.1887652161826139e-11 1.158674382481114e-11 1.0469660772435694e-11 1.2511417636051835e-11 6.920577768203497e-12 8.595518980627283e-12
          6.4037579653894156e-12 7.528750657975992e-12 7.092559193978556e-12 8.27272750482345e-12 7.2674724510701756e-12 1.6426513763545393e-11
          1.4997695115966344e-11 1.6851067457397805e-11 3.705902140515047e-11 3.658680920208545e-11 2.975125098380132e-11 2.9399849464999207e-11
          3.513720067940061e-11 2.8287203047970825e-11 7.150144562356531e-11 7.043197869033972e-11 5.6936523337711157e-11 6.731540566371952e-11
          2.3816856999471835e-11 2.3485082395524716e-11 1.8914024179368066e-11 1.860114060715913e-11 2.2500057506236464e-11 1.7728811747395273e-11
          4.6379859374668255e-11 4.567141933050412e-11 3.635389094697576e-11 4.3608899379256155e-11 3.276528350388327e-11 2.632585156236361e-11
          2.964983014188521e-11 2.3692846572880108e-11 6.241368683244952e-11 5.0388701632463795e-11 5.6138565540214635e-11 1.4247920319112888e-11
          2.0870134298700963e-11 1.1044789935863019e-11 1.6402702916515167e-11 1.2740835692369852e-11 1.8754111783736694e-11 1.475017476949894e-11
          4.038147845653798e-11 3.212532661308061e-11 3.627167855727e-11 1.8014355598063168e-11 2.598228517212155e-11 1.4188212716159132e-11
          2.0704085345795798e-11 1.5260808790789013e-11 2.2081810961099226e-11 1.7601306247155302e-11 4.900203298013808e-11 3.950152554076074e-11
          4.152871056101064e-11 1.1126881639736387e-11 1.639923107275289e-11 8.701707689248612e-12 1.2923135590961691e-11 9.490908521697812e-12
          1.3963601533119666e-11 1.102164805856393e-11 3.161520978269386e-11 2.51300096790331e-11 2.675730388417325e-11 1.2644872034366122e-11
          1.8285995400547213e-11 1.004273371420302e-11 1.4604470726490355e-11 1.0240269632933809e-11 1.476247453601057e-11 1.1809259054931763e-11
          3.4192789454014256e-11 2.7520464230242827e-11 2.7374210755258465e-11 7.931153765982035e-12 1.159246370655718e-11 6.232212703469129e-12
          9.14720250109058e-12 6.457655152814865e-12 9.369806300775511e-12 7.38535865919886e-12 2.200000675112904e-11 1.7468729981356534e-11
          1.7583609994906366e-11 1.3638487308166903e-10 1.3423484124850473e-10 1.11238909172311e-10 1.0946939926791177e-10 1.2798775782936476e-10
          1.0433070732478097e-10 2.560682166562469e-10 2.518713958195738e-10 2.0775020117751618e-10 2.396858149718096e-10 8.999027934301271e-11
          8.854771159052523e-11 7.222242194069777e-11 7.105739322075868e-11 8.436043551062512e-11 6.76769837452158e-11 1.7270536455022168e-10
          1.698045785837817e-10 1.3756691692342334e-10 1.6139370325083466e-10 1.1822277575050814e-10 9.630496324272444e-11 1.0580785679816495e-10
          8.611433564487218e-11 2.2066559281447557e-10 1.8170228933172383e-10 1.9654214519216615e-10 7.782645621277125e-11 6.240576575086528e-11
          6.95393574446121e-11 5.5726042725133254e-11 1.4830014909538028e-10 1.2000090511242933e-10 1.3175508999086755e-10 4.682391436661831e-10
          4.603681571372743e-10 3.9192453997139805e-10 3.852061263863484e-10 4.3750700681347853e-10 3.657146739561284e-10 8.137272224644821e-10
          8.000054293372982e-10 6.806860134901908e-10 7.600933587140907e-10 3.2469289916573204e-10 3.1903180654276175e-10 2.663081213455549e-10
          2.615986875171886e-10 3.02624826589147e-10 2.479612497608078e-10 5.830437314678235e-10 5.72709507541365e-10 4.765444865251383e-10
          5.427344476654371e-10 4.018091155957542e-10 3.353446450370335e-10 3.565312104947936e-10 2.9694197381238585e-10 6.97604233154479e-10
          5.914766148767103e-10 6.180739374068267e-10 2.771107557730719e-10 2.2678884055249296e-10 2.449362703719951e-10 2.0015110219853628e-10
          4.960573062660582e-10 4.1158971826939595e-10 4.3711390474320207e-10 9.177329166216938e-11 7.461301849233506e-11 7.717087489766632e-11
          6.26668532693682e-11 1.6937132752123734e-10 1.3905151340450364e-10 1.4124789973050448e-10 6.019816919497864e-11 4.820429842519297e-11
          5.0508999886877254e-11 4.041109565220159e-11 1.1320402005442403e-10 9.140962809922102e-11 9.409885079898324e-11 6.294314055281759e-11
          5.104791304024232e-11 4.9829157527197627e-11 4.035742033507512e-11 1.1404123745250442e-10 9.328735704126356e-11 8.919891362171285e-11
          4.109894011125575e-11 3.285126075606475e-11 3.245360480837362e-11 2.591429765297442e-11 7.57123417979613e-11 6.097541202491657e-11
          5.900899105493163e-11 3.055771438936746e-10 2.5388725584442134e-10 2.5296194236439154e-10 2.096160435585829e-10 5.282635821104318e-10
          4.451011814049442e-10 4.352833828610189e-10 2.089828825578592e-10 1.704673832683226e-10 1.7214803518285965e-10 1.4014857147923152e-10
          3.7119971951576094e-10 3.064796157762238e-10 3.037150225528477e-10 2.0229099892565688e-10 1.6716805591710272e-10 1.5635319939522778e-10
          1.2885221634692967e-10 3.4567254687582324e-10 2.8904293525163993e-10 2.645996895288067e-10 1.3696295672528735e-10 1.1127879408560716e-10
          1.0532021601148076e-10 8.539552208304342e-11 2.394360156941342e-10 1.9653564881184178e-10 1.819569423765843e-10 2.510645235552223e-9
          2.4725804597880128e-9 2.1976064630038296e-9 2.3618168930866977e-9 1.9808254824743195e-9 1.953257798476751e-9 1.7390645846226043e-9
          1.8734459786176892e-9 2.1898111775121048e-9 1.9563487931135574e-9 1.748413826359146e-9 1.557679087598834e-9 2.1143401073817995e-9
          2.105299720860988e-9 1.8897624716910843e-9 1.8783975268048586e-9 2.068804418119932e-9 1.8391566014983254e-9 1.6149952937011955e-9
          1.6342060239049972e-9 1.4767829439345026e-9 1.6718199696290343e-9 1.671245206287906e-9 1.661381748213391e-9 1.4848030696364788e-9
          1.4782455853177573e-9 1.6298226658547409e-9 1.4561087421335205e-9 1.298800119234459e-9 1.3056480603730675e-9 1.158160390742732e-9
          1.3186971428797698e-9 1.986667202675677e-9 1.7648418708385582e-9 1.6826883805472163e-9 1.4909700757807076e-9 1.5733466359221246e-9
          1.4117937627049753e-9 1.3235823599533764e-9 1.1910526473141513e-9 1.2640023136552234e-9 1.2435048193125925e-9 1.0941995358792393e-9
          1.075852136743296e-9 1.1836707222682957e-9 1.0223897099529752e-9 1.564417241933569e-9 1.5428334703391685e-9 1.3550291380211492e-9
          1.4790420696754334e-9 9.360754977828844e-10 9.19890324883053e-10 7.91342200832032e-10 7.772864076080636e-10 8.728136106218703e-10
          7.36466904864092e-10 1.1934087285727648e-9 1.1753088941509503e-9 1.0069971117423109e-9 1.1221495864804732e-9 1.089343515650425e-9
          9.384025855795925e-10 9.681528342604206e-10 8.31049545488502e-10 1.376101262340228e-9 1.2019398723703445e-9 1.2397062862570463e-9
          7.991181718607874e-10 6.727584830023803e-10 7.053763476912539e-10 5.920646194761005e-10 1.037396035943728e-9 8.848581375337517e-10
          9.268728186886327e-10 1.3327102727148703e-9 1.327157488018188e-9 1.1927610587721016e-9 1.1863487031601415e-9 1.3070659760774808e-9
          1.1641459140324723e-9 1.0401917760561873e-9 1.0484929720451447e-9 9.517681565022947e-10 1.0663884726188229e-9 1.0531084200228975e-9
          1.0461366193646685e-9 9.173714174296419e-10 9.10348613226633e-10 1.023046640791788e-9 8.876353086813585e-10 8.481140279113921e-10
          8.512135068031255e-10 7.50196869109188e-10 8.555450493771358e-10 1.2640252636506332e-9 1.1195012364310596e-9 1.1897425185156322e-9
          1.0468041995315387e-9 1.0761797906851043e-9 9.625739362843943e-10 1.0582964783510233e-9 9.789997852547694e-10 8.456849047676724e-10
          9.101028498281112e-10 7.819578636420265e-10 8.493327469576804e-10 7.39888428986674e-10 8.206500545871033e-10 8.297977759378693e-10
          7.092684389671445e-10 6.849366448984423e-10 5.826729746444441e-10 1.0785580925583615e-9 9.332807778797796e-10 9.037747633720701e-10
          5.996557428295896e-10 5.015419435596292e-10 4.904865560598067e-10 4.0863329460090315e-10 7.985499752964322e-10 6.756755540356645e-10
          6.618803413042416e-10 5.438396945701984e-10 4.6032499095043726e-10 4.150926281967843e-10 3.4958120917107715e-10 7.275735209044743e-10