<?xml version="1.0"?>
<VTKFile type="UnstructuredGrid" version="0.1" byte_order="LittleEndian" header_type="UInt32" compressor="vtkZLibDataCompressor">
  <UnstructuredGrid>
    <Piece NumberOfPoints="1693" NumberOfCells="1013">
      <PointData>
        <DataArray type="Int32" Name="libmesh_node_id" format="ascii" RangeMin="924" RangeMax="16238">
          1038 1039 1040 1041 1042 1043
          1044 1045 1046 1047 1048 1049
          1050 1051 1079 1080 1081 1082
          1083 1084 1085 1107 1108 1109
          1110 1111 1112 1113 1148 1149
          1150 1151 1152 1153 1154 1155
          1156 1157 1158 1159 1160 1161
          1162 1163 1190 1191 1192 1193
          1194 1195 1196 1197 1218 1219
          1220 1221 1222 1223 1224 1225
          1258 1259 1260 1261 1262 1263
          1264 1265 1266 1267 1268 1269
          1270 1271 1272 1273 1274 1275
          1301 1302 1303 1304 1305 1306
          1307 1308 1309 1329 1330 1331
          1332 1333 1334 1335 1336 1337
          1370 1371 1372 1373 1374 1375
          1376 1377 1378 1379 1380 1381
          1382 1383 1384 1385 1386 1387
          1413 1414 1415 1416 1417 1418
          1419 1420 1421 1441 1442 1443
          1444 1445 1446 1447 1448 1449
          1482 1483 1484 1485 1486 1487
          1488 1489 1490 1491 1492 1493
          1494 1495 1496 1497 1498 1499
          1525 1526 1527 1528 1529 1530
          1531 1532 1533 1553 1554 1555
          1556 1557 1558 1559 1560 1561
          1594 1595 1596 1597 1598 1599
          1600 1601 1602 1603 1604 1605
          1606 1607 1637 1638 1639 1640
          1641 1642 1643 1665 1666 1667
          1668 1669 1670 1671 1700 1701
          1702 1703 1704 1705 1706 1707
          1708 1709 1710 1711 1712 1713
          1714 1715 1746 1747 1748 1749
          1750 1751 1752 1753 1754 1774
          1775 1776 1777 1778 1779 1780
          1781 1782 1812 1813 1814 1815
          1816 1817 1818 1819 1820 1821
          1822 1823 1824 1825 1826 1827
          1858 1859 1860 1861 1862 1863
          1864 1865 1886 1887 1888 1889
          1890 1891 1892 1893 1894 1924
          1925 1926 1927 1928 1929 1930
          1931 1932 1933 1934 1935 1936
          1937 1938 1939 1970 1971 1972
          1973 1974 1975 1976 1977 1998
          1999 2000 2001 2002 2003 2004
          2005 2036 2037 2038 2039 2040
          2041 2042 2043 2044 2045 2046
          2047 2048 2049 2050 2051 2082
          2083 2084 2085 2086 2087 2088
          2089 2110 2111 2112 2113 2114
          2115 2116 2117 2128 2129 2130
          2131 2132 2133 2134 2135 2136
          2137 2138 2139 2140 2141 2142
          2143 2144 2145 2146 2147 2148
          2149 2150 2151 2152 2153 2154
          2155 2156 2157 2158 2159 2160
          2217 2218 2219 2220 2223 2224
          2225 2227 2228 2230 2251 2252
          2253 2254 2255 2256 2257 2258
          2259 2260 2261 2262 2263 2264
          2265 2266 2267 2268 2269 2270
          2271 2272 2273 2274 2275 2276
          2277 2278 2279 2280 2281 2282
          2283 2284 2285 2286 2287 2288
          2289 2290 2291 2292 2293 2294
          2295 2296 2297 2298 2299 2300
          2301 2305 2306 2309 2311 2326
          2327 2328 2329 2332 2333 2334
          2336 2337 2339 2460 2461 2462
          2463 2464 2465 2466 2467 2468
          2469 2470 2471 2472 2473 2474
          2475 2481 2518 2519 2520 2521
          2522 2523 2524 2525 2526 2527
          2538 2539 2540 2541 2542 2543
          2544 2545 2546 2547 2548 2549
          2550 2551 2552 2553 2554 2555
          2556 2557 2558 2559 2560 2561
          2562 2563 2564 2565 2566 2567
          2568 2569 2570 2571 2572 2573
          2574 2575 2579 2580 2656 2657
          2658 2659 2660 2661 2662 2663
          2664 2665 2666 2667 2668 2669
          2670 2671 2672 2673 2674 2675
          2676 2677 2678 2679 2680 2681
          2682 2683 2684 2685 2686 2687
          2688 2689 2690 2691 2692 2693
          2694 2695 2696 2697 2698 2699
          2700 2701 2702 2703 2704 2705
          2706 2707 2708 2709 2710 2711
          2712 2713 2714 2715 2716 2717
          2718 2719 2720 2721 2722 2723
          2724 2725 2726 2727 2728 2729
          2730 2731 2732 2733 2734 2735
          2736 2737 2738 2739 2740 2741
          2742 2743 2744 2745 2746 2747
          2748 2749 2750 2751 2752 2753
          2754 2755 2756 2757 2758 2759
          2760 2761 2762 2763 2764 2765
          2766 2767 2768 2769 2770 2771
          2772 2773 2774 2775 2776 2777
          2778 2779 2780 2781 2782 2783
          2784 2785 2786 2787 2788 2789
          2790 2791 2792 2793 2794 2795
          2796 2797 2798 2799 2800 2801
          2802 2803 2804 2805 2806 2810
          2811 2816 2817 2818 2819 2820
          2823 2824 2825 2827 2828 2830
          2831 2832 2835 2836 2837 2838
          2840 2851 2852 2853 2854 2855
          2856 2857 2858 2859 2860 2862
          2864 2866 2949 2950 2951 2952
          2953 2954 2955 2956 2957 2958
          2959 2960 2961 2962 2963 2964
          2967 2968 2970 2972 3452 3453
          3454 3455 3456 3457 3458 3459
          3460 3461 3462 3463 3464 3465
          3466 3467 3468 3469 3470 3471
          3472 3473 3474 3475 3476 3477
          3478 3479 3480 3481 3482 3483
          3484 3485 3488 3489 3490 3571
          3572 3573 3574 3575 3576 3577
          3578 3579 3580 3581 3582 3583
          3584 3585 3586 3587 3588 3589
          3590 3591 3592 3593 3594 3595
          3596 3597 3598 3599 3600 3601
          3602 3603 3604 3605 3606 3607
          3608 3609 3610 3611 3612 3613
          3614 3615 3616 3617 3618 3619
          3620 3621 3622 3623 3624 3625
          3626 3627 3628 3629 3630 3631
          3632 3633 3634 3635 3636 3637
          3638 3738 3739 3740 3741 3742
          3743 3744 3745 3746 3747 3748
          3749 3750 3751 3752 3753 3754
          3755 3756 3757 3758 3759 3760
          3761 3762 3763 3764 3765 3766
          3767 5741 5742 5743 5744 5745
          5746 5747 5748 5749 5750 5751
          5752 5753 5754 5755 5756 5757
          5758 5759 5760 5761 5762 5763
          5764 5765 5766 5767 5768 5769
          5770 5771 5772 5773 5774 5775
          5776 5777 5778 5779 5780 5781
          5782 5783 5784 5785 5786 5787
          5788 5799 5800 5801 5802 5803
          5804 5805 5806 5807 5808 5809
          5810 5811 5812 5813 5814 5815
          5816 5817 5818 5829 5830 5831
          5832 5833 5834 5835 5836 5837
          5838 5839 5840 5841 5842 5843
          5844 5845 5846 5847 5848 5849
          5850 5851 5852 5853 5854 5855
          5856 5857 5858 5859 15536 15537
          15538 15539 15540 15541 15542 15543
          15544 15545 15546 15547 15548 15549
          15550 15551 15552 15553 15554 15555
          15556 15557 15558 15559 15654 15655
          15656 15657 15658 15659 15660 15661
          15662 15663 15664 15665 15666 15667
          15668 15669 15670 15671 15672 15673
          15674 15675 15676 15677 15678 15679
          15680 15681 15682 15683 15684 15685
          15686 15687 15688 15689 15690 15691
          15692 15693 15694 15695 15696 15697
          15698 15699 15700 15701 15702 15703
          15704 15705 15706 15707 15708 15709
          15710 15711 15712 15713 15714 15809
          15810 15811 15812 15813 15814 15815
          15816 15817 15818 15819 15820 15821
          15822 15823 15824 15825 15826 15827
          15828 15829 15830 15831 15832 15833
          15834 15835 15836 15837 15838 15839
          15840 15841 15842 15843 15844 15845
          15846 15847 15848 15849 15850 15851
          15852 15853 15854 15855 15856 15857
          15858 15859 15860 15861 15862 15863
          15864 15865 15866 15867 15868 15869
          15870 15871 15872 15873 15874 15875
          15876 15877 15878 15879 15880 15881
          15882 15883 15884 15885 15886 15887
          15888 15889 15890 15891 15892 15893
          15894 15895 15896 15897 15898 15899
          15900 15901 15902 15903 15904 15905
          15906 15907 15908 15909 15910 15911
          15912 15913 15914 15915 15916 15917
          15918 15919 15920 15921 15922 15923
          15924 15925 15926 15927 15928 15929
          15930 15931 15932 15933 15934 15935
          15936 15937 15938 15939 15940 15941
          15942 15943 15944 15945 15946 15947
          15948 15949 15950 15951 15952 15953
          15954 15955 15956 15957 15958 15959
          15960 15961 15962 15963 15964 15965
          15966 15967 15968 15969 15970 15971
          15972 15973 15974 15975 15976 15977
          15978 15979 15980 15981 15982 15983
          15984 15985 15986 15987 15988 15989
          15990 15991 15992 15993 15994 15995
          15996 15997 15998 15999 16000 16001
          16002 16003 16004 16005 16006 16007
          16008 16009 16010 16011 16012 16013
          16014 16015 16016 16017 16018 16019
          16020 16021 16022 16023 16024 16025
          16026 16027 16028 16029 16030 16031
          16032 16033 16034 16035 16036 16037
          16038 16039 16040 16041 16042 16043
          16044 16045 16046 16047 16048 16049
          16050 16051 16052 16053 16054 16055
          16056 16057 16058 16059 16060 16061
          16062 16063 16064 16065 16066 16067
          16068 16069 16070 16071 16072 16073
          16074 16075 16076 16077 16078 16079
          16080 16081 16082 16083 16084 16085
          16086 16087 16088 16089 16090 16091
          16092 16093 16094 16095 16096 16097
          16098 16099 16100 16101 16102 16103
          16104 16105 16106 16107 16108 16109
          16110 16111 16112 16113 16114 16115
          16116 16117 16118 16119 16120 16121
          16122 16123 16124 16125 16126 16127
          16128 16129 16130 16131 16132 16133
          16134 16135 16136 16137 16138 16139
          16140 16141 16142 16143 16144 16145
          16146 16147 16148 16149 16150 16151
          16152 16153 16154 16155 16156 16157
          16158 16159 16160 16161 16162 16163
          16164 16165 16166 16167 16168 16169
          16170 16171 16172 16173 16174 16175
          16176 16177 16178 16179 16180 16181
          16182 16183 16184 16185 16186 16187
          16188 16189 16190 16191 16192 16193
          16194 16195 16196 16197 16198 16199
          16200 16201 16202 16203 16204 16205
          16206 16207 16208 16209 16210 16211
          16212 16213 16214 16215 16216 16217
          16218 16219 16220 16221 16222 16223
          16224 16225 16226 16227 16228 16229
          16230 16231 16232 16233 16234 16235
          16236 16237 16238 924 926 927
          925 1036 1037 928 929 930
          931 932 933 934 935 936
          937 938 939 940 941 1052
          1053 967 966 1078 968 969
          970 971 972 973 974 1086
          995 994 1106 996 997 998
          999 1000 1001 1002 1114 1034
          1035 1146 1147 1164 1165 1077
          1189 1198 1105 1217 1226 1144
          1145 1256 1257 1276 1277 1188
          1300 1310 1216 1328 1338 1368
          1369 1388 1389 1412 1422 1440
          1450 1480 1481 1500 1501 1524
          1534 1552 1562 1592 1593 1608
          1609 1610 1611 1612 1613 1636
          1644 1645 1646 1664 1672 1673
          1674 1586 1588 1589 1587 1698
          1699 1590 1591 1716 1717 1718
          1719 1720 1721 1634 1633 1745
          1635 1755 1756 1662 1661 1773
          1663 1783 1784 1810 1811 1828
          1829 1857 1866 1831 1867 1885
          1895 1923 1969 1941 1978 1997
          2006 1979 2007 2081 2109 2090
          2118 2168 2169 2221 2170 2222
          2226 2229 2164 2330 2307 2331
          2335 2338 2174 2476 2477 2478
          2479 2480 2482 2483 2161 2162
          2576 2577 2578 2581 2163 2302
          2807 2808 2809 2812 2813 2814
          2303 2815 2304 2821 2822 2826
          2829 2833 2834 2308 2839 2841
          2842 2845 2844 2846 2848 2850
          2861 2863 2310 2865 2172 2965
          2966 2969 2971 3486 3487 3491
          2344 2345 3538 2346 3540 3545
          2349 2053 3548 15526 15527 15528
          15531 1922 15534 15646 15647 15649
          2034 15652 2035 15801 15802 15805
          15807
        </DataArray>
        <DataArray type="Float64" Name="bounds" format="ascii" RangeMin="0" RangeMax="0">
          0 0 0 0 0 0
          0 0 0 0 0 0
          0 0 0 0 0 0
          0 0 0 0 0 0
          0 0 0 0 0 0
          0 0 0 0 0 0
          0 0 0 0 0 0
          0 0 0 0 0 0
          0 0 0 0 0 0
          0 0 0 0 0 0
          0 0 0 0 0 0
          0 0 0 0 0 0
          0 0 0 0 0 0
          0 0 0 0 0 0
          0 0 0 0 0 0
          0 0 0 0 0 0
          0 0 0 0 0 0
          0 0 0 0 0 0
          0 0 0 0 0 0
          0 0 0 0 0 0
          0 0 0 0 0 0
          0 0 0 0 0 0
          0 0 0 0 0 0
          0 0 0 0 0 0
          0 0 0 0 0 0
          0 0 0 0 0 0
          0 0 0 0 0 0
          0 0 0 0 0 0
          0 0 0 0 0 0
          0 0 0 0 0 0
          0 0 0 0 0 0
          0 0 0 0 0 0
          0 0 0 0 0 0
          0 0 0 0 0 0
          0 0 0 0 0 0
          0 0 0 0 0 0
          0 0 0 0 0 0
          0 0 0 0 0 0
          0 0 0 0 0 0
          0 0 0 0 0 0
          0 0 0 0 0 0
          0 0 0 0 0 0
          0 0 0 0 0 0
          0 0 0 0 0 0
          0 0 0 0 0 0
          0 0 0 0 0 0
          0 0 0 0 0 0
          0 0 0 0 0 0
          0 0 0 0 0 0
          0 0 0 0 0 0
          0 0 0 0 0 0
          0 0 0 0 0 0
          0 0 0 0 0 0
          0 0 0 0 0 0
          0 0 0 0 0 0
          0 0 0 0 0 0
          0 0 0 0 0 0
          0 0 0 0 0 0
          0 0 0 0 0 0
          0 0 0 0 0 0
          0 0 0 0 0 0
          0 0 0 0 0 0
          0 0 0 0 0 0
          0 0 0 0 0 0
          0 0 0 0 0 0
          0 0 0 0 0 0
          0 0 0 0 0 0
          0 0 0 0 0 0
          0 0 0 0 0 0
          0 0 0 0 0 0
          0 0 0 0 0 0
          0 0 0 0 0 0
          0 0 0 0 0 0
          0 0 0 0 0 0
          0 0 0 0 0 0
          0 0 0 0 0 0
          0 0 0 0 0 0
          0 0 0 0 0 0
          0 0 0 0 0 0
          0 0 0 0 0 0
          0 0 0 0 0 0
          0 0 0 0 0 0
          0 0 0 0 0 0
          0 0 0 0 0 0
          0 0 0 0 0 0
          0 0 0 0 0 0
          0 0 0 0 0 0
          0 0 0 0 0 0
          0 0 0 0 0 0
          0 0 0 0 0 0
          0 0 0 0 0 0
          0 0 0 0 0 0
          0 0 0 0 0 0
          0 0 0 0 0 0
          0 0 0 0 0 0
          0 0 0 0 0 0
          0 0 0 0 0 0
          0 0 0 0 0 0
          0 0 0 0 0 0
          0 0 0 0 0 0
          0 0 0 0 0 0
          0 0 0 0 0 0
          0 0 0 0 0 0
          0 0 0 0 0 0
          0 0 0 0 0 0
          0 0 0 0 0 0
          0 0 0 0 0 0
          0 0 0 0 0 0
          0 0 0 0 0 0
          0 0 0 0 0 0
          0 0 0 0 0 0
          0 0 0 0 0 0
          0 0 0 0 0 0
          0 0 0 0 0 0
          0 0 0 0 0 0
          0 0 0 0 0 0
          0 0 0 0 0 0
          0 0 0 0 0 0
          0 0 0 0 0 0
          0 0 0 0 0 0
          0 0 0 0 0 0
          0 0 0 0 0 0
          0 0 0 0 0 0
          0 0 0 0 0 0
          0 0 0 0 0 0
          0 0 0 0 0 0
          0 0 0 0 0 0
          0 0 0 0 0 0
          0 0 0 0 0 0
          0 0 0 0 0 0
          0 0 0 0 0 0
          0 0 0 0 0 0
          0 0 0 0 0 0
          0 0 0 0 0 0
          0 0 0 0 0 0
          0 0 0 0 0 0
          0 0 0 0 0 0
          0 0 0 0 0 0
          0 0 0 0 0 0
          0 0 0 0 0 0
          0 0 0 0 0 0
          0 0 0 0 0 0
          0 0 0 0 0 0
          0 0 0 0 0 0
          0 0 0 0 0 0
          0 0 0 0 0 0
          0 0 0 0 0 0
          0 0 0 0 0 0
          0 0 0 0 0 0
          0 0 0 0 0 0
          0 0 0 0 0 0
          0 0 0 0 0 0
          0 0 0 0 0 0
          0 0 0 0 0 0
          0 0 0 0 0 0
          0 0 0 0 0 0
          0 0 0 0 0 0
          0 0 0 0 0 0
          0 0 0 0 0 0
          0 0 0 0 0 0
          0 0 0 0 0 0
          0 0 0 0 0 0
          0 0 0 0 0 0
          0 0 0 0 0 0
          0 0 0 0 0 0
          0 0 0 0 0 0
          0 0 0 0 0 0
          0 0 0 0 0 0
          0 0 0 0 0 0
          0 0 0 0 0 0
          0 0 0 0 0 0
          0 0 0 0 0 0
          0 0 0 0 0 0
          0 0 0 0 0 0
          0 0 0 0 0 0
          0 0 0 0 0 0
          0 0 0 0 0 0
          0 0 0 0 0 0
          0 0 0 0 0 0
          0 0 0 0 0 0
          0 0 0 0 0 0
          0 0 0 0 0 0
          0 0 0 0 0 0
          0 0 0 0 0 0
          0 0 0 0 0 0
          0 0 0 0 0 0
          0 0 0 0 0 0
          0 0 0 0 0 0
          0 0 0 0 0 0
          0 0 0 0 0 0
          0 0 0 0 0 0
          0 0 0 0 0 0
          0 0 0 0 0 0
          0 0 0 0 0 0
          0 0 0 0 0 0
          0 0 0 0 0 0
          0 0 0 0 0 0
          0 0 0 0 0 0
          0 0 0 0 0 0
          0 0 0 0 0 0
          0 0 0 0 0 0
          0 0 0 0 0 0
          0 0 0 0 0 0
          0 0 0 0 0 0
          0 0 0 0 0 0
          0 0 0 0 0 0
          0 0 0 0 0 0
          0 0 0 0 0 0
          0 0 0 0 0 0
          0 0 0 0 0 0
          0 0 0 0 0 0
          0 0 0 0 0 0
          0 0 0 0 0 0
          0 0 0 0 0 0
          0 0 0 0 0 0
          0 0 0 0 0 0
          0 0 0 0 0 0
          0 0 0 0 0 0
          0 0 0 0 0 0
          0 0 0 0 0 0
          0 0 0 0 0 0
          0 0 0 0 0 0
          0 0 0 0 0 0
          0 0 0 0 0 0
          0 0 0 0 0 0
          0 0 0 0 0 0
          0 0 0 0 0 0
          0 0 0 0 0 0
          0 0 0 0 0 0
          0 0 0 0 0 0
          0 0 0 0 0 0
          0 0 0 0 0 0
          0 0 0 0 0 0
          0 0 0 0 0 0
          0 0 0 0 0 0
          0 0 0 0 0 0
          0 0 0 0 0 0
          0 0 0 0 0 0
          0 0 0 0 0 0
          0 0 0 0 0 0
          0 0 0 0 0 0
          0 0 0 0 0 0
          0 0 0 0 0 0
          0 0 0 0 0 0
          0 0 0 0 0 0
          0 0 0 0 0 0
          0 0 0 0 0 0
          0 0 0 0 0 0
          0 0 0 0 0 0
          0 0 0 0 0 0
          0 0 0 0 0 0
          0 0 0 0 0 0
          0 0 0 0 0 0
          0 0 0 0 0 0
          0 0 0 0 0 0
          0 0 0 0 0 0
          0 0 0 0 0 0
          0 0 0 0 0 0
          0 0 0 0 0 0
          0 0 0 0 0 0
          0 0 0 0 0 0
          0 0 0 0 0 0
          0 0 0 0 0 0
          0 0 0 0 0 0
          0 0 0 0 0 0
          0 0 0 0 0 0
          0 0 0 0 0 0
          0 0 0 0 0 0
          0 0 0 0 0 0
          0 0 0 0 0 0
          0 0 0 0 0 0
          0 0 0 0 0 0
          0 0 0 0 0 0
          0 0 0 0 0 0
          0 0 0 0 0 0
          0 0 0 0 0 0
          0 0 0 0 0 0
          0 0 0 0 0 0
          0 0 0 0 0 0
          0 0 0 0 0 0
          0 0 0 0 0 0
          0 0 0 0 0 0
          0
        </DataArray>
        <DataArray type="Float64" Name="gradient_error" format="ascii" RangeMin="7.3372646336966515e-16" RangeMax="4.0422106392959663e-7">
          1.3834297975305633e-13 8.910928288194326e-14 8.05019708827089e-14 6.291781602160939e-14 4.956455851632699e-14 4.4326481192845784e-14
          2.7225259708620753e-14 2.2701509595148095e-14 7.043554134068797e-15 6.169848572546559e-15 9.13573645184822e-16 9.017383301764793e-16
          7.978660487308904e-16 7.835943356026048e-16 3.046125683035118e-14 3.2969490457375905e-14 2.7502086174852985e-14 1.2357303577998458e-14
          3.523986151801389e-15 8.561129984412526e-16 7.792970177071782e-16 2.104692764987217e-14 2.0605319754241937e-14 1.591576848034139e-14
          6.536847674321489e-15 1.7518292925784554e-15 8.223229817143689e-16 7.892714129400369e-16 1.0356575990084377e-12 6.783359905153978e-13
          6.315947578252335e-13 4.1957902685198086e-13 3.578391593501176e-13 2.8358945336998737e-13 2.064944218853361e-13 1.869466382731146e-13
          1.0552136613801269e-13 8.891021767088897e-14 2.551311771895014e-14 2.2122145985286876e-14 2.4178530314764355e-15 2.3886861257391328e-15
          1.0243289089277684e-15 1.0288916373814978e-15 2.323604757441623e-13 1.5318606029835078e-13 1.5023716634147382e-13 1.1734954519497585e-13
          4.9047661712678665e-14 1.165643414075427e-14 1.5592933269570015e-15 8.948109594256845e-16 1.4370656946596664e-13 9.880882471797325e-14
          9.113458529309047e-14 6.730023572905871e-14 2.5796254221592083e-14 4.581694029884932e-15 7.590674339121736e-16 7.561675530161414e-16
          7.590956402733486e-12 5.153573378378648e-12 4.704802707190857e-12 3.1894986282046178e-12 2.9014392774702903e-12 1.9873394414178274e-12
          1.612278399618584e-12 1.2941060823265164e-12 8.761042020149999e-13 8.029452301556453e-13 4.139458253949332e-13 3.5385054158840244e-13
          9.165308444709698e-14 7.837973431526777e-14 8.843778118208132e-15 8.612699030483345e-15 2.282846093635329e-15 2.231676215091142e-15
          1.8868700823412324e-12 1.1706582863195398e-12 7.652465818551584e-13 6.887750493510304e-13 5.079469327484037e-13 1.99029781427098e-13
          3.972006930255199e-14 4.931646026948337e-15 1.5462274909203429e-15 1.0575498106586567e-12 6.671220234207015e-13 4.572535583449524e-13
          4.016163336676118e-13 2.861076072005166e-13 1.0430430507232428e-13 1.4333754421665427e-14 1.4816721111381152e-15 9.119486452937308e-16
          3.061466450151338e-11 2.2543490024526447e-11 2.1393269706686886e-11 1.5081704769982055e-11 1.339715904269091e-11 9.464613696805952e-12
          7.33701284218141e-12 5.9655427806247155e-12 3.785446543173846e-12 3.5097085114797914e-12 1.6447154499813974e-12 1.4298570882891912e-12
          3.2089888458286385e-13 2.6682963964891954e-13 3.470778324309939e-14 3.3136833677796863e-14 8.916449003392896e-15 8.913570338174744e-15
          9.66557309794637e-12 5.909101041342073e-12 3.8074770562231045e-12 3.176627684620048e-12 2.225135770760418e-12 8.195812764570307e-13
          1.2762357440501004e-13 1.7389464268193205e-14 4.98532186807304e-15 4.858830648353223e-12 3.0480622494069248e-12 2.0828857615252147e-12
          1.7591826501720747e-12 1.2163010617350997e-12 4.241638263170766e-13 4.248675409504487e-14 3.2130444238920735e-15 1.0599520631894865e-15
          1.2718656209826194e-10 1.0246874442336308e-10 9.731038184191785e-11 7.179075395261196e-11 6.197493988055534e-11 4.526623301362915e-11
          3.3646290982688175e-11 2.7755485742059993e-11 1.6662822437495433e-11 1.560790302249627e-11 6.642769464821291e-12 5.869883790219357e-12
          1.0736747174340016e-12 8.370784383886503e-13 1.2136100878861854e-13 1.0950923340233947e-13 3.320812324492195e-14 3.3145648807757365e-14
          4.980787018922083e-11 2.99586394028735e-11 1.8934604239580813e-11 1.474979008031667e-11 9.853376722520856e-12 3.412608686293829e-12
          3.572185580992679e-13 5.348110640032475e-14 1.7976976882187045e-14 2.186481362997742e-11 1.3646152742440942e-11 9.311682332458662e-12
          7.634899659201534e-12 5.153769837544605e-12 1.728219256970235e-12 1.1395495685523672e-13 9.304754784589086e-15 2.8707793937813237e-15
          5.667924341254739e-10 4.941930729282423e-10 4.431501495737074e-10 3.448019459092114e-10 2.868010837738123e-10 2.1757315547947485e-10
          1.5531116208534184e-10 1.3038215482064264e-10 7.479258588052645e-11 7.068424712529254e-11 2.7536129128126303e-11 2.4630945994435582e-11
          3.4660282814117194e-12 2.3041730018714586e-12 2.5860384716945174e-10 1.5294828199571627e-10 9.449552689540076e-11 6.906942899430814e-11
          4.41270708155495e-11 1.4383739424716257e-11 7.054041392134427e-13 9.561398260789262e-11 5.944282174671717e-11 4.064582660566407e-11
          3.268571043267291e-11 2.167823326104035e-11 7.041715988687655e-12 2.684905560956874e-13 3.1984495043894365e-8 1.9647622453349074e-8
          2.760559476167076e-8 1.674663570246329e-8 1.2069111757050668e-8 7.994633031605518e-9 2.814925156653294e-9 2.559591140105757e-9
          2.026589591576719e-9 1.675885158007419e-9 1.328141930733208e-9 1.0530726814405252e-9 7.212913784130838e-10 6.192178964528863e-10
          3.425939332641515e-10 3.2657286405135053e-10 4.222199886246578e-9 3.435113349283655e-9 2.2948662069491054e-9 1.352578439566174e-9
          7.870376940909646e-10 4.748402640140807e-10 3.271202991918763e-10 2.0027173297198997e-10 6.452473023357871e-11 1.1336499096893791e-9
          9.825500553114945e-10 6.695781077378395e-10 4.0089975557412665e-10 2.4889466374381034e-10 1.7167709588031855e-10 1.3709618389106398e-10
          8.999167110543035e-11 2.8862106740860747e-11 1.1763630404700163e-7 7.907019872953719e-8 1.0943623702086688e-7 6.997942072028134e-8
          1.2330258964720404e-8 1.7140212899350554e-8 5.022748510781622e-9 8.144313676735066e-9 4.090058021252114e-9 4.568941502175028e-9
          2.6846341326090952e-9 2.454908245562317e-9 1.652484540438727e-9 1.6540806081206963e-9 9.072285866960792e-10 9.717004775198564e-10
          2.514440345363869e-8 1.89399541135674e-8 1.2152080127494216e-8 6.88800482255438e-9 3.732314645517622e-9 1.991352359513066e-9
          1.1970947898104653e-9 6.709187859277783e-10 4.7937722283349014e-9 4.1113636404020725e-9 2.7665523554374143e-9 1.609449378730397e-9
          9.478158174450123e-10 6.024621068788196e-10 4.5565053258271565e-10 2.888571780329429e-10 9.088786760218915e-11 2.901300633465295e-7
          1.5584760654660106e-7 2.1157955673160946e-7 1.4736875421519998e-7 6.042769425869075e-8 1.019625996491432e-7 5.13221128327426e-8
          8.920925531144688e-8 3.894178170022822e-8 7.408697340374102e-8 2.6303068579693258e-8 5.841919368868874e-8 1.571109047354752e-8
          4.038976883785621e-8 5.280600863447412e-9 1.3653798325934555e-8 2.759989584346095e-8 2.0771678408938576e-8 1.3232268450726813e-8
          7.391129382772947e-9 3.992126539884584e-9 2.2202463739491946e-9 1.369728609383369e-9 7.944088494266513e-10 8.150376402663495e-9
          7.424987108741695e-9 5.368794327854662e-9 3.1948030265122176e-9 1.7579568266703703e-9 1.2012708670267748e-9 1.0088899321801308e-9
          5.854814195107115e-10 2.7840130103738936e-8 2.7699242681235415e-7 3.27944408265047e-8 1.0463767670273218e-7 4.232809547258698e-8
          1.0088559389481217e-7 5.5792166249082936e-8 9.288680733694324e-8 7.67980031867929e-8 8.029359160671013e-8 1.1054049567979932e-7
          6.278750908240648e-8 1.226860717919206e-8 4.121624268317047e-8 2.5624326394270328e-8 1.931611628364193e-8 1.5005470975873718e-8
          1.0743329749314116e-8 6.021357583152127e-9 2.9094055182642575e-9 3.2940321064886234e-9 3.426275779639582e-9 2.53955099349365e-9
          9.975858987682059e-10 8.555005934797926e-9 8.218389230417841e-9 6.2860604031212836e-9 3.817031949597689e-9 2.021479140167848e-9
          1.4748892587170767e-9 1.3277056972766293e-9 7.382135423023316e-10 2.0994154441007352e-8 5.7408026376951905e-8 6.598846151063224e-8
          1.3575732665264286e-7 1.5040554202975268e-7 1.3084203689101053e-7 1.3264534926228714e-7 4.71238020827491e-8 6.716429434416635e-8
          1.0398953606567571e-7 6.536157772668721e-8 6.930104284760714e-8 8.340146737428359e-8 5.4052355463151326e-8 7.20703276028979e-8
          1.6266751757724272e-7 1.430712301233443e-7 8.885302287325392e-8 5.2432980289646904e-8 1.0399180795804825e-8 3.536786745545948e-8
          6.540550233399011e-8 7.081876441989015e-8 1.7146367390989606e-8 5.825670353341135e-8 5.067785539036393e-8 3.941358377339452e-8
          3.871473903815829e-8 1.8218769313430124e-8 1.6718004601341365e-8 2.9601753852077803e-8 3.421752664710527e-8 3.0832039993105404e-8
          4.583299566064293e-10 6.9275886404732e-10 3.465861298517046e-10 2.4209964929537136e-9 2.063186013509107e-10 2.9533602431188443e-10
          8.347239006866696e-10 2.6406206123846163e-10 4.290546491864642e-9 3.843534472728582e-10 1.1049802082412895e-7 1.1862572495467567e-7
          1.3719393337034448e-7 1.340315829848193e-7 6.887283350547681e-8 1.0762620404229389e-7 1.573067515754162e-7 7.692572046988348e-8
          2.830552168250642e-8 4.8584290802022225e-8 1.1767093581285846e-7 1.3344012497456735e-7 1.4921868499766749e-7 9.47457309455943e-8
          1.0834474746541096e-8 6.588000034264038e-8 1.305637684025186e-7 2.5132109097292095e-8 1.2725718384827442e-7 6.687263246475685e-8
          5.569102378843021e-8 3.196684885648822e-8 3.225667448527918e-8 5.391307830676799e-8 3.653190610779086e-8 3.596339930600269e-8
          6.144780499106363e-8 5.9130579494134553e-8 4.311806803946835e-8 1.4156111112053744e-8 2.8239353488582228e-8 3.236186078410826e-8
          5.931211869031019e-8 6.262717874806245e-8 5.100731735790632e-8 4.2278060149585604e-8 4.034922507044761e-8 4.6933156062192426e-8
          4.958615903999985e-8 4.554541778304152e-8 5.507959373639194e-8 4.3009999779270195e-8 4.2464726846493747e-8 2.0295608807326854e-8
          3.7663432370576785e-8 4.466342032669928e-8 3.191251188601687e-8 5.213073374850317e-8 4.1585785265407815e-8 5.885178089955835e-8
          5.1577708650700444e-8 3.680982826223787e-8 4.113792138920257e-8 5.4103790171995855e-8 3.646481512106548e-8 2.64024909867898e-8
          3.684732843674514e-8 3.140479462530917e-8 3.639184054183284e-8 6.0560669749347164e-9 9.739734729367433e-9 1.639569169630011e-8
          1.9320569281233947e-8 2.299142632374657e-8 1.2999674735804537e-8 1.8119667495908935e-9 1.7124189735943282e-9 1.8348875826204234e-9
          7.461152901392281e-9 6.025486745366309e-9 5.843656346869671e-9 6.7344911973453925e-9 1.2348724313567464e-9 3.959015616379386e-9
          3.956676118458702e-9 1.6128711975977629e-9 5.661825948373033e-9 6.007829493298503e-9 3.954336620538018e-9 4.4922460266830386e-10
          4.624271490806208e-10 4.756296954929377e-10 9.24771355614722e-10 2.136091400444588e-9 6.021949704737371e-9 1.025563592112102e-8
          4.5241451901847577e-10 1.4693748450909473e-9 2.097492111676258e-9 1.1119128053860019e-8 1.8375180441797455e-8 2.4863351711634185e-9
          6.938696766856848e-9 9.145188445251469e-9 1.2474097401595768e-8 5.509014775629453e-8 4.964468453358184e-8 4.2084734751077214e-8
          4.7038751236326406e-8 5.911692045708333e-9 4.3132078343089845e-8 3.6271995701014814e-8 1.135168012364609e-8 3.452478496857258e-8
          3.898735471635828e-8 2.2952721760493812e-8 6.412757268174838e-8 6.699521701575175e-8 6.441910246649127e-8 8.303330731966481e-8