<?xml version="1.0"?>
<VTKFile type="UnstructuredGrid" version="0.1" byte_order="LittleEndian" header_type="UInt32" compressor="vtkZLibDataCompressor">
  <UnstructuredGrid>
    <Piece NumberOfPoints="1747" NumberOfCells="1055">
      <PointData>
        <DataArray type="Int32" Name="libmesh_node_id" format="ascii" RangeMin="746" RangeMax="15795">
          864 865 866 867 868 869
          896 897 898 925 926 927
          980 981 982 983 984 985
          1012 1013 1014 1041 1042 1043
          1096 1097 1098 1099 1100 1101
          1128 1129 1130 1157 1158 1159
          1208 1209 1210 1211 1212 1213
          1214 1215 1216 1217 1242 1243
          1244 1245 1246 1271 1272 1273
          1274 1275 1320 1321 1322 1323
          1324 1325 1326 1327 1328 1329
          1330 1331 1332 1333 1356 1357
          1358 1359 1360 1361 1362 1385
          1386 1387 1388 1389 1390 1391
          1436 1437 1438 1439 1440 1441
          1442 1443 1444 1445 1446 1447
          1448 1449 1472 1473 1474 1475
          1476 1477 1478 1501 1502 1503
          1504 1505 1506 1507 1550 1551
          1552 1553 1554 1555 1556 1557
          1558 1559 1560 1561 1562 1563
          1564 1565 1587 1588 1589 1590
          1591 1592 1593 1594 1616 1617
          1618 1619 1620 1621 1622 1623
          1666 1667 1668 1669 1670 1671
          1672 1673 1674 1675 1676 1677
          1678 1679 1680 1681 1703 1704
          1705 1706 1707 1708 1709 1710
          1732 1733 1734 1735 1736 1737
          1738 1739 1782 1783 1784 1785
          1786 1787 1788 1789 1790 1791
          1792 1793 1794 1795 1796 1797
          1819 1820 1821 1822 1823 1824
          1825 1826 1848 1849 1850 1851
          1852 1853 1854 1855 1898 1899
          1900 1901 1902 1903 1904 1905
          1906 1907 1908 1909 1910 1911
          1912 1913 1935 1936 1937 1938
          1939 1940 1941 1942 1964 1965
          1966 1967 1968 1969 1970 1971
          2014 2015 2016 2017 2018 2019
          2020 2021 2022 2023 2024 2025
          2026 2027 2028 2029 2051 2052
          2053 2054 2055 2056 2057 2058
          2080 2081 2082 2083 2084 2085
          2086 2087 2130 2131 2132 2133
          2134 2135 2136 2137 2138 2139
          2140 2141 2142 2143 2144 2145
          2167 2168 2169 2170 2171 2172
          2173 2174 2196 2197 2198 2199
          2200 2201 2202 2203 2265 2266
          2269 2270 2271 2272 2274 2277
          2279 2280 2281 2282 2283 2284
          2285 2286 2287 2288 2289 2290
          2291 2292 2341 2342 2343 2344
          2345 2346 2347 2348 2349 2350
          2537 2540 2541 2542 2543 2544
          2545 2548 2549 2560 2561 2562
          2563 2564 2565 2566 2567 2568
          2569 2570 2571 2572 2573 2574
          2575 2576 2577 2578 2579 2580
          2581 2582 2583 2618 2619 2620
          2621 2622 2623 2624 2625 2626
          2627 2638 2639 2640 2641 2642
          2643 2644 2645 2646 2647 2726
          2729 2731 2732 2733 2734 2735
          2736 2737 2738 2739 2740 2741
          2742 2743 2744 2745 2746 2747
          2748 2749 2750 2751 3460 3479
          3480 3481 3482 3483 3484 3487
          3488 3491 3492 3495 3497 3499
          3500 3501 3502 3503 3504 3505
          3506 3507 3508 3531 3532 3535
          3537 3539 3540 3541 3542 3543
          3544 3545 3546 3547 3548 3549
          3550 3551 3552 3553 3554 3555
          3556 3557 3558 3559 3560 3561
          3562 3573 3574 3575 3576 3577
          3578 3579 3580 3581 3582 3583
          3584 3585 3586 3587 3588 3589
          3590 3591 3592 3593 3594 3595
          3596 3658 3660 3661 3662 3663
          3664 3665 3666 3667 3668 3669
          3670 3671 3672 3673 3674 3675
          3676 3677 3678 3679 3680 3681
          3682 3683 3684 3685 3686 3687
          3688 3853 3854 3855 3856 3857
          3858 3861 3862 3865 3866 3867
          3868 3869 3870 3871 3872 3887
          3888 3889 3890 3891 3892 3893
          3894 3895 3896 3897 3898 3899
          3900 3901 3902 3903 3904 3905
          3906 3907 3908 3909 3910 3911
          3912 3913 3914 3915 3916 3917
          3918 3919 3920 5551 5552 5553
          5556 5559 5565 5567 5573 5574
          5575 5576 5577 5579 5580 5593
          5594 5596 5599 5604 5609 5610
          5611 5613 5614 5627 5628 5631
          5633 5647 5648 5651 5653 5663
          5665 5667 5677 5679 5681 5683
          5684 5685 5686 5687 5688 5689
          5690 5691 5692 5693 5694 5695
          5696 5697 5698 5699 5700 5701
          5702 5703 5704 5705 5706 5707
          5708 5709 5710 5711 5712 5713
          5714 5715 5716 5717 5718 5719
          5720 5721 5722 5723 5724 5725
          5726 5727 5728 5729 5730 5731
          5732 5733 5734 5735 5736 5737
          5738 5739 5740 5741 5742 5743
          5824 5825 5828 5830 5832 5833
          5834 5835 5836 5837 5838 5839
          5840 5841 5842 5843 5844 5845
          5846 5847 5848 5849 5850 5851
          5852 5853 5854 5855 5856 5857
          5858 5859 5860 5861 5862 5863
          5864 5865 5866 5867 5868 5869
          5870 5871 5872 5873 5874 5875
          5876 5877 5878 5879 5880 5881
          5882 5883 5884 5885 5886 5887
          5888 5889 5890 5891 5892 5893
          5894 5895 5896 5897 5898 5899
          5900 5901 5902 5903 5904 5905
          5906 5924 5925 5926 5927 5928
          5929 5930 5955 5957 5959 5960
          5961 5964 6016 6017 6018 6019
          6020 6021 6022 6023 6024 6025
          6026 6027 6028 6029 6030 6031
          6032 6077 6078 6079 6080 6081
          6082 6083 6084 6085 6086 6230
          6231 6232 6233 6234 6235 6236
          6237 6292 6293 6294 6295 6296
          6297 6298 6299 6300 6301 6302
          6303 6304 6305 6306 6307 6308
          6309 6310 6311 6312 6313 6314
          6315 6316 6317 6318 6319 6320
          6321 6322 6323 6324 6325 6326
          6327 6328 6329 6330 6331 6332
          6333 6334 6335 6391 6392 6393
          6410 6411 6414 6422 6423 6424
          6425 6426 6427 6428 6436 6437
          6438 6439 6440 6441 6442 6443
          6444 6445 6446 6447 6448 6449
          6450 6451 6452 6453 6454 6455
          6456 6457 6458 6459 6460 6461
          6462 6463 6464 6465 6466 6467
          6468 6469 13954 13978 13979 13981
          13984 13995 13996 13999 14001 14067
          14090 14091 14094 14096 14102 14103
          14104 14107 14110 14111 14112 14113
          14114 14115 14116 14117 14198 14199
          14201 14204 14214 14216 14218 14232
          14233 14235 14238 14248 14250 14252
          14278 14306 14318 14320 14322 14326
          14327 14330 14331 14332 14333 14334
          14335 14336 14337 14346 14348 14350
          14354 14355 14358 14359 14360 14361
          14362 14363 14364 14365 14452 14472
          14474 14476 14487 14488 14491 14493
          14554 14555 14558 14560 14626 14628
          14630 14640 14642 14644 14654 14656
          14658 14668 14670 14672 14738 14740
          14742 14756 14757 14760 14762 14772
          14774 14776 14786 14788 14790 14799
          14800 14801 14802 14803 14804 14805
          14806 14807 14808 14809 14810 14811
          14812 14813 14814 14815 14816 14817
          14818 14819 14820 14821 14822 14823
          14824 14825 14826 14827 14828 14829
          14830 14831 14832 14833 14834 14835
          14836 14837 14838 14839 14840 14841
          14842 14843 14844 14845 14846 14847
          14848 14849 14850 14851 14852 14853
          14854 14855 14856 14857 14858 14859
          14860 14861 14862 14863 14864 14865
          14866 14867 14868 14869 14870 14871
          14872 14873 14874 14875 14876 14877
          14878 14879 14880 14881 14882 14883
          14884 14885 14886 14887 14888 14889
          14890 14891 14892 14893 14894 14895
          14896 14897 14898 14899 14900 14901
          14902 14903 14904 14905 14906 14907
          14908 14909 14910 14911 14912 14913
          14914 14915 14916 14917 14918 14919
          14920 14921 14922 14923 14924 14925
          14926 14927 14928 14929 14930 14931
          14932 14933 14934 14935 14936 14937
          14938 14939 14940 14941 14942 14943
          14944 14945 14946 14947 14948 14949
          14950 14951 14952 14953 14954 14955
          14956 14957 14958 14959 14960 14961
          14962 14963 14964 14965 14966 14967
          14968 14969 14970 14971 14972 14973
          14974 14975 14976 14977 14978 14979
          14980 14981 14982 14983 14984 14985
          14986 14987 14988 14989 14990 14991
          14992 14993 14994 14995 14996 14997
          14998 14999 15000 15001 15002 15003
          15004 15005 15006 15007 15008 15009
          15010 15011 15012 15013 15014 15015
          15016 15017 15018 15019 15020 15021
          15022 15023 15024 15025 15026 15027
          15028 15029 15030 15031 15032 15033
          15034 15035 15036 15037 15038 15039
          15040 15041 15042 15043 15044 15045
          15046 15047 15048 15049 15050 15051
          15052 15053 15054 15055 15056 15057
          15058 15421 15422 15423 15424 15425
          15426 15427 15428 15429 15430 15431
          15432 15433 15434 15435 15436 15437
          15438 15439 15440 15441 15442 15443
          15444 15445 15446 15447 15448 15449
          15450 15451 15452 15453 15454 15455
          15456 15457 15458 15459 15460 15461
          15462 15463 15464 15465 15466 15467
          15468 15469 15470 15471 15472 15473
          15474 15475 15476 15477 15478 15479
          15480 15481 15482 15483 15484 15485
          15486 15487 15488 15489 15490 15491
          15492 15493 15494 15495 15496 15497
          15498 15499 15500 15501 15502 15503
          15504 15505 15506 15507 15508 15509
          15510 15511 15512 15513 15514 15515
          15516 15517 15518 15519 15520 15521
          15522 15523 15524 15525 15526 15527
          15528 15529 15530 15531 15532 15533
          15534 15535 15536 15537 15538 15539
          15540 15541 15542 15543 15544 15545
          15546 15547 15548 15549 15550 15551
          15552 15553 15554 15555 15556 15557
          15558 15559 15560 15561 15562 15563
          15564 15565 15566 15567 15568 15569
          15570 15571 15572 15573 15574 15575
          15576 15577 15578 15579 15580 15581
          15582 15583 15584 15585 15586 15587
          15588 15589 15590 15591 15592 15593
          15594 15595 15596 15597 15598 15599
          15600 15601 15602 15603 15604 15605
          15606 15607 15608 15609 15610 15611
          15612 15613 15614 15615 15616 15617
          15618 15619 15620 15621 15622 15623
          15624 15625 15626 15627 15628 15629
          15630 15631 15632 15633 15634 15635
          15636 15637 15638 15639 15640 15641
          15642 15643 15644 15645 15646 15647
          15648 15649 15650 15651 15652 15653
          15654 15655 15656 15657 15658 15659
          15660 15661 15662 15663 15664 15665
          15666 15667 15668 15669 15670 15671
          15672 15673 15674 15675 15676 15677
          15678 15679 15680 15681 15682 15683
          15684 15685 15686 15687 15688 15689
          15690 15691 15692 15693 15694 15695
          15696 15697 15698 15699 15700 15701
          15702 15703 15704 15705 15706 15707
          15708 15709 15710 15711 15712 15713
          15714 15715 15716 15717 15718 15719
          15720 15721 15722 15723 15724 15725
          15726 15727 15728 15729 15730 15731
          15732 15733 15734 15735 15736 15737
          15738 15739 15740 15741 15742 15743
          15744 15745 15746 15747 15748 15749
          15750 15751 15752 15753 15754 15755
          15756 15757 15758 15759 15760 15761
          15762 15763 15764 15765 15766 15767
          15768 15769 15770 15771 15772 15773
          15774 15775 15776 15777 15778 15779
          15780 15781 15782 15783 15784 15785
          15786 15787 15788 15789 15790 15791
          15792 15793 15794 15795 746 748
          749 747 862 863 750 751
          752 753 780 779 895 781
          782 809 808 924 810 811
          978 979 1011 1040 1094 1095
          1127 1156 1090 1092 1093 1091
          1206 1207 1126 1125 1241 1155
          1154 1270 1202 1204 1205 1203
          1318 1319 1240 1239 1355 1269
          1268 1384 1434 1435 1471 1500
          1432 1433 1548 1549 1470 1586
          1499 1615 1664 1665 1702 1731
          1780 1781 1818 1847 1896 1897
          1934 1963 2013 2050 2079 2166
          2195 2333 2260 2273 2334 2337
          2278 2339 2612 2613 2614 2617
          2012 2255 2722 2723 2724 2727
          2728 2725 2716 2718 2730 2721
          3653 3659 3654 3657 2514 2550
          2554 2552 3715 2518 2555 5956
          3716 2556 5958 3719 3721 5962
          5963
        </DataArray>
        <DataArray type="Float64" Name="bounds" format="ascii" RangeMin="0" RangeMax="0">
          0 0 0 0 0 0
          0 0 0 0 0 0
          0 0 0 0 0 0
          0 0 0 0 0 0
          0 0 0 0 0 0
          0 0 0 0 0 0
          0 0 0 0 0 0
          0 0 0 0 0 0
          0 0 0 0 0 0
          0 0 0 0 0 0
          0 0 0 0 0 0
          0 0 0 0 0 0
          0 0 0 0 0 0
          0 0 0 0 0 0
          0 0 0 0 0 0
          0 0 0 0 0 0
          0 0 0 0 0 0
          0 0 0 0 0 0
          0 0 0 0 0 0
          0 0 0 0 0 0
          0 0 0 0 0 0
          0 0 0 0 0 0
          0 0 0 0 0 0
          0 0 0 0 0 0
          0 0 0 0 0 0
          0 0 0 0 0 0
          0 0 0 0 0 0
          0 0 0 0 0 0
          0 0 0 0 0 0
          0 0 0 0 0 0
          0 0 0 0 0 0
          0 0 0 0 0 0
          0 0 0 0 0 0
          0 0 0 0 0 0
          0 0 0 0 0 0
          0 0 0 0 0 0
          0 0 0 0 0 0
          0 0 0 0 0 0
          0 0 0 0 0 0
          0 0 0 0 0 0
          0 0 0 0 0 0
          0 0 0 0 0 0
          0 0 0 0 0 0
          0 0 0 0 0 0
          0 0 0 0 0 0
          0 0 0 0 0 0
          0 0 0 0 0 0
          0 0 0 0 0 0
          0 0 0 0 0 0
          0 0 0 0 0 0
          0 0 0 0 0 0
          0 0 0 0 0 0
          0 0 0 0 0 0
          0 0 0 0 0 0
          0 0 0 0 0 0
          0 0 0 0 0 0
          0 0 0 0 0 0
          0 0 0 0 0 0
          0 0 0 0 0 0
          0 0 0 0 0 0
          0 0 0 0 0 0
          0 0 0 0 0 0
          0 0 0 0 0 0
          0 0 0 0 0 0
          0 0 0 0 0 0
          0 0 0 0 0 0
          0 0 0 0 0 0
          0 0 0 0 0 0
          0 0 0 0 0 0
          0 0 0 0 0 0
          0 0 0 0 0 0
          0 0 0 0 0 0
          0 0 0 0 0 0
          0 0 0 0 0 0
          0 0 0 0 0 0
          0 0 0 0 0 0
          0 0 0 0 0 0
          0 0 0 0 0 0
          0 0 0 0 0 0
          0 0 0 0 0 0
          0 0 0 0 0 0
          0 0 0 0 0 0
          0 0 0 0 0 0
          0 0 0 0 0 0
          0 0 0 0 0 0
          0 0 0 0 0 0
          0 0 0 0 0 0
          0 0 0 0 0 0
          0 0 0 0 0 0
          0 0 0 0 0 0
          0 0 0 0 0 0
          0 0 0 0 0 0
          0 0 0 0 0 0
          0 0 0 0 0 0
          0 0 0 0 0 0
          0 0 0 0 0 0
          0 0 0 0 0 0
          0 0 0 0 0 0
          0 0 0 0 0 0
          0 0 0 0 0 0
          0 0 0 0 0 0
          0 0 0 0 0 0
          0 0 0 0 0 0
          0 0 0 0 0 0
          0 0 0 0 0 0
          0 0 0 0 0 0
          0 0 0 0 0 0
          0 0 0 0 0 0
          0 0 0 0 0 0
          0 0 0 0 0 0
          0 0 0 0 0 0
          0 0 0 0 0 0
          0 0 0 0 0 0
          0 0 0 0 0 0
          0 0 0 0 0 0
          0 0 0 0 0 0
          0 0 0 0 0 0
          0 0 0 0 0 0
          0 0 0 0 0 0
          0 0 0 0 0 0
          0 0 0 0 0 0
          0 0 0 0 0 0
          0 0 0 0 0 0
          0 0 0 0 0 0
          0 0 0 0 0 0
          0 0 0 0 0 0
          0 0 0 0 0 0
          0 0 0 0 0 0
          0 0 0 0 0 0
          0 0 0 0 0 0
          0 0 0 0 0 0
          0 0 0 0 0 0
          0 0 0 0 0 0
          0 0 0 0 0 0
          0 0 0 0 0 0
          0 0 0 0 0 0
          0 0 0 0 0 0
          0 0 0 0 0 0
          0 0 0 0 0 0
          0 0 0 0 0 0
          0 0 0 0 0 0
          0 0 0 0 0 0
          0 0 0 0 0 0
          0 0 0 0 0 0
          0 0 0 0 0 0
          0 0 0 0 0 0
          0 0 0 0 0 0
          0 0 0 0 0 0
          0 0 0 0 0 0
          0 0 0 0 0 0
          0 0 0 0 0 0
          0 0 0 0 0 0
          0 0 0 0 0 0
          0 0 0 0 0 0
          0 0 0 0 0 0
          0 0 0 0 0 0
          0 0 0 0 0 0
          0 0 0 0 0 0
          0 0 0 0 0 0
          0 0 0 0 0 0
          0 0 0 0 0 0
          0 0 0 0 0 0
          0 0 0 0 0 0
          0 0 0 0 0 0
          0 0 0 0 0 0
          0 0 0 0 0 0
          0 0 0 0 0 0
          0 0 0 0 0 0
          0 0 0 0 0 0
          0 0 0 0 0 0
          0 0 0 0 0 0
          0 0 0 0 0 0
          0 0 0 0 0 0
          0 0 0 0 0 0
          0 0 0 0 0 0
          0 0 0 0 0 0
          0 0 0 0 0 0
          0 0 0 0 0 0
          0 0 0 0 0 0
          0 0 0 0 0 0
          0 0 0 0 0 0
          0 0 0 0 0 0
          0 0 0 0 0 0
          0 0 0 0 0 0
          0 0 0 0 0 0
          0 0 0 0 0 0
          0 0 0 0 0 0
          0 0 0 0 0 0
          0 0 0 0 0 0
          0 0 0 0 0 0
          0 0 0 0 0 0
          0 0 0 0 0 0
          0 0 0 0 0 0
          0 0 0 0 0 0
          0 0 0 0 0 0
          0 0 0 0 0 0
          0 0 0 0 0 0
          0 0 0 0 0 0
          0 0 0 0 0 0
          0 0 0 0 0 0
          0 0 0 0 0 0
          0 0 0 0 0 0
          0 0 0 0 0 0
          0 0 0 0 0 0
          0 0 0 0 0 0
          0 0 0 0 0 0
          0 0 0 0 0 0
          0 0 0 0 0 0
          0 0 0 0 0 0
          0 0 0 0 0 0
          0 0 0 0 0 0
          0 0 0 0 0 0
          0 0 0 0 0 0
          0 0 0 0 0 0
          0 0 0 0 0 0
          0 0 0 0 0 0
          0 0 0 0 0 0
          0 0 0 0 0 0
          0 0 0 0 0 0
          0 0 0 0 0 0
          0 0 0 0 0 0
          0 0 0 0 0 0
          0 0 0 0 0 0
          0 0 0 0 0 0
          0 0 0 0 0 0
          0 0 0 0 0 0
          0 0 0 0 0 0
          0 0 0 0 0 0
          0 0 0 0 0 0
          0 0 0 0 0 0
          0 0 0 0 0 0
          0 0 0 0 0 0
          0 0 0 0 0 0
          0 0 0 0 0 0
          0 0 0 0 0 0
          0 0 0 0 0 0
          0 0 0 0 0 0
          0 0 0 0 0 0
          0 0 0 0 0 0
          0 0 0 0 0 0
          0 0 0 0 0 0
          0 0 0 0 0 0
          0 0 0 0 0 0
          0 0 0 0 0 0
          0 0 0 0 0 0
          0 0 0 0 0 0
          0 0 0 0 0 0
          0 0 0 0 0 0
          0 0 0 0 0 0
          0 0 0 0 0 0
          0 0 0 0 0 0
          0 0 0 0 0 0
          0 0 0 0 0 0
          0 0 0 0 0 0
          0 0 0 0 0 0
          0 0 0 0 0 0
          0 0 0 0 0 0
          0 0 0 0 0 0
          0 0 0 0 0 0
          0 0 0 0 0 0
          0 0 0 0 0 0
          0 0 0 0 0 0
          0 0 0 0 0 0
          0 0 0 0 0 0
          0 0 0 0 0 0
          0 0 0 0 0 0
          0 0 0 0 0 0
          0 0 0 0 0 0
          0 0 0 0 0 0
          0 0 0 0 0 0
          0 0 0 0 0 0
          0 0 0 0 0 0
          0 0 0 0 0 0
          0 0 0 0 0 0
          0 0 0 0 0 0
          0 0 0 0 0 0
          0 0 0 0 0 0
          0 0 0 0 0 0
          0 0 0 0 0 0
          0 0 0 0 0 0
          0 0 0 0 0 0
          0 0 0 0 0 0
          0 0 0 0 0 0
          0 0 0 0 0 0
          0 0 0 0 0 0
          0 0 0 0 0 0
          0 0 0 0 0 0
          0 0 0 0 0 0
          0 0 0 0 0 0
          0 0 0 0 0 0
          0 0 0 0 0 0
          0
        </DataArray>
        <DataArray type="Float64" Name="gradient_error" format="ascii" RangeMin="2.161632566849819e-16" RangeMax="3.034225307401195e-11">
          2.428902240318553e-15 2.4288927834157896e-15 2.428892990713572e-15 2.428885035889678e-15 2.4288915035196623e-15 2.42888376303316e-15
          2.428871908668115e-15 2.428869041658999e-15 2.4288685704381655e-15 2.4288604908232045e-15 2.428861002252215e-15 2.4288611183296734e-15
          2.4288956241863697e-15 2.4288727254814997e-15 2.4289327317582902e-15 2.428903605531791e-15 2.4289394803623527e-15 2.4289092624207092e-15
          2.428835104815261e-15 2.428847157020745e-15 2.4288494149096878e-15 2.428820382853892e-15 2.4288198347361985e-15 2.4288197853403098e-15
          2.429250409668497e-15 2.4291158700399506e-15 2.4291236856631382e-15 2.4290113972316636e-15 2.4290977433804863e-15 2.42899005416394e-15
          2.4288190329882904e-15 2.4287772653762047e-15 2.428768903015534e-15 2.428656735565177e-15 2.428655421952221e-15 2.4286554410836743e-15
          2.429557642293784e-15 2.4293487913292552e-15 2.4285055409127698e-15 2.4283385440642703e-15 2.4291765723656333e-15 2.428865152056431e-15
          2.4295002145717216e-15 2.4291270923373687e-15 2.429576229722879e-15 2.4291890190353104e-15 2.428210461251101e-15 2.4280643814904322e-15
          2.428312723956302e-15 2.4284228641361192e-15 2.4284482830627964e-15 2.4272809821374755e-15 2.4279572157650927e-15 2.4280717161653757e-15
          2.4280917581692227e-15 2.428094757777851e-15 2.7046852332097585e-15 2.7726511399355773e-15 2.3120018067057123e-15 2.334817459890847e-15
          2.412736663061307e-15 2.4136142060445136e-15 2.431302801666057e-15 2.429682056406997e-15 2.4329281729649095e-15 2.4312186812196278e-15
          2.432708325812016e-15 2.431078487285213e-15 2.4325963287088146e-15 2.430992694855526e-15 2.6818820437517445e-15 2.4019504893339145e-15
          2.422110778196221e-15 2.4273345507525732e-15 2.4277609606145606e-15 2.4276729862856205e-15 2.4276339368809355e-15 2.5231470408420938e-15
          2.4462678655918474e-15 2.4297298073647228e-15 2.42660779035721e-15 2.426012731754775e-15 2.425897323812831e-15 2.4258788127596336e-15
          7.782315866593305e-15 7.551803454981689e-15 3.4075765676031754e-15 3.333229604638273e-15 2.6040418898656685e-15 2.5802774614811556e-15
          2.4649267041832093e-15 2.4566703193725626e-15 2.440555489553581e-15 2.4353450984653363e-15 2.4364818767503626e-15 2.431742514633772e-15
          2.4359580577596396e-15 2.4312694599198256e-15 4.771677341830479e-15 2.804019858252377e-15 2.4800006963141464e-15 2.4317170851272434e-15
          2.42372690082233e-15 2.4223831812836285e-15 2.422206439525189e-15 2.2220636402908863e-15 2.349157074831384e-15 2.4034883595316515e-15
          2.415020235692571e-15 2.4173190942675685e-15 2.4177632100500764e-15 2.4178320169703664e-15 7.479340682213012e-14 7.261958187784452e-14
          2.4601770143203814e-14 2.3136324657761537e-14 6.478406691837062e-15 6.1702090939161366e-15 2.4431052346119957e-15 2.473621661719485e-15
          2.323401509425017e-15 2.3263784586509418e-15 2.4456771083376587e-15 2.4275800539201665e-15 2.476608968176914e-15 2.4541473562071405e-15
          2.4820419717510204e-15 2.4588413683375487e-15 3.8095078513736923e-14 1.244589669314304e-14 4.23265700471195e-15 2.4695634099051754e-15
          2.3639689366864144e-15 2.400704957061214e-15 2.411279024617752e-15 2.4131941183445503e-15 5.74440009391494e-15 3.2209142139668144e-15
          2.603302513428689e-15 2.4349887309833766e-15 2.398582465495963e-15 2.391926914619754e-15 2.390872304998137e-15 2.3907474717650235e-15
          1.4326103704243897e-13 1.368364501305064e-13 6.354421975700842e-14 5.739677726803391e-14 1.9395204115055196e-14 1.758210217208687e-14
          5.9161803539662575e-15 5.503119623243441e-15 3.26481445329105e-15 3.1197089619554017e-15 2.7454902628850425e-15 2.660299822815971e-15
          2.6221892487200892e-15 2.5533666585253568e-15 2.5994747077238353e-15 2.5337753645343488e-15 7.700291753996345e-14 2.7833814734217805e-14
          9.089211940609798e-15 3.689746611024584e-15 2.6246074669919242e-15 2.423873443883183e-15 2.378145432470246e-15 2.3697554325680666e-15
          2.3593971861353056e-14 4.4182946893762266e-15 2.409423652101052e-15 2.2894343295285442e-15 2.2746114633640948e-15 2.272637505019466e-15
          2.2717467966098676e-15 2.2714348437912717e-15 1.0112599671881873e-12 1.0141649785029041e-12 1.9798241200859303e-13 1.9795649997128596e-13
          4.38655599563022e-14 4.3651540692727737e-14 1.1637316440955612e-14 1.1628876503928457e-14 4.124351863892547e-15 4.147022949029527e-15
          2.481548355789429e-15 2.486621837511414e-15 2.16956175487084e-15 2.1594540131885747e-15 2.1222619953465e-15 2.1086099078052073e-15
          5.853951928612281e-13 1.090491160133475e-13 2.4933452014189908e-14 7.332227031733547e-15 3.153334509315417e-15 2.2111994720935807e-15
          2.0171111804215372e-15 1.9856304869389406e-15 1.5372039590483498e-13 2.016764409271607e-14 6.4293825992265375e-15 3.044017496565794e-15
          2.136974984464325e-15 1.930703624953764e-15 1.8848760893367647e-15 1.876303153613967e-15 1.0038433237752137e-12 1.6590599598721714e-12
          1.863294634648285e-13 2.652992127120299e-13 5.815850613228001e-14 5.896614905629062e-14 1.3525488305915944e-14 1.3823158485357155e-14
          3.577020200462162e-15 3.7061446702239275e-15 1.3712625765862226e-15 1.458123800714913e-15 9.301115061065803e-16 1.0171545960720688e-15
          8.614142158904496e-16 9.532136403080881e-16 1.3695946532474047e-12 2.1106886650857524e-13 4.0263148393273975e-14 9.856688718326551e-15
          2.9349982153889748e-15 1.3958181066670244e-15 1.096490980474818e-15 1.0546865677058771e-15 5.113374279706329e-13 8.909685628194774e-14
          2.0752504806246728e-14 5.5925487718547334e-15 2.0347272907922557e-15 1.2466511884904459e-15 1.0887842749120786e-15 1.0643600706860274e-15
          1.2760739343851754e-13 8.379640169062921e-13 3.342158597228414e-14 1.1888598772616063e-13 3.120319959608907e-14 3.6323216311995124e-14
          8.24207185048745e-15 8.696965847655437e-15 2.0374014882931346e-15 2.1439125825051356e-15 6.038053037410621e-16 6.45205202355707e-16
          2.738956487909122e-16 3.2347437840320566e-16 2.161632566849819e-16 2.734293867939145e-16 1.1531585840898864e-12 1.8962785815245618e-13
          4.0839441596362536e-14 9.34764567986497e-15 2.3295133309903806e-15 7.41651201694347e-16 4.142714626014345e-16 3.657973808653238e-16
          9.455503589204692e-13 1.9199920225317318e-13 4.076164863765999e-14 9.543431514906521e-15 2.4086029852636247e-15 7.966973024183423e-16
          4.5548981718737e-16 4.0089924482780044e-16 1.1582937188006533e-12 1.392040318224021e-13 3.43022190190985e-14 2.0136900788026694e-14
          5.2411484229948464e-15 1.427962515881505e-14 2.953014871274117e-15 4.186582781627253e-15 7.931652520192239e-16 1.1026105640037457e-15
          3.8458249924869743e-16 4.453787527591443e-16 2.982668121501813e-16 3.026312895282168e-16 2.82494555411516e-16 2.7789907022013214e-16
          6.430219997700403e-13 1.388456079637298e-13 3.8061692008266015e-14 8.663886512680305e-15 2.1387518419867284e-15 6.480099704970881e-16
          3.1850874895117334e-16 2.630203867364013e-16 1.1375601156882185e-12 2.419803044394078e-13 5.104324503860395e-14 1.190762233338022e-14
          2.865447807985189e-15 7.89844934724585e-16 3.300217309960944e-16 2.527371884440543e-16 1.3170917066382464e-12 1.3053288763811135e-12
          1.7915613492855605e-13 2.030285739199229e-13 1.4783245761127049e-13 1.2175483648439904e-12 1.696556044209459e-13 1.6846471786008113e-13
          2.337056654982193e-14 5.312278092963783e-14 2.353355120471295e-14 3.8430353119117725e-14 2.1471423422021256e-14 1.6020565876516955e-14
          1.672103516163408e-14 7.734860181009435e-14 5.1784890534117535e-14 2.0330916365731815e-14 1.8847134354996433e-13 3.90292709277941e-14
          1.8587783483346488e-14 2.4355524865458076e-14 1.3089873968329102e-12 1.042115083572712e-12 2.384732148939811e-13 2.0343755642593905e-13
          4.57410587345694e-13 8.655597507729618e-13 1.4472576063945462e-13 8.122573895346405e-13 1.6840189795789698e-13 1.2737089142002296e-12
          8.768797002904723e-13 1.601400973700254e-13 1.1003461387929901e-13 1.104267798884259e-13 4.558147333455531e-13 4.659460565798363e-13
          1.123830641398399e-13 3.47112737131531e-13 3.1502615727934885e-13 2.502319675300563e-13 2.2703432668969416e-13 1.2104810983130198e-13
          9.429788669263627e-14 1.7951763803482339e-13 2.681656642281386e-13 6.962774200421176e-14 3.0901071825687457e-13 5.905631809893965e-14
          3.1501277849497256e-13 4.463918996218964e-14 3.826911950414689e-14 6.430013816352641e-14 5.527121486150156e-14 2.133668562335862e-14
          7.514751099045417e-14 5.075279250636458e-14 3.528240074930543e-14 3.405245862800922e-14 2.954162549072927e-14 1.2125138230873954e-13
          1.4113434914332125e-13 1.0622074780703692e-13 7.644317571687594e-14 7.028494636636729e-13 7.368568483186683e-13 1.3470659062677528e-12
          1.1671134700866688e-12 2.4950495582437653e-13 1.5048371846989678e-13 2.404825883211544e-13 7.708642329736637e-13 9.871610339055852e-13
          3.30481458172412e-13 5.333863307067571e-14 4.641781038443751e-14 3.2362609797780326e-14 2.6019448778340212e-14 4.272295713527013e-14
          4.3868026567467555e-14 2.7616762647424023e-14 3.9496987698199307e-14 1.9676287758900104e-14 4.501309599966498e-14 8.695597922538739e-13
          2.7494595103605793e-12 2.1150559300575924e-12 2.3774868799224155e-13 3.023352836738652e-13 9.879473810444542e-13 8.461142301035617e-13
          1.1838576732573465e-13 2.3116267633489177e-13 1.9909036118055985e-13 3.266054136179421e-13 5.307990438108582e-13 1.5575896220768295e-13
          3.134402352926171e-14 2.700913257768213e-14 1.6859772655885983e-14 2.088290735530395e-14 1.9629267393216478e-14 1.9342833445203867e-14
          9.398146153609708e-15 2.4144147776648947e-14 2.4906042054721912e-14 1.905639949719126e-14 2.4793487162551893e-13 1.5914099479012856e-13
          3.437424155033486e-13 2.4657218397593077e-13 2.0631095245885713e-13 4.129068561722107e-13 1.0844880170007418e-13 8.763669356084844e-13
          1.4988591664021592e-12 4.5290321305061517e-13 3.3833062507845795e-13 3.892886176543956e-13 1.1378870207618224e-12 1.5205393288835915e-13
          1.364793467572221e-13 8.751561826438125e-14 1.4580177034298641e-13 1.7525470912846502e-13 2.1557839578915754e-13 1.225353227193672e-13
          2.929039988066959e-13 1.923299120857398e-13 3.406827292981857e-13 3.66375609862225e-13 3.415893071395383e-13 2.2388445168858382e-13