<?xml version="1.0"?>
<VTKFile type="UnstructuredGrid" version="0.1" byte_order="LittleEndian" header_type="UInt32" compressor="vtkZLibDataCompressor">
  <UnstructuredGrid>
    <Piece NumberOfPoints="1444" NumberOfCells="1044">
      <PointData>
        <DataArray type="Int32" Name="libmesh_node_id" format="ascii" RangeMin="2128" RangeMax="11586">
          2128 2490 2491 2498 2499 3253
          3254 3255 3256 3258 3259 3263
          3264 3265 3269 3270 3277 3278
          3280 3301 3302 3303 3304 3306
          3309 3311 3312 3315 3317 3318
          3320 4482 4483 4484 4487 4490
          4492 4493 4494 4495 4496 4497
          4498 4499 4500 4501 4502 4503
          4504 4505 4516 4517 4519 4520
          4521 4522 4523 4524 4525 4526
          4527 4528 4529 4530 4531 4532
          4533 4534 4535 4536 4537 4538
          4539 4555 4557 4559 4561 4562
          4563 4592 4621 4622 4656 4657
          4659 4662 4664 4665 4666 4667
          4668 4669 4670 4671 4672 4673
          4681 4682 4683 4684 4685 4686
          4687 4698 4699 4700 4701 4702
          4703 4704 4705 4706 4707 4715
          4716 4717 4718 4719 4720 4721
          4722 4723 4724 4725 4726 4727
          4728 4729 4730 4731 4742 4743
          4744 4745 4746 4747 4748 4756
          4757 4758 4759 4760 4761 4762
          4763 4764 4765 4766 4768 4772
          4776 4777 4778 4779 4780 4781
          4782 4798 4802 4826 4830 4846
          4847 4850 4851 4874 4875 4878
          4879 6098 6099 6100 6103 6104
          6105 6106 6107 6111 6112 6122
          7769 7770 7771 7774 7777 7785
          7786 7789 7791 7799 7800 7802
          7805 7811 7813 7815 7817 7818
          7819 7820 7821 7822 7823 7824
          7825 7826 7827 7828 7829 7830
          7831 7832 7833 7834 7835 7836
          7837 7838 7839 7840 7841 7842
          7843 7844 7845 7846 7847 7848
          7849 7850 7851 7852 7853 7854
          7855 7856 7857 7858 7859 7860
          7861 7862 7863 7864 7865 7866
          7867 7868 7869 7870 7871 7872
          7873 7874 7875 7876 7877 7878
          7879 7880 7881 7882 7883 7884
          7885 7886 7887 7888 7889 7890
          7891 7892 7893 7894 7895 7896
          7897 7898 7937 7938 7939 7940
          7941 7942 7943 7944 7945 7946
          7947 7948 7949 7950 7951 7952
          7953 7954 7955 7956 7957 7958
          7959 7960 7961 7962 7963 7964
          7965 7966 7967 7968 7969 7970
          7971 7972 7973 7974 7977 7978
          7979 7981 7982 7983 7984 7985
          7986 7987 7988 7989 7990 7991
          7992 7993 7994 7995 7996 7997
          7998 7999 8000 8001 8002 8003
          8004 8005 8006 8007 8008 8009
          8010 8011 8012 8013 8014 8015
          8016 8017 8018 8019 8020 8021
          8022 8023 8024 8025 8026 8027
          8028 8029 8030 8031 8032 8033
          8034 8035 8036 8037 8038 8039
          8040 8041 8042 8043 8044 8045
          8046 8047 8048 8049 8050 8051
          8052 8053 8054 8055 8056 8057
          8058 8059 8060 8061 8062 8063
          8064 8065 8066 8067 8068 8069
          8070 8071 8072 8073 8074 8075
          8076 8080 8081 8083 8084 8086
          8101 8102 8105 8106 8108 8110
          8121 8122 8125 8127 8128 8130
          8141 8143 8145 8147 8155 8156
          8157 8158 8159 8160 8161 8162
          8163 8164 8165 8166 8167 8168
          8169 8170 8171 8172 8173 8174
          8175 8176 8177 8178 8179 8180
          8181 8182 8183 8184 8185 8186
          8187 8188 8189 8190 8191 8192
          8193 8194 8195 8196 8197 8198
          8199 8200 8201 8202 8203 8204
          8206 8207 8208 8209 8210 8211
          8212 8213 8214 8215 8216 8218
          8219 8221 8223 8225 8236 8237
          8243 8296 8297 8300 8302 8358
          8359 8360 8361 8362 8363 8364
          8365 8366 8367 8368 8369 8372
          8373 8375 8376 8377 8484 8485
          8487 8490 8496 8498 8500 8511
          8512 8514 8517 8525 8527 8529
          8531 8532 8533 8534 8535 8536
          8537 8538 8539 8540 8541 8542
          8543 8544 8545 8546 8547 8548
          8549 8550 8551 8552 8553 8554
          8555 8556 8557 8558 8559 8560
          8561 8562 8563 8564 8565 8566
          8567 8568 8569 8570 8571 8572
          8573 8574 8575 8576 8577 8578
          8579 8580 8581 8582 8583 8584
          8585 8586 8587 8588 8589 8590
          8591 8592 8593 8594 8595 8596
          8597 8598 8639 8640 8641 8642
          8643 8644 8645 8646 8647 8648
          8649 8650 8651 8652 8653 8654
          8656 8657 8658 8660 8661 8662
          8663 8664 8665 8666 8667 8668
          8669 8670 8671 8672 8673 8674
          8675 8676 8677 8678 8679 8680
          8681 8682 8684 8685 8686 8688
          8689 8690 8691 8692 8693 8694
          8707 8708 8710 8723 8725 8763
          8764 8765 8766 8767 8768 8769
          8770 8771 8772 8773 8774 8775
          8776 8777 8778 8779 8780 8781
          8782 8783 8784 8785 8786 8787
          8788 8789 8790 8791 8792 8793
          8794 8795 8796 8797 8798 8799
          8800 8801 8802 8803 8804 8805
          8806 8807 8808 8809 8810 8811
          8812 8813 8814 8815 8816 8817
          8818 8819 8820 8821 8822 8823
          8824 8825 8826 8827 8828 8829
          8830 8877 8878 8879 8880 8881
          8882 8883 8884 8885 8886 8887
          8888 8889 8890 8891 8892 8894
          8895 8896 8898 8899 8900 8901
          8902 8903 8904 8905 8906 8907
          8908 8909 8910 8911 8912 8913
          8914 8915 8916 8917 8918 8919
          8920 8922 8923 8924 8926 8927
          8928 8929 8930 8931 8932 8933
          8934 8935 8936 8937 8938 8939
          8940 8941 8942 8943 8944 8945
          8946 8947 8948 8949 8950 8951
          8952 8953 8954 8955 8956 8957
          8958 8959 8960 8961 8962 8963
          8964 8965 8966 8967 8968 8969
          8970 8971 8972 8973 8974 8975
          8976 8977 8978 8979 8980 8981
          8982 8983 8984 8985 8986 8987
          8988 8989 8990 8991 8992 8993
          8994 8995 8996 8997 8998 8999
          9000 9001 9002 9005 9007 9008
          9010 9021 9023 9025 9027 9035
          9036 9039 9041 9042 9044 9055
          9057 9059 9061 9069 9070 9071
          9072 9073 9074 9075 9076 9077
          9078 9079 9080 9081 9082 9083
          9084 9085 9086 9087 9088 9089
          9090 9091 9092 9093 9094 9095
          9096 9097 9098 9099 9100 9101
          9102 9103 9104 9105 9106 9107
          9108 9109 9110 9111 9112 9113
          9114 9115 9116 9117 9118 9119
          9120 9121 9122 9123 9124 9125
          9127 9129 9131 9139 9143 9153
          9155 9157 9159 9167 9171 9181
          9182 9183 9184 9185 9186 9187
          9188 9189 9190 9191 9192 9193
          9194 9195 9196 9197 9198 9199
          9200 9201 9202 9203 9204 9205
          9206 9207 9208 9209 9210 9211
          9212 9213 9214 9215 9216 9217
          9218 9219 9220 9221 9222 9223
          9224 9225 9226 9227 9228 9229
          9230 9231 9232 9233 9234 9235
          9236 9237 9238 9239 9240 9241
          9242 9243 9244 9245 9246 9247
          9248 9249 9250 9253 9255 9256
          9257 9258 9265 9266 9267 9269
          9271 9273 9275 9283 9284 9285
          9286 9287 9289 9290 9291 9292
          9293 9294 9295 9296 9299 9300
          9301 9303 9305 9307 9309 9317
          9318 9319 9320 9321 9322 9323
          9324 9325 9326 9327 9328 9329
          9330 9331 9332 9333 9334 9335
          9336 9337 9338 9339 9340 9341
          9342 9343 9344 9345 9346 9347
          9348 9349 9350 9351 9352 9353
          9354 9355 9356 9357 9358 9359
          9360 9361 9362 9363 9364 9365
          9366 9367 9368 9369 9370 9371
          9372 9373 9375 9377 9379 9387
          9391 9401 9403 9405 9407 9415
          9419 9477 9479 9481 9505 9507
          9509 9679 9681 9683 9707 9709
          9711 9823 9824 9825 9826 9827
          9828 9829 9830 9831 9832 9833
          9834 9835 9836 9851 9852 9853
          9854 9855 9856 9857 9858 9859
          9860 9861 9862 9863 9864 10059
          10060 10061 10062 10063 10064 10065
          10066 10067 10068 10069 10070 10071
          10072 10087 10088 10089 10090 10091
          10092 10093 10094 10095 10096 10097
          10098 10099 10100 4518 3262 4554
          4558 4556 3275 4560 4564 4568
          4565 4569 4614 4586 4615 4587
          4616 4617 6049 6052 6053 6050
          2488 3257 6108 6109 6110 6113
          6124 6130 6131 6133 6134 6136
          6137 6140 6141 4540 4541 6146
          4547 6149 6151 6156 8077 8078
          8079 8082 4542 8085 4543 8103
          8104 8107 8109 4548 8123 8124
          8126 4550 8129 4551 8142 8144
          8146 4553 8205 8217 8220 8222
          8224 4571 8238 8239 8240 8241
          8242 8244 8245 4573 8370 8371
          8374 8378 8316 8379 8317 8380
          8381 8385 8322 8386 8388 8389
          8390 8391 8395 8396 8399 8405
          8403 8407 8419 8425 9003 9004
          9006 4732 9009 4733 9022 9024
          9026 4736 9037 9038 9040 4738
          9043 4739 9056 9058 9060 4741
          9126 9128 9130 4749 9140 9141
          9142 9144 9145 4751 9154 9156
          9158 4753 9168 9169 9170 9172
          9173 4755 9251 9252 9254 4767
          9259 9260 9261 9262 9263 9268
          9264 4769 9270 9272 9274 4770
          9288 4773 9297 9298 9302 4774
          9304 9306 9308 4775 9374 9376
          9378 4783 9388 9389 9390 9392
          9393 4785 9402 9404 9406 4787
          9416 9417 9418 9420 9421 4789
          9837 9491 9838 9841 9495 9842
          9844 9845 9848 9849 9865 9519
          9866 9869 9523 9870 9872 9873
          9876 9877 9879 9881 9883 9885
          9893 9897 9907 9909 9911 9913
          9921 9925 10073 9693 10074 10077
          9697 10078 10080 10081 10084 10085
          10101 9721 10102 10105 9725 10106
          10108 10109 10112 10113 10115 10117
          10119 10121 10129 10133 10143 10145
          10147 10149 10157 10161 11543 11544
          11549 11550 11547 11552 11577 11578
          11581 11583 11584 11586
        </DataArray>
        <DataArray type="Float64" Name="bounds" format="ascii" RangeMin="0" RangeMax="0">
          0 0 0 0 0 0
          0 0 0 0 0 0
          0 0 0 0 0 0
          0 0 0 0 0 0
          0 0 0 0 0 0
          0 0 0 0 0 0
          0 0 0 0 0 0
          0 0 0 0 0 0
          0 0 0 0 0 0
          0 0 0 0 0 0
          0 0 0 0 0 0
          0 0 0 0 0 0
          0 0 0 0 0 0
          0 0 0 0 0 0
          0 0 0 0 0 0
          0 0 0 0 0 0
          0 0 0 0 0 0
          0 0 0 0 0 0
          0 0 0 0 0 0
          0 0 0 0 0 0
          0 0 0 0 0 0
          0 0 0 0 0 0
          0 0 0 0 0 0
          0 0 0 0 0 0
          0 0 0 0 0 0
          0 0 0 0 0 0
          0 0 0 0 0 0
          0 0 0 0 0 0
          0 0 0 0 0 0
          0 0 0 0 0 0
          0 0 0 0 0 0
          0 0 0 0 0 0
          0 0 0 0 0 0
          0 0 0 0 0 0
          0 0 0 0 0 0
          0 0 0 0 0 0
          0 0 0 0 0 0
          0 0 0 0 0 0
          0 0 0 0 0 0
          0 0 0 0 0 0
          0 0 0 0 0 0
          0 0 0 0 0 0
          0 0 0 0 0 0
          0 0 0 0 0 0
          0 0 0 0 0 0
          0 0 0 0 0 0
          0 0 0 0 0 0
          0 0 0 0 0 0
          0 0 0 0 0 0
          0 0 0 0 0 0
          0 0 0 0 0 0
          0 0 0 0 0 0
          0 0 0 0 0 0
          0 0 0 0 0 0
          0 0 0 0 0 0
          0 0 0 0 0 0
          0 0 0 0 0 0
          0 0 0 0 0 0
          0 0 0 0 0 0
          0 0 0 0 0 0
          0 0 0 0 0 0
          0 0 0 0 0 0
          0 0 0 0 0 0
          0 0 0 0 0 0
          0 0 0 0 0 0
          0 0 0 0 0 0
          0 0 0 0 0 0
          0 0 0 0 0 0
          0 0 0 0 0 0
          0 0 0 0 0 0
          0 0 0 0 0 0
          0 0 0 0 0 0
          0 0 0 0 0 0
          0 0 0 0 0 0
          0 0 0 0 0 0
          0 0 0 0 0 0
          0 0 0 0 0 0
          0 0 0 0 0 0
          0 0 0 0 0 0
          0 0 0 0 0 0
          0 0 0 0 0 0
          0 0 0 0 0 0
          0 0 0 0 0 0
          0 0 0 0 0 0
          0 0 0 0 0 0
          0 0 0 0 0 0
          0 0 0 0 0 0
          0 0 0 0 0 0
          0 0 0 0 0 0
          0 0 0 0 0 0
          0 0 0 0 0 0
          0 0 0 0 0 0
          0 0 0 0 0 0
          0 0 0 0 0 0
          0 0 0 0 0 0
          0 0 0 0 0 0
          0 0 0 0 0 0
          0 0 0 0 0 0
          0 0 0 0 0 0
          0 0 0 0 0 0
          0 0 0 0 0 0
          0 0 0 0 0 0
          0 0 0 0 0 0
          0 0 0 0 0 0
          0 0 0 0 0 0
          0 0 0 0 0 0
          0 0 0 0 0 0
          0 0 0 0 0 0
          0 0 0 0 0 0
          0 0 0 0 0 0
          0 0 0 0 0 0
          0 0 0 0 0 0
          0 0 0 0 0 0
          0 0 0 0 0 0
          0 0 0 0 0 0
          0 0 0 0 0 0
          0 0 0 0 0 0
          0 0 0 0 0 0
          0 0 0 0 0 0
          0 0 0 0 0 0
          0 0 0 0 0 0
          0 0 0 0 0 0
          0 0 0 0 0 0
          0 0 0 0 0 0
          0 0 0 0 0 0
          0 0 0 0 0 0
          0 0 0 0 0 0
          0 0 0 0 0 0
          0 0 0 0 0 0
          0 0 0 0 0 0
          0 0 0 0 0 0
          0 0 0 0 0 0
          0 0 0 0 0 0
          0 0 0 0 0 0
          0 0 0 0 0 0
          0 0 0 0 0 0
          0 0 0 0 0 0
          0 0 0 0 0 0
          0 0 0 0 0 0
          0 0 0 0 0 0
          0 0 0 0 0 0
          0 0 0 0 0 0
          0 0 0 0 0 0
          0 0 0 0 0 0
          0 0 0 0 0 0
          0 0 0 0 0 0
          0 0 0 0 0 0
          0 0 0 0 0 0
          0 0 0 0 0 0
          0 0 0 0 0 0
          0 0 0 0 0 0
          0 0 0 0 0 0
          0 0 0 0 0 0
          0 0 0 0 0 0
          0 0 0 0 0 0
          0 0 0 0 0 0
          0 0 0 0 0 0
          0 0 0 0 0 0
          0 0 0 0 0 0
          0 0 0 0 0 0
          0 0 0 0 0 0
          0 0 0 0 0 0
          0 0 0 0 0 0
          0 0 0 0 0 0
          0 0 0 0 0 0
          0 0 0 0 0 0
          0 0 0 0 0 0
          0 0 0 0 0 0
          0 0 0 0 0 0
          0 0 0 0 0 0
          0 0 0 0 0 0
          0 0 0 0 0 0
          0 0 0 0 0 0
          0 0 0 0 0 0
          0 0 0 0 0 0
          0 0 0 0 0 0
          0 0 0 0 0 0
          0 0 0 0 0 0
          0 0 0 0 0 0
          0 0 0 0 0 0
          0 0 0 0 0 0
          0 0 0 0 0 0
          0 0 0 0 0 0
          0 0 0 0 0 0
          0 0 0 0 0 0
          0 0 0 0 0 0
          0 0 0 0 0 0
          0 0 0 0 0 0
          0 0 0 0 0 0
          0 0 0 0 0 0
          0 0 0 0 0 0
          0 0 0 0 0 0
          0 0 0 0 0 0
          0 0 0 0 0 0
          0 0 0 0 0 0
          0 0 0 0 0 0
          0 0 0 0 0 0
          0 0 0 0 0 0
          0 0 0 0 0 0
          0 0 0 0 0 0
          0 0 0 0 0 0
          0 0 0 0 0 0
          0 0 0 0 0 0
          0 0 0 0 0 0
          0 0 0 0 0 0
          0 0 0 0 0 0
          0 0 0 0 0 0
          0 0 0 0 0 0
          0 0 0 0 0 0
          0 0 0 0 0 0
          0 0 0 0 0 0
          0 0 0 0 0 0
          0 0 0 0 0 0
          0 0 0 0 0 0
          0 0 0 0 0 0
          0 0 0 0 0 0
          0 0 0 0 0 0
          0 0 0 0 0 0
          0 0 0 0 0 0
          0 0 0 0 0 0
          0 0 0 0 0 0
          0 0 0 0 0 0
          0 0 0 0 0 0
          0 0 0 0 0 0
          0 0 0 0 0 0
          0 0 0 0 0 0
          0 0 0 0 0 0
          0 0 0 0 0 0
          0 0 0 0 0 0
          0 0 0 0 0 0
          0 0 0 0 0 0
          0 0 0 0 0 0
          0 0 0 0 0 0
          0 0 0 0 0 0
          0 0 0 0 0 0
          0 0 0 0 0 0
          0 0 0 0 0 0
          0 0 0 0 0 0
          0 0 0 0 0 0
          0 0 0 0 0 0
          0 0 0 0
        </DataArray>
        <DataArray type="Float64" Name="gradient_error" format="ascii" RangeMin="1.7717340062329384e-11" RangeMax="4.191845604703726e-9">
          1.5699986039384622e-9 4.28546669479065e-10 1.8077568270905798e-10 1.6465230307194321e-9 1.9701665148043047e-9 1.5676242920678911e-10
          1.3620627723570654e-10 2.485073650441354e-10 2.1079733181487206e-10 1.1681742140966838e-10 9.836015357821048e-11 6.68331130690491e-10
          5.494149041864016e-10 3.4586907349353617e-10 5.7114915599308417e-11 4.724759883463974e-11 2.517541309133944e-10 2.0052448339533353e-10
          1.0107734936049068e-10 3.419342895288926e-9 2.7470451806688533e-9 2.7323891697674003e-9 2.1656898394435617e-9 1.0880094508380292e-9
          2.3038317110806013e-9 1.99001982744274e-9 1.556825001684321e-9 7.490928841822961e-10 1.687332059962101e-9 2.2585333259120066e-9
          1.4546499096163627e-9 2.3873560975495243e-10 2.4757766960854975e-10 2.3593773636644727e-10 2.0372123676690726e-10 6.36371887986749e-10
          1.6739204576907713e-10 1.6076342066418814e-10 1.8401187094790077e-10 1.7496445550098295e-10 1.121155762512224e-10 1.3840953994932677e-10
          1.3142813559771934e-10 1.4145637294800233e-10 1.500702571160363e-10 1.122906430474128e-10 5.383386565408467e-10 5.113635324164715e-10
          4.062410658069091e-10 4.380273232153091e-10 2.167927120247914e-10 2.1298137860179846e-10 1.5587674765037766e-10 3.108743330342898e-10
          2.5115159338146213e-10 1.8139313027844628e-10 3.3791758229323146e-10 2.641913066563052e-10 2.3426106383627647e-10 8.225390186838746e-11
          7.885092773969576e-11 1.0232710939810662e-10 9.706332323178129e-11 5.4508955823197646e-11 7.390271961126955e-11 7.00213454194132e-11
          6.893070507288887e-11 8.267967107955049e-11 5.937239169732878e-11 3.3303353962111167e-10 3.151200677793759e-10 2.37824496697129e-10
          2.6687088278036204e-10 1.1328124413713717e-10 8.061665654457324e-11 1.3096981469193909e-10 2.0212349938047951e-10 1.5071499076962912e-10
          1.3683002809866235e-10 1.111459858282113e-10 8.314200209364275e-11 6.081492999201955e-11 1.5945411411345658e-9 1.5158574685611405e-9
          1.3045327802431055e-9 3.2266184252354364e-9 1.3649875019362283e-9 1.2962006590544699e-9 1.1551878106739812e-9 1.0948884868191903e-9
          1.10971195579056e-9 9.312745931517923e-10 3.0734449203956666e-9 2.9135453070806787e-9 2.581833991015289e-9 2.4675034280117686e-9
          8.544791872647798e-10 7.085023398065679e-10 5.885844554261105e-10 4.797274010175606e-10 1.8570708165988683e-9 1.6204839738565169e-9
          1.2624294180910558e-9 3.944377968588179e-9 3.876720196269923e-9 3.7779539240300205e-9 3.7200916467296482e-9 3.643581593400098e-9
          3.459424829962889e-9 1.773570748917476e-9 1.973574094106702e-9 1.7496970339474048e-9 2.312280976362266e-9 3.0452873699884695e-9
          2.779018155407009e-9 2.091074970279245e-9 1.852313537895297e-9 2.713540166308596e-9 2.5883993475459128e-9 2.2284019879568828e-9
          9.541666175788922e-10 9.022458764806414e-10 7.657645087655097e-10 7.224089539202937e-10 7.620009104747649e-10 6.058259358603607e-10
          2.3686771896490598e-9 2.2278789305081895e-9 1.869809910074988e-9 1.8577444682486658e-9 5.728847844167368e-10 4.502068447398656e-10
          3.8172183807638857e-10 2.954676131114202e-10 1.3834242162558542e-9 1.151675510625662e-9 9.15179928354096e-10 3.6342277773651003e-9
          3.562312534320714e-9 3.4467068358150525e-9 3.3024728193131024e-9 3.2078503781213002e-9 2.8091981393203857e-9 1.4350585586007785e-9
          1.7335686244573118e-9 1.972769751781661e-9 2.3597792391863647e-9 2.985535783063e-9 2.4219502192331635e-9 1.811999142175231e-9
          2.4369646177713857e-9 2.069509384089203e-9 1.6096203625308391e-9 1.3717718256898619e-9 2.340954434081842e-9 1.9974312276334207e-9
          1.7027796999507295e-9 2.8807132304309936e-10 6.447087502717529e-10 1.110159098209903e-9 1.2540629806115604e-9 2.2502630022322547e-10
          1.7128520502765968e-10 5.298154580461424e-10 4.234613981165534e-10 9.507933847371845e-10 7.926639221610033e-10 1.085568858734791e-9
          9.15986048812501e-10 1.0657431156215372e-10 2.5065750078253677e-10 2.4134522905142407e-10 2.1476283192253042e-10 7.769758887572334e-11
          7.448258903762997e-11 1.696495494273851e-10 1.6313323947242505e-10 6.691442676887225e-11 1.4456457020481654e-10 1.1780343449060566e-10
          1.0498148053273666e-10 1.4574271343250872e-10 1.4405000507557782e-10 1.3901606899048424e-10 2.4462362010215316e-10 9.546860374063363e-11
          1.3095492537288784e-10 1.206432406224463e-10 2.2210948475573163e-10 4.121746306309402e-10 4.0718983076271366e-10 3.9253972005532656e-10
          6.602112015548871e-10 3.6924135891023433e-10 3.387274865472656e-10 5.985591824721564e-10 8.654950792379981e-11 8.556157132918247e-11
          1.2090304383273215e-10 1.1946672246803428e-10 7.234079582712142e-11 1.0307537631256928e-10 1.0183278772352869e-10 8.253432471428438e-11
          1.1518851090333621e-10 9.812539443216335e-11 2.1229611267940434e-10 2.0968844741854154e-10 1.8170939294366072e-10 2.0204539993299284e-10
          6.231685955555929e-11 6.158996815214912e-11 8.838565270433017e-11 8.730608289731277e-11 5.2397256661941366e-11 7.570635436099654e-11
          7.477193944445463e-11 5.935259887334079e-11 8.408925530856537e-11 7.199072290484857e-11 1.5979835938308822e-10 1.5777017839494116e-10
          1.3663176202056197e-10 1.5183144018665e-10 7.760715927638097e-11 1.0833311609988169e-10 6.550932971834732e-11 9.219139389487523e-11
          7.196819478892849e-11 9.972243359435256e-11 8.475451064627337e-11 1.8988019241707442e-10 1.642443055372964e-10 1.7376986308127387e-10
          5.571591445720915e-11 7.894680468820215e-11 4.736761607078269e-11 6.755135858565398e-11 5.157876968892767e-11 7.250911678595562e-11
          6.198638535415862e-11 1.4240023757625994e-10 1.2317113646627536e-10 1.299542583199778e-10 3.622649492272163e-10 3.5775803703009137e-10
          3.196914764384364e-10 3.156328822828091e-10 3.4455800125810685e-10 3.037501886026172e-10 5.998890769767987e-10 5.924012060403333e-10
          5.314711497483675e-10 5.704729149388141e-10 2.816364996307577e-10 2.7799939950248574e-10 2.47068320452773e-10 2.4382884366666385e-10
          2.6735586924538567e-10 2.343543295536565e-10 4.815464636081736e-10 4.752775786980875e-10 4.2286279541873647e-10 4.569346685344792e-10
          3.235650687835345e-10 2.848696247276172e-10 2.9611207897287813e-10 2.602215868010388e-10 5.356450617180892e-10 4.794520968241228e-10
          4.903789376330727e-10 2.504618446123371e-10 2.1933255346099864e-10 2.2844259333302874e-10 1.9978482755453047e-10 4.278579870657395e-10
          3.7992192468135355e-10 3.901737054954891e-10 6.959113448410982e-11 8.935455101135874e-11 5.884152319058322e-11 7.591056010278445e-11
          6.996518324912095e-11 8.358384633043973e-11 7.103429697293403e-11 1.531208819891213e-10 1.3201207919043917e-10 1.4744488575488384e-10
          4.994481443091736e-11 6.478712491446247e-11 4.2428339234015554e-11 5.532044402974935e-11 5.032179740045506e-11 6.049762810658266e-11
          5.162691324070501e-11 1.1413132315878072e-10 9.849527582853087e-11 1.1004638975007142e-10 2.6472695346875226e-10 2.320948891425106e-10
          2.3093539142096288e-10 2.0193611223129142e-10 4.376442667265153e-10 3.8986179937014383e-10 3.806328444350058e-10 2.0338261083371414e-10
          1.7757347686912428e-10 1.7657746072109052e-10 1.5385484366477195e-10 3.4645145031376116e-10 3.064517998474623e-10 2.9943658403655915e-10
          1.457804434524008e-10 1.956173469194492e-10 1.2622060113850024e-10 1.705800843221457e-10 1.4025457544307443e-10 3.225350568889989e-10
          2.851418568018046e-10 1.0925454802339435e-10 1.487475552279626e-10 9.423643767710123e-11 1.292773841868474e-10 8.935469048027351e-11
          1.2188997002746317e-10 1.0563396658686008e-10 2.5184115727561187e-10 2.2155949886801644e-10 2.0613533203003743e-10 4.497129862393835e-11
          4.4440281141472776e-11 6.460752188444704e-11 6.380499005051976e-11 3.751758606122177e-11 5.4864781995810556e-11 5.4180756461765555e-11
          4.2801694591158324e-11 6.141291382004961e-11 5.213822531406401e-11 1.1933429916909352e-10 1.177852325915611e-10 1.0098570086826336e-10
          1.1325340927706737e-10 3.188260170304863e-11 3.151248939553754e-11 4.6338044839943325e-11 4.575891330744015e-11 2.6314349213480033e-11
          3.891445015589931e-11 3.8420443661030276e-11 3.0367339609886285e-11 4.403044555109773e-11 3.697379264954247e-11 8.722774950869729e-11
          8.607283396224606e-11 7.291524466228563e-11 8.269693279970508e-11 4.0136810765883075e-11 5.7591070957429075e-11 3.387588558480945e-11
          4.887085059920127e-11 3.7112183021389354e-11 5.28145667272989e-11 4.47923341295324e-11 1.0606840940410107e-10 9.084933283556125e-11
          9.66128050838084e-11 2.850535766191493e-11 4.126223842439131e-11 2.4035970421614083e-11 3.466837298512123e-11 2.637640041851737e-11
          3.7792796078461116e-11 3.17292913224954e-11 7.734879318613496e-11 6.54141728824699e-11 7.032776124629411e-11 2.1555805842821295e-10
          2.1269270941336805e-10 1.8692012114520176e-10 1.8440388101054442e-10 2.0431800444745961e-10 1.77055967433074e-10 3.790474088538547e-10
          3.7393088470955216e-10 3.284638798301411e-10 3.5897812097648396e-10 1.6105022665779772e-10 1.5885592795894944e-10 1.378546965437865e-10
          1.3595241227423152e-10 1.5245719960840517e-10 1.3042040525358147e-10 2.9058096953631225e-10 2.865322370402181e-10 2.4819472547376196e-10
          2.7472137233156387e-10 1.910550643288308e-10 1.6543454738577443e-10 1.7382053722575694e-10 1.5035226725727388e-10 3.353325010674406e-10
          2.940474786166627e-10 3.047909670245114e-10 1.423590040115557e-10 1.2174294440463153e-10 1.29268644510025e-10 1.1051331438641812e-10
          2.560989195993215e-10 2.2150796950406694e-10 2.3211627991715124e-10 2.2125065235790328e-11 2.1806092554405834e-11 3.248326920599729e-11
          3.204774829866071e-11 2.1112760063051554e-11 3.087113249982256e-11 6.222343848997179e-11 6.138787370860876e-11 5.891354009965342e-11
          2.051527951783061e-11 2.8962352928411315e-11 1.9825067894309447e-11 2.637273591268746e-11 5.489753534462128e-11 4.959215910730286e-11
          1.1722472855701492e-10 1.1558702754169316e-10 1.1082034966495405e-10 2.1656750186111578e-10 2.134620769762431e-10 2.0443023943655375e-10
          1.035182590495285e-10 9.415799459528569e-11 1.9023519942545813e-10 1.7199369105669926e-10 3.5998085560792775e-11 4.711285186747907e-11
          3.0438769778705315e-11 3.995823768273958e-11 3.635130108726354e-11 4.395534277171175e-11 3.729378860440945e-11 8.464332458668804e-11
          7.236847682531897e-11 8.160855829998538e-11 2.5598345162365966e-11 3.366984458843508e-11 2.1684381362102787e-11 2.8225493045862394e-11
          2.5862302679780943e-11 3.139746454147205e-11 2.6308001284052763e-11 6.149658749930136e-11 5.187269432132078e-11 5.930952957613934e-11
          1.542556292172427e-10 1.332349392296335e-10 1.334101677564165e-10 1.1503349002879014e-10 2.695141728036266e-10 2.3553929001708964e-10
          2.3179676323595292e-10 1.144025499382155e-10 9.768874893422942e-11 9.859907778758278e-11 8.402004925091903e-11 2.045033075245883e-10
          1.763766821197247e-10 1.751149453849402e-10 8.107535670523847e-11 1.1189472733144797e-10 6.939983404364914e-11 9.632331781600087e-11
          6.603211845750585e-11 9.12538182878582e-11 7.841950031907995e-11 1.938745015183414e-10 1.6863259616948514e-10 1.5773187997053589e-10
          5.897338625343414e-11 8.238799266822984e-11 4.9823305242182964e-11 7.00433692549511e-11 4.7873674288417174e-11 6.692543323953313e-11
          1.4575467784050175e-10 1.2516273182208985e-10 1.1797559977370275e-10 1.909201817758334e-11 2.3409925575314794e-11 1.8223675132313974e-11
          2.1153789924450056e-11 1.882605934912724e-11 2.186904757375631e-11 1.9868590088555978e-11 4.325767635710192e-11 4.195814847785469e-11
          8.314342540849074e-11 7.122707902427272e-11 1.5104014217447666e-10 1.2882410173798416e-10 4.1912788296804515e-11 5.920841079044518e-11
          1.0676480847375149e-10 6.173776917032032e-11 8.446361351284999e-11 6.593644528707837e-11 1.4359903785318467e-10 5.2967022581250445e-11
          7.279879519142269e-11 4.523554893647956e-11 6.243192740483362e-11 4.150268596483965e-11 5.668807306215778e-11 4.850690697831971e-11
          1.249152689987571e-10 1.0806311205908148e-10 9.638117254214088e-11 3.826395534184113e-11 5.3168292593490424e-11 2.9869859071388736e-11
          4.122227642050101e-11 9.293672363581503e-11 7.943972815111576e-11 7.131834316813387e-11 1.0506646823217423e-9 1.0378603200906302e-9
          1.000263643348311e-9 1.5744726504702094e-9 9.406062169348924e-10 8.629287591037447e-10 1.4236513995345043e-9 2.3786907663768527e-9
          2.3460129759792077e-9 2.2506717997565047e-9 3.3692296593929103e-9 2.1022643854597087e-9 1.914740155438707e-9 3.0134105841447158e-9
          9.57925753810155e-10 9.459770913491063e-10 8.735375485273332e-10 8.624079814777846e-10 9.109877655538388e-10 8.298269182119271e-10
          1.4746049437249007e-9 1.4558904680481038e-9 1.347459456286982e-9 1.4012736033331662e-9 7.938105487657853e-10 7.834848665260334e-10
          7.174645110382169e-10 7.079298142108428e-10 7.532588327415971e-10 6.800373164325694e-10 1.2590395429769794e-9 1.2425820951300094e-9
          1.1398209655924271e-9 1.194484662886215e-9 8.554214709416033e-10 7.781149420737654e-10 7.830607599207776e-10 7.10822651029325e-10
          1.3149926795546023e-9 1.2150367047508686e-9 1.2031963231998397e-9 7.053111930574251e-10 6.358495226682784e-10 6.430082522700851e-10
          5.785329145684826e-10 1.1183274325473721e-9 1.0236891668179926e-9 1.0194317087898058e-9 2.2304350033464796e-9 2.199374719854053e-9
          2.0833573848313486e-9 2.0545273499583232e-9 2.1094167963140672e-9 1.9709803333164642e-9 3.2475506028888425e-9 3.2017880324706037e-9
          3.032985874282467e-9 3.0719622840517945e-9 1.9399480238167255e-9 1.913302801938819e-9 1.799869334762355e-9 1.7748800165350952e-9
          1.8356286952308195e-9 1.7021708308397177e-9 2.905964345670024e-9 2.8665130891047587e-9 2.69429349950626e-9 2.7504911001940988e-9
          1.9694696000038134e-9 1.840523220060519e-9 1.792228926284415e-9 1.6741793943350678e-9 2.8719918109097636e-9 2.721371253219615e-9