<?xml version="1.0"?>
<VTKFile type="UnstructuredGrid" version="0.1" byte_order="LittleEndian" header_type="UInt32" compressor="vtkZLibDataCompressor">
  <UnstructuredGrid>
    <Piece NumberOfPoints="494" NumberOfCells="297">
      <PointData>
        <DataArray type="Int32" Name="libmesh_node_id" format="ascii" RangeMin="549" RangeMax="3232">
          549 627 636 637 638 646
          769 770 776 777 955 960
          1009 1010 1011 1012 1013 1014
          1015 1019 1020 1021 1037 1038
          1039 1043 1044 1414 1422 1423
          1426 1427 1428 1434 1618 1619
          1620 1621 1622 1623 1624 1625
          1626 1627 1628 1629 1630 1632
          1633 1634 1635 1636 1637 1638
          1639 1640 1641 1642 1643 1644
          1645 1670 1671 1672 1673 1675
          1676 1677 1678 1680 1681 1682
          1683 1684 1686 1687 1688 1689
          1707 1708 1709 1710 1712 1713
          1714 1715 1717 1718 1719 1720
          1723 1724 1725 2283 2284 2285
          2286 2287 2288 2289 2291 2474
          2475 2476 2478 2675 2676 2677
          2678 2679 2680 2681 2682 2683
          2684 2685 2686 2687 2688 2689
          2690 2691 2692 2693 2694 2695
          2696 2697 2698 2699 2700 2701
          2702 2703 2704 2705 2706 2709
          2710 2711 2713 2714 2715 2716
          2717 2718 2719 2720 2721 2722
          2723 2724 2725 2726 2727 2728
          2729 2730 2731 2732 2733 2734
          2735 2736 2737 2738 2739 2740
          2741 2742 2743 2744 2745 2746
          2747 2748 2749 2750 2751 2752
          2753 2754 2755 2756 2757 2758
          2759 2760 2761 2762 2763 2764
          2765 2766 2767 2768 2769 2770
          2829 2830 2831 2832 2833 2834
          2837 2839 2840 2841 2842 2843
          2844 2845 2846 2847 2848 2849
          2850 2854 2856 2857 2858 2859
          2860 2861 2862 2865 2866 2868
          2871 2873 2874 2875 2876 2877
          2878 2879 2880 2881 2882 2884
          2888 2890 2891 2892 2893 2894
          2895 2896 2897 2898 2899 2900
          2901 2902 2903 2904 2905 2906
          2907 2908 2909 2910 2911 2912
          2913 2914 2915 2916 2917 2918
          2919 2920 2921 2922 2923 2924
          2926 2928 2930 2931 2932 2933
          2934 2935 2936 2937 2938 2939
          2940 2941 2942 2943 2944 2945
          2946 2947 2948 2949 2950 2951
          2952 2953 2954 2955 2956 2957
          2958 2959 2960 2962 2963 2964
          3100 3101 3103 3106 3108 3109
          3110 3111 3112 3113 3114 3115
          3116 3117 3119 3123 3125 3126
          3127 3128 3129 3130 3131 3134
          3135 3137 3140 3142 3143 3144
          3145 3146 3147 3148 3149 3150
          3151 3153 3157 3159 3160 3161
          3162 3163 3164 3165 3166 3167
          3168 3169 3170 3171 3172 3173
          3174 3175 3176 3177 3178 3179
          3180 3181 3182 3183 3184 3185
          3186 3187 3188 3190 3191 3192
          3193 3194 3197 3198 3200 3201
          3202 3203 3204 3205 3206 3207
          3208 3209 3210 3211 3212 3213
          3214 3215 3216 3217 3218 3219
          3220 3221 3222 3224 3225 3226
          3227 3228 3231 3232 626 959
          956 957 961 958 1415 1424
          1425 1416 1429 1430 1417 1431
          1432 1433 967 1435 1534 1536
          1537 1535 1539 1538 2707 2708
          2290 2712 1631 2835 2836 2477
          2838 2851 2479 2852 2853 2480
          2855 1674 2863 2864 2867 2869
          2870 2872 2883 2886 2885 2887
          1679 2889 3098 3099 3102 3104
          3105 3107 3118 3121 3120 3122
          1711 3124 3132 3133 3136 3138
          3139 3141 3152 3155 3154 3156
          1716 3158
        </DataArray>
        <DataArray type="Float64" Name="bounds" format="ascii" RangeMin="0" RangeMax="0">
          0 0 0 0 0 0
          0 0 0 0 0 0
          0 0 0 0 0 0
          0 0 0 0 0 0
          0 0 0 0 0 0
          0 0 0 0 0 0
          0 0 0 0 0 0
          0 0 0 0 0 0
          0 0 0 0 0 0
          0 0 0 0 0 0
          0 0 0 0 0 0
          0 0 0 0 0 0
          0 0 0 0 0 0
          0 0 0 0 0 0
          0 0 0 0 0 0
          0 0 0 0 0 0
          0 0 0 0 0 0
          0 0 0 0 0 0
          0 0 0 0 0 0
          0 0 0 0 0 0
          0 0 0 0 0 0
          0 0 0 0 0 0
          0 0 0 0 0 0
          0 0 0 0 0 0
          0 0 0 0 0 0
          0 0 0 0 0 0
          0 0 0 0 0 0
          0 0 0 0 0 0
          0 0 0 0 0 0
          0 0 0 0 0 0
          0 0 0 0 0 0
          0 0 0 0 0 0
          0 0 0 0 0 0
          0 0 0 0 0 0
          0 0 0 0 0 0
          0 0 0 0 0 0
          0 0 0 0 0 0
          0 0 0 0 0 0
          0 0 0 0 0 0
          0 0 0 0 0 0
          0 0 0 0 0 0
          0 0 0 0 0 0
          0 0 0 0 0 0
          0 0 0 0 0 0
          0 0 0 0 0 0
          0 0 0 0 0 0
          0 0 0 0 0 0
          0 0 0 0 0 0
          0 0 0 0 0 0
          0 0 0 0 0 0
          0 0 0 0 0 0
          0 0 0 0 0 0
          0 0 0 0 0 0
          0 0 0 0 0 0
          0 0 0 0 0 0
          0 0 0 0 0 0
          0 0 0 0 0 0
          0 0 0 0 0 0
          0 0 0 0 0 0
          0 0 0 0 0 0
          0 0 0 0 0 0
          0 0 0 0 0 0
          0 0 0 0 0 0
          0 0 0 0 0 0
          0 0 0 0 0 0
          0 0 0 0 0 0
          0 0 0 0 0 0
          0 0 0 0 0 0
          0 0 0 0 0 0
          0 0 0 0 0 0
          0 0 0 0 0 0
          0 0 0 0 0 0
          0 0 0 0 0 0
          0 0 0 0 0 0
          0 0 0 0 0 0
          0 0 0 0 0 0
          0 0 0 0 0 0
          0 0 0 0 0 0
          0 0 0 0 0 0
          0 0 0 0 0 0
          0 0 0 0 0 0
          0 0 0 0 0 0
          0 0
        </DataArray>
        <DataArray type="Float64" Name="gradient_error" format="ascii" RangeMin="1.0868871710233567e-10" RangeMax="5.8574803831836905e-8">
          6.715911625821381e-9 1.2225878488026095e-8 1.5494901279298078e-9 1.0332386165217952e-9 3.8314750158851123e-10 8.176981657581596e-9
          3.4586203639126405e-9 2.639622222091346e-9 1.1244800711680373e-9 8.652046186516711e-10 1.2399306502291124e-8 5.443776141900865e-9
          3.277536775757854e-9 2.719491116596944e-9 2.340325015526937e-9 1.8499179913581484e-9 9.40158600142123e-10 7.731326745173749e-10
          6.275642546580378e-10 1.0696249594974626e-9 1.1690746617819365e-9 3.9962554593680805e-10 9.470572347832172e-9 5.101509330824709e-9
          4.72361956956346e-9 8.259807909000664e-9 1.1605236766230781e-8 9.017189212415188e-9 7.406440316974034e-9 6.806504312853597e-9
          3.6796303517478824e-9 5.373065062793838e-9 4.967954240609829e-9 1.1234358383834007e-8 2.3858305461727155e-9 2.2025896547700907e-9
          1.5299282347118947e-9 1.4068333200061665e-9 1.2848436131928086e-9 9.001678099384352e-10 8.215601411459742e-10 1.7149067392159204e-9
          1.4391796495465953e-9 1.1896173761606492e-9 1.6620864538758533e-9 1.491903048617485e-9 9.497147411665216e-10 7.882491435550278e-10
          7.251918564955065e-10 5.113052254760439e-10 4.679551869540446e-10 4.000080636895229e-10 2.8136959425613786e-10 2.5804166042704494e-10
          5.650564771989433e-10 6.997480484405635e-10 3.91977202661101e-10 6.609462691296069e-10 5.832617943927604e-10 3.368230853488153e-10
          7.035908262080924e-10 4.708089727857779e-9 4.165799380038831e-9 3.3921388203263223e-9 2.9675148454675293e-9 1.991976386068242e-9
          1.1933356862283772e-8 1.028884985622139e-8 8.075953796559025e-9 2.2945638144954783e-9 1.9870082204639814e-9 1.4248779862704179e-9
          1.223413986699033e-9 1.2954426982536644e-9 6.940243717981538e-9 5.896902480273901e-9 3.968599921003756e-9 3.618585827967378e-9
          1.6922411292470755e-8 1.668597649411289e-8 1.5698164435388235e-8 1.4778053687705423e-8 9.772217018621903e-9 9.166848978297188e-9
          1.2853548916230401e-8 1.2482871788010817e-8 1.3384922046462788e-8 1.1771911851060065e-8 9.5326449480841e-9 8.252938570011702e-9
          9.5130910703155e-9 1.1592025284424431e-8 8.504323211240812e-9 1.1456372121451913e-9 1.367305342624165e-9 1.3305873875462163e-9
          1.24310059918178e-9 2.3246333218524168e-9 9.515589856875322e-10 1.1098489216779359e-9 1.9166257815362883e-9 3.6833866484436727e-9
          3.58146612711847e-9 3.3406236011492925e-9 2.9607704588208986e-9 9.733381666485785e-10 9.468859918941153e-10 1.218892049746345e-9
          1.1868203911370693e-9 6.557528642920998e-10 9.47551950479487e-10 9.227030975461092e-10 8.822633941789824e-10 1.1058565798756719e-9
          8.560993965661864e-10 2.1152397657361274e-9 2.05886144355558e-9 1.6180185396342206e-9 1.9110749407347285e-9 5.1464198606424e-10
          5.003937895833101e-10 7.358350689584419e-10 7.158269571101327e-10 3.862246391017038e-10 5.755810218297256e-10 5.595871157582822e-10
          4.6509792333134224e-10 6.621168648235458e-10 5.160450267595931e-10 1.3373954705247975e-9 1.299812252365965e-9 1.0384586137678875e-9
          1.1928947944071464e-9 7.935302612902348e-10 9.82610025692799e-10 5.615889341178082e-10 7.519973969359514e-10 6.717868805220931e-10
          1.6854901201806567e-9 1.2987925299313307e-9 4.3378900366795665e-10 5.780261589456539e-10 3.349545778482254e-10 4.495064206359077e-10
          4.2352775377560923e-10 5.276374335060394e-10 4.105159974394679e-10 1.0249703386525125e-9 8.10327663419906e-10 9.380635816322842e-10
          3.063978240701156e-10 2.978378643700231e-10 4.4782688333690894e-10 4.351329407323658e-10 2.2774465365302497e-10 3.446102095028553e-10
          3.3469365631726275e-10 2.759198259483775e-10 4.005294610158588e-10 3.0761134472577906e-10 8.468022512011991e-10 8.214197819838265e-10
          6.407045216157118e-10 7.492954109597836e-10 1.751359203974758e-10 1.7013213386372478e-10 2.606432712857504e-10 2.530406018822112e-10
          1.255864353855474e-10 1.9426508066274338e-10 1.885549715388523e-10 1.5731920995910316e-10 2.3234663518544733e-10 1.729839502456734e-10
          5.076128227898648e-10 4.917956730102362e-10 3.7105426825754504e-10 4.4701698155289875e-10 2.580490820631949e-10 3.4829194810189144e-10
          1.9699983284738667e-10 2.6723446811816956e-10 2.5353641689956536e-10 3.179639722998878e-10 2.440233499164511e-10 6.365636710862915e-10
          4.942091634411569e-10 5.758008419546368e-10 1.4709294040833566e-10 2.0147970699107273e-10 1.0868871710233567e-10 1.4999403273007216e-10
          1.4467580822843872e-10 1.8370407608992285e-10 1.3686502738375875e-10 3.777882604384757e-10 2.8422736191986685e-10 3.4046614852698554e-10
          3.4000849693916865e-9 3.305777634629591e-9 2.8482852788081568e-9 2.7671648527570845e-9 3.0624141921747764e-9 2.5373525334782536e-9
          4.5658247673591624e-9 2.3542053669738376e-9 2.2839139199975713e-9 1.932330373682562e-9 1.872311729485753e-9 2.0851338882881464e-9
          1.7028635330164904e-9 4.0153669274874585e-9 3.888649046662875e-9 3.2804434129655963e-9 3.532656068191375e-9 2.6951603447747924e-9
          2.2057966531417516e-9 3.578393677474336e-9 1.7977326302219943e-9 1.4572394291822215e-9 1.461391575998898e-9 1.172175288171269e-9
          3.0118552181806284e-9 2.5121404186049832e-9 2.4123036686118834e-9 7.56701279421019e-9 7.312346021559953e-9 6.606908601131806e-9
          1.1498604594067966e-8 6.647683498656893e-9 6.41920293764926e-9 5.759821926543036e-9 5.557818476528878e-9 5.786420311917112e-9
          4.99454824822378e-9 1.0740744630867879e-8 1.0334868528888855e-8 9.097505129447162e-9 9.205926482995613e-9 5.606318396680811e-9
          8.563054294060447e-9 4.878708751800127e-9 4.181816799792572e-9 3.8513522480910655e-9 3.264494329670789e-9 7.612222202983518e-9
          6.651790416078474e-9 5.884203655725938e-9 1.5645218814779267e-9 1.514273517274968e-9 1.2449803730306936e-9 1.2038591852366882e-9
          1.3727179469698107e-9 1.0882910060024809e-9 2.8177512005138153e-9 2.721379862983557e-9 2.213347422195296e-9 2.452068849113251e-9
          9.7193564914933e-10 9.390822511127005e-10 7.438442995401057e-10 7.182243221647139e-10 8.469601467721324e-10 6.465052956293725e-10
          1.8287073870397693e-9 1.761944594691818e-9 1.3714546982081271e-9 1.5764320302603533e-9 1.1679729210921748e-9 9.21808868660538e-10
          9.324644789488056e-10 7.318115213412551e-10 2.062270538709606e-9 1.6612398020377463e-9 1.6207763530205484e-9 7.147285782112613e-10
          5.646087807446739e-10 1.310994082156839e-9 1.0154437091068374e-9 4.907312780527575e-9 4.729415583608079e-9 4.097952618268298e-9
          3.9434503403822285e-9 4.233007264033171e-9 3.513657189511169e-9 8.180244482302823e-9 7.854510501761914e-9 6.662833475054543e-9
          6.962620969402792e-9 3.345101341090715e-9 3.2141162379075435e-9 2.6652712851526414e-9 2.5572373431367565e-9 2.851226652741999e-9
          2.259116108585155e-9 5.786821363520407e-9 5.550284656730007e-9 4.5231367990814705e-9 4.89460378973416e-9 3.5183509611949713e-9
          2.899190082242987e-9 2.7182011907528594e-9 2.2181626893669234e-9 5.7127386254557735e-9 4.811653894461806e-9 4.341728400799303e-9
          2.336285350988263e-9 1.8390888289049002e-9 1.7713098839366671e-9 3.963951352551419e-9 3.1871527589197654e-9 2.9480617887969656e-9
          1.6626741795731246e-8 1.6153791188812852e-8 1.468479735003042e-8 1.6974992480865162e-8 1.5459814126821063e-8 1.495683219071896e-8
          1.4034950054568807e-8 1.353348591122275e-8 1.3458263054199463e-8 1.2068194439613794e-8 1.63972624601969e-8 1.6374560460504038e-8
          1.556393758461906e-8 1.5862743082483316e-8 1.2301727842765258e-8 1.513567361238994e-8 1.1136217655312167e-8 9.874954586314202e-9
          8.468873447365898e-9 7.4434001243786846e-9 1.4065058067588725e-8 1.2755559669746897e-8 1.1006229484560857e-8 1.2156789968033212e-8
          1.2960058467161519e-8 1.4679683848520254e-8 1.0261493627529921e-8 1.1881179509772942e-8 1.2694683170610252e-8 1.1656332323210817e-8
          1.2480525896511292e-8 1.4359877395140755e-8 1.391016005183982e-8 8.661254178148051e-9 9.844743985745568e-9 9.660544138312794e-9
          1.2650084249251809e-8 1.542780119151125e-8 1.4873865800240129e-8 1.4729038651405854e-8 1.3728968696873901e-8 1.2500075117683188e-8
          1.1216914461931096e-8 1.4377447036892871e-8 1.3590380952048866e-8 1.286668934465055e-8 1.2446069904408347e-8 1.1956273737720563e-8
          1.0725687835194207e-8 1.0279719919829718e-8 1.0570184701246335e-8 9.04869511526109e-9 1.4758873501549934e-8 1.4489557033246494e-8
          1.3008670485943968e-8 1.3421204512803299e-8 9.011022249689354e-9 8.635245635096982e-9 7.437706163416242e-9 7.128134250558393e-9
          7.597946211422515e-9 6.264693679003716e-9 1.1529708584439784e-8 1.1139676412215583e-8 9.209302157069465e-9 9.968524252976642e-9
          8.583088363400472e-9 7.3223670324268685e-9 6.429352312230128e-9 1.1273839561909763e-8 9.703609543029355e-9 8.504419948773305e-9
          6.131372970734343e-9 5.026226036367741e-9 8.173266503021637e-9 6.771636548460083e-9 1.1721304892134848e-8 1.2400734945082018e-8
          1.1741171000929637e-8 1.208544613546613e-8 1.327879390332703e-8 1.2182201591608697e-8 8.660331988565548e-9 1.0000089224514381e-8
          1.0415482011191994e-8 1.2264167242677775e-8 1.0871621750063935e-8 1.0922362235427103e-8 9.176341436284339e-9 9.149869471626169e-9
          1.053338883672125e-8 8.748675763802077e-9 9.439812286581046e-9 9.870159115694069e-9 8.408558437431007e-9 1.0193263646679473e-8
          1.2429274366029398e-8 1.0839741560382335e-8 9.816427208418416e-9 1.2465083243251753e-8 1.0962259384874282e-8 1.0186535476432254e-8
          9.156475814796733e-9 7.612894141511785e-9 9.281591506698268e-9 7.724014950831379e-9 4.185164510516888e-9 5.8883321229813e-9
          1.0743052887777226e-8 3.6666596252198604e-8 4.410623989968806e-9 3.002822005630189e-8 1.206865173957017e-8 1.0368862511076745e-8
          9.553599965442883e-9 1.1086363399430904e-8 5.432174353603536e-9 7.687628862017132e-9 9.008399876479631e-9 3.933293317144456e-9
          2.4056596643956903e-8 2.2140491620902503e-8 8.69804948964495e-9 1.7349763582400287e-8 5.8574803831836905e-8 3.0419960567019873e-8
          2.74394475689939e-8 5.314725862133211e-8 2.0159142306803755e-8 3.955459039082051e-8 6.850368060749919e-10 8.288969224846977e-10
          9.451911841067586e-10 1.4079876649999686e-9 1.3794817539651999e-9 5.620409723854097e-9 5.434748412192453e-9 5.943154347249827e-9
          4.97415958034193e-9 2.247248815725495e-9 2.4824685050825248e-9 1.8157491575579948e-9 4.297453119559181e-9 4.712789252690582e-9
          3.4970528787002094e-9 2.8963939469469952e-9 8.627177039354183e-9 8.30798112169692e-9 7.539414238047132e-9 1.2901705552614122e-8
          1.2419859745210076e-8 1.1164371926986001e-8 6.451024988148109e-9 4.481492935578076e-9 5.180297283225567e-9 9.40468628338135e-9
          6.682501990128809e-9 7.46489204262281e-9 1.7371651205386266e-8 1.699482731085375e-8 1.5673832848882958e-8 1.7180546718679445e-8
          1.727848550298321e-8 1.7202615833441256e-8 1.3284269402346984e-8 9.46373296870667e-9 1.0395916744545143e-8 1.5902124290993152e-8
          1.2128068668941912e-8 1.2927286235600298e-8 1.2265757644326555e-8 1.312099591901208e-8 1.4828048247693922e-8 9.157984127993904e-9
          1.0502008554882075e-8 1.30324242561621e-8 1.5850424804516607e-8 1.359935227141448e-8 1.4324463745589957e-8 1.515394124143966e-8
          1.3922618440091541e-8 1.4674172573220153e-8
        </DataArray>
        <DataArray type="Float64" Name="gradient_matprop_error" format="ascii" RangeMin="0" RangeMax="0">
          0 0 0 0 0 0
          0 0 0 0 0 0
          0 0 0 0 0 0
          0 0 0 0 0 0
          0 0 0 0 0 0
          0 0 0 0 0 0
          0 0 0 0 0 0
          0 0 0 0 0 0
          0 0 0 0 0 0
          0 0 0 0 0 0
          0 0 0 0 0 0
          0 0 0 0 0 0
          0 0 0 0 0 0
          0 0 0 0 0 0
          0 0 0 0 0 0
          0 0 0 0 0 0
          0 0 0 0 0 0
          0 0 0 0 0 0
          0 0 0 0 0 0
          0 0 0 0 0 0
          0 0 0 0 0 0
          0 0 0 0 0 0
          0 0 0 0 0 0
          0 0 0 0 0 0
          0 0 0 0 0 0
          0 0 0 0 0 0
          0 0 0 0 0 0
          0 0 0 0 0 0
          0 0 0 0 0 0
          0 0 0 0 0 0
          0 0 0 0 0 0
          0 0 0 0 0 0
          0 0 0 0 0 0
          0 0 0 0 0 0
          0 0 0 0 0 0
          0 0 0 0 0 0
          0 0 0 0 0 0
          0 0 0 0 0 0
          0 0 0 0 0 0
          0 0 0 0 0 0
          0 0 0 0 0 0
          0 0 0 0 0 0
          0 0 0 0 0 0
          0 0 0 0 0 0
          0 0 0 0 0 0
          0 0 0 0 0 0
          0 0 0 0 0 0
          0 0 0 0 0 0
          0 0 0 0 0 0
          0 0 0 0 0 0
          0 0 0 0 0 0
          0 0 0 0 0 0
          0 0 0 0 0 0
          0 0 0 0 0 0
          0 0 0 0 0 0
          0 0 0 0 0 0
          0 0 0 0 0 0
          0 0 0 0 0 0
          0 0 0 0 0 0
          0 0 0 0 0 0
          0 0 0 0 0 0
          0 0 0 0 0 0
          0 0 0 0 0 0
          0 0 0 0 0 0
          0 0 0 0 0 0
          0 0 0 0 0 0
          0 0 0 0 0 0
          0 0 0 0 0 0
          0 0 0 0 0 0
          0 0 0 0 0 0
          0 0 0 0 0 0
          0 0 0 0 0 0
          0 0 0 0 0 0
          0 0 0 0 0 0
          0 0 0 0 0 0
          0 0 0 0 0 0
          0 0 0 0 0 0
          0 0 0 0 0 0
          0 0 0 0 0 0
          0 0 0 0 0 0
          0 0 0 0 0 0
          0 0 0 0 0 0
          0 0
        </DataArray>
        <DataArray type="Float64" Name="initial_marker" format="ascii" RangeMin="0" RangeMax="2">
          0 2 0 0 2 2
          0 0 0 0 0 0
          0 0 0 0 0 0
          0 2 1.5 1.25 2 2
          2 2 2 0 0 0
          0 0.5 0.5 2 0 0
          0 0 0 0 0 0
          0 0 2 2 2 0
          0 0 0 0 0 0
          0 0 0 2 2 2
          1.5 2 2 2 2 2
          2 2 2 2 2 2
          2 2 2 2 2 2
          2 2 2 2 2 2
          2 2 2 2 2 2
          2 2 2 0 1 1
          1 2 0 1 2 2
          2 2 2 0 0 1
          1 0 1 1 0 1
          1 2 2 2 2 0
          0 1 1 0 1 1
          0 1 1 2 2 2
          2 0 1 0 1 1
          2 2 0 1 0 1
          0 1 1 2 2 2
          0 0 1 1 0 1
          1 0 1 1 2 2
          2 2 0 0 1 1
          0 1 1 0 1 1
          2 2 2 2 0 1
          0 1 0 1 1 2
          2 2 0 1 0 0.75
          0 1 0.5 2 1.75 2
          2 2 2 2 2 2
          2 2 2 2 2 2
          2 2 2 2 2 2
          2 2 2 2 2 2
          2 2 2 2 2 2
          2 2 2 2 2 2
          2 2 2 2 2 2
          2 2 2 2 2 2
          2 2 2 2 2 2
          2 2 2 2 2 2
          2 2 2 2 2 2
          2 2 2 2 2 2
          2 2 2 2 2 2
          2 2 2 2 2 2
          2 2 2 2 2 2
          2 2 2 2 2 2
          2 2 2 2 2 2
          2 2 2 2 2 2
          2 2 2 2 2 2
          2 2 2 2 2 2
          2 2 2 2 2 2
          2 2 2 2 2 2
          2 2 2 2 2 2
          2 2 2 2 2 2
          2 2 2 2 2 2
          2 2 2 2 2 2
          2 2 2 2 2 2
          2 2 2 2 2 2
          2 2 2 2 2 2
          2 2 2 2 2 2
          2 2 2 2 2 2
          2 2 2 2 2 2
          2 2 2 2 2 2
          2 2 2 2 2 2
          2 2 2 2 2 2
          2 2 2 2 2 2
          2 2 2 2 0 0
          0 0.5 0 0.25 1 1
          1 1 0 1 1 0.5
          2 2 2 2 2 2
          2 2 2 2 0 1
          1 2 1.75 2 2 2
          2 2 2 2 2 2
          2 2 2 2 2 2
          2 2 2 2 2 2
          2 2 2 2 2 2
          2 2 2 2 2 2
          2 2 2 2 2 2
          2 2 2 2 2 2
          2 2
        </DataArray>
        <DataArray type="Float64" Name="markers_norefine" format="ascii" RangeMin="0" RangeMax="2">
          0 0 0 0 0 0
          0 0 0 0 0 0
          0 0 0 0 0 0
          0 0 0 0 0 0
          0 2 0 0 0 0
          0 0 0 0 0 0
          0 0 0 0 0 0
          0 0 0 0 0 0
          0 0 0 0 0 0
          0 0 0 0 0 0
          0 0 0 0 0 0
          0 0 0 0 0 0
          0 0 0 0 0 0
          1.5 0.75 0.5 0.25 0 2
          2 1 0 0 0 0
          0 0 0 0 0 0
          0 0 0 0 0 0
          0 0 0 0 0 0
          0 0 0 0 0 0
          0 0 0 0 0 0
          0 0 0 0 0 0
          0 0 0 0 0 0
          0 0 0 0 0 0
          0 0 0 0 0 0
          0 0 0 0 0 0
          0 0 0 0 0 0
          0 0 0 0 0 0
          0 0 0 0 0 0
          0 0 0 0 0 0
          0 0 0 0 0 0
          0 0 0 0 0 0
          0 0 0 0 0 0
          0 0 0 0 0 0
          0 0 0 0 0 0
          0 0 0 0 0 0
          0 0 0 0 0 0
          0 0 0 0 0 0
          0 0 0 0 0 0
          0 0 0 0 0 0
          0 0 0 0 0 0
          0 0 0 0 0 0
          0 0 0 0 0 0
          0 0 0 0 0 0
          0 0 0 0 0 0
          0 0 0 0 0 0
          0 0 0 0 0 0
          0 0 0 0 0 0
          0 0 0 0 0 0
          0 0 0 0 0 0
          0 0 0 0 0 0
          0 0 0 0 0 0
          0 0 0 0 0 0
          0.5 0.25 0 1.25 0 0
          0 0 0 0 1 1
          0.5 0.5 0 0.25 0 0
          0 0 0 0 0 2
          2 1.75 2 2 2 1.5
          1.5 1.25 0.75 2 2 2
          1.5 0.75 1 0.25 0 0
          0 0.5 0 0 0 0
          0 0 0 0 0 0
          0 0 0 0 0 0
          0 0 0 0 0 0
          0 0 0 0 0 0
          0 0 0 0 0.5 0.5
          0 0 0.25 0 1 1
          0 0.5 0 0 0 0
          0 0 0 0 0 0
          0 0 0 0 0 0
          0 0 0 0 0 0
          0 0 0 0 0 0
          0 0 0 0 0 0
          0 0 0 0 0 0
          0 0 0 0 0 0
          0 0 0 0 0 0
          0 0 0 0 0 0
          0 0 0 0 0 0
          0 0 0 0 0 0
          0 0 1 0.75 0.25 2
          1.75 1.25 0 0 0 0.5
          0 0 2 2 2 2
          2 2 1 0 0 1
          0 0
        </DataArray>
        <DataArray type="Float64" Name="markers_mustrefine" format="ascii" RangeMin="0" RangeMax="2">
          0 2 0 0 2 2
          0 0 0 0 0 0
          0 0 0 0 0 0
          0 2 1.5 1.25 2 2
          2 2 2 0 0 0
          0 0.5 0.5 2 0 0
          0 0 0 0 0 0
          0 0 2 2 2 0
          0 0 0 0 0 0
          0 0 0 2 2 2
          1.5 2 2 2 2 2
          2 2 2 2 2 2
          2 2 2 2 2 2
          2 2 2 2 2 2
          2 2 2 2 2 2
          2 2 2 0 1 1
          1 2 0 1 2 2
          2 2 2 0 0 1
          1 0 1 1 0 1
          1 2 2 2 2 0
          0 1 1 0 1 1
          0 1 1 2 2 2
          2 0 1 0 1 1
          2 2 0 1 0 1
          0 1 1 2 2 2
          0 0 1 1 0 1
          1 0 1 1 2 2
          2 2 0 0 1 1
          0 1 1 0 1 1
          2 2 2 2 0 1
          0 1 0 1 1 2
          2 2 0 1 0 0.75
          0 1 0.5 2 1.75 2
          2 2 2 2 2 2
          2 2 2 2 2 2
          2 2 2 2 2 2
          2 2 2 2 2 2
          2 2 2 2 2 2
          2 2 2 2 2 2
          2 2 2 2 2 2
          2 2 2 2 2 2
          2 2 2 2 2 2
          2 2 2 2 2 2
          2 2 2 2 2 2
          2 2 2 2 2 2
          2 2 2 2 2 2
          2 2 2 2 2 2
          2 2 2 2 2 2
          2 2 2 2 2 2
          2 2 2 2 2 2
          2 2 2 2 2 2
          2 2 2 2 2 2
          2 2 2 2 2 2
          2 2 2 2 2 2
          2 2 2 2 2 2
          2 2 2 2 2 2
          2 2 2 2 2 2
          2 2 2 2 2 2
          2 2 2 2 2 2
          2 2 2 2 2 2
          2 2 2 2 2 2
          2 2 2 2 2 2
          2 2 2 2 2 2
          2 2 2 2 2 2
          2 2 2 2 2 2
          2 2 2 2 2 2
          2 2 2 2 2 2
          2 2 2 2 2 2
          2 2 2 2 2 2
          2 2 2 2 0 0
          0 0.5 0 0.25 1 1
          1 1 0 1 1 0.5
          2 2 2 2 2 2
          2 2 2 2 0 1
          1 2 1.75 2 2 2
          2 2 2 2 2 2
          2 2 2 2 2 2
          2 2 2 2 2 2
          2 2 2 2 2 2
          2 2 2 2 2 2
          2 2 2 2 2 2
          2 2 2 2 2 2
          2 2
        </DataArray>
        <DataArray type="Float64" Name="gradient_marker" format="ascii" RangeMin="0" RangeMax="1">
          0.75 0.5 1 1 1 1
          1 1 1 1 0 0.5
          1 1 1 1 1 1
          1 1 1 1 1 1
          1 1 1 0 0 0
          0.5 0.5 0.5 0.5 1 1
          1 1 1 1 1 1
          1 1 1 1 1 1
          1 1 1 1 1 1
          1 1 1 1 1 1
          1 1 1 1 1 1
          1 1 1 1 1 1
          1 1 1 1 1 1
          1 1 1 1 1 1
          1 1 1 1 1 1
          1 1 1 1 1 1
          1 1 1 1 1 1
          1 1 1 1 1 1
          1 1 1 1 1 1
          1 1 1 1 1 1
          1 1 1 1 1 1
          1 1 1 1 1 1
          1 1 1 1 1 1
          1 1 1 1 1 1
          1 1 1 1 1 1
          1 1 1 1 1 1
          1 1 1 1 1 1
          1 1 1 1 1 1
          1 1 1 1 1 1
          1 1 1 1 1 1
          1 1 1 1 1 1
          1 1 1 1 1 1
          1 1 1 1 1 1
          1 1 1 1 1 1
          1 1 1 1 1 1
          1 1 1 1 1 1
          1 1 1 1 1 1
          1 1 1 1 1 1
          1 1 1 1 1 1
          1 1 1 1 1 1
          1 1 1 1 1 1
          1 1 1 1 1 1
          1 1 1 1 1 1
          1 1 1 1 1 1
          1 1 1 1 1 1
          1 1 1 1 1 1
          1 1 1 1 1 1
          1 1 1 1 1 1
          1 1 1 1 1 1
          1 1 1 1 1 1
          1 1 1 1 1 1
          1 1 1 1 1 1
          1 1 1 1 1 1
          1 1 1 1 1 1
          1 1 1 1 1 1
          1 1 1 1 1 1
          1 1 1 1 1 1
          1 1 1 1 1 1
          1 1 1 1 1 1
          1 1 1 1 1 1
          1 1 1 1 1 1
          1 1 1 1 1 1
          1 1 1 1 1 1
          1 1 1 1 1 1
          1 1 1 1 1 1
          1 1 1 1 1 1
          1 1 1 1 1 1
          1 1 1 1 1 1
          1 1 1 1 1 1
          1 1 1 1 0.75 0.5
          0 0.25 0.5 0.25 0 0
          0 0 0 0 0 0.5
          0 0 0.5 0 0.5 0.75
          0.75 0.5 0.625 0.375 1 1
          1 1 1 1 1 1
          1 1 1 1 1 1
          1 1 1 1 1 1
          1 1 1 1 1 1
          1 1 1 1 1 1
          1 1 1 1 1 1
          1 1 1 1 1 1
          1 1 1 1 1 1
          1 1
        </DataArray>
        <DataArray type="Float64" Name="gradient_matprop_marker" format="ascii" RangeMin="0" RangeMax="0">
          0 0 0 0 0 0
          0 0 0 0 0 0
          0 0 0 0 0 0
          0 0 0 0 0 0
          0 0 0 0 0 0
          0 0 0 0 0 0
          0 0 0 0 0 0
          0 0 0 0 0 0
          0 0 0 0 0 0
          0 0 0 0 0 0
          0 0 0 0 0 0
          0 0 0 0 0 0
          0 0 0 0 0 0
          0 0 0 0 0 0
          0 0 0 0 0 0
          0 0 0 0 0 0
          0 0 0 0 0 0
          0 0 0 0 0 0
          0 0 0 0 0 0
          0 0 0 0 0 0
          0 0 0 0 0 0
          0 0 0 0 0 0
          0 0 0 0 0 0
          0 0 0 0 0 0
          0 0 0 0 0 0
          0 0 0 0 0 0
          0 0 0 0 0 0
          0 0 0 0 0 0
          0 0 0 0 0 0
          0 0 0 0 0 0
          0 0 0 0 0 0
          0 0 0 0 0 0
          0 0 0 0 0 0
          0 0 0 0 0 0
          0 0 0 0 0 0
          0 0 0 0 0 0
          0 0 0 0 0 0
          0 0 0 0 0 0
          0 0 0 0 0 0
          0 0 0 0 0 0
          0 0 0 0 0 0
          0 0 0 0 0 0
          0 0 0 0 0 0
          0 0 0 0 0 0
          0 0 0 0 0 0
          0 0 0 0 0 0
          0 0 0 0 0 0
          0 0 0 0 0 0
          0 0 0 0 0 0
          0 0 0 0 0 0
          0 0 0 0 0 0
          0 0 0 0 0 0
          0 0 0 0 0 0
          0 0 0 0 0 0
          0 0 0 0 0 0
          0 0 0 0 0 0
          0 0 0 0 0 0
          0 0 0 0 0 0
          0 0 0 0 0 0
          0 0 0 0 0 0
          0 0 0 0 0 0
          0 0 0 0 0 0
          0 0 0 0 0 0
          0 0 0 0 0 0
          0 0 0 0 0 0
          0 0 0 0 0 0
          0 0 0 0 0 0
          0 0 0 0 0 0
          0 0 0 0 0 0
          0 0 0 0 0 0
          0 0 0 0 0 0
          0 0 0 0 0 0
          0 0 0 0 0 0
          0 0 0 0 0 0
          0 0 0 0 0 0
          0 0 0 0 0 0
          0 0 0 0 0 0
          0 0 0 0 0 0
          0 0 0 0 0 0
          0 0 0 0 0 0
          0 0 0 0 0 0
          0 0 0 0 0 0
          0 0
        </DataArray>
        <DataArray type="Float64" Name="combo" format="ascii" RangeMin="0" RangeMax="2">
          0.75 0.5 1 1 1 1
          1 1 1 1 0 0.5
          1 1 1 1 1 1
          1 1 1 1 1 1
          1 2 1 0 0 0
          0.5 0.5 0.5 0.5 1 1
          1 1 1 1 1 1
          1 1 1 1 1 1
          1 1 1 1 1 1
          1 1 1 1 1 1
          1 1 1 1 1 1
          1 1 1 1 1 1
          1 1 1 1 1 1
          1.75 1.375 1.25 1.125 1 2
          2 1.5 1 1 1 1
          1 1 1 1 1 1
          1 1 1 1 1 1
          1 1 1 1 1 1
          1 1 1 1 1 1
          1 1 1 1 1 1
          1 1 1 1 1 1
          1 1 1 1 1 1
          1 1 1 1 1 1
          1 1 1 1 1 1
          1 1 1 1 1 1
          1 1 1 1 1 1
          1 1 1 1 1 1
          1 1 1 1 1 1
          1 1 1 1 1 1
          1 1 1 1 1 1
          1 1 1 1 1 1
          1 1 1 1 1 1
          1 1 1 1 1 1
          1 1 1 1 1 1
          1 1 1 1 1 1
          1 1 1 1 1 1