<?xml version="1.0"?>
<VTKFile type="UnstructuredGrid" version="0.1" byte_order="LittleEndian" header_type="UInt32" compressor="vtkZLibDataCompressor">
  <UnstructuredGrid>
    <Piece NumberOfPoints="494" NumberOfCells="289">
      <PointData>
        <DataArray type="Int32" Name="libmesh_node_id" format="ascii" RangeMin="626" RangeMax="3974">
          639 1016 1017 1018 1022 1040
          1041 1045 1046 1057 1058 1059
          1064 1230 1232 1646 1648 1649
          1650 1652 1654 1685 1691 1693
          1695 1697 1698 1699 1700 1701
          1702 1703 1704 1705 1706 1721
          1722 1726 1728 1730 1732 1734
          1735 1736 1738 1739 1740 1821
          1822 1825 1827 1829 1830 1831
          1832 1833 1834 1835 1836 1838
          1840 1842 1844 1846 1848 1850
          1852 2052 2053 2054 2055 2056
          2057 2058 2086 2091 2773 2774
          2777 2927 2961 2972 2973 2974
          2975 2976 2977 2978 2979 2980
          2981 2992 2993 2994 2995 2996
          2997 2998 2999 3000 3001 3009
          3010 3011 3012 3013 3014 3015
          3023 3024 3025 3026 3027 3028
          3029 3030 3031 3032 3033 3034
          3035 3036 3037 3038 3039 3040
          3041 3042 3043 3044 3045 3046
          3047 3048 3049 3050 3051 3052
          3053 3054 3055 3056 3057 3058
          3059 3060 3061 3062 3063 3064
          3065 3066 3067 3068 3069 3070
          3071 3072 3073 3074 3075 3076
          3077 3078 3079 3080 3081 3082
          3083 3084 3085 3086 3087 3088
          3089 3090 3091 3092 3093 3094
          3095 3096 3097 3189 3195 3196
          3199 3223 3229 3230 3233 3241
          3242 3243 3244 3245 3246 3247
          3255 3256 3257 3258 3259 3260
          3261 3269 3270 3271 3272 3273
          3274 3275 3283 3284 3285 3286
          3287 3288 3289 3290 3291 3292
          3293 3294 3295 3296 3297 3298
          3299 3300 3301 3302 3303 3304
          3305 3306 3307 3308 3309 3310
          3311 3312 3313 3315 3316 3317
          3318 3319 3320 3321 3322 3323
          3324 3325 3326 3327 3328 3329
          3330 3331 3332 3333 3334 3335
          3336 3337 3338 3339 3340 3341
          3343 3344 3345 3876 3877 3878
          3879 3880 3881 3882 3883 3884
          3885 3886 3887 3888 3889 3890
          3891 3892 3893 3894 3895 3913
          3914 3915 3916 3917 3918 3919
          3927 3928 3929 3930 3931 3932
          3933 3944 3945 3946 3947 3948
          3949 3950 3951 3952 3953 3954
          3955 3956 3957 3958 3959 3960
          3968 3969 3970 3971 3972 3973
          3974 959 1010 626 961 1012
          964 1013 637 1015 1225 628
          1001 1625 1440 1431 1626 1647
          1441 1627 1651 1445 1631 1020
          1653 1655 1819 1692 1820 1823
          1824 1826 1828 1839 1841 1639
          1640 1641 1645 1021 2084 1845
          2090 2707 2771 2708 2709 2772
          2775 2776 2712 2779 2778 2780
          2722 2852 2858 2966 2859 2968
          1674 2862 2970 1675 1690 2984
          2985 2988 2990 2886 2892 3003
          2893 3005 1679 2896 3007 1038
          1694 3017 3019 3021 1696 2760
          2919 2920 2923 1684 2770 2926
          2930 2953 2954 2957 1689 2960
          2964 2955 2956 3186 3187 3188
          3190 3191 3192 2962 3193 2963
          3194 3197 3198 3220 3221 3222
          3224 3225 3226 3227 3228 3231
          3232 3121 3127 3235 3128 3237
          1711 3131 3239 1712 1727 3249
          3251 3253 1729 3155 3161 3263
          3162 3265 1716 3165 3267 1044
          1731 3277 3279 3281 1733 3868
          3869 3872 3874 3907 3909 3911
          3921 3923 3925 1843 3936 3937
          3940 3942
        </DataArray>
        <DataArray type="Float64" Name="bounds" format="ascii" RangeMin="0" RangeMax="0">
          0 0 0 0 0 0
          0 0 0 0 0 0
          0 0 0 0 0 0
          0 0 0 0 0 0
          0 0 0 0 0 0
          0 0 0 0 0 0
          0 0 0 0 0 0
          0 0 0 0 0 0
          0 0 0 0 0 0
          0 0 0 0 0 0
          0 0 0 0 0 0
          0 0 0 0 0 0
          0 0 0 0 0 0
          0 0 0 0 0 0
          0 0 0 0 0 0
          0 0 0 0 0 0
          0 0 0 0 0 0
          0 0 0 0 0 0
          0 0 0 0 0 0
          0 0 0 0 0 0
          0 0 0 0 0 0
          0 0 0 0 0 0
          0 0 0 0 0 0
          0 0 0 0 0 0
          0 0 0 0 0 0
          0 0 0 0 0 0
          0 0 0 0 0 0
          0 0 0 0 0 0
          0 0 0 0 0 0
          0 0 0 0 0 0
          0 0 0 0 0 0
          0 0 0 0 0 0
          0 0 0 0 0 0
          0 0 0 0 0 0
          0 0 0 0 0 0
          0 0 0 0 0 0
          0 0 0 0 0 0
          0 0 0 0 0 0
          0 0 0 0 0 0
          0 0 0 0 0 0
          0 0 0 0 0 0
          0 0 0 0 0 0
          0 0 0 0 0 0
          0 0 0 0 0 0
          0 0 0 0 0 0
          0 0 0 0 0 0
          0 0 0 0 0 0
          0 0 0 0 0 0
          0 0 0 0 0 0
          0 0 0 0 0 0
          0 0 0 0 0 0
          0 0 0 0 0 0
          0 0 0 0 0 0
          0 0 0 0 0 0
          0 0 0 0 0 0
          0 0 0 0 0 0
          0 0 0 0 0 0
          0 0 0 0 0 0
          0 0 0 0 0 0
          0 0 0 0 0 0
          0 0 0 0 0 0
          0 0 0 0 0 0
          0 0 0 0 0 0
          0 0 0 0 0 0
          0 0 0 0 0 0
          0 0 0 0 0 0
          0 0 0 0 0 0
          0 0 0 0 0 0
          0 0 0 0 0 0
          0 0 0 0 0 0
          0 0 0 0 0 0
          0 0 0 0 0 0
          0 0 0 0 0 0
          0 0 0 0 0 0
          0 0 0 0 0 0
          0 0 0 0 0 0
          0 0 0 0 0 0
          0 0 0 0 0 0
          0 0 0 0 0 0
          0 0 0 0 0 0
          0 0 0 0 0 0
          0 0 0 0 0 0
          0 0
        </DataArray>
        <DataArray type="Float64" Name="gradient_error" format="ascii" RangeMin="1.0935101161988788e-10" RangeMax="1.3922618440091541e-8">
          6.136789021988504e-10 1.5568212016922692e-9 1.983503713806962e-9 6.948638784819545e-10 1.8415819018989595e-9 2.344612632874593e-9
          9.118892010084258e-10 6.125895644539477e-9 1.788161221851656e-9 2.1484980184730627e-9 1.6821598841576196e-9 7.47086089940243e-10
          1.1031436229592117e-9 1.6800005382623859e-9 6.164555005822735e-10 1.2059575485873745e-9 6.935461365979172e-10 1.2997415264196597e-9
          1.001450382110374e-9 9.678266516231847e-10 1.1875459004401563e-9 7.799069013012959e-10 1.0383569425838938e-9 7.423338231991008e-10
          2.433413046944704e-9 7.06292210008815e-10 6.481281413847015e-10 3.991548031992901e-10 3.791754468958477e-10 6.069029750924077e-10
          4.3670641155179757e-10 2.4725422665237827e-10 1.6234599351295374e-9 9.978076821707998e-10 5.687227921470721e-10 7.268330371921993e-9
          5.0158628583074065e-9 8.734400043257586e-9 4.384890096427484e-9 1.498679850747687e-9 5.3555916667375735e-9 3.0938855239658656e-9
          1.9946599964462594e-9 9.67761213048968e-10 3.859754610468018e-9 2.5379298910112493e-9 1.1706631246467653e-9 1.0915680577866674e-9
          8.904049178980556e-10 8.998112187522245e-10 8.980291592988032e-10 6.234449289711978e-10 5.082671447935825e-10 3.5128401459734073e-10
          2.8345931567183973e-10 3.719781672246614e-10 5.073663125845746e-10 2.809048818826872e-10 5.214736844124911e-10 8.209605411736711e-10
          9.536726945785585e-10 1.1114408405180825e-9 8.195989982087264e-10 7.337147861952769e-10 1.1234625706352175e-9 8.252240735853363e-10
          1.2477585168675802e-9 4.0809913727007574e-10 7.709747158572686e-10 2.3162326072045624e-10 4.3607018478616505e-10 3.4821988957825017e-10
          5.703659349407016e-10 3.2502432900682914e-10 5.541874838466977e-10 5.752300431971988e-10 4.711163916535989e-10 5.710433855692557e-10
          5.06026620276755e-10 4.2796076701232016e-10 1.3828256599129311e-9 8.387081722318412e-10 1.1163339010197015e-9 6.514821039483206e-10
          8.85423274804198e-10 6.070917857629481e-10 8.049172767800423e-10 6.320983053728582e-10 1.8176182121190236e-9 1.4821476501542077e-9
          1.2918606583114177e-9 4.249330719072565e-10 5.50325060610702e-10 3.311218786823712e-10 4.3068913594680387e-10 3.516684172511766e-10
          4.395201745919268e-10 3.447225120341562e-10 8.670774638871758e-10 6.869360462275484e-10 6.169878355778152e-10 2.8508547793346797e-9
          2.3812078794979414e-9 1.984972263122626e-9 1.6296597964301427e-9 4.267784627679129e-9 3.6455640280272697e-9 2.904921842659645e-9
          1.3071256968972483e-9 1.053321667009642e-9 8.122434881181652e-10 6.425606033199571e-10 1.8639012436975704e-9 1.5283861861469837e-9
          1.136104461552292e-9 5.08105266591293e-10 6.987923673424664e-10 3.932712082268011e-10 5.4506754480884e-10 3.630650392319751e-10
          4.943923337930447e-10 3.825885772351733e-10 1.1931439128140438e-9 9.450491284188836e-10 8.262181340678195e-10 2.9879364263395384e-10
          4.17999270171362e-10 2.237777146959712e-10 3.152997713862822e-10 2.1096674119094523e-10 2.9178429524922006e-10 2.191959837019344e-10
          7.351666847375059e-10 5.610599963917299e-10 5.001712355612743e-10 2.5109648196817093e-10 3.31840040776758e-10 1.8933538039922622e-10
          2.53477539959191e-10 2.0601855883000687e-10 2.6208629207148554e-10 1.9806369514200239e-10 5.400314955485132e-10 4.194513776893354e-10
          3.7667672429762804e-10 1.446846741297241e-10 1.9321608243484748e-10 1.0935101161988788e-10 1.4542321208836074e-10 1.186668675680319e-10
          1.5141026917895943e-10 1.145200393087423e-10 3.2095180149868585e-10 2.4175202630770156e-10 2.2046670597434819e-10 1.9573424280594153e-9
          1.5787606408141444e-9 1.320075690191352e-9 1.051309355273375e-9 3.0582544471007928e-9 2.513454656339083e-9 2.0065703078269212e-9
          1.2475422288133757e-9 9.650094933622553e-10 8.217149842292379e-10 6.297688509182917e-10 2.0205729469114014e-9 1.5871261930628327e-9
          1.286564906827546e-9 8.406049618810448e-10 6.612024941117715e-10 5.057390767704759e-10 3.9337192651561e-10 1.2373461117060093e-9
          9.852018394769447e-10 7.25197968922731e-10 5.111214120548753e-10 3.8810399193679757e-10 3.0071164722304456e-10 2.2632173754392558e-10
          7.699947010450614e-10 5.901658037453144e-10 4.3893248560382624e-10 5.450111913421803e-9 4.522640938545567e-9 3.663841599855876e-9
          6.101248524452437e-9 8.410677452439922e-9 7.090478995803306e-9 5.878955436707243e-9 7.369236102533173e-9 6.00015403430701e-9
          5.216954848784448e-9 3.9965172750215924e-9 3.4080070436612976e-9 7.739627529129229e-9 6.793646861225459e-9 5.074030876430489e-9
          2.5044410469657233e-9 2.0859115729211545e-9 1.4899757290824022e-9 1.2112988104055294e-9 3.1266489967020717e-9 2.63640074986778e-9
          1.8246395031632506e-9 8.97495800980606e-9 7.906114882552738e-9 5.8567459967831674e-9 5.099268216180024e-9 9.3958325388483e-9
          8.285202588516461e-9 6.137587082848807e-9 3.5841591560055185e-9 3.0456247150084506e-9 2.068362692759934e-9 1.7101155046031448e-9
          3.751913440477491e-9 3.1965263386051056e-9 2.1578801030895333e-9 4.454198793838455e-9 3.724735209426299e-9 2.8560310450031194e-9
          2.3454760177498695e-9 5.864740179059383e-9 4.967292964849297e-9 3.721758365113883e-9 3.04450746860349e-9 2.428856080431548e-9
          1.8843081916362812e-9 1.4792408651677412e-9 4.115929435837824e-9 3.327869692187478e-9 2.5142237718467006e-9 1.7117314870071638e-9
          1.3791785167467442e-9 9.73397977747543e-10 7.701108514692375e-10 2.1873080641796646e-9 1.7798103180317987e-9 1.2145633821520528e-9
          1.089076817016799e-9 8.420929879037882e-10 5.986758533413623e-10 1.4178035238059988e-9 1.1046386570623078e-9 7.568691831092307e-10
          6.853521379260946e-9 5.843499910911353e-9 4.3625668186326105e-9 3.6553440182422797e-9 7.187327592462831e-9 6.139261904479944e-9
          4.593973121991029e-9 4.883930384080544e-9 3.985300028411868e-9 2.992959360053858e-9 2.391298620003917e-9 5.145826925730127e-9
          4.213041269203855e-9 3.1686470926752074e-9 2.544536538997157e-9 2.083836845023262e-9 1.3935935853652717e-9 1.115600744400022e-9
          2.6769582324877035e-9 2.1971283408865526e-9 1.4600005038270542e-9 1.6697216237693786e-9 1.3076574189125562e-9 8.759629637900815e-10
          1.7640871437225848e-9 1.38409123583247e-9 9.204743677162838e-10 4.021870107825583e-10 4.847209994465017e-10 3.107443147325993e-10
          3.7703758892864564e-10 3.1619484279685996e-10 3.635662091008075e-10 2.8005694168298775e-10 6.602398867260201e-10 5.195140215975324e-10
          4.74975463215331e-10 2.408849427834709e-10 2.934339509822677e-10 1.8521558340610013e-10 2.2625417598214996e-10 1.8728720706283143e-10
          2.1693654742826587e-10 1.6676052746410783e-10 4.071418374394255e-10 3.156424430019365e-10 2.8750327072151033e-10 8.488474511594179e-10
          6.746583865911172e-10 6.059116187667713e-10 4.751797209799229e-10 1.0243127671399907e-9 8.217273785131446e-10 6.105315899320602e-10
          1.150818892826177e-9 9.301141989402043e-10 6.078910924189164e-10 5.484935716000216e-10 1.1974823683496129e-9 9.703932339659813e-10
          6.363897431935605e-10 3.2762451110275706e-10 3.3420478694977183e-10 2.9032870863868236e-10 2.933024910881929e-10 2.7938882972011627e-10
          2.6864123586240345e-10 2.480202422846753e-10 3.4078506279678656e-10 2.962762735377034e-10 2.5789364200469063e-10 5.316683028433068e-10
          4.138041146380695e-10 3.69919392757329e-10 2.851339551371944e-10 6.501121028602597e-10 5.069501722515378e-10 4.4834796327611403e-10
          7.374945183098099e-10 5.754430021729664e-10 5.070555717371551e-10 3.8711629360061466e-10 7.698007208879276e-10 6.006017716733231e-10
          5.288333487874197e-10 5.8883321229813e-9 2.719491116596944e-9 4.185164510516888e-9 4.410623989968806e-9 1.8499179913581484e-9
          4.735276589399609e-9 9.40158600142123e-10 1.0332386165217952e-9 6.275642546580378e-10 3.933793836589775e-9 5.934658830963216e-9
          5.104416717022928e-9 1.7149067392159204e-9 2.0786971346799225e-9 3.933293317144456e-9 1.4391796495465953e-9 1.6142662593506108e-9
          2.980152495909964e-9 1.1896173761606492e-9 1.6513139410403123e-9 2.677321606614617e-9 1.3794817539651999e-9 1.1690746617819365e-9
          1.4273760762010126e-9 1.7913380340939971e-9 1.8802817543866684e-9 1.2516735452705332e-9 1.5218782196840917e-9 1.140826327037755e-9
          1.5237631845456923e-9 1.4981146699589564e-9 1.870679609382565e-9 1.2956998583661787e-9 1.28632729345445e-9 5.650564771989433e-10
          6.997480484405635e-10 3.91977202661101e-10 7.035908262080924e-10 3.9962554593680805e-10 7.978933909689927e-10 7.013589938828364e-10
          8.743981675868096e-10 6.850368060749919e-10 5.660272315141496e-10 8.288969224846977e-10 6.717868805220931e-10 6.686229254886692e-10
          5.049484022404725e-10 5.877076301699911e-10 1.4079876649999686e-9 9.455791049552632e-10 1.1167656047910242e-9 9.455190205869817e-10
          9.380635816322842e-10 1.8157491575579948e-9 1.461391575998898e-9 1.4076733111438146e-9 1.172175288171269e-9 1.0291780556589036e-9
          2.8963939469469952e-9 2.4123036686118834e-9 2.214065330539792e-9 1.991976386068242e-9 1.602876664642393e-9 5.529496425451416e-10
          7.101188893751592e-10 5.686626406371593e-10 1.0977082508559113e-9 4.481492935578076e-9 3.8513522480910655e-9 3.3754888955731303e-9
          3.264494329670789e-9 2.4007877458420865e-9 6.682501990128809e-9 5.884203655725938e-9 4.931562085519063e-9 5.101509330824709e-9
          3.4374981867111867e-9 1.6182230407645872e-9 1.0305766108610567e-9 2.260597620488193e-9 1.4138642031144996e-9 5.758008419546368e-10
          9.324644789488056e-10 7.318115213412551e-10 1.6207763530205484e-9 1.2954426982536644e-9 3.4046614852698554e-10 5.646087807446739e-10
          1.0154437091068374e-9 2.7182011907528594e-9 2.2181626893669234e-9 4.341728400799303e-9 3.618585827967378e-9 1.7713098839366671e-9
          2.9480617887969656e-9 5.7127386254557735e-9 4.811653894461806e-9 8.583088363400472e-9 7.3223670324268685e-9 6.429352312230128e-9
          1.1273839561909763e-8 9.703609543029355e-9 8.504419948773305e-9 3.963951352551419e-9 6.131372970734343e-9 3.1871527589197654e-9
          5.026226036367741e-9 8.173266503021637e-9 6.771636548460083e-9 1.2429274366029398e-8 1.0839741560382335e-8 9.816427208418416e-9
          1.2465083243251753e-8 1.0962259384874282e-8 1.0186535476432254e-8 9.156475814796733e-9 7.612894141511785e-9 9.281591506698268e-9
          7.724014950831379e-9 9.46373296870667e-9 8.468873447365898e-9 6.800580606298569e-9 7.4434001243786846e-9 4.6341847614102324e-9
          1.2128068668941912e-8 1.1006229484560857e-8 8.681231154921563e-9 9.772217018621903e-9 5.797463321597864e-9 2.9818438310533405e-9
          1.824090958962858e-9 3.668767205123748e-9 2.2041908353993555e-9 1.359935227141448e-8 1.2500075117683188e-8 1.001253909755657e-8
          1.1216914461931096e-8 6.646187188134548e-9 1.3922618440091541e-8 1.286668934465055e-8 1.0455963211492895e-8 1.1605236766230781e-8
          6.952491576418477e-9 4.169226271104077e-9 2.4779187760894507e-9 4.35172826911348e-9 2.5776970454748268e-9 5.298488222837912e-10
          6.306003156206327e-10 4.794087593619869e-10 8.445016809287966e-10 1.0709864203172668e-9 7.775059045429674e-10 1.2748184724664673e-9
          1.4166254794933316e-9 7.733054652228662e-10 1.4679353017881436e-9 8.091701015679552e-10 4.238624338672898e-10 4.3392166607354246e-10
          3.3065927900416845e-10 4.439808982797952e-10
        </DataArray>
        <DataArray type="Float64" Name="gradient_matprop_error" format="ascii" RangeMin="0" RangeMax="0">
          0 0 0 0 0 0
          0 0 0 0 0 0
          0 0 0 0 0 0
          0 0 0 0 0 0
          0 0 0 0 0 0
          0 0 0 0 0 0
          0 0 0 0 0 0
          0 0 0 0 0 0
          0 0 0 0 0 0
          0 0 0 0 0 0
          0 0 0 0 0 0
          0 0 0 0 0 0
          0 0 0 0 0 0
          0 0 0 0 0 0
          0 0 0 0 0 0
          0 0 0 0 0 0
          0 0 0 0 0 0
          0 0 0 0 0 0
          0 0 0 0 0 0
          0 0 0 0 0 0
          0 0 0 0 0 0
          0 0 0 0 0 0
          0 0 0 0 0 0
          0 0 0 0 0 0
          0 0 0 0 0 0
          0 0 0 0 0 0
          0 0 0 0 0 0
          0 0 0 0 0 0
          0 0 0 0 0 0
          0 0 0 0 0 0
          0 0 0 0 0 0
          0 0 0 0 0 0
          0 0 0 0 0 0
          0 0 0 0 0 0
          0 0 0 0 0 0
          0 0 0 0 0 0
          0 0 0 0 0 0
          0 0 0 0 0 0
          0 0 0 0 0 0
          0 0 0 0 0 0
          0 0 0 0 0 0
          0 0 0 0 0 0
          0 0 0 0 0 0
          0 0 0 0 0 0
          0 0 0 0 0 0
          0 0 0 0 0 0
          0 0 0 0 0 0
          0 0 0 0 0 0
          0 0 0 0 0 0
          0 0 0 0 0 0
          0 0 0 0 0 0
          0 0 0 0 0 0
          0 0 0 0 0 0
          0 0 0 0 0 0
          0 0 0 0 0 0
          0 0 0 0 0 0
          0 0 0 0 0 0
          0 0 0 0 0 0
          0 0 0 0 0 0
          0 0 0 0 0 0
          0 0 0 0 0 0
          0 0 0 0 0 0
          0 0 0 0 0 0
          0 0 0 0 0 0
          0 0 0 0 0 0
          0 0 0 0 0 0
          0 0 0 0 0 0
          0 0 0 0 0 0
          0 0 0 0 0 0
          0 0 0 0 0 0
          0 0 0 0 0 0
          0 0 0 0 0 0
          0 0 0 0 0 0
          0 0 0 0 0 0
          0 0 0 0 0 0
          0 0 0 0 0 0
          0 0 0 0 0 0
          0 0 0 0 0 0
          0 0 0 0 0 0
          0 0 0 0 0 0
          0 0 0 0 0 0
          0 0 0 0 0 0
          0 0
        </DataArray>
        <DataArray type="Float64" Name="initial_marker" format="ascii" RangeMin="0" RangeMax="2">
          0 0 0 0 0 2
          2 2 2 0 0 0
          0 0 0 0 0 0
          0 0 0.5 2 2 1.5
          2 0.5 2 0.5 2 0
          1 0.5 2 2 2 2
          2 2 2 2 2 2
          2 2 2 2 2 0
          0 0 0.5 0 0 0
          0 0 0 0 0.5 0
          1 0 1 1 0 1
          0 0 0 0 0 0
          0 0 0 0 0 0.5
          0 2 2 2 2 2
          2 1 1.5 1.5 2 2
          2 0 1 0 1 0
          1 1 2 2 2 2
          2 2 2 2 2 2
          2 2 2 2 2 2
          2 2 2 2 2 1
          1.5 1.5 2 2 2 2
          2 2 2 1 1.5 1.5
          2 2 2 0 1 0
          0.75 0 1 0.5 2 1.75
          2 0 0.5 0 0.5 0
          0 0 1.5 1.5 0.6666666666666666 2
          2 2 2 2 2 2
          2 2 2 2 2 2
          2 2 2 2 1.75 2
          2 2 2 2 1.5 1.5
          2 2 2 2 2 2
          2 2 2 2 2 2
          2 2 2 2 2 2
          2 2 2 2 2 2
          2 2 2 2 2 2
          2 2 2 2 2 2
          2 2 2 2 2 2
          2 2 2 2 2 2
          2 2 2 2 2 2
          2 2 2 2 2 2
          2 2 2 2 2 2
          2 2 2 2 2 2
          2 2 2 2 2 2
          2 2 2 2 2 2
          2 2 2 2 2 2
          2 2 2 1 1 1
          1 0 0 0 1.5 1.5
          1 1 1 0.5 0.75 0
          0 0 1.5 1.5 1 2
          2 2 2 2 2 1.3333333333333333
          2 2 1.25 1.3333333333333333 2 2
          1.5 0 0.25 0 0 0
          0 0 0.5 0 0 2
          2 2 2 2 2 2
          2 2 2 2 2 2
          2 0 0 0 0 0
          0 0 0 0 0 0.25
          0 0 0 0.5 0 0
          0.25 0 0 0 1.75 1.5
          0.5 0 0 1.5 0 0
          0 0.5 0 1 0 0
          0 0 1.5 1.25 0 0
          0 0 0 1 1 0.5
          0 0 2 1.6666666666666667 1.5 1
          2 2 2 2 2 1.5
          2 2 2 2 2 0
          1 1 2 2 2 2
          2 2 2 2 2 2
          2 2 2 2 2 2
          2 2 2 2 2 2
          2 2 2 2 2 2
          2 2 2 2 2 2
          2 2 2 2 2 2
          2 2 2 2 2 2
          2 2 2 2 2 2
          2 2 2 2 2 2
          2 2 2 2 2 2
          2 2 2 2 2 2
          2 2 2 2 2 2
          2 2 2 2 2 1
          1 0 1.5 2 2 2
          2 1.5 2 2 0 0.5
          0 1
        </DataArray>
        <DataArray type="Float64" Name="markers_norefine" format="ascii" RangeMin="0" RangeMax="0">
          0 0 0 0 0 0
          0 0 0 0 0 0
          0 0 0 0 0 0
          0 0 0 0 0 0
          0 0 0 0 0 0
          0 0 0 0 0 0
          0 0 0 0 0 0
          0 0 0 0 0 0
          0 0 0 0 0 0
          0 0 0 0 0 0
          0 0 0 0 0 0
          0 0 0 0 0 0
          0 0 0 0 0 0
          0 0 0 0 0 0
          0 0 0 0 0 0
          0 0 0 0 0 0
          0 0 0 0 0 0
          0 0 0 0 0 0
          0 0 0 0 0 0
          0 0 0 0 0 0
          0 0 0 0 0 0
          0 0 0 0 0 0
          0 0 0 0 0 0
          0 0 0 0 0 0
          0 0 0 0 0 0
          0 0 0 0 0 0
          0 0 0 0 0 0
          0 0 0 0 0 0
          0 0 0 0 0 0
          0 0 0 0 0 0
          0 0 0 0 0 0
          0 0 0 0 0 0
          0 0 0 0 0 0
          0 0 0 0 0 0
          0 0 0 0 0 0
          0 0 0 0 0 0
          0 0 0 0 0 0
          0 0 0 0 0 0
          0 0 0 0 0 0
          0 0 0 0 0 0
          0 0 0 0 0 0
          0 0 0 0 0 0
          0 0 0 0 0 0
          0 0 0 0 0 0
          0 0 0 0 0 0
          0 0 0 0 0 0
          0 0 0 0 0 0
          0 0 0 0 0 0
          0 0 0 0 0 0
          0 0 0 0 0 0
          0 0 0 0 0 0
          0 0 0 0 0 0
          0 0 0 0 0 0
          0 0 0 0 0 0
          0 0 0 0 0 0
          0 0 0 0 0 0
          0 0 0 0 0 0
          0 0 0 0 0 0
          0 0 0 0 0 0
          0 0 0 0 0 0
          0 0 0 0 0 0
          0 0 0 0 0 0
          0 0 0 0 0 0
          0 0 0 0 0 0
          0 0 0 0 0 0
          0 0 0 0 0 0
          0 0 0 0 0 0
          0 0 0 0 0 0
          0 0 0 0 0 0
          0 0 0 0 0 0
          0 0 0 0 0 0
          0 0 0 0 0 0
          0 0 0 0 0 0
          0 0 0 0 0 0
          0 0 0 0 0 0
          0 0 0 0 0 0
          0 0 0 0 0 0
          0 0 0 0 0 0
          0 0 0 0 0 0
          0 0 0 0 0 0
          0 0 0 0 0 0
          0 0 0 0 0 0
          0 0
        </DataArray>
        <DataArray type="Float64" Name="markers_mustrefine" format="ascii" RangeMin="0" RangeMax="2">
          0 0 0 0 0 2
          2 2 2 0 0 0
          0 0 0 0 0 0
          0 0 0.5 2 2 1.5
          2 0.5 2 0.5 2 0
          1 0.5 2 2 2 2
          2 2 2 2 2 2
          2 2 2 2 2 0
          0 0 0.5 0 0 0
          0 0 0 0 0.5 0
          1 0 1 1 0 1
          0 0 0 0 0 0
          0 0 0 0 0 0.5
          0 2 2 2 2 2
          2 1 1.5 1.5 2 2
          2 0 1 0 1 0
          1 1 2 2 2 2
          2 2 2 2 2 2
          2 2 2 2 2 2
          2 2 2 2 2 1
          1.5 1.5 2 2 2 2
          2 2 2 1 1.5 1.5
          2 2 2 0 1 0
          0.75 0 1 0.5 2 1.75
          2 0 0.5 0 0.5 0
          0 0 1.5 1.5 0.6666666666666666 2
          2 2 2 2 2 2
          2 2 2 2 2 2
          2 2 2 2 1.75 2
          2 2 2 2 1.5 1.5
          2 2 2 2 2 2
          2 2 2 2 2 2
          2 2 2 2 2 2
          2 2 2 2 2 2
          2 2 2 2 2 2
          2 2 2 2 2 2
          2 2 2 2 2 2
          2 2 2 2 2 2
          2 2 2 2 2 2
          2 2 2 2 2 2
          2 2 2 2 2 2
          2 2 2 2 2 2
          2 2 2 2 2 2
          2 2 2 2 2 2
          2 2 2 2 2 2
          2 2 2 1 1 1
          1 0 0 0 1.5 1.5
          1 1 1 0.5 0.75 0
          0 0 1.5 1.5 1 2
          2 2 2 2 2 1.3333333333333333
          2 2 1.25 1.3333333333333333 2 2
          1.5 0 0.25 0 0 0
          0 0 0.5 0 0 2
          2 2 2 2 2 2
          2 2 2 2 2 2
          2 0 0 0 0 0
          0 0 0 0 0 0.25
          0 0 0 0.5 0 0
          0.25 0 0 0 1.75 1.5
          0.5 0 0 1.5 0 0
          0 0.5 0 1 0 0
          0 0 1.5 1.25 0 0
          0 0 0 1 1 0.5
          0 0 2 1.6666666666666667 1.5 1
          2 2 2 2 2 1.5
          2 2 2 2 2 0
          1 1 2 2 2 2
          2 2 2 2 2 2
          2 2 2 2 2 2
          2 2 2 2 2 2
          2 2 2 2 2 2
          2 2 2 2 2 2
          2 2 2 2 2 2
          2 2 2 2 2 2
          2 2 2 2 2 2
          2 2 2 2 2 2
          2 2 2 2 2 2
          2 2 2 2 2 2
          2 2 2 2 2 2
          2 2 2 2 2 1
          1 0 1.5 2 2 2
          2 1.5 2 2 0 0.5
          0 1
        </DataArray>
        <DataArray type="Float64" Name="gradient_marker" format="ascii" RangeMin="0.5" RangeMax="1">
          1 1 1 1 1 1
          1 1 1 1 1 1
          1 1 1 1 1 1
          1 1 1 1 1 1
          1 1 1 1 1 1
          1 1 1 1 1 1
          1 1 1 1 1 1
          1 1 1 1 1 1
          1 1 1 1 1 1
          1 1 1 1 1 1
          1 1 1 1 1 1
          1 1 1 1 1 1
          1 1 1 1 1 1
          1 1 1 1 1 1
          1 1 1 1 1 1
          1 1 1 1 1 1
          1 1 1 1 1 1
          1 1 1 1 1 1
          1 1 1 1 1 1
          1 1 1 1 1 1
          1 1 1 1 1 1
          1 1 1 1 1 1
          1 1 1 1 1 1
          1 1 1 1 1 1
          1 1 1 1 1 1
          1 1 1 1 1 1
          1 1 1 1 1 1
          1 1 1 1 1 1
          1 1 1 1 1 1
          1 1 1 1 1 1
          1 1 1 1 1 1
          1 1 1 1 1 1
          1 1 1 1 1 1
          1 1 1 1 1 1
          1 1 1 1 1 1
          1 1 1 1 1 1
          1 1 1 1 1 1
          1 1 1 1 1 1
          1 1 1 1 1 1
          1 1 1 1 1 1
          1 1 1 1 1 1
          1 1 1 1 1 1
          1 1 1 1 1 1
          1 1 1 1 1 1
          1 1 1 1 1 1
          1 1 1 1 1 1
          1 1 1 1 1 1
          1 1 1 1 1 1
          1 1 1 1 1 1
          1 1 1 1 1 1
          1 1 1 1 1 1
          1 1 1 1 1 1
          1 1 1 1 1 1
          1 1 1 1 1 1
          1 1 1 1 1 1
          1 0.5 1 0.75 0.5 1
          0.5 1 1 1 0.5 0.5
          0.5 1 0.5 0.5 1 1
          0.5 1 1 0.5 1 1
          1 1 1 1 1 1
          1 1 1 1 1 1
          1 1 1 1 1 1
          1 1 1 1 1 1
          1 1 1 1 1 1
          1 1 1 1 1 1
          1 1 1 1 1 1
          1 1 1 1 1 1
          1 1 1 1 1 1
          1 1 1 1 1 1
          1 1 1 1 1 1
          1 1 1 1 1 1
          1 1 1 1 1 1
          1 1 1 1 1 1
          1 1 1 1 1 1
          1 1 1 1 1 1
          1 1 1 1 1 1
          1 1 1 1 1 1
          1 1 1 1 1 1
          1 1 1 1 1 1
          1 1 1 1 1 1
          1 1 1 1 1 1
          1 1 1 1 1 1
          1 1
        </DataArray>
        <DataArray type="Float64" Name="gradient_matprop_marker" format="ascii" RangeMin="0" RangeMax="0">
          0 0 0 0 0 0
          0 0 0 0 0 0
          0 0 0 0 0 0
          0 0 0 0 0 0
          0 0 0 0 0 0
          0 0 0 0 0 0
          0 0 0 0 0 0
          0 0 0 0 0 0
          0 0 0 0 0 0
          0 0 0 0 0 0
          0 0 0 0 0 0
          0 0 0 0 0 0
          0 0 0 0 0 0
          0 0 0 0 0 0
          0 0 0 0 0 0
          0 0 0 0 0 0
          0 0 0 0 0 0
          0 0 0 0 0 0
          0 0 0 0 0 0
          0 0 0 0 0 0
          0 0 0 0 0 0
          0 0 0 0 0 0
          0 0 0 0 0 0
          0 0 0 0 0 0
          0 0 0 0 0 0
          0 0 0 0 0 0
          0 0 0 0 0 0
          0 0 0 0 0 0
          0 0 0 0 0 0
          0 0 0 0 0 0
          0 0 0 0 0 0
          0 0 0 0 0 0
          0 0 0 0 0 0
          0 0 0 0 0 0
          0 0 0 0 0 0
          0 0 0 0 0 0
          0 0 0 0 0 0
          0 0 0 0 0 0
          0 0 0 0 0 0
          0 0 0 0 0 0
          0 0 0 0 0 0
          0 0 0 0 0 0
          0 0 0 0 0 0
          0 0 0 0 0 0
          0 0 0 0 0 0
          0 0 0 0 0 0
          0 0 0 0 0 0
          0 0 0 0 0 0
          0 0 0 0 0 0
          0 0 0 0 0 0
          0 0 0 0 0 0
          0 0 0 0 0 0
          0 0 0 0 0 0
          0 0 0 0 0 0
          0 0 0 0 0 0
          0 0 0 0 0 0
          0 0 0 0 0 0
          0 0 0 0 0 0
          0 0 0 0 0 0
          0 0 0 0 0 0
          0 0 0 0 0 0
          0 0 0 0 0 0
          0 0 0 0 0 0
          0 0 0 0 0 0
          0 0 0 0 0 0
          0 0 0 0 0 0
          0 0 0 0 0 0
          0 0 0 0 0 0
          0 0 0 0 0 0
          0 0 0 0 0 0
          0 0 0 0 0 0
          0 0 0 0 0 0
          0 0 0 0 0 0
          0 0 0 0 0 0
          0 0 0 0 0 0
          0 0 0 0 0 0
          0 0 0 0 0 0
          0 0 0 0 0 0
          0 0 0 0 0 0
          0 0 0 0 0 0
          0 0 0 0 0 0
          0 0 0 0 0 0
          0 0
        </DataArray>
        <DataArray type="Float64" Name="combo" format="ascii" RangeMin="0.5" RangeMax="1">
          1 1 1 1 1 1
          1 1 1 1 1 1
          1 1 1 1 1 1
          1 1 1 1 1 1
          1 1 1 1 1 1
          1 1 1 1 1 1
          1 1 1 1 1 1
          1 1 1 1 1 1
          1 1 1 1 1 1
          1 1 1 1 1 1
          1 1 1 1 1 1
          1 1 1 1 1 1
          1 1 1 1 1 1
          1 1 1 1 1 1
          1 1 1 1 1 1
          1 1 1 1 1 1
          1 1 1 1 1 1
          1 1 1 1 1 1
          1 1 1 1 1 1
          1 1 1 1 1 1
          1 1 1 1 1 1
          1 1 1 1 1 1
          1 1 1 1 1 1
          1 1 1 1 1 1