<?xml version="1.0"?>
<VTKFile type="UnstructuredGrid" version="0.1" byte_order="LittleEndian" header_type="UInt32" compressor="vtkZLibDataCompressor">
  <UnstructuredGrid>
    <Piece NumberOfPoints="744" NumberOfCells="481">
      <PointData>
        <DataArray type="Int32" Name="libmesh_node_id" format="ascii" RangeMin="851" RangeMax="6026">
          851 859 957 1385 1387 1390
          1395 1409 1411 1415 1439 1441
          1449 1453 1454 1459 1460 2215
          2216 2217 2218 2219 2220 2221
          2225 2226 2227 2229 2230 2231
          2232 2233 2234 2235 2239 2240
          2241 2331 2332 2333 2334 2337
          2338 2339 2341 2342 2343 2344
          2347 2348 2349 2365 2366 2367
          2368 2371 2372 2373 2375 2376
          2377 2378 2381 2382 2383 2521
          2522 2523 2524 2525 2526 2527
          2530 2531 2532 2533 2559 2560
          2561 2562 2564 2565 2566 2567
          2569 2570 2573 2575 2576 2578
          2596 2597 2598 2599 2600 2601
          2602 2603 2604 2605 2606 2607
          2610 2612 2613 2615 3839 3840
          3841 3844 3847 3849 3850 3851
          3852 3853 3854 3855 3856 3857
          3858 3859 3860 3861 3862 3865
          3866 3871 3873 3874 3875 3876
          3880 3881 3883 3884 3885 3886
          3887 3888 3889 3890 3891 3892
          3893 3894 3895 3896 3897 3898
          3899 3900 3901 3902 3903 3904
          3905 3906 3907 3908 3909 3910
          3911 3912 3913 3914 3918 3919
          3921 3922 3923 3924 3928 3929
          4360 4361 4363 4366 4368 4369
          4370 4371 4372 4373 4374 4375
          4376 4377 4379 4383 4385 4386
          4389 4390 4394 4395 4397 4400
          4402 4403 4404 4405 4406 4407
          4408 4409 4410 4411 4413 4417
          4419 4420 4423 4424 4426 4427
          4428 4429 4430 4431 4432 4433
          4434 4435 4436 4437 4438 4439
          4440 4441 4442 4443 4444 4445
          4446 4447 4450 4451 4453 4454
          4457 4458 4460 4461 4462 4463
          4464 4465 4466 4467 4468 4469
          4470 4471 4472 4473 4474 4475
          4476 4477 4478 4479 4480 4481
          4484 4485 4487 4488 4491 4492
          4608 4609 4611 4614 4616 4617
          4618 4619 4620 4621 4622 4623
          4624 4625 4627 4631 4633 4634
          4637 4638 4642 4643 4645 4648
          4650 4651 4652 4653 4654 4655
          4656 4657 4658 4659 4661 4665
          4667 4668 4671 4672 4674 4675
          4676 4677 4678 4679 4680 4681
          4682 4683 4684 4685 4686 4687
          4688 4689 4690 4691 4692 4693
          4708 4709 4710 4711 4712 4713
          4714 4715 4716 4717 4718 4719
          4720 4721 4722 4723 4724 4725
          4726 4727 5443 5444 5445 5446
          5447 5448 5449 5450 5451 5452
          5453 5454 5455 5456 5457 5458
          5459 5460 5461 5462 5463 5464
          5465 5466 5467 5468 5469 5470
          5471 5472 5473 5474 5478 5479
          5481 5482 5483 5484 5485 5486
          5487 5488 5489 5525 5526 5527
          5528 5529 5530 5531 5532 5533
          5534 5535 5536 5537 5538 5539
          5540 5541 5542 5543 5544 5545
          5546 5549 5550 5552 5553 5556
          5557 5559 5560 5561 5562 5563
          5564 5565 5566 5567 5568 5569
          5570 5571 5572 5573 5574 5575
          5576 5577 5578 5579 5580 5583
          5584 5586 5587 5589 5590 5591
          5593 5594 5595 5596 5597 5598
          5599 5600 5601 5602 5618 5620
          5624 5625 5626 5637 5638 5639
          5640 5641 5642 5643 5644 5645
          5646 5657 5658 5659 5660 5661
          5662 5663 5713 5717 5773 5774
          5777 5778 5801 5802 5803 5804
          5805 5806 5807 5808 5809 5810
          5811 5812 5813 5814 5815 5816
          5817 5818 5819 5820 5822 5826
          5828 5829 5831 5832 5833 5834
          5835 5836 5837 5838 5839 5840
          5841 5842 5843 5844 5845 5846
          5847 5848 5849 5850 5851 5852
          5853 5854 5856 5858 5860 5862
          5863 5864 5865 5866 5867 5868
          5869 5870 5871 5872 5873 5874
          5875 5876 5877 5878 5889 5890
          5891 5892 5893 5894 5895 5903
          5904 5905 5906 5907 5908 5909
          5910 5911 5912 5923 5924 5925
          5926 5927 5928 5929 5942 5945
          5948 5949 5966 5970 5972 5973
          5976 5977 5993 5994 5997 5998
          6021 6022 6025 6026 1389 1386
          1391 1388 1440 1442 2222 2224
          2223 2236 2237 2238 2528 2529
          3877 3878 3869 3879 3882 2228
          1396 3915 3916 3917 3920 2242
          3925 3926 3927 3930 1397 4387
          4381 4388 4391 2335 2336 4421
          4415 4422 4425 2340 1410 4448
          4449 4452 2345 4455 4456 4459
          2346 4482 4483 4486 2350 4489
          4490 4493 1412 4635 4629 4636
          4639 2369 2370 4669 4663 4670
          4673 2374 1416 4694 4695 4696
          4697 4698 4699 4700 4701 4702
          4703 4704 4705 4706 4728 4729
          4730 4732 4733 4734 4735 4736
          4739 4740 5475 5476 5477 5480
          2534 5490 5547 5548 5551 2563
          5554 5558 5581 5582 5585 2568
          5588 5592 5712 5716 5821 5823
          5824 5825 5827 5830 5855 5857
          5859 5861 5938 5937 5941 5940
          5939 2616 5943 5944 5946 5950
          5947 2617 5965 5968 5967 5969
          2620 5971 5974 5975 5978 2621
        </DataArray>
        <DataArray type="Float64" Name="bounds" format="ascii" RangeMin="0" RangeMax="0">
          0 0 0 0 0 0
          0 0 0 0 0 0
          0 0 0 0 0 0
          0 0 0 0 0 0
          0 0 0 0 0 0
          0 0 0 0 0 0
          0 0 0 0 0 0
          0 0 0 0 0 0
          0 0 0 0 0 0
          0 0 0 0 0 0
          0 0 0 0 0 0
          0 0 0 0 0 0
          0 0 0 0 0 0
          0 0 0 0 0 0
          0 0 0 0 0 0
          0 0 0 0 0 0
          0 0 0 0 0 0
          0 0 0 0 0 0
          0 0 0 0 0 0
          0 0 0 0 0 0
          0 0 0 0 0 0
          0 0 0 0 0 0
          0 0 0 0 0 0
          0 0 0 0 0 0
          0 0 0 0 0 0
          0 0 0 0 0 0
          0 0 0 0 0 0
          0 0 0 0 0 0
          0 0 0 0 0 0
          0 0 0 0 0 0
          0 0 0 0 0 0
          0 0 0 0 0 0
          0 0 0 0 0 0
          0 0 0 0 0 0
          0 0 0 0 0 0
          0 0 0 0 0 0
          0 0 0 0 0 0
          0 0 0 0 0 0
          0 0 0 0 0 0
          0 0 0 0 0 0
          0 0 0 0 0 0
          0 0 0 0 0 0
          0 0 0 0 0 0
          0 0 0 0 0 0
          0 0 0 0 0 0
          0 0 0 0 0 0
          0 0 0 0 0 0
          0 0 0 0 0 0
          0 0 0 0 0 0
          0 0 0 0 0 0
          0 0 0 0 0 0
          0 0 0 0 0 0
          0 0 0 0 0 0
          0 0 0 0 0 0
          0 0 0 0 0 0
          0 0 0 0 0 0
          0 0 0 0 0 0
          0 0 0 0 0 0
          0 0 0 0 0 0
          0 0 0 0 0 0
          0 0 0 0 0 0
          0 0 0 0 0 0
          0 0 0 0 0 0
          0 0 0 0 0 0
          0 0 0 0 0 0
          0 0 0 0 0 0
          0 0 0 0 0 0
          0 0 0 0 0 0
          0 0 0 0 0 0
          0 0 0 0 0 0
          0 0 0 0 0 0
          0 0 0 0 0 0
          0 0 0 0 0 0
          0 0 0 0 0 0
          0 0 0 0 0 0
          0 0 0 0 0 0
          0 0 0 0 0 0
          0 0 0 0 0 0
          0 0 0 0 0 0
          0 0 0 0 0 0
          0 0 0 0 0 0
          0 0 0 0 0 0
          0 0 0 0 0 0
          0 0 0 0 0 0
          0 0 0 0 0 0
          0 0 0 0 0 0
          0 0 0 0 0 0
          0 0 0 0 0 0
          0 0 0 0 0 0
          0 0 0 0 0 0
          0 0 0 0 0 0
          0 0 0 0 0 0
          0 0 0 0 0 0
          0 0 0 0 0 0
          0 0 0 0 0 0
          0 0 0 0 0 0
          0 0 0 0 0 0
          0 0 0 0 0 0
          0 0 0 0 0 0
          0 0 0 0 0 0
          0 0 0 0 0 0
          0 0 0 0 0 0
          0 0 0 0 0 0
          0 0 0 0 0 0
          0 0 0 0 0 0
          0 0 0 0 0 0
          0 0 0 0 0 0
          0 0 0 0 0 0
          0 0 0 0 0 0
          0 0 0 0 0 0
          0 0 0 0 0 0
          0 0 0 0 0 0
          0 0 0 0 0 0
          0 0 0 0 0 0
          0 0 0 0 0 0
          0 0 0 0 0 0
          0 0 0 0 0 0
          0 0 0 0 0 0
          0 0 0 0 0 0
          0 0 0 0 0 0
          0 0 0 0 0 0
          0 0 0 0 0 0
          0 0 0 0 0 0
          0 0 0 0 0 0
        </DataArray>
        <DataArray type="Float64" Name="gradient_error" format="ascii" RangeMin="8.969450622637042e-12" RangeMax="1.0145783593968463e-8">
          3.007981170245661e-10 3.866287470680447e-9 1.2418070419335698e-10 8.587453074722544e-10 6.182830811514715e-10 1.723133817047795e-10
          3.923605983926952e-10 4.861872428906338e-9 2.1855237070972494e-9 4.905764035665512e-9 6.283165951442378e-11 4.4121229437718296e-11
          2.9682028393861805e-11 6.569869822374282e-10 4.470377389558694e-10 1.6918493429693495e-9 1.4398417211236718e-9 6.691139235352805e-10
          6.405699911291686e-10 4.411529365026893e-10 4.2132611737525197e-10 3.616301215592784e-10 2.5054408704251117e-10 2.391382835253287e-10
          6.328927629272848e-10 5.970032325453381e-10 3.6909446680328424e-10 2.0775378043313857e-10 1.9868529934591835e-10 1.3845678283563597e-10
          1.3202814814688675e-10 1.0366253553104675e-10 7.216725553440839e-11 6.882441630685409e-11 2.2843712351443966e-10 2.1446633259598483e-10
          1.1642263583561876e-10 2.2130123002468087e-9 2.075811143084235e-9 1.5167295244000875e-9 1.4159332885802864e-9 6.507955117509409e-9
          6.049988939119201e-9 4.502675123502363e-9 9.598990968112536e-10 8.921761593327508e-10 5.56839056534767e-10 5.157338390380726e-10
          3.3951908608277318e-9 3.1378290970857693e-9 2.006131868574039e-9 1.0145783593968463e-8 1.00502085085552e-8 9.003963138286719e-9
          8.697598186416881e-9 5.317595292086463e-9 6.236675574157333e-9 6.244312698483956e-9 6.9824646284844385e-9 6.520060232742166e-9
          4.684937995221887e-9 4.392460188412772e-9 5.475733077733514e-9 5.858571329406589e-9 4.008906904124128e-9 5.414781730188973e-11
          5.182557555837266e-11 3.608799783495023e-11 3.449754686057545e-11 2.3759007029562646e-11 1.6969216580807103e-11 2.3366873547794057e-11
          2.6518147508423952e-11 6.293383927997162e-11 5.893003256938912e-11 3.372521265658874e-11 2.9601123020827735e-10 2.735483400561178e-10
          1.44711837959085e-10 1.3350938992173228e-10 1.0509134589866836e-10 1.2659278632630732e-9 1.1547283306841741e-9 5.965271944984347e-10
          6.527068868286547e-11 6.016924833665536e-11 4.725478515486741e-11 3.07459061326412e-10 2.7840967727333e-10 2.0717622195450016e-10
          3.0051938970749504e-9 2.7922596063121014e-9 1.7072402261598975e-9 1.5692368893964132e-9 2.192243607687575e-9 1.1985583358243527e-9
          2.6940263657591267e-9 2.7415761161174707e-9 1.6659267977704555e-9 2.5114294802813746e-9 8.544589130097143e-10 7.790386012702541e-10
          5.829954810250801e-10 9.156503449429556e-10 8.810377147724581e-10 7.283062550959932e-10 2.1029275454670063e-10 3.209942236311939e-10
          3.165590852282038e-10 3.037448848174658e-10 6.237210383890072e-10 1.6294153578895036e-10 1.6068260375585515e-10 2.4901398819815774e-10
          2.45500262115231e-10 1.2154340071487528e-10 1.910066388485274e-10 1.8827195519181216e-10 1.5428200866272362e-10 2.3535249544843495e-10
          1.803713535998442e-10 5.01808202664277e-10 4.943478251542938e-10 3.864055432693911e-10 4.726432671182405e-10 1.8943877196745174e-10
          2.8371368352581885e-10 5.550387729545607e-10 1.444277115363968e-10 2.1950501426941198e-10 1.0909345257862806e-10 1.6803698835472337e-10
          4.38618335280392e-10 3.420028587948014e-10 9.284201393856289e-11 9.152571970703065e-11 1.4489083424904615e-10 1.4278799662905556e-10
          6.816843831413542e-11 1.0836854311874137e-10 1.0677780172180098e-10 8.780308124808484e-11 1.3672155178112453e-10 1.0219116848943154e-10
          3.0192126890839415e-10 2.97259314125291e-10 2.2485833516447958e-10 2.837159136595523e-10 5.025938404738232e-11 4.9540715486345736e-11
          7.955714533358605e-11 7.838136428604069e-11 3.5477295463986413e-11 5.748684324850629e-11 5.663462081964051e-11 4.747993305151458e-11
          7.497529132466608e-11 5.4150034532387073e-11 1.698968944786496e-10 1.6720320039762385e-10 1.221928533512113e-10 1.5938332509362332e-10
          8.208466008681999e-11 1.27266226032178e-10 6.108344030043745e-11 9.504902413582192e-11 2.6255023156984676e-10 1.9824111093895671e-10
          4.428006992588411e-11 6.965590216257716e-11 3.163339208965149e-11 5.0252458064047695e-11 1.4717996032670155e-10 1.0741508805772761e-10
          1.2073541761285478e-9 1.1889506951018088e-9 1.13540170636134e-9 2.177912022744353e-9 9.81133616101902e-10 9.65699169671934e-10
          7.840718910553879e-10 7.713888457873568e-10 9.208507603165182e-10 7.345808922005166e-10 1.8490316317366312e-9 1.8185807070254428e-9
          1.4908807411748392e-9 1.7301758876646816e-9 1.0514939047483783e-9 1.915934812470157e-9 8.507306602402273e-10 6.771726398188282e-10
          1.5921955784124823e-9 1.2992874399755998e-9 3.877726998846866e-9 3.812152540456539e-9 3.622945844194065e-9 6.39071360466245e-9
          3.322899514629055e-9 3.265907401643726e-9 2.801443653248794e-9 2.7518947212784714e-9 3.100815633265469e-9 2.608217412686712e-9
          5.676160295012606e-9 5.569238386909172e-9 4.769008519110546e-9 5.26187007129558e-9 3.3306805052522706e-9 5.519153495450536e-9
          2.8440409561138345e-9 2.3845180003857025e-9 4.790863477436456e-9 4.095929270433883e-9 6.151588509678396e-10 6.049637881620202e-10
          4.734702863007858e-10 4.654609700492108e-10 5.754111255278296e-10 4.4226552094624076e-10 1.2194512152099917e-9 1.19799507690054e-9
          9.424927194102866e-10 1.1358607251008417e-9 3.5740182147640734e-10 3.5125131735791604e-10 2.6459301121454173e-10 2.599795190911998e-10
          3.334531498964606e-10 2.4663237288094053e-10 7.392122553294239e-10 7.254600475185602e-10 5.462541387074791e-10 6.857556866675339e-10
          5.294273896080166e-10 4.062429399721006e-10 1.0394104184542836e-9 8.143211020058338e-10 3.0585226116487593e-10 2.2594475370118094e-10
          6.244867935164514e-10 4.687515987322725e-10 2.316034279007966e-9 2.2733953058255863e-9 1.8727292882713136e-9 1.8369438824089567e-9
          2.1499738774891335e-9 1.7335154675959411e-9 4.096034589362745e-9 4.017857956928536e-9 3.329028130106164e-9 3.792482171586399e-9
          1.4793873183018682e-9 1.4500979224666667e-9 1.1407144535956899e-9 1.1174199388496134e-9 1.3656517937464907e-9 1.0503555892194332e-9
          2.7576174092891996e-9 2.701837616194997e-9 2.1393066795949766e-9 2.5405395437931103e-9 1.9585494888490138e-9 1.5736843897083866e-9
          3.4450887829718855e-9 2.841794567246621e-9 1.235678108826008e-9 9.474609169668736e-10 2.291187401356402e-9 1.8015424109068054e-9
          9.558670334454665e-9 9.4174678403679e-9 8.989132412147833e-9 1.0129939390385052e-8 8.603044009746752e-9 8.463101525680421e-9
          7.57217930609529e-9 7.432250343162267e-9 8.039530387954484e-9 7.02107612834597e-9 9.615168327342177e-9 9.585471580258255e-9
          8.939378024739696e-9 9.44438498377578e-9 8.276050525629935e-9 9.777755505387371e-9 7.345494803278035e-9 6.374443484797898e-9
          9.0533905660796e-9 8.172776070126817e-9 7.3002916623689735e-9 7.47653492328178e-9 7.941165884672604e-9 5.568465301964037e-9
          6.971440452851962e-9 7.1726063025483046e-9 6.940739878197763e-9 7.15018316779259e-9 7.710390613810711e-9 7.621534850457438e-9
          4.807784713755325e-9 5.12966972086905e-9 5.295089009121171e-9 6.0414493532199456e-9 8.581095505787493e-9 7.3208643053950916e-9
          8.311221837911326e-9 7.961479023549918e-9 7.2474229176714146e-9 7.20221554257331e-9 6.481873466155706e-9 6.35380913404839e-9
          5.419639960357006e-9 5.312662889352048e-9 5.985383064950848e-9 5.004742601476119e-9 8.145014871862741e-9 8.039075662391386e-9
          6.866189844381952e-9 7.702298424857875e-9 4.461290027775413e-9 4.373851840088105e-9 3.617692417655515e-9 3.54528868661615e-9
          4.121148386169044e-9 3.3347994671888106e-9 5.745560797573341e-9 5.651770381821136e-9 4.611379258043948e-9 5.374910790926179e-9
          6.99895980105134e-9 7.111416447158493e-9 6.464230063075839e-9 6.4802185726426475e-9 7.300096454786334e-9 6.443788226426161e-9
          5.496148558237485e-9 5.776843603248551e-9 5.610821735909431e-9 6.378654597413121e-9 5.406937381866144e-9 5.401007420611609e-9
          4.4221312013334005e-9 4.416147546793908e-9 5.334595291130245e-9 4.366257668642325e-9 4.6943132921182256e-9 4.767096522269695e-9
          3.91719746948181e-9 4.890989198521403e-9 2.558608276735054e-11 2.52270180266323e-11 4.097650767986847e-11 4.036540413684696e-11
          1.7829992968107383e-11 2.876780355053074e-11 2.834176809754538e-11 2.4168641827836457e-11 3.858248922908735e-11 2.7087080741089452e-11
          8.919324755825742e-11 8.775568676275319e-11 6.190536144541002e-11 8.358111337279172e-11 1.2399296034236478e-11 1.2478144920960505e-11
          1.9798303985299784e-11 1.9471586544177597e-11 8.969450622637042e-12 1.3443402749680103e-11 1.317326915550024e-11 1.2372836536026817e-11
          1.8524973365292128e-11 1.3379231463027756e-11 4.360551963409796e-11 4.2850583194099637e-11 2.8980494381887796e-11 4.071997619279904e-11
          2.2503562016070156e-11 3.578987086985945e-11 1.6043332358166958e-11 2.511991245822107e-11 7.705611915834305e-11 5.429150201768095e-11
          1.1710165743666436e-11 1.7126724842336457e-11 1.0153198155440242e-11 1.3711189526239531e-11 1.0719634063529988e-11 1.5454762393694165e-11
          1.236382533873564e-11 3.7473745078483295e-11 2.986601663666272e-11 1.9215281008119947e-10 1.8877349573179849e-10 1.3692808900924787e-10
          1.3452546134220005e-10 1.789937648661219e-10 1.2754970432066003e-10 4.103771566529658e-10 4.0244764299131337e-10 2.90223030172663e-10
          3.795984152868164e-10 9.575716015526366e-11 9.416491514937414e-11 6.576262440315815e-11 6.471078836672779e-11 8.94457840033308e-11
          6.154253465943427e-11 2.090893656307911e-10 2.0495643776448545e-10 1.4182150171696313e-10 1.9305839117919282e-10 1.6382712023444256e-10
          1.166848683576813e-10 3.444744838053523e-10 2.4793360247476847e-10 8.188014168859014e-11 5.633686343246181e-11 1.7480780553037762e-10
          1.2078644230767787e-10 8.580466723679404e-10 8.40032435289457e-10 6.296033393656951e-10 6.160884960030382e-10 7.88266362359438e-10
          5.773126722233491e-10 1.6863165193373301e-9 1.6492838242828033e-9 1.2371831034598029e-9 1.5428246505356436e-9 4.50941154597361e-10
          4.4109367803862845e-10 3.1550710511822723e-10 3.085292448575078e-10 4.1287418161033857e-10 2.8855058669752715e-10 9.243752947338082e-10
          9.027954910570113e-10 6.413139264269467e-10 8.410240055205011e-10 7.091273475581393e-10 5.182073354283873e-10 1.3800160422037232e-9
          1.029182569305643e-9 3.699578251124457e-10 2.5821767108097806e-10 2.2128553376436257e-10 7.473493193628678e-10 5.288300542245792e-10
          4.4497971629534135e-11 4.370053604799302e-11 2.952062978854565e-11 2.8938196563803156e-11 4.138467290522085e-11 2.7293556202960158e-11
          9.815201127273016e-11 9.618175881058484e-11 6.395455900658624e-11 9.051396353117104e-11 3.774361178073893e-11 2.4804826834782824e-11
          8.183966375023762e-11 5.438029992013584e-11 7.11509958544435e-11 2.1584145744240319e-10 2.110231254415368e-10 1.4449284054751503e-10
          1.4124651408687516e-10 1.9723745683409162e-10 1.3196300382531954e-10 4.5501603903620455e-10 4.4398315241372174e-10 2.9991552322648564e-10
          4.124988190871581e-10 1.7633486431099997e-10 1.1789924624571218e-10 1.509293696401936e-10 1.0082656323495639e-10 3.650295477083087e-10
          2.460456014748637e-10 3.078730909527494e-10 1.8183663004283e-10 3.6071079809835627e-10 1.2384846510210738e-10 8.265423186655708e-11
          2.477884367050768e-10 1.664359058732394e-10 2.8687679801651366e-9 2.808256377100695e-9 2.2099117618146774e-9 2.160906558456541e-9
          2.6328332958239134e-9 2.019427664164606e-9 3.794097735246278e-9 3.732621221073312e-9 2.9517280691360806e-9 3.5478803935844166e-9
          1.6514771045822912e-9 1.61328059466981e-9 1.1973294977761405e-9 1.1686574914402176e-9 1.5033507107462216e-9 1.0863736364100272e-9
          2.3026506267597088e-9 2.2582501137353826e-9 1.6721800413248585e-9 2.1270709983409806e-9 1.801531317417819e-9 2.533066570526963e-9
          1.3350807728641979e-9 9.611036022037723e-10 8.085806821517863e-10 1.917080317932253e-9 1.406270869254125e-9 1.6456377239136296e-9
          3.6387980518107286e-9 3.6337062295307092e-9 2.9808831081496898e-9 2.9677796607304435e-9 3.590299444917596e-9 2.9074620053122027e-9
          3.2119286438527337e-9 3.2528241153320185e-9 2.7153747678635147e-9 3.3260129270051407e-9 2.357724818778194e-9 2.33961924002383e-9
          1.7967669330880418e-9 1.7783637138358665e-9 2.272381973521616e-9 1.7153222068008092e-9 2.1795561746457697e-9 2.1850766324287224e-9
          1.6893076369876903e-9 2.177035667490624e-9 2.757396203539498e-9 2.4924581439939956e-9 2.6928874533949372e-9 2.1307836017416808e-9
          1.5930778856612464e-9 1.902573837776663e-9 1.4071402362734136e-9 2.104525590946872e-9 1.5895328786776782e-9 1.9324390457782427e-9
          8.430650129994597e-10 8.22306576347683e-10 5.772896422967229e-10 5.627646158934593e-10 7.628796896566539e-10 5.212640398077466e-10
          1.2263386089087878e-9 1.1998024073396855e-9 8.351538729281156e-10 1.1223037588164559e-9 6.728210634428803e-10 4.586018847060692e-10
          5.63845644227482e-10 3.8315412259181485e-10 1.0007859780905707e-9 6.917693673353848e-10 8.477585040184412e-10 1.3232281461500578e-9
          1.306714607258548e-9 9.429949422989278e-10 9.293643229041331e-10 1.2527096236726075e-9 8.861460838452428e-10 1.2663644468119067e-9
          1.2601257397718263e-9 9.084192163311149e-10 1.2317027916855774e-9 1.1535670256649716e-9 8.098990289387526e-10 1.009194041237934e-9
          7.026147224900621e-10 1.1617473402245005e-9 8.225649972836956e-10 1.0396761863747127e-9 1.8016460021418411e-9 6.467192005320337e-10
          1.340011697955565e-9 9.682262410810356e-10 2.125363228625982e-9 2.1947921546819877e-9 1.6021427538940057e-9 1.1718040161812146e-9
          1.6641709385155608e-9 1.223748151543744e-9 4.4902579461775093e-10 3.0411509840127124e-10 6.802683149709259e-10 4.6525136473586815e-10
          8.322520795849871e-10 5.745935165563615e-10 8.734136774884396e-10 6.056693889537398e-10 2.122976154733446e-10 7.705011400684966e-10
          1.5141284622960722e-10 5.440013280248097e-10 5.716665034135673e-11 3.874719439599941e-11 5.641398317201557e-10 2.0838542046563026e-10
          3.6854111540528e-10 1.740727531276857e-10 1.1483517265745375e-10 5.977252316682768e-11 4.4873117224550855e-11 2.981739295519189e-11
          1.315946028213326e-10 1.990887799179974e-10 2.5785176354758334e-10 1.521724963426608e-10 3.9515189340330804e-10 5.012814798640001e-10
          3.0747775252811414e-10 7.46578134758105e-11 1.1512236304409412e-10 8.590434667423696e-11 2.3563640443850865e-10 1.7764349220247295e-10
          4.042408287321394e-11 6.291777564727894e-11 4.539471097950613e-11 1.316542048907273e-10 9.590149347561337e-11 7.615460453374599e-10
          9.443960239287632e-10 6.04414965860492e-10 1.4172493611274977e-9 1.712365755078361e-9 1.151980617594789e-9 2.5192720320362154e-9
          2.9627866048881225e-9 2.1021288606612026e-9 4.209517322057519e-9 4.856776988528662e-9 3.5923643588749e-9 4.713476506095749e-10
          3.6090340816456414e-10 9.181222377986243e-10 7.168516057427479e-10 2.712090736065534e-10 2.0000486820871584e-10 5.481090279924865e-10
          4.1038656600584156e-10 1.7182956675046576e-9 1.3742247665589719e-9 3.0108728770356618e-9 2.4707964704137388e-9 1.074283867100061e-9
          8.203439892869278e-10 1.9805273419583374e-9 1.5485845416191124e-9 6.440198497667323e-9 7.317162131465915e-9 5.561973137238568e-9
          8.289147199390983e-9 9.129270530638846e-9 7.3175520672316645e-9 8.487615808086625e-9 8.985373549171701e-9 7.774455500222846e-9
          8.061716171311297e-9 8.362808238694029e-9 7.552271003242463e-9 5.4203184259955376e-9 4.532421903271944e-9 4.722919493221209e-9
          3.946107322429724e-9 7.103618351471573e-9 5.967376570275922e-9 6.268452014370331e-9 3.729367922980124e-9 3.0060945602579496e-9
          3.235516886949224e-9 2.591248107724915e-9 4.9321231500697606e-9 4.03505179155336e-9 7.2584830663905595e-9 6.203230158047451e-9
          6.785570726797834e-9 6.804668964728619e-9 5.9167066890363034e-9 6.685686921592674e-9 5.120747942783686e-9 4.208883009081584e-9
          4.888369595370026e-9 4.0201162255532895e-9 2.0695920983109868e-11 3.231290881017052e-11 2.2665885963446977e-11 6.867652693446773e-11
          4.832618628940137e-11 3.335083699221976e-11 1.4479558748607604e-10 1.029985957143188e-10 3.0094256599381103e-10 2.162306239223056e-10
          7.220435479987333e-11 1.5225107809743056e-10 6.1184265130218e-10 4.458403179627547e-10 1.1800313699429264e-9 8.759651801085736e-10
          3.1757962750775895e-10 6.336619204483484e-10 2.614723500753161e-10 5.130346212511067e-10 2.360650528143018e-9 2.0205897992053428e-9
          1.5318982288569433e-9 3.2427854907997977e-9 2.832742494164267e-9 1.1286683168945247e-9 3.4481969517838324e-9 3.16214969921169e-9
          3.3240158032280808e-9 3.1578994569768642e-9 1.2401704128111946e-9 1.6484480834768243e-9 2.3522112031471894e-9 9.556809938324868e-10
          1.2808618858820658e-9 1.4018190205106717e-9 1.8502323488400073e-9 9.076750397355038e-10 6.945929961119953e-10 1.0326670327657153e-9
          4.921142800540617e-10 7.401049585959911e-10 2.735035380492151e-9 1.7005718020011821e-9 2.2184710968399596e-9 2.806864654184048e-9
          1.7878335968070369e-9 2.3214582416992966e-9 1.2661618495640062e-9 9.16086396622679e-10 1.336915773559821e-9 9.7109743701385e-10
        </DataArray>
        <DataArray type="Float64" Name="gradient_matprop_error" format="ascii" RangeMin="0" RangeMax="0">
          0 0 0 0 0 0
          0 0 0 0 0 0
          0 0 0 0 0 0
          0 0 0 0 0 0
          0 0 0 0 0 0
          0 0 0 0 0 0
          0 0 0 0 0 0
          0 0 0 0 0 0
          0 0 0 0 0 0
          0 0 0 0 0 0
          0 0 0 0 0 0
          0 0 0 0 0 0
          0 0 0 0 0 0
          0 0 0 0 0 0
          0 0 0 0 0 0
          0 0 0 0 0 0
          0 0 0 0 0 0
          0 0 0 0 0 0
          0 0 0 0 0 0
          0 0 0 0 0 0
          0 0 0 0 0 0
          0 0 0 0 0 0
          0 0 0 0 0 0
          0 0 0 0 0 0
          0 0 0 0 0 0
          0 0 0 0 0 0
          0 0 0 0 0 0
          0 0 0 0 0 0
          0 0 0 0 0 0
          0 0 0 0 0 0
          0 0 0 0 0 0
          0 0 0 0 0 0
          0 0 0 0 0 0
          0 0 0 0 0 0
          0 0 0 0 0 0
          0 0 0 0 0 0
          0 0 0 0 0 0
          0 0 0 0 0 0
          0 0 0 0 0 0
          0 0 0 0 0 0
          0 0 0 0 0 0
          0 0 0 0 0 0
          0 0 0 0 0 0
          0 0 0 0 0 0
          0 0 0 0 0 0
          0 0 0 0 0 0
          0 0 0 0 0 0
          0 0 0 0 0 0
          0 0 0 0 0 0
          0 0 0 0 0 0
          0 0 0 0 0 0
          0 0 0 0 0 0
          0 0 0 0 0 0
          0 0 0 0 0 0
          0 0 0 0 0 0
          0 0 0 0 0 0
          0 0 0 0 0 0
          0 0 0 0 0 0
          0 0 0 0 0 0
          0 0 0 0 0 0
          0 0 0 0 0 0
          0 0 0 0 0 0
          0 0 0 0 0 0
          0 0 0 0 0 0
          0 0 0 0 0 0
          0 0 0 0 0 0
          0 0 0 0 0 0
          0 0 0 0 0 0
          0 0 0 0 0 0
          0 0 0 0 0 0
          0 0 0 0 0 0
          0 0 0 0 0 0
          0 0 0 0 0 0
          0 0 0 0 0 0
          0 0 0 0 0 0
          0 0 0 0 0 0
          0 0 0 0 0 0
          0 0 0 0 0 0
          0 0 0 0 0 0
          0 0 0 0 0 0
          0 0 0 0 0 0
          0 0 0 0 0 0
          0 0 0 0 0 0
          0 0 0 0 0 0
          0 0 0 0 0 0
          0 0 0 0 0 0
          0 0 0 0 0 0
          0 0 0 0 0 0
          0 0 0 0 0 0
          0 0 0 0 0 0
          0 0 0 0 0 0
          0 0 0 0 0 0
          0 0 0 0 0 0
          0 0 0 0 0 0
          0 0 0 0 0 0
          0 0 0 0 0 0
          0 0 0 0 0 0
          0 0 0 0 0 0
          0 0 0 0 0 0
          0 0 0 0 0 0
          0 0 0 0 0 0
          0 0 0 0 0 0
          0 0 0 0 0 0
          0 0 0 0 0 0
          0 0 0 0 0 0
          0 0 0 0 0 0
          0 0 0 0 0 0
          0 0 0 0 0 0
          0 0 0 0 0 0
          0 0 0 0 0 0
          0 0 0 0 0 0
          0 0 0 0 0 0
          0 0 0 0 0 0
          0 0 0 0 0 0
          0 0 0 0 0 0
          0 0 0 0 0 0
          0 0 0 0 0 0
          0 0 0 0 0 0
          0 0 0 0 0 0
          0 0 0 0 0 0
          0 0 0 0 0 0
          0 0 0 0 0 0
          0 0 0 0 0 0
          0 0 0 0 0 0
        </DataArray>
        <DataArray type="Float64" Name="initial_marker" format="ascii" RangeMin="0" RangeMax="2">
          0 2 2 0 0 0
          2 2 2 2 0 0
          2 2 2 2 2 0
          0 0.5 0 0 0 0
          2 2 2 0 0 0
          0 0 0 0 2 2
          2 2 2 2 2 2
          2 2 2 2 2 2
          2 2 2 2 2 2
          2 2 2 2 2 2
          2 2 2 2 2 0
          0 0 0 0 0 0
          0 2 2 1.75 2 2
          2 2 2 2 2 2
          2 2 2 2 2 2
          2 2 2 2 2 2
          2 2 2 2 2 2
          2 2 2 2 0.5 1.5
          1.25 1 2 0 0 1
          1 0 1 1 0 1
          1 2 2 2 2 0
          1 2 0 1 0 1
          2 2 0 0 1 1
          0 1 1 0 1 1
          2 2 2 2 0 0
          1 1 0 1 1 0
          1 1 2 2 2 2
          0 1 0 1 2 2
          0 1 0 1 2 2
          2 2 2 2 2 2
          2 2 2 2 2 2
          2 2 2 2 2 2
          2 2 2 2 2 2
          2 2 2 2 2 2
          2 2 2 2 2 2
          2 2 2 2 2 2
          2 2 2 2 2 2
          2 2 2 2 2 2
          2 2 2 2 2 2
          2 2 2 2 2 2
          2 2 2 2 2 2
          2 2 2 2 2 2
          2 2 2 2 2 2
          2 2 2 2 2 2
          2 2 2 2 2 2
          2 2 2 2 2 2
          2 2 2 2 2 2
          2 2 2 2 2 2
          2 2 2 2 2 2
          2 2 2 2 2 2
          2 2 2 2 2 2
          2 2 2 2 2 2
          2 2 2 2 2 2
          2 2 2 2 2 2