<?xml version="1.0"?>
<VTKFile type="UnstructuredGrid" version="0.1" byte_order="LittleEndian" header_type="UInt32" compressor="vtkZLibDataCompressor">
  <UnstructuredGrid>
    <Piece NumberOfPoints="703" NumberOfCells="463">
      <PointData>
        <DataArray type="Int32" Name="libmesh_node_id" format="ascii" RangeMin="956" RangeMax="6731">
          958 964 1386 1388 1389 1391
          1396 1397 1398 1410 1412 1413
          1414 1416 1417 1418 1440 1442
          2222 2223 2224 2228 2236 2237
          2238 2242 2243 2244 2245 2246
          2247 2248 2250 2251 2252 2253
          2254 2255 2256 2260 2261 2262
          2335 2336 2340 2345 2346 2350
          2351 2352 2353 2354 2355 2356
          2357 2358 2359 2360 2361 2362
          2363 2364 2369 2370 2374 2379
          2380 2384 2385 2386 2387 2388
          2389 2390 2391 2392 2393 2394
          2395 2396 2397 2398 2453 2528
          2529 2534 2549 2550 2556 2558
          2563 2568 2579 2581 2985 3869
          3877 3878 3879 3882 3915 3916
          3917 3920 3925 3926 3927 3930
          3933 3934 3937 3939 3941 3942
          3943 3944 3945 3946 3947 3948
          3949 3950 3953 3954 3957 3959
          3961 3962 3963 3964 3965 3966
          3967 3968 3969 3970 3971 3972
          3973 3974 3975 3976 3977 3978
          3979 3980 3981 3982 3983 3984
          3985 3986 3987 3988 3989 3990
          3991 3992 3993 3994 3995 3996
          3997 3998 3999 4000 4001 4002
          4003 4004 4005 4006 4007 4008
          4009 4010 4381 4387 4388 4391
          4415 4421 4422 4425 4448 4449
          4452 4455 4456 4459 4482 4483
          4486 4489 4490 4493 4495 4497
          4499 4501 4502 4503 4504 4505
          4506 4507 4509 4511 4513 4515
          4516 4517 4518 4519 4520 4521
          4523 4525 4527 4529 4530 4531
          4532 4533 4534 4535 4537 4539
          4541 4543 4544 4545 4546 4547
          4548 4549 4550 4551 4552 4553
          4554 4555 4556 4557 4558 4559
          4560 4561 4562 4563 4564 4565
          4566 4567 4568 4569 4570 4571
          4572 4573 4574 4575 4576 4577
          4578 4579 4580 4581 4582 4583
          4584 4585 4586 4587 4588 4589
          4590 4591 4592 4593 4594 4595
          4596 4597 4598 4599 4600 4601
          4602 4603 4604 4605 4629 4635
          4636 4639 4663 4669 4670 4673
          4694 4695 4696 4697 4698 4699
          4700 4701 4702 4703 4704 4705
          4706 4707 4728 4729 4730 4731
          4732 4733 4734 4735 4736 4737
          4738 4739 4740 4741 4743 4745
          4747 4749 4750 4751 4752 4753
          4754 4755 4757 4759 4761 4763
          4764 4765 4766 4767 4768 4769
          4771 4773 4775 4777 4778 4779
          4780 4781 4782 4783 4785 4787
          4789 4791 4792 4793 4794 4795
          4796 4797 4798 4799 4800 4801
          4802 4803 4804 4805 4806 4807
          4808 4809 4810 4811 4812 4813
          4814 4815 4816 4817 4818 4819
          4820 4821 4822 4823 4824 4825
          4826 4827 4828 4829 4830 4831
          4832 4833 4834 4835 4836 4837
          4838 4839 4840 4841 4842 4843
          4844 4845 4846 4847 4848 4849
          4850 4851 4852 4853 5012 5013
          5018 5020 5021 5022 5023 5024
          5025 5027 5028 5029 5051 5055
          5057 5058 5059 5061 5062 5063
          5078 5079 5080 5081 5085 5086
          5088 5089 5090 5091 5095 5096
          5118 5119 5122 5123 5125 5126
          5129 5130 5217 5221 5223 5224
          5225 5227 5228 5229 5245 5249
          5251 5252 5253 5255 5256 5257
          5272 5273 5276 5277 5279 5280
          5283 5284 5300 5301 5304 5305
          5307 5308 5311 5312 5475 5476
          5477 5480 5490 5505 5506 5507
          5508 5509 5510 5511 5512 5513
          5514 5522 5524 5547 5548 5551
          5554 5558 5581 5582 5585 5588
          5592 5671 5672 5673 5674 5675
          5676 5677 5678 5680 5682 5684
          5685 5686 5687 5688 5689 5690
          5691 5692 5693 5694 5695 5696
          5699 5700 5702 5704 5705 5706
          5707 5708 5709 5710 5712 5714
          5716 5719 5720 5721 5722 5726
          5728 5821 5823 5824 5825 5827
          5830 5855 5857 5859 5861 5937
          5938 5941 5944 5965 5969 6545
          6546 6547 6548 6552 6553 6555
          6556 6562 6585 6586 6592 956
          1392 1394 1393 1446 1447 2249
          2257 2258 2259 2553 2554 2987
          2455 2992 2463 2994 2465 3026
          2712 5026 2456 5060 2461 5082
          5083 5084 5087 2464 5092 5093
          5094 5097 2466 5120 5121 5124
          2470 5127 5128 5131 2471 5226
          2494 5254 2498 5274 5275 5278
          2500 5281 5282 5285 2501 5302
          5303 5306 2504 5309 5310 5313
          2505 5711 2583 5718 5723 5724
          5725 2585 5730 5732 5939 5940
          5943 5946 5951 5953 5955 5957
          5967 5971 5979 5981 5983 5985
          6549 6550 6551 6554 2713 6559
          6560 6564 6587 6588 6589 6590
          6591 2719 6594 6596 6598 6697
          6699 6701 6703 6725 6727 6729
          6731
        </DataArray>
        <DataArray type="Float64" Name="bounds" format="ascii" RangeMin="0" RangeMax="0">
          0 0 0 0 0 0
          0 0 0 0 0 0
          0 0 0 0 0 0
          0 0 0 0 0 0
          0 0 0 0 0 0
          0 0 0 0 0 0
          0 0 0 0 0 0
          0 0 0 0 0 0
          0 0 0 0 0 0
          0 0 0 0 0 0
          0 0 0 0 0 0
          0 0 0 0 0 0
          0 0 0 0 0 0
          0 0 0 0 0 0
          0 0 0 0 0 0
          0 0 0 0 0 0
          0 0 0 0 0 0
          0 0 0 0 0 0
          0 0 0 0 0 0
          0 0 0 0 0 0
          0 0 0 0 0 0
          0 0 0 0 0 0
          0 0 0 0 0 0
          0 0 0 0 0 0
          0 0 0 0 0 0
          0 0 0 0 0 0
          0 0 0 0 0 0
          0 0 0 0 0 0
          0 0 0 0 0 0
          0 0 0 0 0 0
          0 0 0 0 0 0
          0 0 0 0 0 0
          0 0 0 0 0 0
          0 0 0 0 0 0
          0 0 0 0 0 0
          0 0 0 0 0 0
          0 0 0 0 0 0
          0 0 0 0 0 0
          0 0 0 0 0 0
          0 0 0 0 0 0
          0 0 0 0 0 0
          0 0 0 0 0 0
          0 0 0 0 0 0
          0 0 0 0 0 0
          0 0 0 0 0 0
          0 0 0 0 0 0
          0 0 0 0 0 0
          0 0 0 0 0 0
          0 0 0 0 0 0
          0 0 0 0 0 0
          0 0 0 0 0 0
          0 0 0 0 0 0
          0 0 0 0 0 0
          0 0 0 0 0 0
          0 0 0 0 0 0
          0 0 0 0 0 0
          0 0 0 0 0 0
          0 0 0 0 0 0
          0 0 0 0 0 0
          0 0 0 0 0 0
          0 0 0 0 0 0
          0 0 0 0 0 0
          0 0 0 0 0 0
          0 0 0 0 0 0
          0 0 0 0 0 0
          0 0 0 0 0 0
          0 0 0 0 0 0
          0 0 0 0 0 0
          0 0 0 0 0 0
          0 0 0 0 0 0
          0 0 0 0 0 0
          0 0 0 0 0 0
          0 0 0 0 0 0
          0 0 0 0 0 0
          0 0 0 0 0 0
          0 0 0 0 0 0
          0 0 0 0 0 0
          0 0 0 0 0 0
          0 0 0 0 0 0
          0 0 0 0 0 0
          0 0 0 0 0 0
          0 0 0 0 0 0
          0 0 0 0 0 0
          0 0 0 0 0 0
          0 0 0 0 0 0
          0 0 0 0 0 0
          0 0 0 0 0 0
          0 0 0 0 0 0
          0 0 0 0 0 0
          0 0 0 0 0 0
          0 0 0 0 0 0
          0 0 0 0 0 0
          0 0 0 0 0 0
          0 0 0 0 0 0
          0 0 0 0 0 0
          0 0 0 0 0 0
          0 0 0 0 0 0
          0 0 0 0 0 0
          0 0 0 0 0 0
          0 0 0 0 0 0
          0 0 0 0 0 0
          0 0 0 0 0 0
          0 0 0 0 0 0
          0 0 0 0 0 0
          0 0 0 0 0 0
          0 0 0 0 0 0
          0 0 0 0 0 0
          0 0 0 0 0 0
          0 0 0 0 0 0
          0 0 0 0 0 0
          0 0 0 0 0 0
          0 0 0 0 0 0
          0 0 0 0 0 0
          0 0 0 0 0 0
          0 0 0 0 0 0
          0 0 0 0 0 0
          0 0 0 0 0 0
          0
        </DataArray>
        <DataArray type="Float64" Name="gradient_error" format="ascii" RangeMin="1.1978371822683936e-11" RangeMax="9.129270530638846e-9">
          9.403654863072337e-11 1.6698530765848956e-9 7.705011400684966e-10 5.440013280248097e-10 2.122976154733446e-10 1.5141284622960722e-10
          3.0747775252811414e-10 9.590149347561337e-11 2.583617683072432e-10 3.5923643588749e-9 1.5485845416191124e-9 1.456080810092253e-9
          5.500361621819196e-10 7.552271003242463e-9 3.857394519236645e-9 3.7055843817214328e-9 5.716665034135673e-11 3.874719439599941e-11
          5.641398317201557e-10 3.6854111540528e-10 2.0838542046563026e-10 5.012814798640001e-10 1.740727531276857e-10 1.1483517265745375e-10
          5.977252316682768e-11 1.7764349220247295e-10 4.609251618590563e-10 2.978930668147078e-10 2.5729580739162633e-10 1.6705153156610945e-10
          3.475903596211289e-10 4.3658460309200214e-10 3.7426698982154263e-10 2.267707418083798e-10 4.4147474075235277e-10 1.396922932223934e-10
          9.144945897062705e-11 7.092027474538305e-11 6.562712714327969e-11 1.2984499928564264e-10 8.511597706316254e-11 1.4531220668886736e-10
          1.712365755078361e-9 1.151980617594789e-9 4.856776988528662e-9 7.168516057427479e-10 4.1038656600584156e-10 2.4707964704137388e-9
          1.2426691210870371e-9 8.176407931478942e-10 7.950506795449413e-10 5.086867765247406e-10 3.408405307920647e-9 2.469931330586599e-9
          2.0913811504488905e-9 4.995619571317875e-10 2.8198068786104485e-10 3.041516068992575e-10 1.6898626983602383e-10 1.6489400251793128e-9
          1.003375569311102e-9 9.349318512633064e-10 9.129270530638846e-9 7.3175520672316645e-9 8.362808238694029e-9 5.257910889872176e-9
          3.5547021977230493e-9 5.633370598185766e-9 6.667958204102856e-9 5.064783755041944e-9 4.00652772775327e-9 2.981087256728373e-9
          7.782462959308397e-9 5.996488678302675e-9 4.8906958478902705e-9 3.6148784868133706e-9 2.374635926387299e-9 2.046100629808374e-9
          1.2773621235257039e-9 4.313614571240871e-9 2.928337940559333e-9 2.608495655321206e-9 4.697170349580269e-10 4.4873117224550855e-11
          2.981739295519189e-11 4.832618628940137e-11 3.4448724844778616e-11 5.1123927682772984e-11 5.968589318711323e-11 6.528295590782386e-11
          2.162306239223056e-10 8.759651801085736e-10 1.4712543713096384e-10 8.721676373532673e-11 5.081523605384744e-10 2.5785176354758334e-10
          1.315946028213326e-10 1.990887799179974e-10 1.521724963426608e-10 3.9515189340330804e-10 7.46578134758105e-11 1.1512236304409412e-10
          8.590434667423696e-11 2.3563640443850865e-10 4.042408287321394e-11 6.291777564727894e-11 4.539471097950613e-11 1.316542048907273e-10
          1.538114900548645e-10 2.2804226446289196e-10 1.9661340272777555e-10 4.397800922303305e-10 1.1674873394662115e-10 1.756188899122207e-10
          8.793189748848018e-11 1.3397787254684403e-10 1.0213358044814982e-10 1.5098075392210374e-10 1.1491949367198387e-10 3.4559501828849866e-10
          2.682366874285305e-10 2.930428074174256e-10 1.2188299414882619e-10 1.6466094922873018e-10 1.4853763907444618e-10 3.069813385119913e-10
          9.214891506449138e-11 1.2590425006930883e-10 6.938265967762101e-11 9.567692396023278e-11 8.905400895336661e-11 1.1319878595711511e-10
          8.599415402971947e-11 2.393445266628185e-10 1.8465459822285337e-10 2.1588958851552347e-10 6.60907279125066e-11 1.0121303641618981e-10
          4.94023941847072e-11 7.546787480065828e-11 5.7663465984264125e-11 8.666022593174607e-11 6.451377283491731e-11 2.0512827026606147e-10
          1.543375467101298e-10 1.7299241929659284e-10 3.6510326608210116e-11 5.5174947791777684e-11 2.7132262206580676e-11 3.961190812688693e-11
          3.2630778439434277e-11 4.690542265424893e-11 3.6095067165626005e-11 1.1414615160864372e-10 8.263136772735401e-11 9.570235803443879e-11
          5.1973045148712814e-11 7.193355761586056e-11 3.884266920424271e-11 5.3493730534802835e-11 5.025757035525825e-11 6.450251762359228e-11
          4.7989743270255035e-11 1.404049063567741e-10 1.0514348489959222e-10 1.2616626874146082e-10 2.9254084035319037e-11 3.8780861526560276e-11
          2.567764814278762e-11 3.247956271092356e-11 2.7841419335810086e-11 3.483202694793765e-11 2.9517203422684246e-11 7.720766937079369e-11
          6.486215446797169e-11 6.938694383789823e-11 9.443960239287632e-10 7.615460453374599e-10 6.04414965860492e-10 1.4172493611274977e-9
          2.9627866048881225e-9 2.5192720320362154e-9 2.1021288606612026e-9 4.209517322057519e-9 4.713476506095749e-10 3.6090340816456414e-10
          9.181222377986243e-10 2.712090736065534e-10 2.0000486820871584e-10 5.481090279924865e-10 1.7182956675046576e-9 1.3742247665589719e-9
          3.0108728770356618e-9 1.074283867100061e-9 8.203439892869278e-10 1.9805273419583374e-9 8.226568693238783e-10 6.951989960190491e-10
          1.482128729958059e-9 6.606515765565423e-10 5.224717098938739e-10 5.556056044691263e-10 4.375897996861389e-10 1.220326723057649e-9
          9.870292322581052e-10 1.016740138079844e-9 5.71285558672503e-10 4.555120321837005e-10 1.0094286356736016e-9 4.541304923743872e-10
          3.5603132022276103e-10 3.5995379550917375e-10 2.8077722060043935e-10 8.200189460674553e-10 6.552719752410445e-10 6.408751365351493e-10
          2.5488949527981748e-9 2.1199387184828032e-9 4.134278055218162e-9 2.1544134794494745e-9 1.7867978841713843e-9 1.7787070425611137e-9
          1.464682852669366e-9 3.5735558334063654e-9 3.0362941234997877e-9 2.928656718183639e-9 1.7050414855185935e-9 1.3269611676015859e-9
          2.716907094368703e-9 1.4184009846692718e-9 1.1584739917733452e-9 1.093288936532394e-9 8.850427434006516e-10 2.3135043392092495e-9
          1.9327750853846464e-9 1.761559493200075e-9 4.062060407968936e-10 3.102800034462399e-10 3.3902049683293377e-10 2.582502077268424e-10
          7.830773972119075e-10 6.089412139222522e-10 6.453370319160686e-10 2.329317364041994e-10 1.7164913050395666e-10 1.937728705610699e-10
          1.4271539596521344e-10 4.639509681345864e-10 3.4630730295076845e-10 3.7908724005997596e-10 2.7470682079771026e-10 2.0851173165431696e-10
          2.1568699865352727e-10 1.6307837519260747e-10 5.142877874294149e-10 3.961622271194356e-10 3.968928945658686e-10 1.5595549485171853e-10
          1.144658555824484e-10 1.2134262550127468e-10 8.867776893814115e-11 2.9935188003926487e-10 2.2187741896062675e-10 2.288278982882424e-10
          1.451905590389031e-9 1.154538993234893e-9 1.1819107231712283e-9 9.33630690801663e-10 2.5291731119051287e-9 2.0608878296558163e-9
          2.0405357952779394e-9 8.976769097768188e-10 6.821901137953116e-10 7.215464476956241e-10 5.454622777527346e-10 1.640334742160605e-9
          1.2739287071979007e-9 1.3018554561646614e-9 9.275940813997248e-10 7.2752714980511e-10 7.029158411265354e-10 5.47296499286192e-10
          1.5816912913791174e-9 1.2663356609580638e-9 1.1793007770661293e-9 5.587039833150276e-10 4.200557811067362e-10 4.17612722430804e-10
          3.1227423111907794e-10 9.910065061366793e-10 7.57717489680759e-10 7.251063709062652e-10 7.317162131465915e-9 6.440198497667323e-9
          5.561973137238568e-9 8.289147199390983e-9 8.985373549171701e-9 8.487615808086625e-9 7.774455500222846e-9 8.061716171311297e-9
          5.4203184259955376e-9 4.532421903271944e-9 4.722919493221209e-9 3.946107322429724e-9 7.103618351471573e-9 5.967376570275922e-9
          6.268452014370331e-9 3.729367922980124e-9 3.0060945602579496e-9 3.235516886949224e-9 2.591248107724915e-9 4.9321231500697606e-9
          4.03505179155336e-9 4.3558227573762326e-9 7.2584830663905595e-9 6.203230158047451e-9 6.785570726797834e-9 5.700546709590132e-9
          6.804668964728619e-9 5.9167066890363034e-9 6.685686921592674e-9 5.120747942783686e-9 4.208883009081584e-9 4.723631372910159e-9
          3.8957888669157686e-9 4.888369595370026e-9 4.0201162255532895e-9 4.662467205117771e-9 6.201090668555397e-9 5.05720898964924e-9
          8.047323207404045e-9 5.4258405352751616e-9 4.673709422480432e-9 4.410996252461434e-9 3.787212117139612e-9 7.16160106884831e-9
          6.2228640457369884e-9 5.858038489816314e-9 3.9928792900745e-9 3.0503925571129383e-9 5.257147795474693e-9 3.4640808987531528e-9
          2.951941980769191e-9 2.6196882480499527e-9 2.2074045474516686e-9 4.6024850412160735e-9 3.969059101042463e-9 3.4870433209467813e-9
          8.670956737793126e-9 7.583001481592592e-9 8.582451326190878e-9 7.906386201813228e-9 6.966504816972898e-9 6.711940599229559e-9
          5.81137032443935e-9 7.926915344864986e-9 7.0501433367955575e-9 6.921370617844078e-9 6.094226987710552e-9 4.6688026442284e-9
          6.353375820202952e-9 5.344367785697055e-9 4.625251833792562e-9 4.08849404450858e-9 3.5239191310132437e-9 5.570914201750666e-9
          4.82184792157655e-9 4.2887315465433355e-9 3.961781190280457e-9 3.2971036555516753e-9 3.1930566872478755e-9 2.6359481284407554e-9
          5.302667975554057e-9 4.454718882164673e-9 4.314478495744964e-9 2.684311767424868e-9 2.131709947406918e-9 2.1256610845351924e-9
          1.6717519050331892e-9 3.6848830148508044e-9 2.983600568572044e-9 2.966387566143549e-9 2.465076870053367e-9 2.0134315994471557e-9
          1.8217498594458062e-9 1.4704955311789116e-9 3.3633666379059394e-9 2.79157339735362e-9 2.4973731476930303e-9 1.6061813432139074e-9
          1.2500475161573033e-9 1.1597092901549686e-9 8.930556384493766e-10 2.2632577701999458e-9 1.7890284248763608e-9 1.6369174845930307e-9
          5.947256457406717e-9 4.996708056470895e-9 4.956988855709776e-9 4.1792932665858015e-9 6.030540392791761e-9 5.0610238279182745e-9
          5.1109230273317255e-9 4.161258584767134e-9 3.41623243176947e-9 3.46834396049861e-9 2.8121266057980084e-9 4.219567812212105e-9
          3.4827189081023716e-9 3.5937635526448063e-9 3.947956637243565e-9 3.3098265662626335e-9 2.9796433078251605e-9 2.464760201286058e-9
          4.123061642929251e-9 3.468309345542372e-9 3.142982704785774e-9 2.7127383287517246e-9 2.1674775262954687e-9 1.990645585460514e-9
          1.5675192684972412e-9 2.8538182877891907e-9 2.289194198185992e-9 2.113747841043231e-9 2.535626553037826e-10 3.520824852733437e-10
          6.077711166045463e-10 1.9668910965756587e-10 2.7635976904258453e-10 1.5092119004868742e-10 2.1434970824667513e-10 1.4835663109877376e-10
          2.0657410308646955e-10 4.859681908590468e-10 3.83092574702801e-10 3.5786082221046123e-10 1.0002959429790503e-9 1.5556897605201527e-9
          8.157243169395531e-10 6.543297707377894e-10 5.904920922524935e-10 1.2946127609626292e-9 1.0579597940795018e-9 9.205536896161477e-10
          1.1446990564457723e-10 1.6395911497538384e-10 8.574032045959702e-11 1.235474667417266e-10 2.9710588766965625e-10 2.2647799729353192e-10
          6.300884580386469e-11 9.149770683965398e-11 4.559476557418781e-11 6.664866952136717e-11 1.6963988961239854e-10 1.248195506247478e-10
          5.15443560225695e-10 3.984366996906193e-10 8.477373654824104e-10 6.655143048689269e-10 3.021276042469481e-10 2.2472815132827036e-10
          5.116600958026964e-10 3.8520227996363305e-10 2.2475004617895274e-9 2.9467547834706925e-9 1.9052687675430445e-9 1.5847752348807511e-9
          1.3354642155749045e-9 2.533761797966246e-9 2.1374510882928096e-9 1.7648234377877428e-9 3.452589915343883e-9 3.630943634277044e-9
          2.9939102006768464e-9 2.547733867891193e-9 2.0888121501068405e-9 3.1571514991706464e-9 2.694449059313905e-9 2.2078525917139395e-9
          1.2913285886224563e-9 1.0296602145102733e-9 1.7658407516280598e-9 1.426653302722215e-9 8.028840525223083e-10 6.120566442308907e-10
          1.1260770623416747e-9 8.679157429406212e-10 2.123291508468557e-9 1.730199286100141e-9 2.2522076293793536e-9 1.8406558038565758e-9
          1.3767901105481739e-9 1.069077630749399e-9 1.4688360069967647e-9 1.1435522790276623e-9 2.0695920983109868e-11 3.231290881017052e-11
          2.2665885963446977e-11 6.867652693446773e-11 3.335083699221976e-11 1.996391171757484e-11 2.8226100552084717e-11 1.4254784981153432e-11
          1.9874390008423083e-11 2.0073775131311393e-11 2.5995447359198043e-11 1.839840416877547e-11 5.874805295893911e-11 4.123662977576262e-11
          5.60476767750173e-11 2.845790366640808e-11 2.7029983979459632e-11 1.4479558748607604e-10 1.029985957143188e-10 3.0094256599381103e-10
          7.220435479987333e-11 1.5225107809743056e-10 6.1184265130218e-10 4.458403179627547e-10 1.1800313699429264e-9 3.1757962750775895e-10
          6.336619204483484e-10 1.239553493218981e-10 8.790875965256812e-11 1.0268392748456986e-10 7.253269370818969e-11 2.533072701148805e-10
          1.8162486755644095e-10 2.056770155770907e-10 6.145230693356901e-11 5.050094466900102e-11 1.2767769851419374e-10 1.0324046079734168e-10
          5.4889668216261595e-11 8.206132510066249e-11 3.8137951302363656e-11 5.779207614721357e-11 4.2695745399465026e-11 6.34573698294211e-11
          4.4650587995352537e-11 1.613551752917902e-10 1.1513323717356714e-10 1.2251871257472102e-10 2.6295603922555798e-11 4.012546091504729e-11
          2.0502859177532178e-11 3.0972149973185594e-11 8.063542502303881e-11 6.095863089834363e-11 5.067331392603804e-10 3.680258165961291e-10
          4.03381382025778e-10 2.9191865813380525e-10 9.647172439315184e-10 7.123116383886815e-10 2.614723500753161e-10 2.0682220296628862e-10
          5.130346212511067e-10 3.092310810065155e-10 2.2296688465658086e-10 2.2885840569941055e-10 1.6442974628942108e-10 1.5751738451840733e-10
          1.158377028767e-10 2.360650528143018e-9 2.0205897992053428e-9 1.5318982288569433e-9 3.2427854907997977e-9 2.832742494164267e-9
          1.1286683168945247e-9 3.4481969517838324e-9 3.16214969921169e-9 3.3240158032280808e-9 3.1578994569768642e-9 1.6484480834768243e-9
          1.2401704128111946e-9 2.3522112031471894e-9 9.076750397355038e-10 2.735035380492151e-9 2.806864654184048e-9 3.23807797611449e-11
          4.770100980715183e-11 2.2785737262883657e-11 3.363708768948531e-11 9.022537444889753e-11 6.407742127672203e-11 1.585095243169601e-11
          2.333520601636149e-11 4.47661655899324e-11 1.6398658277710488e-10 1.1743067163272225e-10 8.259106550178035e-11 2.3345601694742027e-10
          5.524542524675602e-10 1.0420832677313302e-10 3.719585300103507e-10 4.373098625258682e-11 2.8767439617347e-11 2.46194211459362e-10
          1.0263559612750202e-10 1.3517827733578143e-10 8.842803429532335e-11 2.5889743939566935e-11 6.33766701598146e-11 2.871790218508597e-10
          2.7047077526089906e-10 1.5725067689746812e-10 1.501153898985011e-10 8.332811848034287e-11 7.953749958933178e-11 4.2649642307200045e-11
          4.0345939454700313e-11 1.5969418787045427e-10 2.8015848569770117e-10 4.693573395991616e-10 7.436371265186253e-10 8.599047404758259e-11
          1.2153261015214342e-10 9.106036786782546e-11 2.159806710946688e-10 1.6377702749011206e-10 4.6813847250300926e-11 6.72052051288998e-11
          4.887434700181219e-11 1.2213171161454692e-10 8.952767311347162e-11 3.66780246432898e-10 2.8153960420046277e-10 5.896550513476543e-10
          4.5857789124338615e-10 2.1219758397679836e-10 1.5702849649504881e-10 3.496677192376203e-10 2.6139823814734483e-10 1.0957607168059875e-9
          1.466688831407502e-9 1.7501524835582651e-9 1.8549889715207043e-9 8.814329517250996e-10 6.945179803978998e-10 1.1940978834504368e-9
          9.514171616722746e-10 5.358116757386868e-10 4.046939406563084e-10 7.414511158328773e-10 5.650472582738342e-10 1.4360656573474366e-9
          1.1526320037184688e-9 1.5261652454820533e-9 1.228057255638067e-9 9.043233093983015e-10 6.933390426891678e-10 9.65760607864983e-10
          7.420101640683039e-10 7.547033292811355e-10 5.540729315133569e-10 3.972363926012906e-10 5.660008821701551e-10 4.131588910228057e-10
          4.0811243930664094e-10 2.9627371999534905e-10 2.948607827348662e-10 2.1052578564987495e-10 1.2808618858820658e-9 9.556809938324868e-10
          1.8502323488400073e-9 6.945929961119953e-10 9.486164523505351e-10 6.71408137236042e-10 1.3772297730906894e-9 9.718103093397179e-10
          2.2184710968399596e-9 2.3214582416992966e-9 1.6857202856743079e-9 1.2025133787424633e-9 1.7871969589425107e-9 1.2848959151730492e-9
          2.4112371867553524e-11 3.4936420706339e-11 2.4611816792754565e-11 6.451844124293297e-11 4.569900450179594e-11 1.1978371822683936e-11
          1.7008135890953495e-11 3.1813268922111605e-11 1.1410160739801317e-10 8.14371940673597e-11 2.8401037402639193e-10 2.0512741186142106e-10
          1.91602704565836e-10 1.3772730112466156e-10 5.7183960924200357e-11 1.451571822899739e-10 9.708028469906808e-11 4.561755737952613e-10
          2.9927721761975046e-10 6.531458221154503e-10 4.2112625996181094e-10 8.098968710277279e-10 5.194832007036513e-10 8.683761538718675e-10
          5.569897094467945e-10
        </DataArray>
        <DataArray type="Float64" Name="gradient_matprop_error" format="ascii" RangeMin="0" RangeMax="0">
          0 0 0 0 0 0
          0 0 0 0 0 0
          0 0 0 0 0 0
          0 0 0 0 0 0
          0 0 0 0 0 0
          0 0 0 0 0 0
          0 0 0 0 0 0
          0 0 0 0 0 0
          0 0 0 0 0 0
          0 0 0 0 0 0
          0 0 0 0 0 0
          0 0 0 0 0 0
          0 0 0 0 0 0
          0 0 0 0 0 0
          0 0 0 0 0 0
          0 0 0 0 0 0
          0 0 0 0 0 0
          0 0 0 0 0 0
          0 0 0 0 0 0
          0 0 0 0 0 0
          0 0 0 0 0 0
          0 0 0 0 0 0
          0 0 0 0 0 0
          0 0 0 0 0 0
          0 0 0 0 0 0
          0 0 0 0 0 0
          0 0 0 0 0 0
          0 0 0 0 0 0
          0 0 0 0 0 0
          0 0 0 0 0 0
          0 0 0 0 0 0
          0 0 0 0 0 0
          0 0 0 0 0 0
          0 0 0 0 0 0
          0 0 0 0 0 0
          0 0 0 0 0 0
          0 0 0 0 0 0
          0 0 0 0 0 0
          0 0 0 0 0 0
          0 0 0 0 0 0
          0 0 0 0 0 0
          0 0 0 0 0 0
          0 0 0 0 0 0
          0 0 0 0 0 0
          0 0 0 0 0 0
          0 0 0 0 0 0
          0 0 0 0 0 0
          0 0 0 0 0 0
          0 0 0 0 0 0
          0 0 0 0 0 0
          0 0 0 0 0 0
          0 0 0 0 0 0
          0 0 0 0 0 0
          0 0 0 0 0 0
          0 0 0 0 0 0
          0 0 0 0 0 0
          0 0 0 0 0 0
          0 0 0 0 0 0
          0 0 0 0 0 0
          0 0 0 0 0 0
          0 0 0 0 0 0
          0 0 0 0 0 0
          0 0 0 0 0 0
          0 0 0 0 0 0
          0 0 0 0 0 0
          0 0 0 0 0 0
          0 0 0 0 0 0
          0 0 0 0 0 0
          0 0 0 0 0 0
          0 0 0 0 0 0
          0 0 0 0 0 0
          0 0 0 0 0 0
          0 0 0 0 0 0
          0 0 0 0 0 0
          0 0 0 0 0 0
          0 0 0 0 0 0
          0 0 0 0 0 0
          0 0 0 0 0 0
          0 0 0 0 0 0
          0 0 0 0 0 0
          0 0 0 0 0 0
          0 0 0 0 0 0
          0 0 0 0 0 0
          0 0 0 0 0 0
          0 0 0 0 0 0
          0 0 0 0 0 0
          0 0 0 0 0 0
          0 0 0 0 0 0
          0 0 0 0 0 0
          0 0 0 0 0 0
          0 0 0 0 0 0
          0 0 0 0 0 0
          0 0 0 0 0 0
          0 0 0 0 0 0
          0 0 0 0 0 0
          0 0 0 0 0 0
          0 0 0 0 0 0
          0 0 0 0 0 0
          0 0 0 0 0 0
          0 0 0 0 0 0
          0 0 0 0 0 0
          0 0 0 0 0 0
          0 0 0 0 0 0
          0 0 0 0 0 0
          0 0 0 0 0 0
          0 0 0 0 0 0
          0 0 0 0 0 0
          0 0 0 0 0 0
          0 0 0 0 0 0
          0 0 0 0 0 0
          0 0 0 0 0 0
          0 0 0 0 0 0
          0 0 0 0 0 0
          0 0 0 0 0 0
          0 0 0 0 0 0
          0 0 0 0 0 0
          0 0 0 0 0 0
          0
        </DataArray>
        <DataArray type="Float64" Name="initial_marker" format="ascii" RangeMin="0" RangeMax="2">
          1 2 0 0 0 0
          2 2 1.25 2 2 2
          2 2 2 2 0 0
          0 0 0 2 0 0
          0 2 0 0 0 0
          0 0 2 2 1.5 0
          0 0 0 2 1.5 1
          2 2 2 2 2 2
          2 2 2 2 2 2
          2 2 2 2 2 2
          2 2 2 2 2 2
          2 2 2 2 2 2
          2 2 2 2 2 2
          2 2 2 2 0.75 0
          0 2 0 0 1 1
          2 2 2 2 0 1
          0 1 1 2 0 1
          1 2 0 1 1 2
          0 1 1 2 0 1
          0 1 0 1 1 2
          2 2 0 1 1 2
          0 1 0 0.75 0 1
          0.5 2 1.75 2 0 1
          0 1 0 1 1 2
          2 2 0 1 0 1
          0 0.75 0.6666666666666666 2 2 1.75
          0 0.5 0 0.5 0 0
          0 1.5 1.5 1.3333333333333333 0 0.25
          0 0 0 0 0 1.25
          1.3333333333333333 1.3333333333333333 2 2 2 2
          2 2 2 2 2 2
          2 2 2 2 2 2
          2 2 2 2 2 2
          2 2 2 2 2 2
          2 2 2 2 2 2
          2 2 2 2 2 2
          2 2 2 2 2 2
          2 2 2 2 2 2
          2 2 2 2 2 2
          2 2 2 2 2 2
          2 2 2 2 2 2
          2 2 2 2 2 2
          2 2 2 2 2 2
          2 2 2 2 2 2
          2 2 2 2 2 2
          2 2 2 2 2 2
          2 2 2 2 2 2
          2 2 2 2 2 2
          2 2 2 2 2 2
          2 2 2 2 2 2
          2 2 2 2 2 2
          2 2 2 2 2 2
          2 2 2 2 2 2
          2 2 2 2 2 2
          2 2 2 2 2 2
          2 2 2 2 2 2
          2 2 2 2 2 2
          2 2 2 2 2 2
          2 2 2 2 2 2
          2 2 2 2 2 2
          2 2 2 2 2 2
          2 2 2 2 2 2
          2 2 2 2 2 2
          2 2 2 2 2 2
          2 2 2 2 2 2
          2 2 2 2 2 2
          2 2 2 2 2 2
          2 2 2 2 2 2
          2 2 2 2 2 2
          2 2 2 2 2 2
          2 2 2 2 2 2
          2 2 2 2 2 1
          1.5 2 2 2 2 2
          2 2 2 2 2 2
          2 2 2 2 2 2
          2 2 1.5 1.75 2 2
          2 2 2 2 2 2
          2 2 2 2 2 2
          2 2 2 2 2 2
          2 2 2 2 2 2
          2 2 2 2 2 2
          2 2 2 2 2 2
          2 2 2 2 0 1
          1 2 1.75 0 0.75 0
          0.5 0 0.5 0 1.75 1.5
          1.6666666666666667 1.25 1.3333333333333333 2 2 2
          2 2 2 2 2 2
          2 2 2 2 2 2
          2 2 2 2 2 2
          2 2 2 2 2 2
          2 2 2 2 2 2
          1.5 1.75 2 2 2 2
          2 2 2 2 2 2
          2 2 2 2 2 2
          2 2 2 2 2 2
          2 2 2 2 2 2
          2 2 2 2 2 1
          1.5 1 1.5 2 2 0.5
          1.25 2 2 2 2 0
          0 0 0 0 0 0
          0 0 0 0 0 0
          0.5 0 0.5 0 0.25 0
          0 1.5 2 2 2 1
          1.5 1.5 2 2 1 1.5
          1.25 2 2 2 2 2
          2 2 2 2 2 2
          2 2 2 2 2 2
          2 2 2 2 2 2
          2 2 2 2 2 2
          2 2 2 2 2 2
          2 2 2 2 2 2
          2 2 2 2 2 2