<?xml version="1.0"?>
<VTKFile type="UnstructuredGrid" version="0.1" byte_order="LittleEndian" header_type="UInt32" compressor="vtkZLibDataCompressor">
  <UnstructuredGrid>
    <Piece NumberOfPoints="725" NumberOfCells="469">
      <PointData>
        <DataArray type="Int32" Name="libmesh_node_id" format="ascii" RangeMin="770" RangeMax="4776">
          770 952 954 962 1343 1344
          1349 1371 1372 1373 1374 1375
          1376 1377 1381 1382 1383 1399
          1400 1401 1402 1405 1406 1407
          2087 2115 2116 2118 2121 2177
          2178 2179 2180 2181 2182 2183
          2184 2185 2186 2187 2188 2189
          2190 2191 2192 2193 2194 2195
          2196 2197 2198 2199 2200 2202
          2203 2205 2206 2207 2208 2212
          2213 2263 2264 2265 2266 2267
          2268 2269 2270 2271 2272 2273
          2274 2275 2276 2277 2278 2279
          2280 2281 2282 2283 2284 2287
          2288 2290 2291 2294 2295 2297
          2298 2299 2300 2301 2302 2303
          2304 2305 2306 2307 2308 2309
          2310 2311 2312 2313 2314 2315
          2316 2317 2318 2321 2322 2324
          2325 2328 2329 3520 3521 3522
          3523 3527 3528 3529 3539 3540
          3541 3620 3621 3622 3623 3624
          3625 3626 3627 3628 3629 3637
          3638 3639 3640 3641 3642 3643
          3654 3655 3656 3657 3658 3659
          3660 3661 3662 3663 3671 3672
          3673 3674 3675 3676 3677 3733
          3734 3735 3736 3737 3738 3753
          3754 3757 3758 3774 3775 3776
          3777 3778 3779 3780 3781 3782
          3783 3784 3785 3786 3787 3788
          3789 3790 3791 3792 3793 3794
          3795 3796 3797 3798 3799 3800
          3801 3802 3803 3804 3805 3806
          3807 3808 3809 3810 3811 3812
          3813 3814 3815 3816 3817 3818
          3819 3820 3835 3836 3837 3838
          3842 3843 3845 3846 3848 3863
          3864 3867 3868 3870 3872 3931
          3932 3935 3936 3938 3940 4011
          4012 4013 4014 4015 4016 4017
          4018 4019 4020 4021 4022 4023
          4024 4025 4026 4027 4028 4029
          4030 4031 4032 4033 4034 4035
          4036 4037 4038 4039 4040 4041
          4042 4043 4044 4045 4046 4047
          4048 4049 4050 4051 4052 4053
          4054 4055 4056 4057 4058 4059
          4060 4061 4062 4063 4064 4065
          4066 4067 4068 4069 4070 4071
          4072 4073 4074 4075 4076 4077
          4078 4079 4080 4081 4082 4083
          4084 4085 4086 4087 4088 4089
          4090 4091 4092 4093 4104 4105
          4106 4107 4108 4109 4110 4111
          4112 4113 4114 4115 4126 4127
          4128 4129 4130 4131 4132 4133
          4134 4135 4136 4137 4138 4139
          4140 4141 4142 4143 4144 4145
          4146 4147 4148 4149 4150 4151
          4152 4153 4154 4155 4156 4157
          4158 4159 4160 4161 4162 4163
          4164 4165 4166 4167 4168 4169
          4170 4171 4172 4173 4174 4175
          4176 4177 4178 4179 4180 4181
          4182 4183 4184 4185 4186 4187
          4188 4189 4190 4191 4192 4193
          4194 4195 4196 4197 4198 4199
          4200 4201 4202 4203 4204 4205
          4206 4207 4208 4209 4210 4211
          4212 4213 4214 4215 4216 4217
          4218 4219 4220 4221 4222 4223
          4224 4225 4226 4227 4228 4229
          4230 4231 4232 4233 4234 4235
          4236 4237 4238 4239 4240 4241
          4242 4243 4244 4245 4246 4247
          4248 4249 4250 4251 4252 4253
          4254 4255 4256 4257 4258 4259
          4260 4261 4262 4263 4264 4265
          4266 4267 4268 4269 4270 4271
          4272 4273 4274 4275 4282 4283
          4284 4285 4286 4287 4288 4289
          4290 4291 4292 4293 4294 4295
          4310 4311 4312 4313 4314 4315
          4316 4317 4318 4319 4320 4321
          4322 4323 4334 4335 4336 4337
          4338 4339 4340 4341 4342 4343
          4344 4345 4346 4347 4358 4359
          4362 4364 4365 4367 4378 4380
          4382 4384 4392 4393 4396 4398
          4399 4401 4412 4414 4416 4418
          4494 4496 4498 4500 4522 4524
          4526 4528 4606 4607 4610 4612
          4613 4615 4626 4628 4630 4632
          4640 4641 4644 4646 4647 4649
          4660 4662 4664 4666 4742 4744
          4746 4748 4770 4772 4774 4776
          840 1321 1322 1323 943 1329
          1385 1386 1387 1388 2079 2081
          2082 2080 2085 2086 2084 2083
          2088 2097 2096 2101 2100 2215
          2216 2217 2218 2222 2223 2243
          2244 1993 1999 3518 3612 3613
          3615 2113 3618 2114 3525 3631
          3633 3635 2117 3646 3647 3649
          2119 3652 2120 3665 3667 3669
          2122 3537 3727 3729 3731 3739
          2130 2131 3747 3755 3749 3756
          3751 3759 2134 2135 3839 3840
          3841 3844 2225 3847 2226 3865
          3866 3869 3871 2228 3933 3934
          3937 3939 2250 4360 4361 4363
          2331 4366 2332 4379 4381 4383
          2335 4394 4395 4397 2337 4400
          2338 4413 4415 4417 2340 4495
          4497 4499 2351 4523 4525 4527
          2355 4608 4609 4611 2365 4614
          2366 4627 4629 4631 2369 4642
          4643 4645 2371 4648 2372 4661
          4663 4665 2374 4743 4745 4747
          2385 4771 4773 4775 2389
        </DataArray>
        <DataArray type="Float64" Name="bounds" format="ascii" RangeMin="0" RangeMax="0">
          0 0 0 0 0 0
          0 0 0 0 0 0
          0 0 0 0 0 0
          0 0 0 0 0 0
          0 0 0 0 0 0
          0 0 0 0 0 0
          0 0 0 0 0 0
          0 0 0 0 0 0
          0 0 0 0 0 0
          0 0 0 0 0 0
          0 0 0 0 0 0
          0 0 0 0 0 0
          0 0 0 0 0 0
          0 0 0 0 0 0
          0 0 0 0 0 0
          0 0 0 0 0 0
          0 0 0 0 0 0
          0 0 0 0 0 0
          0 0 0 0 0 0
          0 0 0 0 0 0
          0 0 0 0 0 0
          0 0 0 0 0 0
          0 0 0 0 0 0
          0 0 0 0 0 0
          0 0 0 0 0 0
          0 0 0 0 0 0
          0 0 0 0 0 0
          0 0 0 0 0 0
          0 0 0 0 0 0
          0 0 0 0 0 0
          0 0 0 0 0 0
          0 0 0 0 0 0
          0 0 0 0 0 0
          0 0 0 0 0 0
          0 0 0 0 0 0
          0 0 0 0 0 0
          0 0 0 0 0 0
          0 0 0 0 0 0
          0 0 0 0 0 0
          0 0 0 0 0 0
          0 0 0 0 0 0
          0 0 0 0 0 0
          0 0 0 0 0 0
          0 0 0 0 0 0
          0 0 0 0 0 0
          0 0 0 0 0 0
          0 0 0 0 0 0
          0 0 0 0 0 0
          0 0 0 0 0 0
          0 0 0 0 0 0
          0 0 0 0 0 0
          0 0 0 0 0 0
          0 0 0 0 0 0
          0 0 0 0 0 0
          0 0 0 0 0 0
          0 0 0 0 0 0
          0 0 0 0 0 0
          0 0 0 0 0 0
          0 0 0 0 0 0
          0 0 0 0 0 0
          0 0 0 0 0 0
          0 0 0 0 0 0
          0 0 0 0 0 0
          0 0 0 0 0 0
          0 0 0 0 0 0
          0 0 0 0 0 0
          0 0 0 0 0 0
          0 0 0 0 0 0
          0 0 0 0 0 0
          0 0 0 0 0 0
          0 0 0 0 0 0
          0 0 0 0 0 0
          0 0 0 0 0 0
          0 0 0 0 0 0
          0 0 0 0 0 0
          0 0 0 0 0 0
          0 0 0 0 0 0
          0 0 0 0 0 0
          0 0 0 0 0 0
          0 0 0 0 0 0
          0 0 0 0 0 0
          0 0 0 0 0 0
          0 0 0 0 0 0
          0 0 0 0 0 0
          0 0 0 0 0 0
          0 0 0 0 0 0
          0 0 0 0 0 0
          0 0 0 0 0 0
          0 0 0 0 0 0
          0 0 0 0 0 0
          0 0 0 0 0 0
          0 0 0 0 0 0
          0 0 0 0 0 0
          0 0 0 0 0 0
          0 0 0 0 0 0
          0 0 0 0 0 0
          0 0 0 0 0 0
          0 0 0 0 0 0
          0 0 0 0 0 0
          0 0 0 0 0 0
          0 0 0 0 0 0
          0 0 0 0 0 0
          0 0 0 0 0 0
          0 0 0 0 0 0
          0 0 0 0 0 0
          0 0 0 0 0 0
          0 0 0 0 0 0
          0 0 0 0 0 0
          0 0 0 0 0 0
          0 0 0 0 0 0
          0 0 0 0 0 0
          0 0 0 0 0 0
          0 0 0 0 0 0
          0 0 0 0 0 0
          0 0 0 0 0 0
          0 0 0 0 0 0
          0 0 0 0 0 0
          0 0 0 0 0 0
          0 0 0 0 0 0
          0 0 0 0 0 0
          0 0 0 0 0
        </DataArray>
        <DataArray type="Float64" Name="gradient_error" format="ascii" RangeMin="1.538114900548645e-10" RangeMax="5.0094368897092995e-8">
          3.953211716580934e-9 1.6638762906734645e-9 9.808927180354699e-10 5.780086864764737e-9 3.72110101975354e-8 3.199566929657079e-8
          8.134870151741007e-9 3.617182559687096e-9 3.4084471420421028e-9 1.713887056316547e-8 1.5234317582487837e-8 1.7260062560847695e-9
          1.5744332248649285e-9 1.4128843663929057e-9 2.717331718912895e-8 2.3494821574779537e-8 7.913769756169137e-10 3.4344804101129717e-8
          2.787905103874651e-8 8.16770847475452e-9 6.181620178192387e-9 4.899974841870918e-9 9.113480663844577e-9 8.712651257900186e-9
          3.591543815307067e-8 9.383797711053118e-9 9.34319143756986e-9 9.155846429945455e-9 6.059620145413181e-9 4.0994776717694e-9
          5.373596619059706e-9 5.159254832681793e-9 4.624985528527362e-9 2.6816942848191625e-8 2.5649304795906685e-8 1.6454456974736292e-8
          2.2641423074826682e-8 3.01011122186433e-9 2.888026261843751e-9 3.28498219084911e-9 3.15372580259405e-9 1.2472012244835613e-9
          8.297285417187202e-10 7.950634913737958e-10 2.545876201142575e-9 2.815715292347825e-9 6.979366501644848e-10 7.4353603081520245e-9
          7.1072557509347646e-9 9.29508299916297e-10 6.255104689290442e-9 2.8344493424106668e-9 3.753850899667317e-9 1.904738764172505e-8
          1.2041737067687609e-8 2.0111081533575864e-9 2.28023325795655e-9 8.890443265043832e-10 5.615789908880482e-10 5.136200751612104e-9
          6.04702086148298e-10 4.453939105591185e-8 4.248697601909605e-8 3.9725634265600975e-8 3.775418976754761e-8 3.687473191578819e-8
          3.242375015827311e-8 3.6618659875611494e-8 3.5183148662322477e-8 3.2696234247590734e-8 3.06627595955778e-8 2.045557850773352e-8
          1.939744035705678e-8 3.0492990056469063e-9 2.873568907979333e-9 1.6545502052496007e-8 2.40559484083477e-9 2.0714458631380715e-8
          1.9607663864000616e-8 7.612111512249924e-9 1.6465774151851e-8 2.8799083855866292e-8 2.4960024052244285e-8 3.645520255910078e-8
          3.318473392967737e-8 1.2657552506480725e-8 1.7904612210975153e-9 1.8195472109164756e-8 4.409200139610277e-9 1.0380882316577587e-8
          1.0257022389134745e-8 1.0917460723455557e-8 1.0884033794746671e-8 1.0052308993503018e-8 1.0685468604231154e-8 4.282078777331675e-9
          6.678146596734864e-9 7.141866652781677e-9 8.844704851901331e-9 1.1251319814414847e-8 1.1177154122812165e-8 1.0978947310950951e-8
          1.0930846625472883e-8 1.0914528825073203e-8 1.0413470932159305e-8 5.404294257112301e-9 7.380511477739416e-9 7.160080809004409e-9
          8.914958115005449e-9 2.2636526935966735e-8 2.9238042183809492e-8 9.518076920400682e-9 2.522614882093925e-8 2.2415407594879626e-8
          8.150772641700542e-9 2.508850723554003e-8 9.108440974032123e-9 9.559406246061195e-9 9.522659248341513e-9 1.0029500379574656e-8
          9.565233338738593e-9 9.681529849694514e-9 1.0144864448218951e-8 9.620199144777467e-9 9.050284754454279e-9 9.203809891814904e-9
          8.578676491887295e-9 9.439055622621051e-9 9.40460787580635e-9 1.0005031214037163e-8 9.962917239395482e-9 9.328836955437323e-9
          9.858544522334606e-9 8.755299151357094e-9 8.778087365813422e-9 9.38897322974998e-9 8.77187395502424e-9 9.246961136870933e-9
          9.743614337339324e-9 9.251001723854857e-9 9.680965060679324e-9 8.685179143448721e-9 9.227153973595326e-9 8.634876360788278e-9
          5.986828207561087e-9 6.3327225369026335e-9 6.381208173322115e-9 6.756018302424369e-9 7.08129322055335e-9 7.553809141128821e-9
          3.781763111588894e-9 4.39582684544961e-9 4.63042424456509e-9 5.7112791031942715e-9 7.740523210433446e-9 8.231472764902837e-9
          8.032709923297828e-9 8.512962987258325e-9 6.9230805580168015e-9 7.351001809074717e-9 7.67747142795134e-9 9.178262800164973e-9
          9.473609272244241e-9 9.06093064447911e-9 9.276231317893074e-9 8.864592647634456e-9 9.32511724342241e-9 8.11812057648386e-9
          8.563508053916587e-9 7.813296703574473e-9 8.22019027366193e-9 6.414251901207332e-10 7.652545512482689e-10 7.566416861280226e-10
          7.32865317693739e-10 1.4097123083427536e-9 5.293511096933487e-10 5.2297134603534e-10 6.811721823679299e-10 6.73123774418405e-10
          3.559320580346172e-10 5.283001767711918e-10 5.215326656596379e-10 5.048767658670862e-10 6.502457253295293e-10 5.017850077292344e-10
          1.2567558201376084e-9 1.240672825178052e-9 9.678720746236685e-10 1.19578636480433e-9 5.824766364183698e-10 6.902929070603611e-10
          6.346546469557781e-10 1.2794790373524933e-9 4.749387089404035e-10 6.117785395227493e-10 3.22717508973499e-10 4.708224584447296e-10
          4.3596038249618847e-10 5.616049546637583e-10 4.3058891821752014e-10 1.1223085770014168e-9 8.691617634722853e-10 1.0272654913651767e-9
          4.806583637975916e-10 5.729816153763843e-10 5.072295083604851e-10 1.0547620093721664e-9 3.9181932173186083e-10 5.048079623208201e-10
          2.6503135218356355e-10 3.839022840913954e-10 3.4681337069016004e-10 4.443176913142308e-10 3.344193620596084e-10 9.192505230297497e-10
          7.015468067275637e-10 8.014981846435244e-10 2.763258886799494e-10 2.727105046861547e-10 4.1017610232686694e-10 4.04686437323808e-10
          2.6240398278882955e-10 3.888038240917467e-10 7.90236867533119e-10 7.791248013349028e-10 7.46782869904468e-10 2.463799373054988e-10
          3.638742955775505e-10 2.2537301572835508e-10 3.315858133952178e-10 6.958805143491766e-10 6.304949097443194e-10 2.0091854998891887e-10
          2.9423526032778964e-10 1.767224817386846e-10 2.5476966866906073e-10 5.554036298109866e-10 4.750029251914423e-10 1.0503950447958569e-8
          1.0511545790687077e-8 1.100081841197107e-8 1.0579805980292356e-8 1.149364420820876e-8 1.1483692890837213e-8 1.1744325673479344e-8
          1.1386526786959636e-8 1.0557861936393546e-8 1.0861662769780369e-8 1.0148881076481146e-8 1.0975317957927526e-8 1.0828008323744256e-8
          1.0120540433732674e-8 2.282163446976436e-9 2.2510025404849776e-9 2.1730669853131176e-9 3.947047090545659e-9 2.1103911924451896e-9
          2.081577482202811e-9 1.771765094268761e-9 1.746916152006547e-9 2.0032782815759047e-9 1.6738165636058762e-9 3.6498885948569033e-9
          3.5926231152337284e-9 3.004732913749339e-9 3.4389745452307673e-9 2.044108357398772e-9 1.876993541397578e-9 3.5090322148327584e-9
          1.8771865191954982e-9 1.5590431650649835e-9 1.714432152363885e-9 1.4116544029418241e-9 3.195239208742164e-9 2.6683327980099127e-9
          2.8841558646888934e-9 6.1705795473681945e-9 6.056055006702697e-9 5.7872532111180466e-9 1.1734436223998804e-8 1.1598710784782873e-8
          9.687148399105687e-9 1.118798060259801e-8 5.777961754281342e-9 5.677768194845817e-9 5.074203806766293e-9 4.991804149086161e-9
          5.41602515554698e-9 4.750639882574983e-9 8.764539922684662e-9 8.625849937675887e-9 8.025877827515918e-9 8.227099880363722e-9
          5.354573927093919e-9 4.800901508243926e-9 1.0444755942489294e-8 8.610895297152143e-9 9.37107786181042e-9 5.004395045925794e-9
          4.379147182190609e-9 4.483697611005255e-9 3.915805406418042e-9 7.5707730674046e-9 6.974795542144297e-9 6.7364339111868014e-9
          9.231211164197836e-9 9.13990036609747e-9 8.639913221051345e-9 8.954614747286403e-9 8.64791831459773e-9 8.319472542508898e-9
          1.689267636021767e-9 1.4827027955962769e-9 2.7853178641315885e-9 1.529604391517811e-9 1.2426828153176683e-9 1.3300856886148473e-9
          1.0640513996076193e-9 2.53437570600363e-9 2.1052425564728223e-9 2.1668932065415394e-9 4.194310568096513e-9 3.538893177620394e-9
          8.206380065456065e-9 6.699616498021845e-9 7.647140432640799e-9 3.9105667241257866e-9 3.40260593291498e-9 3.3094943522462996e-9
          2.8768123059296496e-9 5.831201977072761e-9 5.298630264056032e-9 4.917832128791435e-9 1.0509809758812654e-8 1.0461199587488436e-8
          1.0944545357212694e-8 1.0889612954424126e-8 1.0338935330527661e-8 1.0754751307260112e-8 9.940993457253906e-9 9.92381798010059e-9
          1.0349845978352528e-8 9.842532968924724e-9 1.1301390250642884e-8 1.1240972146086587e-8 1.1535699154849785e-8 1.1475163938724716e-8
          1.1092008454730713e-8 1.1308795076291316e-8 1.0686660082160703e-8 1.0663772408578922e-8 1.091145557261954e-8 1.0597728644584267e-8
          1.0200114200402121e-8 1.0583856482530264e-8 1.0049795626840952e-8 1.0323515806601172e-8 9.717441371422396e-9 1.0145643405231425e-8
          9.636189629228998e-9 1.086621435974976e-8 1.1012526577688767e-8 1.0478019195337787e-8 1.0496109420634266e-8 1.0506205603883695e-8
          1.0794777884856363e-8 1.0405183955616283e-8 6.7286341317003605e-9 7.139537175115287e-9 7.06511659182619e-9 7.496899581184239e-9
          7.985783416472329e-9 8.36216942142183e-9 4.090950418559647e-9 4.842291774319188e-9 5.0725147025406035e-9 6.384565575858176e-9
          7.429544813434975e-9 7.84084370108684e-9 7.745452149786374e-9 8.11651755306745e-9 8.66538998503316e-9 8.87430125754299e-9
          4.594905755625549e-9 5.35239398635179e-9 5.616126164865906e-9 6.932812803399573e-9 8.66495559695464e-9 9.026332147312049e-9
          8.92520595210231e-9 9.259884830055458e-9 7.737394915475183e-9 8.067427679441408e-9 8.528742822947382e-9 9.289607235812675e-9
          9.44496173581469e-9 9.513046030231448e-9 9.660177182952996e-9 8.323914025429952e-9 8.49741253354993e-9 9.05122210617323e-9
          1.163892479392411e-8 1.1569672195681087e-8 1.1574409571768122e-8 1.1490700590900877e-8 1.1362829858434584e-8 1.125261457063268e-8
          1.1125920185634315e-8 1.1126331640206367e-8 1.1239458584071411e-8 1.1096263948837614e-8 1.1354153078927544e-8 1.12702046184847e-8
          1.09951676511795e-8 1.0895835277419995e-8 1.1008566922865107e-8 1.0560117127325072e-8 1.1194427994224815e-8 1.1175410389774895e-8
          1.0970339090397201e-8 1.1119599080512062e-8 1.0997287607048095e-8 1.0826206579404361e-8 1.035729636491486e-8 1.004995774773843e-8
          1.099201369340586e-8 1.1078211209392864e-8 1.0863119969201675e-8 1.0481659280722906e-8 9.909271964383651e-9 9.565421047485339e-9
          8.917091664238278e-9 1.1034863058488497e-8 1.080670131750889e-8 1.0780263165295289e-8 7.932837918088829e-9 8.27523269396888e-9
          8.023824594252038e-9 8.336992451762428e-9 8.975575567239714e-9 8.964907690403555e-9 5.157248828758443e-9 5.838435714104322e-9
          6.031973557892178e-9 7.296302351075363e-9 8.021300140789005e-9 8.286967653548723e-9 7.877689476059123e-9 8.109850062911052e-9
          8.838534132931668e-9 8.611180048017492e-9 5.6293809241206885e-9 6.187199565240453e-9 6.238300743559922e-9 7.365503928809527e-9
          9.501771191408045e-9 9.450953309601798e-9 9.713382493980536e-9 9.730924927748222e-9 8.569334267611265e-9 8.490780034656994e-9
          9.044039917577018e-9 9.302735893755924e-9 9.094743808611922e-9 9.725135659955081e-9 9.62130357575177e-9 8.234204026031983e-9
          7.865356806147523e-9 8.808385603378122e-9 9.686386855301157e-9 9.788313494627571e-9 9.40812961283355e-9 9.422486278228659e-9
          9.760854434748493e-9 1.0119174256944416e-8 9.872384080443987e-9 9.750230518925694e-9 9.55999648343527e-9 9.273388498744197e-9
          8.949865850996558e-9 1.037441387344054e-8 1.0508975725928232e-8 1.0117645392138111e-8 8.969513252861385e-9 9.336462604792815e-9
          9.421532806464115e-9 9.76002252024375e-9 8.558880182630258e-9 8.871303318854477e-9 9.12266249457013e-9 9.730314805624704e-9
          1.0079117954381767e-8 9.957619410475726e-9 1.0238196474125936e-8 9.257648154933316e-9 9.61235910917988e-9 9.852422960234037e-9
          9.216750534891677e-9 8.7919601912185e-9 8.488243434618722e-9 7.590314462466944e-9 1.0450386888893473e-8 1.0263735138594234e-8
          1.0092776423298511e-8 8.304292688777164e-9 7.687287674315304e-9 6.971778908069423e-9 6.357566008677773e-9 9.98965133497676e-9
          9.514939512932567e-9 8.646662632529577e-9 1.0172121802893108e-8 1.0100791511591348e-8 1.0587497336010733e-8 9.892221062908375e-9
          9.67059083232656e-9 9.58475914549057e-9 1.0318788262021086e-8 1.000495360470114e-8 9.758625506519893e-9 9.441060824545831e-9
          8.993564326933903e-9 9.567672338987778e-9 9.444458793756948e-9 9.580889253878954e-9 1.4664174909978854e-9 1.4448350289302738e-9
          1.3820438018707023e-9 2.608130514437557e-9 2.5681834962431425e-9 2.452166258848943e-9 1.2833601064161774e-9 1.156971926602048e-9
          2.2702292549011333e-9 2.0377623667026577e-9 4.463102731052917e-9 4.388588115549646e-9 4.173786089426796e-9 7.344051075419854e-9
          7.2127581400741185e-9 6.836451599179856e-9 3.84213164198325e-9 3.4277107627084768e-9 6.255560361104445e-9 5.5233813409031036e-9
          1.0126655620701771e-9 8.606735501453904e-10 1.773557071260489e-9 1.4972417156222526e-9 2.9652410267975825e-9 2.4851803031774456e-9
          4.713456539766321e-9 3.902499652520505e-9 1.0394990714659692e-8 1.0264103391859026e-8 9.853527522170034e-9 1.0630893389699987e-8
          1.062131392331732e-8 1.056571328843472e-8 9.142250680744875e-9 8.153147726308254e-9 1.0372944631335946e-8 9.844374249239708e-9
          7.647418815894482e-9 7.849075754557755e-9 8.296030431463242e-9 5.741262127002706e-9 6.067106229815894e-9 6.723751322520235e-9
          8.851643588152667e-9 9.368010064331778e-9 7.530911165062144e-9 8.577453837783616e-9 6.967567601523782e-9 5.714290386038387e-9
          8.841469541827265e-9 7.4458703504523555e-9 9.291980248511762e-9 8.346947557156625e-9 9.094687283143144e-9 8.505771161062025e-9
          5.963853428674546e-9 6.53701294595344e-9 3.829830092621799e-8 3.4240697181657804e-8 5.0094368897092995e-8 4.401256359617814e-8
          8.587453074722544e-10 7.705011400684966e-10 6.182830811514715e-10 5.440013280248097e-10 4.8571386850025544e-8 4.750096812504271e-8
          4.555122892845022e-8 4.6829533367945994e-8 3.628703721413163e-8 3.5224710922284816e-8 4.006539564194616e-8 4.1783981940951176e-8
          3.198213839053734e-8 3.1955614763982506e-8 3.408122348643524e-8 3.855885209190551e-8 3.920967727132402e-8 6.691139235352805e-10
          6.405699911291686e-10 4.411529365026893e-10 4.2132611737525197e-10 5.641398317201557e-10 3.6854111540528e-10 4.609251618590563e-10
          2.978930668147078e-10 2.935028585713307e-8 2.208341330745813e-8 8.986567748728134e-9 8.830391928830849e-9 8.804881472612743e-9
          8.763550246180485e-9 8.089519760159938e-9 8.123885883297991e-9 8.152950726781477e-9 9.187836772026747e-9 8.722581202749817e-9
          8.777749573928029e-9 8.108012832499949e-9 8.090217177911245e-9 5.570643611408089e-9 5.888034677346339e-9 6.582365422883666e-9
          3.598988163900004e-9 4.15149278459405e-9 5.347140303640212e-9 7.2123624983193965e-9 7.51465620330227e-9 6.46602496511178e-9
          7.18022783527834e-9 8.807700477933818e-9 8.818611201078044e-9 8.779156183833328e-9 8.375103382266224e-9 9.105770701480045e-9
          2.1814978108758342e-8 2.2609910330170127e-8 7.635333530711716e-9 8.565042817145811e-9 8.118655440457454e-9 9.002030415461253e-9
          7.349982221113251e-9 8.243021980607017e-9 7.796427468156686e-9 8.68567642982851e-9 2.1029275454670063e-10 3.209942236311939e-10
          3.165590852282038e-10 3.037448848174658e-10 6.328927629272848e-10 6.237210383890072e-10 5.970032325453381e-10 1.8943877196745174e-10
          2.8371368352581885e-10 2.5785176354758334e-10 5.550387729545607e-10 5.012814798640001e-10 1.538114900548645e-10 2.2804226446289196e-10
          1.9661340272777555e-10 4.397800922303305e-10 3.7426698982154263e-10 1.2073541761285478e-9 1.1889506951018088e-9 1.13540170636134e-9
          2.2130123002468087e-9 2.177912022744353e-9 2.075811143084235e-9 1.0514939047483783e-9 9.443960239287632e-10 1.915934812470157e-9
          1.712365755078361e-9 3.877726998846866e-9 3.812152540456539e-9 3.622945844194065e-9 6.507955117509409e-9 6.39071360466245e-9
          6.049988939119201e-9 3.3306805052522706e-9 2.9627866048881225e-9 5.519153495450536e-9 4.856776988528662e-9 8.226568693238783e-10
          6.951989960190491e-10 1.482128729958059e-9 1.2426691210870371e-9 2.5488949527981748e-9 2.1199387184828032e-9 4.134278055218162e-9
          3.408405307920647e-9 9.558670334454665e-9 9.4174678403679e-9 8.989132412147833e-9 1.0145783593968463e-8 1.0129939390385052e-8
          1.00502085085552e-8 8.276050525629935e-9 7.317162131465915e-9 9.777755505387371e-9 9.129270530638846e-9 7.3002916623689735e-9
          7.47653492328178e-9 7.941165884672604e-9 5.317595292086463e-9 5.568465301964037e-9 6.236675574157333e-9 8.581095505787493e-9
          8.985373549171701e-9 7.3208643053950916e-9 8.362808238694029e-9 6.201090668555397e-9 5.05720898964924e-9 8.047323207404045e-9
          6.667958204102856e-9 8.670956737793126e-9 7.583001481592592e-9 8.582451326190878e-9 7.782462959308397e-9
        </DataArray>
        <DataArray type="Float64" Name="gradient_matprop_error" format="ascii" RangeMin="0" RangeMax="0">
          0 0 0 0 0 0
          0 0 0 0 0 0
          0 0 0 0 0 0
          0 0 0 0 0 0
          0 0 0 0 0 0
          0 0 0 0 0 0
          0 0 0 0 0 0
          0 0 0 0 0 0
          0 0 0 0 0 0
          0 0 0 0 0 0
          0 0 0 0 0 0
          0 0 0 0 0 0
          0 0 0 0 0 0
          0 0 0 0 0 0
          0 0 0 0 0 0
          0 0 0 0 0 0
          0 0 0 0 0 0
          0 0 0 0 0 0
          0 0 0 0 0 0
          0 0 0 0 0 0
          0 0 0 0 0 0
          0 0 0 0 0 0
          0 0 0 0 0 0
          0 0 0 0 0 0
          0 0 0 0 0 0
          0 0 0 0 0 0
          0 0 0 0 0 0
          0 0 0 0 0 0
          0 0 0 0 0 0
          0 0 0 0 0 0
          0 0 0 0 0 0
          0 0 0 0 0 0
          0 0 0 0 0 0
          0 0 0 0 0 0
          0 0 0 0 0 0
          0 0 0 0 0 0
          0 0 0 0 0 0
          0 0 0 0 0 0
          0 0 0 0 0 0
          0 0 0 0 0 0
          0 0 0 0 0 0
          0 0 0 0 0 0
          0 0 0 0 0 0
          0 0 0 0 0 0
          0 0 0 0 0 0
          0 0 0 0 0 0
          0 0 0 0 0 0
          0 0 0 0 0 0
          0 0 0 0 0 0
          0 0 0 0 0 0
          0 0 0 0 0 0
          0 0 0 0 0 0
          0 0 0 0 0 0
          0 0 0 0 0 0
          0 0 0 0 0 0
          0 0 0 0 0 0
          0 0 0 0 0 0
          0 0 0 0 0 0
          0 0 0 0 0 0
          0 0 0 0 0 0
          0 0 0 0 0 0
          0 0 0 0 0 0
          0 0 0 0 0 0
          0 0 0 0 0 0
          0 0 0 0 0 0
          0 0 0 0 0 0
          0 0 0 0 0 0
          0 0 0 0 0 0
          0 0 0 0 0 0
          0 0 0 0 0 0
          0 0 0 0 0 0
          0 0 0 0 0 0
          0 0 0 0 0 0
          0 0 0 0 0 0
          0 0 0 0 0 0
          0 0 0 0 0 0
          0 0 0 0 0 0
          0 0 0 0 0 0
          0 0 0 0 0 0
          0 0 0 0 0 0
          0 0 0 0 0 0
          0 0 0 0 0 0
          0 0 0 0 0 0
          0 0 0 0 0 0
          0 0 0 0 0 0
          0 0 0 0 0 0
          0 0 0 0 0 0
          0 0 0 0 0 0
          0 0 0 0 0 0
          0 0 0 0 0 0
          0 0 0 0 0 0
          0 0 0 0 0 0
          0 0 0 0 0 0
          0 0 0 0 0 0
          0 0 0 0 0 0
          0 0 0 0 0 0
          0 0 0 0 0 0
          0 0 0 0 0 0
          0 0 0 0 0 0
          0 0 0 0 0 0
          0 0 0 0 0 0
          0 0 0 0 0 0
          0 0 0 0 0 0
          0 0 0 0 0 0
          0 0 0 0 0 0
          0 0 0 0 0 0
          0 0 0 0 0 0
          0 0 0 0 0 0
          0 0 0 0 0 0
          0 0 0 0 0 0
          0 0 0 0 0 0
          0 0 0 0 0 0
          0 0 0 0 0 0
          0 0 0 0 0 0
          0 0 0 0 0 0
          0 0 0 0 0 0
          0 0 0 0 0 0
          0 0 0 0 0 0
          0 0 0 0 0 0
          0 0 0 0 0 0
          0 0 0 0 0
        </DataArray>
        <DataArray type="Float64" Name="initial_marker" format="ascii" RangeMin="0" RangeMax="2">
          2 0 2 2 2 2
          2 0 0 0.5 0.5 0
          0 0 2 2 2 2
          2 2 2 2 2 2
          2 2 2 2 2 0
          1 1 1 2 2 2
          2 0 0 1 0.75 0
          1 0.5 0 0.5 0 2
          2 2 2 0 1 2
          2 0 0.5 0 0 2
          2 2 2 2 2 2
          2 2 2 2 2 2
          2 2 2 2 2 2
          2 2 2 2 2 2
          2 2 2 2 2 2
          2 2 2 2 2 2
          2 2 2 2 2 2
          2 2 2 2 2 2
          2 2 2 2 2 2
          2 2 2 2 2 2
          2 2 2 2 2 2
          2 2 2 2 2 2
          2 2 2 2 2 2
          2 2 2 2 2 2
          2 2 2 2 2 2
          2 2 2 2 2 2
          2 2 2 2 2 2
          2 2 2 2 2 2
          2 2 2 2 2 2
          1.5 2 2 2 2 2
          2 2 2 1 1.5 1.5
          2 2 2 2 0 1
          1 2 0 1 0 1
          0 1 1 2 2 2
          0 1 1 2 0 1
          0 1 0 1 1 2
          2 2 2 1.5 2 1.75
          0.5 1.25 2 2 2 0
          1 0 1 2 2 0
          1 0 1 2 2 2
          2 2 2 2 2 2
          2 2 2 2 2 2
          2 2 2 2 2 2
          2 2 2 2 2 2
          2 2 2 2 2 2
          2 2 2 2 2 2
          2 2 2 2 2 2
          2 2 2 2 2 2
          2 2 2 2 2 2
          2 2 2 2 2 2
          2 2 2 2 2 2
          2 2 2 2 2 2
          2 2 2 2 2 2
          2 2 2 2 2 2
          2 2 2 2 2 2
          2 2 2 2 2 2
          2 2 2 2 2 2
          2 2 2 2 2 2
          2 2 2 2 2 2
          2 2 2 2 2 2
          2 2 2 2 2 2
          2 2 2 2 2 2
          2 2 2 2 2 2
          2 2 2 2 2 2
          2 2 2 2 2 2
          2 2 2 2 2 2
          2 2 2 2 2 2
          2 2 2 2 2 2
          2 2 2 2 2 2
          2 2 2 2 2 2
          2 2 2 2 2 2
          2 2 2 2 2 2
          2 2 2 2 2 2
          2 2 2 2 2 2
          2 2 2 2 2 2
          2 2 2 2 2 2
          2 2 2 2 2 2
          2 2 2 2 2 2
          2 2 2 2 2 2
          2 2 2 2 2 2
          2 2 2 2 2 2
          2 2 2 2 2 2
          2 2 2 2 2 2
          2 2 2 2 2 2
          2 2 2 2 2 2
          2 2 2 2 2 2
          2 2 2 2 2 2
          2 2 2 2 2 2
          2 2 2 2 2 2
          2 2 2 2 2 2
          2 2 2 2 2 2
          2 2 2 2 2 2
          2 2 2 2 2 2
          2 2 2 2 2 2
          2 2 2 2 2 2
          2 2 2 2 2 2
          2 2 2 2 2 2
          0 0 1 1 2 2
          0 0 0 0 2 2
          2 2 2 2 2 2
          2 2 2 2 2 0
          0 0.5 0 0 0 0
          0 2 2 2 2 2