<?xml version="1.0"?>
<VTKFile type="UnstructuredGrid" version="0.1" byte_order="LittleEndian" header_type="UInt32" compressor="vtkZLibDataCompressor">
  <UnstructuredGrid>
    <Piece NumberOfPoints="543" NumberOfCells="238">
      <PointData>
        <DataArray type="Int32" Name="libmesh_node_id" format="ascii" RangeMin="162" RangeMax="3776">
          194 243 246 248 255 281
          360 361 362 363 364 365
          366 367 368 369 371 372
          373 480 481 484 485 486
          487 489 490 491 492 493
          494 495 496 497 498 499
          510 511 512 513 514 515
          516 517 518 519 520 521
          522 523 773 774 775 776
          777 778 779 780 781 782
          785 786 790 792 797 798
          799 800 801 802 803 804
          805 806 807 808 809 810
          851 852 853 854 855 856
          857 858 859 860 966 968
          969 971 973 974 975 976
          977 978 979 980 981 982
          983 984 985 986 987 988
          989 990 991 992 993 994
          995 996 997 998 999 1000
          1001 1002 1003 1004 1005 1006
          1007 1008 1009 1010 1011 1012
          1460 1461 1464 1467 1469 1474
          1475 1476 1477 1478 1479 1480
          1481 1482 1483 1486 1487 1488
          1489 1490 1491 1492 1493 1494
          1496 1521 1525 1526 1527 1528
          1529 1530 1531 1533 1534 1563
          1564 1565 1567 1568 1569 1570
          1571 1572 1573 1574 1575 1576
          1577 1578 1579 1580 1581 1582
          1583 1584 1585 1586 1587 1588
          1589 1590 1591 1592 1593 1594
          1595 1596 1597 1598 1599 1600
          1601 1602 1637 1640 1641 1642
          1645 1648 1649 1650 1651 1652
          1653 1654 1655 1656 1657 1658
          1659 1660 1661 1662 1663 1664
          1665 1666 1667 1668 1669 1670
          1671 1672 1673 1674 1716 1717
          1718 1719 1720 1721 1722 1723
          1724 1725 1726 1727 1728 1729
          1730 1731 1732 1733 1734 1735
          1736 1737 1738 1739 1740 1741
          1742 1743 1744 1745 1746 1747
          1748 1749 1750 1751 1752 1753
          1754 1755 1756 1757 1758 1759
          1760 1761 1762 1763 1766 1767
          1768 1769 1770 1772 1773 1774
          1775 1776 1777 1778 1779 1780
          1781 1782 1783 1785 1786 1787
          1789 1790 1791 1792 1793 1794
          1795 1796 1797 3405 3515 3617
          3619 3621 3638 3640 3651 3652
          3653 3654 3655 3656 3657 3658
          3659 3660 3661 3662 3663 3664
          3665 3666 3667 3668 3669 3670
          3671 3672 3673 3674 3682 3683
          3684 3685 3686 3687 3688 3689
          3690 3691 3692 3693 3694 3695
          3696 3697 3698 3699 3700 3701
          3702 3703 3704 3705 3706 3707
          3708 3709 3710 3711 3712 3713
          3714 3715 3716 3717 3718 3719
          3720 3721 3722 3723 3724 3725
          3726 3727 3728 3729 3730 3731
          3732 3733 3734 3735 3736 3737
          3738 3739 3740 3741 3742 3743
          3744 3745 3746 3747 3748 3749
          3750 3751 3752 3753 3754 3755
          3756 3757 3758 3759 3760 3761
          3762 3763 3764 3765 3766 3767
          3768 3769 3770 3771 3772 3773
          3774 3775 3776 233 244 250
          163 235 251 238 247 165
          249 252 164 271 272 273
          274 276 277 196 283 282
          279 284 195 393 400 401
          394 162 403 404 425 423
          256 430 429 460 461 482
          483 462 488 465 347 350
          353 502 500 354 355 503
          501 723 725 728 506 254
          508 726 714 727 970 967
          972 755 763 767 765 352
          766 769 771 1292 1293 1296
          1638 1643 1644 1639 1646 1647
          709 720 245 1693 1694 1695
          1698 1497 1764 1520 1765 1711
          1712 1715 1452 1771 1453 1784
          1456 1458 1788
        </DataArray>
        <DataArray type="Float64" Name="bounds" format="ascii" RangeMin="0" RangeMax="0">
          0 0 0 0 0 0
          0 0 0 0 0 0
          0 0 0 0 0 0
          0 0 0 0 0 0
          0 0 0 0 0 0
          0 0 0 0 0 0
          0 0 0 0 0 0
          0 0 0 0 0 0
          0 0 0 0 0 0
          0 0 0 0 0 0
          0 0 0 0 0 0
          0 0 0 0 0 0
          0 0 0 0 0 0
          0 0 0 0 0 0
          0 0 0 0 0 0
          0 0 0 0 0 0
          0 0 0 0 0 0
          0 0 0 0 0 0
          0 0 0 0 0 0
          0 0 0 0 0 0
          0 0 0 0 0 0
          0 0 0 0 0 0
          0 0 0 0 0 0
          0 0 0 0 0 0
          0 0 0 0 0 0
          0 0 0 0 0 0
          0 0 0 0 0 0
          0 0 0 0 0 0
          0 0 0 0 0 0
          0 0 0 0 0 0
          0 0 0 0 0 0
          0 0 0 0 0 0
          0 0 0 0 0 0
          0 0 0 0 0 0
          0 0 0 0 0 0
          0 0 0 0 0 0
          0 0 0 0 0 0
          0 0 0 0 0 0
          0 0 0 0 0 0
          0 0 0 0 0 0
          0 0 0 0 0 0
          0 0 0 0 0 0
          0 0 0 0 0 0
          0 0 0 0 0 0
          0 0 0 0 0 0
          0 0 0 0 0 0
          0 0 0 0 0 0
          0 0 0 0 0 0
          0 0 0 0 0 0
          0 0 0 0 0 0
          0 0 0 0 0 0
          0 0 0 0 0 0
          0 0 0 0 0 0
          0 0 0 0 0 0
          0 0 0 0 0 0
          0 0 0 0 0 0
          0 0 0 0 0 0
          0 0 0 0 0 0
          0 0 0 0 0 0
          0 0 0 0 0 0
          0 0 0 0 0 0
          0 0 0 0 0 0
          0 0 0 0 0 0
          0 0 0 0 0 0
          0 0 0 0 0 0
          0 0 0 0 0 0
          0 0 0 0 0 0
          0 0 0 0 0 0
          0 0 0 0 0 0
          0 0 0 0 0 0
          0 0 0 0 0 0
          0 0 0 0 0 0
          0 0 0 0 0 0
          0 0 0 0 0 0
          0 0 0 0 0 0
          0 0 0 0 0 0
          0 0 0 0 0 0
          0 0 0 0 0 0
          0 0 0 0 0 0
          0 0 0 0 0 0
          0 0 0 0 0 0
          0 0 0 0 0 0
          0 0 0 0 0 0
          0 0 0 0 0 0
          0 0 0 0 0 0
          0 0 0 0 0 0
          0 0 0 0 0 0
          0 0 0 0 0 0
          0 0 0 0 0 0
          0 0 0 0 0 0
          0 0 0
        </DataArray>
        <DataArray type="Float64" Name="gradient_error" format="ascii" RangeMin="1.9403461148420404e-12" RangeMax="6.66408996180442e-8">
          5.470113024880632e-12 4.0382424451032815e-10 1.648977223479809e-9 5.459464906615555e-11 8.1019088538213e-11 1.2262269431711497e-11
          4.5948420215017806e-11 1.6924407204054488e-10 3.15013103595753e-11 5.727372234816182e-11 7.929975693442563e-11 1.5832240728397036e-11
          3.6634207152291537e-11 2.9793205525438717e-10 2.509486345116552e-10 9.373325190784003e-11 6.252606713409929e-11 1.56067335318248e-11
          2.472739700386465e-10 6.761058155288237e-10 8.898149119577196e-10 2.4409953204787533e-10 1.1826159505257455e-10 4.2295447856577694e-10
          1.1035240083866154e-9 7.223381393723723e-10 4.028960437020523e-11 8.610472722309572e-11 4.0328137259764874e-11 1.5413432105961286e-10
          4.968229920077803e-11 3.997639825268796e-11 8.588137715991362e-11 1.319198500759862e-10 2.63012459007483e-10 1.3178635606713929e-10
          1.2845446979032887e-11 1.7027709196502965e-11 7.617253843955823e-12 1.3493734707925772e-11 1.1952613428003012e-11 4.908615522530024e-12
          9.714473181389902e-12 2.1209971413973045e-11 1.92564329642191e-11 1.452033084024978e-11 2.295269441587879e-12 9.901433228988706e-12
          7.476332934776792e-12 1.7302894514465154e-11 5.91744010464116e-11 1.313984097506409e-10 8.537883407044343e-11 1.18383085751356e-10
          5.519539054344116e-11 2.9907383755821226e-11 3.709960338443892e-11 2.2125158234394936e-10 2.4678815834469926e-10 7.329093086877933e-11
          3.4199755765768956e-11 1.7481666100801996e-10 3.598530183529143e-11 4.075170243508086e-11 1.4640596584020434e-11 1.6637046544486508e-11
          2.1046443238222145e-11 1.678109257161847e-11 1.329649639830853e-11 1.1840269659696318e-11 1.1962780700216111e-11 1.9882764760123697e-11
          2.11089791303033e-11 1.2557295492771628e-11 1.2168614305147524e-11 1.5330088897354828e-11 9.732408092226196e-12 2.500646280474363e-11
          2.539895871617056e-10 2.5187096829531725e-10 1.3305852918114775e-10 1.1072065649726102e-10 1.3439364637415546e-10 1.0436422991947176e-10
          6.023669482253476e-11 2.49752349428929e-10 8.838278381337426e-11 7.433481346478808e-11 4.024726436681209e-9 4.083533518868736e-9
          2.585137169850277e-9 7.278920687875935e-10 1.6501551603556653e-9 2.583502965444344e-9 6.832387595370801e-10 1.3254806096683786e-11
          1.3500538549077186e-11 9.746097828503288e-12 1.475759691780896e-11 8.50888613849001e-12 7.572065334521865e-12 9.970502032141787e-12
          1.3746271001470589e-11 1.9710468486485405e-11 1.2368938729761711e-11 2.0299807724792319e-10 2.5692490848413056e-10 9.575991994000434e-11
          1.0867755141096328e-10 1.4555915839676422e-10 1.860778793497098e-10 8.915065164521129e-11 2.316822498727221e-10 7.002458100373998e-11
          2.4299138886050235e-10 1.6836690181948095e-10 4.834234379244726e-11 2.838137024736693e-10 6.722326429713663e-11 1.8656516831439283e-10
          5.342512575364163e-11 3.082412275289894e-10 2.0605959574445645e-11 2.469848799179277e-11 1.4778672273600685e-11 1.4866027901655128e-11
          1.7946444689277393e-11 2.1109296570492984e-11 1.6806298400566467e-11 2.8791016409139897e-11 1.495338352970957e-11 2.4272148451708572e-11
          8.612408364344554e-11 7.704383193463581e-11 7.892523680346913e-11 9.060016453863859e-11 5.1164631934481653e-11 4.030573162254667e-11
          3.4864346708986905e-11 4.3459055945319784e-11 3.653347529721225e-11 1.1363282216853661e-11 3.0780147036678245e-11 2.5962613674707062e-11
          2.4216717357041312e-11 3.261266106525653e-11 2.0168302117358807e-11 3.037043105101301e-11 4.0487844156462987e-11 1.1822164310305652e-10
          1.1174325554226297e-10 4.989201872576215e-11 5.424814381435475e-11 9.999992385619939e-11 1.4096022155759083e-10 5.986493580668486e-11
          8.070069255544209e-11 9.142411601286237e-11 4.577508323224008e-11 4.258919723254403e-11 2.9000388555778564e-11 3.239007875408624e-11
          3.7028892081977606e-11 3.874820283559399e-11 2.358045625779867e-11 3.5688065036731494e-11 4.656640238729459e-11 4.6042265903557765e-11
          6.551208033588324e-11 5.755125078086569e-11 5.264227126123342e-11 7.351692827659685e-11 1.150845906115744e-11 1.5159409598163094e-11
          1.784414508394644e-11 1.9564378863697924e-11 9.125365021141237e-12 2.5019951218068137e-11 2.113531850965903e-11 1.6958978508370945e-11
          2.120244335996667e-11 1.3420122638028496e-11 2.639979645442712e-11 2.0312802184258615e-11 1.4492022075113508e-11 1.7115275029049666e-11
          3.5268889350703496e-11 2.5997807949814974e-11 1.0170041403545555e-11 8.094099534256595e-12 1.4929484166435864e-11 1.0873379388627777e-11
          4.304341617216219e-11 3.1612442151035026e-11 9.595418679920182e-12 1.75543271716794e-11 1.7762731110262088e-11 1.7543522240816706e-11
          1.107794870947445e-11 1.4983027727010416e-11 1.5136056432285257e-11 2.143742454085356e-11 9.01241919651558e-12 1.9853690035048527e-11
          1.673982995428548e-11 2.40726186746251e-11 4.891377488475427e-10 4.687800335965172e-10 3.9408490475609637e-10 3.313527070259968e-10
          1.2001846301509314e-10 2.6862050929589724e-10 3.3293656545435495e-10 1.601276316982141e-10 3.388532149085883e-11 4.7228361447233194e-11
          5.202217558052546e-11 7.148684538484233e-11 2.7987462068731006e-11 2.1979005725066063e-11 4.0359935009574446e-11 6.057140140360756e-11
          9.09515151891592e-11 5.874086429408282e-11 3.6100585319129164e-12 3.4156398972213102e-12 3.906227948868613e-12 3.643364336891684e-12
          2.261702597486166e-12 1.9403461148420404e-12 2.1564799734808522e-12 3.221221262529704e-12 3.3805007249147556e-12 2.372613832119664e-12
          4.20239736582431e-12 3.871088776562059e-12 2.0512573494755384e-12 3.539780187299807e-12 3.209418479874169e-11 3.508556907684283e-11
          5.1015416716479896e-11 5.1252573869214774e-11 2.493985331227357e-11 2.5087727226644134e-11 3.018159858198693e-11 3.807695335494397e-11
          5.148973102194964e-11 3.527546993732972e-11 1.8807346057049125e-11 2.934781962975596e-11 1.4329523787535552e-11 1.775167991271592e-11
          1.8604219195442773e-11 2.2898087366173907e-11 1.728861409882716e-11 1.0075829577446344e-11 1.5208302106635734e-11 6.203738230556536e-12
          7.566705074885043e-12 6.7969316560730174e-12 9.133407056780756e-12 5.543850674963014e-12 7.447348127672765e-12 6.308209621888768e-12
          8.505051691861407e-12 7.169691731147093e-12 4.1487880021842316e-12 4.553159880973662e-12 4.0987334708892894e-12 5.169071116104771e-12
          5.8343317704327784e-12 3.644307060804917e-12 9.56275525605005e-12 8.031173840405417e-12 4.048678939594348e-12 6.499592424760785e-12
          5.937454148004485e-12 5.741384682742973e-12 1.0204460996103256e-11 9.072594891156836e-12 3.959223355350522e-12 4.995247756838408e-12
          5.189884488492494e-12 5.545315217481462e-12 7.940728786210412e-12 5.384521220146582e-12 5.493586106683891e-11 6.649767580824915e-11
          9.126586023132946e-11 9.656712114445385e-11 4.6856566490715284e-11 9.611924303993743e-11 1.0451359493058967e-10 2.1959492992931986e-11
          2.5709476050006153e-11 1.6170792370282518e-11 1.5893760541941058e-11 1.797640250057866e-11 1.915054285333609e-11 1.4191776613721294e-11
          3.5202423614064334e-11 1.8054096163578554e-11 2.296067912130806e-11 1.2671827525330837e-10 1.1024246657332494e-10 6.132776054040699e-11
          1.392575549764013e-10 1.1332612534304879e-10 4.530655084916063e-11 2.2369927769578103e-11 2.7663304057491976e-11 1.8314150157219593e-11
          4.966771357727291e-11 2.4248391925598693e-11 2.9729933078461355e-11 1.9724122864112626e-11 4.389875023855e-11 2.3221377558865086e-11
          1.5702089002082607e-11 2.890682223357178e-11 3.2843475905719805e-11 2.1349894008588894e-11 6.2903043038193155e-12 6.139806689880707e-12
          9.374139432544244e-12 8.781070103835013e-12 4.300889947037959e-12 5.814006332045597e-12 5.837381907116393e-12 5.9893090759420985e-12
          8.188000775125781e-12 5.86075748218719e-12 1.7609603617207336e-11 1.6221603694097596e-11 1.0162990644938808e-11 1.4561311030276752e-11
          3.0124875094306136e-11 2.7885781859304948e-11 1.809935132533371e-11 1.683526200376683e-11 2.2185937867683864e-11 1.3532722976352981e-11
          4.727654764091223e-11 4.375225589733916e-11 2.1191162116739036e-11 3.469184787923506e-11 2.371237656608527e-11 1.1898431148537656e-11
          1.616778315693393e-11 6.717266253408007e-11 6.207697968016777e-11 2.7379959942578543e-11 2.5399528677310274e-11 4.8920134856615095e-11
          2.0272658454347506e-11 8.635912682080129e-11 7.978892587427019e-11 3.268488581968035e-11 6.269960014046535e-11 9.06872427675656e-12
          8.451591749132711e-12 1.088101451615337e-11 1.0133871849728383e-11 5.566402777590916e-12 6.51233296416286e-12 6.079784112819964e-12
          6.89779147177993e-12 8.223270679290295e-12 4.962320531279866e-12 1.4061095167385483e-11 1.307421405260168e-11 7.352453469715277e-12
          1.0535317078474374e-11 3.326645652812962e-11 1.4091854085513898e-11 1.9906893558505017e-11 1.0407566166448532e-11 4.23586521202914e-11
          1.7912565806872007e-11 2.5188669294779285e-11 4.981289775166897e-12 5.835875945378503e-12 3.407404413786368e-12 3.6789683537916565e-12
          4.001455828282796e-12 4.611939715479809e-12 3.0805309065006486e-12 7.34949092893732e-12 4.35773797372272e-12 5.715680638743766e-12
          1.0070412157121825e-10 9.30585163006792e-11 4.0950674124878235e-11 3.793472146091899e-11 7.302162410926476e-11 3.0099117960276034e-11
          1.0597073680263635e-10 9.793931826667926e-11 3.987119375441473e-11 7.682387731946621e-11 1.624318460910168e-11 1.5086336878863075e-11
          9.153411089213979e-12 8.521078066554403e-12 1.2112893464215639e-11 6.857804047678948e-12 1.7057483638982572e-11 1.5840397602846843e-11
          8.930414641727267e-12 1.2703902658283194e-11 4.904309172948974e-11 2.061774893216549e-11 2.8855068207537833e-11 1.4771417716831984e-11
          5.1501672297306534e-11 2.1612536294546383e-11 3.02027190253107e-11 8.395340981063665e-12 4.97880601486681e-12 6.4943841823205186e-12
          4.130748978270551e-12 8.782162219842798e-12 5.192668376085124e-12 6.779830689830327e-12 9.465113554686132e-12 1.0925905529510721e-11
          6.7164198728826496e-12 7.289939996730973e-12 6.964920693503456e-12 7.711964111295935e-12 5.472158842865944e-12 1.3505619293228825e-11
          8.624554013375031e-12 9.17072888429028e-12 1.5267319068987182e-11 9.761953175244963e-12 1.0280347993488812e-11 7.121714681471295e-12
          1.591009705585202e-11 1.0138258444319159e-11 1.0678245747485474e-11 4.55122766791574e-9 1.487816416206034e-9 1.8939560068314422e-9
          4.535204692170092e-9 6.66408996180442e-8 1.502672437631818e-9 4.665665478489678e-9 3.1207495714572966e-10 4.0738487166936765e-10
          2.628313453214098e-10 3.1301894864897924e-10 1.452397340196782e-10 8.442223492929393e-11 7.870665262174065e-11 4.942456792395542e-11
          6.6310738903389e-11 2.998868258337925e-11 3.095242651621449e-11 9.628927184994073e-11 2.779161720241231e-11 5.2759000681876947e-11
          8.075722667353878e-11 8.85233830328902e-11 1.1474536094312153e-10 1.277686590583533e-9 4.052020928773149e-10 4.389470000877556e-10
          1.196690672215629e-9 2.320576415053585e-9 1.0811725918275126e-10 1.2892305286021382e-10 1.1873402058638847e-10 4.5331760667918825e-10
          4.279547334464849e-10 1.0192774072368731e-10 4.205626208307398e-10 2.56242691635945e-9 1.228298139770922e-8 3.445217904704635e-9
          2.568015428257759e-9 8.042156814822154e-9 1.750439378143193e-9 3.801332231935084e-9 2.4128618006398687e-8 8.995720852305975e-10
          2.6961600710842353e-8 6.23540040313686e-10 2.4344704536269925e-9 2.4359943249945052e-8 1.1343583430148077e-9 7.67071906585976e-10
          3.295551040528056e-9 4.707386089436618e-10 4.94098020429942e-10 1.1434958431998342e-9 2.558663236190656e-10 1.551949245966461e-9
          9.106037728582659e-10 2.8843244036059508e-9 2.995894535663499e-8 4.1063395662511745e-9 3.88685861665807e-9 6.020217038448583e-9
          1.0793362302124275e-9 2.1309070436190798e-8 3.8188803489072465e-9 3.7121076249412904e-9 1.0520460581091258e-9 7.519527234762323e-10
          7.640761801230477e-10 1.2711985559287675e-9 8.637996699417906e-10 3.0082419454554405e-10 2.90606265518276e-10 3.684518778584613e-10
          8.166106065742406e-10 5.315166478339916e-10 4.322266066441733e-10 6.42695320085379e-10 1.642440172648638e-10 1.6218582448153896e-10
          6.3120584829496835e-9 1.5455005547356297e-9 1.402948269506782e-10 8.241892956496183e-11 1.3096045477034557e-10 1.396619601115414e-10
          1.4836346545273724e-10 1.6119798690090521e-10 1.2532847153483187e-10 1.6470304994229996e-10 1.5823312949230732e-10 3.30469246668809e-10
          4.0168401798305607e-10 2.3118995942994014e-10 3.9356587643170855e-10 2.2832706983627733e-10 3.4379499126600045e-10 2.9473403992457465e-10
          2.916766834814014e-10 3.74876490556206e-10 3.2395172762637727e-10
        </DataArray>
        <DataArray type="Float64" Name="gradient_matprop_error" format="ascii" RangeMin="0" RangeMax="0">
          0 0 0 0 0 0
          0 0 0 0 0 0
          0 0 0 0 0 0
          0 0 0 0 0 0
          0 0 0 0 0 0
          0 0 0 0 0 0
          0 0 0 0 0 0
          0 0 0 0 0 0
          0 0 0 0 0 0
          0 0 0 0 0 0
          0 0 0 0 0 0
          0 0 0 0 0 0
          0 0 0 0 0 0
          0 0 0 0 0 0
          0 0 0 0 0 0
          0 0 0 0 0 0
          0 0 0 0 0 0
          0 0 0 0 0 0
          0 0 0 0 0 0
          0 0 0 0 0 0
          0 0 0 0 0 0
          0 0 0 0 0 0
          0 0 0 0 0 0
          0 0 0 0 0 0
          0 0 0 0 0 0
          0 0 0 0 0 0
          0 0 0 0 0 0
          0 0 0 0 0 0
          0 0 0 0 0 0
          0 0 0 0 0 0
          0 0 0 0 0 0
          0 0 0 0 0 0
          0 0 0 0 0 0
          0 0 0 0 0 0
          0 0 0 0 0 0
          0 0 0 0 0 0
          0 0 0 0 0 0
          0 0 0 0 0 0
          0 0 0 0 0 0
          0 0 0 0 0 0
          0 0 0 0 0 0
          0 0 0 0 0 0
          0 0 0 0 0 0
          0 0 0 0 0 0
          0 0 0 0 0 0
          0 0 0 0 0 0
          0 0 0 0 0 0
          0 0 0 0 0 0
          0 0 0 0 0 0
          0 0 0 0 0 0
          0 0 0 0 0 0
          0 0 0 0 0 0
          0 0 0 0 0 0
          0 0 0 0 0 0
          0 0 0 0 0 0
          0 0 0 0 0 0
          0 0 0 0 0 0
          0 0 0 0 0 0
          0 0 0 0 0 0
          0 0 0 0 0 0
          0 0 0 0 0 0
          0 0 0 0 0 0
          0 0 0 0 0 0
          0 0 0 0 0 0
          0 0 0 0 0 0
          0 0 0 0 0 0
          0 0 0 0 0 0
          0 0 0 0 0 0
          0 0 0 0 0 0
          0 0 0 0 0 0
          0 0 0 0 0 0
          0 0 0 0 0 0
          0 0 0 0 0 0
          0 0 0 0 0 0
          0 0 0 0 0 0
          0 0 0 0 0 0
          0 0 0 0 0 0
          0 0 0 0 0 0
          0 0 0 0 0 0
          0 0 0 0 0 0
          0 0 0 0 0 0
          0 0 0 0 0 0
          0 0 0 0 0 0
          0 0 0 0 0 0
          0 0 0 0 0 0
          0 0 0 0 0 0
          0 0 0 0 0 0
          0 0 0 0 0 0
          0 0 0 0 0 0
          0 0 0 0 0 0
          0 0 0
        </DataArray>
        <DataArray type="Float64" Name="initial_marker" format="ascii" RangeMin="0" RangeMax="2">
          0 0 0 0 0 0
          0 0 0.5 0 0 0
          0 0 0 0 0 0
          0 0 0 0 0 0
          0 0 0 0 0 0
          0 0 0 0 0 0
          0 0 0 0 0 0
          0 0 0 0 0 0
          0 0 0 0 0 0
          0 0 0 0 0 0
          0 0 1.75 0 0 0
          0 0 0 0 0 0
          0 0 0 0 0 0
          0 0 0 0 0 0
          0 0 0 0 0 0
          0 0 0 0 0 0
          0 0 0 0 0 0
          0 0 0 0 0 0
          0 0 0 0 0 0
          0 0 0 0 0 0
          0 0 0 0 0 0
          0 0 0 0 0 0
          0 0 0 0 0 0
          0 0 0 0 0 0
          0 0 0 0 0.25 0
          0 0 0 0 0 0
          0 0 0 0.25 0 0
          0 0 0 0 0 0.5
          0 0 0.5 0 0 0
          0.5 0 0 0 0 0
          0 0 1.5 1.25 0 0.25
          2 2 0 0 0.5 0
          2 2 0 0.5 0 0
          0 0 0 0 0 0
          0 0 0 0 0 0
          0 0 0 0 0 0
          0 0 0 0 0 0
          0 0 0 0 0 0
          0 0 0 0 0 0
          0 0 0 0 0 0
          0 0 0 0 0 0
          0 0 0 0 0 0
          0 0 0 0 0 0
          0 0 0 0 0 0
          0 0 0 0 0 0
          0 0 0 0 0 0
          0 0 0 0 0 0
          0 0 0 0 0 0
          0 0 0 0 0 0
          0 0 0 0 0 0
          0 0 0 0 0 0
          0 0 0 0 0 0
          0 0 0 1 2 1.25
          0.5 1.5 1.5 1 0 0
          0.5 0.5 0 0 0 0
          0.5 0 1.5 1.25 0.5 1
          2 1.75 2 1.5 1.5 1
          2 2 2 2 1.75 1
          1.3333333333333333 2 2 2 2 2
          1.75 2 2 2 2 1
          1 1 1 0 0 0
          0.5 0.75 0 1 1 0
          1 2 1.25 1.5 0.6666666666666666 2
          1.5 1.5 0 0.25 0 0
          0 0 0 0.5 0 0
          2 2 2 2 2 2
          2 2 2 2 1 1
          0 0 1 0 1 1
          0 1 2 1.5 1.5 0.6666666666666666
          2 1.5 1.5 0.5 0 0
          0 0.5 0 0 0.5 0.5
          0 0 0 0 0 0.5
          0 0 0.5 0 0 0
          0.5 0 0 0 0 0
          0 0 0 0 0 0
          0 0 0 0 0 0
          0 0 0 0 0 0
          0 0 0 0 0 0
          0 0 0 0 0 0
          0 0 0 0 0 0
          0 0 0 0 0 0
          0 0 0 0 0 0
          0 0 0 0 0 0
          0 0 0.3333333333333333 0 0 0
          0 0 0 0 0 0
          0 0 0 0 0 0
          0 0 0 0 0 0
          0 0 0 0 0 0
          0 0 0 0 0 0
          0 0 0 0 0 0
          0 0 0
        </DataArray>
        <DataArray type="Float64" Name="markers_norefine" format="ascii" RangeMin="0" RangeMax="0">
          0 0 0 0 0 0
          0 0 0 0 0 0
          0 0 0 0 0 0
          0 0 0 0 0 0
          0 0 0 0 0 0
          0 0 0 0 0 0
          0 0 0 0 0 0
          0 0 0 0 0 0
          0 0 0 0 0 0
          0 0 0 0 0 0
          0 0 0 0 0 0
          0 0 0 0 0 0
          0 0 0 0 0 0
          0 0 0 0 0 0
          0 0 0 0 0 0
          0 0 0 0 0 0
          0 0 0 0 0 0
          0 0 0 0 0 0
          0 0 0 0 0 0
          0 0 0 0 0 0
          0 0 0 0 0 0
          0 0 0 0 0 0
          0 0 0 0 0 0
          0 0 0 0 0 0
          0 0 0 0 0 0
          0 0 0 0 0 0
          0 0 0 0 0 0
          0 0 0 0 0 0
          0 0 0 0 0 0
          0 0 0 0 0 0
          0 0 0 0 0 0
          0 0 0 0 0 0
          0 0 0 0 0 0
          0 0 0 0 0 0
          0 0 0 0 0 0
          0 0 0 0 0 0
          0 0 0 0 0 0
          0 0 0 0 0 0
          0 0 0 0 0 0
          0 0 0 0 0 0
          0 0 0 0 0 0
          0 0 0 0 0 0
          0 0 0 0 0 0
          0 0 0 0 0 0
          0 0 0 0 0 0
          0 0 0 0 0 0
          0 0 0 0 0 0
          0 0 0 0 0 0
          0 0 0 0 0 0
          0 0 0 0 0 0
          0 0 0 0 0 0
          0 0 0 0 0 0
          0 0 0 0 0 0
          0 0 0 0 0 0
          0 0 0 0 0 0
          0 0 0 0 0 0
          0 0 0 0 0 0
          0 0 0 0 0 0
          0 0 0 0 0 0
          0 0 0 0 0 0
          0 0 0 0 0 0
          0 0 0 0 0 0
          0 0 0 0 0 0
          0 0 0 0 0 0
          0 0 0 0 0 0
          0 0 0 0 0 0
          0 0 0 0 0 0
          0 0 0 0 0 0
          0 0 0 0 0 0
          0 0 0 0 0 0
          0 0 0 0 0 0
          0 0 0 0 0 0
          0 0 0 0 0 0
          0 0 0 0 0 0
          0 0 0 0 0 0
          0 0 0 0 0 0
          0 0 0 0 0 0
          0 0 0 0 0 0
          0 0 0 0 0 0
          0 0 0 0 0 0
          0 0 0 0 0 0
          0 0 0 0 0 0
          0 0 0 0 0 0
          0 0 0 0 0 0
          0 0 0 0 0 0
          0 0 0 0 0 0
          0 0 0 0 0 0
          0 0 0 0 0 0
          0 0 0 0 0 0
          0 0 0 0 0 0
          0 0 0
        </DataArray>
        <DataArray type="Float64" Name="markers_mustrefine" format="ascii" RangeMin="0" RangeMax="2">
          0 0 0 0 0 0
          0 0 0.5 0 0 0
          0 0 0 0 0 0
          0 0 0 0 0 0
          0 0 0 0 0 0
          0 0 0 0 0 0
          0 0 0 0 0 0
          0 0 0 0 0 0
          0 0 0 0 0 0
          0 0 0 0 0 0
          0 0 1.75 0 0 0
          0 0 0 0 0 0
          0 0 0 0 0 0
          0 0 0 0 0 0
          0 0 0 0 0 0
          0 0 0 0 0 0
          0 0 0 0 0 0
          0 0 0 0 0 0
          0 0 0 0 0 0
          0 0 0 0 0 0
          0 0 0 0 0 0
          0 0 0 0 0 0
          0 0 0 0 0 0
          0 0 0 0 0 0
          0 0 0 0 0.25 0
          0 0 0 0 0 0
          0 0 0 0.25 0 0
          0 0 0 0 0 0.5
          0 0 0.5 0 0 0
          0.5 0 0 0 0 0
          0 0 1.5 1.25 0 0.25
          2 2 0 0 0.5 0
          2 2 0 0.5 0 0
          0 0 0 0 0 0
          0 0 0 0 0 0
          0 0 0 0 0 0
          0 0 0 0 0 0
          0 0 0 0 0 0
          0 0 0 0 0 0
          0 0 0 0 0 0
          0 0 0 0 0 0
          0 0 0 0 0 0
          0 0 0 0 0 0
          0 0 0 0 0 0
          0 0 0 0 0 0
          0 0 0 0 0 0
          0 0 0 0 0 0
          0 0 0 0 0 0
          0 0 0 0 0 0
          0 0 0 0 0 0
          0 0 0 0 0 0
          0 0 0 0 0 0
          0 0 0 1 2 1.25
          0.5 1.5 1.5 1 0 0
          0.5 0.5 0 0 0 0
          0.5 0 1.5 1.25 0.5 1
          2 1.75 2 1.5 1.5 1
          2 2 2 2 1.75 1
          1.3333333333333333 2 2 2 2 2
          1.75 2 2 2 2 1
          1 1 1 0 0 0
          0.5 0.75 0 1 1 0
          1 2 1.25 1.5 0.6666666666666666 2
          1.5 1.5 0 0.25 0 0
          0 0 0 0.5 0 0
          2 2 2 2 2 2
          2 2 2 2 1 1
          0 0 1 0 1 1
          0 1 2 1.5 1.5 0.6666666666666666
          2 1.5 1.5 0.5 0 0
          0 0.5 0 0 0.5 0.5
          0 0 0 0 0 0.5
          0 0 0.5 0 0 0
          0.5 0 0 0 0 0
          0 0 0 0 0 0
          0 0 0 0 0 0
          0 0 0 0 0 0
          0 0 0 0 0 0
          0 0 0 0 0 0
          0 0 0 0 0 0
          0 0 0 0 0 0
          0 0 0 0 0 0
          0 0 0 0 0 0
          0 0 0.3333333333333333 0 0 0
          0 0 0 0 0 0
          0 0 0 0 0 0
          0 0 0 0 0 0
          0 0 0 0 0 0
          0 0 0 0 0 0
          0 0 0 0 0 0
          0 0 0
        </DataArray>
        <DataArray type="Float64" Name="gradient_marker" format="ascii" RangeMin="0.5" RangeMax="1">
          1 1 1 1 1 1
          1 1 1 1 1 1
          1 1 1 1 1 1
          1 1 1 1 1 1
          1 1 1 1 1 1
          1 1 1 1 1 1
          1 1 1 1 1 1
          1 1 1 1 1 1
          1 1 1 1 1 1
          1 1 1 1 1 1
          1 1 1 1 1 1
          1 1 1 1 1 1
          1 1 1 1 1 1
          1 1 1 1 1 1
          1 1 1 1 1 1
          1 1 1 1 1 1
          1 1 1 1 1 1
          1 1 1 1 1 1
          1 1 1 1 1 1
          1 1 1 1 1 1
          1 1 1 1 1 1
          1 1 1 1 1 1
          1 1 1 1 1 1
          1 1 1 1 1 1
          1 1 1 1 1 1
          1 1 1 1 1 1
          1 1 1 1 1 1
          1 1 1 1 1 1
          1 1 1 1 1 1
          1 1 1 1 1 1
          1 1 1 1 1 1
          1 1 1 1 1 1
          1 1 1 1 1 1
          1 1 1 1 1 1
          1 1 1 1 1 1
          1 1 1 1 1 1
          1 1 1 1 1 1
          1 1 1 1 1 1
          1 1 1 1 1 1
          1 1 1 1 1 1
          1 1 1 1 1 1
          1 1 1 1 1 1
          1 1 1 1 1 1
          1 1 1 1 1 1
          1 1 1 1 1 1
          1 1 1 1 1 1
          1 1 1 1 1 1
          1 1 1 1 1 1
          1 1 1 1 1 1
          1 1 1 1 1 1
          1 1 1 1 1 1
          1 1 1 1 1 1
          1 1 1 1 1 1
          1 1 1 1 1 1
          1 1 1 1 1 1
          1 1 1 1 1 1
          1 1 1 1 1 1
          1 1 1 1 1 1
          1 1 1 1 1 1
          1 1 1 1 1 1
          1 1 1 1 1 1
          1 1 1 1 1 1
          1 1 1 1 1 1
          1 1 1 1 1 1
          1 1 1 1 1 1
          1 1 1 1 1 1
          1 1 1 1 1 1
          1 1 1 1 1 1
          1 1 1 1 1 1
          1 1 1 1 1 1
          1 1 1 1 1 1
          1 1 1 1 1 1
          1 1 1 1 1 1
          1 1 1 1 1 1
          1 1 1 1 1 1
          1 1 1 1 1 1
          1 1 1 1 1 1
          1 1 1 1 1 1
          1 1 1 1 1 1
          1 1 1 1 1 1
          1 1 1 1 0.875 1
          1 1 1 0.875 1 1
          1 1 1 1 1 1
          1 1 0.6666666666666666 1 1 1
          1 0.5 1 1 1 1
          1 1 1 1 1 1
          1 1 1 1 1 1
          0.5 1 1 1 1 1
          1 1 1 1 1 1
          1 1 1 1 1 1