<?xml version="1.0"?>
<VTKFile type="UnstructuredGrid" version="0.1" byte_order="LittleEndian" header_type="UInt32" compressor="vtkZLibDataCompressor">
  <UnstructuredGrid>
    <Piece NumberOfPoints="396" NumberOfCells="219">
      <PointData>
        <DataArray type="Int32" Name="libmesh_node_id" format="ascii" RangeMin="321" RangeMax="2772">
          321 328 329 629 630 632
          635 644 646 650 653 655
          1097 1126 1136 1138 1140 1154
          1155 1157 1160 1170 1172 1174
          1182 1183 1185 1196 1198 1200
          1201 1202 1210 1211 1214 1215
          1216 1217 1219 1230 1231 1232
          1233 1234 1235 1236 1244 1245
          1246 1247 1248 1249 1252 1253
          1255 1257 1559 1560 1561 1562
          1563 1566 1567 2119 2125 2207
          2208 2210 2213 2223 2225 2227
          2241 2242 2244 2247 2257 2259
          2261 2287 2288 2289 2290 2291
          2292 2293 2294 2295 2298 2300
          2301 2303 2304 2305 2306 2307
          2308 2309 2311 2313 2315 2384
          2385 2386 2387 2389 2391 2393
          2394 2395 2396 2397 2398 2399
          2402 2403 2405 2407 2408 2409
          2410 2411 2413 2415 2416 2417
          2418 2419 2420 2421 2423 2425
          2426 2427 2490 2491 2492 2493
          2494 2495 2496 2497 2498 2499
          2500 2501 2504 2506 2507 2509
          2510 2511 2512 2513 2514 2515
          2516 2517 2519 2521 2523 2524
          2525 2526 2527 2528 2529 2530
          2531 2532 2533 2534 2535 2538
          2540 2541 2543 2544 2545 2546
          2547 2548 2549 2550 2551 2553
          2554 2555 2557 2626 2627 2628
          2629 2630 2631 2632 2633 2634
          2635 2636 2637 2638 2639 2640
          2641 2642 2643 2644 2645 2646
          2647 2648 2649 2650 2651 2652
          2653 2654 2655 2656 2657 2658
          2659 2660 2661 2662 2663 2664
          2665 2722 2723 2724 2725 2726
          2727 2730 2731 2733 2734 2735
          2736 2737 2738 2739 2740 2741
          2742 2743 2744 2745 649 657
          661 326 658 662 664 666
          331 608 621 816 813 626
          1055 1089 1093 1056 1058 1095
          1091 1094 1096 1120 1176 1177
          1121 1180 1123 611 1073 1250
          1251 1254 1256 1564 1199 1565
          1568 641 2273 2274 2266 1178
          2275 2296 2297 2276 1179 2299
          637 2302 1184 2284 2279 2285
          2310 2286 1181 2312 2314 638
          1942 2036 2028 2278 2282 624
          2037 2283 2388 2038 2390 2392
          1197 2400 2401 2404 2406 2412
          2414 2422 2424 2372 2462 2376
          2466 2464 2468 2476 2480 2478
          2482 2502 2503 2505 1212 2508
          1213 2518 2520 2522 2536 2537
          2539 643 2542 1218 2552 2556
          2578 2580 2582 2584 2612 2614
          2616 2618 2666 2668 2670 2672
          2680 2682 2684 2686 2694 2696
          2698 2700 2708 2710 2712 2714
          2728 2729 2732 2746 2747 2753
          2751 2755 2766 2768 2770 2772
        </DataArray>
        <DataArray type="Float64" Name="bounds" format="ascii" RangeMin="0" RangeMax="0">
          0 0 0 0 0 0
          0 0 0 0 0 0
          0 0 0 0 0 0
          0 0 0 0 0 0
          0 0 0 0 0 0
          0 0 0 0 0 0
          0 0 0 0 0 0
          0 0 0 0 0 0
          0 0 0 0 0 0
          0 0 0 0 0 0
          0 0 0 0 0 0
          0 0 0 0 0 0
          0 0 0 0 0 0
          0 0 0 0 0 0
          0 0 0 0 0 0
          0 0 0 0 0 0
          0 0 0 0 0 0
          0 0 0 0 0 0
          0 0 0 0 0 0
          0 0 0 0 0 0
          0 0 0 0 0 0
          0 0 0 0 0 0
          0 0 0 0 0 0
          0 0 0 0 0 0
          0 0 0 0 0 0
          0 0 0 0 0 0
          0 0 0 0 0 0
          0 0 0 0 0 0
          0 0 0 0 0 0
          0 0 0 0 0 0
          0 0 0 0 0 0
          0 0 0 0 0 0
          0 0 0 0 0 0
          0 0 0 0 0 0
          0 0 0 0 0 0
          0 0 0 0 0 0
          0 0 0 0 0 0
          0 0 0 0 0 0
          0 0 0 0 0 0
          0 0 0 0 0 0
          0 0 0 0 0 0
          0 0 0 0 0 0
          0 0 0 0 0 0
          0 0 0 0 0 0
          0 0 0 0 0 0
          0 0 0 0 0 0
          0 0 0 0 0 0
          0 0 0 0 0 0
          0 0 0 0 0 0
          0 0 0 0 0 0
          0 0 0 0 0 0
          0 0 0 0 0 0
          0 0 0 0 0 0
          0 0 0 0 0 0
          0 0 0 0 0 0
          0 0 0 0 0 0
          0 0 0 0 0 0
          0 0 0 0 0 0
          0 0 0 0 0 0
          0 0 0 0 0 0
          0 0 0 0 0 0
          0 0 0 0 0 0
          0 0 0 0 0 0
          0 0 0 0 0 0
          0 0 0 0 0 0
          0 0 0 0 0 0
        </DataArray>
        <DataArray type="Float64" Name="gradient_error" format="ascii" RangeMin="6.732985491252797e-10" RangeMax="1.6217700215295897e-7">
          8.055336453913798e-8 2.5078198546744476e-8 1.0238090410804505e-7 1.0924940308620589e-7 1.41180133148368e-7 7.719734669368153e-8
          1.4118251747527042e-7 2.9038654853993303e-8 3.0364226524939807e-9 5.5456832560864895e-8 1.9369345993300854e-8 6.748790076785028e-8
          1.0819752835946182e-8 1.2440956301848415e-7 6.294165539756035e-8 3.0340627615440174e-8 1.0387000146059128e-7 4.011760993713626e-8
          5.161577642213684e-8 1.2673497481626182e-7 5.2850784402771285e-8 1.4122953837430417e-7 5.9119650110990476e-8 1.5631954769014128e-7
          1.0817573726664609e-7 9.564737647713243e-8 7.539987260671333e-8 3.0567441479187764e-8 1.4454806844457574e-8 5.1063987686498756e-8
          5.979882340718673e-9 2.0417656545904106e-8 4.141654798869737e-8 5.2781690579574336e-8 7.315779182659563e-8 2.493391283997175e-8
          3.3511023180705935e-8 5.472973724058879e-8 8.279807042172323e-8 7.032092554850932e-8 8.720227551582685e-9 2.5023438277315142e-8
          2.7246077952979756e-9 7.824071617521027e-8 9.904731517495277e-9 2.731896127237399e-8 1.5143243756916927e-8 1.8876873093611034e-8
          1.4968075308705353e-8 2.060465421383483e-8 1.0327820713462446e-8 1.1538698829808232e-8 8.326400553772851e-9 1.0623847493464645e-8
          1.2584340663551373e-8 1.1594410523556036e-8 7.76415485442985e-9 1.0450775197438233e-8 7.782466174934457e-9 6.117602341555433e-9
          8.163783387612032e-9 4.294898769914758e-9 5.647207707043602e-9 4.6553707489484674e-8 4.2263254435469506e-8 4.5025989168197075e-8
          4.729121981268684e-8 4.9719665153446636e-8 4.51201453667581e-8 4.564561175910315e-8 4.140834366848964e-8 5.0703192329518206e-8
          3.089090998162494e-8 4.121203385629634e-8 5.259555182232234e-8 3.845766259475855e-8 5.312941388822156e-8 5.2600881862766175e-8
          5.3880412200143505e-8 3.7461635747975866e-8 3.4926267484799155e-8 3.003478185001684e-8 4.727193939239277e-8 4.8630569132621847e-8
          4.451904463428859e-8 4.7373948825463565e-8 3.442212853621638e-8 3.24543008299892e-8 2.7798839017440234e-8 4.218847303380769e-8
          4.142997549287113e-8 3.730087187811496e-8 2.4162929639870046e-8 1.6582624067973848e-8 3.973693437235493e-8 3.36289842839639e-8
          3.471516996663365e-8 2.1716074286025157e-8 1.4897846421234904e-8 2.9046028075958305e-8 1.956150154279791e-8 5.691090555660377e-9
          3.790132383085586e-9 8.060276836622776e-9 4.8813670661560405e-9 3.2144217491999264e-9 7.04465536972321e-9 4.579370683608906e-9
          2.0261635036961344e-9 2.397872202735974e-9 1.9920520361071445e-9 3.3088955693812866e-9 1.6982310026943414e-9 2.025332542460898e-9
          1.3894799636109646e-9 1.6289380127373067e-9 2.813958877756667e-9 2.2282590359847575e-9 1.091419210249547e-8 7.244716311806205e-9
          1.4042033713712084e-8 9.689062464357376e-9 6.238601063678581e-9 1.2631661118092403e-8 9.998164380951795e-9 8.045267586273128e-9
          4.427051822785353e-9 3.6750018923303847e-9 5.551241595943638e-9 3.785444084343221e-9 2.997061788506085e-9 4.799980118375261e-9
          3.470408562784913e-9 3.213345977651021e-9 4.5460970018311605e-8 4.780212677382783e-8 4.4510486861070575e-8 4.7105247216190634e-8
          4.9705460482826775e-8 4.849480172812416e-8 4.1245625863129446e-8 4.613524271145112e-8 4.6231387558661474e-8 5.289067835146167e-8
          4.357108506925666e-8 4.5928798207966516e-8 4.600964827864873e-8 4.0518156512028514e-8 4.544126098538042e-8 5.096321512931318e-8
          4.384290386985699e-8 4.095254116919358e-8 3.841817030340448e-8 2.9779938818521027e-8 5.006750321449186e-8 4.786807076369169e-8
          4.537850928583317e-8 3.7028647696910396e-8 2.4536196590250676e-8 4.401301395288136e-8 2.9218597025159356e-8 3.422648916695785e-8
          4.3279515662341796e-8 3.6776721855221624e-8 4.42269478248602e-8 5.4127439960639835e-8 5.426815642412627e-8 2.961172725188723e-8
          4.126223031681516e-8 4.283766358958084e-8 5.4510495358546306e-8 3.744411638437082e-8 4.3868626284581326e-8 5.287283070848655e-8
          3.583156586008616e-8 4.30477639983335e-8 5.337579027050624e-8 5.308484247962539e-8 5.1511063844303814e-8 5.024734719569687e-8
          3.9320305597568435e-8 5.3983551897626114e-8 5.258834421234359e-8 5.1858846459902705e-8 4.822082419727525e-8 3.261016838959622e-8
          2.7946044921199895e-8 4.9549114692234783e-8 3.3890862593389875e-8 1.7656601238550656e-8 1.1426941903126928e-8 2.0671754778750593e-8
          1.5838934050240617e-8 1.2586013764032296e-8 9.956355974316445e-9 7.443953494287114e-9 1.8594235771465793e-8 1.4882247255400933e-8
          1.15915328926194e-8 6.644658767390432e-9 4.085627112576629e-9 7.516096867575172e-9 5.790214602376341e-9 4.257830252686069e-9
          3.4292125793006886e-9 2.3570473697062507e-9 6.605194162155494e-9 4.9321202824620275e-9 3.932590058011336e-9 2.2728345812850596e-8
          1.4518393061338851e-8 2.36564483151253e-8 2.0504424319027514e-8 1.64905973042573e-8 1.2697882877733742e-8 9.593558104389084e-9
          2.128632804406296e-8 1.706954593398079e-8 1.3137781371235176e-8 8.072742927342291e-9 5.0330072115547215e-9 8.306019871011771e-9
          7.1425272166988026e-9 5.39116275254473e-9 4.240021536022557e-9 2.9559984331185656e-9 7.350539572489341e-9 5.553311112873938e-9
          4.3562699316004396e-9 1.978324739389333e-9 2.202271775799247e-9 1.8730819834095736e-9 2.530380218131809e-9 1.7354742475985997e-9
          1.8982045116226706e-9 1.4539796870731904e-9 1.5356862239433398e-9 2.158691703691765e-9 1.500575776152218e-9 1.6947664289146062e-9
          2.7052897534727555e-9 2.275016918546615e-9 2.7760378828910532e-9 2.315859944458139e-9 1.616470085269506e-9 1.818600516033127e-9
          1.1283674932223068e-9 2.3752712571794903e-9 1.6578398139362875e-9 1.8650609350505303e-9 3.455178133253691e-8 8.686964707787142e-9
          8.562198803526504e-9 4.158478620901425e-8 6.380185608174192e-9 9.245028651652572e-9 7.019884055989629e-9 9.258078685110848e-9
          1.9005249838617513e-8 4.4863651223993716e-8 9.431688721838372e-9 8.7939247369448e-9 1.3263324538763194e-8 6.5975850477350825e-9
          1.521755945741718e-8 1.0105089976863549e-8 8.43191658121444e-9 1.1072248110835991e-8 3.5962083066462544e-8 1.6662739760321964e-8
          3.495748659948335e-9 4.177545921404371e-9 2.6397626393807434e-9 1.565901402731771e-7 1.2035751011343216e-7 1.034631542963876e-7
          1.6217700215295897e-7 6.476374428548185e-8 1.2793651924843142e-7 1.1368896320218345e-7 2.8794640469296452e-8 3.965790113485699e-9
          2.740807478668335e-9 4.429177685006835e-9 2.969042873179488e-9 3.3372178218156317e-9 3.800316231852656e-9 4.3705283913778e-9
          2.578653806833168e-9 3.5883977730001753e-9 2.3489101310903475e-8 2.2070222449963406e-8 2.4090569587601548e-8 1.9240943040575014e-8
          1.825324578977999e-8 2.890068304117217e-8 2.7555101643242485e-8 1.888051743863818e-8 1.548982796009735e-8 2.3395118997344774e-8
          3.839607608202256e-8 3.749125393751079e-8 3.284282183912408e-8 1.4878360987436859e-8 1.662948875766377e-8 1.175831993407828e-8
          1.7491136308531097e-8 1.0488629389188941e-8 8.12985111263021e-9 1.1829708162941028e-8 2.4445266037287856e-8 1.613095821015725e-8
          4.479610666509036e-9 3.1945139914540153e-9 3.771000080031159e-9 8.029576679727787e-9 7.020600967967807e-9 3.225556908063821e-9
          2.228028775017775e-9 5.247049338237757e-9 3.511310120410827e-9 2.422024604522587e-9 2.2416736208539657e-9 5.261322318145006e-9
          3.2753238142401717e-9 1.1206557121416122e-9 1.3760044909669927e-9 1.0381751571856005e-9 1.9617011091434037e-9 7.468664479695832e-9
          4.542400586987373e-9 2.6762158707003276e-9 1.9470980686209703e-9 9.242364894110709e-9 5.6545880932364645e-9 1.290336013560506e-8
          7.721894447186851e-9 3.3228493194134556e-9 4.437484358874664e-9 1.892649889052168e-9 2.4829415318103556e-9 1.3540590253109755e-9
          1.5138893237605534e-9 4.208501218755115e-8 4.3514423333512236e-8 4.1636537310650795e-8 3.94036242352568e-8 4.394166092801183e-8
          4.73033868541386e-8 3.199497427928784e-8 2.070667959109087e-8 3.865356155275732e-8 3.590325172625245e-8 4.229440866985469e-8
          4.978344115641471e-8 3.466934344623506e-8 4.154246695822513e-8 5.040134114828656e-8 4.30022134129334e-8 4.447085623611579e-8
          2.6444602572817894e-8 1.6780932761867905e-8 3.2346779506078215e-8 2.0320412847545665e-8 3.640651120716371e-8 2.2848266090137192e-8
          3.78195111216061e-8 2.3770621872526144e-8 9.87230057055769e-9 5.578333266305691e-9 1.1780613031899002e-8 6.582313710562599e-9
          3.0781481720310643e-9 1.657245109101173e-9 3.5928346505848325e-9 1.929771341711676e-9 1.3103058993649795e-8 7.2750253888768515e-9
          1.3577057832916797e-8 7.522563956116332e-9 3.94359890102898e-9 2.1022711008845232e-9 4.067682524813554e-9 2.162745679455727e-9
          1.232589497594212e-9 1.329320346647962e-9 9.91676233311611e-10 8.422397386681265e-10 9.094215247005934e-10 1.0279266052092552e-9
          6.732985491252797e-10 7.122234492716941e-10 1.1083935123414942e-9 7.625259273346449e-10 1.1375371249975384e-9 7.816789017892336e-10
        </DataArray>
        <DataArray type="Float64" Name="gradient_matprop_error" format="ascii" RangeMin="0" RangeMax="0">
          0 0 0 0 0 0
          0 0 0 0 0 0
          0 0 0 0 0 0
          0 0 0 0 0 0
          0 0 0 0 0 0
          0 0 0 0 0 0
          0 0 0 0 0 0
          0 0 0 0 0 0
          0 0 0 0 0 0
          0 0 0 0 0 0
          0 0 0 0 0 0
          0 0 0 0 0 0
          0 0 0 0 0 0
          0 0 0 0 0 0
          0 0 0 0 0 0
          0 0 0 0 0 0
          0 0 0 0 0 0
          0 0 0 0 0 0
          0 0 0 0 0 0
          0 0 0 0 0 0
          0 0 0 0 0 0
          0 0 0 0 0 0
          0 0 0 0 0 0
          0 0 0 0 0 0
          0 0 0 0 0 0
          0 0 0 0 0 0
          0 0 0 0 0 0
          0 0 0 0 0 0
          0 0 0 0 0 0
          0 0 0 0 0 0
          0 0 0 0 0 0
          0 0 0 0 0 0
          0 0 0 0 0 0
          0 0 0 0 0 0
          0 0 0 0 0 0
          0 0 0 0 0 0
          0 0 0 0 0 0
          0 0 0 0 0 0
          0 0 0 0 0 0
          0 0 0 0 0 0
          0 0 0 0 0 0
          0 0 0 0 0 0
          0 0 0 0 0 0
          0 0 0 0 0 0
          0 0 0 0 0 0
          0 0 0 0 0 0
          0 0 0 0 0 0
          0 0 0 0 0 0
          0 0 0 0 0 0
          0 0 0 0 0 0
          0 0 0 0 0 0
          0 0 0 0 0 0
          0 0 0 0 0 0
          0 0 0 0 0 0
          0 0 0 0 0 0
          0 0 0 0 0 0
          0 0 0 0 0 0
          0 0 0 0 0 0
          0 0 0 0 0 0
          0 0 0 0 0 0
          0 0 0 0 0 0
          0 0 0 0 0 0
          0 0 0 0 0 0
          0 0 0 0 0 0
          0 0 0 0 0 0
          0 0 0 0 0 0
        </DataArray>
        <DataArray type="Float64" Name="initial_marker" format="ascii" RangeMin="0" RangeMax="2">
          0.75 2 2 2 2 1.5
          2 2 2 0.25 0 0.5
          0.3333333333333333 2 2 1.3333333333333333 2 2
          2 2 2 2 2 2
          2 2 2 2 1 2
          2 1.5 2 2 2 2
          2 2 2 2 2 2
          2 2 2 2 0.5 1
          0 1 0.25 0.5 0 0
          0.5 0 0 0 0 0
          0 0 0 2 2 2
          2 2 2 2 2 2
          2 2 2 2 2 2
          2 2 2 2 2 2
          2 2 2 2 2 2
          2 2 2 2 2 2
          2 2 2 2 2 2
          2 2 2 2 2 2
          1 1.5 1 2 1 1.5
          0 1 2 2 2 2
          2 2 2 2 2 2
          2 2 2 2 2 2
          2 2 2 2 2 2
          2 2 2 2 2 2
          2 2 2 2 2 2
          2 2 2 2 2 2
          2 2 2 2 2 2
          2 2 2 2 2 2
          2 2 2 2 2 2
          2 2 2 2 2 2
          2 2 2 2 2 2
          2 2 2 2 2 2
          2 2 2 2 2 2
          2 2 2 2 2 2
          2 2 2 2 2 2
          2 2 2 2 2 2
          2 2 2 2 2 2
          2 2 2 2 2 2
          2 1 1 0 1 1
          1 0 0 1 1 0
          1 0 1 1 1 0
          0 1 1 0 0 0
          0 0 0 0 0 0
          0 0.3333333333333333 0 0 0 0
          0.5 0.25 0 0 1.6666666666666667 1.5
          0 0 1.5 2 2 2
          2 2 2 2 2 0
          0 0 0 0 1 0
          0 1.5 2 2 2 2
          2 2 2 2 2 2
          2 2 2 2 2 2
          2 2 2 2 2 2
          2 2 2 2 2 2
          2 2 2 2 2 2
          2 1 1.5 1 2 2
          2 2 2 2 2 2
          2 2 2 2 2 2
          2 2 2 2 2 2
          2 2 2 2 2 2
          2 2 2 2 2 2
          2 2 2 2 2 2
          2 2 2 2 2 2
          2 2 2 2 2 2
          2 2 2 2 2 2
          1 1 0 1 1 1
          0 0 1 0 1 0
        </DataArray>
        <DataArray type="Float64" Name="markers_norefine" format="ascii" RangeMin="0" RangeMax="2">
          0 2 0 1.5 0 0
          0.5 0 0 0 0 0
          0 0.5 0 0 0 2
          2 0 2 0 0 0
          1 0.25 0 0 0 0
          0 0 2 1.75 0 0
          2 2 0 0 0 0
          0 0 0 0 0 0
          0 0 0 0 0 0
          0 0 0 0 0 0
          0 0 0 1.6666666666666667 0 2
          2 1.5 2 0.5 0 1
          2 2 2 2 1.25 0.5
          1.5 0 0 0 2 2
          1 1 0 0 0 0.5
          0.25 0 0 0 0 0
          0 0 0 0 0 0
          0 0 0 0 0 0
          0 0 0 0 0 0
          0 0 0 0 0 0
          0 0 0 0 0 0
          0 0 0 0 0 0
          0 0 2 2 2 1.75
          1.5 1 2 2 2 2
          1.5 1.25 0.5 2 2 1.25
          0.5 0.25 0 0 1 0.75
          0 0 0 0.25 0 2
          2 2 2 2 2 2
          2 2 2 2 2 1.5
          2 2 1.5 1 1 0
          0 1 1 0 0.5 0
          0 0.5 0 0 0 0
          0 0 0 0 0 0
          0 0 0 0 0 0
          0 0 0 0 0 0
          0 0 0 0 0 0
          0 0 0 0 0 0
          0 0 0 0 0 0
          0 0 0 0 0 0
          0 0 0 0 0 0
          0 0 0 0 0 0
          0 0 0 0 0 0
          0 0 0 0 0 0
          0 0 0 0 0 0
          0 0 0 0 0 0
          0 0 0 0 0 0
          0 0 0 0 0 0
          0 0 0 0 0 0
          0 0 0 0 0 0
          0 0 0 0 0 0
          0 0 0 0 0 0
          0 0 0 0 0 0
          0 0 0 0 0 0
          0 0 0 0 0 0
          0 0 0 0 0 0
          0 0 0 0 0 0
          0 0 0 0 0 0
          0 1 0.75 0.25 2 1.75
          0.75 0 0 0 2 2
          1 2 2 1 0 0
          0 0 0 0 0 0
          0 0 0 0 0 0
          0 0 0 0 0 0
          0 0 0 0 0 0
          0 0 0 0 0 0
          0 0 0 0 0 0
        </DataArray>
        <DataArray type="Float64" Name="markers_mustrefine" format="ascii" RangeMin="0" RangeMax="2">
          0.75 2 2 2 2 1.5
          2 2 2 0.25 0 0.5
          0.3333333333333333 2 2 1.3333333333333333 2 2
          2 2 2 2 2 2
          2 2 2 2 1 2
          2 1.5 2 2 2 2
          2 2 2 2 2 2
          2 2 2 2 0.5 1
          0 1 0.25 0.5 0 0
          0.5 0 0 0 0 0
          0 0 0 2 2 2
          2 2 2 2 2 2
          2 2 2 2 2 2
          2 2 2 2 2 2
          2 2 2 2 2 2
          2 2 2 2 2 2
          2 2 2 2 2 2
          2 2 2 2 2 2
          1 1.5 1 2 1 1.5
          0 1 2 2 2 2
          2 2 2 2 2 2
          2 2 2 2 2 2
          2 2 2 2 2 2
          2 2 2 2 2 2
          2 2 2 2 2 2
          2 2 2 2 2 2
          2 2 2 2 2 2
          2 2 2 2 2 2
          2 2 2 2 2 2
          2 2 2 2 2 2
          2 2 2 2 2 2
          2 2 2 2 2 2
          2 2 2 2 2 2
          2 2 2 2 2 2
          2 2 2 2 2 2
          2 2 2 2 2 2
          2 2 2 2 2 2
          2 2 2 2 2 2
          2 1 1 0 1 1
          1 0 0 1 1 0
          1 0 1 1 1 0
          0 1 1 0 0 0
          0 0 0 0 0 0
          0 0.3333333333333333 0 0 0 0
          0.5 0.25 0 0 1.6666666666666667 1.5
          0 0 1.5 2 2 2
          2 2 2 2 2 0
          0 0 0 0 1 0
          0 1.5 2 2 2 2
          2 2 2 2 2 2
          2 2 2 2 2 2
          2 2 2 2 2 2
          2 2 2 2 2 2
          2 2 2 2 2 2
          2 1 1.5 1 2 2
          2 2 2 2 2 2
          2 2 2 2 2 2
          2 2 2 2 2 2
          2 2 2 2 2 2
          2 2 2 2 2 2
          2 2 2 2 2 2
          2 2 2 2 2 2
          2 2 2 2 2 2
          2 2 2 2 2 2
          1 1 0 1 1 1
          0 0 1 0 1 0
        </DataArray>
        <DataArray type="Float64" Name="gradient_marker" format="ascii" RangeMin="0" RangeMax="1">
          0.5 0 0.25 0.25 0.75 0.25
          0.5 1 1 0.5 0.5 0.5
          0.5 0.375 0.25 0 0.5 0
          0 0.5 0 0.5 0 0.5
          0.75 0.75 0.875 0.625 0.5 0.75
          1 0.5 0.5 0.5 0.75 1
          0.5 0.5 0.75 0.75 1 0.5
          1 0.75 1 0.5 0 0
          0 0 0.5 0.5 0.5 0.5
          0.5 0.5 0 0 0 0.5
          0.5 0.5 0.5 0 0 0
          0 0 0 0 0 0
          0 0 0 0 0 0
          0 1 1 1 0 0
          0.6666666666666666 0 1 1 1 1
          1 1 1 1 0 0.6666666666666666
          0 1 1 1 1 1
          1 1 1 1 1 1
          1 1 1 1 1 1
          1 1 1 1 1 1
          1 1 1 1 1 1
          1 1 1 1 1 1
          1 1 0 0 0.5 0.5
          0 0.5 0 0 0.5 0
          1 1 1 1 1 1
          0 0.5 0 0.6666666666666666 0 0.5
          0 1 1 1 1 0
          0 0.5 0.5 0 0.5 0
          0 0.5 0 1 1 1
          1 1 1 0 0.5 0
          0.6666666666666666 0 0.5 0 1 1
          1 1 1 1 1 1
          1 1 1 1 1 1
          1 1 1 1 1 1
          1 1 1 1 1 1
          1 1 1 1 1 1
          1 1 1 1 1 1
          1 1 1 1 1 1
          1 1 1 1 1 1
          1 1 1 1 1 1
          1 1 1 1 1 1
          1 1 1 1 0.6666666666666666 1
          1 0.875 1 1 1 1
          0.75 0.6666666666666666 1 1 1 1
          0 0.5 0.5 0 0 0.5
          1 1 1 0.75 1 1
          0.875 0.875 0.75 0.5 0.625 1
          1 1 1 1 1 1
          1 1 1 1 1 1
          1 1 1 1 1 1
          1 1 1 1 1 1
          1 1 1 1 1 1
          1 1 1 1 1 1
          1 1 1 1 1 1
          1 1 1 1 1 1
          1 1 1 1 1 1
          1 1 1 1 1 1
          1 1 1 1 1 1
          1 1 1 1 1 1
          1 1 1 1 1 1
          1 1 1 1 1 1
          1 1 1 1 1 1
          1 1 1 1 1 1
          1 1 1 1 1 1
          1 1 1 1 1 1
          1 1 1 1 1 1
        </DataArray>
        <DataArray type="Float64" Name="gradient_matprop_marker" format="ascii" RangeMin="0" RangeMax="0">
          0 0 0 0 0 0
          0 0 0 0 0 0
          0 0 0 0 0 0
          0 0 0 0 0 0
          0 0 0 0 0 0
          0 0 0 0 0 0
          0 0 0 0 0 0
          0 0 0 0 0 0
          0 0 0 0 0 0
          0 0 0 0 0 0
          0 0 0 0 0 0
          0 0 0 0 0 0
          0 0 0 0 0 0
          0 0 0 0 0 0
          0 0 0 0 0 0
          0 0 0 0 0 0
          0 0 0 0 0 0
          0 0 0 0 0 0
          0 0 0 0 0 0
          0 0 0 0 0 0
          0 0 0 0 0 0
          0 0 0 0 0 0
          0 0 0 0 0 0
          0 0 0 0 0 0
          0 0 0 0 0 0
          0 0 0 0 0 0
          0 0 0 0 0 0
          0 0 0 0 0 0
          0 0 0 0 0 0
          0 0 0 0 0 0
          0 0 0 0 0 0
          0 0 0 0 0 0
          0 0 0 0 0 0
          0 0 0 0 0 0
          0 0 0 0 0 0
          0 0 0 0 0 0
          0 0 0 0 0 0
          0 0 0 0 0 0
          0 0 0 0 0 0
          0 0 0 0 0 0
          0 0 0 0 0 0
          0 0 0 0 0 0
          0 0 0 0 0 0
          0 0 0 0 0 0
          0 0 0 0 0 0
          0 0 0 0 0 0
          0 0 0 0 0 0
          0 0 0 0 0 0
          0 0 0 0 0 0
          0 0 0 0 0 0
          0 0 0 0 0 0
          0 0 0 0 0 0
          0 0 0 0 0 0
          0 0 0 0 0 0
          0 0 0 0 0 0
          0 0 0 0 0 0
          0 0 0 0 0 0
          0 0 0 0 0 0
          0 0 0 0 0 0
          0 0 0 0 0 0
          0 0 0 0 0 0
          0 0 0 0 0 0
          0 0 0 0 0 0
          0 0 0 0 0 0
          0 0 0 0 0 0
          0 0 0 0 0 0
        </DataArray>
        <DataArray type="Float64" Name="combo" format="ascii" RangeMin="0" RangeMax="2">
          0.5 2 0.25 1.75 0.75 0.25
          1 1 1 0.5 0.5 0.5
          0.5 0.875 0.25 0 0.5 2
          2 0.5 2 0.5 0 0.5
          1.5 1 0.875 0.625 0.5 0.75
          1 0.5 2 1.875 0.75 1
          2 2 0.75 0.75 1 0.5
          1 0.75 1 0.5 0 0
          0 0 0.5 0.5 0.5 0.5
          0.5 0.5 0 0 0 0.5
          0.5 0.5 0.5 1.6666666666666667 0 2
          2 1.5 2 0.5 0 1
          2 2 2 2 1.25 0.5
          1.5 1 1 1 2 2
          1.5 1 1 1 1 1.25
          1.125 1 1 1 0 0.6666666666666666
          0 1 1 1 1 1
          1 1 1 1 1 1
          1 1 1 1 1 1
          1 1 1 1 1 1
          1 1 1 1 1 1
          1 1 1 1 1 1
          1 1 2 2 2 1.875
          1.5 1.375 2 2 2 2
          1.75 1.625 1.25 2 2 1.625
          0.5 0.75 0 0.6666666666666666 1 1.125
          0 1 1 1.125 1 2
          2 2 2 2 2 2
          2 2 2 2 2 1.75
          2 2 1.75 1 1.25 0
          0.6666666666666666 1 1.25 0 1.25 1
          1 1.25 1 1 1 1
          1 1 1 1 1 1
          1 1 1 1 1 1
          1 1 1 1 1 1
          1 1 1 1 1 1
          1 1 1 1 1 1
          1 1 1 1 1 1
          1 1 1 1 1 1
          1 1 1 1 1 1
          1 1 1 1 1 1
          1 1 1 1 0.6666666666666666 1
          1 0.875 1 1 1 1
          0.75 0.6666666666666666 1 1 1 1
          0 0.5 0.5 0 0 0.5
          1 1 1 0.75 1 1
          0.875 0.875 0.75 0.5 0.625 1
          1 1 1 1 1 1
          1 1 1 1 1 1
          1 1 1 1 1 1
          1 1 1 1 1 1
          1 1 1 1 1 1
          1 1 1 1 1 1
          1 1 1 1 1 1
          1 1 1 1 1 1
          1 1 1 1 1 1
          1 1 1 1 1 1
          1 1.5 1.375 1.125 2 1.875
          1.375 1 1 1 2 2
          1.5 2 2 1.5 1 1
          1 1 1 1 1 1
          1 1 1 1 1 1
          1 1 1 1 1 1
          1 1 1 1 1 1
          1 1 1 1 1 1
          1 1 1 1 1 1
        </DataArray>
        <DataArray type="Float64" Name="dHdT" format="ascii" RangeMin="25.86143449502608" RangeMax="56.01436227498954">
          26.49751818255015 46.31098473840174 28.329525693519663 51.024475773858285 34.46781744508064 27.526981457657193
          42.189831814491825 34.37449297814367 26.56005895725117 26.230964846197736 25.93828861214455 26.329323400736346
          26.303864268341567 44.30199138888898 28.528612923296215 27.050551044908264 30.358150426131072 46.533935959596334
          52.47855832931032 38.93519508598374 50.08400149400439 31.905240500227954 28.428256055182207 32.52312225547844
          47.04531799413097 40.21915126846529 33.17453822214657 27.609810581815072 26.530109648682085 28.97591706694229
          27.264046227531228 26.940025260633398 50.551156647517004 51.35108132290026 36.00498817593102 33.35053155242795
          46.2680179146076 51.622951419149864 38.016456723105705 30.270734179499343 27.974894673325608 27.34758506681448
          26.487260783170925 30.802543432757474 28.3039026186907 27.51070405035849 26.421436662505418 26.568081657030994
          26.257209165955373 26.632833196934286 26.270831144803932 26.379665686294246 26.09450250758401 26.148356043813518
          26.427520789818534 26.173091729901536 26.17341970623228 26.256481457057706 26.111876030224774 26.094691596845074
          26.155709941835553 26.017972812199922 26.041678734821225 52.26948526527631 41.438516698604076 51.48189173532478
          52.840668694201966 51.6864007109903 48.94825198090064 44.062675368800356 38.95199496869929 48.42868241832363
          46.299960589191436 46.66773020257677 50.651223813042215 46.26512782778068 50.806927891076725 47.346907972031126
          51.44332498450284 37.71364220006262 37.04365016875007 35.63673102070568 55.418013352466424 53.34392006823556
          46.591617182695906 46.69684017518185 36.925571578729816 36.34082103318143 34.856396999404666 44.02167431570097
          41.86169200045589 37.98351177657863 33.46512524247696 30.726552509663563 39.45845280552702 36.70615452623793
          36.79305204469506 32.54724915066197 30.035044490238857 34.94399815463771 31.924863921812115 27.223908508505225
          26.76387358365159 27.869090193977577 27.014491275181893 26.619245397904088 27.57628921855249 26.942861727376922
          26.349210433160412 26.44422311320777 26.317257107401375 26.661614450542427 26.267846469175655 26.348550203077657
          26.18061131744974 26.241370850212448 26.533902286143153 26.377796369554034 28.736298276559523 27.617062992653352
          29.863427612833085 28.330215109621964 27.355943716739162 29.296883528663034 28.331526612452087 27.83953292665119
          26.92880322677387 26.673418583013017 27.221527698854665 26.762008467004346 26.540245529444245 27.01422661586015
          26.66138239968019 26.61490473539335 52.7026857024419 52.94509295167103 54.4809388279714 52.70911071874751
          49.689378491048146 46.7868457445472 48.1251191688181 50.61601235803532 52.37512837940274 52.34437021006021
          53.40236888671955 50.273470514728835 43.14936222303247 54.151219624403026 53.719601600464514 48.773909596890064
          41.83960095591771 39.591079405923985 37.48794513063928 35.330683679874035 45.90246112661262 43.14036730007817
          40.22308738035736 37.35620504361941 33.71150687464571 40.371425268265284 34.979600827035576 46.281028001964195
          47.869623894960654 46.244610458425825 49.38006247105056 51.43167605584536 52.00079143567095 46.299175718709535
          47.053488908957156 48.649320894723644 50.85652849848473 49.04239090539943 51.763332454186674 51.361629611241554
          46.71221293375615 50.4542274076608 51.76636100494683 48.61357783251721 45.6184910938057 43.82202334130083
          38.408778955715334 49.64298251811756 46.537624612413616 45.38071013847045 42.59796474664126 35.73467732910855
          34.124394948008536 43.25641980619989 36.008453678877515 31.272961889030338 28.793988166567708 32.60033703797794
          30.473115730702116 29.13407100292882 28.362701098734306 27.635482850281534 31.62110284329563 29.94298170873376
          28.85017760465665 27.514194448018355 26.82509767819951 27.767528610704538 27.26742053554233 26.845723430094107