<?xml version="1.0"?>
<VTKFile type="UnstructuredGrid" version="0.1" byte_order="LittleEndian" header_type="UInt32" compressor="vtkZLibDataCompressor">
  <UnstructuredGrid>
    <Piece NumberOfPoints="1260" NumberOfCells="771">
      <PointData>
        <DataArray type="Int32" Name="libmesh_node_id" format="ascii" RangeMin="0" RangeMax="12580">
          0 1 2 3 4 5
          6 7 8 9 10 11
          12 13 14 15 16 17
          18 19 20 21 22 23
          120 121 122 123 124 125
          126 127 128 129 130 131
          180 181 182 183 184 185
          186 187 188 189 190 191
          240 241 242 243 244 245
          246 247 248 249 250 251
          300 301 302 303 304 305
          330 331 332 333 334 335
          360 361 362 363 364 365
          366 367 368 369 370 371
          420 421 422 423 424 425
          450 451 452 453 454 455
          480 481 482 483 484 485
          486 487 488 489 490 491
          492 493 540 541 542 543
          544 545 546 570 571 572
          573 574 575 576 600 601
          602 603 604 605 606 607
          608 609 610 611 612 613
          660 661 662 663 664 665
          666 690 691 692 693 694
          695 696 720 721 722 723
          724 725 726 727 728 729
          730 731 732 733 780 781
          782 783 784 785 786 810
          811 812 813 814 815 816
          840 841 842 843 844 845
          846 847 848 849 850 851
          852 853 854 855 900 901
          902 903 904 905 906 907
          930 931 932 933 934 935
          936 937 960 961 962 963
          964 965 966 967 968 969
          970 971 972 973 974 975
          1020 1021 1022 1023 1024 1025
          1026 1027 1050 1051 1052 1053
          1054 1055 1056 1057 1080 1081
          1082 1083 1084 1085 1086 1087
          1088 1089 1090 1091 1092 1093
          1094 1095 1096 1097 1140 1141
          1142 1143 1144 1145 1146 1147
          1148 1170 1171 1172 1173 1174
          1175 1176 1177 1178 1200 1201
          1202 1203 1204 1205 1206 1207
          1208 1209 1210 1211 1212 1213
          1214 1215 1216 1217 1260 1261
          1262 1263 1264 1265 1266 1267
          1268 1290 1291 1292 1293 1294
          1295 1296 1297 1298 1320 1321
          1322 1323 1324 1325 1326 1327
          1328 1329 1330 1331 1332 1333
          1334 1335 1336 1337 1338 1339
          1340 1341 1380 1381 1382 1383
          1384 1385 1386 1387 1388 1389
          1390 1410 1411 1412 1413 1414
          1415 1416 1417 1418 1419 1420
          1440 1441 1442 1443 1444 1445
          1446 1447 1448 1449 1450 1451
          1452 1453 1454 1455 1456 1457
          1458 1459 1460 1461 1500 1501
          1502 1503 1504 1505 1506 1507
          1508 1509 1510 1530 1531 1532
          1533 1534 1535 1536 1537 1538
          1539 1540 1560 1561 1562 1563
          1564 1565 1566 1567 1568 1569
          1570 1571 1572 1573 1574 1575
          1576 1577 1578 1579 1580 1581
          1620 1621 1622 1623 1624 1625
          1626 1627 1628 1629 1630 1650
          1651 1652 1653 1654 1655 1656
          1657 1658 1659 1660 1680 1681
          1682 1683 1684 1685 1686 1687
          1688 1689 1690 1691 1692 1693
          1694 1695 1696 1697 1698 1699
          1700 1701 1740 1741 1742 1743
          1744 1745 1746 1747 1748 1749
          1750 1770 1771 1772 1773 1774
          1775 1776 1777 1778 1779 1780
          1800 1801 1802 1803 1804 1805
          1806 1807 1808 1809 1810 1811
          1812 1813 1814 1815 1816 1817
          1818 1819 1820 1821 1822 1823
          1860 1861 1862 1863 1864 1865
          1866 1867 1868 1869 1870 1871
          1890 1891 1892 1893 1894 1895
          1896 1897 1898 1899 1900 1901
          1920 1921 1922 1923 1924 1925
          1926 1927 1928 1929 1930 1931
          1932 1933 1934 1935 1936 1937
          1938 1939 1940 1941 1942 1943
          1980 1981 1982 1983 1984 1985
          1986 1987 1988 1989 1990 1991
          2010 2011 2012 2013 2014 2015
          2016 2017 2018 2019 2020 2021
          2040 2041 2042 2043 2044 2045
          2046 2047 2048 2049 2050 2051
          2052 2053 2054 2055 2056 2057
          2058 2059 2060 2061 2062 2063
          2064 2065 2100 2101 2102 2103
          2104 2105 2106 2107 2108 2109
          2110 2111 2112 2130 2131 2132
          2133 2134 2135 2136 2137 2138
          2139 2140 2141 2142 2160 2161
          2162 2163 2164 2165 2166 2167
          2168 2169 2170 2171 2172 2173
          2174 2175 2176 2177 2178 2179
          2180 2181 2182 2183 2184 2185
          2220 2221 2222 2223 2224 2225
          2226 2227 2228 2229 2230 2231
          2232 2250 2251 2252 2253 2254
          2255 2256 2257 2258 2259 2260
          2261 2262 2280 2281 2282 2283
          2284 2285 2286 2287 2288 2289
          2290 2291 2292 2293 2294 2295
          2296 2297 2298 2299 2300 2301
          2302 2303 2304 2305 2340 2341
          2342 2343 2344 2345 2346 2347
          2348 2349 2350 2351 2352 2370
          2371 2372 2373 2374 2375 2376
          2377 2378 2379 2380 2381 2382
          11994 11995 11996 11997 11998 11999
          12000 12001 12002 12003 12004 12005
          12006 12007 12008 12009 12010 12011
          12012 12013 12014 12015 12016 12017
          12018 12019 12020 12021 12022 12023
          12024 12025 12026 12027 12028 12029
          12030 12031 12032 12033 12034 12035
          12036 12037 12038 12039 12040 12041
          12042 12043 12044 12045 12046 12047
          12048 12049 12050 12051 12052 12053
          12054 12055 12056 12057 12058 12059
          12060 12061 12062 12063 12064 12065
          12066 12067 12068 12069 12070 12071
          12072 12073 12074 12075 12076 12077
          12078 12079 12080 12081 12082 12083
          12084 12085 12086 12087 12088 12089
          12090 12091 12092 12093 12094 12095
          12096 12107 12108 12109 12110 12111
          12112 12113 12114 12115 12116 12117
          12118 12119 12120 12121 12122 12123
          12124 12125 12126 12127 12128 12129
          12130 12131 12132 12133 12134 12135
          12136 12137 12138 12139 12140 12141
          12142 12143 12144 12145 12146 12147
          12148 12149 12150 12151 12152 12153
          12154 12155 12156 12157 12158 12159
          12160 12161 12162 12163 12164 12165
          12166 12167 12168 12169 12170 12171
          12172 12173 12174 12175 12176 12177
          12178 12179 12180 12181 12182 12183
          12184 12185 12186 12187 12188 12189
          12190 12191 12192 12193 12194 12195
          12196 12197 12198 12199 12200 12201
          12202 12203 12204 12205 12206 12207
          12208 12209 12210 12211 12212 12213
          12214 12215 12216 12217 12218 12219
          12220 12221 12222 12223 12224 12225
          12226 12227 12228 12229 12230 12231
          12232 12233 12234 12235 12236 12237
          12238 12239 12240 12241 12242 12243
          12244 12245 12246 12247 12248 12249
          12250 12251 12252 12253 12254 12258
          12259 12261 12262 12264 12316 12317
          12318 12319 12320 12321 12322 12323
          12324 12325 12326 12327 12328 12329
          12330 12331 12332 12333 12334 12335
          12336 12337 12338 12339 12340 12341
          12342 12343 12344 12345 12346 12347
          12348 12349 12350 12351 12352 12353
          12354 12355 12356 12357 12358 12359
          12360 12361 12362 12363 12364 12365
          12366 12367 12368 12369 12370 12371
          12372 12373 12374 12375 12376 12377
          12378 12379 12380 12381 12382 12383
          12384 12385 12386 12387 12388 12389
          12390 12391 12392 12393 12394 12395
          12396 12397 12398 12399 12400 12401
          12402 12403 12404 12405 12406 12407
          12408 12409 12410 12411 12412 12413
          12414 12415 12416 12417 12418 12419
          12420 12421 12422 12423 12424 12425
          12426 12427 12428 12429 12548 12549
          12550 12551 12552 12553 12554 12555
          12556 12557 12558 12559 12560 12561
          12562 12563 12564 12565 12566 12567
          12568 12569 12570 12574 12575 12577
          12578 12580 24 25 26 27
          132 133 192 193 252 253
          306 336 372 373 426 456
          374 375 494 495 427 547
          457 577 614 615 667 697
          734 735 787 817 736 737
          856 857 788 908 818 938
          976 977 1028 1058 978 979
          1098 1099 1029 1149 1059 1179
          1218 1219 1269 1299 1220 1221
          1222 1223 1342 1343 1270 1271
          1391 1300 1301 1421 1462 1463
          1511 1541 1582 1583 1631 1661
          1702 1703 1751 1781 1704 1705
          1824 1825 1752 1872 1782 1902
          1944 1945 1992 2022 1946 1947
          2066 2067 1993 2113 2023 2143
          2186 2187 2233 2263 2307 2353
          2383 12255 12256 12257 12260 12263
          12571 12572 12573 12576 2306 12579
        </DataArray>
        <DataArray type="Float64" Name="bounds" format="ascii" RangeMin="0" RangeMax="0">
          0 0 0 0 0 0
          0 0 0 0 0 0
          0 0 0 0 0 0
          0 0 0 0 0 0
          0 0 0 0 0 0
          0 0 0 0 0 0
          0 0 0 0 0 0
          0 0 0 0 0 0
          0 0 0 0 0 0
          0 0 0 0 0 0
          0 0 0 0 0 0
          0 0 0 0 0 0
          0 0 0 0 0 0
          0 0 0 0 0 0
          0 0 0 0 0 0
          0 0 0 0 0 0
          0 0 0 0 0 0
          0 0 0 0 0 0
          0 0 0 0 0 0
          0 0 0 0 0 0
          0 0 0 0 0 0
          0 0 0 0 0 0
          0 0 0 0 0 0
          0 0 0 0 0 0
          0 0 0 0 0 0
          0 0 0 0 0 0
          0 0 0 0 0 0
          0 0 0 0 0 0
          0 0 0 0 0 0
          0 0 0 0 0 0
          0 0 0 0 0 0
          0 0 0 0 0 0
          0 0 0 0 0 0
          0 0 0 0 0 0
          0 0 0 0 0 0
          0 0 0 0 0 0
          0 0 0 0 0 0
          0 0 0 0 0 0
          0 0 0 0 0 0
          0 0 0 0 0 0
          0 0 0 0 0 0
          0 0 0 0 0 0
          0 0 0 0 0 0
          0 0 0 0 0 0
          0 0 0 0 0 0
          0 0 0 0 0 0
          0 0 0 0 0 0
          0 0 0 0 0 0
          0 0 0 0 0 0
          0 0 0 0 0 0
          0 0 0 0 0 0
          0 0 0 0 0 0
          0 0 0 0 0 0
          0 0 0 0 0 0
          0 0 0 0 0 0
          0 0 0 0 0 0
          0 0 0 0 0 0
          0 0 0 0 0 0
          0 0 0 0 0 0
          0 0 0 0 0 0
          0 0 0 0 0 0
          0 0 0 0 0 0
          0 0 0 0 0 0
          0 0 0 0 0 0
          0 0 0 0 0 0
          0 0 0 0 0 0
          0 0 0 0 0 0
          0 0 0 0 0 0
          0 0 0 0 0 0
          0 0 0 0 0 0
          0 0 0 0 0 0
          0 0 0 0 0 0
          0 0 0 0 0 0
          0 0 0 0 0 0
          0 0 0 0 0 0
          0 0 0 0 0 0
          0 0 0 0 0 0
          0 0 0 0 0 0
          0 0 0 0 0 0
          0 0 0 0 0 0
          0 0 0 0 0 0
          0 0 0 0 0 0
          0 0 0 0 0 0
          0 0 0 0 0 0
          0 0 0 0 0 0
          0 0 0 0 0 0
          0 0 0 0 0 0
          0 0 0 0 0 0
          0 0 0 0 0 0
          0 0 0 0 0 0
          0 0 0 0 0 0
          0 0 0 0 0 0
          0 0 0 0 0 0
          0 0 0 0 0 0
          0 0 0 0 0 0
          0 0 0 0 0 0
          0 0 0 0 0 0
          0 0 0 0 0 0
          0 0 0 0 0 0
          0 0 0 0 0 0
          0 0 0 0 0 0
          0 0 0 0 0 0
          0 0 0 0 0 0
          0 0 0 0 0 0
          0 0 0 0 0 0
          0 0 0 0 0 0
          0 0 0 0 0 0
          0 0 0 0 0 0
          0 0 0 0 0 0
          0 0 0 0 0 0
          0 0 0 0 0 0
          0 0 0 0 0 0
          0 0 0 0 0 0
          0 0 0 0 0 0
          0 0 0 0 0 0
          0 0 0 0 0 0
          0 0 0 0 0 0
          0 0 0 0 0 0
          0 0 0 0 0 0
          0 0 0 0 0 0
          0 0 0 0 0 0
          0 0 0 0 0 0
          0 0 0 0 0 0
          0 0 0 0 0 0
          0 0 0 0 0 0
          0 0 0 0 0 0
          0 0 0 0 0 0
          0 0 0 0 0 0
          0 0 0 0 0 0
          0 0 0 0 0 0
          0 0 0 0 0 0
          0 0 0 0 0 0
          0 0 0 0 0 0
          0 0 0 0 0 0
          0 0 0 0 0 0
          0 0 0 0 0 0
          0 0 0 0 0 0
          0 0 0 0 0 0
          0 0 0 0 0 0
          0 0 0 0 0 0
          0 0 0 0 0 0
          0 0 0 0 0 0
          0 0 0 0 0 0
          0 0 0 0 0 0
          0 0 0 0 0 0
          0 0 0 0 0 0
          0 0 0 0 0 0
          0 0 0 0 0 0
          0 0 0 0 0 0
          0 0 0 0 0 0
          0 0 0 0 0 0
          0 0 0 0 0 0
          0 0 0 0 0 0
          0 0 0 0 0 0
          0 0 0 0 0 0
          0 0 0 0 0 0
          0 0 0 0 0 0
          0 0 0 0 0 0
          0 0 0 0 0 0
          0 0 0 0 0 0
          0 0 0 0 0 0
          0 0 0 0 0 0
          0 0 0 0 0 0
          0 0 0 0 0 0
          0 0 0 0 0 0
          0 0 0 0 0 0
          0 0 0 0 0 0
          0 0 0 0 0 0
          0 0 0 0 0 0
          0 0 0 0 0 0
          0 0 0 0 0 0
          0 0 0 0 0 0
          0 0 0 0 0 0
          0 0 0 0 0 0
          0 0 0 0 0 0
          0 0 0 0 0 0
          0 0 0 0 0 0
          0 0 0 0 0 0
          0 0 0 0 0 0
          0 0 0 0 0 0
          0 0 0 0 0 0
          0 0 0 0 0 0
          0 0 0 0 0 0
          0 0 0 0 0 0
          0 0 0 0 0 0
          0 0 0 0 0 0
          0 0 0 0 0 0
          0 0 0 0 0 0
          0 0 0 0 0 0
          0 0 0 0 0 0
          0 0 0 0 0 0
          0 0 0 0 0 0
          0 0 0 0 0 0
          0 0 0 0 0 0
          0 0 0 0 0 0
          0 0 0 0 0 0
          0 0 0 0 0 0
          0 0 0 0 0 0
          0 0 0 0 0 0
          0 0 0 0 0 0
          0 0 0 0 0 0
          0 0 0 0 0 0
          0 0 0 0 0 0
          0 0 0 0 0 0
          0 0 0 0 0 0
          0 0 0 0 0 0
          0 0 0 0 0 0
          0 0 0 0 0 0
          0 0 0 0 0 0
          0 0 0 0 0 0
        </DataArray>
        <DataArray type="Float64" Name="gradient_error" format="ascii" RangeMin="5.642014888052575e-16" RangeMax="2.2160051788540788e-7">
          6.203166814663172e-16 6.204851282699455e-16 6.204693020980954e-16 6.203712119071072e-16 6.208398729477057e-16 6.2049512376113035e-16
          6.20694150744203e-16 6.208986209106357e-16 6.208489692611117e-16 6.206855412838384e-16 6.197697833364361e-16 6.202538085571478e-16
          6.21140341970825e-16 6.208705103186817e-16 6.192408947344371e-16 6.199049752200218e-16 6.211681088176074e-16 6.209145673030688e-16
          6.192932233253949e-16 6.198716684517676e-16 6.209213376140807e-16 6.208055959021808e-16 6.199100259960426e-16 6.201576298788614e-16
          6.205373341805199e-16 6.20525845190179e-16 6.207543223683683e-16 6.207816512876403e-16 6.20566433738157e-16 6.206868246844279e-16
          6.206009366571826e-16 6.206112815371088e-16 6.206284146967435e-16 6.205558286595651e-16 6.206426275981893e-16 6.205318274376541e-16
          6.206211924347943e-16 6.206259480324609e-16 6.206154670094609e-16 6.206059337017151e-16 6.206107541697488e-16 6.206358155909963e-16
          6.206011946478265e-16 6.206535073686114e-16 6.205958036049571e-16 6.206615437409896e-16 6.205954010060977e-16 6.206584211136282e-16
          6.2203514923387745e-16 6.232343807471542e-16 6.216050268235638e-16 6.208784377327225e-16 6.256418155296475e-16 6.231076653515962e-16
          6.270775051342714e-16 6.241310923606619e-16 6.262219523069606e-16 6.238911120260627e-16 6.233708630908519e-16 6.224991923365583e-16
          6.202525673983801e-16 6.201416243670963e-16 6.205187135763071e-16 6.207992637538632e-16 6.209816544826412e-16 6.210305689809103e-16
          6.205294618967867e-16 6.20561522502625e-16 6.204639119790696e-16 6.204138479206741e-16 6.204030372201176e-16 6.204336163795558e-16
          6.059186826383163e-16 6.021422952150352e-16 6.115795641425236e-16 6.139476737278962e-16 5.949603997364598e-16 6.068982207059908e-16
          5.919554985575728e-16 6.043701251026988e-16 5.977033004932588e-16 6.06739792845381e-16 6.108420407869924e-16 6.134123458407208e-16
          6.211364568537096e-16 6.215635419831984e-16 6.201475368984276e-16 6.19181544822285e-16 6.186552555349613e-16 6.186589657866422e-16
          6.212560806374076e-16 6.211504191489206e-16 6.214590321213337e-16 6.215783379967452e-16 6.215342258724193e-16 6.213352806788351e-16
          7.34624349156633e-16 7.47197019163044e-16 6.889041946193964e-16 6.807655703174925e-16 7.664902992214938e-16 7.026462946160785e-16
          7.612908891509684e-16 7.034644590219428e-16 7.195637234456688e-16 6.83339436347139e-16 6.573230876414295e-16 6.501575552025612e-16
          6.240130556670742e-16 6.305482819517944e-16 6.238571088341994e-16 6.221511634747765e-16 6.277003594068542e-16 6.310520945669661e-16
          6.320308179288802e-16 6.304849370045607e-16 6.280809213757135e-16 6.171028475926501e-16 6.173955354712012e-16 6.165984288030445e-16
          6.164661602410149e-16 6.169464866091511e-16 6.179778512454285e-16 6.190783345149124e-16 1.0254409497936442e-15 1.0773741728943431e-15
          8.29851619670026e-16 8.036389590902036e-16 1.1319913787235081e-15 8.578306435181292e-16 1.0185466401296532e-15 8.0053402814304e-16
          7.629309900677266e-16 6.693069488821561e-16 7.182647783256891e-16 6.442760152504971e-16 8.064169597589756e-16 6.90776185904014e-16
          6.109645128796693e-16 6.103235254893445e-16 6.120389238828298e-16 6.107668234531644e-16 6.053521063184967e-16 5.998634572551703e-16
          5.997698216156797e-16 6.395999593136297e-16 6.388100825919261e-16 6.404079394529092e-16 6.390122307499016e-16 6.35021304940408e-16
          6.294396623350357e-16 6.24404231182307e-16 4.955682468775045e-15 5.000405559144158e-15 3.2478276727864798e-15 3.2071915286525156e-15
          4.82381683488307e-15 3.1869232263865003e-15 3.9349643751760615e-15 2.7274536321729784e-15 2.494807901052145e-15 1.923609396492156e-15
          1.9315019643337032e-15 1.5094759728833171e-15 2.0101667813684164e-15 1.4283047383467663e-15 1.0299046491704548e-15 1.0114510386676215e-15
          1.0575591256898898e-15 1.0438010565540715e-15 9.656038100847888e-16 8.447965490157308e-16 7.364230447575715e-16 5.645595119121083e-16
          5.642014888052575e-16 5.650886334898484e-16 5.67659223938247e-16 5.787967282374109e-16 6.02143116598531e-16 6.264033941900269e-16
          2.2619303424326017e-14 2.2034701360667197e-14 1.409241262855817e-14 1.43747305375116e-14 1.9549612806200506e-14 1.278738254834011e-14
          1.429319897287175e-14 9.854351076971581e-15 8.899975872042956e-15 6.53921364291523e-15 9.148498508667508e-15 5.848695248467923e-15
          1.0916046723309867e-14 6.115982622051612e-15 9.60216938802485e-15 5.429023120387856e-15 3.556970716124001e-15 3.547890611572163e-15
          3.4792854267806218e-15 3.1348534111702458e-15 2.472765302860684e-15 1.643369707449317e-15 1.032389931269924e-15 1.0162288950939606e-15
          9.638175357988593e-16 9.656235724471434e-16 9.334185630815293e-16 8.542036412690775e-16 7.670791919338645e-16 7.378474266302968e-16
          7.48861341746491e-16 7.765809374370611e-16 9.451697405163743e-14 8.906517373586303e-14 5.874443749906484e-14 6.190701575778548e-14
          7.22176624257628e-14 4.894515283806607e-14 4.669651086060286e-14 3.374900572064799e-14 3.399787378159292e-14 2.4013606459364292e-14
          4.8911245252846537e-14 2.818188444538026e-14 5.922983276136305e-14 3.2040670572803276e-14 5.06062244038409e-14 2.8629412433027465e-14
          1.508881937355465e-14 1.5544411398418097e-14 1.362015431215967e-14 1.1070883373293594e-14 7.769406971276725e-15 4.771142583457231e-15
          3.6634826609715876e-15 4.612586982606469e-15 1.753937484842645e-15 1.7917653329026788e-15 1.567665373949997e-15 1.3402661658940556e-15
          1.5094748054177921e-15 2.0897615290004805e-15 2.4754569376996626e-15 2.572573502998913e-15 3.478634269162757e-13 3.1537243155952427e-13
          2.1520195541825172e-13 2.3503038842473065e-13 2.281894745308993e-13 1.6190110110558078e-13 1.4513219139268446e-13 1.0651485055032992e-13
          1.6931773720396717e-13 1.0400083099487226e-13 2.7758193298393507e-13 1.5203787311761333e-13 3.1102223447378406e-13 1.7244925546451687e-13
          2.53987414565842e-13 1.4913227907975847e-13 2.219364963202374e-13 1.372451068857686e-13 6.017460756599262e-14 6.391905775155606e-14
          5.013753000115742e-14 3.6384667005354066e-14 2.27954759558161e-14 1.8146166777100724e-14 2.2509928521604698e-14 2.755218446429189e-14
          3.1594905424868116e-14 5.317735855006075e-15 5.6407655699265645e-15 4.66233232205252e-15 4.871824302732759e-15 6.907027125854855e-15
          9.798520302909876e-15 1.1143580587959705e-14 1.0827225334908847e-14 1.0636093398436425e-14 1.0273682743979166e-12 8.792860527471071e-13
          6.314241946912014e-13 7.253239905318396e-13 5.980816436345376e-13 4.404106327781536e-13 6.156641800565422e-13 3.9146461494403024e-13
          1.055798866495472e-12 5.882753706721999e-13 1.5243083788599477e-12 8.474074919446706e-13 1.5550593627258133e-12 8.935148688090029e-13
          1.200918269226027e-12 7.288441373926492e-13 9.44329225072826e-13 6.035525932441731e-13 2.0310007965097868e-13 2.2363550822193807e-13
          1.5230251441112134e-13 9.673989396607781e-14 7.805248727066057e-14 1.0774560866244122e-13 1.4003936042035302e-13 1.507402095345283e-13
          1.5197492567153005e-13 2.263782266666158e-14 2.399130977811366e-14 2.1865406900473092e-14 2.621473810063736e-14 3.535309969239334e-14
          4.498461229548904e-14 4.810834594851348e-14 4.471041350978493e-14 4.117388992753991e-14 1.817685166681732e-12 1.8340831013993105e-12
          1.3380873369950077e-12 1.408221035003469e-12 2.51778657709741e-12 1.5503731923384127e-12 4.311189123334128e-12 2.4497998553664467e-12
          6.4650025583115054e-12 3.675254315159869e-12 7.882898365316484e-12 4.55331843273634e-12 7.356173081408362e-12 4.369779691538038e-12
          5.294615422693118e-12 3.316921198686573e-12 3.68559004502936e-12 2.451866558124818e-12 2.513967873639675e-12 1.7653649778627377e-12
          1.5843347631087404e-12 1.1379130455648131e-12 4.704867316171554e-13 5.509604078090281e-13 3.422271302793369e-13 3.5669998152450817e-13
          5.227800857253967e-13 7.0677261525273e-13 7.872480625930368e-13 7.528205003168092e-13 6.796017872534198e-13 5.625698663267369e-13
          3.834409815655371e-13 9.888189064360568e-14 1.0316391229285011e-13 1.0149445297925884e-13 1.249893756502513e-13 1.6005409944255959e-13
          1.8980673034926275e-13 1.9110982351835984e-13 1.6641402595359053e-13 1.4106050328656325e-13 1.0837765056767297e-13 7.539063511018812e-14
          1.2833175193889526e-11 1.5113484729044656e-11 9.12314375079015e-12 7.829574508033827e-12 2.126882252400768e-11 1.2638154224084999e-11
          2.9055819335658782e-11 1.7178612790227513e-11 3.557139707092033e-11 2.108107734903004e-11 3.790219825419335e-11 2.262733736426584e-11
          3.237363706753649e-11 1.978012474809745e-11 2.1130675811910287e-11 1.3681363087654685e-11 1.2426772461734653e-11 8.752798178502715e-12
          7.840466543452129e-12 5.809041125331342e-12 7.70346849627654e-12 4.973639217034472e-12 1.7776406853616722e-12 1.623230489818179e-12
          2.2311710193019194e-12 2.918792544423593e-12 3.6135306653279894e-12 4.02764090266414e-12 3.9256320964040844e-12 3.3858962079559235e-12
          2.750515779405241e-12 2.056097910634275e-12 1.3015794764849498e-12 4.224785981877008e-13 4.204871574582292e-13 4.548561144415236e-13
          5.361788440509465e-13 6.363037035162312e-13 7.028053309899449e-13 6.646517641497589e-13 5.397420525127638e-13 4.222076635397065e-13
          3.3458011405799513e-13 3.593490151774971e-13 1.1993620858446218e-10 1.2748003876948233e-10 7.969333368540292e-11 7.52959173430769e-11
          1.4542441685836234e-10 9.006577499126713e-11 1.6400116761053525e-10 1.0063219025619951e-10 1.7375245413099835e-10 1.0600201175130195e-10
          1.651891436572418e-10 1.0098354009744982e-10 1.2733234841939207e-10 7.963436467137097e-11 7.10697550067177e-11 4.787106588056262e-11
          3.515305098213895e-11 2.634441112513917e-11 3.422998470299872e-11 2.2623962490138525e-11 5.370055509245841e-11 3.006278315897313e-11
          1.7166060751290786e-11 1.6530621309926965e-11 1.8581339733076965e-11 1.9867170653584424e-11 2.0364429572746702e-11 1.9598173129313605e-11
          1.7081471876465397e-11 1.3323982116843223e-11 9.677482546497557e-12 6.480621060329603e-12 4.472238584512146e-12 2.42549290125807e-12
          2.405616518162332e-12 2.455546341982012e-12 2.4711284053050684e-12 2.4772897738878158e-12 2.418409720969365e-12 2.22656282958093e-12
          1.97558747927891e-12 1.819193824855726e-12 1.943301843380876e-12 2.519465943536447e-12 7.534487344353154e-10 7.598927954619854e-10
          4.852530498584992e-10 4.833319252147166e-10 7.713690498692849e-10 4.871121886863737e-10 7.675487792990296e-10 4.786565944834116e-10
          7.224267361616956e-10 4.4649709142112635e-10 6.0740774493166e-10 3.7571406045478073e-10 4.0342748391665327e-10 2.5600483235260527e-10
          2.1144653992475895e-10 1.4050719913749032e-10 1.8595762870199546e-10 1.1345846733717719e-10 2.840325816554015e-10 1.5801629186568013e-10
          3.8925300004825803e-10 2.144563064322266e-10 1.1428179002784058e-10 1.1573372258570805e-10 1.0984757751189556e-10 1.0238109360017474e-10
          9.183696853719973e-11 7.790408578505137e-11 6.021439078775028e-11 4.125869702004769e-11 2.7356287726610968e-11 2.338591219549863e-11
          2.8262470023336932e-11 1.795027580066825e-11 1.825232917729847e-11 1.6839827520328517e-11 1.499777753255579e-11 1.310649039384244e-11
          1.1787795592201363e-11 1.1846600786943276e-11 1.294953568987364e-11 1.375326948086299e-11 1.47718223150385e-11 1.6865327230478684e-11
          3.3318562479152304e-9 3.2431960416698583e-9 2.0473810214654063e-9 2.1134398893528422e-9 3.005733164519167e-9 1.8736895466458573e-9
          2.6463239336623045e-9 1.623907592688779e-9 2.1332069170397963e-9 1.293088501671121e-9 1.432857892594346e-9 8.746493249057087e-10
          1.0291103095201053e-9 6.37337604498602e-10 1.3409986392493954e-9 8.011352964194011e-10 1.9019431564414576e-9 1.1049627796317806e-9
          2.3314573571075996e-9 1.34184897865026e-9 2.6161515324091576e-9 1.5041352355941557e-9 2.6874985899530192e-9 1.549053913263393e-9
          4.793885954511032e-10 5.021905727797315e-10 4.210541902035816e-10 3.4603623692145645e-10 2.672778536122237e-10 1.9684794612573118e-10
          1.6335728126612103e-10 1.7532540576306283e-10 2.0083326427048177e-10 2.240831175879538e-10 2.4607819667887153e-10 2.557231467020016e-10
          1.0721118964125139e-10 1.0935761476900906e-10 1.0046245163461574e-10 9.058122212766008e-11 8.158562092200144e-11 7.725513503439072e-11
          8.114966305514346e-11 8.937885793671889e-11 9.36841257188601e-11 9.592563498298747e-11 1.0003745457858969e-10 1.0083705683023675e-10
          6.4868142034596705e-9 5.9235640935789665e-9 4.0072727287322096e-9 4.242248691976592e-9 4.716618951183282e-9 3.5221276553990424e-9
          4.0956940024845734e-9 3.3551284569812175e-9 4.948513276387086e-9 3.91459847758253e-9 6.979092176412356e-9 5.04605969284264e-9
          1.0281248101455002e-8 6.823998388497325e-9 1.4082297133996735e-8 8.83885655577e-9 1.6275348555897652e-8 9.956672811881982e-9
          1.685395381224529e-8 1.0172591274490637e-8 1.6598205351971862e-8 9.919096431881386e-9 1.5409400621427122e-8 9.151676746923795e-9
          1.2103743232604867e-9 1.1609470951591698e-9 1.3330844869164597e-9 1.4796056561801293e-9 1.6195961626774446e-9 1.7524525103662724e-9
          1.908222048807125e-9 2.0522426959032486e-9 2.087517743300864e-9 2.016505353981975e-9 1.890182309008938e-9 1.705331927682046e-9
          3.2976728263552153e-10 3.242110098248262e-10 3.3853261421811687e-10 3.4464840088239694e-10 3.585086465769151e-10 3.9187781145962157e-10
          4.4969542207460457e-10 5.090694142632342e-10 5.37038418735414e-10 5.417819712279631e-10 5.403771062269677e-10 5.167109829436222e-10
          1.483444876237704e-8 1.4281971600825658e-8 3.0772847444565614e-8 3.143668883221274e-8 1.3293711346527719e-8 2.930763822255344e-8
          1.3163574193892427e-8 2.7988877910382807e-8 1.485956852076278e-8 2.738175123930886e-8 1.8230592939244198e-8 2.7393590616124323e-8
          2.3079394253748344e-8 2.793203595978349e-8 7.425230277568918e-8 5.301576013405649e-8 1.1890349620218468e-7 7.506191860775774e-8
          1.1111244782425929e-7 6.906691970596651e-8 1.000711032202859e-7 6.134646564534803e-8 8.595089129504866e-8 5.210990462411605e-8
          6.939774303480701e-8 4.160126048792212e-8 2.5704416510666112e-8 2.614367991959612e-8 2.4654571335608496e-8 2.3428579709134143e-8
          2.2219768491254193e-8 2.104742544338287e-8 1.9911504765618265e-8 1.8662416915248784e-8 1.7006131288919827e-8 1.4928074833601225e-8
          1.268068347799353e-8 1.0383518724520599e-8 7.922607272413538e-9 2.2305087319035993e-9 2.4085798689310424e-9 1.843616008165246e-9
          1.53773251348715e-9 1.5039815513156929e-9 1.7435243404018333e-9 2.145035522558384e-9 2.548980916164984e-9 2.7919215645088394e-9
          2.834758079528762e-9 2.7395388855769003e-9 2.4981194958577495e-9 2.040436603789847e-9 6.187097102980148e-8 6.348461178041711e-8
          6.134441714768683e-8 6.126383119137556e-8 6.649722658290251e-8 6.129036941979217e-8 6.976016251889875e-8 6.09813341182151e-8
          7.316677603054331e-8 6.043854087659312e-8 7.671520230288947e-8 5.962166370841833e-8 8.046163515247294e-8 5.8495553373568075e-8
          1.2970734916392648e-7 8.085962028320716e-8 1.76965141980653e-7 1.0185188883430106e-7 1.756226183505899e-7 9.6415366215059e-8
          1.7245011020654363e-7 8.929882218285325e-8 1.674715048799835e-7 1.0178199562772992e-7 1.6018361237213108e-7 1.1062887281425528e-7
          3.509449550322886e-8 3.60072058691315e-8 3.296284990465205e-8 3.04591476317412e-8 2.794892713043159e-8 2.5519101946540857e-8
          2.3301713949598695e-8 2.1573887704222625e-8 2.0457959411869857e-8 1.9860331906287812e-8 1.9999422163105056e-8 4.215085427772442e-8
          5.912732468068413e-8 1.2595173109862933e-8 1.3369524260339e-8 1.0768933930381068e-8 8.745041362211038e-9 6.965636008429362e-9