<?xml version="1.0"?>
<VTKFile type="UnstructuredGrid" version="0.1" byte_order="LittleEndian" header_type="UInt32" compressor="vtkZLibDataCompressor">
  <UnstructuredGrid>
    <Piece NumberOfPoints="1428" NumberOfCells="815">
      <PointData>
        <DataArray type="Int32" Name="libmesh_node_id" format="ascii" RangeMin="1946" RangeMax="12807">
          1946 1947 1948 1949 1950 1951
          1952 1953 1954 1955 1956 1957
          1993 1994 1995 1996 1997 1998
          2023 2024 2025 2026 2027 2028
          2066 2067 2068 2069 2070 2071
          2072 2073 2074 2075 2076 2077
          2113 2114 2115 2116 2117 2118
          2143 2144 2145 2146 2147 2148
          2186 2187 2188 2189 2190 2191
          2192 2193 2194 2195 2196 2197
          2198 2233 2234 2235 2236 2237
          2238 2263 2264 2265 2266 2267
          2268 2306 2307 2308 2309 2310
          2311 2312 2313 2314 2315 2316
          2317 2318 2320 2353 2354 2355
          2356 2357 2358 2383 2384 2385
          2386 2387 2388 2400 2401 2402
          2403 2404 2405 2406 2407 2408
          2409 2410 2411 2412 2414 2415
          2416 2417 2418 2419 2421 2429
          2430 2461 2462 2463 2464 2465
          2466 2467 2468 2469 2470 2471
          2472 2473 2474 2523 2524 2525
          2526 2527 2528 2529 2530 2531
          2532 2533 2534 2535 2536 2537
          2538 2539 2540 2541 2542 2543
          2544 2545 2546 2547 2548 2549
          2550 2551 2552 2553 2554 2555
          2556 2557 2558 2559 2560 2561
          2562 2563 2564 2565 2566 2567
          2568 2569 2570 2571 2572 2573
          2575 2580 2581 2582 2585 2587
          2595 2694 2695 2696 2697 2698
          2699 2700 2701 2702 2703 2704
          2705 2706 2707 2708 2709 2710
          2711 2712 2713 2714 2715 2716
          2717 2718 2719 2720 2721 2722
          2723 2748 2749 2750 2751 2752
          2753 2754 2755 2756 2757 2758
          2759 2760 2761 2762 2763 2764
          2765 2766 2767 2768 2769 2770
          2771 2772 2773 2774 2775 2776
          2777 2778 2779 2780 2781 2782
          2783 2784 2785 2786 2787 2788
          2789 2790 2791 2792 2793 2794
          2795 2796 2797 2798 2799 2800
          2801 2802 2803 2804 2805 2806
          2807 2808 2809 2810 2811 2812
          2813 2814 2815 2816 2817 2818
          2819 2820 2821 2822 2823 2824
          2825 2826 2827 2828 2829 2830
          2831 2832 2833 2834 2835 2836
          2837 2838 2839 2840 2841 2842
          2843 2844 2845 2846 2847 2848
          2849 2850 2851 2852 2853 2854
          2855 2856 2857 2858 2859 2860
          2861 2862 2863 2864 2865 2866
          2867 2868 2869 2870 2871 2872
          2873 2874 2875 2876 2877 2878
          2879 2880 2881 2882 2883 2884
          2885 2886 2887 2888 2889 2890
          2891 2892 2893 2894 2896 2897
          2898 2899 2901 2902 2903 2904
          2905 2906 2907 2908 2909 2910
          2911 2912 2913 2914 2925 2926
          2927 2928 3185 3186 3187 3188
          3189 3190 3191 3195 3196 3197
          3229 3230 3231 3232 3233 3234
          3235 3236 3237 3238 3239 3240
          3241 3242 3243 3244 3245 3246
          3247 3248 3249 3250 3251 3253
          3254 3255 3256 3327 3328 3329
          3330 3331 3332 3333 3334 3335
          3336 3337 3338 3339 3340 3375
          3376 3377 3378 3379 3380 3381
          3382 3383 3384 3385 3386 3387
          3388 3389 3390 3391 3392 3393
          3394 3395 3396 3397 3398 3399
          3400 3401 3402 3403 3404 3405
          3406 3407 3408 3409 3410 3411
          3412 3413 3414 3415 3416 3417
          3418 3419 3420 3421 3422 3423
          3424 3425 3426 3427 3428 3429
          3430 3431 3432 3433 3434 3435
          3436 3437 3438 3439 3440 3441
          3442 3443 3444 3445 3446 3447
          3448 3449 3450 3451 3452 3453
          3454 3455 3456 3457 3458 3459
          3460 3461 3462 3463 3464 3465
          3466 3467 3468 3469 3470 3474
          3475 3477 3478 3479 3480 3481
          3482 3483 3484 3485 3488 3489
          3668 3669 3670 3671 3672 3673
          3674 3675 3676 3677 3678 3679
          3680 3681 3682 3683 3684 3685
          3686 3687 3712 3713 3714 3715
          3716 3717 3718 3719 3720 3721
          3722 3723 3724 3725 3726 3727
          3728 3729 3730 3731 3732 3733
          3734 3735 3736 3737 3738 3739
          3740 3741 3742 3743 3744 3745
          3746 3747 3748 3749 3750 3751
          3752 3753 3754 3755 3756 3757
          3758 3759 3760 3761 3762 3763
          3764 3765 3766 3767 3768 3769
          3770 3771 3772 3773 3774 3775
          3776 3777 3778 3779 3780 3781
          3782 3783 3784 3785 3786 3787
          3788 3789 3790 3791 3792 3793
          3794 3795 3796 3797 3798 3799
          3800 3801 3802 3803 3804 3805
          3806 3807 3808 3809 3810 3811
          3812 3813 3814 3815 3816 3817
          3818 3819 3820 3821 3822 3823
          3824 3825 3826 3827 3828 3829
          3830 3831 3832 3833 3834 3835
          3836 3837 3838 3839 3840 3841
          3842 3843 3844 3845 3846 3847
          3848 3849 3850 3851 3852 3853
          3854 3855 3856 3857 3858 3859
          3860 3861 3862 3863 3864 3865
          3866 3867 3868 3869 3870 3871
          3872 3873 3874 3875 3876 3877
          3878 3879 3880 3881 3882 3883
          3884 3885 3886 3887 3888 3892
          3893 3895 3896 3898 3913 3915
          3922 3923 3926 3928 3929 3931
          3942 3944 3946 3948 5103 5104
          5105 5106 5107 5108 5109 5110
          5111 5112 5114 5116 5119 5157
          5158 5159 5160 5161 5162 5163
          5164 5165 5166 5167 5168 5169
          5170 5171 5172 5173 5652 5653
          5654 5655 5656 5657 5658 5659
          5660 5661 5662 5663 5664 5665
          5666 5667 5668 5669 5670 5671
          5672 5673 5674 5675 5676 5677
          5678 5679 5680 5681 5682 5683
          5684 5685 5686 5687 5688 5689
          5690 5691 5692 5693 5694 5695
          5696 5697 5698 5699 5700 5701
          5702 5703 5704 5705 5706 5707
          5708 5709 5710 5711 5712 5713
          5714 5715 5716 5717 5718 5719
          5720 5721 5722 5723 5724 5725
          5726 5727 5728 5729 5730 5731
          5732 5734 5735 5736 5737 5738
          5739 5740 5741 5742 5743 5744
          5745 5746 5749 5751 5752 5754
          12097 12098 12099 12100 12101 12102
          12103 12104 12105 12106 12255 12256
          12257 12260 12263 12265 12266 12267
          12268 12269 12270 12271 12272 12273
          12274 12275 12276 12277 12278 12279
          12280 12281 12282 12283 12284 12285
          12286 12287 12288 12289 12290 12291
          12292 12293 12294 12295 12296 12297
          12298 12299 12300 12301 12302 12303
          12304 12305 12306 12307 12308 12309
          12310 12311 12312 12313 12314 12315
          12430 12431 12432 12433 12434 12435
          12436 12437 12438 12439 12440 12441
          12442 12443 12444 12445 12446 12447
          12448 12449 12450 12451 12452 12453
          12454 12455 12456 12457 12458 12459
          12460 12461 12462 12463 12464 12465
          12466 12467 12468 12469 12470 12471
          12472 12473 12474 12475 12476 12477
          12478 12479 12480 12481 12482 12483
          12484 12485 12486 12487 12488 12489
          12490 12491 12492 12493 12494 12495
          12496 12497 12498 12499 12500 12501
          12502 12503 12504 12505 12506 12507
          12508 12509 12510 12511 12512 12513
          12514 12515 12516 12517 12518 12519
          12520 12521 12522 12523 12524 12525
          12526 12527 12528 12529 12530 12531
          12532 12533 12534 12535 12536 12537
          12538 12539 12540 12541 12542 12543
          12544 12545 12546 12547 12571 12572
          12573 12576 12579 12581 12582 12583
          12584 12585 12586 12587 12588 12589
          12590 12591 12592 12593 12594 12595
          12596 12597 12598 12599 12600 12601
          12602 12603 12604 12605 12606 12607
          12608 12609 12610 12611 12612 12613
          12614 12615 12616 12617 12618 12619
          12620 12621 12622 12623 12624 12625
          12626 12627 12628 12629 12630 12631
          12632 12633 12634 12635 12636 12637
          12638 12639 12640 12641 12642 12643
          12644 12645 12646 12647 12648 12649
          12650 12651 12652 12653 12654 12655
          12656 12657 12658 12659 12660 12661
          12662 12663 12664 12665 12666 12667
          12668 12669 12670 12671 12672 12673
          12674 12675 12676 12677 12678 12679
          12680 12681 12682 12683 12684 12685
          12686 12687 12688 12689 12690 12691
          12692 12693 12694 12695 12696 12697
          12698 12699 12700 12701 12702 12703
          12704 12705 12706 12707 12708 12709
          12710 12711 12712 12713 12714 12715
          12716 12717 12718 12719 12720 12721
          12722 12723 12724 12725 12726 12727
          12728 12729 12730 12731 12732 12733
          12734 12735 12736 12737 12738 12739
          12740 12741 12742 12743 12744 12745
          12746 12747 12748 12749 12750 12751
          12752 12753 12754 12755 12756 12757
          12758 12759 12760 12761 12762 12763
          12764 12765 12766 12767 12768 12769
          12770 12771 12772 12773 12774 12775
          12776 12777 12778 12779 12780 12781
          12782 12783 12784 12785 12786 12787
          12788 12789 12790 12791 12792 12793
          12794 12795 12796 12797 12798 12799
          12800 12801 12802 12803 12804 12805
          12806 12807 1958 1959 2078 2079
          1999 2119 2029 2149 2199 2239
          2269 2359 2389 2413 2584 2586
          2422 2588 2589 2590 2591 2592
          2594 2596 2597 2319 2577 2598
          2578 2599 2425 2600 2579 2601
          2583 2605 2490 2492 2497 2500
          2895 2576 2900 2915 2916 2917
          2918 2919 2920 2922 2923 2924
          2934 2940 2936 2941 2962 2946
          2968 3192 3193 3194 3198 3201
          3202 2420 3204 3205 2200 2423
          3207 2426 3252 3257 3258 3259
          3260 3261 3262 2424 2574 3471
          3472 3473 3476 3486 3487 3490
          3493 3494 2933 3889 3890 3891
          3894 2935 3897 3924 3925 3927
          3930 2944 3914 3943 3945 3947
          5113 5115 3264 3266 5117 5118
          5733 5747 5748 5750 2943 5753
        </DataArray>
        <DataArray type="Float64" Name="bounds" format="ascii" RangeMin="0" RangeMax="0">
          0 0 0 0 0 0
          0 0 0 0 0 0
          0 0 0 0 0 0
          0 0 0 0 0 0
          0 0 0 0 0 0
          0 0 0 0 0 0
          0 0 0 0 0 0
          0 0 0 0 0 0
          0 0 0 0 0 0
          0 0 0 0 0 0
          0 0 0 0 0 0
          0 0 0 0 0 0
          0 0 0 0 0 0
          0 0 0 0 0 0
          0 0 0 0 0 0
          0 0 0 0 0 0
          0 0 0 0 0 0
          0 0 0 0 0 0
          0 0 0 0 0 0
          0 0 0 0 0 0
          0 0 0 0 0 0
          0 0 0 0 0 0
          0 0 0 0 0 0
          0 0 0 0 0 0
          0 0 0 0 0 0
          0 0 0 0 0 0
          0 0 0 0 0 0
          0 0 0 0 0 0
          0 0 0 0 0 0
          0 0 0 0 0 0
          0 0 0 0 0 0
          0 0 0 0 0 0
          0 0 0 0 0 0
          0 0 0 0 0 0
          0 0 0 0 0 0
          0 0 0 0 0 0
          0 0 0 0 0 0
          0 0 0 0 0 0
          0 0 0 0 0 0
          0 0 0 0 0 0
          0 0 0 0 0 0
          0 0 0 0 0 0
          0 0 0 0 0 0
          0 0 0 0 0 0
          0 0 0 0 0 0
          0 0 0 0 0 0
          0 0 0 0 0 0
          0 0 0 0 0 0
          0 0 0 0 0 0
          0 0 0 0 0 0
          0 0 0 0 0 0
          0 0 0 0 0 0
          0 0 0 0 0 0
          0 0 0 0 0 0
          0 0 0 0 0 0
          0 0 0 0 0 0
          0 0 0 0 0 0
          0 0 0 0 0 0
          0 0 0 0 0 0
          0 0 0 0 0 0
          0 0 0 0 0 0
          0 0 0 0 0 0
          0 0 0 0 0 0
          0 0 0 0 0 0
          0 0 0 0 0 0
          0 0 0 0 0 0
          0 0 0 0 0 0
          0 0 0 0 0 0
          0 0 0 0 0 0
          0 0 0 0 0 0
          0 0 0 0 0 0
          0 0 0 0 0 0
          0 0 0 0 0 0
          0 0 0 0 0 0
          0 0 0 0 0 0
          0 0 0 0 0 0
          0 0 0 0 0 0
          0 0 0 0 0 0
          0 0 0 0 0 0
          0 0 0 0 0 0
          0 0 0 0 0 0
          0 0 0 0 0 0
          0 0 0 0 0 0
          0 0 0 0 0 0
          0 0 0 0 0 0
          0 0 0 0 0 0
          0 0 0 0 0 0
          0 0 0 0 0 0
          0 0 0 0 0 0
          0 0 0 0 0 0
          0 0 0 0 0 0
          0 0 0 0 0 0
          0 0 0 0 0 0
          0 0 0 0 0 0
          0 0 0 0 0 0
          0 0 0 0 0 0
          0 0 0 0 0 0
          0 0 0 0 0 0
          0 0 0 0 0 0
          0 0 0 0 0 0
          0 0 0 0 0 0
          0 0 0 0 0 0
          0 0 0 0 0 0
          0 0 0 0 0 0
          0 0 0 0 0 0
          0 0 0 0 0 0
          0 0 0 0 0 0
          0 0 0 0 0 0
          0 0 0 0 0 0
          0 0 0 0 0 0
          0 0 0 0 0 0
          0 0 0 0 0 0
          0 0 0 0 0 0
          0 0 0 0 0 0
          0 0 0 0 0 0
          0 0 0 0 0 0
          0 0 0 0 0 0
          0 0 0 0 0 0
          0 0 0 0 0 0
          0 0 0 0 0 0
          0 0 0 0 0 0
          0 0 0 0 0 0
          0 0 0 0 0 0
          0 0 0 0 0 0
          0 0 0 0 0 0
          0 0 0 0 0 0
          0 0 0 0 0 0
          0 0 0 0 0 0
          0 0 0 0 0 0
          0 0 0 0 0 0
          0 0 0 0 0 0
          0 0 0 0 0 0
          0 0 0 0 0 0
          0 0 0 0 0 0
          0 0 0 0 0 0
          0 0 0 0 0 0
          0 0 0 0 0 0
          0 0 0 0 0 0
          0 0 0 0 0 0
          0 0 0 0 0 0
          0 0 0 0 0 0
          0 0 0 0 0 0
          0 0 0 0 0 0
          0 0 0 0 0 0
          0 0 0 0 0 0
          0 0 0 0 0 0
          0 0 0 0 0 0
          0 0 0 0 0 0
          0 0 0 0 0 0
          0 0 0 0 0 0
          0 0 0 0 0 0
          0 0 0 0 0 0
          0 0 0 0 0 0
          0 0 0 0 0 0
          0 0 0 0 0 0
          0 0 0 0 0 0
          0 0 0 0 0 0
          0 0 0 0 0 0
          0 0 0 0 0 0
          0 0 0 0 0 0
          0 0 0 0 0 0
          0 0 0 0 0 0
          0 0 0 0 0 0
          0 0 0 0 0 0
          0 0 0 0 0 0
          0 0 0 0 0 0
          0 0 0 0 0 0
          0 0 0 0 0 0
          0 0 0 0 0 0
          0 0 0 0 0 0
          0 0 0 0 0 0
          0 0 0 0 0 0
          0 0 0 0 0 0
          0 0 0 0 0 0
          0 0 0 0 0 0
          0 0 0 0 0 0
          0 0 0 0 0 0
          0 0 0 0 0 0
          0 0 0 0 0 0
          0 0 0 0 0 0
          0 0 0 0 0 0
          0 0 0 0 0 0
          0 0 0 0 0 0
          0 0 0 0 0 0
          0 0 0 0 0 0
          0 0 0 0 0 0
          0 0 0 0 0 0
          0 0 0 0 0 0
          0 0 0 0 0 0
          0 0 0 0 0 0
          0 0 0 0 0 0
          0 0 0 0 0 0
          0 0 0 0 0 0
          0 0 0 0 0 0
          0 0 0 0 0 0
          0 0 0 0 0 0
          0 0 0 0 0 0
          0 0 0 0 0 0
          0 0 0 0 0 0
          0 0 0 0 0 0
          0 0 0 0 0 0
          0 0 0 0 0 0
          0 0 0 0 0 0
          0 0 0 0 0 0
          0 0 0 0 0 0
          0 0 0 0 0 0
          0 0 0 0 0 0
          0 0 0 0 0 0
          0 0 0 0 0 0
          0 0 0 0 0 0
          0 0 0 0 0 0
          0 0 0 0 0 0
          0 0 0 0 0 0
          0 0 0 0 0 0
          0 0 0 0 0 0
          0 0 0 0 0 0
          0 0 0 0 0 0
          0 0 0 0 0 0
          0 0 0 0 0 0
          0 0 0 0 0 0
          0 0 0 0 0 0
          0 0 0 0 0 0
          0 0 0 0 0 0
          0 0 0 0 0 0
          0 0 0 0 0 0
          0 0 0 0 0 0
          0 0 0 0 0 0
          0 0 0 0 0 0
          0 0 0 0 0 0
          0 0 0 0 0 0
          0 0 0 0 0 0
          0 0 0 0 0 0
          0 0 0 0 0 0
          0 0 0 0 0 0
          0 0 0 0 0 0
          0 0 0 0 0 0
          0 0 0 0 0 0
          0 0 0 0 0 0
        </DataArray>
        <DataArray type="Float64" Name="gradient_error" format="ascii" RangeMin="2.0143979885713374e-11" RangeMax="2.385437341213393e-7">
          1.052226302128818e-8 6.120884140137463e-9 6.519493104617029e-9 3.7950816138815264e-9 2.5043886006709765e-9 1.5572141549528514e-9
          8.461002861103423e-10 6.068727621085253e-10 6.984371128627342e-10 4.693290575808148e-10 5.437962110685118e-10 3.4061042609869697e-10
          1.0242297545458122e-9 6.461756412537674e-10 3.768667872980906e-10 2.3266006395086587e-10 1.5406918860005707e-10 8.883541021044436e-11
          3.289542501048793e-10 2.2168115936151094e-10 1.4369386536145497e-10 9.767488979502339e-11 6.791737490121881e-11 4.024617929200666e-11
          5.121528158354442e-8 3.024514820662427e-8 2.377508635221746e-8 1.4298095700848782e-8 3.3747732294893856e-9 2.691125059848554e-9
          1.8957117175972158e-9 1.2548376516217737e-9 1.3289548456482395e-9 9.13726259861791e-10 1.9181549357783375e-9 7.343601362122928e-10
          5.357994851671214e-9 3.1472847323255067e-9 1.674800349435365e-9 9.525614843569105e-10 6.731340675608748e-10 4.671856319483766e-10
          1.440974873638309e-9 8.980249518321932e-10 5.280933589282379e-10 3.402669683959062e-10 2.6613984810752297e-10 1.9568678098461133e-10
          1.4901836161397202e-7 9.317692252189011e-8 8.263183498690587e-8 5.9118566296700966e-8 1.7372960355357264e-8 2.997702511364492e-8
          1.2175347102161793e-8 2.40149183962231e-8 1.5448056997856986e-8 1.8116301781061242e-8 5.170473112061736e-8 1.1135824647883823e-8
          8.385490222017043e-10 4.847957769278356e-8 2.4544036003189426e-8 3.517713460492133e-9 1.1185208972565586e-9 7.934206003607139e-10
          5.9814734591149e-10 1.5665355010554304e-8 1.0905450963054966e-8 4.2042503886692026e-9 7.4225443258337e-10 5.722643441724331e-10
          3.8426094471101085e-10 2.190828133393079e-8 1.8825331236311125e-7 2.7201548088207658e-8 1.0759624789092317e-7 3.7788058955912275e-8
          2.7230004165522888e-8 5.440963484960371e-8 2.097334778631171e-8 8.497836162915415e-8 1.3455321543377676e-8 7.732084798933926e-8
          6.687279017824807e-9 3.137320202384648e-8 8.711449187706308e-10 8.79877558675692e-8 4.543547691068766e-8 4.873225989985944e-9
          1.5213334000265626e-9 1.0017896190573525e-9 4.761654400705117e-10 2.8993443052398695e-8 2.0380863898393367e-8 7.58873888922022e-9
          9.639070000082142e-10 7.229888679877052e-10 4.427329083754669e-10 5.004482428657614e-9 8.7241526576457e-9 3.5445199301831024e-8
          1.2330841613248422e-7 2.2627005896167323e-8 3.074282904057154e-8 6.668883220312609e-8 2.8017575006852584e-9 1.6179816667485257e-8
          1.10688777887504e-8 8.518217727806438e-9 7.133292140317083e-9 1.2441818850703037e-8 1.784796118839427e-8 2.8381599213758965e-8
          1.0826653862482147e-7 2.5599543392247926e-8 3.6933597339631e-9 3.2863358656504937e-10 7.998067778798e-9 6.750143771900796e-9
          2.8942256097218667e-8 5.4508593737862154e-8 4.040445345850831e-8 2.3660400639091252e-8 7.57066175370831e-8 1.1518231085528117e-7
          7.02645983989098e-8 5.5833708402064016e-8 1.9567119922617155e-8 1.7479160915418287e-8 2.212104407271693e-8 1.099649040756923e-7
          9.601717629372528e-8 8.477394429922881e-8 9.915849514117578e-9 5.818129480361878e-8 5.937262419106811e-8 9.400210919834373e-8
          1.16626761702702e-7 5.8885471791686625e-8 7.781933495023938e-8 1.2298562274063538e-7 2.934888179197281e-8 2.989914421314812e-8
          3.5460455362610706e-8 5.184563323794627e-8 7.237559625952877e-8 8.960794540727785e-8 3.5202675017126675e-8 1.4612996698171399e-8
          5.8319882170546104e-8 1.1606632089328446e-7 2.758357273941379e-8 7.628263901404694e-8 2.0033952115342095e-8 1.5110912359547818e-8
          3.481531334309251e-8 2.8050811892341028e-8 1.201691204488672e-8 4.0600149069756304e-8 3.090826263437266e-8 1.496894611217886e-8
          1.5891450409814122e-8 1.9261143278916924e-8 2.280663280466839e-8 3.272511983513038e-8 3.965991429298298e-8 1.6112019021831237e-8
          1.2009766761221652e-8 8.727605348869775e-9 4.696604229729189e-8 3.331600263538301e-8 5.702680786653422e-9 2.035302658828082e-8
          3.417835631488482e-8 7.180228054829037e-9 2.163496899296148e-8 1.7562238085153094e-8 4.648843970994863e-8 4.948528867390695e-8
          4.5161019047056696e-8 3.332413159114329e-8 4.632800067884326e-9 3.254583771671394e-9 1.7910546279574012e-8 3.209449036084618e-8
          1.3323740286583086e-8 8.152763922859875e-10 3.4601543557978194e-8 3.557208209696005e-8 8.133485521669002e-9 1.2648391849724488e-8
          1.411714924727148e-8 7.218479494564939e-10 1.1495691545260934e-9 7.656374091286416e-10 1.4746038149416618e-9 2.409153582347302e-10
          2.3257221787733382e-10 4.4282557642636543e-10 8.094268688007893e-10 1.7996384753572303e-9 2.2422907751993747e-10 1.95733862442825e-8
          2.1714279654165e-8 2.722517529947418e-8 2.918151852975049e-8 1.7098399056471068e-8 1.8401619906582923e-8 5.884266503650719e-9
          6.959778450550948e-9 8.938667938321468e-9 5.115267276600748e-9 3.487696435466586e-8 3.664875740533598e-8 2.0114664116000226e-8
          8.035290397451177e-9 1.4310853977838436e-8 9.43235830976778e-9 2.8333253744982537e-9 3.5795928608073473e-9 5.057963664346229e-9
          4.325860347116441e-9 2.751174130179808e-8 2.6397609141266858e-8 2.5328044774861162e-8 2.1060897741153593e-8 2.269345153605309e-8
          2.4985521506524815e-8 2.3163024985997025e-8 2.875607461207107e-8 2.474253023544008e-8 2.7053995546374398e-8 2.459624133019296e-8
          2.5937357943110456e-8 2.4608087131204668e-8 2.8134344099946446e-8 1.5975443367319273e-8 2.0700549098422515e-8 1.937852226187884e-8
          2.2470006405880964e-8 2.5699066809433448e-8 2.064210787474272e-8 1.9740669309604136e-8 2.21728984318203e-8 2.1499876645875024e-8
          1.9681139562514078e-8 2.338178899748119e-8 1.806244572037783e-8 1.9748672454416227e-8 1.9705796359816938e-8 1.6101705475717926e-8
          2.370368898889788e-8 2.3259083982145906e-8 2.4707306213722965e-8 2.1434899188454624e-8 3.227035066700976e-8 3.0970677891154086e-8
          2.7426690994925553e-8 2.96132061649154e-8 3.324206190715118e-8 3.069946264461618e-8 3.2695900829468996e-8 2.6362025136765466e-8
          3.0339167568878804e-8 3.277482042723998e-8 2.000411367365662e-8 2.4867377131775038e-8 2.7871654647466015e-8 2.997322829760482e-8
          3.759629638722588e-8 3.565022098120304e-8 3.469234552227924e-8 3.6469381281145e-8 3.818588218677369e-8 3.9626609625521397e-8
          4.104201350213346e-8 2.951577555433323e-8 3.5576566749058726e-8 3.875591999575546e-8 2.6490987626987593e-8 3.164928138533908e-8
          3.649144090285035e-8 3.590094423165111e-8 1.914504619556841e-8 2.4477046015852476e-8 1.9781214181251917e-8 2.5696558440643112e-8
          1.2703310763717039e-8 1.4443821962048131e-8 1.4624569928205495e-8 2.5924947376033e-8 2.7414570276554186e-8 1.581128615594729e-8
          2.0197791135838898e-8 2.707033047862593e-8 2.0463615875234145e-8 2.8440831829340535e-8 1.2278084222003603e-8 1.4503119003719084e-8
          1.693744524864717e-8 2.9191603308861713e-8 3.105114823279457e-8 1.6117790562535033e-8 4.376558607161133e-8 4.079513371537025e-8
          4.5734105701513363e-8 4.6573174732854725e-8 4.3359228320753634e-8 5.321489646503359e-8 5.319028836161345e-8 3.2206282493565325e-8
          4.237009980548054e-8 4.6411709922478684e-8 3.788698764668154e-8 4.27269070233101e-8 5.0684545697749714e-8 4.415950217573027e-8
          3.4676368919829543e-8 3.793444003475619e-8 3.3146723704902546e-8 4.619506964713251e-8 3.117564270919486e-8 1.0872961446837936e-8
          2.947194292614087e-8 3.406925353390158e-8 5.076116911366364e-8 4.626701658196505e-8 2.9169674191502765e-8 4.657531776537772e-8
          2.4121064344862214e-8 5.5626177659196765e-8 2.052914298012728e-8 2.9649845488730445e-8 2.0369993979094652e-8 3.071437599571523e-8
          1.4470402332253073e-8 2.197173513069589e-8 2.1771012404666385e-8 3.279697174438134e-8 3.4490606465248676e-8 2.484176553724079e-8
          1.997493968725053e-8 3.166454081431151e-8 1.928212283377148e-8 3.238253939817441e-8 1.3102884938383954e-8 2.1393661985899556e-8
          2.0724464080937164e-8 3.620289420448084e-8 3.782461294222576e-8 2.4791520318573913e-8 1.945433892586138e-8 3.054939636946032e-8
          1.275430888955789e-8 2.3947135192755032e-8 2.9193528749658283e-8 1.4326532905174231e-8 2.512746635189407e-8 3.350118078594361e-8
          4.0288679645734096e-8 4.098183503964086e-8 8.85941708406637e-9 1.058571723504372e-8 1.2266978069633041e-8 3.2689393627341346e-8
          1.5830658296578285e-8 2.7030554086343484e-8 1.5505974465163203e-8 2.561967969429175e-8 1.6199688977736417e-8 2.5168117320886658e-8
          2.9857976591267703e-8 4.057612283532332e-8 8.16412783863393e-10 1.3700504816837624e-8 1.4831499036928392e-8 3.566042794497898e-8
          1.8225591698309873e-8 3.2678067403422915e-8 1.678965018695794e-8 3.233631062204189e-8 1.1038298956983141e-8 1.9692085564060693e-8
          1.8283569822534457e-8 3.913403045328525e-8 3.977906964055471e-8 2.3538925964934166e-8 5.424692077412627e-9 6.33261234800448e-9
          5.507371041898785e-9 7.240532618596332e-9 1.3897565763614348e-9 8.96777108244538e-10 1.7767015525430406e-9 9.900637942323617e-9
          4.388514602442361e-9 2.9588439681504798e-9 6.150000741350475e-9 4.0379764012764113e-10 1.5291733338585992e-9 2.3993635403773337e-9
          5.468194089309071e-10 1.195075586653373e-9 2.8895787940551963e-9 1.5538022296510785e-8 1.235712992042796e-8 9.90519458331314e-9
          1.2397776851197495e-8 7.514144572692072e-10 9.212363027775079e-9 7.387440732354597e-9 1.8433317643758389e-9 7.45325924619832e-9
          9.257531405884206e-9 4.107931177983534e-9 4.1231936325184977e-10 4.684185600792019e-10 6.273625732318065e-9 4.959748831735013e-9
          2.4857138596460945e-10 3.789513009494205e-9 2.9773270157255893e-9 5.4594874724765e-10 2.264292405440126e-9 1.390519536293341e-10
          1.279521521131104e-10 2.01658198676863e-9 1.5894041974742296e-9 1.4628504791077954e-7 1.2479478638945327e-7 8.71643968799656e-8
          1.2273216176606638e-7 1.367586307180793e-7 1.2925311667704982e-7 1.180274812745585e-7 7.065866343305216e-8 8.641660488652175e-8
          8.271360462693498e-8 1.2723221352537908e-7 1.3371144696464639e-7 1.1871729747879522e-7 1.0217454633999136e-7 2.4080312502147172e-8
          2.328553671697305e-8 2.0891273460176962e-8 1.9757259807651126e-8 2.0016971090345686e-8 2.109081839292182e-8 1.9955898043622724e-8
          2.2490760931798925e-8 2.216466569549795e-8 2.0154536279594325e-8 1.5953629678544197e-8 1.889610006887059e-8 1.902052262706849e-8
          2.183857045919698e-8 1.6323290230903742e-8 1.5410885230966295e-8 1.6155187705681702e-8 2.248042428595769e-8 2.3007361624364388e-8
          2.1496602907609348e-8 2.1014676121478004e-8 1.4734818274758409e-8 2.346939900019012e-8 2.18493975387944e-8 1.277434138783834e-8
          1.739664241060825e-8 1.7976931382967922e-8 1.74418069522276e-8 1.523810711825971e-8 1.4011695361095703e-8 2.3768498237570287e-8
          2.2011328073275434e-8 1.3124746643521218e-8 2.3828599442397932e-8 2.1951962457826008e-8 1.0821527689269617e-8 1.730044476573487e-8
          1.6987478326275412e-8 7.144788732177467e-9 7.849559277412488e-9 1.1295656677732563e-8 1.1716720517592143e-8 6.488852760500105e-9
          1.0792784542540953e-8 5.431805689747398e-9 8.244581732975968e-9 8.77922320812776e-9 7.685937905785154e-9 1.3209085025196381e-8
          1.2035523281483924e-8 2.3579516706036923e-8 2.160317413491253e-8 1.0768821971993425e-8 2.2937666397762122e-8 2.089562379401177e-8
          9.065897382901945e-9 1.6448882467400896e-8 1.5649002847032164e-8 1.0372495726744775e-8 9.355787215439349e-9 2.1939617803579585e-8
          1.9816397408365828e-8 7.832078059491727e-9 2.0603694419246162e-8 1.8388017671887648e-8 6.867126050918292e-9 1.455473627529547e-8
          1.3190474140131317e-8 5.778831549620164e-9 1.0167199138397588e-8 5.024377381652158e-9 9.41310990682984e-9 4.287829871207901e-9
          7.063464905781527e-9 6.381795309856763e-9 4.250206318841313e-9 8.536949134600102e-9 3.4824707348228687e-9 7.553125274121385e-9
          3.1052392399799647e-9 5.6576027317613375e-9 4.897643192509271e-9 6.983855535458106e-9 6.283964908305475e-9 1.8764655960919762e-8
          1.6566622758296694e-8 4.825738209438366e-9 1.6436875794633888e-8 1.4364733941592972e-8 4.538587870926282e-9 1.1614271476846562e-8
          9.857043960641515e-9 3.917396627816609e-9 3.527713237630499e-9 1.3807184098738397e-8 1.1921429040761274e-8 2.5159158646201213e-9
          7.997954656092691e-9 2.7490761727279216e-9 6.489077607893544e-9 2.081388498498136e-9 5.383568634442477e-9 2.00505088475612e-9
          4.118201817767591e-9 3.345641436153975e-9 1.5032473344123837e-9 4.283933991345052e-9 1.1126927870289151e-9 2.607632653288871e-9
          6.4688730759354085e-9 6.578321972410434e-9 7.378434754093012e-9 7.549804904461072e-9 6.1500269481462005e-9 6.999645387104911e-9
          5.301908326528275e-9 5.944703812942367e-9 6.515194686524789e-9 5.285965958926911e-9 8.287996432250614e-9 8.521287836511709e-9
          7.849263826063622e-9 6.5874992993564585e-9 5.6826608971223244e-9 6.5624192592446755e-9 4.667422604616899e-9 5.352545010196332e-9
          7.442177621367027e-9 6.037667415775764e-9 8.221457061779514e-9 8.821696999750232e-9 8.532339940584008e-9 8.242982881417784e-9
          8.631020873616798e-9 8.291170290762425e-9 8.203388284361886e-9 8.98385943296749e-9 8.72247451576464e-9 8.235471900428703e-9
          9.35191814809672e-9 9.099964894433381e-9 8.115606277961346e-9 8.461089598561792e-9 8.848011640770043e-9 9.669113828841295e-9
          9.302009217942023e-9 1.046831529084094e-8 8.934904607042754e-9 9.298843006882555e-9 7.849575478908472e-9 7.86786511645356e-9
          7.886154753998645e-9 7.3169113050620245e-9 8.137353186889633e-9 8.362747067668689e-9 8.992210892613995e-9 9.392967373831509e-9
          8.588140948447744e-9 9.933368685310044e-9 6.613027291269229e-9 7.363036446620727e-9 7.813762054419203e-9 8.113045601972223e-9
          9.670981567891838e-9 9.129304789951595e-9 1.0043120128901121e-8 8.279148523513405e-9 8.33573477828996e-9 9.742002806962826e-9