<?xml version="1.0"?>
<VTKFile type="UnstructuredGrid" version="0.1" byte_order="LittleEndian" header_type="UInt32" compressor="vtkZLibDataCompressor">
  <UnstructuredGrid>
    <Piece NumberOfPoints="1134" NumberOfCells="799">
      <PointData>
        <DataArray type="Int32" Name="libmesh_node_id" format="ascii" RangeMin="2435" RangeMax="8080">
          2435 2436 2443 2612 2613 2614
          2620 2622 2623 2625 2629 2951
          2952 2953 2956 2959 2973 2974
          2981 2982 2983 2984 2985 2988
          2989 2991 2992 2994 3009 3010
          3011 3278 3279 3282 3285 3286
          3291 3505 3506 3507 3510 3520
          3521 3525 3526 3527 3528 3529
          3530 3531 3532 3533 3534 3545
          3546 3547 3548 3970 3971 3972
          3973 3974 3975 3976 3977 3978
          3979 3980 3981 3982 3983 3994
          3995 3996 3997 4000 4001 4002
          4014 4015 4016 4017 4018 4019
          4020 4021 4022 4023 4031 4032
          4034 4035 4036 4064 4065 4068
          4070 4100 4104 4120 4121 4122
          4123 4124 4125 4126 4127 4128
          4129 4130 4131 4132 4133 4134
          4135 4136 4137 4138 4141 4142
          4144 4145 4147 4148 4149 4150
          4151 4152 4153 4154 4155 4156
          4157 4158 4159 4160 4162 4163
          4165 4167 4168 4169 4170 4171
          4172 4173 4174 4175 4176 4177
          4178 4179 4182 4184 4185 4187
          4188 4189 4190 4191 4192 4193
          4194 4195 4197 4199 4201 4284
          4285 4286 4287 4288 4289 4290
          4291 4292 4293 4294 4295 4296
          4298 4299 4301 4303 4324 4325
          4328 4329 4331 4335 5387 5388
          5389 5390 5391 5393 5394 5403
          5404 5405 5408 5424 5425 5428
          5443 5444 5445 5446 5447 5448
          5449 5450 5451 5452 5453 5454
          5455 5456 5457 5458 5459 5460
          5461 5462 5463 5464 5465 5466
          5467 5468 5469 5470 5471 5472
          5473 5474 5475 5476 5511 5512
          5513 5514 5515 5516 5517 5518
          5519 5520 5521 5522 5523 5524
          5835 5836 5837 5840 5843 5845
          5846 5847 5848 5849 5850 5851
          5852 5853 5854 5855 5856 5857
          5858 5861 5862 5865 5867 5869
          5870 5871 5872 5873 5874 5875
          5876 5877 5878 5881 5882 5884
          5887 5889 5890 5891 5892 5893
          5894 5895 5896 5897 5898 5900
          5902 5904 5906 5907 5908 5909
          5910 5911 5912 5963 5964 5967
          5969 5971 5972 5973 5974 5975
          5976 5977 5978 5979 5980 5991
          5992 5993 5994 5995 5996 5997
          5998 5999 6000 6002 6004 6006
          6008 6009 6010 6011 6012 6013
          6014 6022 6023 6024 6025 6026
          6027 6028 6088 6089 6091 6094
          6096 6097 6098 6099 6100 6101
          6102 6103 6104 6105 6107 6109
          6111 6113 6114 6115 6116 6117
          6118 6119 6122 6123 6125 6128
          6130 6131 6132 6133 6134 6135
          6136 6137 6138 6139 6141 6143
          6145 6147 6148 6149 6150 6151
          6152 6153 6195 6197 6199 6201
          6202 6203 6204 6205 6206 6207
          6215 6216 6217 6218 6219 6220
          6221 6223 6225 6227 6229 6230
          6231 6232 6233 6234 6235 6243
          6244 6245 6246 6247 6248 6249
          6310 6311 6314 6315 6316 6317
          6330 6331 6334 6336 6345 6346
          6347 6348 6349 6350 6351 6359
          6360 6361 6362 6363 6364 6365
          6505 6506 6507 6508 6509 6510
          6511 6519 6520 6533 6534 6535
          6536 6537 6538 6539 6650 6651
          6652 6653 6654 6655 6656 6657
          6658 6659 6660 6661 6662 6663
          6664 6665 6666 6667 6668 6669
          6670 6671 6672 6673 6674 6675
          6676 6677 6678 6679 6680 6681
          6682 6683 6684 6685 6686 6687
          6688 6689 6690 6691 6692 6693
          6694 6695 6696 6697 6698 6699
          6700 6701 6702 6703 6704 6705
          6706 6707 6708 6709 6710 6711
          6712 6713 6714 6715 6716 6717
          6718 6719 6720 6721 6722 6723
          6724 6725 6726 6727 6728 6729
          6730 6731 6732 6733 6734 6735
          6736 6737 6738 6739 6740 6741
          6742 6743 6744 6745 6748 6749
          6753 6754 6756 6757 6759 6760
          6761 6762 6763 6764 6765 6766
          6767 6768 6769 6770 6771 6774
          6775 6777 6779 6780 6781 6782
          6783 6784 6785 6786 6787 6788
          6789 6790 6791 6794 6796 6797
          6799 6800 6801 6802 6803 6804
          6805 6806 6807 6809 6811 6813
          6814 6815 6816 6817 6818 6819
          6820 6821 6822 6823 6824 6825
          6826 6827 6828 6829 6830 6831
          6832 6833 6834 6835 6836 6837
          6838 6839 6840 6841 6842 6843
          6844 6845 6846 6847 6848 6849
          6850 6851 6852 6853 6854 6855
          6856 6857 6858 6859 6860 6861
          6862 6863 6864 6865 6866 6867
          6868 6869 6870 6871 6872 6873
          6874 6875 6876 6877 6878 6879
          6880 6881 6882 6883 6884 6885
          6886 6887 6888 6889 6890 6891
          6892 6893 6896 6897 6899 6901
          6902 6903 6904 6905 6906 6907
          6908 6909 6910 6911 6912 6913
          6916 6917 6919 6921 6922 6923
          6924 6925 6926 6927 6928 6929
          6931 6933 6935 6936 6937 6938
          6939 6940 6941 6942 6943 6945
          6947 6949 6950 6951 6952 6953
          6954 6955 6956 6957 6958 6959
          6960 6961 6962 6963 6964 6965
          6966 6967 6968 6969 6970 6971
          6972 6973 6974 6975 6976 6977
          6978 6979 6980 6981 6982 6983
          6984 6985 6986 6987 6988 6989
          6990 6991 6992 6993 6994 6995
          6996 6997 6998 6999 7000 7001
          7002 7003 7004 7005 7006 7007
          7008 7009 7010 7011 7012 7013
          7014 7015 7016 7017 7018 7019
          7020 7021 7022 7023 7024 7025
          7026 7027 7028 7029 7032 7034
          7035 7037 7038 7039 7040 7041
          7042 7043 7044 7045 7047 7049
          7051 7052 7053 7054 7055 7056
          7057 7058 7059 7060 7061 7062
          7063 7066 7068 7069 7071 7072
          7073 7074 7075 7076 7077 7078
          7079 7081 7083 7085 7086 7087
          7088 7089 7090 7091 7092 7093
          7094 7095 7096 7097 7098 7099
          7100 7101 7102 7103 7104 7105
          7106 7107 7108 7109 7110 7111
          7112 7113 7114 7115 7116 7117
          7118 7119 7120 7121 7122 7123
          7124 7125 7126 7127 7128 7129
          7130 7131 7132 7133 7134 7135
          7136 7137 7138 7139 7140 7141
          7142 7143 7144 7145 7146 7147
          7148 7149 7151 7153 7155 7156
          7157 7158 7159 7160 7161 7162
          7163 7165 7167 7169 7170 7171
          7172 7173 7174 7175 7176 7177
          7179 7181 7183 7184 7185 7186
          7187 7188 7189 7190 7191 7193
          7195 7197 7746 7747 7748 7749
          7750 7751 7752 7753 7754 7755
          7756 7757 7758 7759 7760 7761
          7762 7763 7764 7765 7766 7767
          7768 7769 7770 7771 7772 7773
          7774 7775 7776 7777 7778 7779
          7780 7781 7782 7783 7784 7785
          7786 7787 7788 7789 7790 7791
          7792 7793 7794 7795 7796 7797
          7798 7799 7800 7801 7802 7803
          7804 7805 7806 7807 7808 7809
          7810 7811 7812 7813 7814 7815
          7816 7817 7818 7819 7820 7821
          7822 7823 7824 7825 7828 7829
          7831 7833 7834 7835 7836 7837
          7838 7839 7840 7841 7842 7843
          7844 7845 7848 7849 7851 7853
          7854 7855 7856 7857 7858 7859
          7860 7861 7863 7865 7867 7868
          7869 7870 7871 7872 7873 7874
          7875 7877 7879 7881 7990 7991
          7992 7993 7994 7995 7996 7997
          7998 7999 8000 8001 8002 8003
          8004 8005 8011 8012 8018 8019
          8020 8021 8022 8023 8024 8025
          8026 8027 8028 8029 8030 8031
          8046 8047 8048 8049 8050 8051
          8052 8053 8055 8060 8061 8074
          8075 8076 8077 8078 8079 8080
        </DataArray>
        <DataArray type="Float64" Name="bounds" format="ascii" RangeMin="0" RangeMax="0">
          0 0 0 0 0 0
          0 0 0 0 0 0
          0 0 0 0 0 0
          0 0 0 0 0 0
          0 0 0 0 0 0
          0 0 0 0 0 0
          0 0 0 0 0 0
          0 0 0 0 0 0
          0 0 0 0 0 0
          0 0 0 0 0 0
          0 0 0 0 0 0
          0 0 0 0 0 0
          0 0 0 0 0 0
          0 0 0 0 0 0
          0 0 0 0 0 0
          0 0 0 0 0 0
          0 0 0 0 0 0
          0 0 0 0 0 0
          0 0 0 0 0 0
          0 0 0 0 0 0
          0 0 0 0 0 0
          0 0 0 0 0 0
          0 0 0 0 0 0
          0 0 0 0 0 0
          0 0 0 0 0 0
          0 0 0 0 0 0
          0 0 0 0 0 0
          0 0 0 0 0 0
          0 0 0 0 0 0
          0 0 0 0 0 0
          0 0 0 0 0 0
          0 0 0 0 0 0
          0 0 0 0 0 0
          0 0 0 0 0 0
          0 0 0 0 0 0
          0 0 0 0 0 0
          0 0 0 0 0 0
          0 0 0 0 0 0
          0 0 0 0 0 0
          0 0 0 0 0 0
          0 0 0 0 0 0
          0 0 0 0 0 0
          0 0 0 0 0 0
          0 0 0 0 0 0
          0 0 0 0 0 0
          0 0 0 0 0 0
          0 0 0 0 0 0
          0 0 0 0 0 0
          0 0 0 0 0 0
          0 0 0 0 0 0
          0 0 0 0 0 0
          0 0 0 0 0 0
          0 0 0 0 0 0
          0 0 0 0 0 0
          0 0 0 0 0 0
          0 0 0 0 0 0
          0 0 0 0 0 0
          0 0 0 0 0 0
          0 0 0 0 0 0
          0 0 0 0 0 0
          0 0 0 0 0 0
          0 0 0 0 0 0
          0 0 0 0 0 0
          0 0 0 0 0 0
          0 0 0 0 0 0
          0 0 0 0 0 0
          0 0 0 0 0 0
          0 0 0 0 0 0
          0 0 0 0 0 0
          0 0 0 0 0 0
          0 0 0 0 0 0
          0 0 0 0 0 0
          0 0 0 0 0 0
          0 0 0 0 0 0
          0 0 0 0 0 0
          0 0 0 0 0 0
          0 0 0 0 0 0
          0 0 0 0 0 0
          0 0 0 0 0 0
          0 0 0 0 0 0
          0 0 0 0 0 0
          0 0 0 0 0 0
          0 0 0 0 0 0
          0 0 0 0 0 0
          0 0 0 0 0 0
          0 0 0 0 0 0
          0 0 0 0 0 0
          0 0 0 0 0 0
          0 0 0 0 0 0
          0 0 0 0 0 0
          0 0 0 0 0 0
          0 0 0 0 0 0
          0 0 0 0 0 0
          0 0 0 0 0 0
          0 0 0 0 0 0
          0 0 0 0 0 0
          0 0 0 0 0 0
          0 0 0 0 0 0
          0 0 0 0 0 0
          0 0 0 0 0 0
          0 0 0 0 0 0
          0 0 0 0 0 0
          0 0 0 0 0 0
          0 0 0 0 0 0
          0 0 0 0 0 0
          0 0 0 0 0 0
          0 0 0 0 0 0
          0 0 0 0 0 0
          0 0 0 0 0 0
          0 0 0 0 0 0
          0 0 0 0 0 0
          0 0 0 0 0 0
          0 0 0 0 0 0
          0 0 0 0 0 0
          0 0 0 0 0 0
          0 0 0 0 0 0
          0 0 0 0 0 0
          0 0 0 0 0 0
          0 0 0 0 0 0
          0 0 0 0 0 0
          0 0 0 0 0 0
          0 0 0 0 0 0
          0 0 0 0 0 0
          0 0 0 0 0 0
          0 0 0 0 0 0
          0 0 0 0 0 0
          0 0 0 0 0 0
          0 0 0 0 0 0
          0 0 0 0 0 0
          0 0 0 0 0 0
          0 0 0 0 0 0
          0 0 0 0 0 0
          0 0 0 0 0 0
          0 0 0 0 0 0
          0 0 0 0 0 0
          0 0 0 0 0 0
          0 0 0 0 0 0
          0 0 0 0 0 0
          0 0 0 0 0 0
          0 0 0 0 0 0
          0 0 0 0 0 0
          0 0 0 0 0 0
          0 0 0 0 0 0
          0 0 0 0 0 0
          0 0 0 0 0 0
          0 0 0 0 0 0
          0 0 0 0 0 0
          0 0 0 0 0 0
          0 0 0 0 0 0
          0 0 0 0 0 0
          0 0 0 0 0 0
          0 0 0 0 0 0
          0 0 0 0 0 0
          0 0 0 0 0 0
          0 0 0 0 0 0
          0 0 0 0 0 0
          0 0 0 0 0 0
          0 0 0 0 0 0
          0 0 0 0 0 0
          0 0 0 0 0 0
          0 0 0 0 0 0
          0 0 0 0 0 0
          0 0 0 0 0 0
          0 0 0 0 0 0
          0 0 0 0 0 0
          0 0 0 0 0 0
          0 0 0 0 0 0
          0 0 0 0 0 0
          0 0 0 0 0 0
          0 0 0 0 0 0
          0 0 0 0 0 0
          0 0 0 0 0 0
          0 0 0 0 0 0
          0 0 0 0 0 0
          0 0 0 0 0 0
          0 0 0 0 0 0
          0 0 0 0 0 0
          0 0 0 0 0 0
          0 0 0 0 0 0
          0 0 0 0 0 0
          0 0 0 0 0 0
          0 0 0 0 0 0
          0 0 0 0 0 0
          0 0 0 0 0 0
          0 0 0 0 0 0
          0 0 0 0 0 0
          0 0 0 0 0 0
          0 0 0 0 0 0
          0 0 0 0 0 0
        </DataArray>
        <DataArray type="Float64" Name="gradient_error" format="ascii" RangeMin="8.849375205782472e-12" RangeMax="2.3950245128310198e-9">
          3.638591688201091e-10 7.10172754593056e-11 1.1973508631308616e-9 2.3471175466356297e-10 4.912627406041744e-10 2.065072716407731e-10
          8.869735520594811e-10 9.314903037555819e-11 6.216351055098431e-11 5.499241726042486e-11 2.0534528506241904e-11 3.9536514424304313e-10
          1.2359655623737545e-9 9.712345185126544e-10 4.5601225479710477e-10 1.3098246857979747e-9 7.128941494341896e-11 1.2221596727660632e-10
          2.724282664358998e-10 2.174005536773663e-10 8.800002103249409e-10 6.763573535473345e-10 1.0912510707325177e-10 1.1108015152353499e-10
          2.971965079725109e-10 9.366593729327774e-10 1.0072146116847474e-9 6.453512935193742e-10 3.690409980091253e-11 7.377129760567953e-11
          2.7396612766767738e-11 1.4523287577889703e-10 1.1244619912456918e-10 4.864400701485961e-11 4.47602539799653e-11 3.589862400663726e-11
          1.7212282451768863e-11 3.880940566752118e-10 3.4352131236933516e-10 2.9309373587417094e-10 1.8285961688922207e-10 1.2591070817351933e-10
          8.518882201431577e-11 2.2051061807054468e-10 1.909525337613292e-10 1.723012453118582e-10 1.4647679275124389e-10 8.966058675601143e-11
          8.154516206487071e-11 6.925989447270583e-11 1.2337648311014066e-10 9.020022214061236e-11 4.251798375597705e-11 5.929011182347234e-11
          4.079244908889473e-11 2.7107021778934272e-11 2.5459912217985242e-11 6.435979199041198e-10 6.10878077861601e-10 5.999834479250339e-10
          5.663800262933526e-10 4.65302470976955e-10 4.945488114957972e-10 4.657194666911971e-10 5.220530694944991e-10 4.758136157663053e-10
          3.8841461242693723e-10 1.4175644346145142e-9 1.3364020589695895e-9 1.1641358092480583e-9 1.1207891412171478e-9 4.014388130468696e-10
          3.5453611711908045e-10 3.014333436338908e-10 2.860254533818133e-10 1.856012508786156e-10 8.331947915873886e-10 7.130257707909255e-10
          2.3950245128310198e-9 2.260500108882898e-9 2.135886866934318e-9 2.009463647305135e-9 1.889570267556907e-9 1.6834837876844425e-9
          1.257899612398362e-9 1.382807411801959e-9 1.2816541693452969e-9 1.4834300977322347e-9 1.4216143967502979e-9 1.2706095646579944e-9
          8.377906254130128e-10 1.305384700872906e-9 1.170409412941055e-9 1.2749960226067908e-10 1.0637092552074525e-10 5.422050912388587e-11
          2.5271829013746596e-10 4.686315508383001e-10 5.405127811085059e-10 3.6992414889650465e-10 3.4994281918033094e-10 3.980061882869461e-10
          3.739115184430944e-10 2.574685235998878e-10 3.113340315041697e-10 2.918203688795889e-10 2.962890857572221e-10 3.0969416178330257e-10
          2.401516086271255e-10 1.056441118597199e-9 9.92936182512025e-10 8.245528507335141e-10 8.220900011432508e-10 1.9585085769680188e-10
          1.8495662922495698e-10 2.362980388183011e-10 2.2104533500808003e-10 1.2974464502365705e-10 1.5583247297948056e-10 1.8090017367878144e-10
          7.104776921122954e-10 6.634947468070404e-10 5.391073996631526e-10 2.2466596859346935e-10 2.256494447728615e-10 1.6415805245561045e-10
          1.7333201827473486e-10 1.5284360322535321e-10 1.4455810822075552e-10 1.098278949431568e-10 5.950235217403813e-10 4.823262152632504e-10
          3.733166824386184e-10 1.1727302886530197e-10 1.295292242796747e-10 8.189811185156048e-11 7.90070198827005e-11 8.132284684076713e-11
          3.7909275411573446e-10 2.2986635769789056e-10 1.858558623500762e-9 1.7537008169470474e-9 1.6044561384871467e-9 1.5184370066732697e-9
          1.4818508516037968e-9 1.2803974346470446e-9 1.0845437672086824e-9 1.1275452774286555e-9 9.758825310707667e-10 1.1454036624556087e-9
          1.366456330829631e-9 1.2889423596222773e-9 1.0743755852675692e-9 8.286197487552142e-10 8.601154591158317e-10 8.688719957588195e-10
          1.1106470738497977e-9 9.441096600122858e-10 7.164690880295279e-10 5.953826659965832e-10 1.0362227986173552e-9 8.953879191138201e-10
          7.671716575420555e-10 7.779431161763257e-10 4.800140244227594e-10 7.509280637015828e-10 5.269770911428307e-10 9.356112041034518e-11
          8.173695313805385e-11 6.752074564265613e-11 6.141203886644848e-11 5.175180016534364e-11 4.109457164858438e-11 3.0523459807183613e-11
          2.026298092586621e-10 1.5837211434592715e-10 9.603922162574158e-11 4.771254258905221e-11 4.5061101239887095e-11 3.2906256199473554e-11
          2.549822966094306e-11 2.2156977175029787e-11 1.2056506271295445e-10 5.532863331176755e-11 3.9050010326059437e-10 3.166584643777784e-10
          4.550792054364831e-10 3.728506729491236e-10 2.496514316335208e-10 2.969391070370414e-10 6.703150710716722e-10 6.377256148498692e-10
          2.2875282849689995e-10 5.035011305853743e-10 4.782272949365185e-10 5.485769138431925e-10 4.0948907260464735e-10 4.269635088126757e-10
          1.5628775176742261e-10 3.164078538742781e-10 2.2081920279794465e-10 7.378962240158413e-11 1.3959997055635267e-10 8.030075772361371e-11
          1.737509732912926e-10 1.6563027869624825e-10 3.7408380470426097e-10 3.5492076933246495e-10 1.1822786408121683e-10 2.7252607444100693e-10
          2.583634766594766e-10 1.4311492442836112e-10 3.0297968642749915e-10 2.2005845906881883e-10 8.689534771842274e-11 8.275778794781556e-11
          1.9414964697564083e-10 1.8394809069896844e-10 5.6766565586019617e-11 1.3521290950091983e-10 1.2804717894815055e-10 7.130539266111414e-11
          1.563918910111062e-10 1.0870744894825386e-10 1.1252741788023925e-10 2.3299907962336653e-10 7.999496092055389e-11 1.6862795158017236e-10
          8.045950473497843e-11 1.6158290922601182e-10 1.1640649547067811e-10 5.5771444525082024e-11 1.1948288665457623e-10 3.8118733048260566e-11
          8.284164683123445e-11 3.967837792593185e-11 8.218557727896228e-11 5.6836984830446565e-11 5.2522512953254324e-11 1.0133507465394145e-10
          3.7158368528517345e-11 7.258176489333472e-11 3.146262127443851e-11 5.772611156425311e-11 4.097388663708756e-11 2.5952753039377937e-11
          5.101586170907457e-11 1.7903888280885966e-11 3.508387780244606e-11 1.5920838249587818e-11 2.836187863166351e-11 2.2135861828770734e-11
          2.6969869586732016e-10 3.6656371567038023e-10 3.6134460318947023e-10 3.460926593326173e-10 5.914130539714792e-10 2.4335831818382626e-10
          2.3985454759344876e-10 3.2881623430202736e-10 3.2404291025584483e-10 2.1213189944378226e-10 2.934490489331015e-10 2.891117071468068e-10
          2.2958485019798743e-10 3.1009304389480065e-10 2.7644602063300515e-10 5.460810561798287e-10 5.381163131936756e-10 4.871891661646852e-10
          5.148656054481205e-10 2.405769822238446e-10 3.220696382527504e-10 2.910768168403662e-10 5.268401088519977e-10 2.1347144374360844e-10
          2.8814427970302323e-10 1.8845256382060116e-10 2.5654988903568797e-10 1.926850071113078e-10 2.598905211011789e-10 2.3099084624474075e-10
          4.781839839366273e-10 4.3189324176035636e-10 4.309370681997276e-10 9.422059711991284e-10 9.287320271026607e-10 8.893801101300652e-10
          1.3967691125555812e-9 8.706095521188755e-10 8.57925249297618e-10 8.004882755632532e-10 7.886019018546326e-10 8.208890532592958e-10
          7.539009908674049e-10 1.3264911010325451e-9 1.3069549151112266e-9 1.2176205444643663e-9 1.2501196875404184e-9 8.272214205679777e-10
          7.469439152946019e-10 1.2419018767711904e-9 7.624180199835496e-10 6.9914580053798e-10 6.869736815281515e-10 6.285814715407026e-10
          1.1608250737018404e-9 1.0798564355205977e-9 1.0459909826331252e-9 1.9130112347019718e-10 2.555266466267149e-10 2.1774401004517685e-10
          4.1702457228606465e-10 1.690370220283642e-10 2.2758017292521643e-10 1.487193562048277e-10 2.0183459744571172e-10 1.439088373818716e-10
          1.9336498272026947e-10 1.7105917247894452e-10 3.7665024203241686e-10 3.3859987285088893e-10 3.1914908591330137e-10 1.1915742221477776e-10
          1.5952573157047396e-10 1.043587835792303e-10 1.40727686704769e-10 9.579890410434189e-11 1.2773990411276781e-10 1.1234846147392356e-10
          2.620823262279414e-10 2.34070955567445e-10 2.0859065703558925e-10 6.54310698869968e-10 5.555615336706915e-10 9.815808987523121e-10
          6.000658238002317e-10 5.474712950235317e-10 5.076770380083293e-10 4.615339822438216e-10 9.137690328545366e-10 8.461101652215244e-10
          7.729029116975494e-10 4.1567793956676093e-10 3.7634684236671044e-10 3.2922352368019664e-10 2.9673185021851003e-10 6.320727781044933e-10
          5.804639025668848e-10 4.991383633219001e-10 2.0082131964832166e-9 1.9761541039713604e-9 1.8839246412501832e-9 2.3611408989154536e-9
          1.889170109894168e-9 1.8593407464726985e-9 1.7703099435147066e-9 1.7428757996119166e-9 1.7736630345534416e-9 1.6639621864058958e-9
          2.270370571794001e-9 2.236858054234885e-9 2.1035487700064457e-9 2.138195398254555e-9 1.7426420198496814e-9 1.5673461126331457e-9
          2.0983430435094754e-9 1.642313776060638e-9 1.5422161840385942e-9 1.4781303155136825e-9 1.3882014043185628e-9 1.9823313996826854e-9
          1.8638763705454906e-9 1.786457042249357e-9 1.861323304717128e-9 1.8654150906134613e-9 1.864473443740949e-9 1.2949468230015575e-9
          1.7923988309933208e-9 1.7929166920816997e-9 1.7084710731906044e-9 1.7057786197783234e-9 1.7826639199054986e-9 1.6872884002996195e-9
          1.2327456784202078e-9 1.2647380835426994e-9 1.2238871960685821e-9 1.3386718705418978e-9 1.8284442922014943e-9 1.731304129323351e-9
          1.466007701254637e-9 1.735214800982709e-9 1.6325144765088339e-9 1.634023833775785e-9 1.535194318593976e-9 1.4000293950739238e-9
          1.3211480407687015e-9 1.3985815105618677e-9 1.3717741484674996e-9 1.1662590451378853e-9 1.6580397126292223e-9 1.2927214563387488e-9
          1.2122150507595297e-9 1.0961306053670584e-9 1.024554340023664e-9 1.5708745871959458e-9 1.4831948783926484e-9 1.3471719223779615e-9
          8.985571036821039e-10 8.360484701331182e-10 7.103791770488958e-10 6.573022660887774e-10 1.1199466631507112e-9 1.0519834615180125e-9
          8.969799746354659e-10 1.5794571513994283e-9 1.4041183559579863e-9 1.4175457999218263e-9 1.4928918916099625e-9 1.408793225722411e-9
          1.3325545213403467e-9 1.2608873661981547e-9 1.3348939431541556e-9 1.2560991487674173e-9 1.237097617512511e-9 1.1538650946356725e-9
          1.0886132617321192e-9 9.57627301932423e-10 8.983523113115326e-10 1.1078907817289526e-9 1.0460770989895185e-9 9.447229194583144e-10
          6.532255565782122e-11 8.714574454257661e-11 6.569721723969345e-11 1.609527511659305e-10 1.4265333873055231e-10 1.2050045005611602e-10
          3.664410440678004e-11 4.817655201488665e-11 3.441748689112291e-11 7.703053568564e-11 2.522302833096225e-10 2.262591835889195e-10
          1.8704165757350764e-10 1.6696879879650104e-10 3.803654714533406e-10 3.455653984418295e-10 2.797748321031347e-10 1.3440643537362334e-10
          1.193992879204255e-10 9.374280697679831e-11 8.287603349900885e-11 1.9885837545493654e-10 1.7859387019148326e-10 1.368573876108722e-10
          5.407268845908625e-10 4.972406674864609e-10 3.9606878038882157e-10 3.618517014230726e-10 6.897679437690475e-10 6.401014708659082e-10
          5.08499647202812e-10 2.7938991685442916e-10 2.53578536251034e-10 7.57709634210957e-10 7.061773512515652e-10 5.7076585276273e-10
          5.282538824966157e-10 7.629808306004257e-10 7.116829220046432e-10 5.834860583676121e-10 1.8932286636859764e-10 1.8651367979183296e-10
          2.6031976963568236e-10 2.564092135629834e-10 1.6294740420207504e-10 2.294301393603775e-10 2.259314629271143e-10 1.782887369403633e-10
          2.4499652839436445e-10 2.1572644385181882e-10 4.4515350964135556e-10 4.383972522102042e-10 3.9184814260143033e-10 4.1870256815954266e-10
          1.436339566886739e-10 1.4145326296616572e-10 2.0084585168971022e-10 1.9773997914778424e-10 1.2199656180022426e-10 1.746087986135569e-10
          1.7187400177946129e-10 1.3507064919989687e-10 1.8868618025649326e-10 1.6390659803318976e-10 3.533199471492869e-10 3.477508185822859e-10
          3.063402880605931e-10 3.3154392897772104e-10 1.6542673843794218e-10 2.2709349173711405e-10 1.4431327066140393e-10 1.9973854576682663e-10
          1.4889413044424465e-10 2.0414044889373208e-10 1.7928089877547152e-10 3.8771882026609325e-10 3.457388698630013e-10 3.479823146865399e-10
          1.2511126438571592e-10 1.745202984519794e-10 1.0777310474721758e-10 1.5145542074473087e-10 1.1234931580372025e-10 1.5642776319926955e-10
          1.3558030923189448e-10 3.0613142617093004e-10 2.6909103833803515e-10 2.736975506482314e-10 7.317035161444096e-10 7.206147392373322e-10
          6.644624088244479e-10 6.541714225244819e-10 6.882544230284375e-10 6.241603181196577e-10 1.1459303301131118e-9 1.1286863024553523e-9
          1.0402414292317625e-9 1.0783553222815335e-9 5.991260003170891e-10 5.896375520350403e-10 5.361381172589819e-10 5.274560004479797e-10
          5.619899663830292e-10 5.021840349159009e-10 9.676818805358917e-10 9.524956149929408e-10 8.658399460697052e-10 9.081734985268119e-10
          6.372402202534031e-10 5.7691664577255e-10 5.716117515864356e-10 5.162770508733225e-10 9.989290297771768e-10 9.18276886875402e-10
          8.964957325018228e-10 5.185440967340475e-10 4.625539126045566e-10 4.629332819408342e-10 4.119810421979356e-10 8.38311619376342e-10
          7.596006334874024e-10 7.485077331715952e-10 1.0611427297812613e-10 1.0447316081807884e-10 1.5071738454170516e-10 1.483294909172144e-10
          8.889079960701821e-11 1.2919160395221343e-10 1.271238011384801e-10 9.967187512991428e-11 1.4137622385997595e-10 1.2110548893072423e-10
          2.722709234190941e-10 2.6783301341224644e-10 2.3239008293686057e-10 2.5493972581082556e-10 1.0997485205777491e-10 1.0819884781793877e-10
          7.163598895416042e-11 1.0303218194031305e-10 2.0352437004381094e-10 2.001148228260527e-10 1.9022386972336913e-10 9.219325890458467e-11
          1.305216132170098e-10 7.836746705513731e-11 1.1171957846628703e-10 8.263479949275152e-11 1.1670475293279793e-10 9.97894459830284e-11
          2.347889752141407e-10 2.0334142487897066e-10 2.091917835115674e-10 6.618708950633398e-11 9.49814225590824e-11 5.923587441983021e-11
          8.476076337714076e-11 1.7480950739207239e-10 1.553075246374513e-10 4.759799285550122e-10 4.681058678483929e-10 4.191406439450881e-10
          4.120685945941068e-10 4.4521179805733967e-10 3.91527888969794e-10 7.940075736462452e-10 7.809023647202794e-10 6.984568128541754e-10
          7.427344756556999e-10 3.66058440759335e-10 3.59770120192085e-10 3.415240874468996e-10 6.302762895032599e-10 6.193637442844454e-10
          5.876644845643821e-10 4.0938709231762414e-10 3.5945159299527485e-10 3.638098657068968e-10 3.187645191780738e-10 6.828297097351515e-10
          6.087605846513228e-10 6.063224603103154e-10 3.1308680657272815e-10 2.7711522875623734e-10 5.381581247536639e-10 4.753784336687753e-10
          1.301600949746233e-10 1.7802051463056701e-10 1.1324292192359654e-10 1.5605551200776223e-10 1.1036621503641435e-10 1.5053369290722764e-10
          1.316847197137799e-10 3.025919277423892e-10 2.686489954320424e-10 2.548638011031485e-10 9.793764701623008e-11 1.359325689343327e-10
          8.41818420918917e-11 1.1763425908265113e-10 8.277978628261056e-11 1.1448449741251852e-10 9.890050872670611e-11 2.368789962862812e-10
          2.0739981614800965e-10 1.9844743411159794e-10 9.097410611132564e-11 1.235300262407191e-10 7.886872460317502e-11 1.0781423726897355e-10
          7.27921892880362e-11 9.835603841505638e-11 8.563661576338292e-11 2.0789862076438657e-10 1.835135269371044e-10 1.6428535765250024e-10
          6.7989145315229e-11 9.353537230799828e-11 5.826737170996113e-11 8.064834886481701e-11 5.419580424403351e-11 7.413259234469316e-11
          6.37911723547521e-11 1.609387727674337e-10 1.402070383683768e-10 1.2640613102202733e-10 4.963831349969542e-10 4.4699768341833806e-10
          4.169878386912582e-10 3.741970173544319e-10 7.786231054928893e-10 7.116716415581276e-10 6.536124815103062e-10 3.9963494783052515e-10
          3.5463955120285393e-10 3.334212921965199e-10 2.949321638680972e-10 6.457711744406467e-10 5.815211866218899e-10 5.377492875307255e-10
          3.3867106489946485e-10 3.027520924942687e-10 2.658879875521221e-10 2.367288556684772e-10 5.296608008634967e-10 4.799803417833614e-10
          4.139943112897017e-10 2.687761443728112e-10 2.369329503640136e-10 2.0936449654250767e-10 1.8390746821641586e-10 4.3183553381104925e-10
          3.856550245975828e-10 3.342834479756102e-10 7.187003197493083e-11 1.0111556129366e-10 6.098372129743023e-11 8.635156614317419e-11
          6.058643961921484e-11 8.487794632784048e-11 7.238232490586766e-11 1.8030558326576366e-10 1.556414899769303e-10 1.503557269719354e-10
          5.142279757755737e-11 7.326452799578962e-11 4.3258798595320263e-11 6.133527542716566e-11 1.3340809379034767e-10 1.1082752044624499e-10
          4.960893047636389e-11 6.909208653230518e-11 4.19936808609017e-11 5.882800636653503e-11 3.942107793117437e-11 5.4549194697385475e-11
          4.636474378305519e-11 1.213347239725243e-10 1.0430497148858291e-10 9.481183390337264e-11 3.534163338920335e-11 4.9782000619953244e-11
          2.7999184897035848e-11 3.916951242880691e-11 8.907419197847022e-11 6.93076135914064e-11 3.123323434672424e-10 2.72979831212542e-10
          2.589688951686318e-10 2.257147715945173e-10 5.1955192699137e-10 4.6046939631049905e-10 4.292817917579651e-10 2.3677375307757536e-10
          1.9528644941338335e-10 4.048124238143757e-10 3.321556607329221e-10 2.0737877793471748e-10 1.8022171034367425e-10 1.604427791450964e-10
          1.3901726227741152e-10 3.4183621485402384e-10 3.007158468829219e-10 2.6232110016179536e-10 1.5551433799128268e-10 1.1963520226876377e-10