<?xml version="1.0"?>
<VTKFile type="UnstructuredGrid" version="0.1" byte_order="LittleEndian" header_type="UInt32" compressor="vtkZLibDataCompressor">
  <UnstructuredGrid>
    <Piece NumberOfPoints="1232" NumberOfCells="804">
      <PointData>
        <DataArray type="Int32" Name="libmesh_node_id" format="ascii" RangeMin="24" RangeMax="2029">
          24 25 26 27 28 29
          30 31 32 33 34 35
          36 37 38 39 40 41
          42 43 44 45 46 47
          48 49 50 51 52 53
          54 55 56 57 58 59
          60 61 62 63 64 65
          66 67 68 69 70 71
          72 73 74 75 76 77
          78 79 80 81 82 83
          84 85 86 87 88 89
          90 91 92 93 94 95
          96 97 98 99 100 101
          102 103 104 105 106 107
          108 109 110 111 112 113
          114 115 116 117 118 119
          132 133 134 135 136 137
          138 139 140 141 142 143
          144 145 146 147 148 149
          150 151 152 153 154 155
          156 157 158 159 160 161
          162 163 164 165 166 167
          168 169 170 171 172 173
          174 175 176 177 178 179
          192 193 194 195 196 197
          198 199 200 201 202 203
          204 205 206 207 208 209
          210 211 212 213 214 215
          216 217 218 219 220 221
          222 223 224 225 226 227
          228 229 230 231 232 233
          234 235 236 237 238 239
          252 253 254 255 256 257
          258 259 260 261 262 263
          264 265 266 267 268 269
          270 271 272 273 274 275
          276 277 278 279 280 281
          282 283 284 285 286 287
          288 289 290 291 292 293
          294 295 296 297 298 299
          306 307 308 309 310 311
          312 313 314 315 316 317
          318 319 320 321 322 323
          324 325 326 327 328 329
          336 337 338 339 340 341
          342 343 344 345 346 347
          348 349 350 351 352 353
          354 355 356 357 358 359
          372 373 374 375 376 377
          378 379 380 381 382 383
          384 385 386 387 388 389
          390 391 392 393 394 395
          396 397 398 399 400 401
          402 403 404 405 406 407
          408 409 410 411 412 413
          414 415 416 417 418 419
          426 427 428 429 430 431
          432 433 434 435 436 437
          438 439 440 441 442 443
          444 445 446 447 448 449
          456 457 458 459 460 461
          462 463 464 465 466 467
          468 469 470 471 472 473
          474 475 476 477 478 479
          494 495 496 497 498 499
          500 501 502 503 504 505
          506 507 508 509 510 511
          512 513 514 515 516 517
          518 519 520 521 522 523
          524 525 526 527 528 529
          530 531 532 533 534 535
          536 537 538 539 547 548
          549 550 551 552 553 554
          555 556 557 558 559 560
          561 562 563 564 565 566
          567 568 569 577 578 579
          580 581 582 583 584 585
          586 587 588 589 590 591
          592 593 594 595 596 597
          598 599 614 615 616 617
          618 619 620 621 622 623
          624 625 626 627 628 629
          630 631 632 633 634 635
          636 637 638 639 640 641
          642 643 644 645 646 647
          648 649 650 651 652 653
          654 655 656 657 658 659
          667 668 669 670 671 672
          673 674 675 676 677 678
          679 680 681 682 683 684
          685 686 687 688 689 697
          698 699 700 701 702 703
          704 705 706 707 708 709
          710 711 712 713 714 715
          716 717 718 719 734 735
          736 737 738 739 740 741
          742 743 744 745 746 747
          748 749 750 751 752 753
          754 755 756 757 758 759
          760 761 762 763 764 765
          766 767 768 769 770 771
          772 773 774 775 776 777
          778 779 787 788 789 790
          791 792 793 794 795 796
          797 798 799 800 801 802
          803 804 805 806 807 808
          809 817 818 819 820 821
          822 823 824 825 826 827
          828 829 830 831 832 833
          834 835 836 837 838 839
          856 857 858 859 860 861
          862 863 864 865 866 867
          868 869 870 871 872 873
          874 875 876 877 878 879
          880 881 882 883 884 885
          886 887 888 889 890 891
          892 893 894 895 896 897
          898 899 908 909 910 911
          912 913 914 915 916 917
          918 919 920 921 922 923
          924 925 926 927 928 929
          938 939 940 941 942 943
          944 945 946 947 948 949
          950 951 952 953 954 955
          956 957 958 959 976 977
          978 979 980 981 982 983
          984 985 986 987 988 989
          990 991 992 993 994 995
          996 997 998 999 1000 1001
          1002 1003 1004 1005 1006 1007
          1008 1009 1010 1011 1012 1013
          1014 1015 1016 1017 1018 1019
          1028 1029 1030 1031 1032 1033
          1034 1035 1036 1037 1038 1039
          1040 1041 1042 1043 1044 1045
          1046 1047 1048 1049 1058 1059
          1060 1061 1062 1063 1064 1065
          1066 1067 1068 1069 1070 1071
          1072 1073 1074 1075 1076 1077
          1078 1079 1098 1099 1100 1101
          1102 1103 1104 1105 1106 1107
          1108 1109 1110 1111 1112 1113
          1114 1115 1116 1117 1118 1119
          1120 1121 1122 1123 1124 1125
          1126 1127 1128 1129 1130 1131
          1132 1133 1134 1135 1136 1137
          1138 1139 1149 1150 1151 1152
          1153 1154 1155 1156 1157 1158
          1159 1160 1161 1162 1163 1164
          1165 1166 1167 1168 1169 1179
          1180 1181 1182 1183 1184 1185
          1186 1187 1188 1189 1190 1191
          1192 1193 1194 1195 1196 1197
          1198 1199 1218 1219 1220 1221
          1222 1223 1224 1225 1226 1227
          1228 1229 1230 1231 1232 1233
          1234 1235 1236 1237 1238 1239
          1240 1241 1242 1243 1269 1270
          1271 1272 1273 1274 1275 1276
          1277 1278 1279 1280 1281 1299
          1300 1301 1302 1303 1304 1305
          1306 1307 1308 1309 1310 1311
          1342 1343 1344 1345 1346 1347
          1348 1349 1350 1351 1352 1353
          1354 1355 1356 1357 1358 1359
          1391 1392 1393 1394 1395 1396
          1397 1398 1399 1421 1422 1423
          1424 1425 1426 1427 1428 1429
          1462 1463 1464 1465 1466 1467
          1468 1469 1470 1471 1472 1473
          1474 1475 1476 1477 1478 1479
          1511 1512 1513 1514 1515 1516
          1517 1518 1519 1541 1542 1543
          1544 1545 1546 1547 1548 1549
          1582 1583 1584 1585 1586 1587
          1588 1589 1590 1591 1592 1593
          1594 1595 1596 1597 1631 1632
          1633 1634 1635 1636 1637 1638
          1661 1662 1663 1664 1665 1666
          1667 1668 1702 1703 1704 1705
          1706 1707 1708 1709 1710 1711
          1712 1713 1714 1715 1716 1717
          1751 1752 1753 1754 1755 1756
          1757 1758 1781 1782 1783 1784
          1785 1786 1787 1788 1824 1825
          1826 1827 1828 1829 1830 1831
          1832 1833 1834 1835 1836 1837
          1872 1873 1874 1875 1876 1877
          1878 1902 1903 1904 1905 1906
          1907 1908 1944 1945 1992 2022
          1244 1245 1246 1247 1248 1249
          1250 1251 1252 1253 1254 1255
          1256 1257 1258 1259 1282 1283
          1284 1285 1286 1287 1288 1289
          1312 1313 1314 1315 1316 1317
          1318 1319 1360 1361 1362 1363
          1364 1365 1400 1401 1402 1430
          1431 1432 1480 1481 1520 1550
          1598 1599 1600 1601 1639 1640
          1669 1670 1718 1719 1759 1789
          1838 1839 1879 1909 1946 1947
          1948 1949 1950 1951 1952 1953
          1954 1955 1956 1957 1958 1959
          1993 1994 1995 1996 1997 1998
          1999 2023 2024 2025 2026 2027
          2028 2029
        </DataArray>
        <DataArray type="Float64" Name="bounds" format="ascii" RangeMin="0" RangeMax="0">
          0 0 0 0 0 0
          0 0 0 0 0 0
          0 0 0 0 0 0
          0 0 0 0 0 0
          0 0 0 0 0 0
          0 0 0 0 0 0
          0 0 0 0 0 0
          0 0 0 0 0 0
          0 0 0 0 0 0
          0 0 0 0 0 0
          0 0 0 0 0 0
          0 0 0 0 0 0
          0 0 0 0 0 0
          0 0 0 0 0 0
          0 0 0 0 0 0
          0 0 0 0 0 0
          0 0 0 0 0 0
          0 0 0 0 0 0
          0 0 0 0 0 0
          0 0 0 0 0 0
          0 0 0 0 0 0
          0 0 0 0 0 0
          0 0 0 0 0 0
          0 0 0 0 0 0
          0 0 0 0 0 0
          0 0 0 0 0 0
          0 0 0 0 0 0
          0 0 0 0 0 0
          0 0 0 0 0 0
          0 0 0 0 0 0
          0 0 0 0 0 0
          0 0 0 0 0 0
          0 0 0 0 0 0
          0 0 0 0 0 0
          0 0 0 0 0 0
          0 0 0 0 0 0
          0 0 0 0 0 0
          0 0 0 0 0 0
          0 0 0 0 0 0
          0 0 0 0 0 0
          0 0 0 0 0 0
          0 0 0 0 0 0
          0 0 0 0 0 0
          0 0 0 0 0 0
          0 0 0 0 0 0
          0 0 0 0 0 0
          0 0 0 0 0 0
          0 0 0 0 0 0
          0 0 0 0 0 0
          0 0 0 0 0 0
          0 0 0 0 0 0
          0 0 0 0 0 0
          0 0 0 0 0 0
          0 0 0 0 0 0
          0 0 0 0 0 0
          0 0 0 0 0 0
          0 0 0 0 0 0
          0 0 0 0 0 0
          0 0 0 0 0 0
          0 0 0 0 0 0
          0 0 0 0 0 0
          0 0 0 0 0 0
          0 0 0 0 0 0
          0 0 0 0 0 0
          0 0 0 0 0 0
          0 0 0 0 0 0
          0 0 0 0 0 0
          0 0 0 0 0 0
          0 0 0 0 0 0
          0 0 0 0 0 0
          0 0 0 0 0 0
          0 0 0 0 0 0
          0 0 0 0 0 0
          0 0 0 0 0 0
          0 0 0 0 0 0
          0 0 0 0 0 0
          0 0 0 0 0 0
          0 0 0 0 0 0
          0 0 0 0 0 0
          0 0 0 0 0 0
          0 0 0 0 0 0
          0 0 0 0 0 0
          0 0 0 0 0 0
          0 0 0 0 0 0
          0 0 0 0 0 0
          0 0 0 0 0 0
          0 0 0 0 0 0
          0 0 0 0 0 0
          0 0 0 0 0 0
          0 0 0 0 0 0
          0 0 0 0 0 0
          0 0 0 0 0 0
          0 0 0 0 0 0
          0 0 0 0 0 0
          0 0 0 0 0 0
          0 0 0 0 0 0
          0 0 0 0 0 0
          0 0 0 0 0 0
          0 0 0 0 0 0
          0 0 0 0 0 0
          0 0 0 0 0 0
          0 0 0 0 0 0
          0 0 0 0 0 0
          0 0 0 0 0 0
          0 0 0 0 0 0
          0 0 0 0 0 0
          0 0 0 0 0 0
          0 0 0 0 0 0
          0 0 0 0 0 0
          0 0 0 0 0 0
          0 0 0 0 0 0
          0 0 0 0 0 0
          0 0 0 0 0 0
          0 0 0 0 0 0
          0 0 0 0 0 0
          0 0 0 0 0 0
          0 0 0 0 0 0
          0 0 0 0 0 0
          0 0 0 0 0 0
          0 0 0 0 0 0
          0 0 0 0 0 0
          0 0 0 0 0 0
          0 0 0 0 0 0
          0 0 0 0 0 0
          0 0 0 0 0 0
          0 0 0 0 0 0
          0 0 0 0 0 0
          0 0 0 0 0 0
          0 0 0 0 0 0
          0 0 0 0 0 0
          0 0 0 0 0 0
          0 0 0 0 0 0
          0 0 0 0 0 0
          0 0 0 0 0 0
          0 0 0 0 0 0
          0 0 0 0 0 0
          0 0 0 0 0 0
          0 0 0 0 0 0
          0 0 0 0 0 0
          0 0 0 0 0 0
          0 0 0 0 0 0
          0 0 0 0 0 0
          0 0 0 0 0 0
          0 0 0 0 0 0
          0 0 0 0 0 0
          0 0 0 0 0 0
          0 0 0 0 0 0
          0 0 0 0 0 0
          0 0 0 0 0 0
          0 0 0 0 0 0
          0 0 0 0 0 0
          0 0 0 0 0 0
          0 0 0 0 0 0
          0 0 0 0 0 0
          0 0 0 0 0 0
          0 0 0 0 0 0
          0 0 0 0 0 0
          0 0 0 0 0 0
          0 0 0 0 0 0
          0 0 0 0 0 0
          0 0 0 0 0 0
          0 0 0 0 0 0
          0 0 0 0 0 0
          0 0 0 0 0 0
          0 0 0 0 0 0
          0 0 0 0 0 0
          0 0 0 0 0 0
          0 0 0 0 0 0
          0 0 0 0 0 0
          0 0 0 0 0 0
          0 0 0 0 0 0
          0 0 0 0 0 0
          0 0 0 0 0 0
          0 0 0 0 0 0
          0 0 0 0 0 0
          0 0 0 0 0 0
          0 0 0 0 0 0
          0 0 0 0 0 0
          0 0 0 0 0 0
          0 0 0 0 0 0
          0 0 0 0 0 0
          0 0 0 0 0 0
          0 0 0 0 0 0
          0 0 0 0 0 0
          0 0 0 0 0 0
          0 0 0 0 0 0
          0 0 0 0 0 0
          0 0 0 0 0 0
          0 0 0 0 0 0
          0 0 0 0 0 0
          0 0 0 0 0 0
          0 0 0 0 0 0
          0 0 0 0 0 0
          0 0 0 0 0 0
          0 0 0 0 0 0
          0 0 0 0 0 0
          0 0 0 0 0 0
          0 0 0 0 0 0
          0 0 0 0 0 0
          0 0 0 0 0 0
          0 0 0 0 0 0
          0 0 0 0 0 0
          0 0 0 0 0 0
          0 0 0 0 0 0
          0 0 0 0 0 0
          0 0
        </DataArray>
        <DataArray type="Float64" Name="gradient_error" format="ascii" RangeMin="5.553062580971877e-16" RangeMax="1.3348446912817855e-8">
          6.208269019022509e-16 6.207653999644769e-16 6.201938104690312e-16 6.202947164393032e-16 6.209486054925466e-16 6.20828883750855e-16
          6.200185185799617e-16 6.202119059907587e-16 6.207620641032024e-16 6.207223155140361e-16 6.204541735481045e-16 6.20466008212093e-16
          6.204025478676493e-16 6.205177272041962e-16 6.212049812771037e-16 6.20897845029217e-16 6.201981357466166e-16 6.203943295896895e-16
          6.215853815897004e-16 6.211323192773312e-16 6.201476550361892e-16 6.203648229842326e-16 6.216082854211801e-16 6.211498345166439e-16
          6.203647976940101e-16 6.204822113064211e-16 6.210803312641179e-16 6.208644834148477e-16 6.209082125730487e-16 6.207583651189413e-16
          6.199392783592355e-16 6.202829685792522e-16 6.21075668163136e-16 6.208412234291892e-16 6.196346056335181e-16 6.201319741902432e-16
          6.206171363744341e-16 6.206119143688352e-16 6.206172585304928e-16 6.206234730912389e-16 6.20397303243792e-16 6.205057814413422e-16
          6.210776890056442e-16 6.208460024576341e-16 6.20559103884555e-16 6.205887066099758e-16 6.20734572287387e-16 6.206700526902862e-16
          6.206831256934974e-16 6.206489439544725e-16 6.204705749149258e-16 6.205414941520932e-16 6.206385507353961e-16 6.20626732104723e-16
          6.205617077442979e-16 6.205869302351847e-16 6.205927767812805e-16 6.206035517694953e-16 6.206579168932507e-16 6.206357435869165e-16
          6.206154684212338e-16 6.206144612717673e-16 6.206124765589769e-16 6.206140182486687e-16 6.206151214716965e-16 6.20614746158012e-16
          6.206125373930959e-16 6.206131387295686e-16 6.206143224846004e-16 6.206142888430414e-16 6.206138241698895e-16 6.206138525548198e-16
          6.206142320729872e-16 6.206142289190444e-16 6.206140575576462e-16 6.20614050724192e-16 6.20614269919641e-16 6.20614242585886e-16
          6.206142215599478e-16 6.206141858158296e-16 6.206139587356566e-16 6.206140827887124e-16 6.206139881719767e-16 6.206140265443332e-16
          6.206138809396751e-16 6.20614080686153e-16 6.206139440175425e-16 6.20614022864853e-16 6.20614099609508e-16 6.206141321997204e-16
          6.206142026366414e-16 6.206141584821621e-16 6.206140848913826e-16 6.206140554550161e-16 6.206141984314231e-16 6.206141164302247e-16
          6.206505037567344e-16 6.20523407637025e-16 6.206545169534199e-16 6.205239071994557e-16 6.206446927679551e-16 6.20551986851752e-16
          6.206240520797065e-16 6.205992538822123e-16 6.206049747956348e-16 6.206393961694757e-16 6.206002668535902e-16 6.206468383047199e-16
          6.206083877613452e-16 6.2062724287239125e-16 6.206128204543091e-16 6.2061663909858e-16 6.206114557812343e-16 6.206191972058125e-16
          6.206106609159295e-16 6.206207708671501e-16 6.206137727816851e-16 6.206144706672451e-16 6.206156798928723e-16 6.206106733048272e-16
          6.206141964848954e-16 6.206134989117534e-16 6.206142500306789e-16 6.206132355406086e-16 6.20614072312562e-16 6.206137640030105e-16
          6.20613828379785e-16 6.206145774655008e-16 6.206142541502655e-16 6.206138315288677e-16 6.206141227380324e-16 6.206139461201413e-16
          6.206141879184028e-16 6.206141574308087e-16 6.206142793812839e-16 6.206142630861669e-16 6.20614215252179e-16 6.206141421870316e-16
          6.206142131496044e-16 6.206141385075308e-16 6.206141721489946e-16 6.20614142712681e-16 6.206141353535492e-16 6.206140848912852e-16
          6.205971094867661e-16 6.206511928644752e-16 6.205998718976764e-16 6.20642520997356e-16 6.206068186110403e-16 6.206261308274224e-16
          6.206151976186699e-16 6.206077989830947e-16 6.206194261585068e-16 6.205995353739894e-16 6.206185427749043e-16 6.206022929973322e-16
          6.206171506038584e-16 6.206058501792048e-16 6.206171232437842e-16 6.206066193978909e-16 6.206161328672262e-16 6.206090516646568e-16
          6.206146294686229e-16 6.206118540823153e-16 6.20613285924478e-16 6.206146254248661e-16 6.206130504503481e-16 6.206158135164687e-16
          6.206136307543433e-16 6.206145844342464e-16 6.20613586587308e-16 6.206143183551456e-16 6.20613817867414e-16 6.206139577254388e-16
          6.206142026372694e-16 6.206135949926411e-16 6.206141374562037e-16 6.206139229916943e-16 6.206139902745824e-16 6.20614011300533e-16
          6.206141500717039e-16 6.206142709708796e-16 6.206143435104368e-16 6.206143761006225e-16 6.206142236625897e-16 6.206142194573734e-16
          6.20614145866578e-16 6.206141753028977e-16 6.206141795080566e-16 6.206141710976791e-16 6.206142446884489e-16 6.206141353535439e-16
          6.218966527413624e-16 6.217242005000865e-16 6.221971962020388e-16 6.218030979618355e-16 6.204119960266936e-16 6.207359658719379e-16
          6.177010993183899e-16 6.191535273588593e-16 6.165768808746121e-16 6.184321965635529e-16 6.169128981871091e-16 6.185940308504396e-16
          6.192243237635496e-16 6.198437121174334e-16 6.235172912427328e-16 6.220391254355332e-16 6.244962454586732e-16 6.225256356359964e-16
          6.206736760911636e-16 6.206139644714441e-16 6.188651938725036e-16 6.197389319829082e-16 6.201567918530911e-16 6.204019170209782e-16
          6.211595807448915e-16 6.208910790257117e-16 6.208219306809466e-16 6.20721928563337e-16 6.204564255052489e-16 6.205359109163035e-16
          6.206164143779356e-16 6.206119922180125e-16 6.206192889710145e-16 6.206168288573938e-16 6.206149490607244e-16 6.206145926699868e-16
          6.20614006044194e-16 6.206140517756225e-16 6.206140176083906e-16 6.206141111738276e-16 6.206139724026274e-16 6.206139939542301e-16
          6.20614019711051e-16 6.206139850182596e-16 6.206142835866081e-16 6.206141826620816e-16 6.206143182793498e-16 6.20614203687962e-16
          6.210143971422196e-16 6.209657192707074e-16 6.208251893314542e-16 6.206322410270768e-16 6.204861320173995e-16 6.204716517645386e-16
          6.205559309482255e-16 6.20601639005784e-16 6.205936610409868e-16 6.20587767752245e-16 6.206117326344479e-16 6.206267676724574e-16
          6.20616622033969e-16 6.206169286411007e-16 6.2061452645499755e-16 6.206112638072885e-16 6.206140575590852e-16 6.206140554556547e-16
          6.206141106482852e-16 6.206142068419372e-16 6.206140549294919e-16 6.206140344292004e-16 6.206141469179634e-16 6.206141321997559e-16
          6.204770460256288e-16 6.205224388197827e-16 6.205904429457264e-16 6.206585266548247e-16 6.206847517823052e-16 6.206681400153072e-16
          6.206487614251337e-16 6.206423183832342e-16 6.206322962686539e-16 6.206212826527651e-16 6.206107951755832e-16 6.206064931560495e-16
          6.20610666761406e-16 6.206119308364738e-16 6.206136565826368e-16 6.206149575564877e-16 6.206137463743971e-16 6.206138746320602e-16
          6.206141237895194e-16 6.206142089446102e-16 6.206140943531512e-16 6.206141185329328e-16 6.206142120983717e-16 6.206141753029375e-16
          6.181954915770863e-16 6.174559513736621e-16 6.180900710271314e-16 6.178717980848278e-16 6.253276896455247e-16 6.222955152884749e-16
          6.353880732290335e-16 6.282554101712814e-16 6.384832238724515e-16 6.303909052809099e-16 6.353685423240941e-16 6.287762709246147e-16
          6.251049794368838e-16 6.232046079287794e-16 6.091316626607084e-16 6.149896707538688e-16 6.070956886210431e-16 6.139749985836182e-16
          6.21770119356669e-16 6.213129755081994e-16 6.277956447381768e-16 6.242090346537146e-16 6.226437967441931e-16 6.215621049371066e-16
          6.18664498771847e-16 6.196180766257171e-16 6.198530051573378e-16 6.202163767712605e-16 6.21218721603978e-16 6.209141258755855e-16
          6.206157217213996e-16 6.206277754683664e-16 6.20595325561205e-16 6.206041091600709e-16 6.206102645270951e-16 6.206115528722457e-16
          6.206139040693163e-16 6.206138988128222e-16 6.206141679439135e-16 6.206141653156567e-16 6.206140501986262e-16 6.206140696476383e-16
          6.20614105917418e-16 6.206140827889025e-16 6.206141994828329e-16 6.20614134828068e-16 6.206141879185085e-16 6.206141195842148e-16
          6.189098893698179e-16 6.192690809129227e-16 6.199332407369283e-16 6.207351136552234e-16 6.212850670874881e-16 6.212740266779975e-16
          6.208827211473971e-16 6.206738115118779e-16 6.206992001030164e-16 6.207219431745011e-16 6.206261489565604e-16 6.205638289367296e-16
          6.206007257016718e-16 6.206012800784743e-16 6.206122953101375e-16 6.206245890532357e-16 6.20613353210245e-16 6.206134830291808e-16
          6.20613957685136e-16 6.206140901480356e-16 6.206140491473972e-16 6.206140354805299e-16 6.206140302240401e-16 6.206139839669571e-16
          6.211033675693977e-16 6.208846366833208e-16 6.206031405424317e-16 6.203474801969172e-16 6.202715474856077e-16 6.203640538308596e-16
          6.20461205874119e-16 6.204999441767265e-16 6.205440916598392e-16 6.205880546892724e-16 6.206298733438682e-16 6.206472447434389e-16
          6.206297969237563e-16 6.206228117717655e-16 6.206150604730819e-16 6.206093488911382e-16 6.206138136615531e-16 6.206141248409653e-16
          6.206140218139439e-16 6.20614017608671e-16 6.206140091981438e-16 6.20614011300673e-16 6.20613990274777e-16 6.206139166839931e-16
          6.202142521322106e-16 6.257675333186109e-16 5.935785241434626e-16 6.087568493648636e-16 5.613653901655922e-16 5.890370007508556e-16
          5.553062580971877e-16 5.840764133157889e-16 5.709551074771106e-16 5.924267216635969e-16 6.158449608720469e-16 6.167519652635703e-16
          6.873400181272433e-16 6.534874122344166e-16 7.029000204114249e-16 6.612821087465651e-16 6.338223954511301e-16 6.267391891971275e-16
          5.95006858385308e-16 6.077996611216076e-16 6.147754232882502e-16 6.179783567059182e-16 6.309668432206617e-16 6.258997876778163e-16
          6.248961743190441e-16 6.228341573154319e-16 6.184061111783571e-16 6.195209926622734e-16 6.205678174569421e-16 6.205402181007244e-16
          6.206792701945964e-16 6.206478475708456e-16 6.20629440911667e-16 6.206240999903799e-16 6.206160960355921e-16 6.206156171691865e-16
          6.206140775332226e-16 6.206140617635654e-16 6.206138451955879e-16 6.206139051195659e-16 6.206138935552756e-16 6.206139193121088e-16
          6.206139345558609e-16 6.206138846192746e-16 6.206139776590185e-16 6.206139030169572e-16 6.256908068190412e-16 6.225707338969478e-16
          6.194324329509596e-16 6.175796675056839e-16 6.178393691173984e-16 6.194685076985667e-16 6.203517458394811e-16 6.202716063544227e-16
          6.201803188056475e-16 6.205667385066499e-16 6.208271902972193e-16 6.206875068939783e-16 6.206737035288462e-16 6.206229919729428e-16
          6.205727742084627e-16 6.2061585842076e-16 6.206163294662935e-16 6.206145711223276e-16 6.206140034161695e-16 6.206139950055175e-16
          6.206139634666378e-16 6.206137994642841e-16 6.206137579380675e-16 6.200607991330714e-16 6.212062932076307e-16 6.221562545658e-16
          6.223127664769773e-16 6.217804023847134e-16 6.2127804574204e-16 6.210686853373721e-16 6.2087901562714e-16 6.207046546681702e-16
          6.205410131553927e-16 6.204730904708526e-16 6.2054228165298595e-16 6.205752667458727e-16 6.20610109799696e-16 6.206329296724185e-16
          6.206152918944257e-16 6.206138998634938e-16 6.206140039418742e-16 6.206139608384307e-16 6.206140249674912e-16 6.206139818643336e-16
          6.206137642458799e-16 6.206136875012393e-16 7.951344198704534e-16 6.94137076422954e-16 8.858097588266145e-16 7.549569967117821e-16
          1.001895796718436e-15 8.288768938553915e-16 9.813951532586545e-16 8.257254511752189e-16 8.572136732924925e-16 7.576610284600714e-16
          7.274750333496639e-16 6.815486921922306e-16 8.192234724902693e-16 7.220224963432157e-16 9.376974475364386e-16 7.810423815214144e-16
          8.562611354877979e-16 7.403499475803929e-16 7.583915518910159e-16 6.895910215079591e-16 6.80845299800613e-16 6.496445536438273e-16
          6.245903077354323e-16 6.221450805494944e-16 6.239864847466661e-16 6.219792664443198e-16 6.301473041647638e-16 6.253512671632653e-16
          6.209607632967103e-16 6.209927544692761e-16 6.203960423396915e-16 6.205069163102118e-16 6.20554803553826e-16 6.20576384986585e-16
          6.206053025512078e-16 6.206072469097549e-16 6.206134131206135e-16 6.206133195546933e-16 6.206142772791683e-16 6.206141900214173e-16
          6.20614164790054e-16 6.206141258920649e-16 6.206141679439538e-16 6.206140685963558e-16 6.206142636120414e-16 6.206141195843023e-16
          6.068331455041134e-16 6.204167951315697e-16 6.349201805679232e-16 6.419519618831695e-16 6.370083552980625e-16 6.267748572434347e-16
          6.218629609388588e-16 6.220341614508031e-16 6.223949756589784e-16 6.208965218375192e-16 6.198577330479246e-16 6.20334557827741e-16
          6.203851198966404e-16 6.205970055171834e-16 6.207827045592851e-16 6.2061268078383e-16 6.206063694318645e-16 6.206118683142532e-16
          6.206136465041359e-16 6.206140554552143e-16 6.206140628142268e-16 6.206139282481933e-16 6.20613920889145e-16 6.205265580327723e-16
          6.167293556661896e-16 6.139823701434995e-16 6.138481746745558e-16 6.159083269684747e-16 6.179273634520719e-16 6.189044016815555e-16
          6.19681007395216e-16 6.203511916449689e-16 6.210025525501362e-16 6.212716586088077e-16 6.209692622919253e-16 6.207981916513073e-16
          6.206387808726001e-16 6.205406634767282e-16 6.206075712869276e-16 6.206147724443851e-16 6.2061454536020455e-16 6.206140670194985e-16
          6.206140081467627e-16 6.206140386343777e-16 6.206138872476286e-16 6.206138662217266e-16 1.7651136725347802e-15 1.237161710191784e-15
          2.1523807929274206e-15 1.4153566257195835e-15 2.7014411307362993e-15 1.720349689035219e-15 2.420176105463689e-15 1.5906685697854513e-15
          1.5861395899843208e-15 1.1279065151459553e-15 1.4617545301903022e-15 1.0332203215682257e-15 2.684419902827949e-15 1.645777496919406e-15
          3.0502136290426712e-15 1.82907086069132e-15 1.950708630180802e-15 1.2789561193464109e-15 1.1387101546742268e-15 8.807378384306213e-16
          9.71753504811136e-16 8.024929469423213e-16 9.823832192467282e-16 8.047690306378432e-16 7.836974309531964e-16 7.040879309906085e-16
          6.058067051671124e-16 6.136041354322517e-16 6.187330391363217e-16 6.188842314373172e-16 6.213164396541272e-16 6.209334357721266e-16
          6.208382674945357e-16 6.20752660936924e-16 6.206550551160517e-16 6.206440669302171e-16 6.206200290377142e-16 6.206190713178955e-16
          6.206148754712235e-16 6.206147440598493e-16 6.206145201286312e-16 6.206143429853018e-16 6.206147303880854e-16 6.206144691407966e-16
          6.206147451063643e-16 6.206144612560947e-16 6.771840091567475e-16 6.716011948814138e-16 7.080476392270697e-16 7.147776479300981e-16
          6.58442337249087e-16 6.183934002326582e-16 6.169762125183876e-16 6.158134295446285e-16 6.14245055601123e-16 6.209589539168297e-16
          6.257614202455438e-16 6.231989035529358e-16 6.2216596812114015e-16 6.209673294804805e-16 6.199701049157095e-16 6.205985346793012e-16
          6.20639915863189e-16 6.206224805853687e-16 6.206155746477638e-16 6.206140444195197e-16 6.206138720041353e-16 6.206138825170158e-16
          6.206138746323147e-16 6.451582704647074e-16 6.648699312510805e-16 6.7683703112e-16 6.683942617529823e-16 6.472112341905842e-16
          6.321006875191671e-16 6.268173340259121e-16 6.23698766749288e-16 6.212865026902265e-16 6.191523856466438e-16 6.182904514175807e-16
          6.192429650769137e-16 6.198535052142595e-16 6.205330932635701e-16 6.209047860931061e-16 6.206466374684765e-16 6.206127773470656e-16
          6.206118824263552e-16 6.206130356974509e-16 6.206134761905642e-16 6.206135781662982e-16 6.206135571405237e-16 6.206135718588044e-16
          1.0429055347246491e-14 6.1989691869454935e-15 1.1679639588421498e-14 7.116488578730097e-15 9.488512692041635e-15 6.010617395849523e-15
          5.429994071408714e-15 3.6301609898788345e-15 5.303939161175631e-15 3.1634533452806124e-15 1.0854769044125464e-14 5.768126985623184e-15
          1.2033031361292584e-14 6.3506933713152615e-15 7.417143909931669e-15 4.048313274816905e-15 4.215507549160372e-15 2.433954915243327e-15
          3.0966703367535777e-15 1.8650765517558184e-15 2.6065803753784294e-15 1.6177816871019125e-15 1.6977338283965942e-15 1.1585214292374518e-15
          8.249205478383457e-16 7.253379740889807e-16 6.312998694806585e-16 6.295141590543657e-16 6.186388531037612e-16 6.198627628401682e-16
          6.198189404404779e-16 6.201390574145144e-16 6.204478255203184e-16 6.204962055360222e-16 6.205880386786856e-16 6.205924493714163e-16
          6.206131188362332e-16 6.206120228440684e-16 6.2061652601102795e-16 6.206151961196842e-16 6.206167289060124e-16 6.206155183402385e-16
          6.206165806729612e-16 6.206154421211196e-16 1.408572609102688e-15 1.71569822546143e-15 1.6513227889345129e-15 1.2303374115537458e-15
          8.057090479082151e-16 6.422166297087847e-16 6.423852071356054e-16 6.52997252311068e-16 6.453581247470578e-16 6.378383305987443e-16
          6.305724031337611e-16 6.224575225676304e-16 6.237732751281508e-16 6.236292738343739e-16 6.2076938189370265e-16 6.205316081312976e-16
          6.205801458006641e-16 6.206052695792293e-16 6.206117336946878e-16 6.206130167777445e-16 6.206131928710149e-16 6.206132133715989e-16
          8.482621915608802e-16 8.780588818841664e-16 7.699234782116177e-16 6.303469147585366e-16 5.884505664308362e-16 6.029483322966641e-16
          6.164150329332695e-16 6.265118649199942e-16 6.383139681678348e-16 6.421938944394298e-16 6.321618074421265e-16 6.25606015056952e-16