<?xml version="1.0"?>
<VTKFile type="UnstructuredGrid" version="0.1" byte_order="LittleEndian" header_type="UInt32" compressor="vtkZLibDataCompressor">
  <UnstructuredGrid>
    <Piece NumberOfPoints="432" NumberOfCells="245">
      <PointData>
        <DataArray type="Int32" Name="libmesh_node_id" format="ascii" RangeMin="234" RangeMax="3313">
          245 346 351 485 709 710
          711 719 720 721 722 723
          724 725 726 727 728 729
          730 731 1003 1004 1269 1270
          1271 1272 1280 1281 1286 1287
          1288 1289 1290 1291 1292 1293
          1294 1295 1298 1299 1300 1301
          1302 1303 1304 1305 1306 1307
          1308 1309 1310 1311 1312 1313
          1314 1315 1316 1317 1318 1321
          1322 1324 1325 1326 1327 1328
          1331 1332 1654 1655 1656 1657
          1658 1659 1660 1661 1662 1663
          1664 1665 1666 1667 1692 1693
          1694 1695 1696 1697 1698 1699
          1700 1701 1702 1703 1704 1705
          1706 1707 1708 1709 1710 1711
          1712 1713 1714 1715 1716 1717
          1718 1719 1720 1721 1722 1723
          1724 1725 1726 1727 1728 1729
          1730 1731 1732 2214 2215 2216
          2217 2218 2219 2220 2221 2222
          2223 2224 2225 2226 2227 2228
          2229 2230 2231 2232 2233 2234
          2235 2236 2237 2238 2239 2240
          2241 2242 2243 2244 2245 2246
          2247 2248 2249 2250 2251 2252
          2253 2254 2255 2256 2257 2258
          2259 2260 2261 2262 2263 2264
          2265 2266 2267 2268 2269 2270
          2271 2272 2273 2274 2275 2276
          2277 2278 2279 2280 2281 2282
          2283 2284 2285 2286 2287 2288
          2289 2290 2291 2292 2293 2294
          2295 2296 2297 2298 2299 2300
          2301 2302 2303 2304 2305 2306
          2307 2308 2309 2310 2311 2312
          2313 2314 2315 2316 2317 2318
          2319 2320 2321 2322 2323 2324
          2325 2326 2327 2328 2329 2330
          2331 2332 2333 2334 2335 2336
          2337 2338 2339 2340 2341 2342
          2343 2344 2345 2346 2347 2348
          2349 2350 2351 2352 2353 2354
          2355 2356 2357 2358 2359 2360
          2361 2362 2363 2364 2365 2366
          2367 2368 2369 2370 2371 2372
          2373 2374 2375 2376 2391 2392
          2393 2394 2395 2396 2397 2398
          2399 2400 2401 2402 2403 2404
          2405 2406 2407 2408 2409 2410
          2411 2412 2413 2414 2415 2416
          2417 2649 2650 2652 2653 2654
          2655 2691 2692 2693 2694 2695
          2696 2701 2702 2703 2704 2705
          2706 2711 2712 2713 2714 2718
          2719 2720 2721 2759 2760 2762
          2763 2764 2765 2799 2800 2801
          2802 2806 2807 2808 2809 3196
          3197 3200 3202 3203 3205 3216
          3218 3220 3222 3291 3292 3295
          3311 3313 480 243 484 481
          482 486 483 461 462 234
          347 336 489 488 350 246
          353 705 706 707 708 712
          714 713 715 348 717 716
          349 718 998 999 1005 1006
          1296 1297 1275 1284 1347 1403
          1406 1349 1422 1362 2632 2639
          2640 2633 2641 2642 2643 2634
          2644 2648 2656 2651 1405 2657
          2658 1407 2766 2761 2767 2768
        </DataArray>
        <DataArray type="Float64" Name="bounds" format="ascii" RangeMin="0" RangeMax="0">
          0 0 0 0 0 0
          0 0 0 0 0 0
          0 0 0 0 0 0
          0 0 0 0 0 0
          0 0 0 0 0 0
          0 0 0 0 0 0
          0 0 0 0 0 0
          0 0 0 0 0 0
          0 0 0 0 0 0
          0 0 0 0 0 0
          0 0 0 0 0 0
          0 0 0 0 0 0
          0 0 0 0 0 0
          0 0 0 0 0 0
          0 0 0 0 0 0
          0 0 0 0 0 0
          0 0 0 0 0 0
          0 0 0 0 0 0
          0 0 0 0 0 0
          0 0 0 0 0 0
          0 0 0 0 0 0
          0 0 0 0 0 0
          0 0 0 0 0 0
          0 0 0 0 0 0
          0 0 0 0 0 0
          0 0 0 0 0 0
          0 0 0 0 0 0
          0 0 0 0 0 0
          0 0 0 0 0 0
          0 0 0 0 0 0
          0 0 0 0 0 0
          0 0 0 0 0 0
          0 0 0 0 0 0
          0 0 0 0 0 0
          0 0 0 0 0 0
          0 0 0 0 0 0
          0 0 0 0 0 0
          0 0 0 0 0 0
          0 0 0 0 0 0
          0 0 0 0 0 0
          0 0 0 0 0 0
          0 0 0 0 0 0
          0 0 0 0 0 0
          0 0 0 0 0 0
          0 0 0 0 0 0
          0 0 0 0 0 0
          0 0 0 0 0 0
          0 0 0 0 0 0
          0 0 0 0 0 0
          0 0 0 0 0 0
          0 0 0 0 0 0
          0 0 0 0 0 0
          0 0 0 0 0 0
          0 0 0 0 0 0
          0 0 0 0 0 0
          0 0 0 0 0 0
          0 0 0 0 0 0
          0 0 0 0 0 0
          0 0 0 0 0 0
          0 0 0 0 0 0
          0 0 0 0 0 0
          0 0 0 0 0 0
          0 0 0 0 0 0
          0 0 0 0 0 0
          0 0 0 0 0 0
          0 0 0 0 0 0
          0 0 0 0 0 0
          0 0 0 0 0 0
          0 0 0 0 0 0
          0 0 0 0 0 0
          0 0 0 0 0 0
          0 0 0 0 0 0
        </DataArray>
        <DataArray type="Float64" Name="gradient_error" format="ascii" RangeMin="6.009530711868663e-11" RangeMax="3.2051791573084747e-7">
          1.7118144054948034e-10 8.364240212210064e-9 1.7602746708744005e-9 1.1762013060510897e-10 6.426624982669114e-9 9.903655098649229e-8
          7.176256002112153e-8 5.239684047848851e-10 4.671199664205378e-10 1.1507380689618689e-9 7.359119290846354e-10 1.822813813490133e-10
          1.7926069894546226e-10 2.2371867251986729e-10 9.838327292340645e-10 1.2325893167633966e-9 2.811587863210092e-10 7.26496554376362e-9
          2.7349530038158686e-9 5.519994061423209e-10 1.3614292444262549e-9 1.1745207822430243e-9 1.2764774403225903e-8 3.665026290549379e-8
          3.128691500224653e-8 2.0797708929575016e-8 5.16861282816979e-9 1.2239915842294407e-8 8.469569562242561e-9 7.23575409830174e-9
          2.0025907954527345e-8 1.7036330130901038e-8 1.0195823026533816e-9 1.740795488026314e-9 1.4163208557347073e-9 4.932198757743489e-9
          1.124957857845846e-8 8.130045588678786e-10 5.6021944715114665e-9 2.8919062397942083e-8 4.609371476988218e-10 4.0348346155104807e-10
          7.940229997239927e-10 6.286923313681497e-10 1.5397276423118636e-10 3.3874649827237814e-10 2.651436912856812e-10 3.4701618624890574e-10
          3.881945820170378e-10 2.1964018573330376e-10 3.87485485220687e-9 2.8919196399112267e-9 1.291984855068948e-9 1.2827061345217927e-9
          3.214462553038583e-9 6.769870148894374e-9 8.156439405729831e-10 7.082066195971345e-10 2.1490279940474224e-9 1.3525860111274771e-8
          1.0187243076891414e-9 3.5132822009302674e-10 3.8534552125356535e-10 2.4998137276019086e-10 3.018153547656267e-10 3.2212279903650326e-10
          4.952098728984477e-10 2.7911967055595113e-10 6.019583464593927e-10 1.0036770445404265e-9 8.008456866478127e-10 5.98014328755199e-10
          4.817697600167426e-10 3.9654501706430166e-10 6.568927630332717e-10 5.392876704634286e-10 1.275015566805107e-10 1.978139474402035e-10
          1.8042224492162002e-10 3.1132027411186073e-10 4.216825778935856e-10 1.6303054240303654e-10 8.991674284148774e-10 1.4528169515209174e-9
          1.4974334523703178e-9 1.5159942926292223e-9 9.639628763534269e-10 1.2674416631601648e-9 1.0449446942816036e-9 4.760820324844191e-10
          5.817028702626206e-10 1.4044845503930612e-9 1.3753935047638202e-9 2.3515948356129606e-10 9.889574085345953e-10 9.078345159697841e-10
          7.024305032522891e-10 1.2560465238241182e-9 7.111114334693183e-10 1.6548339319652686e-10 1.6053371517054414e-10 4.392498934045015e-10
          3.960479281982973e-10 8.295528337526561e-11 1.8010101150345828e-10 1.6034970677640474e-10 1.4173786450815062e-10 2.957533235638825e-10
          1.3637941009710297e-10 6.501482830167603e-10 9.89246087773947e-10 2.4325004182155654e-10 4.975213908467706e-10 5.827592675697648e-10
          8.127015870342362e-10 3.995315381598778e-10 1.1486151133465939e-10 1.9934408890671797e-10 7.955662870629954e-11 1.1469590850762406e-10
          1.0183133079757898e-10 1.6002749367776417e-10 1.0145039082264167e-10 1.3292235267673191e-9 1.7204511477780814e-9 1.6317621137794484e-9
          1.445273943668376e-9 3.2050947353525574e-9 1.0404126733725062e-9 9.905504054826377e-10 1.3825538293826313e-9 1.3147904084061542e-9
          5.172993079585222e-10 8.447640568565137e-10 8.063994414512181e-10 8.751145677046241e-10 1.1604209281329936e-9 7.056306289359673e-10
          2.738997115855967e-9 2.589060696123392e-9 1.6512730099367695e-9 2.2436261857621794e-9 9.80490112617803e-10 1.2222003089517679e-9
          9.796191183136891e-10 2.2626711120013504e-9 7.330534194624791e-10 9.696438676099678e-10 3.82902771930059e-10 5.742464767939098e-10
          5.817863933883992e-10 7.657959824650847e-10 4.386181426863159e-10 1.8057723400755927e-9 1.1127870305339774e-9 1.3485702617695601e-9
          5.6436391911445525e-9 5.3116362190419555e-9 4.61295514884186e-9 1.0576492105902767e-8 4.927384701133317e-9 4.6407554945503e-9
          3.6154703487755215e-9 3.4022679517993563e-9 3.978723379079041e-9 2.8488497888994972e-9 9.86082962242437e-9 9.183307844761784e-9
          6.804917485050168e-9 7.664864880003909e-9 3.7089354190403e-9 2.675425403562957e-9 6.917861955021604e-9 3.1315038926063708e-9
          2.1535786514608315e-9 2.2365790397661974e-9 1.4988434807041058e-9 5.850890292282631e-9 4.102800814441491e-9 4.002193381031335e-9
          3.2813776647636926e-10 3.139906725795434e-10 5.324236924856239e-10 5.072068336698165e-10 1.9930830662316747e-10 3.4598779662547485e-10
          3.287147269843669e-10 2.7722247285434526e-10 4.4065550480861314e-10 2.839085706921984e-10 1.1785108107700549e-9 1.1136718799754981e-9
          7.482597465233094e-10 9.43583339484655e-10 1.3245363181310973e-10 1.2615919739211207e-10 2.2371282245566201e-10 2.1215193876549867e-10
          8.008145845724358e-11 1.426387769845695e-10 1.351953673388193e-10 1.1046907980572439e-10 1.8226750387424222e-10 1.1564565105493251e-10
          5.254945419112652e-10 4.943293306698385e-10 3.183588415930806e-10 4.1315173020006104e-10 2.3027051436490568e-10 3.5313072186892847e-10
          1.4697000473145683e-10 2.239248789360029e-10 1.8015269391067888e-10 2.6317544977279806e-10 1.825852574651031e-10 7.271692170176482e-10
          4.763695752983724e-10 5.181006944472658e-10 9.422618402021243e-11 1.4266360729315867e-10 6.009530711868663e-11 9.045557893585525e-11
          8.737897140009056e-11 1.2138326191316817e-10 7.737181345491465e-11 3.086396689570149e-10 1.9687638942484498e-10 2.4426645014619164e-10
          2.5733267977242053e-9 2.4121739158400843e-9 1.7916155203188448e-9 1.6744144045570108e-9 1.993827665522099e-9 1.3715057607649689e-9
          5.389237841090019e-9 5.028434341819737e-9 3.601452804283126e-9 4.083469068766046e-9 1.2097169529333453e-9 1.1283012793712057e-9
          7.879720975175948e-10 7.34220053488202e-10 9.187576737915004e-10 5.96145557336553e-10 2.6713978542791648e-9 2.4759451954685293e-9
          1.6286398802215545e-9 1.972923212296189e-9 1.475967121302949e-9 1.0009676313082286e-9 1.0025348499142106e-9 6.672044041710282e-10
          2.915471496720033e-9 2.028796505774088e-9 1.883778978833423e-9 6.636210923141076e-10 4.281471170779582e-10 4.3539679880345996e-10
          2.7830535109502724e-10 1.3687169864111458e-9 8.910674638491326e-10 8.538997118026025e-10 5.879006811139469e-10 7.370509451680828e-10
          6.117894640563871e-10 1.2259371251720109e-9 4.4458569477402735e-10 5.752453513033464e-10 2.3127937291962665e-10 3.2107543223813025e-10
          3.8216444387973534e-10 4.843716040601493e-10 2.701811008654363e-10 9.639765893452788e-10 5.634354293362194e-10 7.416265638284753e-10
          1.8799254407259727e-9 1.2824074947043872e-9 3.152109796100499e-9 1.5376583120141248e-9 9.840679666550058e-10 1.0258026580746273e-9
          6.210009558851892e-10 2.5986926380306555e-9 1.7057570234243632e-9 1.6291445062801186e-9 1.346334494715283e-10 1.8549387482513484e-10
          1.0797886153791119e-10 1.4227664261261928e-10 1.1490117282553728e-10 1.5157725907931324e-10 1.1974606049166525e-10 3.467360550152946e-10
          2.534646055339901e-10 2.529394043296357e-10 6.399927739188493e-10 4.148048294479076e-10 3.860035636143492e-10 2.7849896464846645e-10
          1.1413384849462788e-9 7.590760746316137e-10 6.5821477441603e-10 1.8251640390317967e-10 2.6430194364486204e-10 1.1418508794264066e-10
          1.670831724653638e-10 1.4051345125242347e-10 1.9442273253708515e-10 1.220267716822927e-10 4.951941601307582e-10 3.166647994720891e-10
          3.1417770221134364e-10 1.150103633347154e-8 7.849333585570122e-9 1.0003695641736055e-8 7.423784239551769e-9 6.713149219131951e-9
          4.781757351491247e-9 1.0405769162513349e-8 9.715814814531677e-9 7.73931183423745e-9 7.189174240586475e-9 7.843911522382014e-9
          5.7221247925155755e-9 5.4684648390204825e-9 5.059516937278575e-9 3.664054924915114e-9 3.379641030863016e-9 3.984380133021328e-9
          2.6416033795585947e-9 5.47108209562479e-9 3.906790655179251e-9 3.3965887440571525e-9 2.363817586051849e-9 2.6806010369292836e-9
          1.761545670622051e-9 1.5955202317091945e-9 1.0394941955595555e-9 5.038599517720363e-9 3.0590707462689486e-9 4.2109724034708415e-9
          2.8547801311148297e-9 2.508619679042934e-9 1.627368474741166e-9 1.958998628164101e-9 1.3292977281466604e-9 1.0798174189269935e-9
          7.134579865903038e-10 8.816599096553927e-10 5.690028851028408e-10 4.639168560241119e-10 2.9644783345509144e-10 4.939517145291618e-10
          4.6045904289324896e-10 3.7420082466100837e-10 1.1080531797459503e-9 1.024296249394167e-9 8.111281468703598e-10 2.685390702333162e-10
          1.7398022238327904e-10 5.586436176967952e-10 3.45643444092787e-10 2.3269687044762745e-9 2.142081507212507e-9 1.6673379593833273e-9
          1.1080401315282923e-9 6.525928148534459e-10 6.014939250799257e-10 2.949057409933006e-10 1.7567125675848528e-10 7.752775575655364e-10
          4.0046904541127435e-9 3.76048158316073e-10 2.664393614284373e-9 1.4514229849490288e-8 8.52418966450613e-9 3.855215368822966e-8
          6.154305862858798e-9 6.539811959736943e-8 6.457784699949508e-10 1.3974584783784926e-9 4.6520772243976985e-10 1.3363870934600328e-9
          2.5933874383655284e-9 2.6712045490177367e-8 2.593159500121467e-8 2.202134356389772e-7 1.6553863108478116e-7 2.074452744686603e-8
          2.7397047161838283e-8 6.776627283819651e-8 3.2051791573084747e-7 1.8933597153817217e-7 1.1476152715484436e-7 2.15753193684704e-7
          4.2331208446678e-8 9.861083535670237e-8 4.124358831418249e-9 6.496850314477131e-9 3.212035995848669e-10 3.320429102969298e-10
          5.808087898113704e-8 4.847496574463802e-8 1.1467235768404988e-7 3.195518220419446e-8 1.5737717614605034e-7 8.262898365383297e-8
          7.129174032871593e-8 1.4551879472141448e-7 2.8332034107529277e-8 6.061248735328936e-8 1.888934939157956e-8 1.688125549522789e-8
          1.5748063720442206e-8 1.747796336348877e-8 1.3348647974689153e-8 1.2542958518223085e-8 1.3159841314049508e-8 1.4678038785868671e-8
          1.0319433291469388e-8 2.131033570185229e-8 1.611997352134991e-8 1.8159450868640065e-8 1.748086139980448e-8 1.2493336930928968e-8
          1.0572376621359317e-8 7.857879147742459e-9 6.421957686317009e-9 7.541882499612131e-9 4.526277957652825e-9 3.739850595466797e-9
        </DataArray>
        <DataArray type="Float64" Name="gradient_matprop_error" format="ascii" RangeMin="0" RangeMax="0">
          0 0 0 0 0 0
          0 0 0 0 0 0
          0 0 0 0 0 0
          0 0 0 0 0 0
          0 0 0 0 0 0
          0 0 0 0 0 0
          0 0 0 0 0 0
          0 0 0 0 0 0
          0 0 0 0 0 0
          0 0 0 0 0 0
          0 0 0 0 0 0
          0 0 0 0 0 0
          0 0 0 0 0 0
          0 0 0 0 0 0
          0 0 0 0 0 0
          0 0 0 0 0 0
          0 0 0 0 0 0
          0 0 0 0 0 0
          0 0 0 0 0 0
          0 0 0 0 0 0
          0 0 0 0 0 0
          0 0 0 0 0 0
          0 0 0 0 0 0
          0 0 0 0 0 0
          0 0 0 0 0 0
          0 0 0 0 0 0
          0 0 0 0 0 0
          0 0 0 0 0 0
          0 0 0 0 0 0
          0 0 0 0 0 0
          0 0 0 0 0 0
          0 0 0 0 0 0
          0 0 0 0 0 0
          0 0 0 0 0 0
          0 0 0 0 0 0
          0 0 0 0 0 0
          0 0 0 0 0 0
          0 0 0 0 0 0
          0 0 0 0 0 0
          0 0 0 0 0 0
          0 0 0 0 0 0
          0 0 0 0 0 0
          0 0 0 0 0 0
          0 0 0 0 0 0
          0 0 0 0 0 0
          0 0 0 0 0 0
          0 0 0 0 0 0
          0 0 0 0 0 0
          0 0 0 0 0 0
          0 0 0 0 0 0
          0 0 0 0 0 0
          0 0 0 0 0 0
          0 0 0 0 0 0
          0 0 0 0 0 0
          0 0 0 0 0 0
          0 0 0 0 0 0
          0 0 0 0 0 0
          0 0 0 0 0 0
          0 0 0 0 0 0
          0 0 0 0 0 0
          0 0 0 0 0 0
          0 0 0 0 0 0
          0 0 0 0 0 0
          0 0 0 0 0 0
          0 0 0 0 0 0
          0 0 0 0 0 0
          0 0 0 0 0 0
          0 0 0 0 0 0
          0 0 0 0 0 0
          0 0 0 0 0 0
          0 0 0 0 0 0
          0 0 0 0 0 0
        </DataArray>
        <DataArray type="Float64" Name="initial_marker" format="ascii" RangeMin="0" RangeMax="2">
          0 0 2 0 0 1
          1 0 0 1 0 0
          0.5 0 0 0 0 2
          2 2 0 0 1 2
          2 2 0.5 1.5 1 1
          2 2 1 2 2 0.5
          2 2 2 2 1 0.75
          2 2 0.25 2 2 0
          1.75 1.5 2 2 2 2
          0.25 1 0 0.5 0 2
          2 0 0.25 0 0 0
          1.5 1.5 0 0 0 0
          0 0 0 0 0 0
          0 0 0 0 0 0
          0 0 0 0 0 0
          0 0 0 0 0 0
          0 0 0 0 0 0
          0 0 0 0 0 0
          0 0 0 0 0 0
          0 0 0 0 0 0
          0 0 0 2 2 2
          2 2 2 2 2 2
          2 2 2 2 2 2
          2 2 2 2 1 1.5
          1 2 1 1.5 1 1.5
          0 1 1 2 2 2
          2 2 2 2 2 2
          2 2 2 2 2 2
          2 2 2 2 2 2
          2 2 2 2 2 2
          2 2 2 2 2 2
          2 2 2 1.75 2 2
          2 2 2 2 2 2
          1 1.5 1.5 1 1.5 1.25
          2 2 2 2 1 1.5
          0.5 1.25 0 1 1 2
          2 2 0 1 0 1
          0 1 1 2 2 2
          2 2 2 2 2 2
          2 2 2 2 2 2
          2 2 2 2 2 2
          2 2 2 2 2 2
          2 2 2 2 2 2
          2 2 2 2 0 0.5
          0 1.5 0 0.5 0 0.5
          0 0 0 1.5 1.5 0.6666666666666666
          2 1.5 2 2 2 1.5
          1.5 2 2 2 0 0.5
          0 0.5 0 0 0 1.5
          1.3333333333333333 0.6666666666666666 2 1.75 1.25 1
          2 2 1.75 1 1.5 1
          1.5 0 1 1 2 2
          2 2 2 2 2 2
          2 2 2 2 2 2
          2 2 2 2 2 2
          2 2 2 2 2 2
          2 2 2 2 2 2
          2 2 2 2 2 2
          2 2 2 2 2 2
          2 2 2 2 2 2
          2 2 2 2 2 2
          2 2 0 0 0 0
          0 0 0 0 0 0
          0 0 0 0 0 0
          0 0 0 1 1 0
          0.25 0.5 2 2 2 2
          1.25 1.25 0 0 0 0
          2 2 2 2 2 2
          2 2 2 2 2 2
          2 2 2 2 2 2
          2 2 2 2 2 2
          2 2 2 2 2 2
        </DataArray>
        <DataArray type="Float64" Name="markers_norefine" format="ascii" RangeMin="0" RangeMax="0">
          0 0 0 0 0 0
          0 0 0 0 0 0
          0 0 0 0 0 0
          0 0 0 0 0 0
          0 0 0 0 0 0
          0 0 0 0 0 0
          0 0 0 0 0 0
          0 0 0 0 0 0
          0 0 0 0 0 0
          0 0 0 0 0 0
          0 0 0 0 0 0
          0 0 0 0 0 0
          0 0 0 0 0 0
          0 0 0 0 0 0
          0 0 0 0 0 0
          0 0 0 0 0 0
          0 0 0 0 0 0
          0 0 0 0 0 0
          0 0 0 0 0 0
          0 0 0 0 0 0
          0 0 0 0 0 0
          0 0 0 0 0 0
          0 0 0 0 0 0
          0 0 0 0 0 0
          0 0 0 0 0 0
          0 0 0 0 0 0
          0 0 0 0 0 0
          0 0 0 0 0 0
          0 0 0 0 0 0
          0 0 0 0 0 0
          0 0 0 0 0 0
          0 0 0 0 0 0
          0 0 0 0 0 0
          0 0 0 0 0 0
          0 0 0 0 0 0
          0 0 0 0 0 0
          0 0 0 0 0 0
          0 0 0 0 0 0
          0 0 0 0 0 0
          0 0 0 0 0 0
          0 0 0 0 0 0
          0 0 0 0 0 0
          0 0 0 0 0 0
          0 0 0 0 0 0
          0 0 0 0 0 0
          0 0 0 0 0 0
          0 0 0 0 0 0
          0 0 0 0 0 0
          0 0 0 0 0 0
          0 0 0 0 0 0
          0 0 0 0 0 0
          0 0 0 0 0 0
          0 0 0 0 0 0
          0 0 0 0 0 0
          0 0 0 0 0 0
          0 0 0 0 0 0
          0 0 0 0 0 0
          0 0 0 0 0 0
          0 0 0 0 0 0
          0 0 0 0 0 0
          0 0 0 0 0 0
          0 0 0 0 0 0
          0 0 0 0 0 0
          0 0 0 0 0 0
          0 0 0 0 0 0
          0 0 0 0 0 0
          0 0 0 0 0 0
          0 0 0 0 0 0
          0 0 0 0 0 0
          0 0 0 0 0 0
          0 0 0 0 0 0
          0 0 0 0 0 0
        </DataArray>
        <DataArray type="Float64" Name="markers_mustrefine" format="ascii" RangeMin="0" RangeMax="2">
          0 0 2 0 0 1
          1 0 0 1 0 0
          0.5 0 0 0 0 2
          2 2 0 0 1 2
          2 2 0.5 1.5 1 1
          2 2 1 2 2 0.5
          2 2 2 2 1 0.75
          2 2 0.25 2 2 0
          1.75 1.5 2 2 2 2
          0.25 1 0 0.5 0 2
          2 0 0.25 0 0 0
          1.5 1.5 0 0 0 0
          0 0 0 0 0 0
          0 0 0 0 0 0
          0 0 0 0 0 0
          0 0 0 0 0 0
          0 0 0 0 0 0
          0 0 0 0 0 0
          0 0 0 0 0 0
          0 0 0 0 0 0
          0 0 0 2 2 2
          2 2 2 2 2 2
          2 2 2 2 2 2
          2 2 2 2 1 1.5
          1 2 1 1.5 1 1.5
          0 1 1 2 2 2
          2 2 2 2 2 2
          2 2 2 2 2 2
          2 2 2 2 2 2
          2 2 2 2 2 2
          2 2 2 2 2 2
          2 2 2 1.75 2 2
          2 2 2 2 2 2
          1 1.5 1.5 1 1.5 1.25
          2 2 2 2 1 1.5
          0.5 1.25 0 1 1 2
          2 2 0 1 0 1
          0 1 1 2 2 2
          2 2 2 2 2 2
          2 2 2 2 2 2
          2 2 2 2 2 2
          2 2 2 2 2 2
          2 2 2 2 2 2
          2 2 2 2 0 0.5
          0 1.5 0 0.5 0 0.5
          0 0 0 1.5 1.5 0.6666666666666666
          2 1.5 2 2 2 1.5
          1.5 2 2 2 0 0.5
          0 0.5 0 0 0 1.5
          1.3333333333333333 0.6666666666666666 2 1.75 1.25 1
          2 2 1.75 1 1.5 1
          1.5 0 1 1 2 2
          2 2 2 2 2 2
          2 2 2 2 2 2
          2 2 2 2 2 2
          2 2 2 2 2 2
          2 2 2 2 2 2
          2 2 2 2 2 2
          2 2 2 2 2 2
          2 2 2 2 2 2
          2 2 2 2 2 2
          2 2 0 0 0 0
          0 0 0 0 0 0
          0 0 0 0 0 0
          0 0 0 1 1 0
          0.25 0.5 2 2 2 2
          1.25 1.25 0 0 0 0
          2 2 2 2 2 2
          2 2 2 2 2 2
          2 2 2 2 2 2
          2 2 2 2 2 2
          2 2 2 2 2 2
        </DataArray>
        <DataArray type="Float64" Name="gradient_marker" format="ascii" RangeMin="0" RangeMax="1">
          1 0.5 1 1 0.3333333333333333 0.25
          0.25 1 1 1 1 1
          1 1 1 1 1 1
          1 1 1 1 0 0
          0 0 0 0 0.5 0.5
          0.5 0.5 1 1 1 0.5
          0.5 1 1 0.5 1 1
          1 1 1 1 1 1
          1 1 1 1 1 1
          0.5 0.5 1 1 0.5 0.5
          1 1 1 1 1 1
          1 1 1 1 1 1
          1 1 1 1 1 1
          1 1 1 1 0 0
          0 0 0 0 0 0.5
          0.5 0.5 0.5 1 1 1
          0.5 0.5 1 1 1 1
          1 1 1 1 1 1
          1 0.5 0.5 1 1 0.5
          0.5 1 1 1 1 1
          1 1 1 1 1 1
          1 1 1 1 1 1
          1 1 1 1 1 1
          1 1 1 1 1 1
          1 1 1 1 1 1
          1 1 1 1 1 1
          1 1 1 1 1 1
          1 1 1 1 1 1
          1 1 1 1 1 1
          1 1 1 1 1 1
          1 1 1 1 1 1
          1 1 1 1 1 1
          1 1 1 1 1 1
          1 1 1 1 1 1
          1 1 1 1 1 1
          1 1 1 1 1 1
          1 1 1 1 1 1
          1 1 1 1 1 1
          1 1 1 1 1 1
          1 1 1 1 1 1
          1 1 1 1 1 1
          1 1 1 1 1 1
          1 1 1 1 1 1
          1 1 1 1 1 1
          1 1 1 1 1 1
          1 1 1 1 1 1
          1 1 1 1 1 1
          1 1 1 1 1 1
          1 1 1 1 1 1
          1 1 1 1 1 1
          1 1 1 1 1 1
          1 1 1 1 1 1
          1 1 1 1 1 1
          1 1 1 1 1 1
          1 1 1 1 1 1
          1 1 1 1 1 1
          1 1 1 1 1 1
          1 1 1 1 1 1
          1 1 1 1 1 1
          1 1 1 1 1 1
          1 1 1 1 1 1
          1 1 1 1 1 1
          1 1 1 1 1 0.5
          0.625 0.625 1 1 1 1
          0.8333333333333334 0 0 0.5 0.5 0
          0.25 0.25 1 0.75 0.375 0.75
          0.125 0.375 0.5 0.375 1 1
          0.75 0.625 0.5 0 0.625 0.75
          0.625 0.5 0.5 0.125 1 1
          1 1 1 1 1 1
          1 1 1 1 1 1
          1 1 1 1 1 1
        </DataArray>
        <DataArray type="Float64" Name="gradient_matprop_marker" format="ascii" RangeMin="0" RangeMax="0">
          0 0 0 0 0 0
          0 0 0 0 0 0
          0 0 0 0 0 0
          0 0 0 0 0 0
          0 0 0 0 0 0
          0 0 0 0 0 0
          0 0 0 0 0 0
          0 0 0 0 0 0
          0 0 0 0 0 0
          0 0 0 0 0 0
          0 0 0 0 0 0
          0 0 0 0 0 0
          0 0 0 0 0 0
          0 0 0 0 0 0
          0 0 0 0 0 0
          0 0 0 0 0 0
          0 0 0 0 0 0
          0 0 0 0 0 0
          0 0 0 0 0 0
          0 0 0 0 0 0
          0 0 0 0 0 0
          0 0 0 0 0 0
          0 0 0 0 0 0
          0 0 0 0 0 0
          0 0 0 0 0 0
          0 0 0 0 0 0
          0 0 0 0 0 0
          0 0 0 0 0 0
          0 0 0 0 0 0
          0 0 0 0 0 0
          0 0 0 0 0 0
          0 0 0 0 0 0
          0 0 0 0 0 0
          0 0 0 0 0 0
          0 0 0 0 0 0
          0 0 0 0 0 0
          0 0 0 0 0 0
          0 0 0 0 0 0
          0 0 0 0 0 0
          0 0 0 0 0 0
          0 0 0 0 0 0
          0 0 0 0 0 0
          0 0 0 0 0 0
          0 0 0 0 0 0
          0 0 0 0 0 0
          0 0 0 0 0 0
          0 0 0 0 0 0
          0 0 0 0 0 0
          0 0 0 0 0 0
          0 0 0 0 0 0
          0 0 0 0 0 0
          0 0 0 0 0 0
          0 0 0 0 0 0
          0 0 0 0 0 0
          0 0 0 0 0 0
          0 0 0 0 0 0
          0 0 0 0 0 0
          0 0 0 0 0 0
          0 0 0 0 0 0
          0 0 0 0 0 0
          0 0 0 0 0 0
          0 0 0 0 0 0
          0 0 0 0 0 0
          0 0 0 0 0 0
          0 0 0 0 0 0
          0 0 0 0 0 0
          0 0 0 0 0 0
          0 0 0 0 0 0
          0 0 0 0 0 0
          0 0 0 0 0 0
          0 0 0 0 0 0
          0 0 0 0 0 0
        </DataArray>
        <DataArray type="Float64" Name="combo" format="ascii" RangeMin="0" RangeMax="1">
          1 0.5 1 1 0.3333333333333333 0.25
          0.25 1 1 1 1 1
          1 1 1 1 1 1
          1 1 1 1 0 0
          0 0 0 0 0.5 0.5
          0.5 0.5 1 1 1 0.5
          0.5 1 1 0.5 1 1
          1 1 1 1 1 1
          1 1 1 1 1 1
          0.5 0.5 1 1 0.5 0.5
          1 1 1 1 1 1
          1 1 1 1 1 1
          1 1 1 1 1 1
          1 1 1 1 0 0
          0 0 0 0 0 0.5
          0.5 0.5 0.5 1 1 1
          0.5 0.5 1 1 1 1
          1 1 1 1 1 1
          1 0.5 0.5 1 1 0.5
          0.5 1 1 1 1 1
          1 1 1 1 1 1
          1 1 1 1 1 1
          1 1 1 1 1 1
          1 1 1 1 1 1
          1 1 1 1 1 1
          1 1 1 1 1 1
          1 1 1 1 1 1
          1 1 1 1 1 1
          1 1 1 1 1 1
          1 1 1 1 1 1
          1 1 1 1 1 1
          1 1 1 1 1 1
          1 1 1 1 1 1
          1 1 1 1 1 1
          1 1 1 1 1 1
          1 1 1 1 1 1
          1 1 1 1 1 1
          1 1 1 1 1 1
          1 1 1 1 1 1
          1 1 1 1 1 1
          1 1 1 1 1 1
          1 1 1 1 1 1
          1 1 1 1 1 1
          1 1 1 1 1 1
          1 1 1 1 1 1
          1 1 1 1 1 1
          1 1 1 1 1 1
          1 1 1 1 1 1
          1 1 1 1 1 1
          1 1 1 1 1 1
          1 1 1 1 1 1
          1 1 1 1 1 1
          1 1 1 1 1 1
          1 1 1 1 1 1
          1 1 1 1 1 1
          1 1 1 1 1 1
          1 1 1 1 1 1
          1 1 1 1 1 1
          1 1 1 1 1 1
          1 1 1 1 1 1
          1 1 1 1 1 1
          1 1 1 1 1 1
          1 1 1 1 1 0.5
          0.625 0.625 1 1 1 1
          0.8333333333333334 0 0 0.5 0.5 0
          0.25 0.25 1 0.75 0.375 0.75
          0.125 0.375 0.5 0.375 1 1
          0.75 0.625 0.5 0 0.625 0.75
          0.625 0.5 0.5 0.125 1 1
          1 1 1 1 1 1
          1 1 1 1 1 1
          1 1 1 1 1 1
        </DataArray>
        <DataArray type="Float64" Name="dHdT" format="ascii" RangeMin="25.811576303631544" RangeMax="33.987293883628936">
          25.814344036505002 25.849750956906792 26.12909779173271 25.811961480894922 25.85641575007101 26.46973052123395
          26.26753550229624 25.820533913420082 25.819718464689526 25.88974878278043 25.860475211302557 25.81407174797436
          25.824757901015683 25.82038841086443 25.81977804288391 25.83638171958529 25.816283595529033 27.299085391937727
          26.34203943862377 25.908636260711646 25.819273163185635 25.820982339551037 26.11842020739162 27.0316589286021
          26.846563255778612 26.49019530537767 25.95663633851869 26.1842286083638 26.05553446902541 26.028744858373532
          26.752846119600978 26.602366580200016 25.880238998929716 26.15811953768423 26.092168083011632 25.97205837625962
          26.31984644228894 25.973481755903762 26.919331785849845 27.206901073743087 25.84413108727368 25.839800017547063
          25.960542236307774 25.929369093839583 25.823015701838422 25.872465761087057 25.859365897951463 25.83115619441374
          25.87392521201915 25.836948988519527 26.544883682609914 26.343941475111954 26.03883517728395 26.0467665920567
          25.9127327607725 26.079835882592384 25.846320650468773 25.889695909936066 25.878284605542195 26.41176478077218
          26.01354644534782 25.82572543946097 25.84012544468363 25.820115543425572 25.825033335439777 25.823575279075754
          25.89129188132902 25.844271440493532 25.814085532785516 25.817984447375174 25.81684139495675 25.815698342538326
          25.813622142194312 25.81330990809577 25.815804008436555 25.81516222072497 25.81228226243325 25.81294001428047
          25.812883485582812 25.812997673997227 25.814520433013385 25.81282695688515 25.84079536443805 25.863845142533275
          25.866876086644673 25.86722075069529 25.837791354268475 25.85777228798802 25.85101010534153 25.832222026274888
          25.833293999164354 25.856893128340168 25.857312608898507 25.823037858993775 25.840362471668737 25.838473486762485
          25.83363708460593 25.854505474661266 25.83370551611988 25.818471212318915 25.818216238128436 25.825493845977284