<?xml version="1.0"?>
<VTKFile type="UnstructuredGrid" version="0.1" byte_order="LittleEndian" header_type="UInt32" compressor="vtkZLibDataCompressor">
  <UnstructuredGrid>
    <Piece NumberOfPoints="413" NumberOfCells="235">
      <PointData>
        <DataArray type="Int32" Name="libmesh_node_id" format="ascii" RangeMin="254" RangeMax="3769">
          371 373 787 788 791 792
          793 794 796 1030 1031 1032
          1033 1034 1035 1036 1542 1543
          1544 1545 1547 1548 1549 1550
          1558 1559 1561 1567 1576 1577
          1578 1579 1580 1581 1582 1584
          1585 1586 1587 1589 1590 1593
          1595 1596 1598 1600 1602 1604
          1606 1607 1608 1609 1610 1611
          1612 1807 1808 1809 1810 1811
          1813 1814 1815 1816 1817 1818
          1819 1820 1821 1822 1823 1824
          1826 1827 1828 1830 1831 1832
          1833 1834 1835 1836 1837 1838
          3299 3307 3308 3309 3310 3316
          3322 3323 3324 3327 3328 3330
          3333 3335 3336 3337 3338 3339
          3340 3341 3342 3343 3344 3346
          3350 3352 3353 3354 3355 3356
          3357 3358 3396 3397 3398 3399
          3400 3401 3402 3403 3404 3405
          3406 3407 3410 3412 3413 3415
          3416 3417 3418 3419 3420 3421
          3422 3423 3425 3427 3429 3475
          3476 3477 3489 3490 3491 3516
          3517 3518 3523 3525 3533 3534
          3535 3538 3539 3541 3544 3546
          3547 3548 3549 3550 3551 3552
          3553 3554 3555 3557 3561 3563
          3564 3565 3566 3567 3568 3569
          3572 3573 3575 3578 3580 3581
          3582 3583 3584 3585 3586 3587
          3588 3589 3591 3595 3597 3598
          3599 3600 3601 3602 3603 3604
          3605 3606 3607 3608 3609 3610
          3611 3612 3613 3614 3615 3618
          3620 3621 3623 3624 3625 3626
          3627 3628 3629 3630 3631 3633
          3635 3637 3638 3639 3640 3641
          3642 3643 3644 3645 3646 3647
          3648 3649 3652 3654 3655 3657
          3658 3659 3660 3661 3662 3663
          3664 3665 3667 3669 3671 3679
          3680 3681 3682 3683 3684 3685
          3693 3694 3695 3696 3697 3698
          3699 3707 3708 3709 3710 3711
          3712 3713 3721 3722 3723 3724
          3725 3726 3727 3728 3729 3730
          3731 3732 3733 3734 3735 3737
          3739 3740 3741 3742 3743 3744
          3745 3746 3747 3748 3749 3750
          3751 3752 3753 3754 3755 3756
          3757 3758 3759 3760 3761 3762
          3763 3764 3765 3766 3767 3768
          3769 355 368 862 503 254
          868 508 765 1027 1029 766
          769 1028 771 1735 1805 1736
          1806 1739 1496 1812 1568 1601
          1825 1497 1500 1605 1829 1502
          3297 3298 3325 3326 3300 3329
          3331 3332 3334 3315 3345 1546
          3317 3348 3347 3349 1551 3351
          3536 3537 3540 3542 3543 3545
          3556 3559 3558 3560 1583 3562
          3570 3571 3574 3576 3577 3579
          3590 3593 3592 3594 1588 3596
          3469 3673 1566 3675 3677 1599
          3483 3687 3689 3691 3701 3703
          3705 1603 3715 3717 3719
        </DataArray>
        <DataArray type="Float64" Name="bounds" format="ascii" RangeMin="0" RangeMax="0">
          0 0 0 0 0 0
          0 0 0 0 0 0
          0 0 0 0 0 0
          0 0 0 0 0 0
          0 0 0 0 0 0
          0 0 0 0 0 0
          0 0 0 0 0 0
          0 0 0 0 0 0
          0 0 0 0 0 0
          0 0 0 0 0 0
          0 0 0 0 0 0
          0 0 0 0 0 0
          0 0 0 0 0 0
          0 0 0 0 0 0
          0 0 0 0 0 0
          0 0 0 0 0 0
          0 0 0 0 0 0
          0 0 0 0 0 0
          0 0 0 0 0 0
          0 0 0 0 0 0
          0 0 0 0 0 0
          0 0 0 0 0 0
          0 0 0 0 0 0
          0 0 0 0 0 0
          0 0 0 0 0 0
          0 0 0 0 0 0
          0 0 0 0 0 0
          0 0 0 0 0 0
          0 0 0 0 0 0
          0 0 0 0 0 0
          0 0 0 0 0 0
          0 0 0 0 0 0
          0 0 0 0 0 0
          0 0 0 0 0 0
          0 0 0 0 0 0
          0 0 0 0 0 0
          0 0 0 0 0 0
          0 0 0 0 0 0
          0 0 0 0 0 0
          0 0 0 0 0 0
          0 0 0 0 0 0
          0 0 0 0 0 0
          0 0 0 0 0 0
          0 0 0 0 0 0
          0 0 0 0 0 0
          0 0 0 0 0 0
          0 0 0 0 0 0
          0 0 0 0 0 0
          0 0 0 0 0 0
          0 0 0 0 0 0
          0 0 0 0 0 0
          0 0 0 0 0 0
          0 0 0 0 0 0
          0 0 0 0 0 0
          0 0 0 0 0 0
          0 0 0 0 0 0
          0 0 0 0 0 0
          0 0 0 0 0 0
          0 0 0 0 0 0
          0 0 0 0 0 0
          0 0 0 0 0 0
          0 0 0 0 0 0
          0 0 0 0 0 0
          0 0 0 0 0 0
          0 0 0 0 0 0
          0 0 0 0 0 0
          0 0 0 0 0 0
          0 0 0 0 0 0
          0 0 0 0 0
        </DataArray>
        <DataArray type="Float64" Name="gradient_error" format="ascii" RangeMin="1.2079590512877339e-11" RangeMax="2.03374885580839e-8">
          6.517108005359679e-11 2.2077826768136573e-10 2.3470031483190516e-9 5.586530684105075e-10 9.039260773176605e-11 4.313171727548251e-11
          5.052302046676159e-9 1.1878788937799762e-9 1.3852430356757953e-10 1.5318718823618338e-10 4.556135401000076e-11 2.543394772996807e-10
          6.08766787104404e-11 1.842750898213012e-10 5.326868505616517e-11 3.0416311288539433e-10 2.7072864057594607e-9 1.9134530421639758e-9
          8.48316654555906e-10 5.996271517918757e-10 2.265045796822125e-10 7.2356076181925175e-9 5.227983387299461e-9 1.6491694672377556e-9
          5.966078682244789e-10 4.194127112636427e-10 1.512233078733797e-10 1.3107726410068435e-10 5.44251736713278e-11 3.8809623053029646e-11
          4.872004362076704e-11 1.2161624037233046e-8 9.373931286056031e-9 4.209293637461298e-9 3.0391495487871304e-9 9.813908735177192e-10
          1.4063053525999427e-8 1.1292322635345714e-8 3.717070609429118e-9 1.0873857414713834e-9 7.678362955979817e-10 2.602427296705507e-10
          1.3221758642011697e-9 9.402700455662008e-10 3.1307757268178365e-10 2.0844797400012335e-10 1.2436166405430803e-10 2.4390323291991336e-10
          8.29978184151811e-11 4.835959370000423e-11 6.749995361954408e-11 6.012849797822274e-11 9.569846455555524e-11 5.4928134141173274e-11
          7.526753367454168e-11 4.9564161385895575e-11 6.475314527539294e-11 7.805560522309811e-11 8.759353956813643e-11 4.118817576160958e-11
          9.743388714912771e-11 1.0110671941543872e-10 1.8940509192910747e-11 2.4321321544790367e-11 1.3135241552399002e-11 1.4401628993924481e-11
          1.5010311996181635e-11 1.7596115632008235e-11 1.2079590512877339e-11 3.582615804510806e-11 1.8391667030346064e-11 2.305079285430387e-11
          1.2684482702215378e-10 1.084901324504784e-10 6.097084239157445e-11 1.3876400891094245e-10 1.1189829998325407e-10 4.61244716973891e-11
          2.3005530254422085e-11 2.794877465692119e-11 1.8746504191946413e-11 5.029876120123206e-11 2.4895742883602e-11 2.997788287306948e-11
          2.4867111770388405e-9 1.5560802891976132e-9 1.427465827218637e-9 7.781890071221395e-10 1.0972569427769793e-9 1.2371065616229537e-9
          7.118546295675073e-10 3.922227089738105e-10 4.0570261531632516e-10 4.694894763935014e-9 4.326923870762168e-9 3.3299129771679e-9
          6.722317643077782e-9 2.7228909813953777e-9 2.50087802902616e-9 1.4874834624649602e-9 1.363793414725955e-9 1.9139073916013962e-9
          1.042503140483356e-9 4.262279061637363e-9 3.934898041620962e-9 2.1578926531586416e-9 3.025007009928287e-9 2.1150800290684234e-9
          3.2996911535291927e-9 1.2151121614646635e-9 6.656204099992825e-10 6.666855410110795e-10 3.699354886568776e-10 1.8982276934475397e-9
          1.0366842476408276e-9 1.0114220177294154e-9 7.694333131877086e-10 7.053112574582462e-10 3.7896969026649097e-10 3.478183029026075e-10
          5.407248674142815e-10 2.684065086522486e-10 1.215876472696124e-9 1.1155954872255365e-9 5.472344635999085e-10 8.519215872737725e-10
          1.7872843345073266e-10 1.6451250660932103e-10 1.2820844895650368e-10 2.791638200841026e-10 2.563549447588941e-10 1.9783260465205976e-10
          3.490589602237819e-10 1.7601072266516717e-10 1.974891096499141e-10 1.017407600334582e-10 5.400284056605723e-10 2.696317830969371e-10
          2.961552327703078e-10 8.58679858539647e-11 5.077096495563753e-11 1.2973448753013348e-10 7.468154328456022e-11 4.920177260351272e-10
          2.7626737744368334e-10 2.30127490019409e-10 1.0470772850439109e-10 6.053326583430149e-11 6.431028222445557e-11 1.5007363098703667e-10
          7.844436462274104e-11 7.24062208761695e-11 3.9197160774416616e-11 2.6381070169545867e-11 3.3666004518242424e-11 2.3768361988686082e-11
          2.1884502246152013e-11 9.909162036463308e-9 9.31479369762413e-9 7.376437777041257e-9 1.1588359367450815e-8 5.951940490464773e-9
          5.540344345619604e-9 3.3169955190038867e-9 3.0664507331912033e-9 4.308114993850595e-9 2.3576291044672964e-9 7.455247062659794e-9
          7.005834371793033e-9 3.9171435996268546e-9 5.526397829522003e-9 4.66707945479146e-9 5.972221469480742e-9 2.6942548789285837e-9
          1.4704613425571272e-9 1.4066698853934115e-9 7.746311737632975e-10 3.462196975132386e-9 1.890986880691811e-9 1.7850372773467627e-9
          1.3587896096339561e-8 1.309779414227588e-8 1.078481668756392e-8 1.3618407408983505e-8 8.469149019036595e-9 8.020639481280337e-9
          4.830845420517112e-9 4.5202879337603875e-9 6.402971783883677e-9 3.5352738144902368e-9 8.822987493831099e-9 8.381093933521212e-9
          4.737662594047582e-9 6.7219719680604074e-9 6.918375171330925e-9 7.264546987743999e-9 4.02388226340872e-9 2.200030251718966e-9
          2.06107816743395e-9 1.1323547848779611e-9 4.230396133036562e-9 2.3139889487949747e-9 2.1625373737955434e-9 1.7280777159739162e-9
          1.5907461529989379e-9 8.482037672920617e-10 7.792312270060845e-10 1.2168582336485051e-9 5.963013261516935e-10 2.209234874811383e-9
          2.0425942530566493e-9 1.0016393540786192e-9 1.5702285225945627e-9 3.952788758111989e-10 3.631040634881328e-10 2.7922216517953006e-10
          5.062373232793614e-10 4.656649079376618e-10 3.5788529062155023e-10 7.628555805904389e-10 3.782427469431899e-10 4.0852372905129014e-10
          2.0713789927693338e-10 9.789762831685909e-10 4.832789951169924e-10 5.157887220128945e-10 1.8023751997853415e-10 1.0140523955166491e-10
          2.287846759025142e-10 1.2657623905719752e-10 2.551263315547004e-9 2.3676993326169043e-9 1.2595427563005276e-9 1.1630526642291277e-9
          1.8291224140032322e-9 8.938319269337375e-10 2.6746896705895738e-9 2.485932713578539e-9 1.2220874523417623e-9 1.9243625665757244e-9
          5.86669499158114e-10 5.404283423243646e-10 4.156473017177681e-10 6.160737983834289e-10 5.678568131192727e-10 4.369459965560428e-10
          1.1380273534720193e-9 5.605182472782042e-10 5.94011622304501e-10 2.988862804114314e-10 1.1967389345872518e-9 5.890239852307528e-10
          6.227710687133389e-10 2.6447999586859535e-10 1.4491780497593196e-10 2.7762752056690536e-10 1.5161789760765095e-10 6.647424490689288e-10
          3.720507542758352e-10 3.021191612475559e-10 1.7160173529892773e-10 8.264750520961554e-10 4.6150428288410763e-10 3.677945447447026e-10
          1.339188834843546e-10 7.715750364884312e-11 8.077254275504561e-11 4.7521121283087975e-11 1.6003546813900958e-10 9.200271006078991e-11
          9.537736843443878e-11 9.42863558271538e-10 5.258127524930728e-10 4.142654365780443e-10 2.344830343384018e-10 9.853656161964825e-10
          5.492851208934203e-10 4.310922858856469e-10 1.7825590433932373e-10 1.0232528300756013e-10 1.055026197719025e-10 6.184375402966206e-11
          1.8478208922505684e-10 1.0602092376635118e-10 1.0908479464433176e-10 2.0120016496406433e-10 1.0464823377596919e-10 9.445406389993656e-11
          5.933359433324576e-11 2.487428019679243e-10 1.2883426784683832e-10 1.143794846733587e-10 5.2080143559346834e-11 3.43097687784387e-11
          6.379203272304152e-11 3.0803468406557945e-11 4.132285048957813e-11 4.282058767780495e-11 3.0244550065608354e-11 2.7495203289112412e-11
          2.081271173382271e-11 5.088917013040433e-11 3.5792923406500904e-11 3.2376683274121955e-11 2.828660690538881e-10 1.461773993166515e-10
          1.2845225380538819e-10 8.04584404068455e-11 2.952983168411194e-10 1.5248104598293606e-10 1.3353260429809897e-10 7.217994323986811e-11
          3.4687527957265646e-11 4.637685032014196e-11 2.2501945994938868e-11 7.523173418133302e-11 3.6122309217678364e-11 4.823054902420549e-11
          5.649213496514615e-11 3.965477248243844e-11 3.573388444266897e-11 2.6969125058543188e-11 5.851088612995581e-11 4.1063307383454166e-11
          3.69395525098345e-11 9.194104786934687e-10 1.8734422407752663e-10 1.8167960767713325e-10 6.982848933643164e-10 1.4292174161047472e-9
          2.1293651522956328e-10 8.307785068556166e-10 4.5290335481897805e-10 1.5390830172440141e-10 1.5579812088405194e-10 6.969797981891202e-10
          1.1511052015432937e-9 5.21026578830806e-11 8.417020936446041e-10 2.6699097507547855e-10 1.2129234142116377e-10 3.8481817081596367e-10
          1.5726547129800709e-10 1.9873246782230656e-10 3.9012476820984647e-10 2.28732175667746e-10 2.322822714432575e-10 3.180880355327229e-10
          2.9145028404408557e-10 3.368152679735719e-10 2.8338067127574266e-10 3.5542496174458013e-10 3.1867481792752954e-10 3.6763663821964356e-10
          4.4505133455490495e-9 4.098719455378236e-9 7.590255179551049e-9 7.0313811479583984e-9 3.168960679204615e-9 5.467008151309694e-9
          1.1424949968088185e-8 1.070776792099016e-8 8.473507228906537e-9 2.0528162315536064e-9 3.4977676848343975e-9 6.993903125735656e-10
          1.1578948873910383e-9 1.1529827747093227e-9 1.9087003688314966e-9 5.421958028831159e-9 1.752197805592578e-9 2.895563347139747e-9
          1.5178388099494455e-8 1.446982441316292e-8 1.1772059350757617e-8 1.8073690589102002e-8 1.756110486359067e-8 1.473437907258408e-8
          7.60829343928228e-9 2.437686100627789e-9 4.0163415953961045e-9 9.660964807887951e-9 3.0915845375871424e-9 5.0772981547602355e-9
          1.978529743746714e-8 1.951681414357863e-8 1.6769330536171712e-8 2.03374885580839e-8 2.017736257993859e-8 1.7491162937604095e-8
          1.1127075118314925e-8 3.5669412561938094e-9 5.843997401512523e-9 1.1658648167904617e-8 3.741262648213036e-9 6.124254120285389e-9
          8.44552309671517e-10 1.1429256471366742e-9 3.913458982824046e-10 5.14669162853118e-10 1.4224088225768587e-9 6.274311423119168e-10
          1.76873249475442e-10 2.2686311454591357e-10 1.3657571068872224e-10 2.716521427770723e-10 1.6235006675507032e-9 7.072566472155157e-10
          1.6969238359031412e-9 7.361661189200038e-10 3.02916923166185e-10 1.7924853036133539e-10 3.14099226656501e-10
        </DataArray>
        <DataArray type="Float64" Name="gradient_matprop_error" format="ascii" RangeMin="0" RangeMax="0">
          0 0 0 0 0 0
          0 0 0 0 0 0
          0 0 0 0 0 0
          0 0 0 0 0 0
          0 0 0 0 0 0
          0 0 0 0 0 0
          0 0 0 0 0 0
          0 0 0 0 0 0
          0 0 0 0 0 0
          0 0 0 0 0 0
          0 0 0 0 0 0
          0 0 0 0 0 0
          0 0 0 0 0 0
          0 0 0 0 0 0
          0 0 0 0 0 0
          0 0 0 0 0 0
          0 0 0 0 0 0
          0 0 0 0 0 0
          0 0 0 0 0 0
          0 0 0 0 0 0
          0 0 0 0 0 0
          0 0 0 0 0 0
          0 0 0 0 0 0
          0 0 0 0 0 0
          0 0 0 0 0 0
          0 0 0 0 0 0
          0 0 0 0 0 0
          0 0 0 0 0 0
          0 0 0 0 0 0
          0 0 0 0 0 0
          0 0 0 0 0 0
          0 0 0 0 0 0
          0 0 0 0 0 0
          0 0 0 0 0 0
          0 0 0 0 0 0
          0 0 0 0 0 0
          0 0 0 0 0 0
          0 0 0 0 0 0
          0 0 0 0 0 0
          0 0 0 0 0 0
          0 0 0 0 0 0
          0 0 0 0 0 0
          0 0 0 0 0 0
          0 0 0 0 0 0
          0 0 0 0 0 0
          0 0 0 0 0 0
          0 0 0 0 0 0
          0 0 0 0 0 0
          0 0 0 0 0 0
          0 0 0 0 0 0
          0 0 0 0 0 0
          0 0 0 0 0 0
          0 0 0 0 0 0
          0 0 0 0 0 0
          0 0 0 0 0 0
          0 0 0 0 0 0
          0 0 0 0 0 0
          0 0 0 0 0 0
          0 0 0 0 0 0
          0 0 0 0 0 0
          0 0 0 0 0 0
          0 0 0 0 0 0
          0 0 0 0 0 0
          0 0 0 0 0 0
          0 0 0 0 0 0
          0 0 0 0 0 0
          0 0 0 0 0 0
          0 0 0 0 0 0
          0 0 0 0 0
        </DataArray>
        <DataArray type="Float64" Name="initial_marker" format="ascii" RangeMin="0" RangeMax="2">
          0 0 2 2 0 0
          2 2 0.5 0 0 0
          0 0 0 0 2 2
          2 2 2 2 2 2
          2 2 2 2 1.25 0
          0 2 2 2 2 2
          2 2 2 2 2 2
          2 2 2 2 0.5 2
          1.5 0.5 0 0 1.5 0.5
          0 0 0 0 0 0
          0 0 0 0 0 0
          0 0 0 0 0 0
          0 0 0 0 0 0
          0 0 0 0 0 0
          2 2 2 2 2 2
          2 2 2 2 2 2
          2 2 2 2 2 2
          2 2 2 2 2 2
          2 2 2 2 2 2
          2 2 2 2 2 2
          2 2 2 2 2 2
          2 2 2 2 2 2
          2 2 2 2 2 2
          2 2 2 2 2 2
          2 2 1.25 1 0.5 2
          2 1.75 1.5 1 0.75 0.5
          0 2 2 2 2 2
          2 2 2 2 2 2
          2 2 2 2 2 2
          2 2 2 2 2 2
          2 2 2 2 2 2
          2 2 2 2 2 2
          2 2 2 2 2 2
          2 2 2 2 2 2
          2 2 2 2 2 2
          2 2 2 2 2 2
          2 2 2 2 2 2
          2 2 2 2 2 2
          2 2 2 2 2 2
          2 2 2 2 2 2
          2 2 2 2 2 2
          2 2 2 2 2 2
          2 2 2 2 2 2
          2 2 2 2 2 2
          1.75 1.25 1.5 0.5 2 1.5
          2 2 2 2 2 2
          2 2 2 1.5 2 1
          2 1.5 2 2 2 2
          2 2 2 2 1.75 1.5
          2 1.5 2 1 1 0
          0 1 1 0 2 2
          2 2 2 2 2 2
          1.5 2 1 2 1.5 2
          1 1 0 0 1 1
          0 0 0 0 0 0
          0 0 0 0 0 0
          0 0 0 0 0 0
          0 0 0 0 0.75 1
          0 0 0 1 0 0
          2 2 2 2 2 2
          2 2 2 2 2 2
          2 2 2 2 2 2
          2 2 2 2 2 2
          2 2 2 2 2 2
          2 2 2 2 2 2
          2 2 2 2 2 2
          2 2 2 2 2 2
          1.75 2 2 2 2 2
          2 2 2 2 2
        </DataArray>
        <DataArray type="Float64" Name="markers_norefine" format="ascii" RangeMin="0" RangeMax="0">
          0 0 0 0 0 0
          0 0 0 0 0 0
          0 0 0 0 0 0
          0 0 0 0 0 0
          0 0 0 0 0 0
          0 0 0 0 0 0
          0 0 0 0 0 0
          0 0 0 0 0 0
          0 0 0 0 0 0
          0 0 0 0 0 0
          0 0 0 0 0 0
          0 0 0 0 0 0
          0 0 0 0 0 0
          0 0 0 0 0 0
          0 0 0 0 0 0
          0 0 0 0 0 0
          0 0 0 0 0 0
          0 0 0 0 0 0
          0 0 0 0 0 0
          0 0 0 0 0 0
          0 0 0 0 0 0
          0 0 0 0 0 0
          0 0 0 0 0 0
          0 0 0 0 0 0
          0 0 0 0 0 0
          0 0 0 0 0 0
          0 0 0 0 0 0
          0 0 0 0 0 0
          0 0 0 0 0 0
          0 0 0 0 0 0
          0 0 0 0 0 0
          0 0 0 0 0 0
          0 0 0 0 0 0
          0 0 0 0 0 0
          0 0 0 0 0 0
          0 0 0 0 0 0
          0 0 0 0 0 0
          0 0 0 0 0 0
          0 0 0 0 0 0
          0 0 0 0 0 0
          0 0 0 0 0 0
          0 0 0 0 0 0
          0 0 0 0 0 0
          0 0 0 0 0 0
          0 0 0 0 0 0
          0 0 0 0 0 0
          0 0 0 0 0 0
          0 0 0 0 0 0
          0 0 0 0 0 0
          0 0 0 0 0 0
          0 0 0 0 0 0
          0 0 0 0 0 0
          0 0 0 0 0 0
          0 0 0 0 0 0
          0 0 0 0 0 0
          0 0 0 0 0 0
          0 0 0 0 0 0
          0 0 0 0 0 0
          0 0 0 0 0 0
          0 0 0 0 0 0
          0 0 0 0 0 0
          0 0 0 0 0 0
          0 0 0 0 0 0
          0 0 0 0 0 0
          0 0 0 0 0 0
          0 0 0 0 0 0
          0 0 0 0 0 0
          0 0 0 0 0 0
          0 0 0 0 0
        </DataArray>
        <DataArray type="Float64" Name="markers_mustrefine" format="ascii" RangeMin="0" RangeMax="2">
          0 0 2 2 0 0
          2 2 0.5 0 0 0
          0 0 0 0 2 2
          2 2 2 2 2 2
          2 2 2 2 1.25 0
          0 2 2 2 2 2
          2 2 2 2 2 2
          2 2 2 2 0.5 2
          1.5 0.5 0 0 1.5 0.5
          0 0 0 0 0 0
          0 0 0 0 0 0
          0 0 0 0 0 0
          0 0 0 0 0 0
          0 0 0 0 0 0
          2 2 2 2 2 2
          2 2 2 2 2 2
          2 2 2 2 2 2
          2 2 2 2 2 2
          2 2 2 2 2 2
          2 2 2 2 2 2
          2 2 2 2 2 2
          2 2 2 2 2 2
          2 2 2 2 2 2
          2 2 2 2 2 2
          2 2 1.25 1 0.5 2
          2 1.75 1.5 1 0.75 0.5
          0 2 2 2 2 2
          2 2 2 2 2 2
          2 2 2 2 2 2
          2 2 2 2 2 2
          2 2 2 2 2 2
          2 2 2 2 2 2
          2 2 2 2 2 2
          2 2 2 2 2 2
          2 2 2 2 2 2
          2 2 2 2 2 2
          2 2 2 2 2 2
          2 2 2 2 2 2
          2 2 2 2 2 2
          2 2 2 2 2 2
          2 2 2 2 2 2
          2 2 2 2 2 2
          2 2 2 2 2 2
          2 2 2 2 2 2
          1.75 1.25 1.5 0.5 2 1.5
          2 2 2 2 2 2
          2 2 2 1.5 2 1
          2 1.5 2 2 2 2
          2 2 2 2 1.75 1.5
          2 1.5 2 1 1 0
          0 1 1 0 2 2
          2 2 2 2 2 2
          1.5 2 1 2 1.5 2
          1 1 0 0 1 1
          0 0 0 0 0 0
          0 0 0 0 0 0
          0 0 0 0 0 0
          0 0 0 0 0.75 1
          0 0 0 1 0 0
          2 2 2 2 2 2
          2 2 2 2 2 2
          2 2 2 2 2 2
          2 2 2 2 2 2
          2 2 2 2 2 2
          2 2 2 2 2 2
          2 2 2 2 2 2
          2 2 2 2 2 2
          1.75 2 2 2 2 2
          2 2 2 2 2
        </DataArray>
        <DataArray type="Float64" Name="gradient_marker" format="ascii" RangeMin="1" RangeMax="1">
          1 1 1 1 1 1
          1 1 1 1 1 1
          1 1 1 1 1 1
          1 1 1 1 1 1
          1 1 1 1 1 1
          1 1 1 1 1 1
          1 1 1 1 1 1
          1 1 1 1 1 1
          1 1 1 1 1 1
          1 1 1 1 1 1
          1 1 1 1 1 1
          1 1 1 1 1 1
          1 1 1 1 1 1
          1 1 1 1 1 1
          1 1 1 1 1 1
          1 1 1 1 1 1
          1 1 1 1 1 1
          1 1 1 1 1 1
          1 1 1 1 1 1
          1 1 1 1 1 1
          1 1 1 1 1 1
          1 1 1 1 1 1
          1 1 1 1 1 1
          1 1 1 1 1 1
          1 1 1 1 1 1
          1 1 1 1 1 1
          1 1 1 1 1 1
          1 1 1 1 1 1
          1 1 1 1 1 1
          1 1 1 1 1 1
          1 1 1 1 1 1
          1 1 1 1 1 1
          1 1 1 1 1 1
          1 1 1 1 1 1
          1 1 1 1 1 1
          1 1 1 1 1 1
          1 1 1 1 1 1
          1 1 1 1 1 1
          1 1 1 1 1 1
          1 1 1 1 1 1
          1 1 1 1 1 1
          1 1 1 1 1 1
          1 1 1 1 1 1
          1 1 1 1 1 1
          1 1 1 1 1 1
          1 1 1 1 1 1
          1 1 1 1 1 1
          1 1 1 1 1 1
          1 1 1 1 1 1
          1 1 1 1 1 1
          1 1 1 1 1 1
          1 1 1 1 1 1
          1 1 1 1 1 1
          1 1 1 1 1 1
          1 1 1 1 1 1
          1 1 1 1 1 1
          1 1 1 1 1 1
          1 1 1 1 1 1
          1 1 1 1 1 1
          1 1 1 1 1 1
          1 1 1 1 1 1
          1 1 1 1 1 1
          1 1 1 1 1 1
          1 1 1 1 1 1
          1 1 1 1 1 1
          1 1 1 1 1 1
          1 1 1 1 1 1
          1 1 1 1 1 1
          1 1 1 1 1
        </DataArray>
        <DataArray type="Float64" Name="gradient_matprop_marker" format="ascii" RangeMin="0" RangeMax="0">
          0 0 0 0 0 0
          0 0 0 0 0 0
          0 0 0 0 0 0
          0 0 0 0 0 0
          0 0 0 0 0 0
          0 0 0 0 0 0
          0 0 0 0 0 0
          0 0 0 0 0 0
          0 0 0 0 0 0
          0 0 0 0 0 0
          0 0 0 0 0 0
          0 0 0 0 0 0
          0 0 0 0 0 0
          0 0 0 0 0 0
          0 0 0 0 0 0
          0 0 0 0 0 0
          0 0 0 0 0 0
          0 0 0 0 0 0
          0 0 0 0 0 0
          0 0 0 0 0 0
          0 0 0 0 0 0
          0 0 0 0 0 0
          0 0 0 0 0 0
          0 0 0 0 0 0
          0 0 0 0 0 0
          0 0 0 0 0 0
          0 0 0 0 0 0
          0 0 0 0 0 0
          0 0 0 0 0 0
          0 0 0 0 0 0
          0 0 0 0 0 0
          0 0 0 0 0 0
          0 0 0 0 0 0
          0 0 0 0 0 0
          0 0 0 0 0 0
          0 0 0 0 0 0
          0 0 0 0 0 0
          0 0 0 0 0 0
          0 0 0 0 0 0
          0 0 0 0 0 0
          0 0 0 0 0 0
          0 0 0 0 0 0
          0 0 0 0 0 0
          0 0 0 0 0 0
          0 0 0 0 0 0
          0 0 0 0 0 0
          0 0 0 0 0 0
          0 0 0 0 0 0
          0 0 0 0 0 0
          0 0 0 0 0 0
          0 0 0 0 0 0
          0 0 0 0 0 0
          0 0 0 0 0 0
          0 0 0 0 0 0
          0 0 0 0 0 0
          0 0 0 0 0 0
          0 0 0 0 0 0
          0 0 0 0 0 0
          0 0 0 0 0 0
          0 0 0 0 0 0
          0 0 0 0 0 0
          0 0 0 0 0 0
          0 0 0 0 0 0
          0 0 0 0 0 0
          0 0 0 0 0 0
          0 0 0 0 0 0
          0 0 0 0 0 0
          0 0 0 0 0 0
          0 0 0 0 0
        </DataArray>
        <DataArray type="Float64" Name="combo" format="ascii" RangeMin="1" RangeMax="1">
          1 1 1 1 1 1
          1 1 1 1 1 1
          1 1 1 1 1 1
          1 1 1 1 1 1
          1 1 1 1 1 1
          1 1 1 1 1 1
          1 1 1 1 1 1
          1 1 1 1 1 1
          1 1 1 1 1 1
          1 1 1 1 1 1
          1 1 1 1 1 1
          1 1 1 1 1 1
          1 1 1 1 1 1
          1 1 1 1 1 1
          1 1 1 1 1 1
          1 1 1 1 1 1
          1 1 1 1 1 1
          1 1 1 1 1 1
          1 1 1 1 1 1
          1 1 1 1 1 1
          1 1 1 1 1 1
          1 1 1 1 1 1
          1 1 1 1 1 1
          1 1 1 1 1 1
          1 1 1 1 1 1
          1 1 1 1 1 1
          1 1 1 1 1 1
          1 1 1 1 1 1
          1 1 1 1 1 1
          1 1 1 1 1 1
          1 1 1 1 1 1
          1 1 1 1 1 1
          1 1 1 1 1 1
          1 1 1 1 1 1
          1 1 1 1 1 1
          1 1 1 1 1 1
          1 1 1 1 1 1
          1 1 1 1 1 1
          1 1 1 1 1 1
          1 1 1 1 1 1
          1 1 1 1 1 1
          1 1 1 1 1 1
          1 1 1 1 1 1
          1 1 1 1 1 1
          1 1 1 1 1 1
          1 1 1 1 1 1
          1 1 1 1 1 1
          1 1 1 1 1 1
          1 1 1 1 1 1
          1 1 1 1 1 1
          1 1 1 1 1 1
          1 1 1 1 1 1
          1 1 1 1 1 1
          1 1 1 1 1 1
          1 1 1 1 1 1
          1 1 1 1 1 1
          1 1 1 1 1 1
          1 1 1 1 1 1
          1 1 1 1 1 1
          1 1 1 1 1 1
          1 1 1 1 1 1
          1 1 1 1 1 1
          1 1 1 1 1 1
          1 1 1 1 1 1
          1 1 1 1 1 1
          1 1 1 1 1 1
          1 1 1 1 1 1
          1 1 1 1 1 1
          1 1 1 1 1
        </DataArray>
        <DataArray type="Float64" Name="dHdT" format="ascii" RangeMin="25.811845530604742" RangeMax="33.53859078724474">
          25.813339957556245 25.812196653086595 26.272787830510023 25.904779377840267 25.817904644240482 25.81279911744198
          26.9754179954135 26.01238197915761 25.821364142795538 25.81381961615782 25.812232144586623 25.813547600782844
          25.812253846010606 25.814251209400272 25.812317572784032 25.813820701506387 26.31459991901251 26.145888264213617
          25.962613582956887 25.91338659966451 25.849407009626702 27.35591451800131 26.78163906025028 26.105605211895398
          25.922181768074555 25.884194782524258 25.83679785347964 25.834293487777693 25.818155891280757 25.813761261502965
          25.813989556048057 29.010651690837857 27.71537597939018 26.732378181753788 26.381223267292498 25.976752813741818
          29.97353841842093 28.224457119061213 26.523754500699507 26.03086999281526 25.95009692725751 25.85515838410769
          26.088033095909488 25.9844050640409 25.86411968645465 25.847443850179346 25.820323025311442 25.853506065591596
          25.821695691355686 25.814745429369825 25.814826648003177 25.81354497544842 25.823309623687955 25.815183204654033
          25.815192928324954 25.813823758042467 25.814240353819894 25.815191061038494 25.815742740485 25.813619254003044
          25.815195358598142 25.81674756585217 25.81263424299759 25.812782008779237 25.812296314380006 25.812366232032378
          25.81249972469584 25.812589933635657 25.812282624787727 25.813129873643526 25.81253882445897 25.81278937782359
          25.816108124271032 25.8175151627785 25.814509989225744 25.816482480943108 25.817829613784156 25.81347480020409
          25.812719476282247 25.81297763043627 25.812518136963824 25.81361962768202 25.812797453331314 25.813056647800824
          26.264261234497514 26.094487835506705 26.066417904819804 25.947944527184614 26.000364310376415 26.021651336154456
          25.931024734421882 25.876887511816182 25.879553653824434 26.735678886662093 26.63732221517043 26.40850095726522
          27.18111104023596 26.33195747264847 26.27697941908927 26.08875550494875 26.059889984584704 26.148933259657678
          25.99255380203244 26.677550722094203 26.581276521827178 26.22235094687978 26.35983133907992 26.174065180567485
          26.38404853281305 26.01740937626448 25.923195402759916 25.92329097164282 25.873181762548853 26.13698355602616
          25.987408578787722 25.98170337994692 25.951424881782877 25.937281526473384 25.879070998020843 25.872550339943324
          25.9041800008971 25.857154263722425 26.043602120740843 26.018677643773014 25.910780508054046 25.960976230598888
          25.842958885838158 25.840090001178666 25.833251377553665 25.86219646113177 25.857254689612414 25.84561384565542
          25.869746823442917 25.840849235444196 25.844435225123817 25.82857038629786 25.90237398685152 25.856742200185106
          25.860853283284236 25.82584291556568 25.82011504347057 25.833313178082314 25.824109778969685 25.8948126747598
          25.858050264373794 25.851507996385507 25.83118301407282 25.823017304135803 25.824875380453026 25.836718902519216
          25.824835516403148 25.824133547873384 25.81848769976403 25.816467424535524 25.818116036819184 25.816312885333474
          25.816244895672 28.152869992577575 27.87193267258466 27.241725901212945 28.606778625074103 27.107865449694692
          26.95812228448802 26.500757137606378 26.422665653250277 26.61678232880507 26.243247566304145 27.551911584368835
          27.34449364806846 26.625502563469176 26.87530345845708 26.63371409863951 26.880832016471267 26.27916956375689