<?xml version="1.0"?>
<VTKFile type="UnstructuredGrid" version="0.1" byte_order="LittleEndian" header_type="UInt32" compressor="vtkZLibDataCompressor">
  <UnstructuredGrid>
    <Piece NumberOfPoints="455" NumberOfCells="245">
      <PointData>
        <DataArray type="Int32" Name="libmesh_node_id" format="ascii" RangeMin="243" RangeMax="3535">
          360 362 773 774 775 776
          777 778 779 780 781 783
          784 785 786 1504 1505 1506
          1507 1508 1509 1510 1511 1512
          1513 1514 1515 1516 1518 1519
          1520 1521 1522 1523 1524 1525
          1526 1527 1528 1529 1530 1531
          1532 1533 1534 1535 1536 1537
          1538 1540 1552 1553 1556 1563
          1565 1569 1570 1573 1574 1668
          1669 1670 1671 1672 1673 1674
          1675 1676 1677 1740 1741 1742
          1743 1744 1745 1746 1747 1748
          1749 1751 3158 3159 3160 3161
          3162 3163 3164 3165 3166 3167
          3168 3169 3170 3171 3172 3173
          3174 3175 3176 3177 3178 3179
          3180 3181 3182 3183 3184 3185
          3186 3187 3188 3189 3190 3191
          3192 3193 3194 3195 3198 3199
          3201 3204 3206 3207 3208 3209
          3210 3211 3212 3213 3214 3215
          3217 3219 3221 3223 3224 3225
          3226 3227 3228 3229 3230 3231
          3232 3233 3234 3235 3236 3237
          3238 3239 3240 3241 3242 3243
          3244 3245 3246 3247 3248 3249
          3250 3251 3252 3253 3254 3255
          3256 3257 3258 3259 3260 3261
          3262 3263 3264 3265 3266 3267
          3268 3269 3270 3271 3272 3273
          3274 3275 3276 3277 3281 3282
          3283 3284 3285 3286 3287 3288
          3289 3290 3293 3294 3296 3301
          3302 3303 3304 3305 3306 3312
          3318 3319 3320 3321 3359 3360
          3361 3362 3363 3364 3365 3366
          3367 3368 3369 3370 3373 3375
          3376 3378 3379 3380 3381 3382
          3383 3384 3385 3386 3387 3390
          3391 3393 3437 3438 3439 3440
          3441 3442 3443 3454 3455 3456
          3457 3458 3459 3460 3461 3462
          3463 3471 3472 3473 3474 3485
          3486 3487 3488 3492 3493 3494
          3495 3496 3497 3498 3499 3500
          3501 3512 3513 3514 3515 3526
          3527 3528 3529 3530 3531 3532
          243 490 491 484 485 492
          493 486 723 350 725 728
          1020 1005 1021 1006 352 1027
          765 1326 1309 1327 1330 1332
          1539 1541 1662 1663 1664 1667
          245 361 1713 1714 1715 1718
          724 1304 1807 1805 1564 1808
          1806 1568 791 1813 1812 1815
          1816 1578 1822 2289 2290 2291
          2294 1305 2297 1306 2311 2312
          2315 2317 2331 3196 3197 2332
          3200 2334 3202 3203 3205 3216
          2347 3218 2349 3220 1517 3222
          2410 2411 2414 731 3278 2416
          3279 3280 3291 3292 3295 3297
          1542 3299 3298 1543 3300 3307
          3308 1544 3309 3310 1545 3311
          3314 3313 3316 3315 1546 3317
          3322 3323 3324 1547 3337 3396
          3397 3338 3398 3399 3400 3340
          3401 3406 3407 3410 3416 3353
          3417 3418 3355 3419 3423 3431
          3433 3435 1562 3446 3447 3450
          3452 3348 3354 3465 3467 1551
          3358 3475 3469 788 3476 3477
          1566 1567 3479 3481 3489 3483
          3490 3491 3422 3516 1561 3517
          3518 1576 3533 3534 3535
        </DataArray>
        <DataArray type="Float64" Name="bounds" format="ascii" RangeMin="0" RangeMax="0">
          0 0 0 0 0 0
          0 0 0 0 0 0
          0 0 0 0 0 0
          0 0 0 0 0 0
          0 0 0 0 0 0
          0 0 0 0 0 0
          0 0 0 0 0 0
          0 0 0 0 0 0
          0 0 0 0 0 0
          0 0 0 0 0 0
          0 0 0 0 0 0
          0 0 0 0 0 0
          0 0 0 0 0 0
          0 0 0 0 0 0
          0 0 0 0 0 0
          0 0 0 0 0 0
          0 0 0 0 0 0
          0 0 0 0 0 0
          0 0 0 0 0 0
          0 0 0 0 0 0
          0 0 0 0 0 0
          0 0 0 0 0 0
          0 0 0 0 0 0
          0 0 0 0 0 0
          0 0 0 0 0 0
          0 0 0 0 0 0
          0 0 0 0 0 0
          0 0 0 0 0 0
          0 0 0 0 0 0
          0 0 0 0 0 0
          0 0 0 0 0 0
          0 0 0 0 0 0
          0 0 0 0 0 0
          0 0 0 0 0 0
          0 0 0 0 0 0
          0 0 0 0 0 0
          0 0 0 0 0 0
          0 0 0 0 0 0
          0 0 0 0 0 0
          0 0 0 0 0 0
          0 0 0 0 0 0
          0 0 0 0 0 0
          0 0 0 0 0 0
          0 0 0 0 0 0
          0 0 0 0 0 0
          0 0 0 0 0 0
          0 0 0 0 0 0
          0 0 0 0 0 0
          0 0 0 0 0 0
          0 0 0 0 0 0
          0 0 0 0 0 0
          0 0 0 0 0 0
          0 0 0 0 0 0
          0 0 0 0 0 0
          0 0 0 0 0 0
          0 0 0 0 0 0
          0 0 0 0 0 0
          0 0 0 0 0 0
          0 0 0 0 0 0
          0 0 0 0 0 0
          0 0 0 0 0 0
          0 0 0 0 0 0
          0 0 0 0 0 0
          0 0 0 0 0 0
          0 0 0 0 0 0
          0 0 0 0 0 0
          0 0 0 0 0 0
          0 0 0 0 0 0
          0 0 0 0 0 0
          0 0 0 0 0 0
          0 0 0 0 0 0
          0 0 0 0 0 0
          0 0 0 0 0 0
          0 0 0 0 0 0
          0 0 0 0 0 0
          0 0 0 0 0
        </DataArray>
        <DataArray type="Float64" Name="gradient_error" format="ascii" RangeMin="6.173972621527549e-12" RangeMax="4.4505133455490495e-9">
          4.4048985852150915e-11 1.8287027707939615e-11 5.95137646573297e-11 9.345960901564664e-11 5.726227500294588e-11 1.0285234184954596e-10
          4.5971697628922107e-11 3.4241511379886176e-11 3.4378151084278e-11 1.171562176982387e-10 1.4544518236132787e-10 2.120246460198718e-10
          7.829371582000694e-11 3.054626473932907e-11 1.1516472998150152e-10 6.821168828957949e-11 7.7821828761473e-11 1.282264729859303e-10
          1.1495425563943378e-10 6.937322983410206e-11 5.741801611408832e-11 6.399240354942129e-11 1.1188122277156917e-10 1.0224453780132745e-10
          6.532600319020338e-11 6.666964009515189e-10 4.883901854159012e-10 1.5697678862189288e-10 5.2406996161442935e-11 4.49626372804991e-11
          3.451179860934549e-11 3.653623071269721e-11 1.4770909367192986e-11 1.6019960169910022e-11 2.1386025705817335e-11 2.997383640386289e-11
          4.1366805580923444e-11 2.5338440000944373e-11 5.771774152746441e-11 4.919306928942386e-11 2.7354683093312297e-11 4.058445707844684e-11
          1.2503822363094745e-10 1.2292368672411421e-10 4.829995464535597e-11 5.758670795524738e-11 8.5778493915706e-11 1.4653008015025545e-10
          5.6047200080860526e-11 5.886658555833021e-11 2.1886899578463224e-10 1.5737831551579294e-10 6.339726309864055e-11 7.0021299247408e-11
          6.451737378478563e-11 4.162625353515867e-11 3.7562386413491605e-11 3.71900100072004e-11 3.999951804455573e-11 4.113048876482138e-11
          4.367069157480955e-11 5.404290118277142e-11 5.725652569894339e-11 2.3469957457808337e-11 2.256638901125265e-11 3.139821583369129e-11
          4.6210894384797713e-11 6.047015021511536e-11 4.0230042656129935e-11 3.763370702970807e-11 3.820686729080398e-11 7.10253985354507e-11
          6.421515825798375e-11 2.5489943159936677e-11 3.858589306900285e-11 3.751128457750692e-11 3.87800275518999e-11 5.7404917980516807e-11
          3.643667608601098e-11 3.269673723001411e-11 5.192685534884344e-11 5.0328194470091195e-11 8.881053708862643e-11 8.412985074576795e-11
          3.21477036732005e-11 5.410063795676289e-11 5.102720380329706e-11 4.4831521868081806e-11 7.146186305309869e-11 4.775301570925434e-11
          2.117568834051523e-10 1.9895622899390447e-10 1.1981896361220186e-10 1.6542632803477844e-10 1.9860477366845535e-11 2.0608020555942233e-11
          3.1728746382539526e-11 3.025245349347508e-11 1.63759007690664e-11 2.302557096544307e-11 2.262737722657388e-11 2.1355563745038933e-11
          2.877616060441063e-11 2.222918348770469e-11 7.509476159703925e-11 6.979619278693257e-11 4.7125086606307734e-11 6.67008388850537e-11
          3.7349854971126103e-11 5.505274785076059e-11 2.937366545923873e-11 4.1527710962327055e-11 3.3766199797427546e-11 4.6630933998233234e-11
          3.570391409655359e-11 1.2238649463659043e-10 8.771599964510107e-11 9.594590200014313e-11 2.9801629182826467e-10 2.7797741595353226e-10
          2.2623822834116937e-10 6.162784627681124e-10 1.7354484489463733e-10 1.61679238148254e-10 9.707299420338616e-11 9.041902291768703e-11
          1.3132513478325683e-10 7.357256215905908e-11 3.839018936487164e-10 3.551896596825485e-10 1.9649091132925862e-10 2.8233017550392934e-10
          1.62687867391567e-10 1.0564885267888463e-10 3.3726741613876846e-10 6.048427375935797e-11 9.458349787352312e-11 3.4232391000182146e-11
          5.293282330638013e-11 4.078967947412761e-11 6.14833408534425e-11 3.9465149163605997e-11 1.9633690166462926e-10 1.0980204199081185e-10
          1.226737829533716e-10 3.195975609022524e-11 3.0125522999224574e-11 5.1892206114394214e-11 4.8453886268537076e-11 1.6020485171117498e-11
          2.693717562963852e-11 2.503236934140707e-11 2.520195721125785e-11 3.9610717177916093e-11 2.325198712127318e-11 1.1259013085272481e-10
          1.0463403530971176e-10 5.345507925964949e-11 8.418710369024934e-11 8.608502133524101e-12 8.55677997626776e-12 1.3540124538859906e-11
          1.271068971759462e-11 6.173972621527549e-12 8.90663604479017e-12 8.768438422103125e-12 8.505057819011417e-12 1.1881254896329329e-11
          8.63024079941608e-12 2.8683648576007905e-11 2.6488096402739674e-11 1.5262096624964087e-11 2.4396611982271965e-11 1.9263813815478373e-11
          2.868411651868384e-11 1.4280071929908771e-11 2.0233981567671224e-11 1.6415003116664957e-11 2.316236510421544e-11 1.6967127877874156e-11
          5.91270148776961e-11 3.6414457196552125e-11 4.3166613649117547e-11 7.136658978793032e-11 1.0431066401063298e-10 4.418470468354365e-11
          6.386105682121576e-11 5.5047289147992485e-11 7.630374565665962e-11 4.7262226464257244e-11 2.590191109622151e-11 3.713845100038482e-11
          1.9671017473718544e-11 2.724479767274983e-11 2.008574206139438e-11 2.7640577876287842e-11 2.1065295707941667e-11 7.089812598230437e-11
          4.6814186125060064e-11 4.4902507722520326e-11 1.4029010148682604e-9 1.2902468398570946e-9 1.0032397622785442e-9 8.047729721655758e-10
          7.40241522572859e-10 4.4055297425304465e-10 4.0572046519916283e-10 5.766350774403235e-10 3.1752595201848514e-10 6.677041326787537e-10
          3.862236015345326e-10 2.147617216130838e-10 2.305822852888261e-10 1.296629310027954e-10 2.308852266069175e-10 2.1320326765387188e-10
          1.163231901484491e-10 1.0770760675171462e-10 1.6822700619539264e-10 8.56402008231146e-11 4.4052558572980854e-10 4.045610031157179e-10
          2.0145930453632417e-10 3.1342376298725157e-10 5.66533226965413e-11 5.249539590747123e-11 4.186101907892117e-11 1.0444431345749849e-10
          9.653625239981849e-11 7.626494538779939e-11 1.1506451425395031e-10 5.929853684106439e-11 7.015614881524825e-11 3.673370507481868e-11
          2.0755744715064963e-10 1.0588361280226417e-10 1.2195359221718514e-10 2.0643734268404857e-11 2.93796411009082e-11 1.3327724427748025e-11
          1.8578007604855517e-11 5.231035195169965e-11 1.2793148708332966e-10 7.246132360204518e-11 6.677099643172897e-11 4.465492245575823e-11
          2.1457133966047582e-10 1.2153279507548091e-10 1.0816026264675328e-10 2.581851113489509e-11 3.35889080660132e-11 2.0530349445850648e-11
          2.5411404408825347e-11 1.8808627293521008e-11 2.322134802613615e-11 1.8770602516332053e-11 5.2501995604799303e-11 3.430983881328301e-11
          3.4467653425109656e-11 3.3692006199623344e-10 1.9002818060487864e-10 1.6335087346545398e-10 9.304195825002838e-11 7.678179653848439e-11
          4.422291538887597e-11 4.8605504499846125e-11 2.888520419249982e-11 2.8597215768792087e-11 3.942563730511946e-11 1.539178585383233e-11
          2.1012060807870482e-11 2.0810114873415994e-11 2.773530179768402e-11 1.4965406856983308e-11 6.631361715878196e-11 3.501220692458194e-11
          3.90450861127006e-11 1.0358594509562675e-10 5.4389561412054326e-11 5.1264382397290385e-11 3.236054960896889e-11 2.0300606684202442e-11
          2.4648198412774778e-11 1.5177431659435845e-11 1.77823323685852e-11 1.4633632453537096e-11 1.6818690270178378e-11 1.2828908553770859e-11
          2.949057409933006e-10 3.402710887075624e-11 4.971174685732643e-11 1.7567125675848528e-10 1.1762013060510897e-10 3.366203530225555e-11
          8.922742083915761e-11 3.76048158316073e-10 1.822813813490133e-10 4.6520772243976985e-10 2.2371867251986729e-10 2.811587863210092e-10
          8.143041867046687e-11 3.212035995848669e-10 1.345292578301961e-10 3.320429102969298e-10 3.429235082223416e-10 1.5390830172440141e-10
          4.5290335481897805e-10 2.4998137276019086e-10 2.1964018573330376e-10 3.018153547656267e-10 3.031719096434855e-10 2.7911967055595113e-10
          1.0879600680832183e-10 1.3388066253434463e-10 1.275015566805107e-10 1.978139474402035e-10 1.8042224492162002e-10 1.6303054240303654e-10
          1.7118144054948034e-10 9.946830651832868e-11 8.295528337526561e-11 1.8010101150345828e-10 1.6034970677640474e-10 1.3637941009710297e-10
          1.7926069894546226e-10 1.5397276423118636e-10 4.9564161385895575e-11 1.2129234142116377e-10 1.4204878633814316e-10 6.475314527539294e-11
          1.5726547129800709e-10 2.322822714432575e-10 9.039260773176605e-11 9.743388714912771e-11 2.28732175667746e-10 1.8940509192910747e-11
          2.4321321544790367e-11 4.872004362076704e-11 3.582615804510806e-11 8.008145845724358e-11 1.426387769845695e-10 1.351953673388193e-10
          1.1564565105493251e-10 3.3874649827237814e-10 3.183588415930806e-10 2.651436912856812e-10 6.009530711868663e-11 9.045557893585525e-11
          7.737181345491465e-11 1.9687638942484498e-10 7.879720975175948e-10 4.939517145291618e-10 4.6045904289324896e-10 7.34220053488202e-10
          3.7420082466100837e-10 5.96145557336553e-10 1.1080531797459503e-9 1.024296249394167e-9 8.111281468703598e-10 2.685390702333162e-10
          4.281471170779582e-10 1.7398022238327904e-10 2.7830535109502724e-10 5.586436176967952e-10 2.0932905087627696e-10 3.45643444092787e-10
          1.1418508794264066e-10 1.670831724653638e-10 1.220267716822927e-10 5.519994061423209e-10 1.979387952954126e-10 3.166647994720891e-10
          1.2055305884618186e-10 1.2397688719899692e-10 2.3269687044762745e-9 2.142081507212507e-9 1.6673379593833273e-9 4.4505133455490495e-9
          2.7072864057594607e-9 2.4867111770388405e-9 4.098719455378236e-9 1.9134530421639758e-9 3.168960679204615e-9 1.5560802891976132e-9
          1.427465827218637e-9 8.48316654555906e-10 7.781890071221395e-10 1.0972569427769793e-9 5.996271517918757e-10 1.1080401315282923e-9
          3.948237098849444e-10 6.525928148534459e-10 1.2371065616229537e-9 2.0528162315536064e-9 6.993903125735656e-10 1.1578948873910383e-9
          7.118546295675073e-10 3.922227089738105e-10 4.0570261531632516e-10 2.265045796822125e-10 1.4874834624649602e-9 7.694333131877086e-10
          7.053112574582462e-10 1.363793414725955e-9 3.7896969026649097e-10 3.478183029026075e-10 5.407248674142815e-10 1.042503140483356e-9
          2.684065086522486e-10 1.7872843345073266e-10 1.6451250660932103e-10 1.2820844895650368e-10 3.490589602237819e-10 6.656204099992825e-10
          1.7601072266516717e-10 1.974891096499141e-10 3.699354886568776e-10 1.017407600334582e-10 8.58679858539647e-11 2.1682273048810627e-10
          1.1288308802778458e-10 3.655012881531718e-10 1.828903265539076e-10 4.2803800253490746e-11 5.650821389206987e-11 3.776969858124208e-11
          8.863794218041774e-11 1.1529827747093227e-9 6.666855410110795e-10 5.764596475443723e-10 2.7687016380424384e-10 1.752197805592578e-9
          1.0114220177294154e-9 4.920177260351272e-10 8.44552309671517e-10 5.586530684105075e-10 2.7626737744368334e-10 2.30127490019409e-10
          3.913458982824046e-10 1.3107726410068435e-10 1.2932659628375946e-10 8.115369201950105e-11 1.0470772850439109e-10 1.76873249475442e-10
          6.053326583430149e-11 6.431028222445557e-11 2.961552327703078e-10 1.5007363098703667e-10 1.512233078733797e-10 7.844436462274104e-11
          7.24062208761695e-11 5.44251736713278e-11 3.3666004518242424e-11 2.3768361988686082e-11 2.1884502246152013e-11
        </DataArray>
        <DataArray type="Float64" Name="gradient_matprop_error" format="ascii" RangeMin="0" RangeMax="0">
          0 0 0 0 0 0
          0 0 0 0 0 0
          0 0 0 0 0 0
          0 0 0 0 0 0
          0 0 0 0 0 0
          0 0 0 0 0 0
          0 0 0 0 0 0
          0 0 0 0 0 0
          0 0 0 0 0 0
          0 0 0 0 0 0
          0 0 0 0 0 0
          0 0 0 0 0 0
          0 0 0 0 0 0
          0 0 0 0 0 0
          0 0 0 0 0 0
          0 0 0 0 0 0
          0 0 0 0 0 0
          0 0 0 0 0 0
          0 0 0 0 0 0
          0 0 0 0 0 0
          0 0 0 0 0 0
          0 0 0 0 0 0
          0 0 0 0 0 0
          0 0 0 0 0 0
          0 0 0 0 0 0
          0 0 0 0 0 0
          0 0 0 0 0 0
          0 0 0 0 0 0
          0 0 0 0 0 0
          0 0 0 0 0 0
          0 0 0 0 0 0
          0 0 0 0 0 0
          0 0 0 0 0 0
          0 0 0 0 0 0
          0 0 0 0 0 0
          0 0 0 0 0 0
          0 0 0 0 0 0
          0 0 0 0 0 0
          0 0 0 0 0 0
          0 0 0 0 0 0
          0 0 0 0 0 0
          0 0 0 0 0 0
          0 0 0 0 0 0
          0 0 0 0 0 0
          0 0 0 0 0 0
          0 0 0 0 0 0
          0 0 0 0 0 0
          0 0 0 0 0 0
          0 0 0 0 0 0
          0 0 0 0 0 0
          0 0 0 0 0 0
          0 0 0 0 0 0
          0 0 0 0 0 0
          0 0 0 0 0 0
          0 0 0 0 0 0
          0 0 0 0 0 0
          0 0 0 0 0 0
          0 0 0 0 0 0
          0 0 0 0 0 0
          0 0 0 0 0 0
          0 0 0 0 0 0
          0 0 0 0 0 0
          0 0 0 0 0 0
          0 0 0 0 0 0
          0 0 0 0 0 0
          0 0 0 0 0 0
          0 0 0 0 0 0
          0 0 0 0 0 0
          0 0 0 0 0 0
          0 0 0 0 0 0
          0 0 0 0 0 0
          0 0 0 0 0 0
          0 0 0 0 0 0
          0 0 0 0 0 0
          0 0 0 0 0 0
          0 0 0 0 0
        </DataArray>
        <DataArray type="Float64" Name="initial_marker" format="ascii" RangeMin="0" RangeMax="2">
          0 0.5 0 0 0 0
          0 0 0 0 0 2
          1.75 0 0 0 0 2
          1.75 0 1 0.75 0 0.75
          0 2 2 2 0 0
          0 0 0 0 0 0
          0 0 2 1.75 0.25 0.5
          0 0 0 0 0 0
          0 0.25 2 2 2 1.25
          0 0 0.25 0 0 0
          0 0 0 0 0 0
          0 0 0 0 0 0
          0 0 0 0 0 0
          0 0 0 0 1 1
          0 1 1 0 1 1
          2 2 2 2 0 0
          0.5 0.5 0 0 0 0
          0.5 0 1.5 1.5 1.3333333333333333 1.6666666666666667
          0 0.75 0 0.5 0 0.5
          0 1.75 1.6666666666666667 1.6666666666666667 2 2
          2 2 2 2 2 2
          2 1.75 2 2 2 2
          2 1.75 2 1.5 1.75 0.5
          1.25 0.5 1.25 1 2 2
          2 1 1 1.5 1.5 0
          1 1 0.5 1.25 1 2
          2 2 2 0 0 0.5
          0.5 0 0 0 0 0.5
          0 1.5 1.5 0.6666666666666666 1.3333333333333333 0
          0.75 0 0.5 0 0.5 0
          1.75 1.6666666666666667 1.3333333333333333 1 1.5 0.5
          1 0 1 0.5 0 0.5
          0 0.5 0 0 0 1.5
          1.3333333333333333 0.6666666666666666 2 2 2 2
          2 2 2 2 2 2
          2 2 2 2 2 2
          2 2 2 2 2 2
          2 2 2 2 1.75 2
          2 2 2 2 1.75 1.5
          2 2 2 1 1.5 0.5
          1 2 2 1.75 1.25 1
          2 2 1.75 0 0.25 0
          0 0 0 0 0.75 0.3333333333333333
          0 2 2 2 1.75 1
          0.75 0 0 0.5 1 0
          0.5 0 0.5 0 1.75 1.25
          1 2 1.75 1.25 1 0
          0.25 0 0 0 0 0
          0 0 0 0 0 0
          0 0 0 0 0 0
          0 0 0 0 0 0
          0 0 1.5 0 0 1.5
          0.75 0 0 0 0 0
          0 0 0 0 0 0
          0.5 0.25 0 0 0 0
          0 0.75 0 0 0 0
          0 0 0 1 1.5 1.5
          1.25 2 2 2 0 1
          1 2 2 2 2 2
          2 2 2 2 2 2
          2 2 2 2 2 2
          1 1.5 1 2 2 2
          1.75 1.6666666666666667 2 2 2 2
          2 2 2 2 2 2
          2 2 2 2 2 2
          2 2 2 2 2 2
          2 2 2 2 2 2
          2 2 2 2 2 2
          2 2 2 2 2 2
          2 2 2 2 2 2
          1.5 2 2 0 0.5 0
          1 2 2 2 2 2
          2 2 2 2 2 2
          2 2 1.25 0.5 1.25 1.75
          1 0.5 2 2 2 2
          1.75 1.25 0.75 0.5 0
        </DataArray>
        <DataArray type="Float64" Name="markers_norefine" format="ascii" RangeMin="0" RangeMax="0">
          0 0 0 0 0 0
          0 0 0 0 0 0
          0 0 0 0 0 0
          0 0 0 0 0 0
          0 0 0 0 0 0
          0 0 0 0 0 0
          0 0 0 0 0 0
          0 0 0 0 0 0
          0 0 0 0 0 0
          0 0 0 0 0 0
          0 0 0 0 0 0
          0 0 0 0 0 0
          0 0 0 0 0 0
          0 0 0 0 0 0
          0 0 0 0 0 0
          0 0 0 0 0 0
          0 0 0 0 0 0
          0 0 0 0 0 0
          0 0 0 0 0 0
          0 0 0 0 0 0
          0 0 0 0 0 0
          0 0 0 0 0 0
          0 0 0 0 0 0
          0 0 0 0 0 0
          0 0 0 0 0 0
          0 0 0 0 0 0
          0 0 0 0 0 0
          0 0 0 0 0 0
          0 0 0 0 0 0
          0 0 0 0 0 0
          0 0 0 0 0 0
          0 0 0 0 0 0
          0 0 0 0 0 0
          0 0 0 0 0 0
          0 0 0 0 0 0
          0 0 0 0 0 0
          0 0 0 0 0 0
          0 0 0 0 0 0
          0 0 0 0 0 0
          0 0 0 0 0 0
          0 0 0 0 0 0
          0 0 0 0 0 0
          0 0 0 0 0 0
          0 0 0 0 0 0
          0 0 0 0 0 0
          0 0 0 0 0 0
          0 0 0 0 0 0
          0 0 0 0 0 0
          0 0 0 0 0 0
          0 0 0 0 0 0
          0 0 0 0 0 0
          0 0 0 0 0 0
          0 0 0 0 0 0
          0 0 0 0 0 0
          0 0 0 0 0 0
          0 0 0 0 0 0
          0 0 0 0 0 0
          0 0 0 0 0 0
          0 0 0 0 0 0
          0 0 0 0 0 0
          0 0 0 0 0 0
          0 0 0 0 0 0
          0 0 0 0 0 0
          0 0 0 0 0 0
          0 0 0 0 0 0
          0 0 0 0 0 0
          0 0 0 0 0 0
          0 0 0 0 0 0
          0 0 0 0 0 0
          0 0 0 0 0 0
          0 0 0 0 0 0
          0 0 0 0 0 0
          0 0 0 0 0 0
          0 0 0 0 0 0
          0 0 0 0 0 0
          0 0 0 0 0
        </DataArray>
        <DataArray type="Float64" Name="markers_mustrefine" format="ascii" RangeMin="0" RangeMax="2">
          0 0.5 0 0 0 0
          0 0 0 0 0 2
          1.75 0 0 0 0 2
          1.75 0 1 0.75 0 0.75
          0 2 2 2 0 0
          0 0 0 0 0 0
          0 0 2 1.75 0.25 0.5
          0 0 0 0 0 0
          0 0.25 2 2 2 1.25
          0 0 0.25 0 0 0
          0 0 0 0 0 0
          0 0 0 0 0 0
          0 0 0 0 0 0
          0 0 0 0 1 1
          0 1 1 0 1 1
          2 2 2 2 0 0
          0.5 0.5 0 0 0 0
          0.5 0 1.5 1.5 1.3333333333333333 1.6666666666666667
          0 0.75 0 0.5 0 0.5
          0 1.75 1.6666666666666667 1.6666666666666667 2 2
          2 2 2 2 2 2
          2 1.75 2 2 2 2
          2 1.75 2 1.5 1.75 0.5
          1.25 0.5 1.25 1 2 2
          2 1 1 1.5 1.5 0
          1 1 0.5 1.25 1 2
          2 2 2 0 0 0.5
          0.5 0 0 0 0 0.5
          0 1.5 1.5 0.6666666666666666 1.3333333333333333 0
          0.75 0 0.5 0 0.5 0
          1.75 1.6666666666666667 1.3333333333333333 1 1.5 0.5
          1 0 1 0.5 0 0.5
          0 0.5 0 0 0 1.5
          1.3333333333333333 0.6666666666666666 2 2 2 2
          2 2 2 2 2 2
          2 2 2 2 2 2
          2 2 2 2 2 2
          2 2 2 2 1.75 2
          2 2 2 2 1.75 1.5
          2 2 2 1 1.5 0.5
          1 2 2 1.75 1.25 1
          2 2 1.75 0 0.25 0
          0 0 0 0 0.75 0.3333333333333333
          0 2 2 2 1.75 1
          0.75 0 0 0.5 1 0
          0.5 0 0.5 0 1.75 1.25
          1 2 1.75 1.25 1 0
          0.25 0 0 0 0 0
          0 0 0 0 0 0
          0 0 0 0 0 0
          0 0 0 0 0 0
          0 0 1.5 0 0 1.5
          0.75 0 0 0 0 0
          0 0 0 0 0 0
          0.5 0.25 0 0 0 0
          0 0.75 0 0 0 0
          0 0 0 1 1.5 1.5
          1.25 2 2 2 0 1
          1 2 2 2 2 2
          2 2 2 2 2 2
          2 2 2 2 2 2
          1 1.5 1 2 2 2
          1.75 1.6666666666666667 2 2 2 2
          2 2 2 2 2 2
          2 2 2 2 2 2
          2 2 2 2 2 2
          2 2 2 2 2 2
          2 2 2 2 2 2
          2 2 2 2 2 2
          2 2 2 2 2 2
          1.5 2 2 0 0.5 0
          1 2 2 2 2 2
          2 2 2 2 2 2
          2 2 1.25 0.5 1.25 1.75
          1 0.5 2 2 2 2
          1.75 1.25 0.75 0.5 0
        </DataArray>
        <DataArray type="Float64" Name="gradient_marker" format="ascii" RangeMin="1" RangeMax="1">
          1 1 1 1 1 1
          1 1 1 1 1 1
          1 1 1 1 1 1
          1 1 1 1 1 1
          1 1 1 1 1 1
          1 1 1 1 1 1
          1 1 1 1 1 1
          1 1 1 1 1 1
          1 1 1 1 1 1
          1 1 1 1 1 1
          1 1 1 1 1 1
          1 1 1 1 1 1
          1 1 1 1 1 1
          1 1 1 1 1 1
          1 1 1 1 1 1
          1 1 1 1 1 1
          1 1 1 1 1 1
          1 1 1 1 1 1
          1 1 1 1 1 1
          1 1 1 1 1 1
          1 1 1 1 1 1
          1 1 1 1 1 1
          1 1 1 1 1 1
          1 1 1 1 1 1
          1 1 1 1 1 1
          1 1 1 1 1 1
          1 1 1 1 1 1
          1 1 1 1 1 1
          1 1 1 1 1 1
          1 1 1 1 1 1
          1 1 1 1 1 1
          1 1 1 1 1 1
          1 1 1 1 1 1
          1 1 1 1 1 1
          1 1 1 1 1 1
          1 1 1 1 1 1
          1 1 1 1 1 1
          1 1 1 1 1 1
          1 1 1 1 1 1
          1 1 1 1 1 1
          1 1 1 1 1 1
          1 1 1 1 1 1
          1 1 1 1 1 1
          1 1 1 1 1 1
          1 1 1 1 1 1
          1 1 1 1 1 1
          1 1 1 1 1 1
          1 1 1 1 1 1
          1 1 1 1 1 1
          1 1 1 1 1 1
          1 1 1 1 1 1
          1 1 1 1 1 1
          1 1 1 1 1 1
          1 1 1 1 1 1
          1 1 1 1 1 1
          1 1 1 1 1 1
          1 1 1 1 1 1
          1 1 1 1 1 1
          1 1 1 1 1 1
          1 1 1 1 1 1
          1 1 1 1 1 1
          1 1 1 1 1 1
          1 1 1 1 1 1
          1 1 1 1 1 1
          1 1 1 1 1 1
          1 1 1 1 1 1
          1 1 1 1 1 1
          1 1 1 1 1 1
          1 1 1 1 1 1
          1 1 1 1 1 1
          1 1 1 1 1 1
          1 1 1 1 1 1
          1 1 1 1 1 1
          1 1 1 1 1 1
          1 1 1 1 1 1
          1 1 1 1 1
        </DataArray>
        <DataArray type="Float64" Name="gradient_matprop_marker" format="ascii" RangeMin="0" RangeMax="0">
          0 0 0 0 0 0
          0 0 0 0 0 0
          0 0 0 0 0 0
          0 0 0 0 0 0
          0 0 0 0 0 0
          0 0 0 0 0 0
          0 0 0 0 0 0
          0 0 0 0 0 0
          0 0 0 0 0 0
          0 0 0 0 0 0
          0 0 0 0 0 0
          0 0 0 0 0 0
          0 0 0 0 0 0
          0 0 0 0 0 0
          0 0 0 0 0 0
          0 0 0 0 0 0
          0 0 0 0 0 0
          0 0 0 0 0 0
          0 0 0 0 0 0
          0 0 0 0 0 0
          0 0 0 0 0 0
          0 0 0 0 0 0
          0 0 0 0 0 0
          0 0 0 0 0 0
          0 0 0 0 0 0
          0 0 0 0 0 0
          0 0 0 0 0 0
          0 0 0 0 0 0
          0 0 0 0 0 0
          0 0 0 0 0 0
          0 0 0 0 0 0
          0 0 0 0 0 0
          0 0 0 0 0 0
          0 0 0 0 0 0
          0 0 0 0 0 0
          0 0 0 0 0 0
          0 0 0 0 0 0
          0 0 0 0 0 0
          0 0 0 0 0 0
          0 0 0 0 0 0
          0 0 0 0 0 0
          0 0 0 0 0 0
          0 0 0 0 0 0
          0 0 0 0 0 0
          0 0 0 0 0 0
          0 0 0 0 0 0
          0 0 0 0 0 0
          0 0 0 0 0 0
          0 0 0 0 0 0
          0 0 0 0 0 0
          0 0 0 0 0 0
          0 0 0 0 0 0
          0 0 0 0 0 0
          0 0 0 0 0 0
          0 0 0 0 0 0
          0 0 0 0 0 0
          0 0 0 0 0 0
          0 0 0 0 0 0
          0 0 0 0 0 0
          0 0 0 0 0 0
          0 0 0 0 0 0
          0 0 0 0 0 0
          0 0 0 0 0 0
          0 0 0 0 0 0
          0 0 0 0 0 0
          0 0 0 0 0 0
          0 0 0 0 0 0
          0 0 0 0 0 0
          0 0 0 0 0 0
          0 0 0 0 0 0
          0 0 0 0 0 0
          0 0 0 0 0 0
          0 0 0 0 0 0
          0 0 0 0 0 0
          0 0 0 0 0 0
          0 0 0 0 0
        </DataArray>
        <DataArray type="Float64" Name="combo" format="ascii" RangeMin="1" RangeMax="1">
          1 1 1 1 1 1
          1 1 1 1 1 1
          1 1 1 1 1 1
          1 1 1 1 1 1
          1 1 1 1 1 1
          1 1 1 1 1 1
          1 1 1 1 1 1
          1 1 1 1 1 1
          1 1 1 1 1 1
          1 1 1 1 1 1
          1 1 1 1 1 1
          1 1 1 1 1 1
          1 1 1 1 1 1
          1 1 1 1 1 1
          1 1 1 1 1 1
          1 1 1 1 1 1
          1 1 1 1 1 1
          1 1 1 1 1 1
          1 1 1 1 1 1
          1 1 1 1 1 1
          1 1 1 1 1 1
          1 1 1 1 1 1
          1 1 1 1 1 1
          1 1 1 1 1 1
          1 1 1 1 1 1
          1 1 1 1 1 1
          1 1 1 1 1 1
          1 1 1 1 1 1
          1 1 1 1 1 1
          1 1 1 1 1 1
          1 1 1 1 1 1
          1 1 1 1 1 1
          1 1 1 1 1 1
          1 1 1 1 1 1
          1 1 1 1 1 1
          1 1 1 1 1 1
          1 1 1 1 1 1
          1 1 1 1 1 1
          1 1 1 1 1 1
          1 1 1 1 1 1
          1 1 1 1 1 1
          1 1 1 1 1 1
          1 1 1 1 1 1
          1 1 1 1 1 1
          1 1 1 1 1 1
          1 1 1 1 1 1
          1 1 1 1 1 1
          1 1 1 1 1 1
          1 1 1 1 1 1
          1 1 1 1 1 1
          1 1 1 1 1 1
          1 1 1 1 1 1
          1 1 1 1 1 1
          1 1 1 1 1 1
          1 1 1 1 1 1
          1 1 1 1 1 1
          1 1 1 1 1 1
          1 1 1 1 1 1
          1 1 1 1 1 1
          1 1 1 1 1 1
          1 1 1 1 1 1
          1 1 1 1 1 1
          1 1 1 1 1 1
          1 1 1 1 1 1
          1 1 1 1 1 1
          1 1 1 1 1 1
          1 1 1 1 1 1
          1 1 1 1 1 1
          1 1 1 1 1 1
          1 1 1 1 1 1
          1 1 1 1 1 1
          1 1 1 1 1 1
          1 1 1 1 1 1
          1 1 1 1 1 1
          1 1 1 1 1 1
          1 1 1 1 1
        </DataArray>
        <DataArray type="Float64" Name="dHdT" format="ascii" RangeMin="25.811576303631544" RangeMax="26.660076708395366">
          25.811923659270924 25.813978551519668 25.812337148279816 25.812472391033893 25.8136290718033 25.813662492467316
          25.81200715862559 25.812185305279932 25.812115920981597 25.812622279752578 25.81307146035416 25.847609350587373