<?xml version="1.0"?>
<VTKFile type="UnstructuredGrid" version="0.1" byte_order="LittleEndian" header_type="UInt32" compressor="vtkZLibDataCompressor">
  <UnstructuredGrid>
    <Piece NumberOfPoints="441" NumberOfCells="248">
      <PointData>
        <DataArray type="Int32" Name="libmesh_node_id" format="ascii" RangeMin="245" RangeMax="3623">
          813 814 821 822 1538 1539
          1540 1541 1542 1543 1544 1545
          1546 1547 1548 1549 1550 1551
          1552 1553 1554 1555 1559 1560
          1562 1563 1565 1566 1567 1568
          1569 1570 1571 1572 1573 1574
          1575 1576 1577 1578 1579 1603
          1791 1792 1793 1794 1795 1796
          1797 1798 1799 1800 1801 1802
          1803 1804 1805 1806 1807 3270
          3271 3272 3273 3274 3275 3276
          3277 3278 3279 3282 3284 3285
          3286 3287 3288 3289 3290 3291
          3292 3293 3294 3295 3296 3297
          3298 3299 3300 3301 3302 3303
          3304 3305 3306 3307 3310 3311
          3313 3316 3318 3319 3320 3321
          3322 3323 3324 3325 3326 3327
          3329 3330 3331 3333 3335 3336
          3337 3338 3339 3340 3341 3342
          3343 3344 3345 3346 3347 3348
          3349 3350 3351 3352 3353 3354
          3355 3356 3357 3358 3359 3360
          3361 3362 3363 3364 3365 3366
          3367 3368 3369 3370 3372 3373
          3374 3375 3376 3377 3378 3379
          3380 3381 3382 3383 3384 3385
          3386 3387 3388 3389 3390 3391
          3392 3393 3394 3395 3396 3397
          3398 3399 3400 3401 3402 3405
          3406 3408 3411 3413 3414 3415
          3416 3417 3418 3419 3420 3421
          3422 3424 3426 3428 3430 3431
          3432 3433 3434 3435 3471 3472
          3473 3474 3475 3476 3481 3482
          3485 3491 3492 3493 3494 3498
          3499 3500 3501 3502 3503 3504
          3542 3543 3544 3545 3549 3550
          3551 3552 3556 3557 3558 3559
          3560 3561 3562 3566 3567 3568
          3569 3570 3571 3572 3604 3605
          3606 3607 3608 3609 3610 3614
          3615 3616 3617 3618 3619 3620
          811 360 815 812 816 817
          761 818 350 763 819 766
          361 820 1031 1016 352 824
          1037 803 1556 1557 1558 1561
          1564 823 1360 1343 1361 1364
          1366 1607 1597 1604 1608 1599
          1605 363 1606 1609 1714 1721
          1722 1715 245 1764 1765 1766
          1769 762 1338 1856 1786 1466
          1598 1857 1787 1858 1859 2401
          2402 2403 2406 1339 3280 3281
          2409 3283 1340 2423 2424 2427
          2429 3308 3309 3312 3314 3315
          3317 2446 3328 2459 2461 3332
          2463 3334 769 362 3371 2522
          2523 2526 2528 3403 3404 3407
          3409 3410 3412 3423 3425 3427
          1580 3429 3436 1581 3437 3439
          3440 3438 3442 3441 3447 3448
          3449 3450 3451 3452 3458 3457
          3460 3459 3464 3465 3466 3467
          3477 3478 1586 3479 3480 1587
          3483 3484 3486 3487 3488 1588
          3489 3490 1589 3495 3496 3497
          1590 3505 3506 3507 1591 3508
          3509 3512 3528 3530 2833 2919
          2921 1451 3546 2923 3547 3548
          1464 1596 3553 3554 3555 2934
          2935 2938 3563 2940 3564 3565
          3573 3574 3575 3611 3612 3613
          3621 3622 3623
        </DataArray>
        <DataArray type="Float64" Name="bounds" format="ascii" RangeMin="0" RangeMax="0">
          0 0 0 0 0 0
          0 0 0 0 0 0
          0 0 0 0 0 0
          0 0 0 0 0 0
          0 0 0 0 0 0
          0 0 0 0 0 0
          0 0 0 0 0 0
          0 0 0 0 0 0
          0 0 0 0 0 0
          0 0 0 0 0 0
          0 0 0 0 0 0
          0 0 0 0 0 0
          0 0 0 0 0 0
          0 0 0 0 0 0
          0 0 0 0 0 0
          0 0 0 0 0 0
          0 0 0 0 0 0
          0 0 0 0 0 0
          0 0 0 0 0 0
          0 0 0 0 0 0
          0 0 0 0 0 0
          0 0 0 0 0 0
          0 0 0 0 0 0
          0 0 0 0 0 0
          0 0 0 0 0 0
          0 0 0 0 0 0
          0 0 0 0 0 0
          0 0 0 0 0 0
          0 0 0 0 0 0
          0 0 0 0 0 0
          0 0 0 0 0 0
          0 0 0 0 0 0
          0 0 0 0 0 0
          0 0 0 0 0 0
          0 0 0 0 0 0
          0 0 0 0 0 0
          0 0 0 0 0 0
          0 0 0 0 0 0
          0 0 0 0 0 0
          0 0 0 0 0 0
          0 0 0 0 0 0
          0 0 0 0 0 0
          0 0 0 0 0 0
          0 0 0 0 0 0
          0 0 0 0 0 0
          0 0 0 0 0 0
          0 0 0 0 0 0
          0 0 0 0 0 0
          0 0 0 0 0 0
          0 0 0 0 0 0
          0 0 0 0 0 0
          0 0 0 0 0 0
          0 0 0 0 0 0
          0 0 0 0 0 0
          0 0 0 0 0 0
          0 0 0 0 0 0
          0 0 0 0 0 0
          0 0 0 0 0 0
          0 0 0 0 0 0
          0 0 0 0 0 0
          0 0 0 0 0 0
          0 0 0 0 0 0
          0 0 0 0 0 0
          0 0 0 0 0 0
          0 0 0 0 0 0
          0 0 0 0 0 0
          0 0 0 0 0 0
          0 0 0 0 0 0
          0 0 0 0 0 0
          0 0 0 0 0 0
          0 0 0 0 0 0
          0 0 0 0 0 0
          0 0 0 0 0 0
          0 0 0
        </DataArray>
        <DataArray type="Float64" Name="gradient_error" format="ascii" RangeMin="4.108344962910955e-12" RangeMax="7.404896844056987e-9">
          4.016829238307251e-11 7.154397124353745e-11 1.8449071312137145e-10 6.319163714502349e-11 4.9197079605853747e-11 5.650453587957403e-11
          1.0704483745645971e-10 9.32230889690432e-11 5.0857038852851305e-11 4.517645749928531e-11 4.9222584783607224e-11 8.206847188021588e-11
          7.799610480027459e-11 4.8682426247541054e-11 6.041393601270226e-10 4.359261016377774e-10 1.3448759635726065e-10 1.7750574215760701e-10
          3.8863283012911337e-11 3.2988757571039186e-11 2.5876314455392738e-11 2.7240289317828185e-11 2.1303848764139096e-11 3.0435314169758674e-11
          4.783703713342434e-11 3.9775694460961615e-11 3.100155870164005e-11 9.11661495182529e-11 9.082101988454824e-11 3.396289333873926e-11
          4.149428964559305e-11 6.084694035194213e-11 1.0794822834925027e-10 3.9739457315983433e-11 8.394342661762097e-11 4.3864686031368726e-11
          9.945303108561848e-11 2.5668878804948472e-9 1.7984571951358938e-9 7.739129009098392e-10 5.41520446375193e-10 3.0529410224247215e-11
          2.4496081525383532e-11 2.5286130015358233e-11 4.9296461611210036e-11 4.4355310993576765e-11 1.6579521089325248e-11 2.6003568984414857e-11
          2.5132722067768548e-11 2.6076178505332933e-11 3.941416037594349e-11 2.4261875151122236e-11 1.2826477669066279e-11 2.341958256174354e-11
          8.378932304079172e-12 1.3093604383867333e-11 1.0159489939021408e-11 1.4331317652657263e-11 1.021346845751219e-11 4.0092455970965925e-11
          3.878162429772742e-11 7.149845284400926e-11 6.743925490499014e-11 2.4457642271071922e-11 4.278105921750257e-11 4.019848764834372e-11
          3.43292473547189e-11 5.6582710036152155e-11 3.732462650028422e-11 9.961832252469884e-11 1.4904030917497347e-11 1.5541008475990326e-11
          2.459863251228657e-11 2.3380346992940958e-11 1.2245238391021671e-11 1.7590434050592902e-11 1.7233976584669613e-11 1.6177986034483305e-11
          2.2162061473595343e-11 1.687751911874632e-11 6.144560485928255e-11 5.68878822682994e-11 3.783193866410648e-11 5.408321163191564e-11
          2.8321571787291127e-11 4.2785232879866107e-11 2.2193535742159427e-11 3.193319570208629e-11 2.5455441489633382e-11 3.578510265339894e-11
          2.7124344061689643e-11 9.999979928229946e-11 7.086596462790964e-11 7.684309122687435e-11 2.604687395075716e-10 2.419473835538144e-10
          1.9437644051576636e-10 5.565038890372615e-10 1.4871813903311946e-10 1.3799980399563916e-10 8.143648500046852e-11 7.555208219885502e-11
          1.1069724399484579e-10 6.07136101305797e-11 3.412439134339182e-10 3.1458721808593355e-10 1.7034543757259599e-10 2.4713742438415534e-10
          1.3675836184245283e-10 1.445602380414819e-10 8.62809601197179e-11 2.946898853742557e-10 4.850874747302686e-11 7.804953731809175e-11
          2.692721217500234e-11 4.279841550935879e-11 3.1903417571080037e-11 4.931182500252805e-11 3.1194906950636136e-11 1.682497474678714e-10
          9.214826246410693e-11 1.020379848144234e-10 2.545402029039097e-11 2.3906805981162383e-11 4.2546599226819276e-11 3.956387265035712e-11
          1.241190536542787e-11 2.152574280977949e-11 1.9930820714972546e-11 1.9785403080390242e-11 3.193820192412867e-11 1.8368165774340364e-11
          9.571239235187263e-11 8.861183293710629e-11 4.415178252941013e-11 7.043959619989527e-11 6.513904813588808e-12 6.490165673307612e-12
          1.0526046111034665e-11 9.852407607513967e-12 4.6063644673736225e-12 6.782182068828431e-12 6.6652162823157615e-12 6.466426533026416e-12
          9.17876910399327e-12 6.548250495803092e-12 2.3126961644543685e-11 2.1285582878150565e-11 1.9502123629366897e-11 1.4866911621133402e-11
          2.2665362063784565e-11 1.0867292787708615e-11 1.570674022961228e-11 1.2522608753420112e-11 1.8035466353206732e-11 1.2980780376534694e-11
          4.848137427371483e-11 2.927786242746506e-11 3.465179822156738e-11 5.58145340632471e-11 8.378064117898483e-11 3.399329998181414e-11
          5.041500692027518e-11 4.218727935376196e-11 5.985292450869158e-11 3.6457963854544745e-11 1.6485784770410042e-10 9.86810512196464e-11
          1.000100395278249e-10 1.9681470733453717e-11 2.8833180494354954e-11 1.480342606351532e-11 2.087808282222637e-11 1.498428572968669e-11
          2.102876658830459e-11 1.584602510214376e-11 5.6969348535220284e-11 3.7074377157865314e-11 3.5004637217968984e-11 1.3056015639803952e-9
          1.1976483633599088e-9 9.224221307218642e-10 2.353889647282914e-9 7.349886755746563e-10 6.74181791546965e-10 3.9406447076719853e-10
          3.6183975426145583e-10 5.20028326481164e-10 2.8032223423601816e-10 1.4485947501401853e-9 1.3263849159182592e-9 7.084539152776032e-10
          1.011861372303987e-9 6.020717737903941e-10 3.455861254340351e-10 1.1433962211402727e-9 3.415286852842191e-10 1.85913754932419e-10
          1.9797311768370588e-10 1.0906012512201675e-10 6.452978678470955e-10 3.4810779576532477e-10 2.0186196366978005e-10 1.8581897843494633e-10
          9.920384180524783e-11 9.156396838542213e-11 1.4508984247634724e-10 7.204317745698055e-11 4.7033082817957995e-11 4.3444627982865073e-11
          3.4283288376191404e-11 9.733573180987969e-11 4.894655033877581e-11 5.772734753029487e-11 2.9519590919568184e-11 1.6314728412965984e-11
          2.3622216073515568e-11 1.0957674061494046e-11 1.5267882589401136e-11 1.0263166129331184e-11 1.455532249595886e-11 9.549405398321203e-12
          3.0622646897541194e-10 1.8299649454583148e-10 1.5286824328273236e-10 9.160572567401552e-11 1.0597125023935669e-10 5.888243670749199e-11
          5.319766297892784e-11 3.510975709317189e-11 5.538014401653588e-11 7.384185241943865e-11 3.277125702303783e-11 4.400136156915878e-11
          3.854341369718576e-11 4.8321907872246656e-11 2.8606458890361743e-11 1.938368633182173e-11 2.5658867766883654e-11 1.521677322429023e-11
          1.91441600049905e-11 1.3789253703686266e-11 1.729429981259735e-11 1.384445336939612e-11 2.2358275906358554e-11 3.138565688377706e-11
          1.1753477073354416e-11 1.6343268108727797e-11 1.5950816487973146e-11 2.158439057414173e-11 1.1378195107506117e-11 5.9570468794231045e-12
          8.184361726182281e-12 4.229919014329794e-12 5.5137475553793435e-12 4.399255661529992e-12 5.7921070028673246e-12 4.108344962910955e-12
          3.617484682656198e-11 2.7480290750818017e-11 2.94200131785278e-11 6.020989036403347e-11 2.2812943384646804e-11 2.270921777992568e-11
          1.1288796872473159e-10 7.694685228846219e-11 2.841798601584368e-10 1.64128678032601e-10 9.870840398400488e-11 1.9774871085430196e-10
          6.410386876744542e-11 3.326683694590132e-11 9.082151600656724e-11 2.342525684281434e-10 2.5831667996286227e-10 8.129413002179168e-11
          1.0630732860287568e-10 3.3393033176769973e-10 1.0373068247634964e-11 1.1584585036821943e-11 1.5663631861818952e-11 1.845697086175845e-11
          2.0874747284383972e-11 2.26077139694339e-11 1.8510097154155567e-10 1.734152750402e-10 2.2987039457780043e-10 2.2771947789452781e-10
          2.2263172205843083e-10 2.654752506272799e-11 5.556978098649498e-11 2.827495308279601e-11 2.8868415950780482e-11 4.721595658342257e-11
          1.3927256001420137e-11 2.8306158587147238e-11 1.952009101723403e-11 1.828847743929038e-11 1.2688107065834143e-10 3.295867557765351e-11
          3.599143896735231e-11 1.1200620892628858e-10 1.0408367915611225e-10 5.4695442671031875e-11 1.288174743928005e-10 1.1406963934981556e-10
          9.575247490331645e-11 1.3382202378655598e-10 1.1386156347094084e-10 8.841456639480387e-11 1.993332254324389e-10 2.807126540506341e-10
          1.0714273689271527e-10 1.1632454710934587e-10 2.940139905350924e-10 3.480427314600644e-11 4.634735490254964e-11 6.253712335743299e-11
          1.1659566015360138e-10 1.1005377698781566e-10 9.298845182305259e-11 2.9226207928778037e-10 1.799150784812013e-10 1.6828756450947802e-10
          2.734775283407569e-10 1.3805795332420415e-10 2.2480681635072964e-10 4.588710888724034e-11 7.132239305689102e-11 6.01797762897068e-11
          1.6346357892349034e-10 4.393134230775948e-10 4.078266209065371e-10 3.2714419368965155e-10 1.0215512260420065e-9 9.411421558491428e-10
          7.368131837247279e-10 5.294395143155365e-10 2.2968034343875472e-10 3.720367178113482e-10 2.3492891999661583e-10 4.967722308619537e-10
          8.049620220650742e-10 2.9823012660756855e-10 4.838380445806757e-10 1.4095415163055918e-11 1.1989369275574625e-11 9.084078349688578e-11
          1.364223085262033e-10 9.738953664810195e-11 2.679661763242139e-10 2.20248358362837e-9 2.0225849371981874e-9 1.5599845314443917e-9
          4.289685097261261e-9 3.945058981174533e-9 3.030163618695836e-9 1.0169386461683228e-9 5.813363842839285e-10 1.931061899619238e-9
          6.283444910595256e-10 1.0588571083354377e-9 3.5754726788707674e-10 1.9550838977465963e-10 7.404896844056987e-9 4.507986210306052e-9
          4.151438488946594e-9 6.856336522234386e-9 3.1795449289454574e-9 5.3088093100494696e-9 2.5681786731440537e-9 2.356329675618191e-9
          1.3755881723862247e-9 1.2595800600345856e-9 1.793597445658496e-9 9.571393087817543e-10 1.9916684644161384e-9 3.351807735740705e-9
          1.057554570412472e-9 1.7821550605274256e-9 1.1224127181319129e-9 6.020902290606838e-10 5.998059970419947e-10 3.259539226060569e-10
          3.9308481097792443e-10 3.60162507642023e-10 1.906473860503569e-10 1.750422963073764e-10 2.7667514848064264e-10 1.3553458988984293e-10
          2.1469646810505427e-11 1.97055673790126e-11 1.8079693475015715e-11 8.864049549526408e-11 8.170629834201131e-11 3.9786384074788545e-11
          3.654525907200381e-11 6.394821207751518e-11 3.246892950887866e-11 1.8003928362187977e-10 8.96019386657578e-11 1.029397696573468e-10
          5.224892618872914e-11 4.309971408110368e-11 2.327498553395898e-11 2.5653803940404004e-11 2.1866797923889727e-11 6.963983850450825e-10
          6.373849848639163e-10 4.854924579097534e-10 3.0865848054344225e-10 1.7015674357174946e-10 9.409084889625496e-10 4.964491649612838e-10
          2.4863594341231254e-10 1.7090862530873137e-9 5.307468786229907e-10 8.587333909832722e-10 3.165048520531966e-10 2.541870125055205e-10
          4.121503271349993e-10 1.5210854983251902e-10 1.823479866448163e-10 1.012602090747008e-10 8.830369695395916e-11 9.24289175775461e-11
          1.2154080230989227e-10 8.089484814829146e-11 1.1767027213022125e-10 1.9154690291700453e-10 7.06737686100321e-11 7.29754867591158e-11
          4.1107236880939037e-11 2.647155145293281e-11 2.6256590151988348e-11 5.4103687024177567e-11 2.7930227588530985e-11 3.084911661385372e-11
          1.38764211269223e-11 9.116243662225345e-12 9.520339568972099e-12
        </DataArray>
        <DataArray type="Float64" Name="gradient_matprop_error" format="ascii" RangeMin="0" RangeMax="0">
          0 0 0 0 0 0
          0 0 0 0 0 0
          0 0 0 0 0 0
          0 0 0 0 0 0
          0 0 0 0 0 0
          0 0 0 0 0 0
          0 0 0 0 0 0
          0 0 0 0 0 0
          0 0 0 0 0 0
          0 0 0 0 0 0
          0 0 0 0 0 0
          0 0 0 0 0 0
          0 0 0 0 0 0
          0 0 0 0 0 0
          0 0 0 0 0 0
          0 0 0 0 0 0
          0 0 0 0 0 0
          0 0 0 0 0 0
          0 0 0 0 0 0
          0 0 0 0 0 0
          0 0 0 0 0 0
          0 0 0 0 0 0
          0 0 0 0 0 0
          0 0 0 0 0 0
          0 0 0 0 0 0
          0 0 0 0 0 0
          0 0 0 0 0 0
          0 0 0 0 0 0
          0 0 0 0 0 0
          0 0 0 0 0 0
          0 0 0 0 0 0
          0 0 0 0 0 0
          0 0 0 0 0 0
          0 0 0 0 0 0
          0 0 0 0 0 0
          0 0 0 0 0 0
          0 0 0 0 0 0
          0 0 0 0 0 0
          0 0 0 0 0 0
          0 0 0 0 0 0
          0 0 0 0 0 0
          0 0 0 0 0 0
          0 0 0 0 0 0
          0 0 0 0 0 0
          0 0 0 0 0 0
          0 0 0 0 0 0
          0 0 0 0 0 0
          0 0 0 0 0 0
          0 0 0 0 0 0
          0 0 0 0 0 0
          0 0 0 0 0 0
          0 0 0 0 0 0
          0 0 0 0 0 0
          0 0 0 0 0 0
          0 0 0 0 0 0
          0 0 0 0 0 0
          0 0 0 0 0 0
          0 0 0 0 0 0
          0 0 0 0 0 0
          0 0 0 0 0 0
          0 0 0 0 0 0
          0 0 0 0 0 0
          0 0 0 0 0 0
          0 0 0 0 0 0
          0 0 0 0 0 0
          0 0 0 0 0 0
          0 0 0 0 0 0
          0 0 0 0 0 0
          0 0 0 0 0 0
          0 0 0 0 0 0
          0 0 0 0 0 0
          0 0 0 0 0 0
          0 0 0 0 0 0
          0 0 0
        </DataArray>
        <DataArray type="Float64" Name="initial_marker" format="ascii" RangeMin="0" RangeMax="2">
          0 0 2 1.75 0 0
          2 1.75 0 1 0.75 0
          0.75 0 2 2 2 2
          0 0 0 0 0 0
          2 1.75 0.5 0 0 0
          0 0 0 0 0.75 0.25
          0 2 2 2 2 0
          0 0 0 0 0 0
          0 0 0 0 0 0
          0 0 0 0 0 0
          0 1 1 0 1 1
          0 1 1 2 0 0
          0.5 0.5 0 0 0 0
          0.5 0 1.5 1.5 1.3333333333333333 1.6666666666666667
          0 0.75 0 0.5 0 0.5
          0 1.75 1.6666666666666667 1.6666666666666667 2 2
          2 2 2 2 2 2
          2 1.75 2 2 2 2
          2 2 1.75 2 1.5 1.75
          0.5 1.25 0.5 1.25 1 2
          2 2 1 1 1.5 1.5
          0 1 1 0.5 1.25 1
          2 2 2 2 0 0
          0.5 0.5 0 0 0 0
          0.5 0 1.5 1.5 1.3333333333333333 0
          0.75 0 0.5 0 0.5 0
          1.75 1.6666666666666667 1.3333333333333333 1 1.5 0.5
          1 0 1 0.5 2 1.75
          1.6666666666666667 0 0.5 0 0.5 0
          0 0 1.5 1.3333333333333333 0.6666666666666666 2
          2 2 2 2 2 2
          2 2 2 2 2 2
          2 2 2 2 2 2
          2 2 2 2 2 2
          2 2 2 2 2 2
          1.75 2 2 1.75 1.5 1
          1.5 0 1 0.5 1 0.5
          2 2 1.75 1.5 2 1.75
          1.25 1 0.5 0.75 0 0.5
          0 0 0 0 0.25 0
          0 0 0 0 0.5 1
          0 0.5 0 0.5 0 0
          0.25 0 0 0 0 0
          0 0 0 0 0 0
          0 0 0 0 0 0
          0 0 0 0 0 0
          0 0 0 0 0 0
          0.25 0 0 1.5 0 0
          1.5 0 1.25 0.25 0 0
          0 0 0 0 0 0
          0 0 0 0 0 0
          0 0.5 0.25 0 0 0.5
          0 0 0 0 0 1
          1.5 1.5 1.25 2 2 2
          2 2 2 0 1 1
          2 2 2 2 2 2
          2 2 2 2 2 2
          2 2 2 0.5 0.6666666666666666 1
          1.5 1 2 2 2 2
          2 2 2 2 2 2
          2 2 2 2 2 2
          2 2 2 2 2 2
          2 2 2 2 2 2
          2 2 2 2 2 2
          2 2 2 2 2 2
          1.5 1.5 1.3333333333333333 2 2 2
          2 2 1.75 2 2 2
          2 2 1.6666666666666667 1.5 0.5 2
          2 2 2 2 2 2
          2 2 2 2 2 2
          2 2 2 2 1.75 1
          1 0 1.25 1.5 1 0.5
          0.75 0.3333333333333333 0 1.75 1.25 1
          0.5 0 0
        </DataArray>
        <DataArray type="Float64" Name="markers_norefine" format="ascii" RangeMin="0" RangeMax="0">
          0 0 0 0 0 0
          0 0 0 0 0 0
          0 0 0 0 0 0
          0 0 0 0 0 0
          0 0 0 0 0 0
          0 0 0 0 0 0
          0 0 0 0 0 0
          0 0 0 0 0 0
          0 0 0 0 0 0
          0 0 0 0 0 0
          0 0 0 0 0 0
          0 0 0 0 0 0
          0 0 0 0 0 0
          0 0 0 0 0 0
          0 0 0 0 0 0
          0 0 0 0 0 0
          0 0 0 0 0 0
          0 0 0 0 0 0
          0 0 0 0 0 0
          0 0 0 0 0 0
          0 0 0 0 0 0
          0 0 0 0 0 0
          0 0 0 0 0 0
          0 0 0 0 0 0
          0 0 0 0 0 0
          0 0 0 0 0 0
          0 0 0 0 0 0
          0 0 0 0 0 0
          0 0 0 0 0 0
          0 0 0 0 0 0
          0 0 0 0 0 0
          0 0 0 0 0 0
          0 0 0 0 0 0
          0 0 0 0 0 0
          0 0 0 0 0 0
          0 0 0 0 0 0
          0 0 0 0 0 0
          0 0 0 0 0 0
          0 0 0 0 0 0
          0 0 0 0 0 0
          0 0 0 0 0 0
          0 0 0 0 0 0
          0 0 0 0 0 0
          0 0 0 0 0 0
          0 0 0 0 0 0
          0 0 0 0 0 0
          0 0 0 0 0 0
          0 0 0 0 0 0
          0 0 0 0 0 0
          0 0 0 0 0 0
          0 0 0 0 0 0
          0 0 0 0 0 0
          0 0 0 0 0 0
          0 0 0 0 0 0
          0 0 0 0 0 0
          0 0 0 0 0 0
          0 0 0 0 0 0
          0 0 0 0 0 0
          0 0 0 0 0 0
          0 0 0 0 0 0
          0 0 0 0 0 0
          0 0 0 0 0 0
          0 0 0 0 0 0
          0 0 0 0 0 0
          0 0 0 0 0 0
          0 0 0 0 0 0
          0 0 0 0 0 0
          0 0 0 0 0 0
          0 0 0 0 0 0
          0 0 0 0 0 0
          0 0 0 0 0 0
          0 0 0 0 0 0
          0 0 0 0 0 0
          0 0 0
        </DataArray>
        <DataArray type="Float64" Name="markers_mustrefine" format="ascii" RangeMin="0" RangeMax="2">
          0 0 2 1.75 0 0
          2 1.75 0 1 0.75 0
          0.75 0 2 2 2 2
          0 0 0 0 0 0
          2 1.75 0.5 0 0 0
          0 0 0 0 0.75 0.25
          0 2 2 2 2 0
          0 0 0 0 0 0
          0 0 0 0 0 0
          0 0 0 0 0 0
          0 1 1 0 1 1
          0 1 1 2 0 0
          0.5 0.5 0 0 0 0
          0.5 0 1.5 1.5 1.3333333333333333 1.6666666666666667
          0 0.75 0 0.5 0 0.5
          0 1.75 1.6666666666666667 1.6666666666666667 2 2
          2 2 2 2 2 2
          2 1.75 2 2 2 2
          2 2 1.75 2 1.5 1.75
          0.5 1.25 0.5 1.25 1 2
          2 2 1 1 1.5 1.5
          0 1 1 0.5 1.25 1
          2 2 2 2 0 0
          0.5 0.5 0 0 0 0
          0.5 0 1.5 1.5 1.3333333333333333 0
          0.75 0 0.5 0 0.5 0
          1.75 1.6666666666666667 1.3333333333333333 1 1.5 0.5
          1 0 1 0.5 2 1.75
          1.6666666666666667 0 0.5 0 0.5 0
          0 0 1.5 1.3333333333333333 0.6666666666666666 2
          2 2 2 2 2 2
          2 2 2 2 2 2
          2 2 2 2 2 2
          2 2 2 2 2 2
          2 2 2 2 2 2
          1.75 2 2 1.75 1.5 1
          1.5 0 1 0.5 1 0.5
          2 2 1.75 1.5 2 1.75
          1.25 1 0.5 0.75 0 0.5
          0 0 0 0 0.25 0
          0 0 0 0 0.5 1
          0 0.5 0 0.5 0 0
          0.25 0 0 0 0 0
          0 0 0 0 0 0
          0 0 0 0 0 0
          0 0 0 0 0 0
          0 0 0 0 0 0
          0.25 0 0 1.5 0 0
          1.5 0 1.25 0.25 0 0
          0 0 0 0 0 0
          0 0 0 0 0 0
          0 0.5 0.25 0 0 0.5
          0 0 0 0 0 1
          1.5 1.5 1.25 2 2 2
          2 2 2 0 1 1
          2 2 2 2 2 2
          2 2 2 2 2 2
          2 2 2 0.5 0.6666666666666666 1
          1.5 1 2 2 2 2
          2 2 2 2 2 2
          2 2 2 2 2 2
          2 2 2 2 2 2
          2 2 2 2 2 2
          2 2 2 2 2 2
          2 2 2 2 2 2
          1.5 1.5 1.3333333333333333 2 2 2
          2 2 1.75 2 2 2
          2 2 1.6666666666666667 1.5 0.5 2
          2 2 2 2 2 2
          2 2 2 2 2 2
          2 2 2 2 1.75 1
          1 0 1.25 1.5 1 0.5
          0.75 0.3333333333333333 0 1.75 1.25 1
          0.5 0 0
        </DataArray>
        <DataArray type="Float64" Name="gradient_marker" format="ascii" RangeMin="1" RangeMax="1">
          1 1 1 1 1 1
          1 1 1 1 1 1
          1 1 1 1 1 1
          1 1 1 1 1 1
          1 1 1 1 1 1
          1 1 1 1 1 1
          1 1 1 1 1 1
          1 1 1 1 1 1
          1 1 1 1 1 1
          1 1 1 1 1 1
          1 1 1 1 1 1
          1 1 1 1 1 1
          1 1 1 1 1 1
          1 1 1 1 1 1
          1 1 1 1 1 1
          1 1 1 1 1 1
          1 1 1 1 1 1
          1 1 1 1 1 1
          1 1 1 1 1 1
          1 1 1 1 1 1
          1 1 1 1 1 1
          1 1 1 1 1 1
          1 1 1 1 1 1
          1 1 1 1 1 1
          1 1 1 1 1 1
          1 1 1 1 1 1
          1 1 1 1 1 1
          1 1 1 1 1 1
          1 1 1 1 1 1
          1 1 1 1 1 1
          1 1 1 1 1 1
          1 1 1 1 1 1
          1 1 1 1 1 1
          1 1 1 1 1 1
          1 1 1 1 1 1
          1 1 1 1 1 1
          1 1 1 1 1 1
          1 1 1 1 1 1
          1 1 1 1 1 1
          1 1 1 1 1 1
          1 1 1 1 1 1
          1 1 1 1 1 1
          1 1 1 1 1 1
          1 1 1 1 1 1
          1 1 1 1 1 1
          1 1 1 1 1 1
          1 1 1 1 1 1
          1 1 1 1 1 1
          1 1 1 1 1 1
          1 1 1 1 1 1
          1 1 1 1 1 1
          1 1 1 1 1 1
          1 1 1 1 1 1
          1 1 1 1 1 1
          1 1 1 1 1 1
          1 1 1 1 1 1
          1 1 1 1 1 1
          1 1 1 1 1 1
          1 1 1 1 1 1
          1 1 1 1 1 1
          1 1 1 1 1 1
          1 1 1 1 1 1
          1 1 1 1 1 1
          1 1 1 1 1 1
          1 1 1 1 1 1
          1 1 1 1 1 1
          1 1 1 1 1 1
          1 1 1 1 1 1
          1 1 1 1 1 1
          1 1 1 1 1 1
          1 1 1 1 1 1
          1 1 1 1 1 1
          1 1 1 1 1 1
          1 1 1
        </DataArray>
        <DataArray type="Float64" Name="gradient_matprop_marker" format="ascii" RangeMin="0" RangeMax="0">
          0 0 0 0 0 0
          0 0 0 0 0 0
          0 0 0 0 0 0
          0 0 0 0 0 0
          0 0 0 0 0 0
          0 0 0 0 0 0
          0 0 0 0 0 0
          0 0 0 0 0 0
          0 0 0 0 0 0
          0 0 0 0 0 0
          0 0 0 0 0 0
          0 0 0 0 0 0
          0 0 0 0 0 0
          0 0 0 0 0 0
          0 0 0 0 0 0
          0 0 0 0 0 0
          0 0 0 0 0 0
          0 0 0 0 0 0
          0 0 0 0 0 0
          0 0 0 0 0 0
          0 0 0 0 0 0
          0 0 0 0 0 0
          0 0 0 0 0 0
          0 0 0 0 0 0
          0 0 0 0 0 0
          0 0 0 0 0 0
          0 0 0 0 0 0
          0 0 0 0 0 0
          0 0 0 0 0 0
          0 0 0 0 0 0
          0 0 0 0 0 0
          0 0 0 0 0 0
          0 0 0 0 0 0
          0 0 0 0 0 0
          0 0 0 0 0 0
          0 0 0 0 0 0
          0 0 0 0 0 0
          0 0 0 0 0 0
          0 0 0 0 0 0
          0 0 0 0 0 0
          0 0 0 0 0 0
          0 0 0 0 0 0
          0 0 0 0 0 0
          0 0 0 0 0 0
          0 0 0 0 0 0
          0 0 0 0 0 0
          0 0 0 0 0 0
          0 0 0 0 0 0
          0 0 0 0 0 0
          0 0 0 0 0 0
          0 0 0 0 0 0
          0 0 0 0 0 0
          0 0 0 0 0 0
          0 0 0 0 0 0
          0 0 0 0 0 0
          0 0 0 0 0 0
          0 0 0 0 0 0
          0 0 0 0 0 0
          0 0 0 0 0 0
          0 0 0 0 0 0
          0 0 0 0 0 0
          0 0 0 0 0 0
          0 0 0 0 0 0
          0 0 0 0 0 0
          0 0 0 0 0 0
          0 0 0 0 0 0
          0 0 0 0 0 0
          0 0 0 0 0 0
          0 0 0 0 0 0
          0 0 0 0 0 0
          0 0 0 0 0 0
          0 0 0 0 0 0
          0 0 0 0 0 0
          0 0 0
        </DataArray>
        <DataArray type="Float64" Name="combo" format="ascii" RangeMin="1" RangeMax="1">
          1 1 1 1 1 1
          1 1 1 1 1 1
          1 1 1 1 1 1
          1 1 1 1 1 1
          1 1 1 1 1 1
          1 1 1 1 1 1
          1 1 1 1 1 1
          1 1 1 1 1 1
          1 1 1 1 1 1
          1 1 1 1 1 1
          1 1 1 1 1 1
          1 1 1 1 1 1
          1 1 1 1 1 1
          1 1 1 1 1 1
          1 1 1 1 1 1
          1 1 1 1 1 1
          1 1 1 1 1 1
          1 1 1 1 1 1
          1 1 1 1 1 1
          1 1 1 1 1 1
          1 1 1 1 1 1
          1 1 1 1 1 1
          1 1 1 1 1 1
          1 1 1 1 1 1
          1 1 1 1 1 1
          1 1 1 1 1 1
          1 1 1 1 1 1
          1 1 1 1 1 1
          1 1 1 1 1 1
          1 1 1 1 1 1
          1 1 1 1 1 1
          1 1 1 1 1 1
          1 1 1 1 1 1
          1 1 1 1 1 1
          1 1 1 1 1 1
          1 1 1 1 1 1
          1 1 1 1 1 1
          1 1 1 1 1 1
          1 1 1 1 1 1
          1 1 1 1 1 1
          1 1 1 1 1 1
          1 1 1 1 1 1
          1 1 1 1 1 1
          1 1 1 1 1 1
          1 1 1 1 1 1
          1 1 1 1 1 1
          1 1 1 1 1 1
          1 1 1 1 1 1
          1 1 1 1 1 1
          1 1 1 1 1 1
          1 1 1 1 1 1
          1 1 1 1 1 1
          1 1 1 1 1 1
          1 1 1 1 1 1
          1 1 1 1 1 1
          1 1 1 1 1 1
          1 1 1 1 1 1
          1 1 1 1 1 1
          1 1 1 1 1 1
          1 1 1 1 1 1
          1 1 1 1 1 1
          1 1 1 1 1 1
          1 1 1 1 1 1
          1 1 1 1 1 1
          1 1 1 1 1 1
          1 1 1 1 1 1
          1 1 1 1 1 1
          1 1 1 1 1 1
          1 1 1 1 1 1
          1 1 1 1 1 1
          1 1 1 1 1 1
          1 1 1 1 1 1
          1 1 1 1 1 1
          1 1 1
        </DataArray>
        <DataArray type="Float64" Name="dHdT" format="ascii" RangeMin="25.81169396829183" RangeMax="27.311110899379507">
          25.8128893861048 25.812898975411088 25.841759820251703 25.820597873616116 25.815097416249117 25.81475258864071
          25.829434970637134 25.825036798024403 25.813342738051336 25.816995359989676 25.81596100973937 25.81471190576664
          25.818632016898036 25.814217547235657 25.912894350827262 25.882762028346622 25.83319498311416 25.84058919981307
          25.812673173013234 25.812557851423616 25.813297517842745 25.81303545221314 25.81232345561346 25.812669378472446
          25.81934956963307 25.8171707505828 25.814192997977315 25.814558949846383 25.815596198122563 25.8128602764968
          25.813259018413504 25.813862510019284 25.815089871947386 25.813053184716573 25.82099090603866 25.814781115824584
          25.81642133908063 26.278562541358788 26.116077250130765 25.946064542918123 25.90055514619805 25.812873177099103
          25.812535616037565 25.81251395704037 25.813206897242615 25.81311571938791 25.812177616711818 25.812490479598786