<?xml version="1.0"?>
<VTKFile type="UnstructuredGrid" version="0.1" byte_order="LittleEndian" header_type="UInt32" compressor="vtkZLibDataCompressor">
  <UnstructuredGrid>
    <Piece NumberOfPoints="574" NumberOfCells="248">
      <PointData>
        <DataArray type="Int32" Name="libmesh_node_id" format="ascii" RangeMin="16" RangeMax="4111">
          20 21 22 23 24 25
          26 27 28 29 30 31
          32 33 34 35 36 37
          38 39 50 51 52 53
          54 55 56 57 58 59
          70 71 72 73 74 75
          76 77 78 79 85 86
          87 88 89 100 101 102
          103 104 105 106 107 108
          109 115 116 117 118 119
          130 131 132 133 134 135
          136 137 138 139 145 146
          147 148 149 158 159 162
          163 164 165 166 167 168
          169 174 175 176 177 178
          179 188 189 191 193 195
          196 197 198 199 204 205
          206 207 208 209 212 213
          216 222 226 228 233 235
          238 242 243 244 246 247
          248 249 250 251 252 255
          256 267 268 270 271 272
          273 274 275 276 277 278
          279 280 281 282 283 284
          287 288 291 297 301 333
          336 339 350 355 360 361
          364 365 366 367 368 369
          372 374 375 376 377 380
          381 384 385 386 387 388
          389 392 393 394 395 396
          397 398 399 400 401 402
          403 404 405 406 407 408
          409 410 411 412 413 414
          415 416 417 418 419 420
          421 422 423 424 425 426
          427 428 429 430 431 456
          457 458 459 460 461 462
          463 464 465 466 468 470
          471 472 473 474 475 476
          478 479 480 481 482 483
          484 485 486 487 488 489
          490 491 492 493 494 495
          496 497 498 499 500 501
          502 503 504 505 506 507
          508 509 510 511 513 514
          515 516 517 518 519 520
          521 522 523 524 525 526
          527 528 529 530 531 532
          533 534 535 536 537 538
          539 540 541 542 543 544
          548 549 550 552 553 554
          556 761 766 803 811 812
          815 818 819 820 839 840
          841 844 847 849 850 851
          852 853 854 855 856 857
          858 859 860 861 862 865
          866 868 870 872 875 876
          877 878 880 882 887 888
          889 892 895 896 898 899
          900 901 902 903 904 905
          906 907 908 909 910 911
          912 913 914 915 919 920
          921 1015 1016 1019 1030 1031
          1032 1033 1034 1035 1036 1037
          1039 1057 1058 1059 1060 1061
          1062 1063 1064 1065 1066 1067
          1068 1069 1070 1681 1682 1683
          1684 1685 1686 1687 1688 1689
          1690 1713 1714 1715 1718 1719
          1720 1721 1722 1723 1724 1725
          1726 1727 1728 1729 1730 1731
          1732 1733 1734 1735 1736 1737
          1738 1739 1740 1741 1742 4060
          4062 4064 4065 4067 4069 4102
          4103 4107 4110 4111 16 17
          18 19 48 49 68 69
          84 98 99 114 128 129
          144 127 143 157 173 161
          211 220 215 221 230 236
          232 237 257 258 261 262
          264 265 286 295 290 296
          378 379 382 383 210 217
          390 391 229 223 450 451
          452 455 467 469 477 512
          289 545 546 547 551 299
          555 300 863 864 434 435
          438 867 444 285 869 871
          873 874 303 879 881 883
          884 885 886 890 891 893
          894 897 916 917 918 922
          930 932 937 940 4008 4009
          4012 4013 4015 4016 4061 266
          4063 4066 187 4068 203 4084
          4085 4089 4090 4087 4092 4094
          4095 4097 4098 4100 4104 4105
          4108 4101 4106 4109
        </DataArray>
        <DataArray type="Float64" Name="bounds" format="ascii" RangeMin="0" RangeMax="0">
          0 0 0 0 0 0
          0 0 0 0 0 0
          0 0 0 0 0 0
          0 0 0 0 0 0
          0 0 0 0 0 0
          0 0 0 0 0 0
          0 0 0 0 0 0
          0 0 0 0 0 0
          0 0 0 0 0 0
          0 0 0 0 0 0
          0 0 0 0 0 0
          0 0 0 0 0 0
          0 0 0 0 0 0
          0 0 0 0 0 0
          0 0 0 0 0 0
          0 0 0 0 0 0
          0 0 0 0 0 0
          0 0 0 0 0 0
          0 0 0 0 0 0
          0 0 0 0 0 0
          0 0 0 0 0 0
          0 0 0 0 0 0
          0 0 0 0 0 0
          0 0 0 0 0 0
          0 0 0 0 0 0
          0 0 0 0 0 0
          0 0 0 0 0 0
          0 0 0 0 0 0
          0 0 0 0 0 0
          0 0 0 0 0 0
          0 0 0 0 0 0
          0 0 0 0 0 0
          0 0 0 0 0 0
          0 0 0 0 0 0
          0 0 0 0 0 0
          0 0 0 0 0 0
          0 0 0 0 0 0
          0 0 0 0 0 0
          0 0 0 0 0 0
          0 0 0 0 0 0
          0 0 0 0 0 0
          0 0 0 0 0 0
          0 0 0 0 0 0
          0 0 0 0 0 0
          0 0 0 0 0 0
          0 0 0 0 0 0
          0 0 0 0 0 0
          0 0 0 0 0 0
          0 0 0 0 0 0
          0 0 0 0 0 0
          0 0 0 0 0 0
          0 0 0 0 0 0
          0 0 0 0 0 0
          0 0 0 0 0 0
          0 0 0 0 0 0
          0 0 0 0 0 0
          0 0 0 0 0 0
          0 0 0 0 0 0
          0 0 0 0 0 0
          0 0 0 0 0 0
          0 0 0 0 0 0
          0 0 0 0 0 0
          0 0 0 0 0 0
          0 0 0 0 0 0
          0 0 0 0 0 0
          0 0 0 0 0 0
          0 0 0 0 0 0
          0 0 0 0 0 0
          0 0 0 0 0 0
          0 0 0 0 0 0
          0 0 0 0 0 0
          0 0 0 0 0 0
          0 0 0 0 0 0
          0 0 0 0 0 0
          0 0 0 0 0 0
          0 0 0 0 0 0
          0 0 0 0 0 0
          0 0 0 0 0 0
          0 0 0 0 0 0
          0 0 0 0 0 0
          0 0 0 0 0 0
          0 0 0 0 0 0
          0 0 0 0 0 0
          0 0 0 0 0 0
          0 0 0 0 0 0
          0 0 0 0 0 0
          0 0 0 0 0 0
          0 0 0 0 0 0
          0 0 0 0 0 0
          0 0 0 0 0 0
          0 0 0 0 0 0
          0 0 0 0 0 0
          0 0 0 0 0 0
          0 0 0 0 0 0
          0 0 0 0 0 0
          0 0 0 0
        </DataArray>
        <DataArray type="Float64" Name="gradient_error" format="ascii" RangeMin="1.5440734076516879e-12" RangeMax="0.000002117276457496438">
          1.5376330334339614e-10 1.1633457166250883e-10 2.98429458169663e-10 1.8867284539304504e-10 7.283358615583042e-11 7.510496679519269e-11
          1.0009642830431274e-10 8.851424547787431e-11 7.479059333007139e-11 7.533730363050118e-11 7.848688163227784e-11 7.724686412292054e-11
          7.569236971363822e-11 7.576063757504537e-11 7.652452024543724e-11 7.635419318255566e-11 7.590131450325914e-11 7.589850522850558e-11
          7.614852766785875e-11 7.611309738788626e-11 7.890583998162151e-11 7.891623261642702e-11 7.737634743455495e-11 7.693206265143588e-11
          7.588401393093097e-11 7.600684661356324e-11 7.582890543645249e-11 7.618386611967407e-11 7.589569595375202e-11 7.607766710791375e-11
          1.1092268798018068e-9 6.42234647881454e-10 1.8870398323101793e-10 1.5355867131498495e-10 7.819712759008074e-11 7.86881142641139e-11
          7.297561634785806e-11 7.405115262024037e-11 7.382769092750367e-11 7.454655834659993e-11 1.7524241596110132e-10 1.1841335939895194e-10
          7.917910093814706e-11 7.512668889262269e-11 7.526542576569619e-11 4.3383343314449074e-9 2.54329978016403e-9 5.737001599292517e-10
          4.724772128315111e-10 1.3989125445825478e-10 1.2838931752849903e-10 9.042069901907973e-11 8.618839698748489e-11 8.848678139623272e-11
          8.531796068613181e-11 7.482652288831529e-10 3.712542657337705e-10 1.1688738059874327e-10 8.195609495589005e-11 8.214913997603091e-11
          4.614389755688199e-9 4.475035023646797e-9 6.642726061479041e-10 9.55719365453617e-10 1.3315288761366802e-10 2.047177740083796e-10
          1.013874737678523e-10 9.541968186407421e-11 1.0001420574159328e-10 9.375650557707135e-11 4.848682670699726e-9 1.3309852082955246e-9
          2.735637727790769e-10 8.945188996029611e-11 8.74988054125494e-11 7.017049220111912e-7 1.0221007255378138e-7 1.928161025518285e-9
          3.2049514010673105e-9 5.247684328226384e-11 1.913022223773159e-10 6.841127346788674e-11 6.768272805153925e-11 8.557191162022957e-11
          7.644521416551281e-11 1.2377918845275045e-8 4.898451370017069e-9 1.2023724416184574e-9 2.2041374827024077e-10 6.779581595497729e-11
          6.731851671079606e-11 1.7844494450626904e-7 6.717612498798559e-7 1.1704015083251285e-8 2.326846716270833e-9 4.734152274968845e-11
          4.3388776767776795e-11 4.658609855020705e-11 7.682933352718903e-11 6.324791140321361e-11 5.04731554414319e-8 2.5765119784514413e-9
          4.375676227796871e-10 3.92651655779627e-11 4.6885490918792727e-11 4.9666489279238213e-11 4.266823572724664e-7 0.000001236804258162093
          9.88779457312281e-7 4.1266567097652996e-7 0.0000012129838844984887 6.359572775309652e-8 3.2476025290219273e-9 4.5867818860320855e-8
          3.4746511512188152e-9 4.784464366399858e-9 2.8869342921864766e-10 9.168305876825956e-10 9.492294194255271e-10 1.0529053498034267e-10
          2.2417232634176244e-11 8.251314633187038e-11 1.2004985482804682e-9 9.545480390914858e-10 1.0744902794119455e-10 4.0802773240623643e-11
          3.427893908886668e-10 0.0000017109645806013015 0.0000016052095744013442 7.145345027456932e-7 3.1849478811155514e-11 2.941799934599102e-11
          1.9121367492198338e-11 2.6294986187495743e-11 1.4076270872736835e-11 1.2853878760336217e-11 1.346121014747299e-11 2.6986519880826528e-11
          3.269045529648422e-11 1.4068541534609758e-11 5.941445386647522e-12 2.312840205842121e-11 1.284614942220914e-11 3.8394390712141914e-11
          9.545659651730167e-7 7.799545286875347e-7 0.000001031091585673761 9.508128658941795e-7 7.9106607927113e-7 7.971695282102756e-8
          5.580993226902035e-8 6.538004443737614e-8 2.841798601584368e-10 6.345711336930018e-10 2.7480290750818017e-11 6.410386876744542e-11
          2.7250871168031154e-11 1.2288050718778549e-11 1.523442858094596e-11 1.1585080877509717e-10 1.194632072475705e-10 3.788515466570216e-11
          1.0669977715258271e-11 2.0313281521730296e-8 1.198686969647735e-8 2.6202554851813227e-8 1.4759656924124948e-7 8.496912854794269e-8
          1.8144666159999374e-9 3.6604578712244045e-9 1.22947233861204e-8 2.2341687854635864e-8 4.6427624893519085e-9 1.210861721543334e-9
          8.251404813497243e-10 3.4737450491035086e-10 1.0367500913869002e-9 9.244212941273495e-10 4.394192411561146e-10 1.6579654836376954e-9
          8.120924968677987e-10 9.245721738147846e-11 1.089155329677846e-10 2.794489202309098e-10 3.0328736261661223e-10 4.0164745242255804e-11
          5.091580300821521e-11 6.648825688075138e-11 1.2537384855409073e-10 3.271258050023146e-10 8.206071075328757e-11 1.760222648836302e-9
          4.721705076866774e-9 2.113663943480928e-9 5.849637686258178e-9 9.039641405064278e-10 9.677734282902196e-10 5.230634434926257e-10
          9.539902078421894e-10 1.950510814090731e-9 3.812558399817535e-10 2.4671052381255538e-9 6.9775702956495826e-9 1.0315827160740112e-9
          1.3849169721917531e-9 3.689571159426106e-10 3.4413111829229587e-10 8.165401388762393e-11 6.66230109726488e-11 1.4981128212802388e-10
          1.273082492200232e-10 4.0406862619331066e-11 3.1930512064198106e-10 5.1592008057673665e-11 1.0480521631202253e-10 4.7247460773639455e-9
          3.853080442620313e-9 2.501107874428377e-8 1.6457945072465568e-8 2.1525492120413283e-9 1.0088279227494687e-8 6.799671585315668e-9
          2.9814148078766808e-9 7.90481140064736e-9 3.5110639431366485e-9 1.0332395141931663e-8 1.591950966081244e-8 7.426862955965355e-9
          9.414461178255384e-9 3.830229117527635e-9 4.295346620815256e-9 4.983460681031847e-9 2.960863606412776e-9 2.1506624179693223e-8
          1.1402059400545414e-8 4.760464124102877e-9 5.982613415268329e-10 6.931953164657083e-10 2.8084453166638416e-9 2.0392810186282632e-9
          1.492176339613944e-10 1.0611383659757545e-10 2.3961761916053306e-10 7.881292914045837e-10 1.334345430379217e-9 3.8782648627565886e-10
          9.613207376044618e-12 2.401714338123184e-11 1.492565915300122e-11 5.368719974541377e-11 1.6665969651107195e-11 1.7990660172796286e-11
          2.7868397079782948e-11 3.842107938641906e-11 9.124455309271446e-11 3.774613398676962e-11 2.496633607839116e-9 2.982918798980174e-9
          3.994835700147503e-10 4.76712073294154e-10 1.061129979987179e-9 9.720131932424156e-10 1.817715024042658e-10 3.469203990121232e-9
          5.539405765735574e-10 8.828964064976521e-10 0.000002094453757468169 0.000001730364010707793 0.00000183637298698845 0.0000015702414167907892
          0.0000016546531320556086 0.0000017485220139903221 0.0000013662742639474174 0.0000017417753607219278 0.0000012241968535765264 0.0000010250485742686572
          0.0000015829618790743841 0.0000018500098449614258 0.000002117276457496438 6.544655214583951e-12 7.026956212697179e-12 4.160109031062039e-12
          6.106306942236958e-12 4.394591510735616e-12 2.386481551524126e-12 4.1251151468595455e-12 7.509257210810407e-12 8.078449659691534e-12
          5.863748742194965e-12 1.711571092053426e-12 5.2074075945507055e-12 3.855638782983475e-12 8.64764210857266e-12 3.401162948313473e-7
          3.3526246978153576e-7 3.2048504563996013e-7 2.5106878361630283e-7 2.6599040072942315e-7 3.138356660526092e-7 2.935194846166787e-7
          3.1739318546186856e-7 3.397995185247132e-7 3.248114387671993e-7 1.9088417992445964e-7 2.7248535344987344e-7 2.5663239689192887e-7
          3.492802357001962e-7 1.1288796872473159e-10 1.9774871085430196e-10 3.3393033176769973e-10 3.617484682656198e-11 6.020989036403347e-11
          2.94200131785278e-11 7.694685228846219e-11 9.870840398400488e-11 3.326683694590132e-11 1.0201256188889721e-11 1.0306618955648278e-11
          9.803234270068397e-12 8.949145583953653e-12 7.837909201677466e-12 1.2414646012890637e-8 2.2751556981573922e-8 3.60872738564366e-8
          8.357880589302794e-8 3.651550182797563e-9 1.2185825867549814e-8 2.847724130738014e-8 5.975990169998256e-8 1.4440605480448194e-7
          2.0720101552302065e-8 1.2400088302442687e-7 9.67038695393498e-8 1.490507244678864e-7 3.035691828484117e-7 2.3461624699389716e-7
          6.940685605427274e-8 1.6566331113938262e-7 1.5514712009936704e-7 2.202191249516502e-7 6.69019367583155e-8 9.178751800985705e-8
          1.4200174235226114e-7 2.734265975022053e-8 2.8529112980393337e-7 1.166730992613986e-7 1.3313556339472862e-8 1.2339152836310418e-8
          1.0510873693208983e-8 1.136474933314797e-8 5.7715345409767284e-9 7.556824902793862e-9 9.342115264610994e-9 1.012633381657548e-10
          1.177057266440194e-10 4.109710252797364e-11 4.440506342003277e-11 4.267873585354959e-11 3.975983824797335e-11 2.0229983715998912e-11
          1.34148115122284e-10 4.7713024312091894e-11 3.684094064239711e-11 2.6732740128950225e-7 2.4857179241711655e-7 2.555823637937934e-7
          3.009765592394031e-7 3.03231684708905e-7 2.8195537666242156e-7 2.781121780154085e-7 2.2981618354473086e-7 2.6067906861593804e-7
          2.552477967914139e-7 2.2302112724166002e-10 2.342525684281434e-10 2.1915184141267548e-10 5.285516477141625e-11 9.082151600656724e-11
          3.3216054416324545e-11 4.306928236153658e-11 4.1682785490766306e-11 5.645910564066308e-11 3.376373719229682e-11 1.0630732860287568e-10
          1.0699859782367254e-10 2.9206794986185837e-7 2.912946056032707e-7 2.6565046064533474e-7 2.500909856035828e-7 2.4719223278982485e-7
          2.7115983706452977e-7 2.591798353939188e-7 2.9052126134468307e-7 2.9512744133923474e-7 2.682686851842548e-7 2.0231651571779127e-7
          2.510250685257888e-7 2.527092101425029e-7 2.997336213337864e-7 2.61052279381384e-7 2.5648983913829786e-7 2.831400407536333e-7
          2.796330849046758e-7 2.3074229184061094e-7 2.4836197583363553e-7 2.567722247418625e-7 3.0522780212588266e-7 3.0277633067105374e-7
          2.659816598266602e-7 8.657635328602852e-11 1.2688107065834143e-10 1.1200620892628858e-10 9.713134719423571e-11 2.7449989223737786e-11
          2.887826580968842e-11 3.295867557765351e-11 3.599143896735231e-11 1.5024859882616006e-11 1.3582035891004631e-11 1.96113542463237e-11
          3.0306542395639056e-11 3.902420235705111e-11 2.5640672601642766e-11 2.978280906388483e-12 2.6147387543122936e-12 3.205667553780782e-12
          2.840745401476317e-12 1.5645653175904495e-12 1.552463174663066e-12 1.5543193626210685e-12 2.2511966022361047e-12 2.4758232491718518e-12
          1.5561755505790713e-12 3.433054201173081e-12 3.0667520486403396e-12 1.5440734076516879e-12 2.700449896107598e-12 2.881069527613999e-8
          9.38099164092086e-8 7.10800210718001e-9 2.8457451449162288e-8 1.5880913754227719e-7 4.980690079114457e-8 2.244348983115242e-7
          2.91776515053469e-7 2.3230455136174567e-7 3.591181317954138e-7 2.817863317782475e-7 2.397798616130337e-10 1.6293231699813526e-10
          4.94479029769661e-10 3.0109647874436486e-10 8.608477238323677e-11 1.0771392771906873e-10 1.970644911814435e-9 1.15969783429704e-9
          3.4875075677964493e-10 7.85629208078913e-9 4.727575748565137e-9 1.5988594163411416e-9 2.9402996066664326e-8 9.886033390362192e-9
          1.0452035459699803e-8 1.2044418248553137e-8 1.4695907691439538e-8 1.8270387709697127e-7 1.492170302015564e-8 2.112732606121871e-8
          7.813728607847754e-8 6.718824987269881e-8 3.022006554433222e-7 7.643225710166355e-8 7.811688159437123e-9 8.920167499023922e-9
          2.7350055221910768e-8 7.845142602083795e-9 7.430424082129411e-7 4.832278891179624e-7 0.0000016157597007941685 0.0000010385100743435985
          1.888334516709714e-7 4.696979280916313e-7 5.44770893802456e-7 5.743746137592964e-7 5.817121750764607e-7 5.318215779461197e-7
          6.269169928835186e-8 3.749321133723613e-8 7.346601229134402e-9 5.994681859243155e-9 6.820089580269099e-8 2.2346082671112387e-8
          2.422292931700069e-9 2.0401292076688827e-9 5.88077799772458e-9 2.210595621459584e-8 5.988869853296127e-9 5.2856679095185594e-8
          3.630974181681822e-8 1.9762804538450847e-8 1.5852431411831175e-8 2.7367513907869882e-8 3.8882596403908596e-8 0.000001218175304089415
          3.6336200130860174e-7 3.6103257466978105e-7 2.855640869217632e-7 3.3746257080473187e-7 3.6631525760498446e-7 2.099930536279543e-7
          2.9302471327808267e-7 3.746168874410969e-7 2.79889847766636e-7 2.1305553922912447e-7 2.9211847017116224e-8 2.3133953687917895e-7
          1.7201904477107217e-7 1.4622123069161297e-7 1.1269855266296537e-7 3.4527709048030036e-7 1.3545464377694192e-7 1.97878332077159e-7
          1.0183869376283352e-7 1.555129536060842e-7 3.2736725679023954e-7 2.6030202037737604e-7 2.0918721344933487e-7 7.80512823601853e-8
          1.196878810449491e-7 5.5625471161506695e-8 8.604072785040347e-8 1.6132447972971291e-7 1.1645598453930025e-7 3.230083323803525e-8
          5.235778631489752e-8 7.241473939175979e-8 2.394818203352066e-7 3.1018212542669356e-7 2.8982327067169383e-7 2.694644159166941e-7
          2.683143267163714e-7 2.901524068684628e-7 2.3703535321465722e-7 3.1199048702055426e-7 4.486201311369588e-8 2.557479862996947e-8
          1.608833845836508e-7 9.453120732520333e-8 6.287584146243063e-9 2.8179030066755858e-8 2.850427690839122e-8 2.47603895675635e-7
          6.500863780405292e-8 1.5236648565524075e-8 2.1622072400431653e-7 1.0151299869971463e-7 2.5030993919226715e-8 0.0000011327168078571654
          9.658730382854638e-7 0.0000016570370371805709 0.000001604658632740447 6.362515722410022e-7 9.693331613148621e-7 0.000001515398199473761
          0.0000016703884072474716 0.0000011437273121922512 2.36254676971839e-7 3.040929237713114e-7 1.618131746481954e-7 2.2179975321322145e-7
          3.719311705707837e-7 3.2682602963864237e-7 2.0600689278772498e-7 3.953625239643584e-7
        </DataArray>
        <DataArray type="Float64" Name="gradient_matprop_error" format="ascii" RangeMin="0" RangeMax="0">
          0 0 0 0 0 0
          0 0 0 0 0 0
          0 0 0 0 0 0
          0 0 0 0 0 0
          0 0 0 0 0 0
          0 0 0 0 0 0
          0 0 0 0 0 0
          0 0 0 0 0 0
          0 0 0 0 0 0
          0 0 0 0 0 0
          0 0 0 0 0 0
          0 0 0 0 0 0
          0 0 0 0 0 0
          0 0 0 0 0 0
          0 0 0 0 0 0
          0 0 0 0 0 0
          0 0 0 0 0 0
          0 0 0 0 0 0
          0 0 0 0 0 0
          0 0 0 0 0 0
          0 0 0 0 0 0
          0 0 0 0 0 0
          0 0 0 0 0 0
          0 0 0 0 0 0
          0 0 0 0 0 0
          0 0 0 0 0 0
          0 0 0 0 0 0
          0 0 0 0 0 0
          0 0 0 0 0 0
          0 0 0 0 0 0
          0 0 0 0 0 0
          0 0 0 0 0 0
          0 0 0 0 0 0
          0 0 0 0 0 0
          0 0 0 0 0 0
          0 0 0 0 0 0
          0 0 0 0 0 0
          0 0 0 0 0 0
          0 0 0 0 0 0
          0 0 0 0 0 0
          0 0 0 0 0 0
          0 0 0 0 0 0
          0 0 0 0 0 0
          0 0 0 0 0 0
          0 0 0 0 0 0
          0 0 0 0 0 0
          0 0 0 0 0 0
          0 0 0 0 0 0
          0 0 0 0 0 0
          0 0 0 0 0 0
          0 0 0 0 0 0
          0 0 0 0 0 0
          0 0 0 0 0 0
          0 0 0 0 0 0
          0 0 0 0 0 0
          0 0 0 0 0 0
          0 0 0 0 0 0
          0 0 0 0 0 0
          0 0 0 0 0 0
          0 0 0 0 0 0
          0 0 0 0 0 0
          0 0 0 0 0 0
          0 0 0 0 0 0
          0 0 0 0 0 0
          0 0 0 0 0 0
          0 0 0 0 0 0
          0 0 0 0 0 0
          0 0 0 0 0 0
          0 0 0 0 0 0
          0 0 0 0 0 0
          0 0 0 0 0 0
          0 0 0 0 0 0
          0 0 0 0 0 0
          0 0 0 0 0 0
          0 0 0 0 0 0
          0 0 0 0 0 0
          0 0 0 0 0 0
          0 0 0 0 0 0
          0 0 0 0 0 0
          0 0 0 0 0 0
          0 0 0 0 0 0
          0 0 0 0 0 0
          0 0 0 0 0 0
          0 0 0 0 0 0
          0 0 0 0 0 0
          0 0 0 0 0 0
          0 0 0 0 0 0
          0 0 0 0 0 0
          0 0 0 0 0 0
          0 0 0 0 0 0
          0 0 0 0 0 0
          0 0 0 0 0 0
          0 0 0 0 0 0
          0 0 0 0 0 0
          0 0 0 0 0 0
          0 0 0 0
        </DataArray>
        <DataArray type="Float64" Name="initial_marker" format="ascii" RangeMin="0" RangeMax="2">
          0 0 0 0 0 0
          0 0 0 0 0 0
          0 0 0 0 0 0
          0 0 0 0 0 0
          0 0 0 0 0 0
          0 0 0 0 0 0
          0 0 0 0 0 0
          0 0 0 0 0 0
          0 0 0 0 0 0
          0 0 0 0 0 0
          0 0 0 0 0 0
          0 0 0 0 0 0
          0 0 0 0 0 0
          0 0 0 0 0 0
          0 0 0 0 0 0
          0 1 0 0 0 0
          0 0 0 0 0 0
          0 0 0 0 0 0
          0 0 0 0 0 0
          0 0 0 0 0 0
          0 0 0 0 0 0
          0 0 0 0 0 0
          0 0 0 0 0 0
          0 0 0 0 0 0
          0 0 0 0 0 0
          0 0 0 0 0 0
          0 0 0 0 0 0
          0 0 0 0 0 0
          0 0 0 0 0 0
          0 0 0 0 0 0
          0 0 0 0 0 0
          0 0 0 0 0 0
          0 0 0 0 0 0
          0 0 0 0 0 0
          0 0 0 0 0 0
          0 0 0 0 0 0
          0 0 0 0 0 0
          0 0 0 0 0 0
          0 0 0 0 0 0
          0 0 0 0 0 0
          0 0 0 0 0 0
          0 0 0 0 0 0
          0 0 0 0 0 0
          0 0 0 0 0 0
          0 0 0 0 0 0
          0 0 0 0 0 0
          0 0 0 0 0 0
          0 0 0 0 0 0
          0 0 0 0 0 0.5
          0.25 0 0.5 1.5 0.75 0.25
          0 0 0 2 1 0.5
          0 0 0 0 0 0
          0 0 0 0 0 0
          0 0 0 0 0 0
          0 0 0 0 0 0
          0 0 0 0 0 0
          0 0 0 0 0 0
          0 0 0 0 0 0
          0 0 0 0 0 0
          0 0 0 0 0 0
          0 0 0 0 0 0
          0 0 0 0 0 0
          0 0 0 0 0 0
          0 0 0 0 0 0
          0 0 0 0 0 0
          0 0 0 0 0 0
          0 0 0 0 0 0
          0 0 0 0 0 0
          0 0 0 0 0 0
          0 0 0 0 0 0
          0 0 0 0 0 0
          0 0 0 0 0 0
          0 0 0 0 0 0
          0 0 0 0 0 0
          0 0 0 0 0 0
          0 0 0 0 0 0
          0 0 0 0 0 0
          0 0 0 0 0 0
          0 0 0 0 0 0
          0 0 0 0 0 0
          0 0 0 0 0 0
          0 0 0 0 0 0
          0 0 0 0 0 0
          0 0 0 0 0 0
          1 0.5 2 1.25 0.25 2
          1.5 0.5 0 0 0 0
          0 0 0 0 0 0
          0 0 0 0 0 0
          0 0 0 0 0 0
          0 0 0 0 0 0
          0 0 0 0 0 0
          0 0 0 0 0 0
          0 0 0 0 0 0
          0 0 0 0 0 0
          0 0 0 0 0 0
          0 0 0 0
        </DataArray>
        <DataArray type="Float64" Name="markers_norefine" format="ascii" RangeMin="0" RangeMax="0">
          0 0 0 0 0 0
          0 0 0 0 0 0
          0 0 0 0 0 0
          0 0 0 0 0 0
          0 0 0 0 0 0
          0 0 0 0 0 0
          0 0 0 0 0 0
          0 0 0 0 0 0
          0 0 0 0 0 0
          0 0 0 0 0 0
          0 0 0 0 0 0
          0 0 0 0 0 0
          0 0 0 0 0 0
          0 0 0 0 0 0
          0 0 0 0 0 0
          0 0 0 0 0 0
          0 0 0 0 0 0
          0 0 0 0 0 0
          0 0 0 0 0 0
          0 0 0 0 0 0
          0 0 0 0 0 0
          0 0 0 0 0 0
          0 0 0 0 0 0
          0 0 0 0 0 0
          0 0 0 0 0 0
          0 0 0 0 0 0
          0 0 0 0 0 0
          0 0 0 0 0 0
          0 0 0 0 0 0
          0 0 0 0 0 0
          0 0 0 0 0 0
          0 0 0 0 0 0
          0 0 0 0 0 0
          0 0 0 0 0 0
          0 0 0 0 0 0
          0 0 0 0 0 0
          0 0 0 0 0 0
          0 0 0 0 0 0
          0 0 0 0 0 0
          0 0 0 0 0 0
          0 0 0 0 0 0
          0 0 0 0 0 0
          0 0 0 0 0 0
          0 0 0 0 0 0
          0 0 0 0 0 0
          0 0 0 0 0 0
          0 0 0 0 0 0
          0 0 0 0 0 0
          0 0 0 0 0 0
          0 0 0 0 0 0
          0 0 0 0 0 0
          0 0 0 0 0 0
          0 0 0 0 0 0
          0 0 0 0 0 0
          0 0 0 0 0 0
          0 0 0 0 0 0
          0 0 0 0 0 0
          0 0 0 0 0 0
          0 0 0 0 0 0
          0 0 0 0 0 0
          0 0 0 0 0 0
          0 0 0 0 0 0
          0 0 0 0 0 0
          0 0 0 0 0 0
          0 0 0 0 0 0
          0 0 0 0 0 0
          0 0 0 0 0 0
          0 0 0 0 0 0
          0 0 0 0 0 0
          0 0 0 0 0 0
          0 0 0 0 0 0
          0 0 0 0 0 0
          0 0 0 0 0 0
          0 0 0 0 0 0
          0 0 0 0 0 0
          0 0 0 0 0 0
          0 0 0 0 0 0
          0 0 0 0 0 0
          0 0 0 0 0 0
          0 0 0 0 0 0
          0 0 0 0 0 0
          0 0 0 0 0 0
          0 0 0 0 0 0
          0 0 0 0 0 0
          0 0 0 0 0 0
          0 0 0 0 0 0
          0 0 0 0 0 0
          0 0 0 0 0 0
          0 0 0 0 0 0
          0 0 0 0 0 0
          0 0 0 0 0 0
          0 0 0 0 0 0
          0 0 0 0 0 0
          0 0 0 0 0 0
          0 0 0 0 0 0
          0 0 0 0
        </DataArray>
        <DataArray type="Float64" Name="markers_mustrefine" format="ascii" RangeMin="0" RangeMax="2">
          0 0 0 0 0 0
          0 0 0 0 0 0
          0 0 0 0 0 0
          0 0 0 0 0 0
          0 0 0 0 0 0
          0 0 0 0 0 0
          0 0 0 0 0 0
          0 0 0 0 0 0
          0 0 0 0 0 0
          0 0 0 0 0 0
          0 0 0 0 0 0
          0 0 0 0 0 0
          0 0 0 0 0 0
          0 0 0 0 0 0
          0 0 0 0 0 0
          0 1 0 0 0 0
          0 0 0 0 0 0
          0 0 0 0 0 0
          0 0 0 0 0 0
          0 0 0 0 0 0
          0 0 0 0 0 0
          0 0 0 0 0 0
          0 0 0 0 0 0
          0 0 0 0 0 0
          0 0 0 0 0 0
          0 0 0 0 0 0
          0 0 0 0 0 0
          0 0 0 0 0 0
          0 0 0 0 0 0
          0 0 0 0 0 0
          0 0 0 0 0 0
          0 0 0 0 0 0
          0 0 0 0 0 0
          0 0 0 0 0 0
          0 0 0 0 0 0
          0 0 0 0 0 0
          0 0 0 0 0 0
          0 0 0 0 0 0
          0 0 0 0 0 0
          0 0 0 0 0 0
          0 0 0 0 0 0
          0 0 0 0 0 0
          0 0 0 0 0 0
          0 0 0 0 0 0
          0 0 0 0 0 0
          0 0 0 0 0 0
          0 0 0 0 0 0
          0 0 0 0 0 0
          0 0 0 0 0 0.5
          0.25 0 0.5 1.5 0.75 0.25
          0 0 0 2 1 0.5
          0 0 0 0 0 0
          0 0 0 0 0 0
          0 0 0 0 0 0
          0 0 0 0 0 0
          0 0 0 0 0 0
          0 0 0 0 0 0
          0 0 0 0 0 0
          0 0 0 0 0 0
          0 0 0 0 0 0
          0 0 0 0 0 0
          0 0 0 0 0 0
          0 0 0 0 0 0
          0 0 0 0 0 0
          0 0 0 0 0 0
          0 0 0 0 0 0
          0 0 0 0 0 0
          0 0 0 0 0 0
          0 0 0 0 0 0
          0 0 0 0 0 0
          0 0 0 0 0 0
          0 0 0 0 0 0
          0 0 0 0 0 0
          0 0 0 0 0 0
          0 0 0 0 0 0
          0 0 0 0 0 0
          0 0 0 0 0 0
          0 0 0 0 0 0
          0 0 0 0 0 0
          0 0 0 0 0 0
          0 0 0 0 0 0
          0 0 0 0 0 0
          0 0 0 0 0 0
          0 0 0 0 0 0
          1 0.5 2 1.25 0.25 2
          1.5 0.5 0 0 0 0
          0 0 0 0 0 0
          0 0 0 0 0 0
          0 0 0 0 0 0
          0 0 0 0 0 0
          0 0 0 0 0 0
          0 0 0 0 0 0
          0 0 0 0 0 0
          0 0 0 0 0 0
          0 0 0 0 0 0
          0 0 0 0
        </DataArray>
        <DataArray type="Float64" Name="gradient_marker" format="ascii" RangeMin="0.625" RangeMax="1">
          1 1 1 1 1 1
          1 1 1 1 1 1
          1 1 1 1 1 1
          1 1 1 1 1 1
          1 1 1 1 1 1
          1 1 1 1 1 1
          1 1 1 1 1 1
          1 1 1 1 1 1
          1 1 1 1 1 1
          1 1 1 1 1 1
          1 1 1 1 1 1
          1 1 1 1 1 1
          1 1 1 1 1 1
          1 1 1 1 1 1
          1 1 1 1 1 1
          1 1 1 1 1 1
          1 1 1 1 1 1
          1 1 1 1 1 1
          1 1 1 1 1 0.875
          1 1 1 1 1 1
          1 1 1 1 1 1
          1 1 1 1 1 1
          1 1 1 1 1 1
          1 1 1 1 1 1
          1 1 1 1 1 0.625
          0.625 0.8333333333333334 1 1 1 1
          1 1 1 1 1 1
          1 1 1 1 1 1
          1 1 1 1 1 1
          1 1 1 1 1 1
          1 1 1 1 1 1
          1 1 1 1 1 1
          1 1 1 1 1 1
          1 1 1 1 1 1
          1 1 1 1 1 1
          1 1 1 1 1 1
          1 1 1 1 1 1
          1 1 1 1 1 1
          1 1 1 1 1 1
          1 1 1 1 1 1
          1 1 1 1 1 1
          1 1 1 1 1 1
          1 1 1 1 1 1
          1 1 1 1 1 1
          1 1 1 1 1 1
          1 1 1 1 1 1
          1 1 1 1 1 1
          1 1 1 1 1 1
          1 1 1 1 1 1
          1 1 1 1 1 1
          1 1 1 1 1 1
          1 1 1 1 1 1
          1 1 1 1 1 1
          1 1 1 1 1 1
          1 1 1 1 1 1
          1 1 1 1 1 1
          1 1 1 1 1 1
          1 1 1 1 1 1