<?xml version="1.0"?>
<VTKFile type="UnstructuredGrid" version="0.1" byte_order="LittleEndian" header_type="UInt32" compressor="vtkZLibDataCompressor">
  <UnstructuredGrid>
    <Piece NumberOfPoints="451" NumberOfCells="247">
      <PointData>
        <DataArray type="Int32" Name="libmesh_node_id" format="ascii" RangeMin="192" RangeMax="2668">
          192 234 241 332 334 335
          337 338 340 341 343 344
          345 349 354 357 359 675
          676 677 680 683 685 686
          687 688 689 690 691 692
          693 694 695 696 697 698
          704 709 710 711 712 713
          714 715 716 717 718 723
          724 728 731 733 734 735
          736 737 738 739 740 741
          742 745 746 751 756 775
          776 780 791 792 793 794
          795 796 797 798 799 800
          1149 1150 1151 1152 1153 1154
          1155 1156 1157 1158 1159 1160
          1161 1162 1231 1232 1233 1234
          1235 1236 1237 1238 1239 1240
          1241 1242 1243 1244 1245 1246
          1247 1248 1249 1250 1251 1252
          1253 1254 1255 1256 1257 1258
          1259 1260 1261 1262 1263 1264
          1265 1266 1267 1268 1269 1270
          1271 1272 1273 1274 1275 1276
          1277 1278 1279 1280 1281 1282
          1283 1284 1285 1286 1287 1288
          1289 1290 1291 1292 1293 1294
          1295 1296 1297 1298 1313 1319
          1390 1391 1394 1397 1398 1401
          1424 1425 1428 1431 1432 1435
          2124 2126 2127 2128 2129 2132
          2133 2135 2138 2140 2141 2142
          2143 2144 2145 2146 2147 2148
          2149 2151 2153 2154 2155 2156
          2157 2158 2159 2160 2161 2162
          2163 2164 2165 2166 2167 2168
          2169 2170 2171 2172 2173 2174
          2175 2176 2177 2178 2179 2180
          2181 2182 2183 2184 2185 2186
          2187 2188 2189 2192 2193 2195
          2198 2200 2201 2202 2203 2204
          2205 2206 2207 2208 2209 2211
          2213 2215 2217 2218 2219 2220
          2221 2222 2223 2226 2227 2229
          2232 2234 2235 2236 2237 2238
          2239 2240 2241 2242 2243 2245
          2247 2249 2251 2252 2253 2254
          2255 2256 2257 2258 2259 2260
          2261 2262 2263 2264 2265 2266
          2267 2268 2269 2270 2271 2272
          2273 2274 2275 2276 2277 2278
          2279 2280 2281 2282 2283 2284
          2285 2286 2287 2288 2289 2290
          2291 2292 2293 2294 2295 2296
          2297 2298 2299 2300 2301 2302
          2303 2304 2305 2306 2307 2308
          2309 2310 2311 2312 2313 2314
          2315 2316 2317 2318 2319 2320
          2321 2322 2323 2324 2325 2540
          2541 2543 2548 2549 2552 2554
          2555 2557 2568 2570 2608 2609
          2612 2614 2615 2617 2628 2630
          2632 2634 2642 2643 2646 2648
          2649 2651 2662 2664 2666 2668
          333 336 235 339 458 461
          462 459 470 466 471 468
          478 476 501 507 753 754
          1299 1300 1368 1369 1302 1372
          1375 1377 1311 1388 1312 1389
          1392 1393 1317 1395 1318 1396
          1399 1400 1406 1422 1423 1411
          1426 1427 1429 1430 1433 1434
          2542 2550 2551 2553 1374 2556
          2610 2611 2613 1402 2616 1403
          2569 2629 2631 2633 2644 2645
          2647 1408 2650 1409 2663 2665
          2667
        </DataArray>
        <DataArray type="Float64" Name="bounds" format="ascii" RangeMin="0" RangeMax="0">
          0 0 0 0 0 0
          0 0 0 0 0 0
          0 0 0 0 0 0
          0 0 0 0 0 0
          0 0 0 0 0 0
          0 0 0 0 0 0
          0 0 0 0 0 0
          0 0 0 0 0 0
          0 0 0 0 0 0
          0 0 0 0 0 0
          0 0 0 0 0 0
          0 0 0 0 0 0
          0 0 0 0 0 0
          0 0 0 0 0 0
          0 0 0 0 0 0
          0 0 0 0 0 0
          0 0 0 0 0 0
          0 0 0 0 0 0
          0 0 0 0 0 0
          0 0 0 0 0 0
          0 0 0 0 0 0
          0 0 0 0 0 0
          0 0 0 0 0 0
          0 0 0 0 0 0
          0 0 0 0 0 0
          0 0 0 0 0 0
          0 0 0 0 0 0
          0 0 0 0 0 0
          0 0 0 0 0 0
          0 0 0 0 0 0
          0 0 0 0 0 0
          0 0 0 0 0 0
          0 0 0 0 0 0
          0 0 0 0 0 0
          0 0 0 0 0 0
          0 0 0 0 0 0
          0 0 0 0 0 0
          0 0 0 0 0 0
          0 0 0 0 0 0
          0 0 0 0 0 0
          0 0 0 0 0 0
          0 0 0 0 0 0
          0 0 0 0 0 0
          0 0 0 0 0 0
          0 0 0 0 0 0
          0 0 0 0 0 0
          0 0 0 0 0 0
          0 0 0 0 0 0
          0 0 0 0 0 0
          0 0 0 0 0 0
          0 0 0 0 0 0
          0 0 0 0 0 0
          0 0 0 0 0 0
          0 0 0 0 0 0
          0 0 0 0 0 0
          0 0 0 0 0 0
          0 0 0 0 0 0
          0 0 0 0 0 0
          0 0 0 0 0 0
          0 0 0 0 0 0
          0 0 0 0 0 0
          0 0 0 0 0 0
          0 0 0 0 0 0
          0 0 0 0 0 0
          0 0 0 0 0 0
          0 0 0 0 0 0
          0 0 0 0 0 0
          0 0 0 0 0 0
          0 0 0 0 0 0
          0 0 0 0 0 0
          0 0 0 0 0 0
          0 0 0 0 0 0
          0 0 0 0 0 0
          0 0 0 0 0 0
          0 0 0 0 0 0
          0
        </DataArray>
        <DataArray type="Float64" Name="gradient_error" format="ascii" RangeMin="2.982918798980174e-9" RangeMax="4.0668716578793227e-7">
          1.8862017277817757e-8 2.8173114221880406e-8 1.9383115049008088e-8 7.428191816312377e-8 4.0668716578793227e-7 2.458090178580573e-7
          3.7617362945963115e-7 1.678751292854813e-7 7.438774464352607e-8 5.5877411182039795e-8 3.314694133143721e-7 2.378721180062591e-7
          5.062467704707457e-8 3.819315332074627e-8 4.920741384689792e-9 7.798648044867034e-8 5.400483992935788e-9 9.138516935586518e-8
          3.68627747024857e-7 2.9974895885176087e-7 1.7992253365011493e-7 3.2419377164124737e-7 6.786093364702165e-8 6.224321726162455e-8
          3.320027618878658e-7 2.625866842771039e-7 3.7089966591464564e-8 2.777333158048192e-7 2.1314593813620476e-7 5.662550087622747e-8
          1.9317060666634198e-7 1.0817037479643012e-7 4.028551700222263e-7 3.0594640718496447e-7 2.6861399123833463e-7 2.1730765178282923e-7
          2.669200203553978e-7 2.1881857634243462e-8 1.768723709753216e-7 3.167662463200413e-8 2.0505168712874157e-7 2.3128370367723373e-7
          1.8087339890603342e-7 1.0513981807133207e-8 1.4521058880783396e-7 1.8072333706438875e-7 2.958055048996809e-7 1.490135435166208e-7
          2.3173667124430725e-7 6.210377757229021e-8 2.7897384191217494e-7 1.4453271598534635e-7 1.854391999049631e-7 7.721712421489286e-8
          1.3337787160313717e-7 4.393032259075065e-8 4.041617106154484e-8 2.3062847877929116e-8 2.2634568382457987e-7 1.6467113109636517e-7
          3.690201953233902e-8 2.0951425632142312e-7 1.5567090810298653e-7 6.112372313973412e-8 9.094548587469891e-8 1.2152204255386911e-7
          5.61744661858188e-8 1.6396851271717417e-7 4.1459060681912987e-8 8.35244620960589e-8 1.5510880707482718e-8 3.2541228342423445e-8
          1.3318736829242324e-8 1.1398709843137722e-8 5.090066878012023e-9 1.0427913411588466e-7 4.114671941466576e-8 9.259770072658686e-9
          1.9425096123769976e-7 1.818586344100233e-7 1.9382865239023103e-7 1.4533685750036686e-7 2.2388687613967004e-7 2.0421487496593366e-7
          2.1112853696182735e-7 1.5027738079654795e-7 1.0218059464716323e-7 9.845295240103066e-8 8.315378187593953e-8 9.282510977832539e-8
          8.494617949506749e-8 6.963833175575211e-8 1.1119576357051765e-7 1.5232010169771965e-7 1.2082585653603403e-7 1.6518141245830537e-7
          1.7264687094154454e-7 1.8268661615219674e-7 1.9693570104191233e-8 7.222702587568785e-8 7.999652239308681e-8 1.624431862191749e-7
          1.3005183314344763e-7 1.7820596798768577e-7 1.3836635453130168e-7 1.9001941420078444e-7 1.9182587117643598e-7 1.9840621480398074e-7
          2.5936646694805866e-8 8.971993105623663e-8 1.0115952077061298e-7 1.916816952984321e-7 1.255023951042279e-7 1.2508836751324333e-7
          9.934792770908622e-8 9.462397355319327e-8 1.6766973021274862e-7 1.7437328540806402e-7 1.3360146769291907e-7 1.2246039224928004e-7
          1.1674517275572194e-7 8.784159914890654e-8 7.874329582091015e-8 1.787809077588227e-7 1.7906302460245451e-7 1.272123809725293e-7
          1.0901839003106611e-8 1.514039835795409e-8 1.4371755773117723e-8 1.9004174474042285e-8 1.277533062628935e-7 1.4136464549938395e-7
          7.818681408420616e-9 1.3180186386334986e-8 1.736732395955116e-8 1.2975580890382524e-7 1.9061363924429644e-8 2.4707712454322188e-8
          2.5292122298900674e-8 3.27129657116239e-8 1.5646009830049404e-7 1.7134544484441482e-7 1.4238494371996237e-8 2.340447537614776e-8
          3.1989430049305266e-8 1.6276402163442303e-7 1.9580319805910146e-7 2.0854669376935165e-7 1.625619511480534e-7 1.63928102650208e-7
          2.050911312539982e-7 2.2007059934803137e-7 1.7346304045250155e-7 2.1979810097844845e-7 2.270453986103678e-7 1.6100942751453305e-7
          1.52423184316373e-7 2.341300611594862e-7 2.445089140322029e-7 1.7363895962606846e-7 5.0985760316245806e-8 3.047164570993314e-8
          6.760269943762536e-8 5.505750285326858e-8 1.0455156761771664e-7 4.217125936181956e-8 2.2640936932287555e-8 6.836554978096527e-8
          1.3766590832150826e-7 1.1696048499594538e-7 1.5044831996658817e-7 9.239695607992894e-8 5.0128887682984747e-8 1.019336856116333e-7
          2.7948126344537663e-8 3.005548288790089e-8 2.9790572666217593e-8 3.180246070580194e-8 2.9525662444534293e-8 2.647561728819403e-8
          2.6858683991060594e-8 2.7241750693927156e-8 2.11087433262426e-8 2.7663580061605438e-8 2.820167006529389e-8 2.897494425204998e-8
          2.966414902426418e-8 2.873976006898234e-8 3.0353353796478385e-8 2.0578345019253067e-8 2.2073997050344666e-8 2.3366304811656957e-8
          2.4798291475704068e-8 2.727106372376109e-8 2.88601574959804e-8 3.0696255740223625e-8 3.046473872772112e-8 3.4090297374545874e-8
          3.385163737512053e-8 3.6004335975930735e-8 3.3612977375695184e-8 3.86659182846314e-8 3.84001739859174e-8 4.1075490260338024e-8
          3.81344296872034e-8 3.0546013743816055e-8 3.133827498782408e-8 3.250358316398902e-8 3.333121798892225e-8 3.213053623183209e-8
          3.415885281385549e-8 2.366512965199817e-8 2.5102294770885234e-8 2.7323525995183014e-8 2.7900686157916927e-8 3.4832523672836276e-8
          3.5653450860757336e-8 3.742799210271577e-8 3.824389530207201e-8 3.647437804867839e-8 3.905979850142826e-8 2.8623522649687094e-8
          2.999042641694397e-8 3.3077622520982224e-8 3.271983600573184e-8 3.279679576246566e-8 3.514117265442161e-8 3.497045283072513e-8
          3.77528876962876e-8 4.073365000125575e-8 4.0060927743781355e-8 1.3314270113752696e-8 1.464229731889497e-8 1.9253169952961278e-8
          1.1951465674355183e-8 1.486744192641477e-8 1.6114700460272558e-8 1.6866289792241324e-8 1.8021593569124045e-8 2.0537497262940292e-8
          2.222044417699661e-8 1.25272952773707e-8 1.3711959058308224e-8 1.5755513828569723e-8 1.686748933975138e-8 2.542781735410405e-8
          2.8319619326322784e-8 2.1870935962970953e-8 2.6893541049481837e-8 2.8653526235177428e-8 3.007404656721343e-8 3.20430614623684e-8
          2.3345776455277235e-8 2.5216541587167685e-8 2.7853197070297453e-8 8.785145361229193e-9 1.032496479747309e-8 1.3570531027046459e-8
          9.583347869124083e-9 1.0130115238394365e-8 1.190509431812129e-8 1.1712351844799161e-8 1.3766450824060937e-8 1.5497189354747626e-8
          1.7779630636118295e-8 9.055510971680722e-9 1.1080444803852112e-8 1.2858288848643025e-8 1.5113886189032173e-8 1.9529839019496953e-8
          2.3783400218617983e-8 1.890237709749902e-8 2.121190177164832e-8 2.3319566379876023e-8 2.510949823164961e-8 2.6900421290838167e-8
          2.0659175235725447e-8 2.2816846315547896e-8 2.419595672941005e-8 1.9235416249554826e-8 2.035536508975439e-8 2.1964804633067153e-8
          2.3137265320788694e-8 2.4391248704855343e-8 2.7065168512949043e-8 1.6530225923105412e-8 1.8153457032568057e-8 2.0992220169942633e-8
          2.1595519604532794e-8 2.5115705163492794e-8 2.6420115813971125e-8 2.877191751974161e-8 3.0243350575172694e-8 3.026140734707986e-8
          3.402154586780578e-8 2.198778719936211e-8 2.4332186846528965e-8 2.8157500577635858e-8 2.8408326837814453e-8 3.077628342829017e-8
          3.328409307334925e-8 3.424538337682361e-8 3.674757512931065e-8 2.7557824593075103e-8 3.041288532590648e-8 3.170129811911533e-8
          3.61783056060065e-8 3.9508736014373813e-8 3.955832298230273e-8 4.2689163923739856e-8 3.378743873121017e-8 3.771316467567187e-8
          3.743481028048724e-8 1.357707263111736e-8 1.5979784898739834e-8 1.575726508179008e-8 1.8608867483906682e-8 2.051153178116651e-8
          2.378269667635507e-8 1.223599672422343e-8 1.498370897060949e-8 1.7518873281053214e-8 2.0087540070087235e-8 1.823964681637975e-8
          2.169331101604482e-8 2.0934044101105626e-8 2.520833007589691e-8 2.7668679360078022e-8 3.220190277508756e-8 1.6487213322687835e-8
          2.0488354868683296e-8 2.384541544870903e-8 2.7370928935165797e-8 2.5869034353638094e-8 2.8928523364299905e-8 2.909750231130548e-8
          3.1752123261912945e-8 2.5378190615240662e-8 2.8458289569063742e-8 2.8312722307302403e-8 3.255558402262204e-8 3.681402198274303e-8
          3.4920784540797916e-8 3.8706854465999143e-8 3.214001409854915e-8 3.64855366416342e-8 3.402766674144546e-8 4.4387799479849484e-8
          4.386905335809004e-8 4.33503072363306e-8 4.022196214609968e-8 4.103100011528702e-8 4.184003808447435e-8 3.514445828666412e-8
          3.658638301658367e-8 3.939125874570896e-8 4.405142236903194e-8 4.598568399394346e-8 3.2918590943279614e-8 3.458490356800352e-8
          3.8311049647890906e-8 2.888780739975319e-8 3.241196422408875e-8 3.7587242791715544e-8 4.323010522031217e-8 4.608932733756995e-8
          4.2149524151305394e-8 4.5060683767604e-8 2.3623389691812503e-8 2.9023331763026338e-8 3.733408276550633e-8 2.1075554709699498e-8
          2.7412723053198847e-8 3.719377559110898e-8 4.1681446767411127e-8 4.311800183804977e-8 4.147263330380389e-8 4.2307606822087997e-8
          7.971695282102756e-8 5.580993226902035e-8 4.5867818860320855e-8 6.538004443737614e-8 2.501107874428377e-8 1.0088279227494687e-8
          6.799671585315668e-9 1.6457945072465568e-8 7.426862955965355e-9 1.0332395141931663e-8 9.414461178255384e-9 1.591950966081244e-8
          1.1402059400545414e-8 2.1506624179693223e-8 2.982918798980174e-9 3.469203990121232e-9 3.1803694196687014e-7 2.1032578042833355e-7
          2.4068296950096316e-7 2.1195356384653407e-7 1.4394203943753901e-7 1.9826323750352378e-7 1.4105466959242808e-7 2.0002114485822242e-7
          1.1327030561344257e-7 2.1387256574946612e-7 7.493547065449851e-8 1.0722478093364729e-7 6.320660086027211e-8 9.374513351085977e-8
          1.730727203184847e-7 1.5905094710032743e-7 5.0570107233300885e-8 7.719261831975233e-8 3.0321521159397725e-8 5.959886293313611e-8
          1.3666961563352702e-7 1.083903418206629e-7 1.8276083506420694e-7 2.2686823507061642e-7 2.157549731583148e-7 1.956366729633243e-7
          2.471051207170595e-7 2.3769171827742215e-7 1.9149415962244875e-7 1.5564559246074817e-7 2.1346421738404723e-7 1.7530409996592613e-7
          4.65901176568477e-8 4.321874692964626e-8 4.3967716332673344e-8 4.471668573570043e-8 3.9047971191137856e-8 4.050669743157077e-8
          3.742022998014474e-8 3.937313569962374e-8 4.304867562933047e-8 3.2658590251935296e-8 3.702332873353982e-8 4.2956402908531384e-8
          4.755974965311449e-8 4.720789633299052e-8 4.9644482826422855e-8 4.6987923455303875e-8 2.5898891267017132e-8 3.286026009919122e-8
          4.292107695209104e-8 2.2461504093355115e-8 3.0752054275907715e-8 4.279655907552843e-8 4.707538648679918e-8 4.813024800078158e-8
          4.703096907585716e-8
        </DataArray>
        <DataArray type="Float64" Name="gradient_matprop_error" format="ascii" RangeMin="0" RangeMax="0">
          0 0 0 0 0 0
          0 0 0 0 0 0
          0 0 0 0 0 0
          0 0 0 0 0 0
          0 0 0 0 0 0
          0 0 0 0 0 0
          0 0 0 0 0 0
          0 0 0 0 0 0
          0 0 0 0 0 0
          0 0 0 0 0 0
          0 0 0 0 0 0
          0 0 0 0 0 0
          0 0 0 0 0 0
          0 0 0 0 0 0
          0 0 0 0 0 0
          0 0 0 0 0 0
          0 0 0 0 0 0
          0 0 0 0 0 0
          0 0 0 0 0 0
          0 0 0 0 0 0
          0 0 0 0 0 0
          0 0 0 0 0 0
          0 0 0 0 0 0
          0 0 0 0 0 0
          0 0 0 0 0 0
          0 0 0 0 0 0
          0 0 0 0 0 0
          0 0 0 0 0 0
          0 0 0 0 0 0
          0 0 0 0 0 0
          0 0 0 0 0 0
          0 0 0 0 0 0
          0 0 0 0 0 0
          0 0 0 0 0 0
          0 0 0 0 0 0
          0 0 0 0 0 0
          0 0 0 0 0 0
          0 0 0 0 0 0
          0 0 0 0 0 0
          0 0 0 0 0 0
          0 0 0 0 0 0
          0 0 0 0 0 0
          0 0 0 0 0 0
          0 0 0 0 0 0
          0 0 0 0 0 0
          0 0 0 0 0 0
          0 0 0 0 0 0
          0 0 0 0 0 0
          0 0 0 0 0 0
          0 0 0 0 0 0
          0 0 0 0 0 0
          0 0 0 0 0 0
          0 0 0 0 0 0
          0 0 0 0 0 0
          0 0 0 0 0 0
          0 0 0 0 0 0
          0 0 0 0 0 0
          0 0 0 0 0 0
          0 0 0 0 0 0
          0 0 0 0 0 0
          0 0 0 0 0 0
          0 0 0 0 0 0
          0 0 0 0 0 0
          0 0 0 0 0 0
          0 0 0 0 0 0
          0 0 0 0 0 0
          0 0 0 0 0 0
          0 0 0 0 0 0
          0 0 0 0 0 0
          0 0 0 0 0 0
          0 0 0 0 0 0
          0 0 0 0 0 0
          0 0 0 0 0 0
          0 0 0 0 0 0
          0 0 0 0 0 0
          0
        </DataArray>
        <DataArray type="Float64" Name="initial_marker" format="ascii" RangeMin="0" RangeMax="2">
          2 0 0 0 2 1
          2 1 0 0 2 2
          0 1.25 0 2 0 0
          1 1 0.6666666666666666 2 0 0
          1 1 0 1 1 0
          1 0.6666666666666666 2 2 2 1.3333333333333333
          1.5 2 2 2 2 1.5
          1.5 2 2 2 2 0
          0.5 0 1 0 0.5 0
          0.5 0 0 0 1 1
          0 1 1 0.5 1.25 1.75
          2 2 0.25 0.75 0.25 0.5
          0 0 0 1 0.5 0
          2 2 2 2 2 2
          2 2 2 2 2 2
          2 2 2 2 2 2
          2 2 2 2 2 2
          2 2 2 2 2 2
          2 2 2 2 2 2
          2 2 2 2 2 2
          2 2 2 2 2 2
          2 2 2 2 2 2
          2 2 2 2 2 2
          2 2 2 2 2 2
          2 2 2 2 2 2
          2 2 2 2 2 2
          2 2 2 2 2 2
          2 2 2 2 1.6666666666666667 2
          2 2 2 2 2 2
          2 2 2 2 2 2
          2 2 2 2 2 2
          2 2 2 2 2 2
          2 2 2 2 2 2
          2 2 2 2 2 2
          2 2 2 2 2 2
          2 2 2 2 2 2
          2 2 2 2 2 2
          2 2 2 2 2 2
          2 2 2 2 2 2
          2 2 2 2 2 2
          2 2 2 2 2 2
          2 2 2 2 2 2
          2 2 2 2 2 2
          2 2 2 2 2 2
          2 2 2 2 2 2
          2 2 2 2 2 2
          2 2 2 2 2 2
          2 2 2 2 2 2
          2 2 2 2 2 2
          2 2 2 2 2 2
          2 2 2 2 2 2
          2 2 2 2 2 2
          2 2 2 2 2 2
          2 2 2 2 2 2
          2 2 2 2 2 2
          2 2 2 2 2 2
          2 2 2 2 2 2
          2 2 2 2 2 2
          2 2 2 2 2 2
          2 2 2 2 2 2
          2 2 2 2 2 2
          2 2 2 2 2 2
          2 2 2 2 2 2
          0 0 0 0 0 0
          0 0 0 0 0 0
          0 0 0 0 2 2
          2 2 2 2 2 2
          2 2 2 2 2 2
          2 2 2 2 2 2
          2 2 2 2 2 2
          2 2 2 2 2 2
          2 2 2 2 2 2
          2 2 2 2 2 2
          2 2 2 2 2 2
          2 2 2 2 2 2
          2
        </DataArray>
        <DataArray type="Float64" Name="markers_norefine" format="ascii" RangeMin="0" RangeMax="2">
          2 0 0 0 0 0
          0 0 0 0 0 0
          0 0 0 0 0 0
          0 0 0 0 0 0
          0 0 0 0 0 0
          0 0 0 0 0 0
          0 2 0 2 0 0
          0 2 1 1 0 0
          0 0 0 0 0 0
          0 0 0 0 0 0
          0 0 0 0 0 0
          0 0 0 0 0 0
          0 0 0 0 0 0
          0 0 0 0 0 0
          0 0 0 0 0 0
          0 0 0 0 0 0
          0 0 2 1.25 1.5 0
          0 0 0 0 0 0
          2 1.5 1.5 0 0 0
          0 0 0 0 0 0
          0 0 0 0 0 0
          2 2 2 2 1 1
          2 2 2 1 2 2
          2 2 1 1 2 2
          2 1 0 0 0 0
          0 0 0 0 0 0
          0 0 0 0 0 0
          0 0 0 0 0 0
          0 0 0 0 0 0
          0 0 0 0 0 1
          0.75 0.5 1.75 1 1 1
          1 1 1 2 2 2
          2 1 1 1 0 0
          0 0 0 0 0 0
          0 1 1 1 1 1
          1 2 2 2 2 1
          1 1 1 1 1 2
          2 2 2 1 1 0
          1 1 0 2 2 2
          2 2 2 2 2 2
          2 2 2 2 2 1.5
          1 2 1.5 1.5 1 1
          2 2 2 2 2 2
          2 2 2 2 2 2
          2 2 2 2 2 2
          2 2 2 2 2 2
          2 2 2 2 2 2
          2 2 2 2 2 2
          2 2 2 2 2 2
          2 2 2 2 2 1.5
          1.5 1 1 2 2 2
          1.5 1.5 1 1 2 2
          2 2 2 2 2 2
          2 2 2 2 2 2
          2 2 2 2 2 2
          2 2 2 2 2 2
          2 2 2 2 2 2
          2 2 2 2 2 0
          0 0 1 1 1 2
          2 2 1 0 2 2
          2 2 2 2 1.5 1
          2 2 2 2 2 2
          2 2 2 2 2 2
          0 0 0 0 0 0
          0 0 0 0 0 0
          0 0 0 0 0 0
          0 0 0 0 0 0
          1.5 0 0 0 0 0
          0 0 0 0 0 0
          0 0 1 0 0 1
          0 0 0 0 0 0
          0 1 1 1 2 2
          2 2 2 2 2 2
          1 1.5 1 2 2 2
          2 2 2 2 2 2
          2
        </DataArray>
        <DataArray type="Float64" Name="markers_mustrefine" format="ascii" RangeMin="0" RangeMax="2">
          2 0 0 0 2 1
          2 1 0 0 2 2
          0 1.25 0 2 0 0
          1 1 0.6666666666666666 2 0 0
          1 1 0 1 1 0
          1 0.6666666666666666 2 2 2 1.3333333333333333
          1.5 2 2 2 2 1.5
          1.5 2 2 2 2 0
          0.5 0 1 0 0.5 0
          0.5 0 0 0 1 1
          0 1 1 0.5 1.25 1.75
          2 2 0.25 0.75 0.25 0.5
          0 0 0 1 0.5 0
          2 2 2 2 2 2
          2 2 2 2 2 2
          2 2 2 2 2 2
          2 2 2 2 2 2
          2 2 2 2 2 2
          2 2 2 2 2 2
          2 2 2 2 2 2
          2 2 2 2 2 2
          2 2 2 2 2 2
          2 2 2 2 2 2
          2 2 2 2 2 2
          2 2 2 2 2 2
          2 2 2 2 2 2
          2 2 2 2 2 2
          2 2 2 2 1.6666666666666667 2
          2 2 2 2 2 2
          2 2 2 2 2 2
          2 2 2 2 2 2
          2 2 2 2 2 2
          2 2 2 2 2 2
          2 2 2 2 2 2
          2 2 2 2 2 2
          2 2 2 2 2 2
          2 2 2 2 2 2
          2 2 2 2 2 2
          2 2 2 2 2 2
          2 2 2 2 2 2
          2 2 2 2 2 2
          2 2 2 2 2 2
          2 2 2 2 2 2
          2 2 2 2 2 2
          2 2 2 2 2 2
          2 2 2 2 2 2
          2 2 2 2 2 2
          2 2 2 2 2 2
          2 2 2 2 2 2
          2 2 2 2 2 2
          2 2 2 2 2 2
          2 2 2 2 2 2
          2 2 2 2 2 2
          2 2 2 2 2 2
          2 2 2 2 2 2
          2 2 2 2 2 2
          2 2 2 2 2 2
          2 2 2 2 2 2
          2 2 2 2 2 2
          2 2 2 2 2 2
          2 2 2 2 2 2
          2 2 2 2 2 2
          2 2 2 2 2 2
          0 0 0 0 0 0
          0 0 0 0 0 0
          0 0 0 0 2 2
          2 2 2 2 2 2
          2 2 2 2 2 2
          2 2 2 2 2 2
          2 2 2 2 2 2
          2 2 2 2 2 2
          2 2 2 2 2 2
          2 2 2 2 2 2
          2 2 2 2 2 2
          2 2 2 2 2 2
          2
        </DataArray>
        <DataArray type="Float64" Name="gradient_marker" format="ascii" RangeMin="0" RangeMax="1">
          0 0.5 0.5 0.5 1 0.625
          1 0.625 0.625 0.625 1 1
          0.5 0.125 0.75 0.25 0.75 0
          0.5 0.5 0.3333333333333333 0.75 0 0
          0.5 0.5 0 0.5 0.5 0
          0.5 0.3333333333333333 1 0.75 0.75 0.6666666666666666
          0.75 0 0.75 0 0.75 0.75
          0.625 0 0.5 0.5 1 0.3333333333333333
          0.5 0 0.5 0.5 0.5 0.3333333333333333
          0.5 0 0 0 0.5 0.5
          0 0.5 0.5 0.25 0.375 0.375
          0.125 0.75 0.125 0.375 0.25 0.375
          0 0 0.5 0.5 0.5 0
          1 1 1 0.5 1 1
          1 0.5 0 0 0 0
          0 0 0.5 0.75 0.5 0.75
          0.75 0.75 0 0.25 0.25 0.75
          0.5 0.75 0.5 0.75 0.75 0.75
          0 0.25 0.25 0.75 0.25 0.25
          0 0 0.75 0.75 0.5 0.25
          0.25 0 0 0.75 0.625 0.5
          0 0 0 0 0.5 0.5
          0 0 0 0.5 0 0
          0 0 0.5 0.5 0 0
          0 0.5 1 1 1 1
          1 1 1 1 0.875 1
          0.75 1 1 1 0 0
          0 0 0 0 0 0
          0.5 0.25 1 0 0 0
          0 0 0 0 0 0
          0 0 0 0 0 0
          0 0 0 0 0 0
          0 0 0 0 0 0
          0 0 0 0 0 0
          0 0 0 0 0 0
          0 0 0 0 0 0
          0 0 0 0 0 0
          0 0 0 0 0 0
          0 0 0 0 0 0
          0 0 0 0 0 0
          0 0 0 0 0 0
          0 0 0 0 0 0
          0 0 0 0 0 0
          0 0 0 0 0 0
          0 0 0 0 0 0
          0 0 0 0 0 0
          0 0 0 0 0 0
          0 0 0 0 0 0
          0 0 0 0 0 0
          0 0 0 0 0 0
          0 0 0 0 0 0
          0 0 0 0 0 0
          0 0 0 0 0 0
          0 0 0 0 0 0
          0 0 0 0 0 0
          0 0 0 0 0 0
          0 0 0 0 0 0
          0 0 0 0 0 0
          0 0 0 0 0 0
          0 0 0 0 0 0
          0 0 0 0 0 0
          0 0 0 0 0 0
          0 0 0 0 0 0
          0.625 0.625 0.875 0.8333333333333334 1 1
          1 1 1 1 1 1
          1 1 1 1 1 0.75
          1 1 0.5 0.75 0.5 0.75
          0.25 0.75 0 0.25 0 0.25
          0.5 0.5 0 0.25 0 0.125
          0.5 0.375 0.5 0.75 0.625 0.5
          1 0.75 0.5 0.5 0.5 0.5
          0 0 0 0 0 0
          0 0 0 0 0 0
          0 0 0 0 0 0
          0 0 0 0 0 0
          0
        </DataArray>
        <DataArray type="Float64" Name="gradient_matprop_marker" format="ascii" RangeMin="0" RangeMax="0">
          0 0 0 0 0 0
          0 0 0 0 0 0
          0 0 0 0 0 0
          0 0 0 0 0 0
          0 0 0 0 0 0
          0 0 0 0 0 0
          0 0 0 0 0 0
          0 0 0 0 0 0
          0 0 0 0 0 0
          0 0 0 0 0 0
          0 0 0 0 0 0
          0 0 0 0 0 0
          0 0 0 0 0 0
          0 0 0 0 0 0
          0 0 0 0 0 0
          0 0 0 0 0 0
          0 0 0 0 0 0
          0 0 0 0 0 0
          0 0 0 0 0 0
          0 0 0 0 0 0
          0 0 0 0 0 0
          0 0 0 0 0 0
          0 0 0 0 0 0
          0 0 0 0 0 0
          0 0 0 0 0 0
          0 0 0 0 0 0
          0 0 0 0 0 0
          0 0 0 0 0 0
          0 0 0 0 0 0
          0 0 0 0 0 0
          0 0 0 0 0 0
          0 0 0 0 0 0
          0 0 0 0 0 0
          0 0 0 0 0 0
          0 0 0 0 0 0
          0 0 0 0 0 0
          0 0 0 0 0 0
          0 0 0 0 0 0
          0 0 0 0 0 0
          0 0 0 0 0 0
          0 0 0 0 0 0
          0 0 0 0 0 0
          0 0 0 0 0 0
          0 0 0 0 0 0
          0 0 0 0 0 0
          0 0 0 0 0 0
          0 0 0 0 0 0
          0 0 0 0 0 0
          0 0 0 0 0 0
          0 0 0 0 0 0
          0 0 0 0 0 0
          0 0 0 0 0 0
          0 0 0 0 0 0
          0 0 0 0 0 0
          0 0 0 0 0 0
          0 0 0 0 0 0
          0 0 0 0 0 0
          0 0 0 0 0 0
          0 0 0 0 0 0
          0 0 0 0 0 0
          0 0 0 0 0 0
          0 0 0 0 0 0
          0 0 0 0 0 0
          0 0 0 0 0 0
          0 0 0 0 0 0
          0 0 0 0 0 0
          0 0 0 0 0 0
          0 0 0 0 0 0
          0 0 0 0 0 0
          0 0 0 0 0 0
          0 0 0 0 0 0
          0 0 0 0 0 0
          0 0 0 0 0 0
          0 0 0 0 0 0
          0 0 0 0 0 0
          0
        </DataArray>
        <DataArray type="Float64" Name="combo" format="ascii" RangeMin="0" RangeMax="2">
          2 0.5 0.5 0.5 1 0.625
          1 0.625 0.625 0.625 1 1
          0.5 0.125 0.75 0.25 0.75 0
          0.5 0.5 0.3333333333333333 0.75 0 0
          0.5 0.5 0 0.5 0.5 0
          0.5 0.3333333333333333 1 0.75 0.75 0.6666666666666666
          0.75 2 0.75 2 0.75 0.75
          0.625 2 1.5 1.5 1 0.3333333333333333
          0.5 0 0.5 0.5 0.5 0.3333333333333333
          0.5 0 0 0 0.5 0.5
          0 0.5 0.5 0.25 0.375 0.375
          0.125 0.75 0.125 0.375 0.25 0.375
          0 0 0.5 0.5 0.5 0
          1 1 1 0.5 1 1
          1 0.5 0 0 0 0
          0 0 0.5 0.75 0.5 0.75
          0.75 0.75 2 1.5 1.75 0.75
          0.5 0.75 0.5 0.75 0.75 0.75
          2 1.75 1.75 0.75 0.25 0.25
          0 0 0.75 0.75 0.5 0.25
          0.25 0 0 0.75 0.625 0.5
          2 2 2 2 1.5 1.5
          2 2 2 1.5 2 2
          2 2 1.5 1.5 2 2
          2 1.5 1 1 1 1
          1 1 1 1 0.875 1
          0.75 1 1 1 0 0
          0 0 0 0 0 0
          0.5 0.25 1 0 0 0
          0 0 0 0 0 1
          0.75 0.5 1.75 1 1 1
          1 1 1 2 2 2
          2 1 1 1 0 0
          0 0 0 0 0 0
          0 1 1 1 1 1
          1 2 2 2 2 1
          1 1 1 1 1 2
          2 2 2 1 1 0
          1 1 0 2 2 2
          2 2 2 2 2 2
          2 2 2 2 2 1.5
          1 2 1.5 1.5 1 1
          2 2 2 2 2 2
          2 2 2 2 2 2
          2 2 2 2 2 2
          2 2 2 2 2 2
          2 2 2 2 2 2
          2 2 2 2 2 2
          2 2 2 2 2 2
          2 2 2 2 2 1.5
          1.5 1 1 2 2 2
          1.5 1.5 1 1 2 2
          2 2 2 2 2 2
          2 2 2 2 2 2
          2 2 2 2 2 2
          2 2 2 2 2 2
          2 2 2 2 2 2
          2 2 2 2 2 0
          0 0 1 1 1 2
          2 2 1 0 2 2
          2 2 2 2 1.5 1
          2 2 2 2 2 2
          2 2 2 2 2 2
          0.625 0.625 0.875 0.8333333333333334 1 1
          1 1 1 1 1 1
          1 1 1 1 1 0.75
          1 1 0.5 0.75 0.5 0.75
          1.75 0.75 0 0.25 0 0.25
          0.5 0.5 0 0.25 0 0.125
          0.5 0.375 1.5 0.75 0.625 1.5
          1 0.75 0.5 0.5 0.5 0.5
          0 1 1 1 2 2
          2 2 2 2 2 2
          1 1.5 1 2 2 2
          2 2 2 2 2 2
          2
        </DataArray>
        <DataArray type="Float64" Name="dHdT" format="ascii" RangeMin="25.81032072267475" RangeMax="70.61546255280726">
          46.29258633223762 25.925306634675763 25.869826705639277 26.129217260612297 33.63998597937219 27.943211412989854
          32.25998044282221 26.962015497325567 25.948330976364872 25.877957944509458 32.37143065166084 30.47109537212553
          26.00454856347494 26.179978891088574 25.822471482391677 27.389173598649208 25.827117958683335 26.318821015725902
          28.597122353640977 27.895931972729436 26.91691108190157 32.06224340352062 26.197832392692085 26.148687767526987
          28.129208611517804 27.49954412473313 26.009009568108695 27.566831835306715 27.06117487301033 26.099543142361888