<?xml version="1.0"?>
<VTKFile type="UnstructuredGrid" version="0.1" byte_order="LittleEndian" header_type="UInt32" compressor="vtkZLibDataCompressor">
  <UnstructuredGrid>
    <Piece NumberOfPoints="447" NumberOfCells="264">
      <PointData>
        <DataArray type="Int32" Name="libmesh_node_id" format="ascii" RangeMin="395" RangeMax="3714">
          537 545 944 946 949 974
          1743 1744 1745 1751 1752 1753
          1754 1755 1756 1757 1761 1762
          1763 1765 1766 1767 1768 1775
          1776 1789 1790 1791 1792 1797
          1831 1832 1837 1853 1854 1859
          1860 1862 1897 1898 1901 1903
          1904 1906 2912 2913 2914 2915
          2916 2917 2918 2919 2920 2921
          2922 2923 2924 2925 2926 2927
          2928 2929 2930 2931 2932 2933
          2934 2935 2936 2937 2938 2939
          2940 2941 2942 2943 2945 2946
          2947 2948 2949 2950 2951 2952
          2953 2954 2955 2956 2957 2958
          2959 2960 2961 2962 2963 2964
          2965 2966 2967 2968 2969 2970
          2972 2987 2988 2989 2990 2991
          2992 2993 2994 2995 2996 2997
          2998 2999 3000 3001 3003 3004
          3005 3008 3009 3011 3012 3013
          3018 3019 3020 3021 3022 3023
          3024 3025 3026 3027 3028 3033
          3034 3037 3038 3156 3157 3158
          3159 3160 3161 3162 3163 3164
          3165 3173 3174 3177 3178 3190
          3191 3192 3193 3194 3195 3196
          3197 3198 3199 3207 3208 3211
          3212 3274 3275 3276 3277 3278
          3279 3280 3281 3282 3283 3284
          3285 3288 3290 3291 3293 3294
          3295 3296 3297 3301 3302 3304
          3305 3311 3314 3315 3316 3317
          3318 3319 3320 3321 3322 3323
          3324 3325 3328 3330 3331 3333
          3334 3335 3337 3338 3339 3341
          3343 3345 3347 3538 3539 3540
          3541 3542 3543 3544 3545 3546
          3547 3548 3549 3552 3554 3555
          3557 3558 3559 3561 3562 3563
          3565 3567 3569 3571 3572 3573
          3574 3575 3576 3577 3578 3579
          3580 3581 3582 3583 3586 3588
          3589 3591 3592 3593 3595 3596
          3597 3599 3601 3603 3605 630
          661 662 631 395 535 536
          525 945 894 895 947 896
          948 950 951 952 899 526
          954 955 902 958 959 960
          961 1758 1759 1746 1760 1749
          1764 1769 1770 1771 1772 1773
          1774 1778 956 1777 969 1781
          1782 1793 1784 972 1795 1796
          1787 1798 973 2944 968 2971
          3006 3002 3007 3010 1794 3016
          3035 3029 3036 3031 3039 975
          3148 3149 3151 1829 3154 1830
          3167 3175 3169 3176 3171 3179
          1833 1834 3182 3183 3185 1835
          3188 1836 3201 3209 3203 3210
          3205 3213 1838 980 3286 3287
          3289 1855 3292 1856 3298 3299
          3300 3303 1857 3306 3307 3308
          3309 3310 3312 3313 1858 3326
          3327 3329 982 3332 1861 3336
          3340 3342 3344 3346 983 3438
          3437 3451 3450 3455 3454 3447
          3457 3448 3458 3461 3462 3550
          3551 3553 1899 3556 1900 3560
          3564 3566 3568 3570 1902 3584
          3585 3587 988 3590 1905 3594
          3598 3600 3602 3604 989 3675
          3674 3679 3678 3681 3682 3685
          3686 3703 3702 3707 3706 3709
          3710 3713 3714
        </DataArray>
        <DataArray type="Float64" Name="bounds" format="ascii" RangeMin="0" RangeMax="0">
          0 0 0 0 0 0
          0 0 0 0 0 0
          0 0 0 0 0 0
          0 0 0 0 0 0
          0 0 0 0 0 0
          0 0 0 0 0 0
          0 0 0 0 0 0
          0 0 0 0 0 0
          0 0 0 0 0 0
          0 0 0 0 0 0
          0 0 0 0 0 0
          0 0 0 0 0 0
          0 0 0 0 0 0
          0 0 0 0 0 0
          0 0 0 0 0 0
          0 0 0 0 0 0
          0 0 0 0 0 0
          0 0 0 0 0 0
          0 0 0 0 0 0
          0 0 0 0 0 0
          0 0 0 0 0 0
          0 0 0 0 0 0
          0 0 0 0 0 0
          0 0 0 0 0 0
          0 0 0 0 0 0
          0 0 0 0 0 0
          0 0 0 0 0 0
          0 0 0 0 0 0
          0 0 0 0 0 0
          0 0 0 0 0 0
          0 0 0 0 0 0
          0 0 0 0 0 0
          0 0 0 0 0 0
          0 0 0 0 0 0
          0 0 0 0 0 0
          0 0 0 0 0 0
          0 0 0 0 0 0
          0 0 0 0 0 0
          0 0 0 0 0 0
          0 0 0 0 0 0
          0 0 0 0 0 0
          0 0 0 0 0 0
          0 0 0 0 0 0
          0 0 0 0 0 0
          0 0 0 0 0 0
          0 0 0 0 0 0
          0 0 0 0 0 0
          0 0 0 0 0 0
          0 0 0 0 0 0
          0 0 0 0 0 0
          0 0 0 0 0 0
          0 0 0 0 0 0
          0 0 0 0 0 0
          0 0 0 0 0 0
          0 0 0 0 0 0
          0 0 0 0 0 0
          0 0 0 0 0 0
          0 0 0 0 0 0
          0 0 0 0 0 0
          0 0 0 0 0 0
          0 0 0 0 0 0
          0 0 0 0 0 0
          0 0 0 0 0 0
          0 0 0 0 0 0
          0 0 0 0 0 0
          0 0 0 0 0 0
          0 0 0 0 0 0
          0 0 0 0 0 0
          0 0 0 0 0 0
          0 0 0 0 0 0
          0 0 0 0 0 0
          0 0 0 0 0 0
          0 0 0 0 0 0
          0 0 0 0 0 0
          0 0 0
        </DataArray>
        <DataArray type="Float64" Name="gradient_error" format="ascii" RangeMin="1.3989672962068648e-11" RangeMax="1.7948599724373411e-7">
          6.859122564731592e-10 4.956810464512558e-8 1.4792324772151541e-9 9.303810943484783e-9 3.2716587368585805e-10 3.907316251119002e-8
          1.522837664307807e-9 2.2448903636080428e-9 2.015439717525007e-9 1.0658913762519752e-9 9.585525548098257e-10 1.2864675411254365e-9
          1.151690289446662e-9 2.2752487405779861e-10 1.6770235644622578e-10 2.356091221861942e-10 1.0186874450838208e-8 9.112953791999256e-9
          6.343105530349351e-10 5.695659746410278e-11 4.126207347564195e-11 4.4919066828968746e-11 1.5340399177750973e-10 2.9640299994275063e-10
          3.365736800745401e-10 8.093263240374559e-8 6.899647661676426e-8 7.97249832883702e-9 6.297602845364135e-9 3.1992885319754223e-8
          6.239735616643798e-8 6.536323839283745e-8 7.018112332734934e-8 3.999219208610871e-9 3.074516570619294e-9 2.384719414963897e-8
          1.8974434953621847e-8 8.5316667140249e-9 4.539883317467715e-8 4.510814323649708e-8 2.3750188514259833e-8 3.809386137729061e-8
          5.155399264951243e-8 3.269643639048123e-8 2.0943938707259928e-10 3.0560764854008114e-10 2.850803334908894e-10 2.4376182807947597e-10
          1.4626755766269877e-9 1.5579705721492052e-10 1.5165983203422584e-10 2.7131154687994674e-10 2.5546796336652905e-10 8.469578347584617e-11
          1.9068228443038942e-10 1.8221354696679278e-10 1.409648720898123e-10 2.201421819225303e-10 1.752796497576789e-10 1.1682241821531089e-9
          1.1231967031557344e-9 6.532730141322665e-10 1.000439870524065e-9 1.5225870117196691e-10 1.9754165327633792e-10 1.721126688354216e-10
          1.0833742566253377e-9 1.261580899062193e-10 1.7863535277130856e-10 1.0005747864047165e-10 1.5972905226627926e-10 1.1790904248634514e-10
          1.5661072155066787e-10 1.4110877426591413e-10 8.166062554709195e-10 5.555739622657262e-10 5.01960692138697e-11 6.264164895633296e-11
          1.174769055518196e-10 1.1391296068908366e-10 4.122894518985153e-11 7.358120708093312e-11 7.224154495372013e-11 7.508722869879623e-11
          1.1034901582634774e-10 7.090188282650713e-11 4.5851497007693577e-10 4.321845188111033e-10 2.786009525379967e-10 4.5068822387074965e-10
          2.419037692664605e-11 2.8157886361715953e-11 4.5014886916972165e-11 4.4356826019841264e-11 2.362989030055485e-11 3.347204713475072e-11
          3.348498281899268e-11 3.2125395796785855e-11 4.369876512271038e-11 3.349791850323463e-11 1.852426635212443e-10 1.7406565258152084e-10
          1.7989746428648318e-10 3.598153264566564e-9 3.461700313493255e-9 3.1204355534933494e-9 1.3124848176269513e-8 3.3019154757638962e-9
          3.1566004440438866e-9 2.5439138196520918e-9 2.40996661955872e-9 2.7775769886984783e-9 2.0477690906043474e-9 1.1668916060990334e-8
          1.0935702389868735e-8 7.519615747205987e-9 9.201949002437545e-9 2.5880483450741836e-9 8.459701367182516e-9 2.2322733218329103e-9
          1.5633108650240144e-9 6.9844169368064994e-9 4.676103232063015e-9 2.8591256483738455e-8 2.667385335461624e-8 2.270050734673915e-8
          2.5239362476848756e-8 2.371053406433699e-8 1.952068453099795e-8 1.847325914614109e-8 2.0123977854093332e-8 1.555492549726551e-8
          4.577206688127655e-8 4.389797360730363e-8 3.735219125639029e-8 3.8262057006451596e-8 1.7781794373426728e-8 1.5456934881925486e-8
          1.1541648505337534e-8 2.9424093911921024e-8 2.3919413830363216e-8 6.455505875889313e-8 6.406973550648929e-8 5.685507106717499e-8
          5.62076203230135e-8 6.024354913104484e-8 5.1942762539408455e-8 6.943417835442011e-8 7.162597745693529e-8 6.422747084445836e-8
          7.315026878367448e-8 4.9230154445500255e-8 4.12562220659838e-8 6.602020332708196e-8 5.7449602031209465e-8 5.645726600452783e-8
          6.552871482387395e-8 5.584001601480241e-8 6.180004151096232e-8 7.641449662190652e-8 6.965237616484375e-8 4.340726051093197e-8
          5.8124745457660267e-8 5.85564047854352e-8 7.618909135706619e-8 7.477882379622728e-8 6.678726176343642e-8 7.713684464404742e-8
          6.948298758183959e-8 1.7416218777812891e-9 1.644264581275065e-9 1.1587600316448319e-9 1.0910102639083203e-9 1.3825501704189437e-9
          9.105266267253242e-10 5.721553568269226e-9 5.378637626938809e-9 3.746660404189159e-9 4.456467016221644e-9 7.47778410979451e-10
          7.025817662367557e-10 5.828790784482865e-10 2.664607756224576e-9 2.490091399577556e-9 2.0301266342834874e-9 4.6417106021594256e-10
          1.0357713181882173e-9 2.939024583244184e-10 6.74810016852984e-10 3.247599470219258e-9 2.2085916810687154e-9 1.827989861973836e-10
          4.285107418349935e-10 1.4442894113081812e-9 1.5042834360034092e-8 1.418324473467834e-8 1.1098871663446084e-8 1.0431410789835874e-8
          1.1820573905766996e-8 8.602522838186758e-9 3.132282924795161e-8 2.980677741508931e-8 2.2599112721087696e-8 2.5248535629285523e-8
          7.76375664319327e-9 7.270833586095785e-9 5.928036848913639e-9 1.7236728785107877e-8 1.6284010225275995e-8 1.3551559334183645e-8
          8.604690507727355e-9 6.144187108846325e-9 3.7898015779957764e-9 1.858485481306065e-8 1.3776646262834182e-8 4.1590980466353585e-9
          2.514619804066309e-9 9.675998494123146e-9 5.837918569035266e-9 4.8118096921607493e-8 4.717122250016273e-8 3.879593452793755e-8
          3.7593766499651696e-8 4.253908287533551e-8 3.303370095319713e-8 5.381642462950368e-8 5.536950184350213e-8 4.635044822748637e-8
          5.56266735057102e-8 2.9284112793597796e-8 2.8124662010575802e-8 2.4242187804353925e-8 3.7187067560689164e-8 3.720513169350807e-8
          3.4534797097055394e-8 3.2817962045740875e-8 2.4858094072015175e-8 1.5668764299446532e-8 4.712668040004908e-8 3.657286740849076e-8
          1.788700599414668e-8 1.1011455647029653e-8 2.6826496764307174e-8 1.696344619558679e-8 4.953711457207759e-8 5.395858574878684e-8
          4.147787355950256e-8 4.5609536413345706e-8 6.047528062767849e-8 5.058047862809975e-8 4.642544837328778e-8 5.210561659354506e-8
          4.3605057467598325e-8 6.116839592163598e-8 3.631412742480478e-8 3.900488503777181e-8 4.0510638160590044e-8 3.373809641097218e-8
          3.7959882625152e-8 4.205230752436132e-8 5.6359934505520455e-8 4.4876820063322894e-8 3.022406963482614e-8 5.9254276327479856e-8
          4.769770935896302e-8 3.356797209720964e-8 2.174864445185713e-8 3.600880543397897e-8 2.357872233218465e-8 2.553202158699809e-9
          3.584357912360853e-10 2.957633700766231e-10 2.2632600197373528e-9 3.995234456034679e-9 4.980960711446769e-10 3.676526900402245e-10
          8.400939623900068e-9 1.278557510689868e-9 3.469417885663209e-9 2.764024373503492e-8 7.356834841996647e-9 2.2080289107215683e-8
          3.238000207859254e-10 2.438604699575397e-10 9.285521975983576e-10 3.2013922506054066e-9 1.1536655932451983e-8 6.696817390629101e-8
          3.048445077227337e-8 2.0553463577633044e-8 4.653443627771586e-8 3.8139739964059554e-11 3.8012802439039444e-11 2.6397501475860724e-11
          2.623025228663168e-11 7.080405178511543e-10 9.656811326783949e-10 1.5407282046836068e-9 3.3943227521192e-10 2.663823782690851e-8
          6.4733621549552916e-9 1.3989672962068648e-11 4.466240037184577e-11 7.34241388704272e-11 2.8951531345717952e-11 2.091960983785977e-10
          8.263339976400729e-11 2.963639870924249e-10 5.307991879233985e-10 1.422607095951578e-10 1.1324672270540824e-10 1.6501515698423114e-7
          1.4304352564018654e-7 4.1417902068937116e-8 8.946110177002671e-8 1.7948599724373411e-7 1.067541232823713e-7 9.162699923153325e-8
          1.5704438917197413e-7 7.951473440568799e-8 1.5604751023641488e-7 7.647151721075246e-10 1.3713980474207657e-10 1.322278064416197e-10
          1.6276193600000342e-9 1.94263145372342e-9 1.079956639430509e-9 4.680587156578382e-9 3.08883714436898e-9 5.371635778317344e-8
          1.0267905923477966e-8 1.184294879360726e-8 7.531829990377752e-9 3.7849314837568033e-8 1.969192185026427e-8 1.558578336268356e-8
          7.059236240718694e-8 7.010791622459741e-8 6.659195457483475e-8 7.264987619890462e-8 7.583576714977247e-8 7.81891892480478e-8
          5.593541874727667e-8 3.357055600584198e-8 4.1622524813192064e-8 2.72773418842316e-8 7.202606151471828e-8 4.783202844078262e-8
          1.2281835491073162e-7 4.017769397345656e-8 5.0926155462999004e-8 6.370464915886704e-8 7.960531919500617e-8 3.1344627566286534e-8
          5.11074503477914e-8 7.766574447764503e-8 7.995787243942994e-8 5.8225146453698786e-8 6.737615799371677e-8 5.006945047197081e-8
          8.190866648500802e-8 6.192396403293319e-8 1.516946351634863e-7 5.3686833750969914e-8 4.635943030416275e-10 4.3483615034436985e-10
          3.5926819662580505e-10 1.685375444823289e-9 1.5729806571369903e-9 1.2770565844005016e-9 3.24066790060222e-10 6.976448176172289e-10
          4.4837901794066364e-10 2.095320419025264e-9 1.399297452297074e-9 1.1078530924044344e-10 2.6285237413149025e-10 1.2556046436799036e-10
          2.821900441239536e-10 1.7211475708110246e-10 9.020667335448735e-10 9.034037841786699e-10 5.594206424279944e-10 5.0973475080402386e-9
          4.754634396813779e-9 3.837229729835047e-9 1.1793406537278338e-8 1.109987443328169e-8 9.126238370197836e-9 5.445210649864527e-9
          1.180356106172886e-8 2.6578222453432545e-9 1.585177088860144e-9 6.384880411801467e-9 3.7618949092189424e-9 7.918940482091954e-10
          1.2090336014592784e-9 2.05542928991533e-9 3.0384951435881995e-9 4.5323800309883885e-9 6.4973767309541105e-9 5.040484118711697e-10
          1.3367212554570585e-9 3.0926056410577325e-10 8.310001577851687e-10 3.0120035714680333e-9 1.900434686585051e-9 2.0612375256429213e-8
          1.9712884461868447e-8 1.6788905254649165e-8 2.7819793004632943e-8 2.7342777674384796e-8 2.4549473384898748e-8 2.1157151273655243e-8
          3.163294527407652e-8 1.2150624623907992e-8 7.27920662680962e-9 1.8568394123888486e-8 1.1441401895860774e-8 3.017254329400022e-8
          3.093265079861939e-8 2.9763823929842032e-8 2.99069126587593e-8 3.146207441369131e-8 3.144513383054985e-8 3.991677138330568e-8
          4.3045835949163856e-8 2.350915571927728e-8 1.482752070242916e-8 2.5339442077609935e-8 1.6126929107327604e-8 8.343812464364043e-9
          1.1643661311359542e-8 1.276443623280135e-8 1.749928694516242e-8 5.669805114554957e-9 3.634689121963425e-9 8.834395339355786e-9
          5.752204255600351e-9 1.6375045796508534e-8 2.2251876471287775e-8 1.7774609760510904e-8 2.4087810216999673e-8 1.145278101118212e-8
          7.543415932071472e-9 1.2470134367663864e-8 8.247818723494552e-9
        </DataArray>
        <DataArray type="Float64" Name="gradient_matprop_error" format="ascii" RangeMin="0" RangeMax="0">
          0 0 0 0 0 0
          0 0 0 0 0 0
          0 0 0 0 0 0
          0 0 0 0 0 0
          0 0 0 0 0 0
          0 0 0 0 0 0
          0 0 0 0 0 0
          0 0 0 0 0 0
          0 0 0 0 0 0
          0 0 0 0 0 0
          0 0 0 0 0 0
          0 0 0 0 0 0
          0 0 0 0 0 0
          0 0 0 0 0 0
          0 0 0 0 0 0
          0 0 0 0 0 0
          0 0 0 0 0 0
          0 0 0 0 0 0
          0 0 0 0 0 0
          0 0 0 0 0 0
          0 0 0 0 0 0
          0 0 0 0 0 0
          0 0 0 0 0 0
          0 0 0 0 0 0
          0 0 0 0 0 0
          0 0 0 0 0 0
          0 0 0 0 0 0
          0 0 0 0 0 0
          0 0 0 0 0 0
          0 0 0 0 0 0
          0 0 0 0 0 0
          0 0 0 0 0 0
          0 0 0 0 0 0
          0 0 0 0 0 0
          0 0 0 0 0 0
          0 0 0 0 0 0
          0 0 0 0 0 0
          0 0 0 0 0 0
          0 0 0 0 0 0
          0 0 0 0 0 0
          0 0 0 0 0 0
          0 0 0 0 0 0
          0 0 0 0 0 0
          0 0 0 0 0 0
          0 0 0 0 0 0
          0 0 0 0 0 0
          0 0 0 0 0 0
          0 0 0 0 0 0
          0 0 0 0 0 0
          0 0 0 0 0 0
          0 0 0 0 0 0
          0 0 0 0 0 0
          0 0 0 0 0 0
          0 0 0 0 0 0
          0 0 0 0 0 0
          0 0 0 0 0 0
          0 0 0 0 0 0
          0 0 0 0 0 0
          0 0 0 0 0 0
          0 0 0 0 0 0
          0 0 0 0 0 0
          0 0 0 0 0 0
          0 0 0 0 0 0
          0 0 0 0 0 0
          0 0 0 0 0 0
          0 0 0 0 0 0
          0 0 0 0 0 0
          0 0 0 0 0 0
          0 0 0 0 0 0
          0 0 0 0 0 0
          0 0 0 0 0 0
          0 0 0 0 0 0
          0 0 0 0 0 0
          0 0 0 0 0 0
          0 0 0
        </DataArray>
        <DataArray type="Float64" Name="initial_marker" format="ascii" RangeMin="0" RangeMax="2">
          2 2 0 0.5 0 2
          0 1 1 0 0 0.5
          0.5 0 0 0 2 2
          1.75 0 0 0 0 2
          1.5 2 2 2 2 2
          2 2 2 2 2 2
          2 2 2 2 2 2
          2 2 0 1 1 1
          2 0 0 1 1 0
          1 1 0 1 1 2
          2 2 2 0 0.5 0
          1.5 0 0.5 0 0.5 0
          0 0 1.5 1.6666666666666667 0 0
          1 1 0 1 1 0
          1 1 2 2 2 2
          0 0 0.5 0.5 0 0
          0 0 0.5 0 1.5 1.5
          1.6666666666666667 2 2 2 2 2
          2 2 2 2 2 2
          2 2 2 2 2 2
          2 2 2 2 2 2
          2 2 2 2 2 2
          2 2 2 2 2 2
          2 2 2 2 2 2
          2 2 2 2 2 2
          2 2 2 2 2 2
          2 2 2 2 2 2
          2 2 2 2 2 2
          2 2 2 2 2 2
          2 2 2 2 2 2
          2 2 2 2 2 2
          2 2 2 2 2 2
          2 2 2 2 2 2
          2 2 2 2 2 2
          2 2 2 2 2 2
          2 2 2 2 2 2
          2 2 2 2 2 2
          2 2 2 2 2 2
          2 2 2 2 2 2
          2 2 2 2 2 2
          2 2 2 2 2 2
          2 2 2 2 2 2
          2 2 2 2 2 2
          2 2 2 2 2 2
          2 2 2 2 2 0
          0 0 0 0 0 0
          0 0 0 1 0.25 0.5
          0 0 0 0 0 2
          2 1.5 1.5 0 0 0
          0 0 0.25 0.5 0 2
          1.25 0 0 0 0 0
          0 1 1 1 0.5 2
          2 2 2 2 2 2
          2 2 2 1.3333333333333333 1 1.3333333333333333
          2 2 2 2 2 2
          2 2 2 2 2 2
          2 2 2 2 2 2
          2 2 2 2 2 2
          2 2 2 2 2 2
          2 2 2 2 2 2
          2 2 2 2 2 2
          2 2 2 2 2 2
          2 2 2 2 2 1.5
          1.75 1.5 2 2 2 2
          2 2 2 2 2 2
          2 2 2 2 2 2
          2 2 2 2 2 2
          2 2 2 2 2 2
          2 2 2 2 2 2
          2 2 2 2 2 2
          2 2 2 2 2 2
          2 2 2 2 2 2
          2 2 2 2 2 2
          2 2 2 2 2 2
          2 2 2
        </DataArray>
        <DataArray type="Float64" Name="markers_norefine" format="ascii" RangeMin="0" RangeMax="2">
          0 2 0 0 0 0
          0 0 0 0 0 0
          0 0 0 0 0 0
          0 0 0 0 0 0
          0 0 0 0 0 0
          2 1.5 2 0 0 0
          0 0 0.5 0.25 0 2
          1 0 0 0 0 0
          0 0 0 0 0 0
          0 0 0 0 0 0
          0 0 0 0 0 0
          0 0 0 0 0 0
          0 0 0 0 0 0
          0 0 0 0 0 0
          0 0 0 0 0 0
          0 0 0 0 0 0
          0 0 0 0 0 0
          0 0 0 0 0 0
          0 0 0 0 0 0
          0 0 0 0 0 0
          0 0 0 0 0 0
          0 0 0 0 0 0
          0.5 0.25 0 0 0 0
          0 0 0 1.5 1.25 1
          1 0.75 0.5 2 2 2
          1.75 0.25 0 1 0.5 2
          2 2 2 2 2 2
          2 2 2 1.75 1.25 2
          1.5 0 0 0 0 0
          0 0 0 0 0 0
          0 0 0 0 0 0
          0 0 0 0 0 0
          0 0 0 0 0 0
          0 0 0 0 0 0
          0 0 0 0 0 0
          0 0 0 0 0 0
          0 0 0 0.5 0.5 0
          0 0.25 0 1.5 1.5 0.5
          1 0 0 0 0 0
          0 0 0 0 0.25 0
          0 0 0 0 2 2
          1.5 1.5 1.5 0.75 2 2
          2 1.5 0.5 0.5 0.25 1
          1 0.5 0.5 0 0 0.5
          0 0 0 0 0 0
          0 0 0 0 0 0
          0 0 0 0 0 0
          0 0 0 0 0 0
          0 0 0 0 0 0
          0 0 0 0 0 0
          0 0 0 0 0 0
          0 0 0 0 0 0
          0 0 0 1 1 0.25
          0.75 0 0 0 0 0
          0 0 0 0 0 1
          0 0 0 0 0 0
          2 1.75 1.25 2 2 2
          0.5 0 0 0 1.5 0.25
          0.5 0 2 2 2 2
          2 2 2 0.75 1.3333333333333333 0.25
          2 1 1 0.5 0 0
          0 0 0 0 0 0
          0 0 0 0 0 0
          0 0 0 0 0 0
          0 0 0 0 0 0
          0 0 0 0 0 0
          0 0 0 0 0 0
          0 0 0 0 0 0
          0 0 0 0 0 0
          0 0 0 0 0 0
          0 0 0 0 0 0
          0 0 0 0 0 0
          0 0 0 0 0 0
          0 0 0 0 0 0
          0 0 0
        </DataArray>
        <DataArray type="Float64" Name="markers_mustrefine" format="ascii" RangeMin="0" RangeMax="2">
          2 2 0 0.5 0 2
          0 1 1 0 0 0.5
          0.5 0 0 0 2 2
          1.75 0 0 0 0 2
          1.5 2 2 2 2 2
          2 2 2 2 2 2
          2 2 2 2 2 2
          2 2 0 1 1 1
          2 0 0 1 1 0
          1 1 0 1 1 2
          2 2 2 0 0.5 0
          1.5 0 0.5 0 0.5 0
          0 0 1.5 1.6666666666666667 0 0
          1 1 0 1 1 0
          1 1 2 2 2 2
          0 0 0.5 0.5 0 0
          0 0 0.5 0 1.5 1.5
          1.6666666666666667 2 2 2 2 2
          2 2 2 2 2 2
          2 2 2 2 2 2
          2 2 2 2 2 2
          2 2 2 2 2 2
          2 2 2 2 2 2
          2 2 2 2 2 2
          2 2 2 2 2 2
          2 2 2 2 2 2
          2 2 2 2 2 2
          2 2 2 2 2 2
          2 2 2 2 2 2
          2 2 2 2 2 2
          2 2 2 2 2 2
          2 2 2 2 2 2
          2 2 2 2 2 2
          2 2 2 2 2 2
          2 2 2 2 2 2
          2 2 2 2 2 2
          2 2 2 2 2 2
          2 2 2 2 2 2
          2 2 2 2 2 2
          2 2 2 2 2 2
          2 2 2 2 2 2
          2 2 2 2 2 2
          2 2 2 2 2 2
          2 2 2 2 2 2
          2 2 2 2 2 0
          0 0 0 0 0 0
          0 0 0 1 0.25 0.5
          0 0 0 0 0 2
          2 1.5 1.5 0 0 0
          0 0 0.25 0.5 0 2
          1.25 0 0 0 0 0
          0 1 1 1 0.5 2
          2 2 2 2 2 2
          2 2 2 1.3333333333333333 1 1.3333333333333333
          2 2 2 2 2 2
          2 2 2 2 2 2
          2 2 2 2 2 2
          2 2 2 2 2 2
          2 2 2 2 2 2
          2 2 2 2 2 2
          2 2 2 2 2 2
          2 2 2 2 2 2
          2 2 2 2 2 1.5
          1.75 1.5 2 2 2 2
          2 2 2 2 2 2
          2 2 2 2 2 2
          2 2 2 2 2 2
          2 2 2 2 2 2
          2 2 2 2 2 2
          2 2 2 2 2 2
          2 2 2 2 2 2
          2 2 2 2 2 2
          2 2 2 2 2 2
          2 2 2 2 2 2
          2 2 2
        </DataArray>
        <DataArray type="Float64" Name="gradient_marker" format="ascii" RangeMin="0" RangeMax="1">
          1 1 0 0 0.75 1
          0 0 0 0.5 0.5 0.5
          0.5 1 1 1 0.5 0.5
          1 1 1 1 1 1
          1 0.75 0.75 1 1 1
          1 1 1 1 1 1
          1 1 1 1 1 1
          1 1 1 1 1 1
          1 1 1 1 1 1
          1 1 1 1 1 1
          1 1 1 1 1 1
          1 1 1 1 1 1
          1 1 1 1 1 1
          1 1 1 1 1 1
          1 1 1 1 1 1
          1 1 1 1 1 1
          1 1 1 1 1 1
          1 1 1 1 1 1
          1 1 1 1 1 1
          1 1 1 1 1 1
          1 1 1 1 1 1
          1 1 1 1 1 1
          1 1 1 1 1 1
          1 1 1 1 1 1
          1 1 1 1 1 1
          1 1 1 1 1 1
          1 1 1 1 1 1
          1 1 1 1 1 1
          1 1 1 1 1 1
          1 1 1 1 1 1
          1 1 1 1 1 1
          1 1 1 1 1 1
          1 1 1 1 1 1
          1 1 1 1 1 1
          1 1 1 1 1 1
          1 1 1 1 1 1
          1 1 1 1 1 1
          1 1 1 1 1 1
          1 1 1 1 1 1
          1 1 1 1 1 1
          1 1 1 1 1 1
          1 1 1 1 1 1
          1 1 1 1 1 1
          1 1 1 1 1 1
          1 1 1 1 1 1
          1 1 1 0.5 0.75 0.75
          0.625 0 0 0 0 0
          0.5 0.75 0 0 0 0
          0 0 0 1 1 1
          1 0.5 0.5 0 1 0
          0.5 1 1 1 1 1
          1 1 1 1 1 0.5
          0.5 0.625 0.25 0.5 0.75 0.75
          0.5 0.75 0.5 1 1 1
          1 1 1 1 1 0.6666666666666666
          1 1 1 0.6666666666666666 1 1
          0.5 0.5 0.5 0.5 0.5 0.5
          0.5 1 0.6666666666666666 1 0.5 1
          0.75 1 0.5 0.5 0.5 0.5
          0.5 0.5 0.5 1 0.6666666666666666 1
          0.5 1 0.75 1 1 1
          1 1 1 1 1 1
          1 1 1 1 1 1
          1 1 1 1 1 1
          1 1 1 1 1 1
          1 1 1 1 1 1
          1 1 1 1 1 1
          1 1 1 1 1 1
          1 1 1 1 1 1
          1 1 1 1 1 1
          1 1 1 1 1 1
          1 1 1 1 1 1
          1 1 1 1 1 1
          1 1 1 1 1 1
          1 1 1
        </DataArray>
        <DataArray type="Float64" Name="gradient_matprop_marker" format="ascii" RangeMin="0" RangeMax="0">
          0 0 0 0 0 0
          0 0 0 0 0 0
          0 0 0 0 0 0
          0 0 0 0 0 0
          0 0 0 0 0 0
          0 0 0 0 0 0
          0 0 0 0 0 0
          0 0 0 0 0 0
          0 0 0 0 0 0
          0 0 0 0 0 0
          0 0 0 0 0 0
          0 0 0 0 0 0
          0 0 0 0 0 0
          0 0 0 0 0 0
          0 0 0 0 0 0
          0 0 0 0 0 0
          0 0 0 0 0 0
          0 0 0 0 0 0
          0 0 0 0 0 0
          0 0 0 0 0 0
          0 0 0 0 0 0
          0 0 0 0 0 0
          0 0 0 0 0 0
          0 0 0 0 0 0
          0 0 0 0 0 0
          0 0 0 0 0 0
          0 0 0 0 0 0
          0 0 0 0 0 0
          0 0 0 0 0 0
          0 0 0 0 0 0
          0 0 0 0 0 0
          0 0 0 0 0 0
          0 0 0 0 0 0
          0 0 0 0 0 0
          0 0 0 0 0 0
          0 0 0 0 0 0
          0 0 0 0 0 0
          0 0 0 0 0 0
          0 0 0 0 0 0
          0 0 0 0 0 0
          0 0 0 0 0 0
          0 0 0 0 0 0
          0 0 0 0 0 0
          0 0 0 0 0 0
          0 0 0 0 0 0
          0 0 0 0 0 0
          0 0 0 0 0 0
          0 0 0 0 0 0
          0 0 0 0 0 0
          0 0 0 0 0 0
          0 0 0 0 0 0
          0 0 0 0 0 0
          0 0 0 0 0 0
          0 0 0 0 0 0
          0 0 0 0 0 0
          0 0 0 0 0 0
          0 0 0 0 0 0
          0 0 0 0 0 0
          0 0 0 0 0 0
          0 0 0 0 0 0
          0 0 0 0 0 0
          0 0 0 0 0 0
          0 0 0 0 0 0
          0 0 0 0 0 0
          0 0 0 0 0 0
          0 0 0 0 0 0
          0 0 0 0 0 0
          0 0 0 0 0 0
          0 0 0 0 0 0
          0 0 0 0 0 0
          0 0 0 0 0 0
          0 0 0 0 0 0
          0 0 0 0 0 0
          0 0 0 0 0 0
          0 0 0
        </DataArray>
        <DataArray type="Float64" Name="combo" format="ascii" RangeMin="0" RangeMax="2">
          1 2 0 0 0.75 1
          0 0 0 0.5 0.5 0.5
          0.5 1 1 1 0.5 0.5
          1 1 1 1 1 1
          1 0.75 0.75 1 1 1
          2 1.75 2 1 1 1
          1 1 1.25 1.125 1 2
          1.5 1 1 1 1 1
          1 1 1 1 1 1
          1 1 1 1 1 1
          1 1 1 1 1 1
          1 1 1 1 1 1
          1 1 1 1 1 1
          1 1 1 1 1 1
          1 1 1 1 1 1
          1 1 1 1 1 1
          1 1 1 1 1 1
          1 1 1 1 1 1
          1 1 1 1 1 1
          1 1 1 1 1 1
          1 1 1 1 1 1
          1 1 1 1 1 1
          1.25 1.125 1 1 1 1
          1 1 1 1.75 1.625 1.5
          1.5 1.375 1.25 2 2 2
          1.875 1.125 1 1.5 1.25 2
          2 2 2 2 2 2
          2 2 2 1.875 1.625 2
          1.75 1 1 1 1 1
          1 1 1 1 1 1
          1 1 1 1 1 1
          1 1 1 1 1 1
          1 1 1 1 1 1
          1 1 1 1 1 1
          1 1 1 1 1 1
          1 1 1 1 1 1
          1 1 1 1.25 1.25 1
          1 1.125 1 1.75 1.75 1.25
          1.5 1 1 1 1 1
          1 1 1 1 1.125 1
          1 1 1 1 2 2
          1.75 1.75 1.75 1.375 2 2
          2 1.75 1.25 1.25 1.125 1.5
          1.5 1.25 1.25 1 1 1.25
          1 1 1 1 1 1
          1 1 1 0.5 0.75 0.75
          0.625 0 0 0 0 0
          0.5 0.75 0 0 0 0
          0 0 0 1 1 1
          1 0.5 0.5 0 1 0
          0.5 1 1 1 1 1
          1 1 1 1 1 0.5
          0.5 0.625 0.25 1.5 1.5 1
          1.25 0.75 0.5 1 1 1
          1 1 1 1 1 1.5
          1 1 1 0.6666666666666666 1 1
          2 1.875 1.5 2 2 2
          0.875 1 0.6666666666666666 1 1.625 1.125
          1.125 1 2 2 2 2
          2 2 2 1.375 1.6666666666666667 1.125
          2 1.5 1.5 1.25 1 1
          1 1 1 1 1 1
          1 1 1 1 1 1
          1 1 1 1 1 1
          1 1 1 1 1 1
          1 1 1 1 1 1
          1 1 1 1 1 1
          1 1 1 1 1 1
          1 1 1 1 1 1
          1 1 1 1 1 1
          1 1 1 1 1 1
          1 1 1 1 1 1
          1 1 1 1 1 1
          1 1 1 1 1 1
          1 1 1
        </DataArray>
        <DataArray type="Float64" Name="dHdT" format="ascii" RangeMin="25.80136210027404" RangeMax="54.87541831673171">
          25.93054541310831 46.273432545219634 25.805135099045792 25.857266735096857 25.81327307375295 36.3339062901657
          25.83779598433593 25.887156278360493 25.879067526009038 25.829293436464376 25.82787497807476 25.861083740594637
          25.855702341457867 25.815667439842798 25.821691186225664 25.822107376672214 26.215016452166488 26.161003591938734
          25.90795981551915 25.81298866063462 25.812788749821216 25.81511090984921 25.816838719174307 25.860217771323683
          25.850507417130586 29.50540323598693 28.765229093705152 27.264815297814497 26.911185750248006 33.36916025026563
          50.24331098063742 47.34987313786344 49.81449815071046 26.493565886223966 26.31796897742346 31.67527486139835
          30.01368452574826 27.257755305109452 45.87936552950829 39.644161747469795 30.85864672978053 54.87541831673171
          46.77197742860747 32.94436336299345 25.85017421749835 25.878901967548458 25.875662432814917 25.86825129381831