<?xml version="1.0"?>
<VTKFile type="UnstructuredGrid" version="0.1" byte_order="LittleEndian" header_type="UInt32" compressor="vtkZLibDataCompressor">
  <UnstructuredGrid>
    <Piece NumberOfPoints="444" NumberOfCells="260">
      <PointData>
        <DataArray type="Int32" Name="libmesh_node_id" format="ascii" RangeMin="328" RangeMax="3233">
          328 533 914 916 920 921
          922 954 955 972 973 976
          978 979 981 1677 1685 1686
          1687 1711 1712 1714 1717 1719
          1720 1721 1722 1723 1724 1725
          1726 1727 1728 1736 1737 1738
          1739 1740 1741 1742 1747 1748
          1749 1750 1779 1780 1781 1782
          1783 1784 1785 1786 1787 1788
          1795 1796 1798 1800 1802 1806
          1807 1808 1816 1819 1820 1821
          1822 1823 1824 1825 1826 1827
          1828 1829 1830 1833 1835 1836
          1838 1839 1840 1841 1842 1843
          1844 1845 1846 1850 2712 2713
          2714 2715 2719 2720 2721 2722
          2723 2724 2725 2726 2727 2728
          2729 2730 2731 2732 2733 2734
          2735 2746 2747 2748 2749 2750
          2751 2752 2753 2754 2755 2763
          2764 2765 2766 2767 2768 2780
          2781 2782 2783 2784 2785 2786
          2787 2788 2789 2797 2798 2800
          2801 2802 2804 2805 2806 2807
          2808 2809 2810 2811 2812 2813
          2814 2815 2816 2817 2818 2819
          2820 2821 2822 2823 2824 2825
          2826 2827 2828 2829 2830 2831
          2832 2833 2834 2835 2836 2837
          2838 2839 2840 2841 2842 2843
          2844 2845 2846 2847 2848 2849
          2850 2851 2852 2853 2854 2855
          2856 2857 2858 2859 2860 2861
          2862 2863 2864 2865 2866 2867
          2868 2869 2870 2871 2876 2886
          2888 2890 2892 2893 2894 2895
          2896 2897 2898 2899 2900 2901
          2902 2903 2904 2905 2906 2907
          2908 2909 2910 2911 2973 2974
          2975 2976 2977 2978 2979 2980
          2981 2982 2983 2984 2985 2986
          3014 3015 3016 3017 3030 3031
          3032 3078 3079 3080 3081 3082
          3083 3084 3085 3086 3087 3088
          3089 3090 3091 3092 3093 3094
          3095 3096 3097 3098 3099 3100
          3101 3102 3103 3104 3105 3106
          3107 3108 3109 3110 3111 3112
          3113 3114 3115 3116 3117 3118
          3119 3120 3121 3122 3123 3124
          3125 3126 3127 3128 3129 3130
          3131 3132 3133 3134 3135 3136
          3137 3138 3139 3140 3141 3142
          3143 3144 3145 3146 3147 3148
          3149 3150 3151 3152 3153 3154
          3155 3166 3167 3168 3169 3170
          3171 3172 3180 3181 3182 3183
          3184 3185 3186 3187 3188 3189
          3200 3201 3202 3203 3204 3205
          3206 3214 3215 3216 3217 3218
          3219 3220 3221 3222 3223 3224
          3225 3226 3227 3228 3229 3230
          3231 3232 3233 918 919 937
          935 923 942 941 1669 1671
          1672 1670 1675 1676 1674 1673
          915 1678 1679 1680 1681 1682
          1683 1688 1684 917 1697 1696
          1713 1730 1729 1706 1707 1708
          1732 1734 526 1593 902 1702
          2710 2738 2739 2741 1709 2744
          1710 2717 2757 2759 2761 2769
          2772 2773 2775 1715 2778 1716
          2791 2799 2793 2795 2803 1718
          2875 2885 2877 2887 2889 2891
        </DataArray>
        <DataArray type="Float64" Name="bounds" format="ascii" RangeMin="0" RangeMax="0">
          0 0 0 0 0 0
          0 0 0 0 0 0
          0 0 0 0 0 0
          0 0 0 0 0 0
          0 0 0 0 0 0
          0 0 0 0 0 0
          0 0 0 0 0 0
          0 0 0 0 0 0
          0 0 0 0 0 0
          0 0 0 0 0 0
          0 0 0 0 0 0
          0 0 0 0 0 0
          0 0 0 0 0 0
          0 0 0 0 0 0
          0 0 0 0 0 0
          0 0 0 0 0 0
          0 0 0 0 0 0
          0 0 0 0 0 0
          0 0 0 0 0 0
          0 0 0 0 0 0
          0 0 0 0 0 0
          0 0 0 0 0 0
          0 0 0 0 0 0
          0 0 0 0 0 0
          0 0 0 0 0 0
          0 0 0 0 0 0
          0 0 0 0 0 0
          0 0 0 0 0 0
          0 0 0 0 0 0
          0 0 0 0 0 0
          0 0 0 0 0 0
          0 0 0 0 0 0
          0 0 0 0 0 0
          0 0 0 0 0 0
          0 0 0 0 0 0
          0 0 0 0 0 0
          0 0 0 0 0 0
          0 0 0 0 0 0
          0 0 0 0 0 0
          0 0 0 0 0 0
          0 0 0 0 0 0
          0 0 0 0 0 0
          0 0 0 0 0 0
          0 0 0 0 0 0
          0 0 0 0 0 0
          0 0 0 0 0 0
          0 0 0 0 0 0
          0 0 0 0 0 0
          0 0 0 0 0 0
          0 0 0 0 0 0
          0 0 0 0 0 0
          0 0 0 0 0 0
          0 0 0 0 0 0
          0 0 0 0 0 0
          0 0 0 0 0 0
          0 0 0 0 0 0
          0 0 0 0 0 0
          0 0 0 0 0 0
          0 0 0 0 0 0
          0 0 0 0 0 0
          0 0 0 0 0 0
          0 0 0 0 0 0
          0 0 0 0 0 0
          0 0 0 0 0 0
          0 0 0 0 0 0
          0 0 0 0 0 0
          0 0 0 0 0 0
          0 0 0 0 0 0
          0 0 0 0 0 0
          0 0 0 0 0 0
          0 0 0 0 0 0
          0 0 0 0 0 0
          0 0 0 0 0 0
          0 0 0 0 0 0
        </DataArray>
        <DataArray type="Float64" Name="gradient_error" format="ascii" RangeMin="9.55205241918354e-9" RangeMax="3.293491649267945e-7">
          1.826885390913679e-8 2.3674024088322578e-7 1.761387739507919e-7 1.9917352488260815e-7 1.6030232414373408e-8 4.062318990238928e-8
          5.996372094800683e-8 3.048445077227337e-8 2.0553463577633044e-8 1.7948599724373411e-7 1.5604751023641488e-7 6.340102293947982e-8
          1.027184022210029e-8 1.5571849878284868e-7 1.1375733165817646e-7 1.6682685106451207e-7 1.9029946499090103e-7 1.7708197337245818e-7
          1.817687960951002e-7 2.996075796237112e-8 3.4951201865916946e-8 1.101907068923051e-7 2.975067784522579e-8 3.890729935039485e-8
          4.5051954726910034e-8 5.008210408155638e-8 5.750577085746571e-8 1.203912354893267e-7 1.2761031952287392e-7 1.7356440355763712e-8
          3.835562147063287e-8 4.813724608972139e-8 4.974547429288253e-8 1.943829412710351e-7 1.8356976298507193e-7 1.96527191382398e-7
          1.7243666110473278e-7 1.4214375238905484e-7 1.3123063105356838e-7 2.318585639762818e-7 6.188004444911889e-8 5.5157499296317634e-8
          2.663823782690851e-8 3.8990643660786784e-8 1.9402169103178748e-7 1.7084128252074938e-7 1.6501515698423114e-7 1.4304352564018654e-7
          1.1238062566736117e-7 8.946110177002671e-8 1.9729522750109924e-7 1.7613563989040405e-7 1.5704438917197413e-7 1.858239532342e-7
          1.067541232823713e-7 9.162699923153325e-8 7.951473440568799e-8 5.330968626090394e-8 3.9264227994947144e-8 1.4860619015285655e-7
          1.1987483607761648e-7 7.756359613447766e-8 5.621667729229254e-8 5.904666187305154e-8 7.046801459208292e-8 6.687862155358992e-8
          7.921378024675074e-8 1.281598448135493e-7 1.609633043828556e-7 1.3556871878373872e-8 5.966876248524246e-8 7.101508447517105e-8
          6.889633108401314e-8 7.264987619890462e-8 7.81891892480478e-8 1.2281835491073162e-7 3.1344627566286534e-8 7.766574447764503e-8
          1.516946351634863e-7 1.6079004165400802e-7 1.7379649127832765e-7 1.3827080844529393e-7 7.292404729455004e-8 1.113557581393303e-7
          1.7394377751856537e-7 1.6706354503999468e-7 1.1023763858627337e-7 1.3681254091484613e-7 3.399912453287241e-8 3.506009327898718e-8
          3.851942321599071e-8 3.8288812694919104e-8 4.1556845716537364e-8 4.441122528712893e-8 4.265712806833847e-8 4.1746960417449895e-8
          4.262211595737112e-8 4.740446767898654e-8 4.5217815154345595e-8 5.205397530906131e-8 5.273850413143887e-8 5.83246289636032e-8
          5.412285689071997e-8 4.753704312276063e-8 5.087096515172038e-8 4.81357274341224e-8 5.423824996171445e-8 5.72629436808215e-8
          5.365381909580538e-8 3.198078559444289e-8 3.2858711948214574e-8 3.583433836978603e-8 3.668090737470263e-8 3.531196063338206e-8
          3.8936203321974184e-8 2.632921332196991e-8 2.7756890171563307e-8 3.158869923242803e-8 3.0886683446836904e-8 3.905388713769408e-8
          4.228158342770608e-8 4.12204913106103e-8 4.4218236591083005e-8 3.464273994099955e-8 3.850985677876431e-8 1.8545750665005804e-8
          2.160965732759727e-8 2.0913433418864068e-8 2.4580505980087147e-8 2.7702917227214983e-8 3.1638890085019325e-8 1.4395521342085156e-8
          1.8362864929509905e-8 2.0826005028732776e-8 2.596757613260118e-8 3.219413426435289e-8 3.637639555003908e-8 4.0807899580187375e-8
          3.165371720555747e-8 3.588501911083276e-8 4.035750595306719e-8 4.11628948473387e-8 4.557318549257775e-8 4.6320246609789566e-8
          4.313259967602273e-8 4.790233084996384e-8 3.414031427141076e-8 3.602167551633496e-8 4.1091871599893936e-8 3.9665089125124875e-8
          5.13817483921791e-8 5.205079731425709e-8 5.757203275500303e-8 5.8122929146460875e-8 5.3127615273545926e-8 5.84977998465515e-8
          4.425066434054587e-8 4.6783536973546935e-8 5.301442120132036e-8 5.105826472938835e-8 4.587914616420989e-8 4.981022815301437e-8
          4.746137671798456e-8 5.0883102333102455e-8 4.291673064620888e-8 4.787293899278897e-8 4.5469972871912906e-8 5.393999332205943e-8
          5.8003887464216355e-8 5.434460233336208e-8 5.768600077324843e-8 5.330184178386447e-8 5.904818042584571e-8 5.391561695995363e-8
          2.3172419963381272e-8 2.769081157337491e-8 2.5327680179259122e-8 3.0909831412740884e-8 3.610455240993666e-8 4.106305649349925e-8
          1.7032262872625512e-8 2.304194585138619e-8 2.4871945166286492e-8 3.392631076732343e-8 2.768699649779127e-8 3.4441264402208257e-8
          3.0548771980158556e-8 3.85109202077546e-8 4.651709203334514e-8 5.245244319655947e-8 1.7582185789787682e-8 2.667854535439793e-8
          2.8914227342187056e-8 4.305002826428547e-8 4.116761423510419e-8 4.6561016475304823e-8 4.4892702175844776e-8 4.936006171108737e-8
          4.072301638344978e-8 4.612564611934008e-8 4.4973958044743545e-8 5.247520685202769e-8 5.8758148417720376e-8 5.40867072775798e-8
          5.8879780030560715e-8 5.1988466818730875e-8 5.8164767231360545e-8 5.481768190068854e-8 4.5826629942766644e-8 4.5718747589582566e-8
          4.7544285490140095e-8 4.561086523639849e-8 4.8580378569769176e-8 5.1275624875310204e-8 4.956347813065398e-8 5.36975586760066e-8
          5.5551146806907414e-8 5.325539390315283e-8 4.867899116298993e-8 5.1635909965997415e-8 4.990790480799392e-8 5.20395991196539e-8
          4.877760375621069e-8 5.199619505668464e-8 5.025233148533385e-8 5.439916137153396e-8 5.6707845036557546e-8 5.3736670131898674e-8
          5.4740608889666135e-8 5.510076406706132e-8 5.786454326620769e-8 5.421794636064452e-8 6.352376772171407e-8 6.368647319692207e-8
          6.808983422799328e-8 6.27941753584405e-8 7.156828967632422e-8 7.077093239191908e-8 7.117838975912386e-8 6.722451753610316e-8
          5.948365289328908e-8 6.042566386071632e-8 5.722813374182723e-8 5.96930751390327e-8 5.6935720512220614e-8 5.4910690313373055e-8
          7.051903786385897e-8 6.929155518812031e-8 5.371635778317344e-8 6.38004295721787e-8 5.212429440415554e-8 3.7849314837568033e-8
          4.471180217633535e-8 6.374582615480865e-8 6.412203983930619e-8 6.925826328086359e-8 6.936936308165062e-8 6.356863240558322e-8
          6.784422888759521e-8 5.528770019626128e-8 5.9113737398836926e-8 6.438597644152873e-8 6.411859974255815e-8 7.334896136806417e-8
          7.310075144600191e-8 7.520779288181688e-8 7.467083080507067e-8 7.07956645971704e-8 7.181028799030626e-8 6.25575211611589e-8
          6.903053911498447e-8 7.318785044990554e-8 7.57850382514852e-8 6.159125300929669e-8 6.416350880193447e-8 6.05434947312307e-8
          6.211902271111616e-8 6.476580194111663e-8 6.987872125305756e-8 6.263093341858893e-8 6.527270983020074e-8 6.436904466908014e-8
          6.18066319900004e-8 5.925138208587224e-8 7.404038306700526e-8 7.636518769830828e-8 6.758294231572393e-8 3.201699162013782e-8
          4.216962158762313e-8 3.078039322524606e-8 4.463204706697819e-8 5.879612329344549e-8 6.533127396492239e-8 1.7426467435656315e-8
          3.0669374859262695e-8 3.1141033186206854e-8 5.369813655450056e-8 2.9768730840848608e-8 4.714806230088259e-8 3.292501625647495e-8
          5.1459837475245904e-8 7.142611795731283e-8 7.626356595331341e-8 9.55205241918354e-9 3.166561687188099e-8 3.470724590169824e-8
          6.56489710698929e-8 6.512721431966454e-8 7.118793473885096e-8 6.342306473112363e-8 6.716557496197704e-8 6.44216778824001e-8
          7.051978071473945e-8 6.482915719468095e-8 7.696126301739125e-8 8.147654207901032e-8 6.91370469797468e-8 7.3751525943161e-8
          7.669410442214082e-8 8.202507758734373e-8 7.125096731922156e-8 7.430486358120291e-8 7.372541337246916e-8 7.059236240718694e-8
          7.010791622459741e-8 7.047575136759702e-8 6.659195457483475e-8 7.111850444300534e-8 7.60024401089093e-8 7.583576714977247e-8
          8.015551061882018e-8 6.11245067732884e-8 5.593541874727667e-8 5.444347397511815e-8 4.1622524813192064e-8 7.563132642732213e-8
          7.202606151471828e-8 7.183800739181715e-8 4.130258655202523e-8 5.7811017036296145e-8 5.0926155462999004e-8 6.370464915886704e-8
          7.925514631764874e-8 7.960531919500617e-8 1.8458853516586627e-8 4.1776425411591695e-8 5.11074503477914e-8 7.535034456067247e-8
          8.25231117371886e-8 7.995787243942994e-8 8.085537835964676e-8 6.737615799371677e-8 8.390828976215417e-8 8.190866648500802e-8
          8.220988770956017e-8 5.655660027423546e-8 5.6439113287359567e-8 5.3688758289763136e-8 5.429305099447913e-8 5.25241562027918e-8
          4.986576844148679e-8 5.831863027234845e-8 5.897290725709439e-8 5.4775564689996156e-8 5.381168704680215e-8 6.008066027046145e-8
          6.15067012268292e-8 5.5862371090229176e-8 5.784193603747046e-8 5.665780459756906e-8 5.300746199652076e-8 5.2902253256476465e-8
          6.139082108046179e-8 6.07914529923463e-8 5.6149155551554724e-8 2.0998311254380017e-7 1.4012626145179026e-7 9.361057060022875e-8
          1.5156337524106531e-7 3.293491649267945e-7 1.3595478418775368e-7 2.1555640098928882e-7 2.094497034648369e-7 2.158993752390993e-7
          1.9917768502780286e-7 1.9549564576474007e-7 1.608054755871398e-7 1.5456484128833336e-7 1.51638152274211e-7 1.5451991988594072e-7
          2.0262076406268644e-7 1.9332726580154744e-7 2.1770733129617747e-7 1.9796909232516775e-7 2.1145500672303657e-7 1.8918503645780514e-7
          1.441340289564612e-7 2.0708813006869152e-7 1.310200994277591e-7 2.0263224355793848e-7 1.89309901351765e-7 1.8898865080824236e-7
          9.970494914363578e-8 1.9577063190791193e-7 1.9111074172362322e-7 1.839325740189208e-7 1.7069665093470595e-7 1.1688631496023435e-7
          2.1009767016420427e-7 1.4545434933805482e-7 6.696817390629101e-8 7.358417900697899e-8 4.653443627771586e-8 6.728621407483077e-8
          3.2200972628196085e-8 2.875388109954101e-8 2.9650585403958333e-8 3.221082788423982e-8 2.3188542615193124e-8 2.4472525058641366e-8
          2.740630015174262e-8 3.899117495974554e-8 3.6215538731235175e-8 3.855671140236637e-8 3.1309263997749576e-8 3.8294099948408994e-8
          1.6313629152119508e-8 1.8943824221158778e-8 2.4311171573640272e-8 1.2656255843878682e-8 1.604279650475541e-8 2.2696644605754726e-8
          2.859365011210602e-8 3.714739438375701e-8 3.3931200208336924e-8 2.8008674731437707e-8 3.6745566121341597e-8 3.334158007399594e-8
          4.3164908320638803e-8 4.2884733550030586e-8 4.4840876815014617e-8 4.51306763970117e-8 4.260455877942237e-8 4.542047597900879e-8
        </DataArray>
        <DataArray type="Float64" Name="gradient_matprop_error" format="ascii" RangeMin="0" RangeMax="0">
          0 0 0 0 0 0
          0 0 0 0 0 0
          0 0 0 0 0 0
          0 0 0 0 0 0
          0 0 0 0 0 0
          0 0 0 0 0 0
          0 0 0 0 0 0
          0 0 0 0 0 0
          0 0 0 0 0 0
          0 0 0 0 0 0
          0 0 0 0 0 0
          0 0 0 0 0 0
          0 0 0 0 0 0
          0 0 0 0 0 0
          0 0 0 0 0 0
          0 0 0 0 0 0
          0 0 0 0 0 0
          0 0 0 0 0 0
          0 0 0 0 0 0
          0 0 0 0 0 0
          0 0 0 0 0 0
          0 0 0 0 0 0
          0 0 0 0 0 0
          0 0 0 0 0 0
          0 0 0 0 0 0
          0 0 0 0 0 0
          0 0 0 0 0 0
          0 0 0 0 0 0
          0 0 0 0 0 0
          0 0 0 0 0 0
          0 0 0 0 0 0
          0 0 0 0 0 0
          0 0 0 0 0 0
          0 0 0 0 0 0
          0 0 0 0 0 0
          0 0 0 0 0 0
          0 0 0 0 0 0
          0 0 0 0 0 0
          0 0 0 0 0 0
          0 0 0 0 0 0
          0 0 0 0 0 0
          0 0 0 0 0 0
          0 0 0 0 0 0
          0 0 0 0 0 0
          0 0 0 0 0 0
          0 0 0 0 0 0
          0 0 0 0 0 0
          0 0 0 0 0 0
          0 0 0 0 0 0
          0 0 0 0 0 0
          0 0 0 0 0 0
          0 0 0 0 0 0
          0 0 0 0 0 0
          0 0 0 0 0 0
          0 0 0 0 0 0
          0 0 0 0 0 0
          0 0 0 0 0 0
          0 0 0 0 0 0
          0 0 0 0 0 0
          0 0 0 0 0 0
          0 0 0 0 0 0
          0 0 0 0 0 0
          0 0 0 0 0 0
          0 0 0 0 0 0
          0 0 0 0 0 0
          0 0 0 0 0 0
          0 0 0 0 0 0
          0 0 0 0 0 0
          0 0 0 0 0 0
          0 0 0 0 0 0
          0 0 0 0 0 0
          0 0 0 0 0 0
          0 0 0 0 0 0
          0 0 0 0 0 0
        </DataArray>
        <DataArray type="Float64" Name="initial_marker" format="ascii" RangeMin="0.5" RangeMax="2">
          2 2 2 2 2 2
          2 2 1.5 2 2 1.5
          2 2 2 2 2 2
          2 2 2 2 2 2
          2 2 2 2 2 2
          2 2 2 2 2 2
          2 2 2 2 2 2
          2 2 2 2 2 2
          2 2 2 2 2 2
          2 2 2 1.5 1.5 2
          2 2 2 2 2 2
          2 2 2 2 2 2
          2 2 2 2 2 2
          2 2 2 2 2 2
          2 2 2 2 2 2
          2 2 2 2 2 2
          2 2 2 2 2 2
          2 2 2 2 2 2
          2 2 2 2 2 2
          2 2 2 2 2 2
          2 2 2 2 2 2
          2 2 2 2 2 2
          2 2 2 2 2 2
          2 2 2 2 2 2
          2 2 2 2 2 2
          2 2 2 2 2 2
          2 2 2 2 2 2
          2 2 2 2 2 2
          2 2 2 2 2 2
          2 2 2 2 2 2
          2 2 2 2 2 2
          2 2 2 2 2 2
          2 2 2 2 2 2
          2 2 2 2 2 2
          2 2 2 2 2 2
          2 2 2 2 2 2
          2 2 2 2 2 2
          2 2 2 2 2 2
          2 2 2 2 2 2
          2 2 2 2 2 2
          2 2 2 2 2 2
          2 2 2 2 2 2
          2 2 2 2 2 2
          2 2 2 2 2 2
          2 2 2 2 2 2
          2 2 2 2 2 2
          2 2 2 2 2 2
          2 2 2 2 2 2
          2 2 2 2 2 2
          2 2 2 2 2 2
          2 2 2 2 2 2
          2 2 2 2 2 2
          2 2 2 2 2 2
          2 2 2 2 2 2
          2 2 2 2 2 2
          2 2 2 2 2 2
          2 2 2 2 2 2
          2 2 2 2 2 2
          2 2 2 2 2 2
          2 2 2 2 2 2
          2 2 2 2 2 2
          2 2 2 2 2 2
          2 2 2 1.5 1.5 0.5
          0.5 2 1 1 2 2
          2 2 2 2 2 2
          2 2 2 2 2 2
          2 2 2 2 2 2
          2 2 2 2 2 2
          2 2 2 2 1.5 1.5
          2 2 2 2 2 2
          2 2 2 2 2 2
          2 2 2 2 2 2
          2 2 2 2 2 2
          2 2 2 2 2 2
        </DataArray>
        <DataArray type="Float64" Name="markers_norefine" format="ascii" RangeMin="0" RangeMax="2">
          2 0 1 1 2 2
          2 0 0 1 0 0
          2 1.5 0 1 1 1
          1 2 2 1.5 2 2
          2 2 2 1.5 1.5 2
          2 2 2 0 0 0
          0 0 0 0 0 0
          0 0 0 0 0 0
          0 0 1 1 0.75 0
          1 0.25 0 0 0 0
          0 0 0 2 2 2
          2 1.5 1 2 2 2
          2 2 2 0.5 2 2
          1 0 0 0 0 0
          0 0 0 0 2 2
          2 2 1 1 0 2
          2 2 2 2 2 2
          2 1 1 0 1 1
          0 2 2 2 2 2
          2 2 2 2 2 1.5
          1.5 1 1 2 2 2
          2 2 2 2 2 2
          2 2 2 2 2 2
          2 2 2 2 2 2
          2 2 2 2 2 2
          2 2 2 2 2 2
          2 2 2 2 1.5 1.5
          1 1 2 2 2 1.5
          1.5 1 1 2 2 2
          2 2 2 2 2 2
          2 2 2 2 2 2
          2 2 2 2 2 2
          2 2 2 2 2 2
          2 2 2 2 2 2
          2 2 2 2 1 1
          0 1 1 1 0 1
          1 0 1 1 0 0
          1 1 0 1 1 0
          0 1 1 0 2 2
          2 2 2 2 2 2
          1 1 0 1 0.5 0
          2 2 1 1 0 0
          0 2 2 2 2 2
          2 2 2 2 2 2
          2 2 2 2 1.75 2
          2 2 2 1.5 1.5 1
          1 2 2 2 1.5 1.25
          1 1 2 2 1.6666666666666667 2
          2 2 2 2 2 2
          2 2 2 2 2 2
          2 2 2 2 2 2
          2 2 2 2 2 2
          2 2 2 2 1.75 1.6666666666666667
          2 2 2 2 2 2
          1.75 1.5 1.25 2 2 2
          2 0.75 0.5 0.5 0 1.75
          1.5 1.5 2 2 2 2
          2 2 2 2 2 2
          2 2 2 1.3333333333333333 2 2
          2 1 1 0 0.5 0
          0 1 1 0 0 1
          1 0 0.75 0.5 0 0
          1 1 0 0 0 0
          0 0 0 0 0 0
          0 0 1 1 0 0
          0 0 0 0 0 0
          0 0 0 0 0 0
          1.5 0 0 0 0 0
          0 0 0 0 0 0
          2 2 2 2 2 2
          2 1 1.5 1 2 2
          2 2 2 2 2 2
          2 2 2 2 2 2
          1 1 0 0 1 0
        </DataArray>
        <DataArray type="Float64" Name="markers_mustrefine" format="ascii" RangeMin="0.5" RangeMax="2">
          2 2 2 2 2 2
          2 2 1.5 2 2 1.5
          2 2 2 2 2 2
          2 2 2 2 2 2
          2 2 2 2 2 2
          2 2 2 2 2 2
          2 2 2 2 2 2
          2 2 2 2 2 2
          2 2 2 2 2 2
          2 2 2 1.5 1.5 2
          2 2 2 2 2 2
          2 2 2 2 2 2
          2 2 2 2 2 2
          2 2 2 2 2 2
          2 2 2 2 2 2
          2 2 2 2 2 2
          2 2 2 2 2 2
          2 2 2 2 2 2
          2 2 2 2 2 2
          2 2 2 2 2 2
          2 2 2 2 2 2
          2 2 2 2 2 2
          2 2 2 2 2 2
          2 2 2 2 2 2
          2 2 2 2 2 2
          2 2 2 2 2 2
          2 2 2 2 2 2
          2 2 2 2 2 2
          2 2 2 2 2 2
          2 2 2 2 2 2
          2 2 2 2 2 2
          2 2 2 2 2 2
          2 2 2 2 2 2
          2 2 2 2 2 2
          2 2 2 2 2 2
          2 2 2 2 2 2
          2 2 2 2 2 2
          2 2 2 2 2 2
          2 2 2 2 2 2
          2 2 2 2 2 2
          2 2 2 2 2 2
          2 2 2 2 2 2
          2 2 2 2 2 2
          2 2 2 2 2 2
          2 2 2 2 2 2
          2 2 2 2 2 2
          2 2 2 2 2 2
          2 2 2 2 2 2
          2 2 2 2 2 2
          2 2 2 2 2 2
          2 2 2 2 2 2
          2 2 2 2 2 2
          2 2 2 2 2 2
          2 2 2 2 2 2
          2 2 2 2 2 2
          2 2 2 2 2 2
          2 2 2 2 2 2
          2 2 2 2 2 2
          2 2 2 2 2 2
          2 2 2 2 2 2
          2 2 2 2 2 2
          2 2 2 2 2 2
          2 2 2 1.5 1.5 0.5
          0.5 2 1 1 2 2
          2 2 2 2 2 2
          2 2 2 2 2 2
          2 2 2 2 2 2
          2 2 2 2 2 2
          2 2 2 2 1.5 1.5
          2 2 2 2 2 2
          2 2 2 2 2 2
          2 2 2 2 2 2
          2 2 2 2 2 2
          2 2 2 2 2 2
        </DataArray>
        <DataArray type="Float64" Name="gradient_marker" format="ascii" RangeMin="0" RangeMax="1">
          0 1 0.5 0.5 0 0
          0 0 0 0.5 0.5 0.125
          0 0.25 0.5 0.5 0.5 0.5
          0.5 0 0 0.25 0 0
          0 0 0 0.25 0.25 0
          0 0 0 0.75 0.75 1
          1 0.5 0.5 1 0 0
          0 0 0.5 0.5 0.5 0.5
          0.375 0.25 0.5 0.5 0.5 0.625
          0.75 0.75 0.75 0.125 0 0.5
          0.25 0.25 0.625 0 0 0
          0 0.25 0.375 0 0 0
          0 0.5 0.5 0.75 0.5 0.5
          0.75 0.625 0.5 0.75 0.16666666666666666 0.5
          0.5 1 0.75 0.75 0 0
          0 0 0 0 0 0
          0 0 0 0 0 0
          0 0 0 0 0 0
          0 0 0 0 0 0
          0 0 0 0 0 0
          0 0 0 0 0 0
          0 0 0 0 0 0
          0 0 0 0 0 0
          0 0 0 0 0 0
          0 0 0 0 0 0
          0 0 0 0 0 0
          0 0 0 0 0 0
          0 0 0 0 0 0
          0 0 0 0 0 0
          0 0 0 0 0 0
          0 0 0 0 0 0
          0 0 0 0 0 0
          0 0 0 0 0 0
          0 0 0 0 0 0
          0 0 0 0 0 0
          0 0 0 0 0 0
          0 0 0 0 0 0
          0 0 0 0 0 0
          0 0 0 0 0 0
          0 0 0 0 0 0
          0 0 0 0 0 0
          0 0 0.6666666666666666 0 0 0.6666666666666666
          0 0 0 0 0 0
          0 0 0 0 0 0
          0 0 0 0 0 0
          0 0 0 0 0 0
          0 0 0 0 0 0
          0 0 0 0 0 0
          0 0 0 0 0 0
          0 0 0 0 0 0
          0 0 0 0 0 0
          0 0 0 0 0 0
          0 0 0 0 0 0
          0 0 0 0 0 0.5
          0.5 0 0.5 0 0 0.5
          0 0 0.5 0 0.6666666666666666 0
          0.5 0 0 0 0.5 0.5
          0 0.5 0 0 0.5 0
          0 0.5 0 0.6666666666666666 0 0.5
          0 0 0 0 0 0
          0 0 0 0 0 0
          0 0 0 0 0 0
          0 0 0 0.75 0.625 0.375
          0.5 1 0.5 0.5 1 0.75
          0.625 0.75 0.5 0.5 0.5 0.5
          0.75 0.75 0.5 0.5 0.5 0.5
          0.5 0.75 0.5 0.75 0.75 0.75
          0.25 0.75 0.75 0.75 0.75 0.5
          1 0.5 0 0 0 0.25
          0 0 0 0 0 0
          0 0 0 0 0 0
          0 0 0 0 0 0
          0 0 0 0 0 0
          0 0 0 0 0 0
        </DataArray>
        <DataArray type="Float64" Name="gradient_matprop_marker" format="ascii" RangeMin="0" RangeMax="0">
          0 0 0 0 0 0
          0 0 0 0 0 0
          0 0 0 0 0 0
          0 0 0 0 0 0
          0 0 0 0 0 0
          0 0 0 0 0 0
          0 0 0 0 0 0
          0 0 0 0 0 0
          0 0 0 0 0 0
          0 0 0 0 0 0
          0 0 0 0 0 0
          0 0 0 0 0 0
          0 0 0 0 0 0
          0 0 0 0 0 0
          0 0 0 0 0 0
          0 0 0 0 0 0
          0 0 0 0 0 0
          0 0 0 0 0 0
          0 0 0 0 0 0
          0 0 0 0 0 0
          0 0 0 0 0 0
          0 0 0 0 0 0
          0 0 0 0 0 0
          0 0 0 0 0 0
          0 0 0 0 0 0
          0 0 0 0 0 0
          0 0 0 0 0 0
          0 0 0 0 0 0
          0 0 0 0 0 0
          0 0 0 0 0 0
          0 0 0 0 0 0
          0 0 0 0 0 0
          0 0 0 0 0 0
          0 0 0 0 0 0
          0 0 0 0 0 0
          0 0 0 0 0 0
          0 0 0 0 0 0
          0 0 0 0 0 0
          0 0 0 0 0 0
          0 0 0 0 0 0
          0 0 0 0 0 0
          0 0 0 0 0 0
          0 0 0 0 0 0
          0 0 0 0 0 0
          0 0 0 0 0 0
          0 0 0 0 0 0
          0 0 0 0 0 0
          0 0 0 0 0 0
          0 0 0 0 0 0
          0 0 0 0 0 0
          0 0 0 0 0 0
          0 0 0 0 0 0
          0 0 0 0 0 0
          0 0 0 0 0 0
          0 0 0 0 0 0
          0 0 0 0 0 0
          0 0 0 0 0 0
          0 0 0 0 0 0
          0 0 0 0 0 0
          0 0 0 0 0 0
          0 0 0 0 0 0
          0 0 0 0 0 0
          0 0 0 0 0 0
          0 0 0 0 0 0
          0 0 0 0 0 0
          0 0 0 0 0 0
          0 0 0 0 0 0
          0 0 0 0 0 0
          0 0 0 0 0 0
          0 0 0 0 0 0
          0 0 0 0 0 0
          0 0 0 0 0 0
          0 0 0 0 0 0
          0 0 0 0 0 0
        </DataArray>
        <DataArray type="Float64" Name="combo" format="ascii" RangeMin="0" RangeMax="2">
          2 1 1.5 1.5 2 2
          2 0 0 1.5 0.5 0.125
          2 1.75 0.5 1.5 1.5 1.5
          1.5 2 2 1.75 2 2
          2 2 2 1.75 1.75 2
          2 2 2 0.75 0.75 1
          1 0.5 0.5 1 0 0
          0 0 0.5 0.5 0.5 0.5
          0.375 0.25 1.5 1.5 1.25 0.625
          1.5 1 0.75 0.125 0 0.5
          0.25 0.25 0.625 2 2 2
          2 1.75 1.375 2 2 2
          2 2 2 1.125 2 2
          1.5 0.625 0.5 0.75 0.16666666666666666 0.5
          0.5 1 0.75 0.75 2 2
          2 2 1 1 0 2
          2 2 2 2 2 2
          2 1 1 0 1 1
          0 2 2 2 2 2
          2 2 2 2 2 1.5
          1.5 1 1 2 2 2
          2 2 2 2 2 2
          2 2 2 2 2 2
          2 2 2 2 2 2
          2 2 2 2 2 2
          2 2 2 2 2 2
          2 2 2 2 1.5 1.5
          1 1 2 2 2 1.5
          1.5 1 1 2 2 2
          2 2 2 2 2 2
          2 2 2 2 2 2
          2 2 2 2 2 2
          2 2 2 2 2 2
          2 2 2 2 2 2
          2 2 2 2 1 1
          0 1 1 1 0 1
          1 0 1 1 0 0
          1 1 0 1 1 0
          0 1 1 0 2 2
          2 2 2 2 2 2
          1 1 0 1 0.5 0
          2 2 1.5 1 0 0.6666666666666666
          0 2 2 2 2 2
          2 2 2 2 2 2
          2 2 2 2 1.75 2
          2 2 2 1.5 1.5 1
          1 2 2 2 1.5 1.25
          1 1 2 2 1.6666666666666667 2
          2 2 2 2 2 2
          2 2 2 2 2 2
          2 2 2 2 2 2
          2 2 2 2 2 2
          2 2 2 2 1.75 1.6666666666666667
          2 2 2 2 2 2
          1.875 1.5 1.5 2 2 2
          2 0.75 0.875 0.5 0.6666666666666666 1.75
          1.625 1.5 2 2 2 2
          2 2 2 2 2 2
          2 2 2 1.6666666666666667 2 2
          2 1 1 0 0.5 0
          0 1 1 0 0 1
          1 0 0.75 0.5 0 0
          1 1 0 0.75 0.625 0.375
          0.5 1 0.5 0.5 1 0.75
          0.625 0.75 1.5 1.5 0.5 0.5
          0.75 0.75 0.5 0.5 0.5 0.5
          0.5 0.75 0.5 0.75 0.75 0.75
          1.75 0.75 0.75 0.75 0.75 0.5
          1 0.5 0 0 0 0.25
          2 2 2 2 2 2
          2 1 1.5 1 2 2
          2 2 2 2 2 2
          2 2 2 2 2 2
          1 1 0 0 1 0
        </DataArray>
        <DataArray type="Float64" Name="dHdT" format="ascii" RangeMin="26.234364384670915" RangeMax="59.69922948987798">
          46.32476581701779 29.96365563909069 49.3208373565193 46.33440431531759 46.31412274101653 53.44357349210393
          50.443865574732826 26.53235959084674 26.234364384670915 42.84730916259194 33.24754654273742 26.86990466276762
          46.32526335612077 47.06001648997283 28.29966742676903 47.38249927121962 47.71068900773749 45.87304724463212
          44.30665407830537 46.243429869771646 48.57294801740124 51.37966987405366 46.28008465733232 46.276761132179274
          48.15479471234619 46.29066033070323 48.06509407228299 49.76586143541241 48.17892048003196 46.32401382439402
          46.30131463936262 46.30970147197617 52.05504365368886 37.23452570688574 35.85146982069325 32.61152644969882
          31.732200744535223 39.11344661087013 37.76320342813143 33.50234593743602 27.76806849003031 27.507417031353924
          26.601578744130034 26.931712770052528 33.1027026010307 31.93818092974182 31.627652377436423 30.592774490463626
          29.52233492431946 28.532281698105816 44.746654645732605 42.86128651547635 40.507335565027205 35.64990501260665
          41.13764066811794 37.54889309290371 31.342369784459592 27.47918694260065 26.943879268391196 30.761272935430043
          29.433044444465978 28.29844703506299 28.039555510184048 46.28432250406751 48.635610969514744 47.553108947804674