<?xml version="1.0"?>
<VTKFile type="UnstructuredGrid" version="0.1" byte_order="LittleEndian" header_type="UInt32" compressor="vtkZLibDataCompressor">
  <UnstructuredGrid>
    <Piece NumberOfPoints="414" NumberOfCells="218">
      <PointData>
        <DataArray type="Int32" Name="libmesh_node_id" format="ascii" RangeMin="0" RangeMax="3943">
          0 1 2 3 4 5
          6 7 8 9 10 11
          12 13 14 15 16 17
          18 19 20 21 22 23
          40 41 42 43 44 45
          46 47 48 49 50 51
          60 61 62 63 64 65
          66 67 68 69 70 71
          80 81 82 83 84 85
          90 91 92 93 94 95
          96 97 98 99 100 101
          110 111 112 113 114 115
          120 121 122 123 124 125
          126 127 129 131 140 141
          142 143 144 145 150 151
          152 153 154 155 156 157
          170 171 172 173 180 181
          182 183 184 185 200 201
          202 259 3582 3583 3584 3585
          3586 3587 3588 3589 3590 3591
          3592 3593 3594 3595 3596 3597
          3598 3599 3606 3607 3608 3609
          3610 3611 3612 3613 3614 3615
          3616 3617 3618 3619 3620 3621
          3622 3623 3624 3625 3626 3627
          3628 3629 3630 3631 3632 3633
          3634 3635 3636 3637 3638 3639
          3640 3641 3642 3643 3696 3697
          3698 3699 3700 3701 3702 3703
          3704 3705 3706 3707 3708 3709
          3710 3711 3712 3713 3714 3715
          3716 3717 3718 3719 3720 3721
          3722 3723 3724 3725 3726 3727
          3728 3729 3730 3731 3732 3733
          3734 3735 3736 3737 3738 3739
          3740 3741 3742 3743 3744 3745
          3746 3747 3748 3749 3750 3751
          3752 3753 3754 3755 3756 3757
          3758 3759 3760 3761 3762 3763
          3764 3765 3766 3767 3768 3769
          3770 3771 3772 3773 3774 3775
          3776 3777 3778 3779 3780 3781
          3782 3783 3784 3785 3786 3787
          3788 3789 3790 3791 3792 3793
          3794 3795 3796 3797 3798 3799
          3800 3801 3802 3803 3804 3805
          3806 3807 3808 3809 3810 3811
          3812 3813 3814 3815 3816 3817
          3818 3819 3820 3821 3822 3823
          3824 3825 3826 3827 3828 3829
          3830 3831 3832 3833 3834 3835
          3836 3837 3838 3839 3840 3841
          3842 3843 3844 3845 3846 3847
          3848 3849 3850 3851 3852 3853
          3854 3855 3856 3857 3858 3859
          3860 3861 3862 3863 3864 3865
          3866 3867 3868 3869 3870 3871
          3872 3873 3874 3875 3876 3877
          3878 3879 3880 3881 3882 3883
          3884 3885 3886 3887 3888 3889
          3890 3891 3892 3893 3894 3895
          3896 3897 3898 3899 3900 3901
          3902 3903 3904 3905 3906 3907
          3908 3909 3910 3911 3912 3913
          3914 3915 3916 3917 3918 3919
          3920 3921 3922 3923 3924 3925
          3926 3927 3928 3929 3930 3931
          3932 3933 3934 3935 3936 3937
          3938 3939 3940 3941 3942 3943
        </DataArray>
        <DataArray type="Float64" Name="bounds" format="ascii" RangeMin="0" RangeMax="0">
          0 0 0 0 0 0
          0 0 0 0 0 0
          0 0 0 0 0 0
          0 0 0 0 0 0
          0 0 0 0 0 0
          0 0 0 0 0 0
          0 0 0 0 0 0
          0 0 0 0 0 0
          0 0 0 0 0 0
          0 0 0 0 0 0
          0 0 0 0 0 0
          0 0 0 0 0 0
          0 0 0 0 0 0
          0 0 0 0 0 0
          0 0 0 0 0 0
          0 0 0 0 0 0
          0 0 0 0 0 0
          0 0 0 0 0 0
          0 0 0 0 0 0
          0 0 0 0 0 0
          0 0 0 0 0 0
          0 0 0 0 0 0
          0 0 0 0 0 0
          0 0 0 0 0 0
          0 0 0 0 0 0
          0 0 0 0 0 0
          0 0 0 0 0 0
          0 0 0 0 0 0
          0 0 0 0 0 0
          0 0 0 0 0 0
          0 0 0 0 0 0
          0 0 0 0 0 0
          0 0 0 0 0 0
          0 0 0 0 0 0
          0 0 0 0 0 0
          0 0 0 0 0 0
          0 0 0 0 0 0
          0 0 0 0 0 0
          0 0 0 0 0 0
          0 0 0 0 0 0
          0 0 0 0 0 0
          0 0 0 0 0 0
          0 0 0 0 0 0
          0 0 0 0 0 0
          0 0 0 0 0 0
          0 0 0 0 0 0
          0 0 0 0 0 0
          0 0 0 0 0 0
          0 0 0 0 0 0
          0 0 0 0 0 0
          0 0 0 0 0 0
          0 0 0 0 0 0
          0 0 0 0 0 0
          0 0 0 0 0 0
          0 0 0 0 0 0
          0 0 0 0 0 0
          0 0 0 0 0 0
          0 0 0 0 0 0
          0 0 0 0 0 0
          0 0 0 0 0 0
          0 0 0 0 0 0
          0 0 0 0 0 0
          0 0 0 0 0 0
          0 0 0 0 0 0
          0 0 0 0 0 0
          0 0 0 0 0 0
          0 0 0 0 0 0
          0 0 0 0 0 0
          0 0 0 0 0 0
        </DataArray>
        <DataArray type="Float64" Name="gradient_error" format="ascii" RangeMin="1.5875883152794185e-11" RangeMax="0.0000012523616019538942">
          2.195830727487763e-10 2.1304006600817913e-10 1.2641624965374722e-10 1.2641211990142252e-10 6.126135801741387e-10 5.803982182399076e-10
          3.476136200503379e-10 3.562167060489104e-10 1.735386184016795e-10 1.1177465682564825e-10 4.499002529476219e-10 2.9334659691387033e-10
          1.4103026055087354e-10 9.309254146373089e-11 3.549448108361683e-10 2.373797919545412e-10 1.4073574661029167e-10 8.415723534643203e-11
          3.5494559605582825e-10 2.129121164355654e-10 8.135784887855312e-11 4.8616866015673654e-11 2.0258741572969185e-10 1.1975811538242456e-10
          3.9792433299315325e-11 3.3241167054068765e-11 1.1482902186076808e-10 9.981983192368202e-11 5.0010695249616986e-11 1.367929408801187e-10
          4.515482237658824e-11 1.198147730729141e-10 2.757872408257239e-11 7.087863681530251e-11 1.5875883152794185e-11 3.692881503515729e-11
          2.6148065839132695e-9 2.4321240652889353e-9 1.499332124261911e-9 1.5650100147899595e-9 1.8236659595397606e-9 1.2279116800804131e-9
          1.4352608541047367e-9 9.866766042262518e-10 1.451607167029384e-9 8.852220635338268e-10 8.113741966830384e-10 4.868384008125646e-10
          5.665401832348866e-10 5.152134456666493e-10 6.321574006210656e-10 5.380923543477668e-10 3.188369600382695e-10 1.62302604942091e-10
          1.0926903367535249e-8 1.0051118232133548e-8 6.419531147482064e-9 6.777411833577622e-9 7.362979501203e-9 5.150603819010198e-9
          5.78650483421467e-9 4.1124951648923585e-9 5.902132776647045e-9 3.679739341025872e-9 3.232375343297948e-9 1.9884698344144765e-9
          2.7879440628305795e-9 2.627920299619996e-9 2.9382281368173962e-9 2.4384854955700476e-9 1.457345905404699e-9 7.44564325531005e-10
          2.4183730966591694e-8 2.0346865064844227e-8 9.574067009118376e-9 1.0107779470596465e-8 1.1949849119385101e-8 9.376018058749838e-9
          1.430724520220803e-8 9.418201924652332e-9 7.959435915322742e-9 3.590847581500903e-9 9.354324313567676e-9 8.531124290445831e-9
          1.076355281870749e-8 1.0756593708457471e-8 8.064310039858088e-9 3.879842400388981e-9 1.3214918260291808e-7 1.1098517021460365e-7
          2.4984753201929967e-7 2.7810863209035137e-7 9.914144792965289e-8 1.979455290311602e-7 1.4913108701407013e-7 1.4195894061271243e-7
          1.3006156138473673e-8 1.3821322161037704e-8 1.1732226909383128e-8 1.0414521632103539e-8 4.473298801826882e-7 5.694651559358136e-7
          2.387754369591513e-7 2.848348514125401e-7 8.173046258837455e-7 1.6494314613807812e-7 5.784553784910471e-8 6.228669675058832e-8
          4.293814938311793e-8 1.931084819884381e-7 9.273299914937756e-9 7.484643693974128e-9 8.133443447357241e-9 3.66178648602675e-8
          5.1031040597598223e-8 4.219437199046269e-8 3.439697908785776e-8 1.3115708021713894e-8 8.422920423017276e-8 5.839288487052421e-8
          5.695987473010499e-9 3.335770338332714e-8 3.2176093315448016e-8 3.2556565510875675e-8 1.1345608286646801e-7 2.1056782042963252e-7
          2.3507144681883348e-7 2.215287360022302e-7 1.248934985932737e-7 3.123463181978244e-7 3.219190913652388e-7 5.862847976810012e-7
          6.122329849006743e-7 6.190590641535257e-7 6.17481758910486e-7 2.8962488956694167e-7 6.617304620609068e-7 6.177930258048569e-7
          3.557025094027017e-7 3.762769896316604e-7 3.928369157169502e-7 3.3655851903508036e-7 4.877016090059183e-7 6.608704921853366e-7
          6.291410400483021e-7 7.220921550109036e-7 2.7071573619388893e-7 9.982003708545058e-8 2.622111370787032e-7 7.17260447730747e-7
          6.103821575408731e-7 7.768341576525057e-7 5.959622944740264e-7 2.9411623127503374e-7 2.880632747290525e-7 2.403219972439406e-7
          6.768395018741201e-7 7.923297478509342e-7 8.696847506614583e-7 2.0036464452869545e-7 8.390896662650695e-7 5.723049353246132e-7
          2.0848305819480977e-7 0.000001001807674972667 9.527788990218509e-7 1.637436287522058e-7 2.8944781215460206e-8 1.6951635750270972e-8
          1.8238327962495336e-8 5.568534972778573e-8 5.152516559628542e-8 3.598794353512963e-8 3.7190289587048314e-8 1.3954930065352437e-8
          4.227623711568311e-8 3.3379438154781055e-8 4.958490285081733e-9 2.0450721473973845e-8 1.8695229446310894e-8 2.4482639193879005e-8
          1.8739373246065996e-8 1.0854048520677343e-8 3.5083577017353044e-8 3.197548448683593e-8 2.9687237952886915e-9 2.8867391956318818e-8
          3.407012323192671e-8 3.8459462110478754e-8 9.528435240780395e-8 1.0335518785470935e-7 2.383728663989283e-8 7.570193166599587e-8
          1.4095131364351816e-8 3.7590448394337577e-8 3.862945234823603e-8 3.489093743426516e-8 1.5649858158368119e-7 1.6825091359893995e-7
          1.275665766920989e-7 6.108576542432334e-8 1.4141314227695517e-8 5.2782195072356e-8 1.0806523023075714e-8 3.326029605090577e-8
          9.330967510846936e-9 3.0860903260441104e-8 2.4855607111686242e-8 9.14230759170165e-8 5.571406907873581e-8 5.239083901003526e-8
          1.2807437302954147e-8 2.9974317867223214e-8 4.536650434162361e-9 1.5867145597456627e-8 4.7141198431492283e-8 2.719764076075089e-8
          1.813946572257129e-7 1.743190497070714e-7 1.764456023010942e-7 3.3197592776497434e-7 3.31983974577532e-7 2.9727349923039286e-7
          2.9771505151398705e-7 1.6894937845751e-7 3.3182869380730334e-7 2.9602054363263036e-7 1.672434421884299e-7 2.6256302388325366e-7
          2.634541752629997e-7 2.6021239345795733e-7 5.936595745043613e-7 5.578173115911251e-7 5.519499301130749e-7 5.725894448207291e-7
          4.912860403342025e-7 1.6884443417473846e-7 1.6233360464381762e-7 3.3129444574901914e-7 2.9420793413672166e-7 1.5540250226299e-7
          3.300516181651468e-7 2.9172687986801833e-7 1.558227751128968e-7 2.571214225244242e-7 2.5340214157088985e-7 6.359334363633278e-7
          5.916287351959145e-7 6.123687866235146e-7 5.106638056648199e-7 5.698064550216733e-7 5.817982834091455e-7 6.373144696714224e-7
          6.259073880123818e-7 6.120958192010484e-7 6.662302693620084e-7 5.980635900520101e-7 5.910901828304909e-7 6.156625758321768e-7
          4.5885070973891924e-7 5.792222649143087e-7 5.668994165254938e-7 6.103733578903093e-7 6.381394223917552e-7 6.518268105741787e-7
          7.042326838017996e-7 6.973743476753511e-7 7.475029745637661e-7 6.384153251545096e-7 6.633546925313326e-7 5.255312057450016e-7
          6.512901608413958e-7 6.983196333535498e-7 6.900449767797652e-7 3.284768565540693e-7 3.287754148843721e-7 3.818520491324816e-7
          3.8120463234370947e-7 3.2762848596258025e-7 3.8336823104146805e-7 2.2704568946130853e-7 2.604075740946421e-7 2.6223722002952754e-7
          2.55776029941551e-7 4.352272417108938e-7 4.336338498030468e-7 4.391079761203559e-7 2.937694587279757e-7 3.265955154361267e-7
          3.8526262183891236e-7 3.251705397192893e-7 3.869036342680773e-7 2.1584768193479604e-7 2.5033315039822596e-7 2.447294849256707e-7
          4.4392972824169804e-7 4.4863672881686535e-7 2.8481861886165585e-7 1.5493874306287277e-7 1.482512367566628e-7 3.2769150333947184e-7
          2.882114455105312e-7 1.411160140139383e-7 3.2396365939656175e-7 2.8346198719781383e-7 1.4156373045045285e-7 2.4873138768159056e-7
          2.42960314999066e-7 6.889243421542245e-7 6.33866816322477e-7 6.558155040446211e-7 5.337393762060444e-7 1.420817309070924e-7
          1.342276404100233e-7 3.1858444748272675e-7 2.772381810201262e-7 1.2801804814461893e-7 3.1128436579871027e-7 2.6931687182444227e-7
          1.2637354991295424e-7 2.358919145575258e-7 2.2734937785017425e-7 7.466119600165742e-7 6.779884761888616e-7 7.001348837806913e-7
          5.536377739280445e-7 7.48508399873372e-7 7.954251633504018e-7 8.058226859623758e-7 8.483536640607281e-7 6.894637734608471e-7
          7.164140644374089e-7 6.196123790543657e-7 7.512883483202493e-7 8.108842804139034e-7 7.56268005068992e-7 8.702167910370829e-7
          9.069298499013512e-7 9.427730924990287e-7 9.719711697547513e-7 7.439656964020295e-7 7.718358518662726e-7 7.422968260993783e-7
          8.781314690552081e-7 9.542882674523853e-7 8.301798715130409e-7 3.227748693720606e-7 3.8761246737975464e-7 3.191858445338769e-7
          3.8709402551233216e-7 2.0195019110744707e-7 2.3863931466524657e-7 2.322445643089266e-7 4.524500653874487e-7 4.5500220649078745e-7
          2.753284382230461e-7 3.1413583043053567e-7 3.850152256983089e-7 3.0739735160083116e-7 3.810721497513391e-7 1.860883237992358e-7
          2.257419673581781e-7 2.1964184278060678e-7 4.558946209660822e-7 4.547469479018469e-7 2.6539561091712036e-7 1.3412374905454763e-7
          1.230185571074684e-7 3.017345450768038e-7 2.594357929066022e-7 1.2004895052800203e-7 2.8961622485929823e-7 2.473356414567014e-7
          1.1191336516038913e-7 2.1713704073640063e-7 2.0505505805410452e-7 8.077406195197404e-7 7.219725307033452e-7 7.431395697851686e-7
          5.665977631366554e-7 1.3847932514785221e-7 1.201295924460286e-7 2.745617872878533e-7 2.3274309720163669e-7 1.0177985974420497e-7
          1.9092440711542006e-7 8.705996827840341e-7 7.632730552791092e-7 5.673933013209849e-7 0.0000010247268585794126 0.0000010444673169112395
          0.0000011174389711184435 0.0000011255954035591635 7.99682297809846e-7 8.27038343823993e-7 9.033178192184041e-7 0.0000010408426011215246
          0.0000011395339999333905 9.106483090709149e-7 0.0000012223408378446036 0.0000012167755552774337 8.533833935030429e-7 0.0000011141265595489933
          0.0000012523616019538942 9.957113122679258e-7 2.9871230178091376e-7 3.7489013158066633e-7 2.8781645905528755e-7 3.660832231655851e-7
          1.7004019792576125e-7 2.1462344278470717e-7 2.118415946830682e-7 4.510679613804189e-7 4.4434998727588274e-7 2.592066876436531e-7
        </DataArray>
        <DataArray type="Float64" Name="gradient_matprop_error" format="ascii" RangeMin="0" RangeMax="0">
          0 0 0 0 0 0
          0 0 0 0 0 0
          0 0 0 0 0 0
          0 0 0 0 0 0
          0 0 0 0 0 0
          0 0 0 0 0 0
          0 0 0 0 0 0
          0 0 0 0 0 0
          0 0 0 0 0 0
          0 0 0 0 0 0
          0 0 0 0 0 0
          0 0 0 0 0 0
          0 0 0 0 0 0
          0 0 0 0 0 0
          0 0 0 0 0 0
          0 0 0 0 0 0
          0 0 0 0 0 0
          0 0 0 0 0 0
          0 0 0 0 0 0
          0 0 0 0 0 0
          0 0 0 0 0 0
          0 0 0 0 0 0
          0 0 0 0 0 0
          0 0 0 0 0 0
          0 0 0 0 0 0
          0 0 0 0 0 0
          0 0 0 0 0 0
          0 0 0 0 0 0
          0 0 0 0 0 0
          0 0 0 0 0 0
          0 0 0 0 0 0
          0 0 0 0 0 0
          0 0 0 0 0 0
          0 0 0 0 0 0
          0 0 0 0 0 0
          0 0 0 0 0 0
          0 0 0 0 0 0
          0 0 0 0 0 0
          0 0 0 0 0 0
          0 0 0 0 0 0
          0 0 0 0 0 0
          0 0 0 0 0 0
          0 0 0 0 0 0
          0 0 0 0 0 0
          0 0 0 0 0 0
          0 0 0 0 0 0
          0 0 0 0 0 0
          0 0 0 0 0 0
          0 0 0 0 0 0
          0 0 0 0 0 0
          0 0 0 0 0 0
          0 0 0 0 0 0
          0 0 0 0 0 0
          0 0 0 0 0 0
          0 0 0 0 0 0
          0 0 0 0 0 0
          0 0 0 0 0 0
          0 0 0 0 0 0
          0 0 0 0 0 0
          0 0 0 0 0 0
          0 0 0 0 0 0
          0 0 0 0 0 0
          0 0 0 0 0 0
          0 0 0 0 0 0
          0 0 0 0 0 0
          0 0 0 0 0 0
          0 0 0 0 0 0
          0 0 0 0 0 0
          0 0 0 0 0 0
        </DataArray>
        <DataArray type="Float64" Name="initial_marker" format="ascii" RangeMin="0" RangeMax="0">
          0 0 0 0 0 0
          0 0 0 0 0 0
          0 0 0 0 0 0
          0 0 0 0 0 0
          0 0 0 0 0 0
          0 0 0 0 0 0
          0 0 0 0 0 0
          0 0 0 0 0 0
          0 0 0 0 0 0
          0 0 0 0 0 0
          0 0 0 0 0 0
          0 0 0 0 0 0
          0 0 0 0 0 0
          0 0 0 0 0 0
          0 0 0 0 0 0
          0 0 0 0 0 0
          0 0 0 0 0 0
          0 0 0 0 0 0
          0 0 0 0 0 0
          0 0 0 0 0 0
          0 0 0 0 0 0
          0 0 0 0 0 0
          0 0 0 0 0 0
          0 0 0 0 0 0
          0 0 0 0 0 0
          0 0 0 0 0 0
          0 0 0 0 0 0
          0 0 0 0 0 0
          0 0 0 0 0 0
          0 0 0 0 0 0
          0 0 0 0 0 0
          0 0 0 0 0 0
          0 0 0 0 0 0
          0 0 0 0 0 0
          0 0 0 0 0 0
          0 0 0 0 0 0
          0 0 0 0 0 0
          0 0 0 0 0 0
          0 0 0 0 0 0
          0 0 0 0 0 0
          0 0 0 0 0 0
          0 0 0 0 0 0
          0 0 0 0 0 0
          0 0 0 0 0 0
          0 0 0 0 0 0
          0 0 0 0 0 0
          0 0 0 0 0 0
          0 0 0 0 0 0
          0 0 0 0 0 0
          0 0 0 0 0 0
          0 0 0 0 0 0
          0 0 0 0 0 0
          0 0 0 0 0 0
          0 0 0 0 0 0
          0 0 0 0 0 0
          0 0 0 0 0 0
          0 0 0 0 0 0
          0 0 0 0 0 0
          0 0 0 0 0 0
          0 0 0 0 0 0
          0 0 0 0 0 0
          0 0 0 0 0 0
          0 0 0 0 0 0
          0 0 0 0 0 0
          0 0 0 0 0 0
          0 0 0 0 0 0
          0 0 0 0 0 0
          0 0 0 0 0 0
          0 0 0 0 0 0
        </DataArray>
        <DataArray type="Float64" Name="markers_norefine" format="ascii" RangeMin="0" RangeMax="0">
          0 0 0 0 0 0
          0 0 0 0 0 0
          0 0 0 0 0 0
          0 0 0 0 0 0
          0 0 0 0 0 0
          0 0 0 0 0 0
          0 0 0 0 0 0
          0 0 0 0 0 0
          0 0 0 0 0 0
          0 0 0 0 0 0
          0 0 0 0 0 0
          0 0 0 0 0 0
          0 0 0 0 0 0
          0 0 0 0 0 0
          0 0 0 0 0 0
          0 0 0 0 0 0
          0 0 0 0 0 0
          0 0 0 0 0 0
          0 0 0 0 0 0
          0 0 0 0 0 0
          0 0 0 0 0 0
          0 0 0 0 0 0
          0 0 0 0 0 0
          0 0 0 0 0 0
          0 0 0 0 0 0
          0 0 0 0 0 0
          0 0 0 0 0 0
          0 0 0 0 0 0
          0 0 0 0 0 0
          0 0 0 0 0 0
          0 0 0 0 0 0
          0 0 0 0 0 0
          0 0 0 0 0 0
          0 0 0 0 0 0
          0 0 0 0 0 0
          0 0 0 0 0 0
          0 0 0 0 0 0
          0 0 0 0 0 0
          0 0 0 0 0 0
          0 0 0 0 0 0
          0 0 0 0 0 0
          0 0 0 0 0 0
          0 0 0 0 0 0
          0 0 0 0 0 0
          0 0 0 0 0 0
          0 0 0 0 0 0
          0 0 0 0 0 0
          0 0 0 0 0 0
          0 0 0 0 0 0
          0 0 0 0 0 0
          0 0 0 0 0 0
          0 0 0 0 0 0
          0 0 0 0 0 0
          0 0 0 0 0 0
          0 0 0 0 0 0
          0 0 0 0 0 0
          0 0 0 0 0 0
          0 0 0 0 0 0
          0 0 0 0 0 0
          0 0 0 0 0 0
          0 0 0 0 0 0
          0 0 0 0 0 0
          0 0 0 0 0 0
          0 0 0 0 0 0
          0 0 0 0 0 0
          0 0 0 0 0 0
          0 0 0 0 0 0
          0 0 0 0 0 0
          0 0 0 0 0 0
        </DataArray>
        <DataArray type="Float64" Name="markers_mustrefine" format="ascii" RangeMin="0" RangeMax="0">
          0 0 0 0 0 0
          0 0 0 0 0 0
          0 0 0 0 0 0
          0 0 0 0 0 0
          0 0 0 0 0 0
          0 0 0 0 0 0
          0 0 0 0 0 0
          0 0 0 0 0 0
          0 0 0 0 0 0
          0 0 0 0 0 0
          0 0 0 0 0 0
          0 0 0 0 0 0
          0 0 0 0 0 0
          0 0 0 0 0 0
          0 0 0 0 0 0
          0 0 0 0 0 0
          0 0 0 0 0 0
          0 0 0 0 0 0
          0 0 0 0 0 0
          0 0 0 0 0 0
          0 0 0 0 0 0
          0 0 0 0 0 0
          0 0 0 0 0 0
          0 0 0 0 0 0
          0 0 0 0 0 0
          0 0 0 0 0 0
          0 0 0 0 0 0
          0 0 0 0 0 0
          0 0 0 0 0 0
          0 0 0 0 0 0
          0 0 0 0 0 0
          0 0 0 0 0 0
          0 0 0 0 0 0
          0 0 0 0 0 0
          0 0 0 0 0 0
          0 0 0 0 0 0
          0 0 0 0 0 0
          0 0 0 0 0 0
          0 0 0 0 0 0
          0 0 0 0 0 0
          0 0 0 0 0 0
          0 0 0 0 0 0
          0 0 0 0 0 0
          0 0 0 0 0 0
          0 0 0 0 0 0
          0 0 0 0 0 0
          0 0 0 0 0 0
          0 0 0 0 0 0
          0 0 0 0 0 0
          0 0 0 0 0 0
          0 0 0 0 0 0
          0 0 0 0 0 0
          0 0 0 0 0 0
          0 0 0 0 0 0
          0 0 0 0 0 0
          0 0 0 0 0 0
          0 0 0 0 0 0
          0 0 0 0 0 0
          0 0 0 0 0 0
          0 0 0 0 0 0
          0 0 0 0 0 0
          0 0 0 0 0 0
          0 0 0 0 0 0
          0 0 0 0 0 0
          0 0 0 0 0 0
          0 0 0 0 0 0
          0 0 0 0 0 0
          0 0 0 0 0 0
          0 0 0 0 0 0
        </DataArray>
        <DataArray type="Float64" Name="gradient_marker" format="ascii" RangeMin="1" RangeMax="1">
          1 1 1 1 1 1
          1 1 1 1 1 1
          1 1 1 1 1 1
          1 1 1 1 1 1
          1 1 1 1 1 1
          1 1 1 1 1 1
          1 1 1 1 1 1
          1 1 1 1 1 1
          1 1 1 1 1 1
          1 1 1 1 1 1
          1 1 1 1 1 1
          1 1 1 1 1 1
          1 1 1 1 1 1
          1 1 1 1 1 1
          1 1 1 1 1 1
          1 1 1 1 1 1
          1 1 1 1 1 1
          1 1 1 1 1 1
          1 1 1 1 1 1
          1 1 1 1 1 1
          1 1 1 1 1 1
          1 1 1 1 1 1
          1 1 1 1 1 1
          1 1 1 1 1 1
          1 1 1 1 1 1
          1 1 1 1 1 1
          1 1 1 1 1 1
          1 1 1 1 1 1
          1 1 1 1 1 1
          1 1 1 1 1 1
          1 1 1 1 1 1
          1 1 1 1 1 1
          1 1 1 1 1 1
          1 1 1 1 1 1
          1 1 1 1 1 1
          1 1 1 1 1 1
          1 1 1 1 1 1
          1 1 1 1 1 1
          1 1 1 1 1 1
          1 1 1 1 1 1
          1 1 1 1 1 1
          1 1 1 1 1 1
          1 1 1 1 1 1
          1 1 1 1 1 1
          1 1 1 1 1 1
          1 1 1 1 1 1
          1 1 1 1 1 1
          1 1 1 1 1 1
          1 1 1 1 1 1
          1 1 1 1 1 1
          1 1 1 1 1 1
          1 1 1 1 1 1
          1 1 1 1 1 1
          1 1 1 1 1 1
          1 1 1 1 1 1
          1 1 1 1 1 1
          1 1 1 1 1 1
          1 1 1 1 1 1
          1 1 1 1 1 1
          1 1 1 1 1 1
          1 1 1 1 1 1
          1 1 1 1 1 1
          1 1 1 1 1 1
          1 1 1 1 1 1
          1 1 1 1 1 1
          1 1 1 1 1 1
          1 1 1 1 1 1
          1 1 1 1 1 1
          1 1 1 1 1 1
        </DataArray>
        <DataArray type="Float64" Name="gradient_matprop_marker" format="ascii" RangeMin="0" RangeMax="0">
          0 0 0 0 0 0
          0 0 0 0 0 0
          0 0 0 0 0 0
          0 0 0 0 0 0
          0 0 0 0 0 0
          0 0 0 0 0 0
          0 0 0 0 0 0
          0 0 0 0 0 0
          0 0 0 0 0 0
          0 0 0 0 0 0
          0 0 0 0 0 0
          0 0 0 0 0 0
          0 0 0 0 0 0
          0 0 0 0 0 0
          0 0 0 0 0 0
          0 0 0 0 0 0
          0 0 0 0 0 0
          0 0 0 0 0 0
          0 0 0 0 0 0
          0 0 0 0 0 0
          0 0 0 0 0 0
          0 0 0 0 0 0
          0 0 0 0 0 0
          0 0 0 0 0 0
          0 0 0 0 0 0
          0 0 0 0 0 0
          0 0 0 0 0 0
          0 0 0 0 0 0
          0 0 0 0 0 0
          0 0 0 0 0 0
          0 0 0 0 0 0
          0 0 0 0 0 0
          0 0 0 0 0 0
          0 0 0 0 0 0
          0 0 0 0 0 0
          0 0 0 0 0 0
          0 0 0 0 0 0
          0 0 0 0 0 0
          0 0 0 0 0 0
          0 0 0 0 0 0
          0 0 0 0 0 0
          0 0 0 0 0 0
          0 0 0 0 0 0
          0 0 0 0 0 0
          0 0 0 0 0 0
          0 0 0 0 0 0
          0 0 0 0 0 0
          0 0 0 0 0 0
          0 0 0 0 0 0
          0 0 0 0 0 0
          0 0 0 0 0 0
          0 0 0 0 0 0
          0 0 0 0 0 0
          0 0 0 0 0 0
          0 0 0 0 0 0
          0 0 0 0 0 0
          0 0 0 0 0 0
          0 0 0 0 0 0
          0 0 0 0 0 0
          0 0 0 0 0 0
          0 0 0 0 0 0
          0 0 0 0 0 0
          0 0 0 0 0 0
          0 0 0 0 0 0
          0 0 0 0 0 0
          0 0 0 0 0 0
          0 0 0 0 0 0
          0 0 0 0 0 0
          0 0 0 0 0 0
        </DataArray>
        <DataArray type="Float64" Name="combo" format="ascii" RangeMin="1" RangeMax="1">
          1 1 1 1 1 1
          1 1 1 1 1 1
          1 1 1 1 1 1
          1 1 1 1 1 1
          1 1 1 1 1 1
          1 1 1 1 1 1
          1 1 1 1 1 1
          1 1 1 1 1 1
          1 1 1 1 1 1
          1 1 1 1 1 1
          1 1 1 1 1 1
          1 1 1 1 1 1
          1 1 1 1 1 1
          1 1 1 1 1 1
          1 1 1 1 1 1
          1 1 1 1 1 1
          1 1 1 1 1 1
          1 1 1 1 1 1
          1 1 1 1 1 1
          1 1 1 1 1 1
          1 1 1 1 1 1
          1 1 1 1 1 1
          1 1 1 1 1 1
          1 1 1 1 1 1
          1 1 1 1 1 1
          1 1 1 1 1 1
          1 1 1 1 1 1
          1 1 1 1 1 1
          1 1 1 1 1 1
          1 1 1 1 1 1
          1 1 1 1 1 1
          1 1 1 1 1 1
          1 1 1 1 1 1
          1 1 1 1 1 1
          1 1 1 1 1 1
          1 1 1 1 1 1
          1 1 1 1 1 1
          1 1 1 1 1 1
          1 1 1 1 1 1
          1 1 1 1 1 1
          1 1 1 1 1 1
          1 1 1 1 1 1
          1 1 1 1 1 1
          1 1 1 1 1 1
          1 1 1 1 1 1
          1 1 1 1 1 1
          1 1 1 1 1 1
          1 1 1 1 1 1
          1 1 1 1 1 1
          1 1 1 1 1 1
          1 1 1 1 1 1
          1 1 1 1 1 1
          1 1 1 1 1 1
          1 1 1 1 1 1
          1 1 1 1 1 1
          1 1 1 1 1 1
          1 1 1 1 1 1
          1 1 1 1 1 1
          1 1 1 1 1 1
          1 1 1 1 1 1
          1 1 1 1 1 1
          1 1 1 1 1 1
          1 1 1 1 1 1
          1 1 1 1 1 1
          1 1 1 1 1 1
          1 1 1 1 1 1
          1 1 1 1 1 1
          1 1 1 1 1 1
          1 1 1 1 1 1
        </DataArray>
        <DataArray type="Float64" Name="dHdT" format="ascii" RangeMin="25.79527177424712" RangeMax="32.97403318313056">
          25.811442123274933 25.811442948252957 25.811448203985506 25.811447695803018 25.81146572648781 25.811464355003785
          25.81145819359323 25.811458960148666 25.811446237106892 25.811450010650937 25.81145983610777 25.81145582024847
          25.811453927083928 25.811453827525778 25.81145109784097 25.8114515598791 25.811458984273493 25.81145616228515
          25.811445893845654 25.811449241855044 25.81145550007268 25.811454281994706 25.811449985128988 25.811451497020897
          25.811453459718056 25.811453268331103 25.811452032182668 25.811452193809526 25.81145378419498 25.811451804389172
          25.811453727967628 25.811452021917233 25.81145334029681 25.811452589864437 25.811453063916733 25.811453008912807
          25.81140300422664 25.811409709991132 25.811436158057468 25.811432558780126 25.81143044637055 25.811446772337685
          25.811467475330158 25.81146456394823 25.81148827481962 25.811473540743773 25.811470278201632 25.81146348667056
          25.811462606123808 25.81146211333361 25.811463098304813 25.8114616525663 25.811458806667922 25.81145669513949
          25.8116550278961 25.811624580624773 25.811518673937766 25.811534333330542 25.811535468084863 25.81147446587806
          25.811388294425782 25.811405227330184 25.81131145394481 25.811373701458596 25.811387094451888 25.811416637771543
          25.811412767250754 25.811413638764982 25.811413463671254 25.811422160234585 25.811435948972385 25.811446181091203
          25.80854631084697 25.809525213533966 25.811602797606525 25.811423299664206 25.81125413951715 25.811822164465838
          25.813950286644285 25.811855900282133 25.811691173485727 25.811494957020432 25.811565614142914 25.811552439854157
          25.811594309807354 25.811618114830498 25.8115930723854 25.811519065146232 25.963543906175076 25.92858044747662
          25.860108489130454 25.870087241800842 25.880041361394476 25.843538253467813 25.848445606857062 25.82892766969668
          25.8107448491658 25.81038873221437 25.811321192886513 25.811728757927227 30.129526634676903 30.673179826934415
          26.057274976551057 26.10481761179007 31.707533739304242 25.983568737145138 25.80296028611868 25.800728055927078
          25.807449640756275 25.8396965177486 25.81318937802758 25.812956202867678 25.81162068010421 25.799979393765533
          25.797746134836764 25.802237950831458 25.80319541995738 25.814754065588797 25.79527177424712 25.801285345649788
          25.812723027707776 25.806729766826148 25.80641144614922 25.807298917052464 25.8606425107736 25.853436886108852
          25.869515301505384 25.843755869832503 25.951871605592185 25.9205114023817 25.927749961536843 27.82887108939275
          27.84549232498483 26.840643953865033 26.852518800708584 25.9046516140436 27.87599326512288 26.811680685017116
          25.885631491311425 25.96691655606166 25.9757835731206 25.946977395487895 30.309302114674487 28.162100551583976
          28.132568993652566 28.216212882819313 26.08922097194238 25.903428882844544 25.886897017294473 27.902005639485097
          26.771450459474664 27.92155698856047 26.719408436416973 25.865107357848828 25.923649110424147 25.900204259245537
          31.127726333748342 28.270708943514112 28.321419332062312 26.020779366073725 27.928072904138467 26.653472625218374
          25.877542581812918 32.48170724560489 28.36251299523198 25.948294637224627 25.805695420053482 25.808259939814334
          25.807847093281616 25.80858945282872 25.80751943592344 25.807414327564175 25.808065420364144 25.80924969158221
          25.805046019823997 25.805932344999324 25.81082445957518 25.80730921920491 25.807541387899576 25.806818670174646
          25.808889365143067 25.810418857301734 25.802369888129096 25.80440903305501 25.811948349460405 25.806448177980922
          25.814655114498752 25.815330420009907 25.821535048627343 25.823158482847965 25.813092660222722 25.81768636737227
          25.809225539701863 25.805295838611016 25.804877405399093 25.806334841532816 25.82841498275594 25.830986545686024