<?xml version="1.0"?>
<VTKFile type="UnstructuredGrid" version="0.1" byte_order="LittleEndian" header_type="UInt32" compressor="vtkZLibDataCompressor">
  <UnstructuredGrid>
    <Piece NumberOfPoints="483" NumberOfCells="220">
      <PointData>
        <DataArray type="Int32" Name="libmesh_node_id" format="ascii" RangeMin="20" RangeMax="1642">
          24 25 26 27 28 29
          30 31 32 33 34 35
          36 37 38 39 52 53
          54 55 56 57 58 59
          72 73 74 75 76 77
          78 79 86 87 88 89
          102 103 104 105 106 107
          108 109 116 117 118 119
          130 132 133 134 135 136
          137 138 139 146 147 148
          149 162 163 164 165 166
          167 168 169 176 177 178
          179 193 195 196 197 198
          199 205 206 207 208 209
          229 230 231 232 233 234
          235 236 237 238 240 241
          242 243 244 246 247 248
          249 250 251 252 256 271
          272 273 274 275 276 277
          278 279 280 281 282 283
          284 318 319 320 321 322
          324 325 326 327 329 331
          332 333 335 336 338 339
          340 341 345 346 347 349
          353 354 359 374 375 376
          378 379 381 382 383 384
          385 387 388 389 390 391
          392 393 394 395 396 397
          398 400 402 403 404 405
          407 408 410 411 412 413
          414 415 416 417 418 419
          420 421 422 423 426 427
          429 430 431 432 433 435
          436 437 438 439 440 441
          442 443 444 445 446 447
          448 449 450 451 452 453
          454 455 456 457 458 459
          460 461 462 463 464 465
          466 467 468 469 470 471
          472 473 474 475 476 477
          478 479 480 481 482 483
          484 485 486 487 488 489
          504 505 506 507 508 509
          510 511 512 513 579 580
          583 584 586 587 588 589
          590 592 593 594 595 596
          597 598 599 600 601 602
          603 604 605 606 607 608
          610 611 612 613 614 615
          616 617 618 619 620 625
          630 631 632 633 634 635
          636 637 638 639 640 644
          645 646 647 648 649 650
          651 652 653 654 679 680
          681 682 683 684 685 686
          687 688 689 690 691 692
          693 694 695 696 697 698
          699 700 701 702 703 704
          705 706 707 708 709 710
          711 712 751 752 753 754
          755 756 757 758 759 760
          873 874 875 876 877 878
          953 954 955 956 957 958
          959 960 961 962 963 964
          965 966 967 968 969 970
          971 1622 1623 1624 1625 1626
          1627 1628 1629 1630 1631 1632
          1633 1634 1635 1636 1637 1638
          1639 1640 1641 1642 20 21
          22 23 50 51 70 71
          85 100 101 115 98 99
          128 131 129 145 161 175
          217 219 223 377 380 386
          160 399 401 406 191 409
          424 425 428 434 218 308
          581 582 585 591 309 569
          310 570 571 574 190 577
          316 809 810 813 814 816
          817 821 824 826 828 865
          313 866 869 227 871 945
          946 949 951
        </DataArray>
        <DataArray type="Float64" Name="bounds" format="ascii" RangeMin="0" RangeMax="0">
          0 0 0 0 0 0
          0 0 0 0 0 0
          0 0 0 0 0 0
          0 0 0 0 0 0
          0 0 0 0 0 0
          0 0 0 0 0 0
          0 0 0 0 0 0
          0 0 0 0 0 0
          0 0 0 0 0 0
          0 0 0 0 0 0
          0 0 0 0 0 0
          0 0 0 0 0 0
          0 0 0 0 0 0
          0 0 0 0 0 0
          0 0 0 0 0 0
          0 0 0 0 0 0
          0 0 0 0 0 0
          0 0 0 0 0 0
          0 0 0 0 0 0
          0 0 0 0 0 0
          0 0 0 0 0 0
          0 0 0 0 0 0
          0 0 0 0 0 0
          0 0 0 0 0 0
          0 0 0 0 0 0
          0 0 0 0 0 0
          0 0 0 0 0 0
          0 0 0 0 0 0
          0 0 0 0 0 0
          0 0 0 0 0 0
          0 0 0 0 0 0
          0 0 0 0 0 0
          0 0 0 0 0 0
          0 0 0 0 0 0
          0 0 0 0 0 0
          0 0 0 0 0 0
          0 0 0 0 0 0
          0 0 0 0 0 0
          0 0 0 0 0 0
          0 0 0 0 0 0
          0 0 0 0 0 0
          0 0 0 0 0 0
          0 0 0 0 0 0
          0 0 0 0 0 0
          0 0 0 0 0 0
          0 0 0 0 0 0
          0 0 0 0 0 0
          0 0 0 0 0 0
          0 0 0 0 0 0
          0 0 0 0 0 0
          0 0 0 0 0 0
          0 0 0 0 0 0
          0 0 0 0 0 0
          0 0 0 0 0 0
          0 0 0 0 0 0
          0 0 0 0 0 0
          0 0 0 0 0 0
          0 0 0 0 0 0
          0 0 0 0 0 0
          0 0 0 0 0 0
          0 0 0 0 0 0
          0 0 0 0 0 0
          0 0 0 0 0 0
          0 0 0 0 0 0
          0 0 0 0 0 0
          0 0 0 0 0 0
          0 0 0 0 0 0
          0 0 0 0 0 0
          0 0 0 0 0 0
          0 0 0 0 0 0
          0 0 0 0 0 0
          0 0 0 0 0 0
          0 0 0 0 0 0
          0 0 0 0 0 0
          0 0 0 0 0 0
          0 0 0 0 0 0
          0 0 0 0 0 0
          0 0 0 0 0 0
          0 0 0 0 0 0
          0 0 0 0 0 0
          0 0 0
        </DataArray>
        <DataArray type="Float64" Name="gradient_error" format="ascii" RangeMin="1.6414386461811688e-12" RangeMax="6.704551039044564e-7">
          1.4379178720613068e-11 1.2188340897173609e-11 3.228324176004311e-11 2.495791040090478e-11 6.205573161162356e-12 6.455957380024123e-12
          9.312792520688835e-12 8.240341743038848e-12 6.5454229683825505e-12 6.616113711951112e-12 7.288504916912349e-12 7.126321698382907e-12
          6.7135089531735955e-12 6.7215844374807384e-12 6.962296882036688e-12 6.918858685672165e-12 9.997503073734147e-12 1.7632579041766447e-11
          6.706341598885891e-12 7.167890965388862e-12 6.686804455519675e-12 6.964138479853466e-12 6.7296599217878806e-12 6.875420489307643e-12
          1.1036595417879676e-10 8.833438395682058e-11 1.7901999747173295e-11 1.456067314311355e-11 6.249898232169961e-12 6.370450451250425e-12
          5.262310225725085e-12 5.871565946899263e-12 6.63028137348444e-11 1.1219346539053801e-11 6.4910026703308914e-12 6.480821668073443e-12
          3.9311509936584733e-10 3.4731921185151744e-10 6.315762649767054e-11 5.514014654971991e-11 1.9017749806172124e-11 1.636504711720572e-11
          1.50815492917041e-11 1.4194084909970366e-11 3.0152332433718755e-10 4.712266660176927e-11 1.3712344428239317e-11 1.3306620528236629e-11
          3.6380144207067694e-9 4.638818076013327e-10 7.261391964683743e-10 6.584537776694604e-11 1.0459543662222924e-10 3.410669431269643e-11
          3.32204259702695e-11 3.0457699075007523e-11 3.0042491134658655e-11 1.021553027062068e-9 1.4173812446712166e-10 3.233415762784256e-11
          2.962728319430979e-11 1.978815631362062e-9 2.2796878740798105e-9 5.201579999278814e-11 1.4998576811934516e-10 3.7482454440437614e-11
          3.91939322819829e-11 4.9855655306084966e-11 4.4138613129934936e-11 8.848239940932731e-10 1.1720980134818274e-10 4.1529817843478716e-11
          3.842157095378492e-11 1.3861486732370606e-9 4.8752570107771886e-11 3.750663409602983e-11 3.9507416114109445e-11 6.56454754050127e-11
          5.195341485055837e-11 2.350663868251417e-9 3.780658837023109e-10 2.7299651009484948e-11 4.0075476451276414e-11 3.826135429610404e-11
          3.878646910354205e-9 6.182350090073044e-9 5.689925230018157e-8 1.9568485258349416e-8 2.614065974888039e-9 1.0711944000895988e-8
          4.425396895644421e-8 6.630392661286755e-9 5.526058511003045e-9 2.272917478066859e-9 1.2200041879668524e-7 2.098050614823006e-8
          4.4421452898516215e-9 3.2008940857518195e-10 8.50908865551609e-10 9.236489957012805e-10 1.3839039074003497e-10 1.9095813504788918e-11
          1.0649097860439333e-10 1.0266470390703962e-9 7.698628951940068e-10 1.2509441544431316e-10 2.410621642118843e-10 2.960935891247202e-11
          2.8005104108108693e-11 1.7690886746740112e-11 2.504447040173472e-11 1.3743329692943928e-11 1.2179968959945973e-11 1.2271922080451772e-11
          2.640084930374536e-11 3.14128765756405e-11 1.236387520095757e-11 5.236816852219937e-12 2.235088334353996e-11 1.0800514467959615e-11
          3.6424903847535636e-11 9.472258827671118e-8 5.8839539702423616e-8 6.073940927360096e-7 4.011949388651122e-7 3.761912609748803e-8
          2.2804654770516425e-7 3.3731533144001326e-8 1.116414670641679e-7 6.900773328243354e-8 6.704551039044564e-7 1.8899182013397725e-7
          2.8595189980478213e-8 5.142604050301226e-8 1.9716682055279066e-7 5.001334600354982e-8 1.3355201899912363e-7 4.8263642776837513e-8
          6.121912783881657e-8 5.017252171201806e-8 6.111350448220702e-8 3.2324100248406792e-9 1.5006406367652182e-8 3.552605337362146e-8
          1.7027769824919135e-8 1.4943298088322725e-8 5.438307737550879e-9 8.990047875581709e-10 7.230644877604017e-10 1.774047907508943e-9
          2.321688097737504e-9 2.086965760480477e-9 2.7892157830243887e-10 8.716616592274753e-10 8.173149044507593e-10 5.471241879626325e-10
          1.85224342322345e-9 7.629681496740433e-10 9.554543600449793e-11 1.0458874029909802e-10 3.0760449087190756e-10 3.182081814243663e-10
          2.5507360309410526e-11 7.030144929773993e-11 7.418136243027396e-11 1.1363204459369811e-10 3.2881187197682506e-10 7.806127556280801e-11
          1.1948849897865099e-9 1.5410120175946177e-9 5.438058602499463e-10 6.514889192083322e-10 4.2498663054367695e-10 8.001196166239604e-10
          3.00158246989603e-10 1.8871390454027252e-9 7.591719781667181e-10 1.1752526027042441e-9 2.3953610863848436e-10 2.2700325198720996e-10
          4.902967533589013e-11 4.417207510986859e-11 9.0906937579683e-11 7.895271474582103e-11 1.5789486622481088e-11 2.144703953359355e-10
          3.9314474883847055e-11 6.699849191195904e-11 7.385491978308609e-9 5.711204846612296e-9 3.4827727006857944e-8 2.2658021831029266e-8
          3.5357783651679967e-9 1.7360507086743275e-8 1.3092868879895853e-8 4.036917714915983e-9 1.0488316655200592e-8 8.825230673048426e-9
          3.5498119279179218e-9 3.2934657038881357e-9 1.2252260019739272e-8 1.0573618882145841e-8 2.4227057786189844e-9 8.249595914376233e-9
          7.642437029657643e-9 3.037119479858349e-9 8.89497774455241e-9 7.035278144939054e-9 6.25852775715705e-9 1.6829452220892193e-8
          1.4315384281486493e-8 3.314863856384932e-8 2.6079013561060646e-9 5.616961877108623e-9 2.2405549454639496e-9 2.880565693629188e-9
          4.528329161068505e-9 1.6461140789210076e-9 2.2372240805815934e-8 4.946782490680644e-8 8.62602239811118e-9 3.520576441794426e-9
          7.586567186172461e-10 7.921919006355656e-10 2.697425070511789e-9 2.5407367602074247e-9 1.5635567518213135e-10 4.1074713897204697e-10
          4.141944265175534e-10 8.257270826538849e-10 2.384048449903061e-9 4.176417140630599e-10 4.2672238705940685e-11 5.1294778899021666e-11
          6.47828381091911e-11 8.135723640439947e-11 2.1302854929165025e-11 1.603428756987036e-11 3.4458618179759556e-11 5.991731909210265e-11
          9.793163469960786e-11 5.288294878964875e-11 1.0665245850809659e-9 1.874633213964166e-9 4.16146471334499e-10 5.548040566295694e-10
          6.41408107910924e-10 5.272476958129617e-10 1.5087094691436714e-10 2.682741842847367e-9 6.934616419246397e-10 4.130872837149993e-10
          4.8914642403869034e-12 6.443319346966886e-12 2.932350878732072e-12 5.9608017035316714e-12 4.147391337147094e-12 1.6414386461811688e-12
          4.14663912093217e-12 7.995174453546868e-12 8.933023179432009e-12 6.65183959568317e-12 1.4379625658521162e-7 1.3182634864493414e-7
          2.9187239986282487e-7 2.607038636394574e-7 1.1302021638396494e-7 2.8882286992982215e-7 2.5520515423565544e-7 1.003249916811719e-7
          1.8090032597544288e-7 1.7083000541652977e-7 5.60172191852296e-7 5.22201871385726e-7 5.597902940506901e-7 3.853557846457217e-7
          1.0661737214150316e-7 9.402894490130115e-8 2.8276218236129264e-7 2.462040306081681e-7 7.418002568621309e-8 2.717281558324674e-7
          2.328258590744108e-7 6.388875532780165e-8 1.5729365052369914e-7 1.4069019920657093e-7 4.592278019932108e-7 4.130618831061265e-7
          3.2186396872900186e-7 5.790336016630027e-7 6.220237997818111e-7 5.319431999565558e-7 6.350102762326838e-7 5.603088411830396e-7
          6.046296056955112e-7 4.776713627618515e-7 5.892252354261509e-7 5.481089643632791e-7 6.113817733443496e-7 4.5961790965367366e-7
          5.240116151401734e-7 5.8727145248326896e-8 5.505425900307609e-8 2.525627441674503e-7 2.1297057638985221e-7 3.817763686250409e-8
          2.2355721554083878e-7 1.8559682795234466e-7 4.4354445872016555e-8 1.2067639541497128e-7 1.1770056442472487e-7 2.0551699567458065e-7
          1.8409418591851696e-8 2.3553480594017542e-8 1.84369641067646e-7 1.5053025286552982e-7 1.2748600067466719e-8 1.3738266542514856e-7
          1.1019224673301172e-7 2.8697542596183392e-8 1.1669086466341363e-7 8.30018280408749e-8 1.443305884448035e-7 1.6716930914670882e-7
          2.805957488215894e-7 3.033576348147586e-7 1.4363446798961369e-7 2.4674818561290594e-7 6.254051087092433e-8 9.95679200066022e-8
          1.2795414602555634e-7 7.132663410676612e-8 3.4308308955157876e-7 3.638476129072745e-7 3.078835381056249e-7 1.1653911041820064e-7
          1.4615896228664262e-7 2.011468094475783e-7 1.0334384256167382e-7 1.4711202551478897e-7 4.176301776353981e-8 4.560520351555829e-8
          2.5786262408174752e-8 2.56134656608514e-7 1.908802084679041e-7 4.944738926757677e-8 3.012719539192161e-9 6.696354861170514e-9
          8.984187808226307e-8 7.077245389345875e-8 3.399961794686149e-9 3.6155220596186826e-8 2.800759888282961e-8 1.0379990183148868e-8
          5.170302970465443e-8 1.4685673872252084e-8 6.357686108229755e-8 9.336302134492523e-8 1.7680506787132424e-8 3.666114611959907e-8
          1.3965691311068236e-8 1.3306440048443334e-8 6.3599886066504205e-9 1.2314918160755294e-7 4.903079402195706e-8 1.2647188785818433e-8
          3.129964643308595e-8 6.122110624599961e-8 3.956717314393516e-9 7.241634539536292e-9 9.114256605891328e-8 1.0526551764679069e-8
          2.0779437599235738e-7 3.2576247826488575e-7 1.991428692703633e-7 3.239071373317847e-7 1.2910873361242735e-7 1.9592127206431186e-7
          1.7665635194861167e-7 3.729954850222812e-7 3.7549801113463475e-7 2.2400653144631335e-7 1.8537678584267043e-7 3.1695952460217083e-7
          9.162223666556798e-8 1.5410667827628702e-7 3.733773512659328e-7 1.8184677932509693e-7 2.7041693203331685e-8 4.335971546589932e-8
          2.889061838532508e-8 5.981591163442694e-8 7.29279951844678e-8 9.84375960558257e-8 1.0700861516719717e-7 4.144778560681377e-8
          8.370863030930281e-8 3.8838280611166766e-8 6.460986757685559e-8 7.654260176790711e-8 4.734468832703483e-8 3.3378745389291266e-8
          7.179530956811165e-8 2.8966258942597907e-8 6.021861025688638e-8 2.042049778407837e-8 3.8649196943868606e-8 3.2980384416985034e-8
          2.720423171959322e-8 4.887850025880007e-8 1.7080944452978623e-8 2.978261829991176e-8 8.135784887855312e-11 4.8616866015673654e-11
          2.0258741572969185e-10 1.1975811538242456e-10 1.5875883152794185e-11 3.692881503515729e-11 8.113741966830384e-10 4.868384008125646e-10
          1.62302604942091e-10 3.232375343297948e-9 1.9884698344144765e-9 7.44564325531005e-10 5.902132776647045e-9 3.679739341025872e-9
          2.0224130028294002e-8 3.590847581500903e-9 7.959435915322742e-9 3.879842400388981e-9 1.586023797623295e-8 3.7115894087153902e-9
          1.654505689602997e-8 1.6543459259376946e-7 1.568531720785447e-8 5.495926750899905e-9 5.2053029671336906e-9 4.914679183367475e-9
          1.0805221262066747e-8 3.0299002897261783e-9 4.252848637236332e-9 1.6183315364997918e-9 1.0925241742365448e-8 5.4757969847464854e-9
          9.14870565915727e-9 6.389272170857322e-8 3.937600653096478e-8 1.4859291353356325e-8 1.3615816038280555e-7 2.024363317045974e-7
          1.4898653974149924e-7 2.920392613793775e-7 2.6245254926244237e-7 2.010687676191672e-7 5.161983509012089e-7 4.864120742804963e-7
          4.6409961680159595e-7 5.055105501992554e-7 5.541905892591121e-7 5.191094772154653e-7 4.054432454184466e-7 5.114755887406173e-7
          5.574895388080221e-7 1.3203508339894369e-8 8.386721559941332e-9 3.8225608676285136e-8 2.506895868426081e-8 3.5699347799882942e-9
          1.1912308692236487e-8 3.2730667677909896e-8 1.1134647215433071e-8 5.811901983642516e-8 2.02236243702694e-8 4.725160415981741e-8
          2.690395732426245e-7 9.388067200074435e-8 9.438795969368224e-9 2.5203571778165233e-7 1.4050973984167127e-7 2.3346267455905454e-7
          3.232678608359862e-7 2.1118739556001078e-7 3.668863274083538e-7
        </DataArray>
        <DataArray type="Float64" Name="gradient_matprop_error" format="ascii" RangeMin="0" RangeMax="0">
          0 0 0 0 0 0
          0 0 0 0 0 0
          0 0 0 0 0 0
          0 0 0 0 0 0
          0 0 0 0 0 0
          0 0 0 0 0 0
          0 0 0 0 0 0
          0 0 0 0 0 0
          0 0 0 0 0 0
          0 0 0 0 0 0
          0 0 0 0 0 0
          0 0 0 0 0 0
          0 0 0 0 0 0
          0 0 0 0 0 0
          0 0 0 0 0 0
          0 0 0 0 0 0
          0 0 0 0 0 0
          0 0 0 0 0 0
          0 0 0 0 0 0
          0 0 0 0 0 0
          0 0 0 0 0 0
          0 0 0 0 0 0
          0 0 0 0 0 0
          0 0 0 0 0 0
          0 0 0 0 0 0
          0 0 0 0 0 0
          0 0 0 0 0 0
          0 0 0 0 0 0
          0 0 0 0 0 0
          0 0 0 0 0 0
          0 0 0 0 0 0
          0 0 0 0 0 0
          0 0 0 0 0 0
          0 0 0 0 0 0
          0 0 0 0 0 0
          0 0 0 0 0 0
          0 0 0 0 0 0
          0 0 0 0 0 0
          0 0 0 0 0 0
          0 0 0 0 0 0
          0 0 0 0 0 0
          0 0 0 0 0 0
          0 0 0 0 0 0
          0 0 0 0 0 0
          0 0 0 0 0 0
          0 0 0 0 0 0
          0 0 0 0 0 0
          0 0 0 0 0 0
          0 0 0 0 0 0
          0 0 0 0 0 0
          0 0 0 0 0 0
          0 0 0 0 0 0
          0 0 0 0 0 0
          0 0 0 0 0 0
          0 0 0 0 0 0
          0 0 0 0 0 0
          0 0 0 0 0 0
          0 0 0 0 0 0
          0 0 0 0 0 0
          0 0 0 0 0 0
          0 0 0 0 0 0
          0 0 0 0 0 0
          0 0 0 0 0 0
          0 0 0 0 0 0
          0 0 0 0 0 0
          0 0 0 0 0 0
          0 0 0 0 0 0
          0 0 0 0 0 0
          0 0 0 0 0 0
          0 0 0 0 0 0
          0 0 0 0 0 0
          0 0 0 0 0 0
          0 0 0 0 0 0
          0 0 0 0 0 0
          0 0 0 0 0 0
          0 0 0 0 0 0
          0 0 0 0 0 0
          0 0 0 0 0 0
          0 0 0 0 0 0
          0 0 0 0 0 0
          0 0 0
        </DataArray>
        <DataArray type="Float64" Name="initial_marker" format="ascii" RangeMin="0" RangeMax="2">
          0 0 0 0 0 0
          0 0 0 0 0 0
          0 0 0 0 0 0
          0 0 0 0 0 0
          0 0 0 0 0 0
          0 0 0 0 0 0
          0 0 0 0 0 0
          0 0 0 0 0 0
          0 0 0 0 0 0
          0 0 0 0 0 0
          0 0 0 0 0 0
          0 0 0 0 0 0
          0 0 0 0 0 0
          0 0 0 0 0 0
          0 0 0 0 0 0
          0 0 0 0 0 0
          0 0 0 0 0 0
          0 0 0 0 0 0
          0 0 0 0 0 0
          0 0 0 0 0 0
          0 0 0 2 0.5 0
          0 0 0 0 1 0
          0 0 0.5 0 1 0
          0 0 0 0 0 0.75
          0 0 0 0 0 0
          0 0 0 0 0 0
          0 0 0 0 0 0
          0 0 0 0 0 0
          0 0 0 0 0 0
          0 0 0 0 0 0
          0 0 0 0 0 0
          0 0 0 0 0 0
          0 0 0 0 0 0
          0 0 0 0 0 0
          0 0 0 0 0 0
          0 0 0 0 0 0
          0 0 0 0 0 0
          0 0 0 0 0 0
          0 0 0 0 0 0
          0 0 0 0 0 0
          0 0 0 0 0 0
          0 0 0 0 0 0
          0 0 0 0 0 0
          0 0 0 0 0 0
          0.5 0.25 0 1 0.5 0
          0 0 1.5 1.25 1.5 0.5
          0 0 1 0.5 0 1
          0.5 0 0 0 2 1.5
          0.25 2 2 2 2 1
          1 2 2 2 1 1
          1 0 0 1 0.5 0
          1 0.5 0 0 0 0
          0 0 1 0.75 0 1
          1 0 0.5 1 0 0
          0.5 0.25 0 0.5 0 0
          0 0 1 0.5 1 0
          0 0.5 0 0.5 0 0
          0 1 1 0 0 0
          1 1 0 0.5 0.5 0
          1 0.3333333333333333 0 0.5 0 0.25
          0 0 0 1 0.5 0
          0 0 0 0 0 0
          0 0 0 0 0 0
          0 0 0 0 0 0
          0 0 0 0 0 0
          0 0 0 0 0 0
          0 0 0 0 0 0
          0 0 0 0 0 0
          0 0 0 0 0 0
          0 0 0 0 0 0
          0 0 0 0 0 0
          0 0 0 0 0 0
          0 0 0 0 0 0
          0 0 0 0 0 0
          0 0 0 0 0 0
          0 0 0 0 1 1
          0.5 2 2 1 2 2
          1 0 0 0 0 0
          0 0 0 0 0 0
          0 0 0 0 0 0
          0 0 0
        </DataArray>
        <DataArray type="Float64" Name="markers_norefine" format="ascii" RangeMin="0" RangeMax="0">
          0 0 0 0 0 0
          0 0 0 0 0 0
          0 0 0 0 0 0
          0 0 0 0 0 0
          0 0 0 0 0 0
          0 0 0 0 0 0
          0 0 0 0 0 0
          0 0 0 0 0 0
          0 0 0 0 0 0
          0 0 0 0 0 0
          0 0 0 0 0 0
          0 0 0 0 0 0
          0 0 0 0 0 0
          0 0 0 0 0 0
          0 0 0 0 0 0
          0 0 0 0 0 0
          0 0 0 0 0 0
          0 0 0 0 0 0
          0 0 0 0 0 0
          0 0 0 0 0 0
          0 0 0 0 0 0
          0 0 0 0 0 0
          0 0 0 0 0 0
          0 0 0 0 0 0
          0 0 0 0 0 0
          0 0 0 0 0 0
          0 0 0 0 0 0
          0 0 0 0 0 0
          0 0 0 0 0 0
          0 0 0 0 0 0
          0 0 0 0 0 0
          0 0 0 0 0 0
          0 0 0 0 0 0
          0 0 0 0 0 0
          0 0 0 0 0 0
          0 0 0 0 0 0
          0 0 0 0 0 0
          0 0 0 0 0 0
          0 0 0 0 0 0
          0 0 0 0 0 0
          0 0 0 0 0 0
          0 0 0 0 0 0
          0 0 0 0 0 0
          0 0 0 0 0 0
          0 0 0 0 0 0
          0 0 0 0 0 0
          0 0 0 0 0 0
          0 0 0 0 0 0
          0 0 0 0 0 0
          0 0 0 0 0 0
          0 0 0 0 0 0
          0 0 0 0 0 0
          0 0 0 0 0 0
          0 0 0 0 0 0
          0 0 0 0 0 0
          0 0 0 0 0 0
          0 0 0 0 0 0
          0 0 0 0 0 0
          0 0 0 0 0 0
          0 0 0 0 0 0
          0 0 0 0 0 0
          0 0 0 0 0 0
          0 0 0 0 0 0
          0 0 0 0 0 0
          0 0 0 0 0 0
          0 0 0 0 0 0
          0 0 0 0 0 0
          0 0 0 0 0 0
          0 0 0 0 0 0
          0 0 0 0 0 0
          0 0 0 0 0 0
          0 0 0 0 0 0
          0 0 0 0 0 0
          0 0 0 0 0 0
          0 0 0 0 0 0
          0 0 0 0 0 0
          0 0 0 0 0 0
          0 0 0 0 0 0
          0 0 0 0 0 0
          0 0 0 0 0 0
          0 0 0
        </DataArray>
        <DataArray type="Float64" Name="markers_mustrefine" format="ascii" RangeMin="0" RangeMax="2">
          0 0 0 0 0 0
          0 0 0 0 0 0
          0 0 0 0 0 0
          0 0 0 0 0 0
          0 0 0 0 0 0
          0 0 0 0 0 0
          0 0 0 0 0 0
          0 0 0 0 0 0
          0 0 0 0 0 0
          0 0 0 0 0 0
          0 0 0 0 0 0
          0 0 0 0 0 0
          0 0 0 0 0 0
          0 0 0 0 0 0
          0 0 0 0 0 0
          0 0 0 0 0 0
          0 0 0 0 0 0
          0 0 0 0 0 0
          0 0 0 0 0 0
          0 0 0 0 0 0
          0 0 0 2 0.5 0
          0 0 0 0 1 0
          0 0 0.5 0 1 0
          0 0 0 0 0 0.75
          0 0 0 0 0 0
          0 0 0 0 0 0
          0 0 0 0 0 0
          0 0 0 0 0 0
          0 0 0 0 0 0
          0 0 0 0 0 0
          0 0 0 0 0 0
          0 0 0 0 0 0
          0 0 0 0 0 0
          0 0 0 0 0 0
          0 0 0 0 0 0
          0 0 0 0 0 0
          0 0 0 0 0 0
          0 0 0 0 0 0
          0 0 0 0 0 0
          0 0 0 0 0 0
          0 0 0 0 0 0
          0 0 0 0 0 0
          0 0 0 0 0 0
          0 0 0 0 0 0
          0.5 0.25 0 1 0.5 0
          0 0 1.5 1.25 1.5 0.5
          0 0 1 0.5 0 1
          0.5 0 0 0 2 1.5
          0.25 2 2 2 2 1
          1 2 2 2 1 1
          1 0 0 1 0.5 0
          1 0.5 0 0 0 0
          0 0 1 0.75 0 1
          1 0 0.5 1 0 0
          0.5 0.25 0 0.5 0 0
          0 0 1 0.5 1 0
          0 0.5 0 0.5 0 0
          0 1 1 0 0 0
          1 1 0 0.5 0.5 0
          1 0.3333333333333333 0 0.5 0 0.25
          0 0 0 1 0.5 0
          0 0 0 0 0 0
          0 0 0 0 0 0
          0 0 0 0 0 0
          0 0 0 0 0 0
          0 0 0 0 0 0
          0 0 0 0 0 0
          0 0 0 0 0 0
          0 0 0 0 0 0
          0 0 0 0 0 0
          0 0 0 0 0 0
          0 0 0 0 0 0
          0 0 0 0 0 0
          0 0 0 0 0 0
          0 0 0 0 0 0
          0 0 0 0 1 1
          0.5 2 2 1 2 2
          1 0 0 0 0 0
          0 0 0 0 0 0
          0 0 0 0 0 0
          0 0 0
        </DataArray>
        <DataArray type="Float64" Name="gradient_marker" format="ascii" RangeMin="0" RangeMax="1">
          1 1 1 1 1 1
          1 1 1 1 1 1
          1 1 1 1 1 1
          1 1 1 1 1 1
          1 1 1 1 1 1
          1 1 1 1 1 1
          1 1 1 1 1 1
          1 1 1 1 1 1
          1 1 1 1 1 1
          1 1 1 1 1 1
          1 1 1 1 1 1
          1 1 1 1 1 1
          1 1 1 1 1 1
          1 1 1 1 1 1
          1 1 0.5 0.75 1 0.5
          1 1 1 1 1 0.5
          1 1 1 1 1 1
          1 1 1 1 1 1
          1 1 1 1 1 1
          1 1 1 1 1 1
          1 1 0.5 1 1 0.5
          0.75 0.6666666666666666 0.75 0.5 1 1
          0.5 0.625 0.625 0.75 0.75 0.8333333333333334
          0.625 0.75 0.5 0.75 0.875 0.25
          1 0.875 0.75 1 1 1
          1 1 1 1 1 1
          1 1 1 1 1 1
          1 1 1 1 1 1
          1 1 1 1 1 1
          1 1 1 1 1 1
          1 1 1 1 1 1
          1 1 1 1 1 1
          1 1 1 1 1 1
          1 1 1 1 1 1
          1 1 1 1 1 1
          1 1 1 1 1 1
          1 1 1 1 1 1
          1 1 1 1 1 1
          1 1 1 1 1 1
          1 1 1 1 1 1
          1 1 1 1 1 1
          1 1 1 1 1 1
          1 1 1 1 1 1
          1 1 1 1 1 0.75
          1 0.875 0.5 1 0.75 0.25
          0.625 0.5 1 1 1 1
          0.5 0.25 0.75 0.625 0 0.5
          0.5 0 0.5 0.5 0.75 0.75
          0.875 1 1 0.75 0.875 1
          1 1 1 0.75 1 0.75
          1 0 0 0.5 0.5 0
          0.5 0.5 0 0.375 0.3333333333333333 0.625
          0 0 0.5 0.5 0 0.5
          0.5 0 0.5 0.5 0.375 0.5
          0.625 0.75 0.3333333333333333 0.5 0 0.25
          0.5 0 0.75 1 0.5 0.5
          0.5 0.5 0.5 0.5 0 0
          0 0.5 0.5 0 0 0
          0.5 0.375 0.5 0.5 0.375 0
          0.25 0.5 0.25 0.375 0.5 0.375
          0 0 0.5 0.5 0.5 0
          1 1 1 1 1 1
          0.75 1 0.75 1 0.5 1
          1 1 1 1 0.625 0.875
          0.25 0.75 1 1 0 0
          0 0 0 0.25 0.25 0
          0.25 0 0 0 0 0
          0.25 0 0.25 0 0 0
          0 0.125 0 0 1 1
          1 1 1 1 1 1
          1 1 1 1 1 1
          1 1 1 1 1 1
          1 0.875 1 1 1 1
          1 1 1 1 1 1
          1 1 1 1 1 0.875
          1 1 1 0.8333333333333334 1 1
          1 1 1 1 1 1
          1 1 1 1 1 1
          1 1 1 1 1 1
          0.875 1 1 1 1 0.8333333333333334
          1 1 1
        </DataArray>
        <DataArray type="Float64" Name="gradient_matprop_marker" format="ascii" RangeMin="0" RangeMax="0">
          0 0 0 0 0 0
          0 0 0 0 0 0
          0 0 0 0 0 0
          0 0 0 0 0 0
          0 0 0 0 0 0
          0 0 0 0 0 0
          0 0 0 0 0 0
          0 0 0 0 0 0
          0 0 0 0 0 0
          0 0 0 0 0 0
          0 0 0 0 0 0
          0 0 0 0 0 0
          0 0 0 0 0 0
          0 0 0 0 0 0
          0 0 0 0 0 0
          0 0 0 0 0 0
          0 0 0 0 0 0
          0 0 0 0 0 0
          0 0 0 0 0 0
          0 0 0 0 0 0
          0 0 0 0 0 0
          0 0 0 0 0 0
          0 0 0 0 0 0
          0 0 0 0 0 0
          0 0 0 0 0 0
          0 0 0 0 0 0
          0 0 0 0 0 0
          0 0 0 0 0 0
          0 0 0 0 0 0
          0 0 0 0 0 0
          0 0 0 0 0 0
          0 0 0 0 0 0
          0 0 0 0 0 0
          0 0 0 0 0 0
          0 0 0 0 0 0
          0 0 0 0 0 0
          0 0 0 0 0 0
          0 0 0 0 0 0
          0 0 0 0 0 0
          0 0 0 0 0 0
          0 0 0 0 0 0
          0 0 0 0 0 0
          0 0 0 0 0 0
          0 0 0 0 0 0
          0 0 0 0 0 0
          0 0 0 0 0 0
          0 0 0 0 0 0
          0 0 0 0 0 0
          0 0 0 0 0 0
          0 0 0 0 0 0
          0 0 0 0 0 0
          0 0 0 0 0 0
          0 0 0 0 0 0
          0 0 0 0 0 0
          0 0 0 0 0 0
          0 0 0 0 0 0
          0 0 0 0 0 0
          0 0 0 0 0 0
          0 0 0 0 0 0
          0 0 0 0 0 0
          0 0 0 0 0 0
          0 0 0 0 0 0
          0 0 0 0 0 0
          0 0 0 0 0 0
          0 0 0 0 0 0
          0 0 0 0 0 0
          0 0 0 0 0 0
          0 0 0 0 0 0
          0 0 0 0 0 0
          0 0 0 0 0 0
          0 0 0 0 0 0
          0 0 0 0 0 0
          0 0 0 0 0 0
          0 0 0 0 0 0
          0 0 0 0 0 0
          0 0 0 0 0 0
          0 0 0 0 0 0
          0 0 0 0 0 0
          0 0 0 0 0 0
          0 0 0 0 0 0
          0 0 0
        </DataArray>
        <DataArray type="Float64" Name="combo" format="ascii" RangeMin="0" RangeMax="1">
          1 1 1 1 1 1
          1 1 1 1 1 1
          1 1 1 1 1 1
          1 1 1 1 1 1
          1 1 1 1 1 1
          1 1 1 1 1 1
          1 1 1 1 1 1
          1 1 1 1 1 1
          1 1 1 1 1 1
          1 1 1 1 1 1
          1 1 1 1 1 1
          1 1 1 1 1 1
          1 1 1 1 1 1
          1 1 1 1 1 1
          1 1 0.5 0.75 1 0.5
          1 1 1 1 1 0.5
          1 1 1 1 1 1
          1 1 1 1 1 1
          1 1 1 1 1 1
          1 1 1 1 1 1
          1 1 0.5 1 1 0.5
          0.75 0.6666666666666666 0.75 0.5 1 1
          0.5 0.625 0.625 0.75 0.75 0.8333333333333334
          0.625 0.75 0.5 0.75 0.875 0.25
          1 0.875 0.75 1 1 1
          1 1 1 1 1 1
          1 1 1 1 1 1
          1 1 1 1 1 1
          1 1 1 1 1 1
          1 1 1 1 1 1
          1 1 1 1 1 1
          1 1 1 1 1 1
          1 1 1 1 1 1
          1 1 1 1 1 1
          1 1 1 1 1 1
          1 1 1 1 1 1
          1 1 1 1 1 1
          1 1 1 1 1 1
          1 1 1 1 1 1
          1 1 1 1 1 1
          1 1 1 1 1 1
          1 1 1 1 1 1
          1 1 1 1 1 1
          1 1 1 1 1 0.75
          1 0.875 0.5 1 0.75 0.25
          0.625 0.5 1 1 1 1
          0.5 0.25 0.75 0.625 0 0.5
          0.5 0 0.5 0.5 0.75 0.75
          0.875 1 1 0.75 0.875 1
          1 1 1 0.75 1 0.75
          1 0 0 0.5 0.5 0
          0.5 0.5 0 0.375 0.3333333333333333 0.625
          0 0 0.5 0.5 0 0.5
          0.5 0 0.5 0.5 0.375 0.5
          0.625 0.75 0.3333333333333333 0.5 0 0.25
          0.5 0 0.75 1 0.5 0.5
          0.5 0.5 0.5 0.5 0 0