<?xml version="1.0"?>
<VTKFile type="UnstructuredGrid" version="0.1" byte_order="LittleEndian" header_type="UInt32" compressor="vtkZLibDataCompressor">
  <UnstructuredGrid>
    <Piece NumberOfPoints="1073" NumberOfCells="695">
      <PointData>
        <DataArray type="Int32" Name="libmesh_node_id" format="ascii" RangeMin="1260" RangeMax="5957">
          1260 1344 1351 1355 1363 1494
          1495 1496 1502 1528 1530 1533
          1538 1539 1540 1687 1688 1694
          1697 1897 1898 1899 1902 1905
          1919 1933 1934 1935 1936 1939
          1940 1950 1951 1953 1954 1955
          1991 1992 1993 1994 1995 1996
          1997 1998 1999 2001 2002 2003
          2004 2005 2006 2007 2008 2009
          2010 2011 2015 2016 2017 2026
          2039 2040 2041 2042 2043 2044
          2045 2046 2047 2048 2049 2050
          2051 2052 2053 2055 2056 2057
          2058 2059 2061 2063 2064 2065
          2070 2668 2672 2741 2742 2743
          2744 2745 2746 2747 2748 2749
          2750 2756 2757 2759 2760 2761
          2762 2773 2774 2775 2776 2777
          2778 2779 2780 2781 2782 2790
          2791 2792 2793 2794 2795 2796
          2797 2798 2799 2800 2801 2802
          2803 2804 2805 2806 2807 2808
          2809 2810 2811 2812 2813 2814
          2815 2816 2817 2818 2819 2820
          2821 2822 2823 2824 2825 2826
          2827 2828 2829 2830 2831 2832
          2833 2834 2835 2836 2837 2838
          2839 2840 2841 2842 2843 2844
          2845 2846 2847 2848 2849 2850
          2851 2852 2853 2854 2855 2856
          2857 2858 2859 2860 2861 2862
          2863 2864 2865 2866 2867 2868
          2869 2870 2871 2872 2873 2874
          2875 2876 2877 2878 2879 2880
          2881 2882 2883 2884 2885 2886
          2887 2888 2889 2890 2891 2892
          2893 2894 2895 2896 2897 2898
          2899 2900 2901 2902 2903 2904
          2905 2906 2907 2908 2909 2910
          2911 2912 2913 2914 2915 2916
          2917 2918 2919 2920 2921 2922
          2923 2924 2925 2926 2927 2928
          2929 2930 2931 2932 2933 2934
          2935 2936 2937 2938 2939 2940
          2941 2942 2943 2944 2945 2946
          2947 2948 2949 2950 2951 2952
          2953 2954 2955 2956 2957 2958
          2959 2960 2961 2962 2963 2964
          2965 2966 2967 2968 2969 2970
          2971 2972 2973 2974 2975 2976
          2977 2978 2979 2980 2981 2982
          2983 2984 2985 2986 2987 2988
          2990 2991 2992 2993 2994 2995
          2996 2997 2998 3000 3002 3004
          3125 3126 3129 3131 3132 3134
          3145 3147 3149 3159 3160 3163
          3165 3166 3168 3179 3183 3185
          4568 4570 4571 4572 4573 4575
          4577 4578 4579 4582 4584 4585
          4586 4657 4658 4660 4663 4665
          4666 4667 4668 4669 4670 4671
          4672 4673 4674 4676 4678 4680
          4682 4683 4684 4685 4686 4687
          4688 4691 4692 4694 4697 4699
          4700 4701 4702 4703 4704 4705
          4706 4707 4708 4710 4712 4714
          4716 4717 4718 4719 4720 4721
          4722 4746 4748 4750 4752 4753
          4754 4755 4756 4757 4758 4759
          4761 4763 4765 4767 4768 4769
          4770 4771 4772 4773 4774 4775
          4776 4777 4778 4779 4780 4781
          4782 4783 4784 4785 4786 4787
          4788 4789 4790 4791 4792 4793
          4794 4795 4796 4797 4798 4799
          4800 4801 4802 4803 4804 4805
          4806 4807 4808 4809 4810 4811
          4812 4813 4814 4815 4816 4817
          4818 4819 4820 4821 4822 4823
          4824 4825 4826 4827 4828 4829
          4830 4831 4832 4833 4834 4835
          4836 4837 4838 4839 4840 4841
          4842 4843 4844 4845 4846 4847
          4848 4849 4850 4851 4852 4853
          4854 4855 4856 4857 4858 4859
          4860 4861 4862 4863 4864 4865
          4866 4867 4868 4869 4870 4871
          4872 4873 4874 4875 4876 4877
          4878 4879 4880 4881 4882 4883
          4884 4885 4886 4887 4888 4889
          4890 4891 4892 4893 4894 4895
          4896 4897 4898 4899 4900 4901
          4902 4903 4904 4905 4906 4907
          4908 4909 4910 4911 4912 4913
          4914 4915 4916 4917 4918 4919
          4920 4921 4922 4923 4924 4925
          4926 4927 4928 4929 4930 4931
          4932 4933 4934 4935 4936 4937
          4938 4939 4940 4941 4942 4943
          4944 4945 4946 4947 4948 4949
          4950 4951 4952 4953 4954 4955
          4956 4957 4958 4959 4960 4961
          4962 4963 4964 4965 4966 4967
          4968 4969 4970 4971 4972 4973
          4974 4975 4976 4977 4978 4979
          4980 4981 4982 4983 4984 4985
          4986 4987 4988 4989 4990 4991
          4992 4993 4994 4995 4996 4997
          4998 4999 5000 5001 5002 5003
          5004 5005 5006 5007 5008 5009
          5010 5011 5012 5013 5014 5015
          5016 5017 5018 5019 5020 5021
          5022 5023 5024 5025 5026 5027
          5028 5029 5030 5031 5032 5033
          5034 5035 5036 5037 5038 5039
          5040 5041 5042 5043 5044 5045
          5046 5047 5048 5049 5050 5051
          5052 5053 5054 5055 5056 5057
          5058 5059 5060 5061 5062 5063
          5064 5065 5066 5067 5068 5069
          5070 5071 5072 5073 5074 5075
          5076 5077 5078 5079 5080 5081
          5082 5083 5084 5085 5086 5087
          5088 5089 5090 5091 5092 5093
          5094 5095 5096 5097 5098 5099
          5100 5101 5102 5103 5104 5105
          5106 5107 5108 5109 5110 5111
          5112 5113 5114 5115 5116 5117
          5118 5119 5120 5121 5122 5123
          5124 5125 5126 5127 5128 5129
          5130 5131 5132 5133 5134 5135
          5136 5137 5138 5139 5140 5141
          5142 5143 5144 5145 5146 5147
          5148 5149 5150 5151 5152 5153
          5154 5155 5156 5157 5158 5159
          5160 5161 5162 5163 5164 5165
          5166 5167 5168 5169 5170 5171
          5172 5173 5174 5175 5176 5177
          5178 5179 5180 5181 5182 5183
          5184 5185 5186 5187 5188 5189
          5190 5191 5192 5193 5194 5195
          5196 5197 5198 5199 5200 5201
          5202 5203 5204 5205 5206 5207
          5208 5209 5210 5211 5212 5213
          5214 5215 5216 5217 5218 5219
          5220 5221 5222 5223 5224 5225
          5226 5227 5228 5229 5230 5231
          5232 5233 5234 5235 5236 5237
          5238 5239 5240 5241 5242 5243
          5244 5245 5246 5247 5248 5249
          5250 5251 5252 5253 5254 5255
          5256 5257 5258 5259 5260 5261
          5262 5263 5264 5265 5266 5267
          5268 5269 5270 5271 5272 5273
          5274 5275 5276 5277 5278 5279
          5280 5281 5282 5283 5284 5285
          5286 5287 5288 5289 5290 5291
          5292 5293 5294 5295 5296 5297
          5298 5299 5300 5301 5302 5303
          5304 5305 5306 5307 5308 5309
          5310 5311 5312 5313 5314 5315
          5316 5317 5318 5319 5320 5666
          5667 5668 5669 5674 5675 5676
          5733 5734 5735 5781 5782 5783
          5784 5785 5786 5787 5788 5789
          5790 5801 5802 5803 5804 5805
          5806 5807 5815 5816 5817 5818
          5819 5820 5821 5822 5823 5824
          5835 5836 5837 5838 5839 5840
          5841 5917 5918 5919 5920 5921
          5922 5923 5931 5932 5933 5937
          5938 5939 5940 5941 5942 5943
          5951 5952 5953 5954 5955 5956
          5957 1695 1529 1698 1532 2000
          1531 2012 2013 2014 2018 1534
          2027 2060 2062 1541 2036 2066
          2037 2054 2067 2068 2072 2069
          2071 1364 2989 2999 3001 3003
          3151 3181 3263 3287 3291
        </DataArray>
        <DataArray type="Float64" Name="bounds" format="ascii" RangeMin="0" RangeMax="0">
          0 0 0 0 0 0
          0 0 0 0 0 0
          0 0 0 0 0 0
          0 0 0 0 0 0
          0 0 0 0 0 0
          0 0 0 0 0 0
          0 0 0 0 0 0
          0 0 0 0 0 0
          0 0 0 0 0 0
          0 0 0 0 0 0
          0 0 0 0 0 0
          0 0 0 0 0 0
          0 0 0 0 0 0
          0 0 0 0 0 0
          0 0 0 0 0 0
          0 0 0 0 0 0
          0 0 0 0 0 0
          0 0 0 0 0 0
          0 0 0 0 0 0
          0 0 0 0 0 0
          0 0 0 0 0 0
          0 0 0 0 0 0
          0 0 0 0 0 0
          0 0 0 0 0 0
          0 0 0 0 0 0
          0 0 0 0 0 0
          0 0 0 0 0 0
          0 0 0 0 0 0
          0 0 0 0 0 0
          0 0 0 0 0 0
          0 0 0 0 0 0
          0 0 0 0 0 0
          0 0 0 0 0 0
          0 0 0 0 0 0
          0 0 0 0 0 0
          0 0 0 0 0 0
          0 0 0 0 0 0
          0 0 0 0 0 0
          0 0 0 0 0 0
          0 0 0 0 0 0
          0 0 0 0 0 0
          0 0 0 0 0 0
          0 0 0 0 0 0
          0 0 0 0 0 0
          0 0 0 0 0 0
          0 0 0 0 0 0
          0 0 0 0 0 0
          0 0 0 0 0 0
          0 0 0 0 0 0
          0 0 0 0 0 0
          0 0 0 0 0 0
          0 0 0 0 0 0
          0 0 0 0 0 0
          0 0 0 0 0 0
          0 0 0 0 0 0
          0 0 0 0 0 0
          0 0 0 0 0 0
          0 0 0 0 0 0
          0 0 0 0 0 0
          0 0 0 0 0 0
          0 0 0 0 0 0
          0 0 0 0 0 0
          0 0 0 0 0 0
          0 0 0 0 0 0
          0 0 0 0 0 0
          0 0 0 0 0 0
          0 0 0 0 0 0
          0 0 0 0 0 0
          0 0 0 0 0 0
          0 0 0 0 0 0
          0 0 0 0 0 0
          0 0 0 0 0 0
          0 0 0 0 0 0
          0 0 0 0 0 0
          0 0 0 0 0 0
          0 0 0 0 0 0
          0 0 0 0 0 0
          0 0 0 0 0 0
          0 0 0 0 0 0
          0 0 0 0 0 0
          0 0 0 0 0 0
          0 0 0 0 0 0
          0 0 0 0 0 0
          0 0 0 0 0 0
          0 0 0 0 0 0
          0 0 0 0 0 0
          0 0 0 0 0 0
          0 0 0 0 0 0
          0 0 0 0 0 0
          0 0 0 0 0 0
          0 0 0 0 0 0
          0 0 0 0 0 0
          0 0 0 0 0 0
          0 0 0 0 0 0
          0 0 0 0 0 0
          0 0 0 0 0 0
          0 0 0 0 0 0
          0 0 0 0 0 0
          0 0 0 0 0 0
          0 0 0 0 0 0
          0 0 0 0 0 0
          0 0 0 0 0 0
          0 0 0 0 0 0
          0 0 0 0 0 0
          0 0 0 0 0 0
          0 0 0 0 0 0
          0 0 0 0 0 0
          0 0 0 0 0 0
          0 0 0 0 0 0
          0 0 0 0 0 0
          0 0 0 0 0 0
          0 0 0 0 0 0
          0 0 0 0 0 0
          0 0 0 0 0 0
          0 0 0 0 0 0
          0 0 0 0 0 0
          0 0 0 0 0 0
          0 0 0 0 0 0
          0 0 0 0 0 0
          0 0 0 0 0 0
          0 0 0 0 0 0
          0 0 0 0 0 0
          0 0 0 0 0 0
          0 0 0 0 0 0
          0 0 0 0 0 0
          0 0 0 0 0 0
          0 0 0 0 0 0
          0 0 0 0 0 0
          0 0 0 0 0 0
          0 0 0 0 0 0
          0 0 0 0 0 0
          0 0 0 0 0 0
          0 0 0 0 0 0
          0 0 0 0 0 0
          0 0 0 0 0 0
          0 0 0 0 0 0
          0 0 0 0 0 0
          0 0 0 0 0 0
          0 0 0 0 0 0
          0 0 0 0 0 0
          0 0 0 0 0 0
          0 0 0 0 0 0
          0 0 0 0 0 0
          0 0 0 0 0 0
          0 0 0 0 0 0
          0 0 0 0 0 0
          0 0 0 0 0 0
          0 0 0 0 0 0
          0 0 0 0 0 0
          0 0 0 0 0 0
          0 0 0 0 0 0
          0 0 0 0 0 0
          0 0 0 0 0 0
          0 0 0 0 0 0
          0 0 0 0 0 0
          0 0 0 0 0 0
          0 0 0 0 0 0
          0 0 0 0 0 0
          0 0 0 0 0 0
          0 0 0 0 0 0
          0 0 0 0 0 0
          0 0 0 0 0 0
          0 0 0 0 0 0
          0 0 0 0 0 0
          0 0 0 0 0 0
          0 0 0 0 0 0
          0 0 0 0 0 0
          0 0 0 0 0 0
          0 0 0 0 0 0
          0 0 0 0 0 0
          0 0 0 0 0 0
          0 0 0 0 0 0
          0 0 0 0 0 0
          0 0 0 0 0 0
          0 0 0 0 0 0
          0 0 0 0 0 0
          0 0 0 0 0 0
          0 0 0 0 0 0
          0 0 0 0 0
        </DataArray>
        <DataArray type="Float64" Name="gradient_error" format="ascii" RangeMin="7.116300999333272e-10" RangeMax="1.203375061210124e-7">
          8.890666069272493e-10 2.1497596044145212e-8 6.730614096564714e-8 4.4723784419049964e-9 2.3950337662701076e-9 1.6548330772690943e-8
          5.6535765322838824e-8 6.58287661122712e-8 5.2324898961126685e-8 1.1168450365725815e-8 4.975366489506324e-8 3.3479983929453327e-8
          1.6548558174297052e-9 1.8059195964512138e-8 1.9797942167999295e-8 1.0056886079930832e-8 8.390203032477094e-9 4.711939883022632e-9
          1.8325041630559497e-9 2.1841419270914516e-8 5.714420023273669e-8 5.246970765512584e-8 4.024751227001198e-8 5.182808967033007e-8
          6.618152758822697e-8 1.4568721036012152e-8 1.4259099796778827e-8 9.146516788114716e-8 6.373147430547034e-8 1.477335837440216e-9
          8.508461844031764e-8 1.0637428640311848e-7 9.201930840445003e-8 5.701480415392982e-8 1.203375061210124e-7 9.170037197885867e-8
          1.8376450786711605e-8 1.683867542845356e-8 5.1600035103488083e-8 4.704407350504678e-8 1.2128287897358014e-8 4.4216975129541275e-8
          4.000732323265499e-8 1.3104108284711668e-8 3.5188868001460294e-8 5.4429570212873945e-8 4.937538065957816e-8 4.4643220153395737e-8
          6.267618739069575e-8 8.84287997391388e-9 8.072321577543406e-9 3.550165449684461e-8 3.187545538633878e-8 4.922167721489161e-9
          2.638357064114226e-8 2.3507865418729084e-8 4.2534603344853575e-8 3.775492644779668e-8 2.9430369348413538e-8 6.217885023322454e-8
          1.726602575719566e-8 1.6553363739656836e-8 2.020049252065496e-8 1.8740690302754195e-8 4.914176980741485e-8 5.0029399927710886e-8
          1.2633540987505756e-9 2.185326362626869e-9 2.995986445644163e-9 1.5865803292236284e-8 2.2516092023639893e-8 2.016659422739004e-8
          2.3062306406327333e-8 1.993794654515072e-8 4.8607323701991764e-8 2.039259734047608e-9 3.832307453371304e-9 4.501000418528084e-9
          1.9637274666370925e-8 7.358658537106455e-8 5.3608767535561346e-8 5.793227250923082e-8 5.642227538587762e-8 6.474249882802615e-8
          5.221301959556514e-8 2.1987591691657508e-8 1.854834168926869e-8 2.295497707714311e-8 2.262666616168966e-8 2.4516765895883437e-8
          2.412498760863948e-8 2.1644685179432116e-8 2.2922781309472797e-8 1.345218173019449e-8 1.3418722731921663e-8 1.457120196024886e-8
          1.3115638310897264e-8 1.9769082067158287e-8 2.0748940340060998e-8 1.9385527382571924e-8 1.722322770252565e-8 1.8591038125114776e-8
          2.1625323064194407e-8 1.2815257297275013e-9 1.4069574292242402e-9 1.6254656488237269e-9 1.6937604741085052e-9 2.0279464262810785e-9
          2.1415081254049026e-9 7.116300999333272e-10 8.964831964699552e-10 1.1239047621904007e-9 1.2264524481098942e-9 1.3086175470739187e-8
          1.1287931714133042e-8 2.3412400023978894e-8 2.0744521545903696e-8 1.2966789237457592e-8 8.06803387295589e-9 2.3599411607333152e-8
          2.0086085523933787e-8 2.1583319721081485e-8 2.029532705312281e-8 2.3080553918229183e-8 2.3379064341201786e-8 2.276046557124596e-8
          2.3343941699215717e-8 2.1120549035491577e-8 2.4389039223962324e-8 2.363057606325958e-8 2.3536710981648513e-8 2.161751189308478e-8
          1.8856526015013427e-8 1.8991740118814842e-8 1.7613820760333835e-8 1.894626487250802e-8 1.8645375143934472e-8 1.752961886140332e-8
          2.3872011635009904e-8 2.3023841662318064e-8 2.2046567805044902e-8 2.0814410152748937e-8 2.1457584774939477e-8 2.0616978957996075e-8
          1.878553644784615e-8 1.8472993820710204e-8 1.8037591823853187e-8 1.710876116611373e-8 1.6622035031834724e-8 1.5881687671286388e-8
          1.4368769821687108e-8 1.4593760842205033e-8 2.610537466679646e-8 2.5634140501645633e-8 2.7671100230653383e-8 2.7103481458926516e-8
          2.4188466904619423e-8 2.5373862419191108e-8 1.5852724579256796e-8 1.579586065756375e-8 1.7131111765677943e-8 1.539671306432214e-8
          2.9146380899832015e-8 2.844869411113486e-8 3.0363090867340695e-8 2.9527904369685396e-8 2.638663322273577e-8 2.7119640985980336e-8
          1.8742912390478525e-8 1.852977118083709e-8 1.9886292033690514e-8 1.7691519963679243e-8 2.1652713591697582e-8 2.242212013110194e-8
          2.009139971065113e-8 2.0632378111021307e-8 1.9930382246034487e-8 2.1354606761652054e-8 2.4175664201328793e-8 2.2976641049575015e-8
          2.3254241397000215e-8 2.09310229761162e-8 2.0961918694069845e-8 2.2683384085873486e-8 2.379357908043942e-8 2.7516918313804344e-8
          2.0243806444882087e-9 2.0838746546832137e-9 2.4779503087829903e-9 2.5420815446087007e-9 2.3846487631846444e-9 2.7356989648971432e-9
          1.0729076199721252e-9 1.3714872314580672e-9 1.6393217710670778e-9 1.8107097836229137e-9 3.0199254572370596e-9 3.059362455073218e-9
          3.619377889808132e-9 3.6270149286912445e-9 3.1769496804376754e-9 3.673064514089278e-9 1.4590682021081153e-9 1.9250309940331784e-9
          2.2240603080575068e-9 2.5782884640059075e-9 9.256883461294206e-9 1.0045154246521064e-8 1.9779739156995415e-8 2.152442229243355e-8
          2.6485886225290397e-9 2.8120713414512085e-9 1.4564892497563598e-8 1.090182772490758e-8 1.1753500043497286e-8 2.3049455592470373e-8
          2.4408843948688505e-8 3.09981396359648e-9 3.4375738698015625e-9 1.699825399378475e-8 3.1131478599966145e-8 3.018399459236725e-8
          3.132194836237532e-8 3.0292269276434365e-8 2.7468857293906318e-8 2.732922828454469e-8 2.149885159474848e-8 2.1067660880634567e-8
          2.1941556706885737e-8 1.9601583783787166e-8 3.0883258571008364e-8 2.9774028678388686e-8 2.9702453662144404e-8 2.8523832978115062e-8
          2.660793278055108e-8 2.5237662672766704e-8 2.3083852135320967e-8 2.2388046356058422e-8 2.229744893721756e-8 2.032088844675432e-8
          2.319664854917931e-8 2.272439124573018e-8 2.0692093095314325e-8 2.005291611286438e-8 2.4645849248316453e-8 2.5109042383564355e-8
          2.967899782636528e-8 2.1779659566911093e-8 2.034498270683248e-8 1.9008252358489054e-8 1.755985236221728e-8 2.5013981078776938e-8
          2.425487457389467e-8 3.000448067725171e-8 4.231000275080928e-9 4.221487599530861e-9 4.822960719010265e-9 4.815587060952227e-9
          4.191993824447296e-9 4.709978578649923e-9 1.8466501976813924e-9 2.5291626809450546e-9 2.8311986259990603e-9 3.42105608762068e-9
          5.412987994053791e-9 5.368418605973493e-9 5.9318219713306794e-9 5.820159994975975e-9 5.194912749207391e-9 5.622244363179136e-9
          2.2403825751629484e-9 3.118418093406016e-9 3.3779702177169855e-9 4.197794765288911e-9 1.2577740649412086e-8 1.3278827481938899e-8
          2.5544877181767992e-8 2.6327396616902733e-8 3.796643128191276e-9 4.1780793016010344e-9 1.8979412639087497e-8 1.3776591017603532e-8
          1.4006054967759425e-8 2.6600543616949577e-8 2.6217239441015307e-8 4.559698091695831e-9 4.869908981347359e-9 1.993821821552334e-8
          2.0913490720839253e-8 2.2174841458109876e-8 1.921461940449912e-8 2.2937349733355274e-8 2.347089652593416e-8 2.0146059533970367e-8
          2.2308550071314526e-8 2.3588941098202715e-8 2.0483228197884537e-8 2.0961370044795917e-8 2.37036094217898e-8 2.500304073829556e-8
          2.1751836991269952e-8 2.4616649366128882e-8 2.5438801634133902e-8 2.1466178567504636e-8 2.1756684804388292e-8 2.629594899890249e-8
          2.7406706742333647e-8 2.27862976010389e-8 2.3703976655422134e-8 2.3562650412721408e-8 2.0069579117931777e-8 2.3004630277930788e-8
          1.8719558168787266e-8 2.595966152312426e-8 2.6085933943483134e-8 2.1741598149563702e-8 2.137853222077367e-8 2.8215346390826384e-8
          2.860921747424486e-8 2.341361718119563e-8 2.5755779895639782e-8 2.06540494229601e-8 2.8506929513348774e-8 2.258854067713293e-8
          2.767228955000209e-8 2.6485268176433033e-8 2.3238269090806428e-8 2.2380730654192867e-8 2.1550185598958014e-8 1.8939996363217937e-8
          1.8477287641197472e-8 1.5776283903646065e-8 2.292464376399895e-8 6.251725754003178e-9 6.1415860382848255e-9 5.981426149380407e-9
          2.6593061288845134e-9 3.593103430609507e-9 4.710631046271587e-9 1.388330620664648e-8 5.124499926030615e-9 1.9053366134459862e-8
          2.587883082657003e-9 2.572633412195021e-9 2.6306953117408835e-9 2.6856504364175048e-9 2.8068208862602797e-9 2.8742643566340953e-9
          2.9821153618759282e-9 3.0937981137266235e-9 3.0842231743510045e-9 2.9563205654474724e-9 3.0894104565541392e-9 3.2387410323550127e-9
          3.0497207269243144e-9 1.9924430448518706e-9 2.035251546690234e-9 2.185161027119135e-9 1.3085440420151364e-9 2.091683212293613e-9
          2.1292529689079475e-9 2.2183354922390203e-9 2.2508074084545324e-9 2.264827067646878e-9 2.371548421472296e-9 1.4430091981009477e-9
          1.4620261207666178e-9 1.640480093828987e-9 1.5343040528378698e-9 2.424054598812124e-9 2.693815132815551e-9 1.6250510998733971e-9
          2.4942873135809152e-9 2.5874416688618773e-9 2.775871251170365e-9 2.8743740532569024e-9 1.7118951238830824e-9 1.835420329321031e-9
          2.0684992869094878e-9 9.1533823903486e-10 9.4988775192437e-10 1.0375042246847564e-9 7.65307430541932e-10 1.0373340256024946e-9
          1.0779454605649538e-9 1.1642083446474867e-9 1.2110628022410058e-9 1.1767828220563566e-9 1.3241746311695436e-9 7.993826673952981e-10
          8.596493056716833e-10 9.571297973155976e-10 1.0077907874704487e-9 1.1581891405170814e-9 1.4229744034310346e-9 1.0401209222775216e-9
          1.297434057814439e-9 1.4534861500711145e-9 1.5036375173287953e-9 1.6212121288356174e-9 1.1775371331486143e-9 1.317216865497298e-9
          1.3377957888283397e-9 2.8800174634146342e-9 2.9282518531127413e-9 2.5220470372302763e-9 2.990097992160628e-9 3.115184359267957e-9
          3.0541966993708822e-9 3.196686431471316e-9 2.5711407135221974e-9 2.633414075899138e-9 2.841508038748133e-9 3.4227220633569752e-9
          2.0403927442984168e-9 2.4606437782132938e-9 1.840405775518077e-9 2.054681040592044e-9 2.0815674775565513e-9 2.461946413570076e-9
          2.7044971723010865e-9 1.857866181906809e-9 1.8879344894957276e-9 2.299549421461338e-9 3.2923697754845957e-9 3.3457500242250004e-9
          3.162017487612216e-9 2.726860584627148e-9 2.777904916567705e-9 2.9108579946213625e-9 2.96870961155455e-9 3.0460771209356967e-9
          3.074147238323752e-9 3.253041986898637e-9 3.228988481989762e-9 3.210045063457401e-9 3.335961702522964e-9 3.381660592423249e-9
          3.4747175917384665e-9 3.631138890888012e-9 3.6955896774924093e-9 3.4000047791574405e-9 3.4360803162690694e-9 3.6291130084648546e-9
          3.5877592229633566e-9 3.786759018491204e-9 3.84126127875606e-9 4.080693837309602e-9 4.013414507009903e-9 3.808496110185356e-9
          4.0062512953527325e-9 4.036640574729519e-9 4.220450960779615e-9 4.449624112857817e-9 4.430125426772662e-9 3.3889893059846216e-9
          3.5500469946640577e-9 3.3262775794367096e-9 3.725293402245901e-9 3.909201155012323e-9 3.6530830247161994e-9 4.09805691474432e-9
          4.290609362628933e-9 4.036462307854302e-9 4.485226358118772e-9 4.678808029923859e-9 4.420038309252561e-9 2.3741077322641946e-9
          2.401250981319201e-9 2.5546253748421707e-9 2.577402340387267e-9 2.506741356468286e-9 2.6693770899868394e-9 1.8202756374405868e-9
          1.8351686734144656e-9 2.042032868522469e-9 1.878882471467745e-9 2.753992223147511e-9 2.7743970981942823e-9 2.9683714150310023e-9
          2.987832606197471e-9 2.8568650249956345e-9 3.0651275393856752e-9 2.241365850064209e-9 2.2617947894820666e-9 2.4982814922163047e-9
          2.3053756819245527e-9 2.704101521377511e-9 2.8444965268494944e-9 2.9882438957498823e-9 3.1170272878614652e-9 1.990054138930225e-9
          2.1706728874120937e-9 2.2479487405906376e-9 3.007681421060369e-9 3.1940716010390758e-9 3.2593522058995127e-9 3.4185440505182445e-9
          2.3748264097982065e-9 2.5998342829479614e-9 2.547815055405259e-9 1.2996847507115307e-9 1.3515835566195678e-9 1.4430911626933293e-9
          1.5002570272495886e-9 1.4790481332045346e-9 1.6421941219665061e-9 9.801731064431287e-10 1.0574268124809e-9 1.16039500360741e-9
          1.2451044248556007e-9 1.5940747401175499e-9 1.6574425891855232e-9 1.753941972411223e-9 1.8239923322935711e-9 1.814497340993079e-9
          1.9962160471158457e-9 1.1673251054660068e-9 1.2659425574717255e-9 1.3740449056508375e-9 1.5029848861385594e-9 1.621779843160818e-9
          1.8007265332672494e-9 1.7687251260266143e-9 1.941497044583143e-9 1.4616093877588057e-9 1.6131386428863353e-9 1.6363799699484687e-9
          1.990407170507074e-9 2.1899718240615597e-9 2.1338836937389e-9 2.3399642849162254e-9 1.7718067718000072e-9 1.937279393417337e-9
          1.9952520109738982e-9 3.1954050847497636e-9 3.2147378018342318e-9 3.43852838997664e-9 3.457279398066658e-9 3.2900784526244888e-9
          3.530219269230277e-9 2.738492755570096e-9 2.7547447660976314e-9 3.029977855109139e-9 2.7935917253391447e-9 3.699787178819377e-9
          3.716820128607397e-9 3.979644764034517e-9 3.993979571120704e-9 3.784515085108109e-9 4.053375398189017e-9 3.315505087660885e-9
          3.3196818610742978e-9 3.6189106004395804e-9 3.3380390091680512e-9 3.4018326217270287e-9 3.6272840581310154e-9 3.59768184649345e-9
          3.796772579749329e-9 2.8411814451852976e-9 3.0952272939159255e-9 2.946626727764409e-9 3.8669369330464e-9 4.119049678026134e-9
          4.012634522115483e-9 4.2402690308122015e-9 3.360228459230237e-9 3.6346737011259977e-9 3.4207434940066192e-9 1.9234798772917597e-9
          2.0003221397239967e-9 2.1019822709421407e-9 2.185764976162078e-9 2.187472791033523e-9 2.3880237841915505e-9 1.360779633785415e-9
          1.4845500346521251e-9 1.5970200297743404e-9 1.780159813674376e-9 2.287772357742368e-9 2.3788379956896944e-9 2.478742642648636e-9
          2.5776660562690875e-9 2.5968696050420697e-9 2.812412839360355e-9 1.557349879310517e-9 1.7106912476895286e-9 1.8247762165908203e-9
          2.0732768549543527e-9 2.3981039986620125e-9 2.614339562637463e-9 2.55663227847401e-9 2.7829640201771666e-9 2.109014240222131e-9
          2.2865413583523717e-9 2.3787342196765834e-9 2.838128019885293e-9 3.0682870652601764e-9 3.015644586112003e-9 3.2518788922927684e-9
          2.4692220266232957e-9 2.655701971462808e-9 2.784945801669072e-9 3.2507499367264463e-9 3.3938046865697383e-9 3.348126642145783e-9
          3.503972977074218e-9 2.7208239629042113e-9 2.8322300494200627e-9 3.1383029924844098e-9 3.5398420073366522e-9 3.693141927154251e-9
          3.6574143682448004e-9 3.8143776739427535e-9 2.952828295059295e-9 3.088033143400653e-9 3.326945611120384e-9 3.432714408089661e-9
          3.465277255510825e-9 3.486830816606997e-9 3.563091736603249e-9 3.712830281831751e-9 3.6076499677559526e-9 2.125727057286005e-9
          2.2167533433890882e-9 2.8291109220889656e-9 2.8622969929459437e-9 1.922316756231857e-9 2.00660896641347e-9 2.6357552078787433e-9
          2.3539422264110797e-9 2.5201086504692396e-9 2.936690264093934e-9 3.0368457026664314e-9 2.156618475130971e-9 2.3412337134333512e-9
          2.7138349673939926e-9 3.323057158451591e-9 3.394787830804234e-9 3.3908421176842055e-9 3.4899819877358044e-9 3.2133999088135222e-9
          3.324298406097642e-9 3.2948534187614145e-9 3.4973898136535023e-9 3.6240627315409717e-9 3.6341462617449828e-9 3.816277034922456e-9
          3.4316878907037567e-9 3.5352951812501925e-9 3.660642555734014e-9 3.857816253563891e-9 4.035472261242805e-9 3.977847671264664e-9
          4.147559346945104e-9 3.2492989105800946e-9 3.433549898440732e-9 3.5622471554529827e-9 4.2266736200033015e-9 4.426979232275179e-9
          4.326774970047636e-9 4.5130833408070775e-9 3.6361582052926037e-9 3.852757235960196e-9 3.8709963472414685e-9 3.863294772640128e-9
          4.020798185486267e-9 3.982889242818994e-9 4.189736202674441e-9 4.366277578954192e-9 4.36461727799258e-9 2.7105754292632526e-9
          2.916641671165457e-9 3.16399792427764e-9 3.312986546863868e-9 2.5401286297497786e-9 2.746518705306127e-9 2.9442416327133197e-9
          3.132026344110048e-9 3.3542828339220704e-9 3.4780196148565698e-9 3.6555977424732236e-9 2.9598571595227196e-9 3.178201630550245e-9
          3.2663005242722915e-9 3.760461538853046e-9 3.909419705072381e-9 3.999240348142508e-9 4.182400856667448e-9 3.657628305065963e-9
          3.798041224658495e-9 4.0155914534660214e-9 4.06940600962495e-9 4.236871121216919e-9 4.3679567688563175e-9 4.555692562435175e-9
          3.9490758165754575e-9 4.107464663479646e-9 4.371296259720054e-9 4.295948068649204e-9 4.351801485276595e-9 4.653165155190852e-9
          4.5146586436795235e-9 4.951746797959612e-9 4.977071568299933e-9 5.2963880286819645e-9 5.072217908009736e-9 4.691826114030901e-9
          4.940725205762153e-9 4.859948764711758e-9 5.1873938487365985e-9 5.42955347163753e-9 5.2959429762998196e-9 5.602370140134273e-9
          5.582194191203645e-9 5.833184596602064e-9 5.600577969852926e-9 6.077326417531065e-9 6.061763584725331e-9 6.29130571005222e-9
          6.087054977970575e-9 5.669016905325392e-9 5.907930298782503e-9 5.70903899343606e-9 6.138878812167128e-9 6.3464360651521996e-9
          6.06045014867948e-9 4.8663434828697015e-9 5.048284981130367e-9 4.774779278922628e-9 5.222791560339651e-9 5.384981414071661e-9
          5.086445388173641e-9 5.525798970854981e-9 5.632023332914219e-9 5.332416068055795e-9 5.694774815331446e-9 5.7087437595206655e-9
          5.418497753616633e-9 4.277078591436262e-9 4.287642157684319e-9 4.588809861336003e-9 4.593905743539088e-9 4.335381940123059e-9
          4.6255003878605214e-9 3.926417403346412e-9 3.92275503146259e-9 4.2265117974044605e-9 3.92269713419306e-9 4.909287340619329e-9
          4.906599803188821e-9 5.2254221565684884e-9 5.214222313014825e-9 4.916876150533239e-9 5.2015226187971004e-9 4.528777111635086e-9
          4.526796249502681e-9 4.824601142849369e-9 4.5203174245537005e-9 4.380735125099431e-9 4.6465396605360996e-9 4.47470405536772e-9
          4.711743552668584e-9 3.9158073597128035e-9 4.200071650786473e-9 3.931049225198114e-9 4.9102373668411774e-9 5.168150619602551e-9
          4.9465551987900085e-9 5.176406557862363e-9 4.4839700200756794e-9 4.762559246910871e-9 4.45287165701389e-9 2.6729034432817177e-9
          2.780356420116674e-9 2.868894324872903e-9 2.9853277034132154e-9 3.032834253207475e-9 3.2561556715692183e-9 1.7511811940939318e-9
          1.93868560740021e-9 2.0522781439048337e-9 2.376379474595424e-9 3.066493930568303e-9 3.191640759339938e-9 3.2657009256960686e-9