<?xml version="1.0"?>
<VTKFile type="UnstructuredGrid" version="0.1" byte_order="LittleEndian" header_type="UInt32" compressor="vtkZLibDataCompressor">
  <UnstructuredGrid>
    <Piece NumberOfPoints="1080" NumberOfCells="724">
      <PointData>
        <DataArray type="Int32" Name="libmesh_node_id" format="ascii" RangeMin="1359" RangeMax="10742">
          1359 1370 1378 1546 1577 1579
          1580 1583 1584 1585 1587 1589
          1605 1607 1611 1612 1708 1711
          1715 1718 1720 1721 2202 2203
          2204 2208 2216 2217 2218 2222
          2223 2224 2225 2226 2227 2228
          2229 2230 2231 2232 2237 2238
          2247 2252 2253 2254 2255 2256
          2257 2258 2259 2260 2261 2262
          2263 2264 2265 2266 2267 2269
          2318 2319 2320 2321 2322 2323
          2324 2325 2326 2328 2329 2330
          2331 2332 2333 2334 2335 2336
          2337 2559 2560 2561 2562 2563
          2564 2565 2594 2596 3465 3473
          3474 3475 3478 3511 3512 3513
          3516 3519 3520 3523 3525 3527
          3528 3529 3530 3531 3532 3533
          3534 3535 3536 3560 3566 3567
          3570 3600 3601 3604 3627 3628
          3631 3664 3665 3668 3677 3679
          3681 3683 3684 3685 3686 3687
          3688 3689 3692 3693 3696 3698
          3700 3701 3702 3703 3704 3705
          3706 3707 3708 3709 3711 3713
          3715 3717 3718 3719 3720 3721
          3722 3723 3725 3727 3729 3731
          3732 3733 3734 3735 3736 3737
          3738 3739 3740 3741 3742 3743
          3744 3745 3746 3747 3748 3749
          3750 3752 3753 3754 3755 3757
          3758 3759 3760 3761 3762 3763
          3764 3765 3766 3767 3768 3769
          3770 3771 3772 3773 3774 3775
          3776 3777 3778 3779 3780 3781
          3782 3783 3784 3785 3787 3789
          3791 3792 3793 3794 3795 3796
          3797 3798 3799 3801 3802 3803
          3805 4026 4027 4030 4032 4035
          4037 4039 4041 4042 4043 4044
          4045 4046 4047 4048 4049 4050
          4051 4052 4053 4054 4055 4056
          4057 4058 4059 4060 4164 4262
          4263 4264 4267 4268 4271 4272
          4273 4274 4275 4276 4277 4278
          4313 4314 4315 4316 4317 4318
          4319 4330 4331 4332 4333 4334
          4335 4336 4337 4338 4339 4340
          4341 4342 4343 4344 4345 4346
          4347 4348 4349 4350 4351 4352
          4353 4354 4355 4356 4357 4358
          4359 4360 4361 4362 4363 4364
          4365 4366 4367 7503 7531 7532
          7533 7536 7546 7648 7661 7662
          7665 7667 7669 7670 7671 7672
          7673 7674 7675 7676 7677 7678
          7839 7867 7887 7888 7891 7894
          7895 7898 7915 7916 7919 7922
          7923 7926 8087 8135 8136 8139
          8142 8143 8146 8163 8164 8167
          8170 8171 8174 8334 8335 8338
          8343 8344 8345 8348 8365 8366
          8369 8372 8373 8376 8597 8598
          8601 8604 8605 8608 8625 8626
          8629 8632 8633 8636 8701 8703
          8705 8719 8720 8723 8725 8735
          8737 8739 8749 8751 8753 8755
          8756 8757 8758 8759 8760 8761
          8762 8763 8764 8765 8766 8767
          8768 8769 8770 8771 8772 8773
          8774 8775 8776 8777 8778 8779
          8780 8781 8782 8783 8784 8785
          8786 8787 8788 8789 8790 8791
          8792 8793 8794 8795 8796 8797
          8798 8799 8800 8801 8802 8803
          8804 8805 8806 8807 8808 8809
          8810 8811 8812 8813 8814 8815
          8816 8817 8818 8819 8832 8833
          8836 8838 8858 8860 8862 8873
          8874 8877 8879 8881 8882 8883
          8884 8885 8886 8887 8888 8889
          8890 8891 8892 8893 8894 8895
          8896 8897 8898 8899 8900 8901
          8902 8903 8904 8905 8906 8907
          8908 8909 8910 8911 8912 8913
          8914 8915 8916 8917 8918 8919
          8920 8921 8922 8923 8924 8925
          8926 8927 8928 8929 8930 8931
          8932 8933 8934 8943 8945 8957
          8959 8961 8973 8985 8987 8989
          8991 8992 8993 8994 8995 8996
          8997 8998 8999 9000 9001 9002
          9003 9004 9005 9006 9007 9008
          9009 9010 9011 9012 9013 9014
          9015 9016 9017 9018 9019 9020
          9021 9022 9023 9024 9025 9026
          9027 9028 9029 9030 9031 9032
          9033 9034 9035 9036 9037 9038
          9039 9040 9041 9042 9043 9044
          9045 9046 9055 9057 9059 9069
          9071 9073 9083 9085 9087 9097
          9099 9101 9103 9104 9105 9106
          9107 9108 9109 9110 9111 9112
          9113 9114 9115 9116 9117 9118
          9119 9120 9121 9122 9123 9124
          9125 9126 9127 9128 9129 9130
          9131 9132 9133 9134 9135 9136
          9137 9138 9139 9140 9141 9142
          9143 9144 9145 9146 9147 9148
          9149 9150 9151 9152 9153 9154
          9155 9156 9157 9158 9159 9160
          9161 9162 9163 9164 9165 9166
          9167 9168 9169 9170 9171 9172
          9173 9174 9175 9176 9177 9178
          9179 9180 9181 9182 9183 9184
          9185 9186 9187 9188 9189 9190
          9191 9192 9193 9194 9195 9196
          9197 9198 9199 9200 9201 9202
          9203 9204 9205 9206 9207 9208
          9209 9210 9211 9212 9213 9214
          9215 9216 9217 9218 9219 9220
          9221 9222 9223 9224 9225 9226
          9231 9232 9233 9236 9247 9248
          9249 9250 9251 9252 9253 9254
          9255 9256 9259 9260 9263 9271
          9272 9273 9274 9275 9276 9277
          9282 9283 9284 9287 9288 9289
          9290 9291 9292 9293 9294 9295
          9296 9297 9298 9299 9300 9301
          9302 9303 9304 9305 9306 9307
          9308 9309 9310 9311 9312 9313
          9314 9315 9316 9317 9318 9319
          9320 9321 9322 9323 9324 9325
          9326 9327 9328 9329 9330 9331
          9332 9333 9334 9335 9336 9337
          9338 9339 9340 9341 9342 9343
          9344 9345 9346 9347 9348 9349
          9350 9351 9352 9353 9354 9355
          9356 9357 9358 9359 9360 9361
          9362 9363 9364 9365 9366 9367
          9368 9369 9370 9371 9372 9373
          9374 9375 9376 9377 9378 9379
          9380 9381 9382 9383 9384 9385
          9386 9387 9388 9389 9390 9391
          9392 9393 9394 9395 9396 9397
          9398 9399 9400 9401 9402 9403
          9404 9405 9406 9407 9408 9409
          9410 9413 9414 9417 9425 9426
          9427 9428 9429 9430 9431 9434
          9438 9441 9442 9445 9453 9454
          9455 9456 9457 9458 9459 9462
          9466 9467 9468 9469 9470 9471
          9472 9473 9474 9475 9476 9477
          9478 9479 9480 9481 9482 9483
          9484 9485 9486 9487 9488 9489
          9490 9491 9492 9493 9494 9495
          9496 9497 9498 9499 9500 9501
          9502 9503 9504 9505 9506 9507
          9508 9509 9510 9511 9512 9513
          9514 9515 9516 9517 9518 9519
          9520 9521 9522 9523 9524 9525
          9526 9527 9528 9529 9530 9532
          9534 9536 9537 9538 9539 9540
          9541 9542 9543 9544 9545 9546
          9547 9548 9551 9552 9554 9556
          9557 9558 9559 9560 9561 9562
          9563 9564 9566 9568 9570 9571
          9572 9573 9574 9575 9576 9577
          9578 9580 9582 9584 10642 10652
          10654 10656 10666 10668 10670 10682
          10683 10684 10685 10686 10687 10688
          10689 10690 10691 10692 10693 10694
          10695 10696 10697 10698 10699 10700
          10701 10702 10703 10704 10705 10706
          10707 10708 10709 10710 10711 10712
          10713 10714 10715 10716 10717 10718
          10719 10720 10721 10722 10723 10724
          10725 10726 10727 10728 10729 10730
          10731 10732 10733 10734 10735 10736
          10737 10738 10739 10740 10741 10742
        </DataArray>
        <DataArray type="Float64" Name="bounds" format="ascii" RangeMin="0" RangeMax="0">
          0 0 0 0 0 0
          0 0 0 0 0 0
          0 0 0 0 0 0
          0 0 0 0 0 0
          0 0 0 0 0 0
          0 0 0 0 0 0
          0 0 0 0 0 0
          0 0 0 0 0 0
          0 0 0 0 0 0
          0 0 0 0 0 0
          0 0 0 0 0 0
          0 0 0 0 0 0
          0 0 0 0 0 0
          0 0 0 0 0 0
          0 0 0 0 0 0
          0 0 0 0 0 0
          0 0 0 0 0 0
          0 0 0 0 0 0
          0 0 0 0 0 0
          0 0 0 0 0 0
          0 0 0 0 0 0
          0 0 0 0 0 0
          0 0 0 0 0 0
          0 0 0 0 0 0
          0 0 0 0 0 0
          0 0 0 0 0 0
          0 0 0 0 0 0
          0 0 0 0 0 0
          0 0 0 0 0 0
          0 0 0 0 0 0
          0 0 0 0 0 0
          0 0 0 0 0 0
          0 0 0 0 0 0
          0 0 0 0 0 0
          0 0 0 0 0 0
          0 0 0 0 0 0
          0 0 0 0 0 0
          0 0 0 0 0 0
          0 0 0 0 0 0
          0 0 0 0 0 0
          0 0 0 0 0 0
          0 0 0 0 0 0
          0 0 0 0 0 0
          0 0 0 0 0 0
          0 0 0 0 0 0
          0 0 0 0 0 0
          0 0 0 0 0 0
          0 0 0 0 0 0
          0 0 0 0 0 0
          0 0 0 0 0 0
          0 0 0 0 0 0
          0 0 0 0 0 0
          0 0 0 0 0 0
          0 0 0 0 0 0
          0 0 0 0 0 0
          0 0 0 0 0 0
          0 0 0 0 0 0
          0 0 0 0 0 0
          0 0 0 0 0 0
          0 0 0 0 0 0
          0 0 0 0 0 0
          0 0 0 0 0 0
          0 0 0 0 0 0
          0 0 0 0 0 0
          0 0 0 0 0 0
          0 0 0 0 0 0
          0 0 0 0 0 0
          0 0 0 0 0 0
          0 0 0 0 0 0
          0 0 0 0 0 0
          0 0 0 0 0 0
          0 0 0 0 0 0
          0 0 0 0 0 0
          0 0 0 0 0 0
          0 0 0 0 0 0
          0 0 0 0 0 0
          0 0 0 0 0 0
          0 0 0 0 0 0
          0 0 0 0 0 0
          0 0 0 0 0 0
          0 0 0 0 0 0
          0 0 0 0 0 0
          0 0 0 0 0 0
          0 0 0 0 0 0
          0 0 0 0 0 0
          0 0 0 0 0 0
          0 0 0 0 0 0
          0 0 0 0 0 0
          0 0 0 0 0 0
          0 0 0 0 0 0
          0 0 0 0 0 0
          0 0 0 0 0 0
          0 0 0 0 0 0
          0 0 0 0 0 0
          0 0 0 0 0 0
          0 0 0 0 0 0
          0 0 0 0 0 0
          0 0 0 0 0 0
          0 0 0 0 0 0
          0 0 0 0 0 0
          0 0 0 0 0 0
          0 0 0 0 0 0
          0 0 0 0 0 0
          0 0 0 0 0 0
          0 0 0 0 0 0
          0 0 0 0 0 0
          0 0 0 0 0 0
          0 0 0 0 0 0
          0 0 0 0 0 0
          0 0 0 0 0 0
          0 0 0 0 0 0
          0 0 0 0 0 0
          0 0 0 0 0 0
          0 0 0 0 0 0
          0 0 0 0 0 0
          0 0 0 0 0 0
          0 0 0 0 0 0
          0 0 0 0 0 0
          0 0 0 0 0 0
          0 0 0 0 0 0
          0 0 0 0 0 0
          0 0 0 0 0 0
          0 0 0 0 0 0
          0 0 0 0 0 0
          0 0 0 0 0 0
          0 0 0 0 0 0
          0 0 0 0 0 0
          0 0 0 0 0 0
          0 0 0 0 0 0
          0 0 0 0 0 0
          0 0 0 0 0 0
          0 0 0 0 0 0
          0 0 0 0 0 0
          0 0 0 0 0 0
          0 0 0 0 0 0
          0 0 0 0 0 0
          0 0 0 0 0 0
          0 0 0 0 0 0
          0 0 0 0 0 0
          0 0 0 0 0 0
          0 0 0 0 0 0
          0 0 0 0 0 0
          0 0 0 0 0 0
          0 0 0 0 0 0
          0 0 0 0 0 0
          0 0 0 0 0 0
          0 0 0 0 0 0
          0 0 0 0 0 0
          0 0 0 0 0 0
          0 0 0 0 0 0
          0 0 0 0 0 0
          0 0 0 0 0 0
          0 0 0 0 0 0
          0 0 0 0 0 0
          0 0 0 0 0 0
          0 0 0 0 0 0
          0 0 0 0 0 0
          0 0 0 0 0 0
          0 0 0 0 0 0
          0 0 0 0 0 0
          0 0 0 0 0 0
          0 0 0 0 0 0
          0 0 0 0 0 0
          0 0 0 0 0 0
          0 0 0 0 0 0
          0 0 0 0 0 0
          0 0 0 0 0 0
          0 0 0 0 0 0
          0 0 0 0 0 0
          0 0 0 0 0 0
          0 0 0 0 0 0
          0 0 0 0 0 0
          0 0 0 0 0 0
          0 0 0 0 0 0
          0 0 0 0 0 0
          0 0 0 0 0 0
          0 0 0 0 0 0
          0 0 0 0 0 0
          0 0 0 0 0 0
          0 0 0 0 0 0
        </DataArray>
        <DataArray type="Float64" Name="gradient_error" format="ascii" RangeMin="3.6790187917691797e-13" RangeMax="7.210630140447938e-10">
          1.028199798670524e-10 4.555801315646017e-12 1.3441276223174138e-12 2.3256539975373968e-10 4.6014527853514425e-11 1.2581493001749593e-11
          7.418915464175216e-12 2.1957146671534193e-11 9.147748824430826e-12 2.707280739151201e-12 3.437945500334245e-10 7.705105855328874e-12
          1.1650943908443758e-11 3.0101648584204633e-12 1.5617862613579718e-11 3.982274338361326e-12 1.4574839719588297e-10 8.439774748374034e-11
          3.9967568027535256e-11 8.567148098517053e-12 2.1922437655093274e-11 6.127328098485223e-12 6.781320657540965e-11 4.826199517954707e-11
          1.5081070651776044e-11 2.4810157665236927e-11 6.925612765934368e-12 4.511867111435317e-12 1.393601725521867e-12 5.433174850064097e-12
          3.8041621326530934e-11 2.515262622250521e-11 1.3045462454743201e-11 8.43116978359426e-12 1.828278006083179e-11 2.1742630301240742e-11
          7.466158720138856e-12 2.5342033446183986e-11 7.608850392542539e-12 2.8510114459736918e-11 3.0401645477360106e-10 1.0418917638278828e-10
          2.900076662384904e-11 1.0325344010784164e-10 7.031709138382654e-11 2.2896830050149613e-11 1.3700993984456404e-11 5.8457288389676225e-12
          1.9453376261330005e-10 6.760256606676498e-11 2.3941350156496278e-11 3.984142611140338e-12 6.181883355052291e-12 2.205923034415373e-12
          1.3735797596135976e-12 3.884376746699644e-12 4.0286401204117606e-12 2.3300887080169213e-12 1.9129175164110435e-11 3.2393654902531103e-12
          2.6158774032839603e-11 2.518532594706631e-11 8.969748620193452e-12 1.2446445283819549e-11 2.0653558553918967e-11 1.9614110578710195e-11
          1.4066225788795425e-11 2.953747585827246e-11 1.7397438578931258e-11 3.595853691638012e-12 4.7150769328099574e-12 2.368262552820209e-12
          2.160737479075584e-12 2.9481197354526513e-12 6.0566751007456754e-12 1.6333038012392152e-12 5.301746595658609e-12 1.409333468812972e-12
          7.95718949971921e-12 4.273902783209876e-12 3.3481688986695733e-12 1.4409148899580203e-12 1.6709493257951141e-12 2.2322471516962735e-12
          2.946711488305322e-12 1.8742990931913803e-12 1.9522719460763693e-11 6.779003070805235e-12 1.860437492121966e-11 1.54096705628417e-11
          1.3884282507126767e-11 1.106470728576258e-11 1.704325210112691e-11 4.0819313018847404e-12 7.278838092318805e-12 5.224892903104993e-12
          7.942493452967892e-12 1.9074494009167793e-11 2.4090627704637557e-11 2.6310857593762846e-11 2.5298849711430315e-11 1.0196748619721377e-11
          1.6870653909702475e-11 5.366440503868956e-12 1.2876309556283764e-11 6.883734733796987e-12 1.4640204749411675e-11 7.967002827777072e-12
          1.7499056262331493e-11 1.3080767112623158e-11 1.406296420904782e-11 9.159075528986124e-11 5.290760612322815e-11 2.91825628427127e-11
          1.8281406446866128e-10 4.5148069100256265e-10 2.6657231399295053e-10 5.724374902723005e-10 1.537536886572335e-11 7.73979166146705e-12
          5.638280408877895e-11 1.4835844176269983e-10 7.79888456517128e-11 1.940800781360537e-10 5.0991954350793384e-11 2.5474942821140934e-11
          1.5535078718473702e-10 2.9220371614670816e-11 1.6017443065005084e-11 1.4468148948687228e-11 7.8787393135674e-12 9.201204017158133e-11
          5.186627253890339e-11 4.105891516392142e-11 2.229200185608178e-11 1.9708413808873054e-11 2.0131025310989518e-11 2.8892308470148746e-11
          1.2661143801555333e-11 1.1173865547684906e-11 6.778162290121835e-12 6.00384997670861e-12 1.3417396220015367e-11 1.4679243651907733e-11
          7.997656943358495e-12 1.6613840153567678e-11 9.156883316244791e-12 1.0688525730336044e-11 3.542774470557678e-10 1.4922955257077368e-10
          4.600210190909243e-10 2.1679804462066525e-10 1.2554518264560802e-10 8.93855830082986e-11 5.0923971490415896e-11 2.8528138626173197e-10
          1.6705694516889408e-10 1.1767029932652706e-10 5.592677223746357e-11 1.9408952665304375e-11 7.12977952890818e-11 3.286764967040606e-11
          1.8451217350165147e-11 1.1180892509548206e-11 6.1682481253077934e-12 4.224114326531659e-11 2.3871151339354545e-11 1.3879930803478007e-11
          6.902398941063104e-12 8.395450490683714e-12 3.4434725254158904e-12 4.204310465033002e-12 4.987575670056987e-12 4.989268999849763e-12
          3.4296631963467754e-12 2.784324260958428e-11 1.423551837881832e-11 1.2184674018567914e-11 2.124053622637083e-12 2.403825553249916e-12
          1.4615164305847161e-12 2.4848107976626742e-12 2.082930855373807e-12 1.4274559117938442e-12 6.927006565225008e-12 2.986082996687883e-12
          4.486997290899882e-12 4.094766300319472e-12 4.022630028296107e-12 3.630828400551809e-12 3.776994784027081e-12 4.0836523753676685e-12
          3.0108705949667037e-12 4.827914446997125e-12 2.9164752721729735e-12 3.831761640009631e-12 2.455517443604889e-12 2.36421330387898e-12
          1.1765938612915107e-12 1.1137664914255431e-12 1.6291633999724355e-12 2.7576354813611883e-12 1.3133508552317489e-12 1.9371201036830647e-12
          1.158312765390078e-12 2.4657984678784396e-12 6.888750134992819e-11 3.584038338938093e-11 2.7597140148333398e-11 1.4221991573204526e-11
          9.253163637038278e-11 4.852299185944136e-11 3.6896759197771427e-11 1.768456203772672e-11 6.967819826057273e-12 2.4102319863626992e-11
          9.418252626452558e-12 9.881943694347792e-12 5.032411137631857e-12 4.003332421271052e-12 3.4327512211164724e-12 1.2863231259831886e-11
          6.593691819633048e-12 4.085778897002518e-12 2.4363157101130025e-12 2.3165899386784944e-12 1.3754309616710213e-12 3.2080834206533005e-12
          2.8416038165207518e-12 1.2018871559854841e-11 1.3625354183559002e-11 1.1149492111433748e-11 1.5877823989186825e-11 1.949055942861289e-11
          2.4209742621435626e-11 2.256276296767876e-11 1.213538686844452e-11 1.1087452584950195e-11 6.626208874061662e-12 5.893480173104121e-12
          1.1476178719127246e-11 1.759110800213095e-11 9.310815956676156e-12 1.291213728062024e-11 6.832561856098865e-12 2.0279626349457175e-11
          4.28994867768011e-12 3.93137924619794e-12 3.609888559231436e-12 3.5306173973809166e-12 3.2590691459418572e-12 4.735763427231749e-12
          2.3866357818689704e-12 3.5024462172758716e-12 3.053200605542411e-12 5.42588134834645e-12 2.117989842992733e-12 1.134144107772287e-12
          2.6623183235133773e-12 1.2817910754194746e-12 8.047569372199763e-12 1.4727372411970818e-11 9.951103942308242e-12 4.555238601766275e-12
          8.341476574631417e-12 2.528896928619275e-12 4.516458352289147e-12 3.533281521593859e-12 5.687513091937688e-12 3.1200621602644244e-12
          7.009546796007778e-12 1.1058192187247628e-11 4.03272285516023e-12 6.194873806508771e-12 4.517606499764445e-12 6.283687141607106e-12
          3.620193280755117e-12 2.1886173846372973e-12 3.2313569395198433e-12 1.5812666211241203e-12 2.193819839741776e-12 1.514852360181247e-12
          1.9936725729739566e-12 1.4608620635377468e-12 2.052823984153946e-12 2.463757947707599e-12 1.005315230448694e-12 1.2123739125806019e-12
          1.228695597912575e-12 1.278120964239134e-12 6.921357119493724e-13 2.8746919112612522e-12 1.41943259471251e-12 1.327546330565693e-12
          3.028141699476349e-12 6.926989977386967e-12 1.6832519352489627e-12 3.539673067625298e-12 2.17932606995619e-12 4.234808376314634e-12
          2.4881104978549206e-12 8.994580410726545e-13 1.7466949727823075e-12 4.517664079501376e-13 8.221558034655948e-13 7.868868905747201e-13
          1.29591866523234e-12 6.164465627261791e-13 1.4090134810348689e-12 2.3202728855365485e-12 1.0675733810104464e-12 1.5709000947031877e-12
          1.0945993276016416e-12 1.6471747005567132e-12 1.181224231077947e-12 1.2588952747669834e-11 6.5910252948203515e-12 9.37118922352388e-12
          7.440396451549707e-12 1.8618898852359076e-11 1.1524574063612517e-11 6.004423613009955e-12 7.207705025255391e-12 9.963052646012988e-12
          8.70304662885237e-12 1.9239117514450626e-11 5.600476627295672e-12 7.404044880239454e-12 5.0212703165890674e-12 6.3077987109568484e-12
          5.167398485678078e-12 6.490232062354248e-12 5.597821103555574e-12 1.4385961863059471e-11 1.2293888525396543e-11 1.241673416300645e-11
          4.819963129993052e-11 1.7005405601112246e-10 3.666429308228961e-11 2.7565939999698367e-11 7.002421913389052e-11 2.039420141561654e-11
          1.4915470841809387e-11 3.951982515707067e-11 1.3128008760903467e-10 1.0008031474536725e-10 2.3737254675861844e-10 7.535637643428385e-11
          5.605248848267e-11 1.3892111927081589e-10 5.024438908846239e-10 3.970711671231683e-10 3.091601087737643e-10 5.741762389981659e-10
          2.3723836497274073e-10 1.7948301028781114e-10 3.4955067650236716e-10 6.896321863748246e-10 5.46054412568366e-10 7.210630140447938e-10
          4.254958572214765e-10 3.2639952989655776e-10 4.4714892160835473e-10 1.0823552059232573e-11 7.771304277504458e-12 2.1303787636262883e-11
          3.6308892653675723e-12 5.495324955099676e-12 3.843428326658871e-12 1.0971857464382832e-11 4.119384037348453e-11 2.991387323834127e-11
          7.713671793566525e-11 2.1464955296900655e-11 1.521985449776352e-11 4.069330462423954e-11 1.3391401222237243e-10 9.855697953357028e-11
          2.0031137213623132e-10 7.156034843157537e-11 5.126579804290834e-11 1.0832573346855261e-10 2.465783480825431e-10 1.835099527905988e-10
          2.60270712730788e-10 1.3458359840145227e-10 9.728438579904621e-11 1.4259577379033841e-10 3.719982687853833e-11 2.7885582084547664e-11
          6.932353639423849e-11 1.4321272556354912e-11 2.03186135172414e-11 1.4466434670043919e-11 3.6509430219030575e-11 1.2610960619919224e-10
          9.072781195342256e-11 2.209562124519094e-10 6.345592563285054e-11 4.3245501081282606e-11 1.0595443590489317e-10 2.8239718389273248e-11
          2.117234297875398e-11 2.1092483491432817e-11 1.576736460420349e-11 5.2888489466046764e-11 3.9888223119047154e-11 3.881791756765211e-11
          1.0675539808553335e-11 1.5618868580267467e-11 7.701899134456657e-12 1.1396430561790342e-11 7.993791758868649e-12 1.1621445722357254e-11
          8.476621488437887e-12 2.9745964481914795e-11 2.1931502123534154e-11 2.1754019690403903e-11 1.0743746166196349e-11 1.5320003163843083e-11
          7.985794795397808e-12 1.1433073058712976e-11 7.718228774740885e-12 1.0876796239432405e-11 8.104576498262013e-12 2.7728848333319376e-11
          2.083225363421177e-11 1.929779169794811e-11 5.8541375572504095e-12 8.433719594658002e-12 4.271684172728705e-12 6.165757411021889e-12
          4.217409964267935e-12 5.981826147980616e-12 4.376978106224664e-12 1.548412176539254e-11 1.1386048583689999e-11 1.073551122511303e-11
          9.706968988288893e-11 7.381492511974924e-11 6.96311581771356e-11 5.281715970362732e-11 1.717989467779578e-10 1.3184378978835923e-10
          1.2030762480121833e-10 5.546135201040183e-11 4.1179325117826545e-11 3.96002028936957e-11 2.9350050429909524e-11 9.988891343773247e-11
          7.472531405892383e-11 6.950678950216994e-11 4.855791701375182e-11 3.673980259242693e-11 3.2990970847241505e-11 2.4896042992966234e-11
          8.173915051749053e-11 6.230640309500998e-11 5.404246708127255e-11 2.748712656621727e-11 2.0338295678582875e-11 1.858427155666595e-11
          1.3725191083752627e-11 4.693147105518558e-11 3.493365304638214e-11 3.0838229156577e-11 7.38241366363124e-12 1.0001703141873169e-11
          8.08962975654414e-12 1.7289911875348176e-11 2.8816613616719973e-11 1.8697081052389538e-11 4.5543153011221955e-11 9.290465381738892e-12
          1.1940923842260421e-11 8.277035929857132e-12 1.8072975669771335e-11 5.5235161051078125e-12 7.509512050413005e-12 4.108412290481129e-12
          5.597379948904643e-12 4.668762895700113e-12 6.073777885427638e-12 4.533671069796846e-12 1.3053025489722088e-11 9.77141184356888e-12
          9.711898925964539e-12 3.014506499071266e-12 4.119375756585479e-12 2.208071835936749e-12 3.008021374124544e-12 2.54278060413792e-12
          3.3249677103077133e-12 2.4269543085572795e-12 7.232556973455744e-12 5.297890486420726e-12 5.358895550134853e-12 2.1903852683590954e-11
          1.6484325996705925e-11 1.4153749378823539e-11 1.0615331780121198e-11 3.486947411151358e-11 2.6402406279755944e-11 2.2028635259614404e-11
          1.227333677283661e-11 9.042853170236007e-12 7.876057051417774e-12 5.787599655761828e-12 1.9771071557284618e-11 1.4640802144644222e-11
          1.2399691785930611e-11 6.959717549534649e-12 8.96426165784952e-12 5.175492807039536e-12 6.672991583981729e-12 5.5978672998541435e-12
          6.972034629955826e-12 5.151791890495765e-12 1.3673790139456774e-11 1.0231502436275259e-11 9.23290615892199e-12 3.801284003493261e-12
          4.926093087855133e-12 2.7740245896758442e-12 3.6093408061439455e-12 3.0317943116430825e-12 3.78911739717287e-12 2.7712702127454754e-12
          7.602311822904038e-12 5.602143361538831e-12 5.083574911635525e-12 3.6017100216031257e-10 2.4869966348515234e-10 1.6597707522010886e-10
          1.074875202218243e-10 2.3395416825445754e-10 4.3307544769232704e-10 2.866590116227883e-10 1.8225200352090124e-10 3.056639106728607e-10
          2.8300539235359233e-10 2.1926609442998998e-10 1.943772229909619e-10 1.4991168412365178e-10 4.089413707727565e-10 3.195111409620968e-10
          2.790890734377413e-10 1.6755636171938988e-10 1.263188416677475e-10 1.1411015784385579e-10 8.573779821311347e-11 2.4601885566703975e-10
          1.8673927349744738e-10 1.6610409796253609e-10 1.2908583061128128e-10 9.9131124167952e-11 8.320980970976332e-11 6.364048484657855e-11
          1.8320060031464568e-10 1.415731362119532e-10 1.1622251325052175e-10 7.517677831746465e-11 5.630251992374439e-11 4.808974945499e-11
          3.590309574693305e-11 1.0798100401855458e-10 8.1294986879097e-11 6.789016006121065e-11 4.985418906972861e-10 3.917513653728096e-10
          3.4293064387194077e-10 2.676542565123376e-10 5.268914580196234e-10 4.148794788281666e-10 3.649152170247243e-10 3.0322395255170566e-10
          2.312561959958548e-10 2.0595569214215114e-10 1.5628057851077652e-10 3.217380627416022e-10 2.4580750819217105e-10 2.1985139113503127e-10
          2.2545454552185679e-10 1.7492675845841283e-10 1.4248350195218622e-10 1.0997131927289862e-10 2.4075564812435836e-10 1.870521358772618e-10
          1.522783846630212e-10 1.3391436534207631e-10 1.0116250513132625e-10 8.379887586550066e-11 6.304584507159317e-11 1.4337664840531664e-10
          1.0843709509828385e-10 8.976423520020511e-11 6.783547431317488e-11 4.190106384815409e-11 9.244656020165935e-11 2.5475301278544322e-11
          1.5138767685083816e-11 3.319157936519177e-11 1.1204561652098264e-10 6.705695261160095e-11 1.1945715134541114e-10 3.931588553783792e-11
          2.269577989099826e-11 4.1644645865620236e-11 5.227922467361481e-11 3.982559546141909e-11 3.2146501408593324e-11 2.4387892793563424e-11
          7.163240471302179e-11 5.484274598815721e-11 4.3120937162549424e-11 2.998869163129425e-11 2.23198248102753e-11 1.829825750467924e-11
          1.3579580605191668e-11 4.1488098214802634e-11 3.1010170238768695e-11 2.476714038089191e-11 1.9438311044463647e-11 1.4663740718348752e-11
          1.1452548607939893e-11 8.590817230243312e-12 2.546206597455714e-11 1.932025252770983e-11 1.4809585333514704e-11 1.0956550827746077e-11
          8.108586271755672e-12 6.391662688567137e-12 4.708070914774424e-12 1.4499448826936563e-11 1.0765131983700842e-11 8.352014919047904e-12
          8.711729869575284e-11 6.691081683355753e-11 5.1864895538749264e-11 3.964867497078421e-11 9.298645147312046e-11 7.149469596772915e-11
          5.520269585663539e-11 5.0766387927407164e-11 3.8048217543063264e-11 2.995665999898704e-11 2.236930939902452e-11 5.429762418608975e-11
          4.0732036219794197e-11 3.194351885955956e-11 3.024845430928339e-11 2.301353844468233e-11 1.7357326117361526e-11 1.3137349431836053e-11
          3.2070624245630634e-11 2.4421538759015903e-11 1.8324320525219196e-11 1.731322435016745e-11 1.2879039232542763e-11 9.836483542508551e-12
          7.282225281642612e-12 1.838693122836286e-11 1.3685357340729579e-11 1.0400120497953616e-11 5.540890108403148e-12 8.24849726117747e-12
          3.96198266355348e-12 5.9144195033040315e-12 4.157496551662996e-12 6.131307875839862e-12 4.396338723550595e-12 1.598961893907996e-11
          1.1527176440526992e-11 1.1662086922589546e-11 2.7841595267494525e-12 4.186316676177472e-12 1.948177143780037e-12 2.9351194662916213e-12
          2.1094064493207268e-12 3.1164912102883663e-12 2.187103276017938e-12 8.218012098485608e-12 5.7926121832550524e-12 5.976301613481273e-12
          3.10415763154086e-12 4.4657643241666335e-12 2.2485036669429903e-12 3.1917133892697964e-12 2.277119741988661e-12 3.1532545833180312e-12
          2.4770429692768305e-12 8.29218600916474e-12 5.9552203489159935e-12 5.715194574729478e-12 1.6160192671448578e-12 2.257546116605242e-12
          1.1482904178191478e-12 1.5845658358274238e-12 1.4182432098258877e-12 1.8740726251715307e-12 1.318414592970837e-12 4.210537638846047e-12
          2.947710915190064e-12 3.2790183350886346e-12 3.0216075886347364e-11 2.1912337752675967e-11 2.150168845391859e-11 1.5568542116702236e-11
          5.520359185197136e-11 4.027679147515161e-11 3.823383932369373e-11 1.570514642958507e-11 1.1126598877384235e-11 1.1142190042529419e-11
          7.884750851496378e-12 2.902377040816061e-11 2.0656976071731615e-11 2.0030572756089022e-11 1.489156649515712e-11 1.0776482021307755e-11
          1.0042338938491216e-11 7.252497940208723e-12 2.56938728421983e-11 1.8672074008249586e-11 1.680132792653278e-11 7.692278051001257e-12
          5.42654597023613e-12 5.151823181895002e-12 3.620151140820807e-12 1.340816751377554e-11 9.51308099046832e-12 8.732336093440012e-12
          1.0522240348573412e-12 1.5080490875828955e-12 1.1302636038767265e-12 2.9226036044817984e-12 8.008031179235011e-13 1.0830722251135182e-12
          6.658014966255917e-13 8.746057541533225e-13 6.95780996777539e-13 9.025194714483263e-13 7.373520666118257e-13 2.039118892544253e-12
          1.6064560040243398e-12 1.5861953985486248e-12 5.526029944236629e-12 3.821949355903089e-12 9.992081458530659e-12 3.7950035338869905e-12