<?xml version="1.0"?>
<VTKFile type="UnstructuredGrid" version="0.1" byte_order="LittleEndian" header_type="UInt32" compressor="vtkZLibDataCompressor">
  <UnstructuredGrid>
    <Piece NumberOfPoints="1229" NumberOfCells="686">
      <PointData>
        <DataArray type="Int32" Name="libmesh_node_id" format="ascii" RangeMin="28" RangeMax="11138">
          32 33 34 35 36 37
          38 39 40 41 42 43
          44 45 46 47 48 49
          50 51 52 53 54 55
          56 57 58 59 60 61
          62 63 64 65 66 67
          68 69 70 71 72 73
          74 75 76 77 78 79
          80 81 82 83 84 85
          86 87 104 105 106 107
          108 109 110 111 112 113
          114 115 116 117 118 119
          120 121 122 123 124 125
          126 127 128 129 130 131
          148 149 150 151 152 153
          154 155 156 157 158 159
          160 161 162 163 164 165
          166 167 168 169 170 171
          172 173 174 175 192 193
          194 195 196 197 198 199
          200 201 202 203 204 205
          206 207 208 209 210 211
          212 213 214 215 216 217
          218 219 228 229 230 231
          232 233 234 235 236 237
          238 239 240 241 250 251
          252 253 254 255 256 257
          258 259 260 261 262 263
          280 281 282 283 284 285
          286 287 288 289 290 291
          292 293 294 295 296 297
          298 299 300 301 302 303
          304 305 306 307 316 317
          318 319 320 321 322 323
          324 325 326 327 328 329
          338 339 340 341 342 343
          344 345 346 347 348 349
          350 351 368 369 370 371
          372 373 374 375 376 377
          378 379 380 381 382 383
          384 385 386 387 388 389
          390 391 392 393 394 395
          404 405 406 407 408 409
          410 411 412 413 414 415
          416 417 426 427 428 429
          430 431 432 433 434 435
          436 437 438 439 456 457
          458 459 460 461 462 463
          464 465 466 467 468 469
          470 471 472 473 474 475
          476 477 478 479 480 481
          482 483 492 493 494 495
          496 497 498 499 500 501
          502 503 504 505 514 515
          516 517 518 519 520 521
          522 523 524 525 526 527
          546 547 548 549 550 551
          552 553 554 555 556 557
          558 559 560 561 562 563
          564 565 566 567 568 569
          570 571 581 582 583 584
          585 586 587 588 589 590
          591 592 593 603 604 605
          606 607 608 609 610 611
          612 613 614 615 634 635
          636 637 638 639 640 641
          642 643 644 645 646 647
          648 649 650 651 652 653
          654 655 656 657 658 659
          669 670 671 672 673 674
          675 676 677 678 679 680
          681 691 692 693 694 695
          696 697 698 699 700 701
          702 703 724 725 726 727
          728 729 730 731 732 733
          734 735 736 737 738 739
          740 741 742 743 744 745
          746 747 758 759 760 761
          762 763 764 765 766 767
          768 769 780 781 782 783
          784 785 786 787 788 789
          790 791 812 813 814 815
          816 817 818 819 820 821
          822 823 824 825 826 827
          828 829 830 831 832 833
          834 835 846 847 848 849
          850 851 852 853 854 855
          856 857 868 869 870 871
          872 873 874 875 876 877
          878 879 900 901 902 903
          904 905 906 907 908 909
          910 911 912 913 914 915
          916 917 918 919 920 921
          922 923 934 935 936 937
          938 939 940 941 942 943
          944 945 956 957 958 959
          960 961 962 963 964 965
          966 967 990 991 992 993
          994 995 996 997 998 999
          1000 1001 1002 1003 1004 1005
          1006 1007 1008 1009 1010 1011
          1023 1024 1025 1026 1027 1028
          1029 1030 1031 1032 1033 1044
          1045 1046 1047 1048 1049 1050
          1051 1052 1053 1054 1055 1078
          1079 1080 1081 1083 1085 1086
          1087 1088 1089 1090 1091 1092
          1093 1094 1095 1096 1097 1098
          1099 1111 1112 1113 1114 1115
          1116 1117 1118 1119 1120 1121
          1133 1134 1135 1136 1137 1138
          1139 1140 1141 1142 1143 1168
          1169 1174 1175 1176 1177 1178
          1179 1180 1181 1182 1183 1184
          1185 1186 1187 1199 1200 1201
          1202 1203 1204 1205 1206 1207
          1208 1209 1221 1222 1223 1224
          1225 1226 1227 1228 1229 1230
          1231 1263 1265 1266 1267 1268
          1269 1270 1271 1272 1273 1274
          1275 1287 1288 1291 1292 1293
          1294 1295 1296 1297 1309 1310
          1313 1314 1315 1316 1317 1318
          1319 1322 1332 1357 1362 1367
          1368 1371 1373 1374 1375 1376
          1380 1395 1396 1397 1398 1399
          1400 1401 1402 1403 1404 1406
          1407 1408 1425 1426 1429 1431
          1433 1434 1435 1436 1437 1438
          1439 1440 1441 1442 1568 1569
          1572 1574 1591 1597 1598 1599
          1604 1606 1608 1609 1610 1613
          1632 1633 1634 1637 1638 1639
          1640 1641 1642 1643 1644 1645
          1646 1647 1649 1651 1654 1656
          1706 1707 1712 1713 1714 1716
          1717 1719 1722 1723 1724 1725
          1726 1727 1728 1729 1730 1731
          1739 1740 1741 1745 2117 2187
          2188 2191 2268 2305 2307 2327
          2340 2341 2344 2347 2397 2398
          2401 2402 2403 2404 2405 2406
          2407 2408 2409 2410 2411 2412
          2413 2414 2415 2416 2417 2418
          2554 2555 2558 2586 2587 2588
          2589 2590 2591 2592 2593 2595
          2597 2598 2599 3427 3788 3800
          3804 3962 3980 3982 3985 3986
          3989 3997 3998 3999 4000 4001
          4002 4003 4033 4036 4040 4061
          4062 4063 4064 4065 4066 4067
          4068 4069 4070 4078 4079 4080
          4081 4082 4083 4084 4085 4086
          4087 4114 4115 4118 4120 4122
          4123 4124 4125 4126 4127 4128
          4129 4130 4131 4148 4149 4152
          4154 4163 4165 4166 4167 4168
          4169 4170 4171 4172 4173 4174
          4175 4176 4177 4178 4179 4250
          4251 4254 4256 4320 4321 4322
          4323 4324 4325 4326 4327 4328
          4329 4409 4410 4416 9435 9463
          9531 9533 9535 9549 9550 9553
          9555 9565 9567 9569 9579 9581
          9583 10387 10425 10426 10427 10444
          10445 10448 10455 10472 10473 10476
          10479 10480 10483 10546 10547 10548
          10549 10550 10551 10552 10560 10561
          10562 10563 10564 10565 10566 10567
          10568 10569 10570 10571 10572 10573
          10574 10575 10576 10577 10578 10579
          10580 10581 10582 10583 10584 10585
          10586 10804 10805 10806 10811 10812
          10813 11055 11057 11059 11060 11061
          11064 11065 11067 11068 11070 11133
          11134 11137 11138 28 29 30
          31 102 103 146 147 190
          191 227 249 278 279 315
          337 366 367 403 425 454
          455 491 513 542 544 545
          543 580 579 602 601 632
          633 668 690 720 722 723
          721 757 756 779 778 810
          811 845 867 898 899 933
          955 986 988 989 987 1022
          1021 1043 1076 1077 1110 1109
          1132 1131 1165 1167 1198 1220
          1286 1308 1370 1605 1607 1611
          1612 1715 1708 1718 1720 1711
          1721 1585 2318 2322 2319 2323
          2321 2324 2325 2326 1580 1359
          1583 2561 2562 2565 2227 2228
          2594 2229 2596 2320 3776 2266
          3802 2563 2564 4164 2264 2330
          2328 2332 4037 4339 4340 1378
          4345 9287 2263 9353 9352 9434
          9530 9354 9532 9438 9534 9536
          9547 9548 9551 9552 9554 9556
          9462 9564 9566 9466 9568 9570
          9578 9580 9582 9584 10807 10808
          10809 10810 1381 1382 1383 1388
          10946 11047 10937 10947 11056 11048
          1390 11058 11051 11053 11062 11063
          1389 11066 11069 11126 11127 11135
          11136 11128 11132 10932 10943
        </DataArray>
        <DataArray type="Float64" Name="bounds" format="ascii" RangeMin="0" RangeMax="0">
          0 0 0 0 0 0
          0 0 0 0 0 0
          0 0 0 0 0 0
          0 0 0 0 0 0
          0 0 0 0 0 0
          0 0 0 0 0 0
          0 0 0 0 0 0
          0 0 0 0 0 0
          0 0 0 0 0 0
          0 0 0 0 0 0
          0 0 0 0 0 0
          0 0 0 0 0 0
          0 0 0 0 0 0
          0 0 0 0 0 0
          0 0 0 0 0 0
          0 0 0 0 0 0
          0 0 0 0 0 0
          0 0 0 0 0 0
          0 0 0 0 0 0
          0 0 0 0 0 0
          0 0 0 0 0 0
          0 0 0 0 0 0
          0 0 0 0 0 0
          0 0 0 0 0 0
          0 0 0 0 0 0
          0 0 0 0 0 0
          0 0 0 0 0 0
          0 0 0 0 0 0
          0 0 0 0 0 0
          0 0 0 0 0 0
          0 0 0 0 0 0
          0 0 0 0 0 0
          0 0 0 0 0 0
          0 0 0 0 0 0
          0 0 0 0 0 0
          0 0 0 0 0 0
          0 0 0 0 0 0
          0 0 0 0 0 0
          0 0 0 0 0 0
          0 0 0 0 0 0
          0 0 0 0 0 0
          0 0 0 0 0 0
          0 0 0 0 0 0
          0 0 0 0 0 0
          0 0 0 0 0 0
          0 0 0 0 0 0
          0 0 0 0 0 0
          0 0 0 0 0 0
          0 0 0 0 0 0
          0 0 0 0 0 0
          0 0 0 0 0 0
          0 0 0 0 0 0
          0 0 0 0 0 0
          0 0 0 0 0 0
          0 0 0 0 0 0
          0 0 0 0 0 0
          0 0 0 0 0 0
          0 0 0 0 0 0
          0 0 0 0 0 0
          0 0 0 0 0 0
          0 0 0 0 0 0
          0 0 0 0 0 0
          0 0 0 0 0 0
          0 0 0 0 0 0
          0 0 0 0 0 0
          0 0 0 0 0 0
          0 0 0 0 0 0
          0 0 0 0 0 0
          0 0 0 0 0 0
          0 0 0 0 0 0
          0 0 0 0 0 0
          0 0 0 0 0 0
          0 0 0 0 0 0
          0 0 0 0 0 0
          0 0 0 0 0 0
          0 0 0 0 0 0
          0 0 0 0 0 0
          0 0 0 0 0 0
          0 0 0 0 0 0
          0 0 0 0 0 0
          0 0 0 0 0 0
          0 0 0 0 0 0
          0 0 0 0 0 0
          0 0 0 0 0 0
          0 0 0 0 0 0
          0 0 0 0 0 0
          0 0 0 0 0 0
          0 0 0 0 0 0
          0 0 0 0 0 0
          0 0 0 0 0 0
          0 0 0 0 0 0
          0 0 0 0 0 0
          0 0 0 0 0 0
          0 0 0 0 0 0
          0 0 0 0 0 0
          0 0 0 0 0 0
          0 0 0 0 0 0
          0 0 0 0 0 0
          0 0 0 0 0 0
          0 0 0 0 0 0
          0 0 0 0 0 0
          0 0 0 0 0 0
          0 0 0 0 0 0
          0 0 0 0 0 0
          0 0 0 0 0 0
          0 0 0 0 0 0
          0 0 0 0 0 0
          0 0 0 0 0 0
          0 0 0 0 0 0
          0 0 0 0 0 0
          0 0 0 0 0 0
          0 0 0 0 0 0
          0 0 0 0 0 0
          0 0 0 0 0 0
          0 0 0 0 0 0
          0 0 0 0 0 0
          0 0 0 0 0 0
          0 0 0 0 0 0
          0 0 0 0 0 0
          0 0 0 0 0 0
          0 0 0 0 0 0
          0 0 0 0 0 0
          0 0 0 0 0 0
          0 0 0 0 0 0
          0 0 0 0 0 0
          0 0 0 0 0 0
          0 0 0 0 0 0
          0 0 0 0 0 0
          0 0 0 0 0 0
          0 0 0 0 0 0
          0 0 0 0 0 0
          0 0 0 0 0 0
          0 0 0 0 0 0
          0 0 0 0 0 0
          0 0 0 0 0 0
          0 0 0 0 0 0
          0 0 0 0 0 0
          0 0 0 0 0 0
          0 0 0 0 0 0
          0 0 0 0 0 0
          0 0 0 0 0 0
          0 0 0 0 0 0
          0 0 0 0 0 0
          0 0 0 0 0 0
          0 0 0 0 0 0
          0 0 0 0 0 0
          0 0 0 0 0 0
          0 0 0 0 0 0
          0 0 0 0 0 0
          0 0 0 0 0 0
          0 0 0 0 0 0
          0 0 0 0 0 0
          0 0 0 0 0 0
          0 0 0 0 0 0
          0 0 0 0 0 0
          0 0 0 0 0 0
          0 0 0 0 0 0
          0 0 0 0 0 0
          0 0 0 0 0 0
          0 0 0 0 0 0
          0 0 0 0 0 0
          0 0 0 0 0 0
          0 0 0 0 0 0
          0 0 0 0 0 0
          0 0 0 0 0 0
          0 0 0 0 0 0
          0 0 0 0 0 0
          0 0 0 0 0 0
          0 0 0 0 0 0
          0 0 0 0 0 0
          0 0 0 0 0 0
          0 0 0 0 0 0
          0 0 0 0 0 0
          0 0 0 0 0 0
          0 0 0 0 0 0
          0 0 0 0 0 0
          0 0 0 0 0 0
          0 0 0 0 0 0
          0 0 0 0 0 0
          0 0 0 0 0 0
          0 0 0 0 0 0
          0 0 0 0 0 0
          0 0 0 0 0 0
          0 0 0 0 0 0
          0 0 0 0 0 0
          0 0 0 0 0 0
          0 0 0 0 0 0
          0 0 0 0 0 0
          0 0 0 0 0 0
          0 0 0 0 0 0
          0 0 0 0 0 0
          0 0 0 0 0 0
          0 0 0 0 0 0
          0 0 0 0 0 0
          0 0 0 0 0 0
          0 0 0 0 0 0
          0 0 0 0 0 0
          0 0 0 0 0 0
          0 0 0 0 0 0
          0 0 0 0 0 0
          0 0 0 0 0 0
          0 0 0 0 0 0
          0 0 0 0 0 0
          0 0 0 0 0 0
          0 0 0 0 0
        </DataArray>
        <DataArray type="Float64" Name="gradient_error" format="ascii" RangeMin="1.0338205365425293e-14" RangeMax="1.907956435202641e-7">
          2.6561812608771393e-14 2.5833823082475043e-14 2.3583896297024008e-14 2.4411063045425985e-14 2.6713430418286816e-14 2.595830592780711e-14
          2.417572636068368e-14 2.4607611832529443e-14 2.5084218158775416e-14 2.513809836509607e-14 2.6648668361965417e-14 2.585905713367636e-14
          2.4655455670091084e-14 2.490180930728686e-14 2.6573390616252714e-14 2.5867655285143787e-14 2.5293041078018502e-14 2.521784356760767e-14
          2.5044321016051134e-14 2.510966502571854e-14 2.5261900914721387e-14 2.5210242883142763e-14 2.4985349458982685e-14 2.5063793345020366e-14
          2.5113902103818113e-14 2.5134685296094818e-14 2.5235025588180353e-14 2.5191610051455944e-14 2.514754157182832e-14 2.5148701773094273e-14
          2.5165501661763307e-14 2.5162425487523473e-14 2.515507816566143e-14 2.5154264833606062e-14 2.5148786495002427e-14 2.515033681836872e-14
          2.51531722496669e-14 2.5153062995933926e-14 2.5152311089650772e-14 2.5152552652024604e-14 2.515290817548282e-14 2.515290741590781e-14
          2.5152872097587596e-14 2.5152882098747296e-14 2.5152898493346183e-14 2.5152900976189887e-14 2.5152909204711843e-14 2.5152906209933055e-14
          2.5152901555269003e-14 2.515290238359997e-14 2.515290613096556e-14 2.5152905076481702e-14 2.5152902367484583e-14 2.515290263392569e-14
          2.5152904619341664e-14 2.5152904200341536e-14 2.513108539276957e-14 2.519623046125483e-14 2.5173144557323228e-14 2.510981941051776e-14
          2.516911769058094e-14 2.5119640705740802e-14 2.5150921163951364e-14 2.515710047558472e-14 2.514796315522093e-14 2.5163932127465447e-14
          2.515442948678595e-14 2.5150565004209726e-14 2.5153897714139275e-14 2.5151252803746083e-14 2.5151820519513452e-14 2.5155222518813634e-14
          2.5153144155335312e-14 2.5152447289474106e-14 2.5152919824212997e-14 2.5152865303664988e-14 2.515290391671379e-14 2.5152900023808283e-14
          2.515290349878488e-14 2.515290343163758e-14 2.515290348911563e-14 2.515290374911057e-14 2.5152903284987418e-14 2.515290370183881e-14
          2.5156337229360437e-14 2.5154231128681696e-14 2.5143107677319056e-14 2.5180141516660316e-14 2.514625680974517e-14 2.51698355060943e-14
          2.5153679383420093e-14 2.5152280997134575e-14 2.515328025324502e-14 2.5152855219544937e-14 2.5150274122007755e-14 2.5158892777361412e-14
          2.5152326939907028e-14 2.515431109276063e-14 2.5153779064666677e-14 2.5151095724343626e-14 2.5152836809119922e-14 2.5153007437213204e-14
          2.5152885906225037e-14 2.5152936392931545e-14 2.5152901177094787e-14 2.5152907947709565e-14 2.5152903538536168e-14 2.515290364812089e-14
          2.5152903766300323e-14 2.5152903476223294e-14 2.5152903669608048e-14 2.515290362233621e-14 4.560241605278652e-14 3.5378368952460194e-14
          4.761525692866663e-14 3.676378339045547e-14 3.5523436512630805e-14 3.057413308367068e-14 2.8004792545393056e-14 2.6572957076146425e-14
          2.7730946409597347e-14 2.6410430632164506e-14 2.6482701014362012e-14 2.58480082335586e-14 2.4913922181624184e-14 2.5047048149356338e-14
          2.5101076693109916e-14 2.5115584291643553e-14 2.5165975187138362e-14 2.5161001693744156e-14 2.5155151915461774e-14 2.515422406693737e-14
          2.515310434203327e-14 2.5153032813895392e-14 2.5152901958191322e-14 2.5152906230907374e-14 2.515289315163554e-14 2.515289754630011e-14
          2.5152894829780908e-14 2.5152898019553455e-14 2.514829413064697e-14 2.5490281131902144e-14 2.536098140378676e-14 2.51461895369171e-14
          2.512031973584391e-14 2.5172260477455335e-14 2.5164249663455348e-14 2.5144861410217092e-14 2.5154355317939467e-14 2.5153048685155612e-14
          2.5152924353941008e-14 2.5152906646666057e-14 2.5152903048091555e-14 2.5152902783262003e-14 2.5142266409160066e-14 2.506825241155997e-14
          2.5097133152862958e-14 2.5151257466934406e-14 2.5150724616956156e-14 2.513120550215549e-14 2.5148325209822206e-14 2.5159630930256984e-14
          2.515268243552899e-14 2.5152801151898256e-14 2.51528874221245e-14 2.515290278970869e-14 2.5152904155218433e-14 2.5152904357198004e-14
          1.3888231364140997e-13 8.318060565476547e-14 1.4983666744999246e-13 8.819723525526744e-14 1.0550267671718152e-13 6.551915407009234e-14
          6.718448766387073e-14 4.624692717269509e-14 4.207743574252711e-14 3.38361302754803e-14 3.1870264481440565e-14 2.8544061527097203e-14
          2.6630856961762618e-14 2.5915404687265563e-14 2.5390710898775506e-14 2.5324437961030447e-14 2.5110712160551408e-14 2.512696956207376e-14
          2.5144360785540253e-14 2.5147949581093224e-14 2.5151882889205092e-14 2.51522677369885e-14 2.5152829329016447e-14 2.515284486144284e-14
          2.5152924626099484e-14 2.5152914915486985e-14 2.5152929458542026e-14 2.51529204801164e-14 2.6859104232852137e-14 2.649232889985676e-14
          2.565426569298268e-14 2.526501123536135e-14 2.5396828765098737e-14 2.5250164998431582e-14 2.519677445405178e-14 2.5193516855445387e-14
          2.514822480509199e-14 2.515238388748564e-14 2.515281061036189e-14 2.5152886593474688e-14 2.5152906267950607e-14 2.515290942925014e-14
          2.623931079758328e-14 2.64268547391711e-14 2.5772899962962194e-14 2.5220655789203246e-14 2.5198832721763992e-14 2.5282471424109322e-14
          2.5193596495335053e-14 2.5128868687605384e-14 2.515322264658788e-14 2.5153229398325082e-14 2.5152968635951882e-14 2.5152912793080136e-14
          2.515290733102673e-14 2.5152907356809508e-14 6.112162024120997e-13 3.3334835441217507e-13 6.064968487848611e-13 3.363115207981259e-13
          3.9524975175742373e-13 2.2102411489761663e-13 2.3220586041257914e-13 1.3013187171818202e-13 1.2907761399154612e-13 7.775497451860123e-14
          6.971760987678475e-14 4.914793098928632e-14 2.8204013731533827e-14 2.750843787782143e-14 2.438222844919478e-14 2.4682314862457152e-14
          2.5282441043099876e-14 2.523170807578953e-14 2.518375804164193e-14 2.5170424061108657e-14 2.5157338649393487e-14 2.5155587700589796e-14
          2.5153386943713116e-14 2.5153246559421375e-14 2.515283856513428e-14 2.5152875567472108e-14 2.51527800584454e-14 2.5152830164331825e-14
          4.562929013832764e-14 5.003042670687116e-14 3.763775878835864e-14 2.6751704870068278e-14 2.5835620830193294e-14 2.6892747196010207e-14
          2.6055550649210807e-14 2.512472770477093e-14 2.516729745273939e-14 2.5154539960613818e-14 2.515327240979617e-14 2.5153002760796896e-14
          2.5152917390360934e-14 2.5152901518819625e-14 3.57780738644047e-14 3.393466060235166e-14 2.847703953890777e-14 2.5445526716351628e-14
          2.5238906614730245e-14 2.5207242290232528e-14 2.5298239274312583e-14 2.526705413382234e-14 2.5153619796999593e-14 2.5151989840652256e-14
          2.5152708067806233e-14 2.5152899346464154e-14 2.5152922210911928e-14 2.5152922767421007e-14 2.74630712855281e-12 1.499033484942662e-12
          2.5211870834462698e-12 1.4006329466222665e-12 1.5597450950196846e-12 8.592707227759681e-13 8.949321237236134e-13 4.753373644312709e-13
          4.784748852187295e-13 2.6217599883625847e-13 2.333980517178011e-13 1.4220895321303734e-13 6.333025340783787e-14 5.16753865487831e-14
          3.0616381141054226e-14 2.9367708737789755e-14 2.4813684335085286e-14 2.4950383156371506e-14 2.5051918707670176e-14 2.5097614675732747e-14
          2.513552836258599e-14 2.5142831428935164e-14 2.5150243890918465e-14 2.515117939870719e-14 2.5152732336977315e-14 2.5152765445144676e-14
          2.5153067223634663e-14 2.5152999486556297e-14 1.882668070152014e-13 1.9274228036194275e-13 1.1108051885626874e-13 4.457659189833127e-14
          3.76429694880488e-14 4.134106884917784e-14 3.410357545229244e-14 2.6587040881946277e-14 2.5115605334276862e-14 2.5149390164946424e-14
          2.5151937287112654e-14 2.515260805473573e-14 2.5152901922521162e-14 2.515296530601202e-14 1.2477377269788872e-13 1.0540575092562239e-13
          6.336468718028577e-14 3.341057865773393e-14 2.94088265223101e-14 3.1662282990082125e-14 2.818663121485655e-14 2.505504542936727e-14
          2.5144128690895992e-14 2.5155469686097534e-14 2.515374007894097e-14 2.5153101202975548e-14 2.5153005291730286e-14 2.515299886254611e-14
          1.0643700810673443e-11 6.010095614958777e-12 6.20473339539917e-12 3.472721191785434e-12 3.4557844628844776e-12 1.837480314501762e-12
          1.859740005880378e-12 9.949702583909552e-13 8.881846521906583e-13 5.200731880139766e-13 1.9853184712953855e-13 1.4897977754273986e-13
          5.2838770210723484e-14 4.641823132751513e-14 2.5897920028127203e-14 2.5577802098953984e-14 2.5466712777576982e-14 2.531222713342348e-14
          2.5211172405832832e-14 2.5184310384753474e-14 2.5163045013241874e-14 2.5159147867100486e-14 2.5153729233803046e-14 2.5153637554281428e-14
          2.5152302295391214e-14 2.5152720381659534e-14 9.182929705816073e-13 4.930741398947366e-13 1.5234672388646341e-13 9.328725979778336e-14
          1.0945235250496708e-13 7.389533414314025e-14 3.424003737948044e-14 2.523220867109569e-14 2.5152779496218472e-14 2.5154126010933714e-14
          2.515409977986031e-14 2.5153460071599175e-14 2.515328007353259e-14 4.600955219191057e-13 2.4543929161777446e-13 8.551728165388075e-14
          5.637400869403405e-14 6.694298117263927e-14 4.836296033033933e-14 2.8482382314654094e-14 2.5206733172410617e-14 2.5147817503166974e-14
          2.5150803658193315e-14 2.5152948838761534e-14 2.5153374268438537e-14 2.5153421679137328e-14 4.5616639294398645e-11 2.628614441394244e-11
          2.480755194656052e-11 1.422863245583491e-11 1.3230369062825105e-11 7.158940928246149e-12 7.2299468627517974e-12 3.874292707005383e-12
          3.429024921765953e-12 2.0067387670031564e-12 7.430781881277922e-13 5.53570661541724e-13 1.6728170060833231e-13 1.3315583119290015e-13
          2.535915994116773e-14 2.5359697361014367e-14 2.4618114298914343e-14 2.4949280792655286e-14 2.499988604274823e-14 2.5084830067239588e-14
          2.5115237170887073e-14 2.5132472817892453e-14 2.514201325505874e-14 2.5145972281189045e-14 2.5146579775975736e-14 2.5148538890753572e-14
          4.494595514218225e-12 2.3547348240235185e-12 7.218177124197199e-13 3.6508926427714483e-13 4.117673879718008e-13 2.52109126220144e-13
          7.049773940897103e-14 2.5142466224786582e-14 2.5224787322785463e-14 2.5167413639622925e-14 2.5153461863829444e-14 2.5152548740295953e-14
          2.5152671150160766e-14 2.0335414949502145e-12 1.0597566829377354e-12 3.561226311722499e-13 2.1153997729532082e-13 2.390821637032424e-13
          1.401551174846321e-13 4.196551704047402e-14 2.4924697668712167e-14 2.51691273591747e-14 2.5165053187514903e-14 2.515721526276105e-14
          2.5155166173272553e-14 2.5154844294790124e-14 9.985210976592482e-11 5.915054484456325e-11 5.000130155146276e-11 2.7876128766267e-11
          2.8101939070775564e-11 1.5213910381110446e-11 1.3322288779163547e-11 7.839100898007438e-12 2.7782514730034904e-12 2.1003208466797776e-12
          6.154812238606896e-13 4.647047841440759e-13 3.2816995158635085e-14 2.8841758147928976e-14 2.6473521667718524e-14 2.536797891799058e-14
          2.5397933286998017e-14 2.517077269597862e-14 2.522378948635158e-14 2.517818767272286e-14 2.5181435644362344e-14 2.5172085324961845e-14
          2.5173190480908454e-14 2.5169731870702807e-14 1.1497609775010469e-11 3.658429274513176e-12 1.6205932962525983e-12 1.6617244764225625e-12
          9.738772877221549e-13 2.0985994535068056e-13 2.5630100568200122e-14 2.4711359801572068e-14 2.5036009080794432e-14 2.514407709167953e-14
          2.516410118145155e-14 2.5166833573115125e-14 4.546239626819281e-12 1.5659025679551147e-12 9.153049010598623e-13 9.675359359937958e-13
          5.253643550882451e-13 1.0579154627389898e-13 2.639367999917737e-14 2.5160283434881498e-14 2.5128406056629645e-14 2.5155568324264923e-14
          2.5165467357341757e-14 2.516739388573309e-14 4.070551863306295e-10 2.510935403014505e-10 1.8539449852219123e-10 1.0856246780133593e-10
          1.0924289951249172e-10 6.062581026513557e-11 5.2238416064867796e-11 3.117659731074184e-11 1.0297979295554786e-11 8.004960127212792e-12
          2.367514363472268e-12 1.7133039885929068e-12 1.309033359219124e-13 8.822459934124588e-14 3.205378193848157e-14 3.1463917270606277e-14
          2.6095315384235474e-14 2.62782921181477e-14 2.5111750893982402e-14 2.523775308618392e-14 2.4970093045441675e-14 2.5057785359086787e-14
          2.4951542546532892e-14 2.5031040481115036e-14 5.7081288495557396e-11 1.9200539382395493e-11 7.954329066696505e-12 7.028726276826564e-12
          3.886293065971952e-12 7.019751927404353e-13 3.800174796642603e-14 2.809189821698674e-14 2.5917224361619695e-14 2.530711290834718e-14
          2.5175954724814982e-14 2.5153778583299805e-14 1.903068271884333e-11 6.670641684310363e-12 3.899937115613596e-12 3.942673997037252e-12
          2.0606451730731084e-12 3.4485677176732466e-13 3.0457633172272726e-14 2.5309743831242492e-14 2.5373179871179474e-14 2.5250470538308935e-14
          2.520643177689807e-14 2.519701875090243e-14 1.7152719601837127e-9 1.1072735975590338e-9 6.807418825983933e-10 4.294985298318824e-10
          4.25712252118174e-10 2.462464758640441e-10 2.0786374668202905e-10 1.2700286789345565e-10 3.769172794543975e-11 3.05849128180846e-11
          8.703229172254727e-12 6.0371685733993124e-12 5.914914007274132e-13 3.5010064042294595e-13 5.0706949813786896e-14 4.4591794739260785e-14
          2.2784572476129585e-14 2.3627111420098644e-14 2.3772833920788924e-14 2.40512432245209e-14 2.4841767260690492e-14 2.4896850794728783e-14
          2.5034864414489377e-14 2.5059088373257533e-14 2.878860641740287e-10 1.0254235041170728e-10 4.134799750820496e-11 3.099325958748951e-11
          1.5778184893050657e-11 2.3140156372917627e-12 9.764881526486802e-14 3.335616905186885e-14 2.4886377591339015e-14 2.4828755179658496e-14
          2.5181086363350576e-14 2.5258798711636528e-14 7.649689341370288e-11 2.682952375804304e-11 1.5915295406495836e-11 1.584453007009675e-11
          8.078272095371859e-12 1.2569233000396265e-12 8.658775041125724e-14 2.823569843900303e-14 2.530310481861033e-14 2.532785783106412e-14
          2.541023839793407e-14 2.5434285091247368e-14 2.5292470466879664e-9 1.7679873389046248e-9 1.6964715385162153e-9 1.0394057766403985e-9
          8.478284226453954e-10 5.355398457751239e-10 1.3775443671653543e-10 1.185620217637081e-10 2.931495951820985e-11 1.9502224632971453e-11
          2.4871013582052223e-12 1.7336441082549515e-12 2.358436245279362e-13 1.910939281800929e-13 5.0741205279504675e-14 4.0723489053784927e-14
          3.063448264785552e-14 2.7919145630164948e-14 2.907793118151805e-14 2.8175762879279876e-14 2.8978006517906444e-14 2.832004679016629e-14
          5.527688772115584e-10 2.217102003185984e-10 1.4257379975061952e-10 6.539972422591553e-11 7.322340442469969e-12 7.565127723297555e-13
          1.24113094594697e-13 3.2475088504188834e-14 2.6222343442447553e-14 2.7355870553147514e-14 2.7611024191805815e-14 2.8711717881561626e-10
          9.881012330183345e-11 6.10803858726151e-11 6.189633059638652e-11 3.1429841640950275e-11 4.955191137206883e-12 5.328386863548305e-13
          1.0188195735714434e-13 3.42444041803125e-14 2.7240878272420724e-14 2.743814652925332e-14 2.7559961321185493e-14 4.428936602030623e-9
          3.23967046406092e-9 5.563094733166811e-9 2.0672774605753465e-9 1.1240945906764147e-9 1.877480974243079e-10 2.7328511863484588e-11
          4.1593648184972857e-11 2.5226710436155268e-12 2.813203987051936e-12 4.84801239779071e-13 4.621577904454355e-13 9.204600182395854e-14
          8.505578901290857e-14 4.110008578897034e-14 3.936647864692112e-14 3.351263911510103e-14 3.297391623230285e-14 3.251709805915268e-14
          3.209719311706027e-14 2.0130550291699214e-9 7.461129174299753e-10 3.8115011250764703e-10 1.5650260590783284e-10 3.760011747023971e-11
          2.145297409015321e-12 3.3183574904952e-13 6.982016874548723e-14 3.627763350628381e-14 3.1830497536114864e-14 3.119798068688206e-14
          2.396743167308836e-10 1.939169182551318e-10 1.6044931524269293e-10 7.536237628033272e-11 1.87497598623511e-11 1.0811418510790672e-12
          2.2415715698723972e-13 6.157476128911587e-14 3.492239550769572e-14 3.122580172272507e-14 3.0718673198796255e-14 1.7454467912016526e-7
          6.752060642886799e-8 1.8778499614162843e-11 4.6018158450171874e-11 7.862960494025762e-13 2.328298959924775e-12 3.1947823133916593e-13
          3.465162821541097e-13 7.56836155767895e-14 7.943576724547405e-14 2.8505825347762796e-14 2.982875258469882e-14 2.209225585501306e-14
          2.271206835801872e-14 2.1536399546664073e-14 2.198775193063722e-14 2.421648386516676e-9 9.174196059187339e-10 4.805267068573811e-10
          1.8413258038125065e-10 4.218729201546585e-11 1.833834070076945e-12 3.11952746905591e-13 7.653212968965746e-14 3.0590456390810956e-14
          2.3336645748520518e-14 2.2461256073249137e-14 1.3055604181622537e-9 6.033002308765924e-10 4.40136726685897e-10 1.7526393899798497e-10
          3.125525257091523e-11 1.1584104649164437e-12 2.7283392160019524e-13 6.987634046515634e-14 3.002923295998706e-14 2.3341410636016647e-14
          2.2483407831887917e-14 2.161423528638888e-11 9.850571305024937e-13 7.518241874795762e-14 7.047967758858628e-14 4.9267457121138855e-14