<?xml version="1.0"?>
<VTKFile type="UnstructuredGrid" version="0.1" byte_order="LittleEndian" header_type="UInt32" compressor="vtkZLibDataCompressor">
  <UnstructuredGrid>
    <Piece NumberOfPoints="1140" NumberOfCells="723">
      <PointData>
        <DataArray type="Int32" Name="libmesh_node_id" format="ascii" RangeMin="1176" RangeMax="10623">
          1264 1369 1372 1379 1405 1590
          1592 1593 1594 1595 1596 1600
          1601 1602 1603 1732 1733 1734
          1735 1736 1737 1738 1742 1743
          1744 2270 2271 2272 2273 2274
          2275 2276 2277 2278 2279 2280
          2281 2282 2283 2284 2285 2286
          2287 2288 2289 2290 2291 2292
          2293 2294 2295 2296 2297 2298
          2299 2300 2301 2302 2303 2304
          2306 2308 2309 2310 2311 2312
          2313 2314 2315 2316 2317 2566
          2567 2568 2569 2570 2571 2572
          2573 2574 2575 2576 2577 2578
          2579 2580 2581 2582 2583 2584
          2585 2610 2611 2612 2613 2614
          2615 2616 2617 2618 2619 2620
          2621 2622 2623 2624 2625 2626
          2627 2628 2629 2630 2631 2632
          2633 3810 3811 3812 3815 3818
          3820 3821 3822 3823 3824 3825
          3826 3827 3828 3829 3830 3831
          3832 3833 3836 3837 3840 3842
          3844 3845 3846 3847 3848 3849
          3850 3851 3852 3853 3856 3857
          3859 3862 3864 3865 3866 3867
          3868 3869 3870 3871 3872 3873
          3875 3877 3879 3881 3882 3883
          3884 3885 3886 3887 3888 3889
          3890 3891 3892 3893 3894 3895
          3896 3897 3898 3899 3900 3901
          3902 3903 3904 3905 3906 3907
          3908 3909 3910 3911 3912 3913
          3914 3915 3916 3917 3918 3919
          3920 3921 3922 3923 3924 3925
          3926 3927 3928 3929 3930 3931
          3932 3933 3934 3935 3936 3937
          3938 3939 3940 3941 3942 3943
          3944 3945 3946 3947 3948 3949
          3950 3951 3952 3955 3956 3959
          3961 3963 3964 3965 3966 3967
          3968 3969 3970 3971 3972 3974
          3976 3978 3979 3981 3984 3988
          3990 3991 3992 3993 3994 3995
          3996 4004 4005 4006 4007 4008
          4009 4010 4011 4012 4013 4014
          4015 4016 4017 4018 4019 4020
          4021 4022 4023 4156 4157 4158
          4159 4160 4161 4162 4190 4191
          4192 4193 4194 4195 4196 4197
          4198 4199 4279 4280 4281 4282
          4283 4284 4285 4286 4287 4288
          4289 4290 4291 4292 4293 4294
          4295 4296 4297 4298 4299 4300
          4301 4302 4303 4304 4305 4306
          4307 4308 4309 4310 4311 4312
          4372 4373 4374 4377 4378 4379
          4380 4381 4382 4383 4384 4385
          4386 4387 4390 4391 4394 4395
          4396 4397 4398 4399 4400 4401
          4411 4412 4413 4414 4415 4417
          4418 9603 9604 9605 9608 9611
          9625 9626 9629 9631 9645 9646
          9648 9651 9661 9663 9665 9667
          9668 9669 9670 9671 9672 9673
          9674 9675 9676 9677 9678 9679
          9680 9681 9682 9683 9684 9685
          9686 9687 9688 9689 9690 9691
          9692 9693 9694 9695 9696 9697
          9698 9699 9700 9701 9702 9703
          9704 9705 9706 9707 9708 9709
          9710 9711 9712 9713 9714 9715
          9716 9717 9718 9719 9720 9721
          9722 9723 9724 9725 9726 9727
          9728 9729 9730 9731 9744 9745
          9748 9750 9770 9780 9782 9784
          9794 9796 9798 9800 9801 9802
          9803 9804 9805 9806 9807 9808
          9809 9810 9811 9812 9813 9814
          9815 9816 9817 9818 9819 9820
          9821 9822 9823 9824 9825 9826
          9827 9828 9829 9830 9831 9832
          9833 9834 9835 9836 9837 9838
          9839 9840 9841 9842 9843 9844
          9845 9846 9859 9860 9862 9865
          9875 9877 9879 9893 9894 9896
          9899 9909 9911 9913 9915 9916
          9917 9918 9919 9920 9921 9922
          9923 9924 9925 9926 9927 9928
          9929 9930 9931 9932 9933 9934
          9935 9936 9937 9938 9939 9940
          9941 9942 9943 9944 9945 9946
          9947 9948 9949 9950 9951 9952
          9953 9954 9955 9956 9957 9958
          9959 9960 9961 9962 9963 9964
          9965 9966 9967 9968 9969 9970
          9971 9972 9973 9974 9975 9976
          9977 9978 9979 9980 9981 9982
          9991 9993 9995 10005 10007 10009
          10019 10021 10023 10033 10035 10037
          10039 10040 10041 10042 10043 10044
          10045 10046 10047 10048 10049 10050
          10051 10052 10053 10054 10055 10056
          10057 10058 10059 10060 10061 10062
          10063 10064 10065 10066 10067 10068
          10069 10070 10071 10072 10073 10074
          10075 10076 10077 10078 10079 10080
          10081 10082 10083 10084 10085 10086
          10087 10088 10089 10090 10091 10092
          10093 10094 10095 10096 10097 10098
          10099 10100 10101 10102 10103 10104
          10105 10106 10107 10108 10109 10110
          10111 10112 10113 10114 10115 10116
          10117 10118 10119 10120 10121 10122
          10123 10124 10125 10126 10127 10128
          10129 10130 10131 10132 10133 10134
          10135 10136 10137 10138 10139 10140
          10141 10142 10143 10144 10145 10146
          10147 10148 10149 10150 10151 10152
          10153 10154 10155 10156 10157 10158
          10159 10160 10161 10162 10163 10164
          10165 10166 10167 10168 10169 10170
          10171 10172 10173 10174 10175 10176
          10177 10178 10179 10180 10181 10182
          10183 10184 10185 10186 10187 10188
          10189 10190 10191 10192 10193 10194
          10195 10196 10197 10198 10199 10200
          10201 10202 10203 10204 10205 10206
          10207 10208 10209 10210 10211 10212
          10213 10214 10215 10216 10217 10218
          10219 10220 10221 10222 10223 10224
          10225 10226 10227 10228 10229 10230
          10231 10232 10233 10234 10235 10236
          10237 10238 10239 10240 10241 10242
          10243 10244 10245 10246 10247 10248
          10249 10250 10251 10252 10253 10254
          10255 10256 10257 10258 10259 10260
          10261 10262 10263 10264 10265 10266
          10267 10268 10269 10270 10271 10272
          10273 10274 10275 10276 10277 10278
          10279 10280 10281 10282 10283 10284
          10285 10286 10287 10288 10289 10290
          10291 10292 10293 10294 10295 10296
          10297 10298 10299 10300 10301 10302
          10303 10304 10305 10306 10307 10308
          10309 10310 10311 10312 10313 10314
          10315 10316 10317 10318 10319 10320
          10321 10322 10323 10324 10325 10326
          10327 10328 10329 10330 10331 10332
          10333 10334 10335 10336 10337 10338
          10339 10340 10341 10342 10343 10344
          10345 10346 10347 10348 10349 10350
          10370 10371 10374 10376 10396 10397
          10398 10399 10400 10401 10402 10403
          10404 10405 10406 10407 10408 10409
          10410 10411 10412 10413 10414 10415
          10416 10417 10436 10438 10440 10450
          10451 10452 10454 10464 10466 10468
          10478 10482 10484 10485 10486 10487
          10488 10489 10490 10491 10492 10493
          10494 10495 10496 10497 10498 10499
          10500 10501 10502 10503 10504 10505
          10506 10507 10508 10509 10510 10511
          10512 10513 10514 10515 10516 10517
          10518 10519 10520 10521 10522 10523
          10524 10525 10526 10527 10528 10529
          10530 10531 10532 10533 10534 10535
          10536 10537 10538 10539 10540 10541
          10542 10543 10544 10545 10553 10554
          10555 10556 10557 10558 10559 10587
          10588 10589 10590 10591 10592 10593
          10594 10595 10596 10597 10598 10599
          10600 10601 10602 10603 10604 10605
          10606 10607 10608 10609 10610 10611
          10612 10613 10614 10615 10616 10617
          10618 10619 10620 10621 10622 10623
          1176 1395 1396 1371 1397 1398
          1373 1400 1401 1266 1407 1406
          1597 1724 1722 1598 1599 1725
          1723 1730 1729 1739 1740 1741
          1745 1717 2404 2405 1718 1591
          1580 2407 2408 2411 2410 2588
          2586 2589 2587 2592 2591 1585
          2330 2266 2331 1607 2334 2307
          2336 1612 3980 3982 3997 3998
          4000 3999 3986 4002 4079 4085
          4409 4410 4339 4340 4343 4003
          4416 4345 10480 2305 3962 10426
          10445 10547 10549 3985 10455 10560
          10551 10561 10562 10571 10573 10575
        </DataArray>
        <DataArray type="Float64" Name="bounds" format="ascii" RangeMin="0" RangeMax="0">
          0 0 0 0 0 0
          0 0 0 0 0 0
          0 0 0 0 0 0
          0 0 0 0 0 0
          0 0 0 0 0 0
          0 0 0 0 0 0
          0 0 0 0 0 0
          0 0 0 0 0 0
          0 0 0 0 0 0
          0 0 0 0 0 0
          0 0 0 0 0 0
          0 0 0 0 0 0
          0 0 0 0 0 0
          0 0 0 0 0 0
          0 0 0 0 0 0
          0 0 0 0 0 0
          0 0 0 0 0 0
          0 0 0 0 0 0
          0 0 0 0 0 0
          0 0 0 0 0 0
          0 0 0 0 0 0
          0 0 0 0 0 0
          0 0 0 0 0 0
          0 0 0 0 0 0
          0 0 0 0 0 0
          0 0 0 0 0 0
          0 0 0 0 0 0
          0 0 0 0 0 0
          0 0 0 0 0 0
          0 0 0 0 0 0
          0 0 0 0 0 0
          0 0 0 0 0 0
          0 0 0 0 0 0
          0 0 0 0 0 0
          0 0 0 0 0 0
          0 0 0 0 0 0
          0 0 0 0 0 0
          0 0 0 0 0 0
          0 0 0 0 0 0
          0 0 0 0 0 0
          0 0 0 0 0 0
          0 0 0 0 0 0
          0 0 0 0 0 0
          0 0 0 0 0 0
          0 0 0 0 0 0
          0 0 0 0 0 0
          0 0 0 0 0 0
          0 0 0 0 0 0
          0 0 0 0 0 0
          0 0 0 0 0 0
          0 0 0 0 0 0
          0 0 0 0 0 0
          0 0 0 0 0 0
          0 0 0 0 0 0
          0 0 0 0 0 0
          0 0 0 0 0 0
          0 0 0 0 0 0
          0 0 0 0 0 0
          0 0 0 0 0 0
          0 0 0 0 0 0
          0 0 0 0 0 0
          0 0 0 0 0 0
          0 0 0 0 0 0
          0 0 0 0 0 0
          0 0 0 0 0 0
          0 0 0 0 0 0
          0 0 0 0 0 0
          0 0 0 0 0 0
          0 0 0 0 0 0
          0 0 0 0 0 0
          0 0 0 0 0 0
          0 0 0 0 0 0
          0 0 0 0 0 0
          0 0 0 0 0 0
          0 0 0 0 0 0
          0 0 0 0 0 0
          0 0 0 0 0 0
          0 0 0 0 0 0
          0 0 0 0 0 0
          0 0 0 0 0 0
          0 0 0 0 0 0
          0 0 0 0 0 0
          0 0 0 0 0 0
          0 0 0 0 0 0
          0 0 0 0 0 0
          0 0 0 0 0 0
          0 0 0 0 0 0
          0 0 0 0 0 0
          0 0 0 0 0 0
          0 0 0 0 0 0
          0 0 0 0 0 0
          0 0 0 0 0 0
          0 0 0 0 0 0
          0 0 0 0 0 0
          0 0 0 0 0 0
          0 0 0 0 0 0
          0 0 0 0 0 0
          0 0 0 0 0 0
          0 0 0 0 0 0
          0 0 0 0 0 0
          0 0 0 0 0 0
          0 0 0 0 0 0
          0 0 0 0 0 0
          0 0 0 0 0 0
          0 0 0 0 0 0
          0 0 0 0 0 0
          0 0 0 0 0 0
          0 0 0 0 0 0
          0 0 0 0 0 0
          0 0 0 0 0 0
          0 0 0 0 0 0
          0 0 0 0 0 0
          0 0 0 0 0 0
          0 0 0 0 0 0
          0 0 0 0 0 0
          0 0 0 0 0 0
          0 0 0 0 0 0
          0 0 0 0 0 0
          0 0 0 0 0 0
          0 0 0 0 0 0
          0 0 0 0 0 0
          0 0 0 0 0 0
          0 0 0 0 0 0
          0 0 0 0 0 0
          0 0 0 0 0 0
          0 0 0 0 0 0
          0 0 0 0 0 0
          0 0 0 0 0 0
          0 0 0 0 0 0
          0 0 0 0 0 0
          0 0 0 0 0 0
          0 0 0 0 0 0
          0 0 0 0 0 0
          0 0 0 0 0 0
          0 0 0 0 0 0
          0 0 0 0 0 0
          0 0 0 0 0 0
          0 0 0 0 0 0
          0 0 0 0 0 0
          0 0 0 0 0 0
          0 0 0 0 0 0
          0 0 0 0 0 0
          0 0 0 0 0 0
          0 0 0 0 0 0
          0 0 0 0 0 0
          0 0 0 0 0 0
          0 0 0 0 0 0
          0 0 0 0 0 0
          0 0 0 0 0 0
          0 0 0 0 0 0
          0 0 0 0 0 0
          0 0 0 0 0 0
          0 0 0 0 0 0
          0 0 0 0 0 0
          0 0 0 0 0 0
          0 0 0 0 0 0
          0 0 0 0 0 0
          0 0 0 0 0 0
          0 0 0 0 0 0
          0 0 0 0 0 0
          0 0 0 0 0 0
          0 0 0 0 0 0
          0 0 0 0 0 0
          0 0 0 0 0 0
          0 0 0 0 0 0
          0 0 0 0 0 0
          0 0 0 0 0 0
          0 0 0 0 0 0
          0 0 0 0 0 0
          0 0 0 0 0 0
          0 0 0 0 0 0
          0 0 0 0 0 0
          0 0 0 0 0 0
          0 0 0 0 0 0
          0 0 0 0 0 0
          0 0 0 0 0 0
          0 0 0 0 0 0
          0 0 0 0 0 0
          0 0 0 0 0 0
          0 0 0 0 0 0
          0 0 0 0 0 0
          0 0 0 0 0 0
          0 0 0 0 0 0
          0 0 0 0 0 0
          0 0 0 0 0 0
          0 0 0 0 0 0
          0 0 0 0 0 0
          0 0 0 0 0 0
          0 0 0 0 0 0
          0 0 0 0 0 0
        </DataArray>
        <DataArray type="Float64" Name="gradient_error" format="ascii" RangeMin="1.8723386985965e-14" RangeMax="1.6789965182174032e-11">
          5.409393889120576e-13 9.064778058329198e-12 3.637855072421372e-13 3.433695046277198e-13 9.621873123219658e-14 1.4233855986025116e-12
          4.2811943054207665e-13 2.746076954324665e-13 2.912038011472741e-13 9.572911476677003e-14 8.971134125970768e-14 2.6873250529177338e-12
          7.116597231342803e-13 2.16151688793597e-13 8.287186813389545e-13 9.330276944791058e-14 8.403775416382492e-14 9.206398259246126e-14
          7.089881720087449e-14 5.96174776940622e-14 9.47767113332473e-14 7.23086002964593e-14 1.501365106009264e-13 8.37776252329e-14
          8.499972289885639e-14 5.655989184832255e-13 4.551464725736483e-13 4.690355716262343e-12 3.326187804565095e-12 3.460330992028543e-13
          7.022295094746993e-13 4.976510567580773e-13 6.473507374750193e-13 1.2161340446436215e-12 2.1100556068607788e-13 1.677270346574783e-11
          1.2644283125167528e-11 1.9793870810957282e-12 4.6854305504729e-12 1.5389595432216356e-13 1.3076183420386811e-13 1.1698165468295325e-13
          1.2192877532807803e-13 7.517914186158191e-14 2.798726055812397e-13 2.2414469836561395e-13 1.159898762664046e-13 1.785521687310379e-13
          1.4472851699127322e-13 3.4060505952339796e-13 2.444940842573708e-13 4.2504442079017096e-13 2.26700225776535e-13 7.482083005262906e-13
          8.08605207178279e-13 4.674492074446285e-13 6.136181915663592e-13 1.0212581077169876e-12 9.62981461884455e-13 8.363770184391464e-13
          7.474580749094024e-13 1.516761733215049e-13 3.186956165350078e-13 8.657764624783002e-14 1.1888397503062602e-13 1.8163932401589608e-13
          4.97405614332623e-13 1.2225241671064332e-13 4.670511985988214e-13 1.3568798380735356e-13 7.221381150261219e-13 9.181128080434158e-13
          8.527825197149058e-13 5.885025459814254e-13 5.372382017529912e-13 3.326586918308911e-13 2.8936074661263765e-13 2.608208750101637e-13
          6.864782951708198e-13 4.954821111789767e-13 2.8450182732848625e-13 1.0622748132659221e-13 9.3901085863767e-14 1.6515978648050103e-13
          1.451929844213495e-13 7.182537159940829e-14 8.925836541647981e-14 7.838255435304994e-14 8.15863028477329e-14 1.1077786141646181e-13
          5.857033069841188e-14 8.395322487076477e-13 7.172079060410182e-13 3.796435943801512e-13 5.060317507918455e-13 4.4635767010292543e-13
          5.104827178239273e-13 2.685676591915189e-13 6.034515066786024e-13 6.324199072035397e-13 5.746077655449292e-13 9.653285004805248e-14
          8.274163599257337e-14 2.6679710522678877e-13 2.198115770998622e-13 4.9041097094590844e-14 1.170245976385236e-13 9.80111659124415e-14
          5.3460638175800283e-14 1.2092340296250258e-13 5.653778257196767e-14 4.37061360405525e-13 3.5688151820715107e-13 1.4698123473029215e-13
          1.8838616774920486e-13 5.360040606421423e-13 9.764826844596979e-13 9.078652575530673e-13 7.295945582909623e-13 4.30251686244215e-12
          4.123575243993198e-13 3.8979985656179876e-13 5.555266039667802e-13 5.18421631181251e-13 4.2786126346897164e-13 4.021537804310094e-13
          3.7692274489296665e-13 3.2823739141541564e-13 4.2159224387494235e-13 3.1083586509328614e-13 1.866125610966952e-12 1.711641151228502e-12
          6.439825315028876e-13 1.3227134463130764e-12 4.539524135143278e-13 6.019577438878367e-13 6.317373866943818e-13 2.1770586951676634e-12
          3.631740328507558e-13 4.0808170323115805e-13 2.737781347198063e-13 2.276260422921732e-13 4.4084800561496843e-13 3.7132248558806446e-13
          1.8678908141429323e-13 8.65139300800862e-13 3.251790770764944e-13 4.819752321864281e-13 1.4374494454993534e-11 1.315283196178406e-11
          1.0060055353115873e-11 1.569873124632898e-11 5.771904763750258e-12 5.277489223757332e-12 2.1882583757984087e-12 1.9996248769746662e-12
          4.02910041688536e-12 1.5245467134067779e-12 6.917967169569916e-12 6.449827063446481e-12 2.4970979381516745e-12 5.150370272272139e-12
          6.417065894422219e-12 3.421780125276946e-12 8.494101049748117e-12 2.5642586383442637e-12 9.686405993141963e-13 1.3643695150673417e-12
          5.132108498187128e-13 3.430227937718114e-12 1.30864279265574e-12 1.8806764638203184e-12 2.431895128377914e-13 2.2775636277416494e-13
          1.572696387413628e-13 1.4712776166015414e-13 7.833515838889159e-14 9.329759139533202e-14 8.74668111911265e-14 1.8613767508304443e-13
          1.5884223453830134e-13 1.1213049619808104e-13 2.497268282072598e-13 2.2877221384193495e-13 1.0813985932831129e-13 2.074750185071362e-13
          1.3632297120246767e-13 1.4828278055851585e-13 5.304524434306112e-14 1.182285215342485e-13 9.382665669385147e-14 1.3194328119609474e-13
          9.018432093164462e-14 1.686933372518676e-13 1.4590805752312418e-13 1.7208351630776481e-13 7.828064237503929e-13 7.148723151823186e-13
          2.6213001115737673e-13 2.392536120277106e-13 5.438958450443938e-13 1.8125152880485394e-13 9.840953958224491e-13 9.115834988725678e-13
          3.14447805660657e-13 7.177719307177873e-13 1.266973165167516e-13 1.1761461536817123e-13 2.0488333607630434e-13 1.8873562894634825e-13
          1.3226169894429477e-13 3.0690734649919665e-13 2.8348022377638136e-13 9.558656750221963e-14 1.4820447775248229e-13 2.2529789032894886e-13
          2.6445673181301646e-13 2.445568964873821e-13 3.559636369063105e-13 1.9240519496356192e-13 3.4441303873450535e-13 1.8512984227224282e-13
          2.1561810615896774e-13 2.1360486506721887e-13 4.726390698359845e-13 2.5160865571861543e-13 2.526709915590892e-13 9.962850771827006e-14
          1.8475668192390483e-13 7.986163699489793e-14 1.6298568553210812e-13 1.1036420238971439e-13 1.8982346535031346e-13 1.0980745964198485e-13
          2.376789000020998e-13 2.0462422344105803e-13 2.4144347911723194e-13 6.573457666146758e-13 6.428219268938753e-13 6.593488463320607e-13
          6.867457574215982e-13 3.593871962311012e-13 3.965396541715579e-13 1.5498859686716456e-13 1.984037542849303e-13 2.685203693367712e-13
          5.141385156600363e-13 2.096239296777093e-13 3.8434580232129515e-13 2.3151265743817084e-13 5.853246861633008e-13 6.287075872831545e-13
          5.678435004084815e-13 5.805080503677659e-13 3.6768074049769267e-13 7.706416611658737e-13 1.542010894484638e-12 2.1348982851146857e-12
          6.116822914946134e-13 3.575249638820061e-13 4.854396422820939e-13 4.780656188536387e-13 8.539697257296145e-13 4.859517073476482e-13
          4.743888618023438e-13 6.071772246761688e-13 5.526913930456344e-13 3.662859285339867e-13 4.537655725950167e-13 3.655732769117277e-13
          4.44967116803703e-13 2.7048713100996217e-13 5.015027142549291e-13 5.412452166560467e-13 5.243609566956783e-13 2.2061664348996954e-13
          3.1594929500017886e-13 1.6125042401602826e-13 1.8439869082403557e-13 2.202147660709747e-13 4.557688417691782e-13 1.7235090762414878e-13
          3.5803822014859565e-13 1.7572370880392716e-13 5.829353171685577e-13 9.57560734334502e-14 9.829471172662396e-14 7.576557891029814e-14
          6.14792820350848e-14 1.099142315723764e-13 1.0025988298252221e-13 7.33246459629659e-14 3.176967618618012e-14 5.0298568278355335e-14
          1.8723386985965e-14 2.744098105739502e-14 2.5568497957853924e-14 3.1576379604641214e-14 2.0804131157214123e-14 6.882746037053055e-14
          3.615857512882504e-14 3.75842612514285e-14 3.352515832073312e-14 3.254114242671816e-14 7.395698122633798e-14 7.011327613761336e-14
          2.7199510840942834e-14 4.248211582178738e-14 4.036304904154008e-14 3.071496100284833e-14 6.064256686260748e-14 3.51107948569112e-14
          2.932898225635091e-14 4.837549959867849e-14 2.1550601523244452e-14 2.996336394494104e-14 2.878516903970835e-14 4.173543652103077e-14
          2.794912043735247e-14 6.775504789005329e-14 1.1658310599863132e-13 4.891158559754573e-14 7.126543004215978e-14 6.055058734178856e-14
          8.618887655696961e-14 6.110804249669693e-14 7.682757199441853e-14 9.922244989049473e-14 4.915660686199071e-14 6.410523745030196e-14
          5.57036431273059e-14 6.748244376036468e-14 4.4024247076518943e-14 1.216173277865709e-13 7.905386803861321e-14 7.926124439342346e-14
          2.4804990568142994e-13 5.601036029128996e-13 5.333796589018085e-13 4.608317368000753e-13 1.2387406366195928e-13 1.1801761755034772e-13
          2.2216790803055777e-13 2.1201357419607593e-13 8.016374228888953e-14 1.1517271270353296e-13 1.1022056130141648e-13 1.0472419946089532e-13
          1.8395365195476377e-13 9.786650931394296e-14 1.9137943604391778e-13 3.5544422252519815e-13 2.8833003793527665e-13 9.379992837154559e-14
          1.4596007136998612e-13 6.229241445336862e-14 8.811541659693577e-14 9.031262926003672e-14 1.2587207919203884e-13 8.576622446528563e-14
          3.1841097096853345e-13 3.466987987659437e-13 3.26807544064473e-13 3.535422980535945e-13 2.476806743578954e-13 3.74986626563354e-13
          3.80277052042716e-13 2.657347359777349e-13 4.3508697269450464e-13 4.2790819704530773e-13 4.0691043835547114e-13 9.588406571543174e-13
          2.334230752440864e-13 3.740234560467705e-13 3.3323403081730617e-13 8.289886437627479e-13 2.1725337352657532e-12 2.129700931350422e-12
          2.0063685347489197e-12 4.590131115675123e-12 1.8169300336184183e-12 1.5821495834936455e-12 3.8638483443934266e-12 1.808078482931635e-13
          1.77937076583458e-13 2.73216623408578e-13 2.686885506004725e-13 1.4764333945202066e-13 2.088067958226481e-13 2.0531294998071064e-13
          1.695005574992969e-13 2.5560437920163953e-13 1.9543832810724552e-13 6.176641882439197e-13 6.065066284606807e-13 4.462813538519949e-13
          5.743179210447017e-13 1.5610603382615464e-13 2.3511144547555734e-13 1.2952797833580847e-13 1.800161446100156e-13 1.4020183415462538e-13
          2.095081228486102e-13 1.602156798187198e-13 5.245108957365193e-13 3.855014423505216e-13 4.614937286375205e-13 1.3848581219665445e-12
          1.3575436354130762e-12 8.687749094808034e-13 8.516239142949057e-13 1.2788592591141555e-12 8.021961819561403e-13 2.9791762778266402e-12
          2.915468482921499e-12 1.8261980521554947e-12 2.7326581124237862e-12 3.298656687024546e-13 3.2372081378809876e-13 5.322178106944661e-13
          5.216914658523325e-13 1.9257975922911678e-13 3.216198201827465e-13 3.1523185347448454e-13 3.059935097757736e-13 4.913959501228956e-13
          2.9693322071440534e-13 1.1528975210938872e-12 1.1282134497272474e-12 6.871669205611061e-13 1.0574136424731178e-12 1.1580025941844243e-12
          7.263424160779502e-13 1.0079377889233688e-12 6.319295903982572e-13 2.4538337651175694e-12 1.5369210602875444e-12 2.1120417584904162e-12
          2.7879852603350734e-13 4.449495880107915e-13 1.6651282001704423e-13 2.689478177811982e-13 2.4421508951234053e-13 3.8709900307172406e-13
          2.341006560891952e-13 9.494722198096485e-13 5.782208579950801e-13 8.171443489009918e-13 1.9035705786908433e-13 2.853453236119868e-13
          2.589711665678739e-13 6.172136809431476e-13 4.651760778754171e-13 1.3283362674798985e-12 1.0747102838624423e-12 2.7463917226819816e-12
          8.347206078911599e-13 6.238555806854489e-13 1.6588713337895902e-12 1.2935728822095706e-13 1.8029794472409685e-13 1.0639522075465255e-13
          1.4031999566641832e-13 1.265881656601314e-13 1.6475425409117595e-13 1.311833688397103e-13 3.8790375935744517e-13 2.8506720794923367e-13
          3.62445175539719e-13 8.441861474500726e-13 5.280576604429021e-13 6.79863553821451e-13 4.241248711592534e-13 1.7435797747963363e-12
          1.0918016225856504e-12 1.3818905500852362e-12 2.054869111304092e-13 3.2358976755735036e-13 1.239625856186363e-13 1.9591096561426957e-13
          1.6685118408032268e-13 2.6032837626376954e-13 1.5803005348045703e-13 6.744314047860319e-13 4.1072160994806053e-13 5.341864460743512e-13
          3.442364268667232e-13 5.263417378651799e-13 2.137825986021716e-13 3.281576309508258e-13 2.60003621431554e-13 3.931419298955039e-13
          2.450677818388054e-13 1.0525147888504766e-12 6.58752064359211e-13 7.708025736075904e-13 1.3167212369651991e-13 2.0185443233402592e-13
          8.169710380251627e-14 1.221421704910047e-13 1.011904214965097e-13 1.5044778129927777e-13 1.0147180295748445e-13 4.0701727355892193e-13
          2.4690212726849876e-13 2.976016902202902e-13 9.165040155985243e-12 8.959488089938037e-12 8.370490466932826e-12 1.4059268973459266e-11
          7.474934447966522e-12 6.382419475453953e-12 1.1765803072294328e-11 1.6789965182174032e-11 1.6475622424573007e-11 1.5555459619487598e-11
          1.65032230572584e-11 1.4102506868846502e-11 1.2245337866459902e-11 1.4386086416811335e-11 5.828727207065731e-12 5.697802670062255e-12
          3.655223637585118e-12 3.5730236230378397e-12 5.322692784767973e-12 3.3375481505937943e-12 9.174390294865398e-12 8.972295383435641e-12
          5.644257105329314e-12 8.391400662738021e-12 2.2601440655449225e-12 2.209266616142783e-12 1.3779394331211978e-12 1.3468768674353394e-12
          2.063564731652867e-12 1.2580065022285356e-12 3.579556398266216e-12 3.500111002867519e-12 2.139527505149728e-12 3.2719317316766085e-12
          4.752476239283452e-12 2.9796765278186213e-12 4.057059831809725e-12 2.54332965508639e-12 7.503171505423029e-12 4.717055832949156e-12
          6.4118935355144354e-12 1.8422183024019952e-12 1.1232004460084759e-12 1.5723820901551268e-12 9.589154322095845e-13 2.92350450017089e-12
          1.7861630273757068e-12 2.4961325483722483e-12 1.0801577474718057e-11 1.0595871966560658e-11 6.847074657196963e-12 6.714654831672809e-12
          9.99493054911449e-12 6.3285065187727005e-12 1.085348948415274e-11 1.0673335579053827e-11 6.799763672518204e-12 1.0137919994484203e-11
          4.276978679223318e-12 4.1930901301952726e-12 2.6327261466453993e-12 2.5804058075907714e-12 3.948865408569897e-12 2.4283127969801738e-12
          4.343907603502752e-12 4.2677267054031435e-12 2.6390604463504058e-12 4.042967922616096e-12 9.049296036976125e-12 5.722753536167921e-12
          7.84548176448946e-12 4.95445337243985e-12 9.270634265458728e-12 5.886591165571913e-12 8.128915136702956e-12 3.566843328230524e-12
          2.191042510115193e-12 3.083964006375601e-12 1.892134728292211e-12 3.6832704712920375e-12 2.2711009570511154e-12 3.2161213151460823e-12
          5.213285065606045e-12 4.076867255064627e-12 8.21930837465693e-12 3.0556857353481105e-12 2.1984896930019233e-12 4.789786544222022e-12
          1.0159740395325028e-11 8.041240889908533e-12 1.0617229489612715e-11 6.067524645174893e-12 4.3663432330377075e-12 6.466562306950231e-12
          3.3131008514365556e-12 2.0766051275428425e-12 2.5902057125702482e-12 1.6232520212365131e-12 5.2355212862379625e-12 3.2881975141182794e-12
          4.08501508517616e-12 1.2837258908089198e-12 7.829320230660064e-13 1.0033081501275622e-12 6.117335732319058e-13 2.0362272917878185e-12
          1.243155852896636e-12 1.587212244206365e-12 1.9408135092698364e-12 1.216158530256361e-12 1.3956295238563001e-12 8.742049255381948e-13
          3.047279119849192e-12 1.9118071089917607e-12 2.175674410553002e-12 7.52169236386322e-13 4.586986040020559e-13 5.410053806537215e-13
          3.2937136998423983e-13 1.1826444577752369e-12 7.213057332450442e-13 8.430826868892915e-13 6.499007812261304e-12 4.098227791795685e-12
          5.1361741700548965e-12 3.2343842543395073e-12 6.809818582739614e-12 4.305304459520241e-12 5.43646801032193e-12 2.5476287976698854e-12
          1.561206282998994e-12 2.008069205207154e-12 1.2291544919436422e-12 2.683084607794202e-12 1.6483810320505106e-12 2.1337628985552164e-12
          3.870386483462577e-12 2.4342062730555305e-12 2.782281702149774e-12 1.748454635444777e-12 4.131259216929125e-12 2.6021439232213196e-12
          2.989148722050417e-12 1.5093778074783884e-12 9.227434350036732e-13 1.0827766435693148e-12 6.604617511877934e-13 1.6158073660326354e-12
          9.890555941638657e-13 1.1659004353289554e-12 1.177604277556128e-13 1.154285980422138e-13 1.9301047422822835e-13 1.8912969509881866e-13
          6.985787549737039e-14 1.1478197192311715e-13 1.1244545498117949e-13 1.0946813141824653e-13 1.781805198932286e-13 1.0608422694010718e-13
          4.2181596745344903e-13 4.127607520741514e-13 2.4436751503416674e-13 3.866126104123559e-13 4.324181479140633e-14 4.237302175599299e-14
          6.643339845174522e-14 6.511666299213887e-14 3.301561563688032e-14 4.819254123004699e-14 4.7287944547731973e-14 4.034299523663875e-14
          6.152013696194447e-14 4.464548287303529e-14 1.4555696773942105e-13 1.4245141594294028e-13 9.649666822569934e-14 1.3337939744156128e-13
          1.0118918387577073e-13 1.6126458701323502e-13 6.334123469078523e-14 9.552667536853028e-14 9.052791685079893e-14 1.3993052561157737e-13
          9.112786632722462e-14 3.4706660131295723e-13 2.0403253850649346e-13 2.987016017905828e-13 3.9784732977953043e-14 5.6057529306633705e-14
          3.11557573156051e-14 4.1927150802773653e-14 4.038770420320824e-14 5.287471222191102e-14 4.09466837248937e-14 1.182163050856682e-13
          8.050931960570298e-14 1.1499226073878734e-13 7.745326039728462e-14 1.1699449890772828e-13 6.178695991756725e-14 8.704557569559667e-14