<?xml version="1.0"?>
<VTKFile type="UnstructuredGrid" version="0.1" byte_order="LittleEndian" header_type="UInt32" compressor="vtkZLibDataCompressor">
  <UnstructuredGrid>
    <Piece NumberOfPoints="683" NumberOfCells="361">
      <PointData>
        <DataArray type="Int32" Name="libmesh_node_id" format="ascii" RangeMin="226" RangeMax="5240">
          226 227 228 229 292 293
          294 295 322 323 358 359
          360 361 388 389 425 427
          454 455 513 515 518 523
          524 527 529 530 531 532
          535 536 644 649 668 669
          671 672 675 676 677 679
          681 724 725 726 729 730
          731 732 733 734 735 736
          737 738 739 768 769 773
          776 778 779 780 781 782
          783 784 785 786 787 850
          851 852 855 872 873 876
          878 880 881 882 883 884
          885 886 887 888 889 890
          891 892 893 894 895 896
          897 898 899 900 902 904
          905 906 909 910 911 912
          913 914 915 916 917 918
          919 1337 1338 1341 1344 1345
          1346 1350 1351 1352 1355 1358
          1359 1360 1369 1370 1374 1385
          1386 1387 1388 1389 1390 1391
          1392 1393 1394 1395 1396 1397
          1399 1400 1402 1404 1732 1733
          1734 1735 1736 1737 1738 1739
          1740 1741 1742 1743 1744 1745
          1746 1747 1748 2263 2264 2265
          2267 2269 2270 2272 2273 2274
          2275 2276 2277 2278 2308 2309
          2311 2312 2314 2316 2350 2354
          2355 2356 2357 2359 2360 2384
          2389 2390 2391 2393 2394 2415
          2417 2419 2421 2449 2451 2453
          2455 2463 2464 2465 2466 2467
          2468 2469 2470 2471 2472 2473
          2474 2475 2476 2477 2478 2479
          2480 2481 2482 2483 2484 2485
          2486 2487 2488 2489 2491 2492
          2494 2496 2680 2681 2682 2683
          2684 2685 2686 2687 2688 2689
          2690 2691 2692 2693 2694 2695
          2696 2697 2698 2699 2700 2701
          2702 2703 2704 2705 2706 2707
          2708 2709 2712 2715 2718 2719
          2720 2721 2722 2723 2725 2726
          2727 2728 2729 2732 2733 2734
          2735 2737 2748 2750 2751 2752
          2753 2754 2755 2756 2757 2758
          2759 2760 2761 2793 2794 2795
          2796 2797 2798 2799 2800 2801
          2802 2803 2804 2805 2806 2807
          2808 2809 4090 4091 4092 4093
          4094 4095 4098 4099 4100 4101
          4103 4104 4105 4106 4107 4109
          4110 4111 4112 4113 4114 4115
          4116 4117 4118 4119 4120 4121
          4122 4123 4124 4125 4126 4127
          4289 4290 4291 4294 4297 4298
          4299 4300 4301 4312 4313 4314
          4315 4316 4317 4318 4319 4320
          4321 4449 4450 4451 4452 4453
          4454 4455 4456 4457 4458 4459
          4460 4461 4462 4463 4464 4465
          4466 4467 4468 4469 4470 4472
          4473 4474 4475 4478 4479 4480
          4481 4482 4483 4484 4485 4486
          4487 4488 4636 4640 4641 4644
          4645 4646 4647 4648 4649 4650
          4651 4652 4653 4654 4656 4660
          4661 4664 4665 4666 4667 4668
          4669 4670 4671 4672 4673 4674
          4811 4812 4813 4814 4815 4816
          4817 4825 4826 4827 4828 4829
          4830 4831 4842 4843 4844 4845
          4848 4855 4856 4857 4858 4859
          4860 4861 4862 4867 4869 5070
          5071 5074 5077 5082 5083 5084
          5085 5086 5087 5088 5089 5091
          5098 5099 5102 5110 5111 5112
          5113 5114 5115 5116 5180 5181
          5182 5183 5184 5185 5186 5187
          5188 5189 5190 5191 5192 5193
          5194 5195 5196 5197 5198 5199
          5200 5201 5202 5203 5204 5205
          5206 5207 5208 5209 5210 5211
          5212 5213 5214 5215 5216 5217
          5218 5219 5220 5221 5222 5223
          5224 5225 5228 5229 5234 5235
          5236 5237 5238 5239 5240 526
          654 525 658 655 661 662
          901 663 903 907 908 534
          1287 1288 1339 1340 1289 1292
          1295 1348 660 1329 1312 1330
          1333 666 1335 2256 2244 2257
          2271 2262 2307 2248 2266 2331
          2332 2348 2347 2268 2349 2351
          2352 2353 2341 1366 2346 2358
          2381 2382 2383 2385 2386 2387
          2388 2392 2710 2711 2713 2714
          2716 2717 2249 2250 2241 2724
          1343 2730 2731 2736 2749 4060
          4054 4061 4096 4062 4097 4065
          2258 4102 4081 4085 4086 4108
          4089 1349 4285 4286 4287 4288
          4292 4293 4295 4296 4198 4202
          4199 2292 4408 4412 4413 4416
          2342 4438 4444 4445 4448 4476
          4471 1368 4477 4635 4638 4639
          4637 4642 4643 4655 4658 4659
          4657 4662 4663 4697 4698 4701
          2399 4731 4732 4735 4846 2404
          4847 5068 5069 5072 5073 4853
          5075 5096 5097 5100 5101
        </DataArray>
        <DataArray type="Float64" Name="bounds" format="ascii" RangeMin="0" RangeMax="0">
          0 0 0 0 0 0
          0 0 0 0 0 0
          0 0 0 0 0 0
          0 0 0 0 0 0
          0 0 0 0 0 0
          0 0 0 0 0 0
          0 0 0 0 0 0
          0 0 0 0 0 0
          0 0 0 0 0 0
          0 0 0 0 0 0
          0 0 0 0 0 0
          0 0 0 0 0 0
          0 0 0 0 0 0
          0 0 0 0 0 0
          0 0 0 0 0 0
          0 0 0 0 0 0
          0 0 0 0 0 0
          0 0 0 0 0 0
          0 0 0 0 0 0
          0 0 0 0 0 0
          0 0 0 0 0 0
          0 0 0 0 0 0
          0 0 0 0 0 0
          0 0 0 0 0 0
          0 0 0 0 0 0
          0 0 0 0 0 0
          0 0 0 0 0 0
          0 0 0 0 0 0
          0 0 0 0 0 0
          0 0 0 0 0 0
          0 0 0 0 0 0
          0 0 0 0 0 0
          0 0 0 0 0 0
          0 0 0 0 0 0
          0 0 0 0 0 0
          0 0 0 0 0 0
          0 0 0 0 0 0
          0 0 0 0 0 0
          0 0 0 0 0 0
          0 0 0 0 0 0
          0 0 0 0 0 0
          0 0 0 0 0 0
          0 0 0 0 0 0
          0 0 0 0 0 0
          0 0 0 0 0 0
          0 0 0 0 0 0
          0 0 0 0 0 0
          0 0 0 0 0 0
          0 0 0 0 0 0
          0 0 0 0 0 0
          0 0 0 0 0 0
          0 0 0 0 0 0
          0 0 0 0 0 0
          0 0 0 0 0 0
          0 0 0 0 0 0
          0 0 0 0 0 0
          0 0 0 0 0 0
          0 0 0 0 0 0
          0 0 0 0 0 0
          0 0 0 0 0 0
          0 0 0 0 0 0
          0 0 0 0 0 0
          0 0 0 0 0 0
          0 0 0 0 0 0
          0 0 0 0 0 0
          0 0 0 0 0 0
          0 0 0 0 0 0
          0 0 0 0 0 0
          0 0 0 0 0 0
          0 0 0 0 0 0
          0 0 0 0 0 0
          0 0 0 0 0 0
          0 0 0 0 0 0
          0 0 0 0 0 0
          0 0 0 0 0 0
          0 0 0 0 0 0
          0 0 0 0 0 0
          0 0 0 0 0 0
          0 0 0 0 0 0
          0 0 0 0 0 0
          0 0 0 0 0 0
          0 0 0 0 0 0
          0 0 0 0 0 0
          0 0 0 0 0 0
          0 0 0 0 0 0
          0 0 0 0 0 0
          0 0 0 0 0 0
          0 0 0 0 0 0
          0 0 0 0 0 0
          0 0 0 0 0 0
          0 0 0 0 0 0
          0 0 0 0 0 0
          0 0 0 0 0 0
          0 0 0 0 0 0
          0 0 0 0 0 0
          0 0 0 0 0 0
          0 0 0 0 0 0
          0 0 0 0 0 0
          0 0 0 0 0 0
          0 0 0 0 0 0
          0 0 0 0 0 0
          0 0 0 0 0 0
          0 0 0 0 0 0
          0 0 0 0 0 0
          0 0 0 0 0 0
          0 0 0 0 0 0
          0 0 0 0 0 0
          0 0 0 0 0 0
          0 0 0 0 0 0
          0 0 0 0 0 0
          0 0 0 0 0 0
          0 0 0 0 0 0
          0 0 0 0 0 0
          0 0 0 0 0
        </DataArray>
        <DataArray type="Float64" Name="gradient_error" format="ascii" RangeMin="4.390438315528389e-12" RangeMax="2.4614694985418515e-7">
          2.1121341350965396e-10 1.8825660719983954e-10 6.940027435217851e-11 6.78357970904076e-11 4.1638144560692536e-10 4.589529190763047e-10
          8.102364214426479e-11 1.588149540109855e-10 5.416593421953645e-10 2.3422795857546805e-10 3.908851216785363e-9 2.787165348268343e-9
          1.363952451246361e-10 3.681809656299237e-10 6.209382608938762e-10 2.0497153569634287e-10 3.0369826038868104e-9 1.1169005948319423e-10
          5.906223929015611e-10 3.248270212413806e-11 4.170303740638749e-9 8.803660611809584e-8 3.653584105874142e-9 1.206653141992973e-9
          1.7917533499962576e-9 3.057421638836628e-10 2.314916922202621e-10 1.9933259951647978e-9 1.6123313406343714e-9 2.749734739138661e-10
          5.924004469308049e-11 7.557839238973911e-10 9.795085491886995e-8 9.725301402054068e-8 3.97988903478398e-10 3.983215237911443e-10
          3.401806893343381e-10 3.6553508417514394e-11 5.190807263463686e-10 5.824329309899034e-10 5.4292236151655015e-11 1.6293472886538854e-9
          7.101225458996971e-10 4.574411493907692e-10 1.4117655188581848e-9 1.2865020787515957e-9 1.1612386386450068e-9 2.647232084167562e-10
          2.6039212697858224e-10 7.519214569114126e-10 7.279300880472338e-10 5.201152941250967e-11 1.4748045982996082e-10 1.48921304766572e-10
          2.5606104554040815e-10 7.03938719183055e-10 1.503621497031831e-10 1.0045907187080763e-9 1.2576751880630609e-9 5.090881609380727e-10
          1.5107596574180455e-9 6.068413234561767e-10 6.016648089807719e-10 1.1587779932820484e-10 1.1258951932030634e-10 2.6156899531259675e-10
          2.4404539942415846e-10 4.0799851732350225e-11 5.964882945053672e-10 1.0930123931240783e-10 2.2652180353572013e-10 5.547148113477624e-9
          1.787977560313776e-8 1.8083084334283317e-8 1.8286393065428873e-8 1.2444992462276078e-8 1.3150028296071907e-8 3.6986700323449246e-9
          1.3855064129867736e-8 2.962932584946384e-9 2.9272944914313257e-9 9.569385543569459e-9 9.449703505368043e-9 1.037107969632101e-9
          3.0894644008359445e-9 2.990644386532239e-9 2.891656397916268e-9 9.330021467166627e-9 2.9358363085031807e-9 3.26738611707758e-10
          2.5548466327490793e-10 2.1532879031122154e-10 3.684169114676702e-10 3.792227776644931e-11 1.8045174480042043e-11 5.015602602020871e-11
          1.842307148420578e-10 5.46275354501238e-10 8.273341673937102e-11 6.6426817424157834e-9 1.99301342785889e-9 2.0650225986227054e-9
          1.9043148636225996e-9 5.99911023356774e-10 1.7436071286224938e-9 3.407451966405506e-10 3.585575975730739e-10 8.079363831749763e-11
          6.475358650296408e-11 1.5069151427643193e-10 1.3980423710688782e-10 4.2735565922272157e-11 3.763699985055972e-10 4.871353468843053e-11
          1.2891695993734371e-10 4.488843072656091e-9 2.8221139810485406e-9 2.3089687082939256e-10 1.439545905894968e-9 1.093273883518885e-8
          2.483437812321568e-10 2.0843130247277788e-8 1.6969967428564722e-11 1.737343951976375e-11 7.705527741812781e-12 2.8211547102887015e-11
          2.929778645090383e-11 1.3964695073164342e-11 4.891028624872137e-8 8.733136986117924e-10 7.664210075069036e-8 8.312771525789743e-9
          2.3479006481866638e-8 3.706983091238652e-10 6.940067433827417e-10 1.7720166170754863e-9 1.5527511823314461e-9 7.361344311299948e-10
          3.249434070995255e-8 9.650498782258185e-10 1.407718833748915e-9 8.754902477476445e-11 1.6963238983400376e-10 2.0288227612186015e-11
          1.390814746545818e-10 2.8688037012647384e-10 2.2441402254571813e-10 3.6374155413013245e-10 1.794556630554314e-9 2.712198814442832e-9
          1.887336026087054e-9 1.162351456362408e-9 1.6200310638610175e-9 2.9695695822593553e-10 2.8506466999828574e-10 5.743423231352025e-10
          1.210296013186099e-9 3.0869315311033307e-10 4.127851404792946e-11 4.597926918387551e-11 1.0653626059551344e-11 1.6022369788999653e-11
          3.6087252060044386e-11 5.211550762319634e-11 1.1568446798361423e-11 1.7955886599170518e-9 4.958155677772478e-9 1.8594363136982822e-9
          2.1565915645502946e-8 1.0175787983505257e-9 2.659958258743837e-9 1.6370123870540494e-10 5.582007811837845e-10 1.0850742240456515e-9
          1.863659118762999e-10 8.187895639344034e-9 4.4749859286825635e-10 2.647084782978664e-9 7.747397560846358e-11 3.4987368098850596e-11
          4.167154441754705e-11 7.517671514851898e-11 1.9334485583364482e-10 1.397779488971193e-10 1.7927241538429228e-8 2.5957984885063338e-8
          1.8064285966463396e-9 6.457339030290029e-9 5.928496080677599e-10 5.047914103861317e-9 1.3012357496601724e-8 5.453377644300518e-8
          9.394215874756576e-9 1.9873892052677715e-8 1.3600544023263837e-9 1.1529841860192733e-8 2.2835490222463456e-8 7.78559993774288e-10
          3.3104438062641416e-10 2.311176906628415e-9 4.428857633841399e-10 4.466578126364787e-9 5.450653332927024e-10 5.560648907995404e-9
          6.631639393612946e-10 1.1709920769253038e-9 3.1133249766873427e-9 2.1639942021562384e-9 5.371831911378952e-9 8.472996981616838e-10
          1.890473499190224e-9 3.510075410845224e-10 5.275356240491235e-10 4.903802820633715e-10 1.3648279383355576e-9 3.4630808906533423e-10
          3.0713237245211183e-9 5.290824053167947e-10 2.5558745776079375e-9 7.86071737153376e-9 6.049269694392023e-9 9.131060003531835e-9
          4.510949064176952e-9 6.167960010192436e-10 3.830848108569136e-9 9.836629308785906e-10 5.244436753716519e-9 7.14899451096141e-10
          4.46627604071191e-9 2.7410675671917415e-10 1.63674286843176e-10 1.3041139097472524e-10 1.532038138579389e-10 2.343999387699979e-10
          1.885659489864595e-10 2.6951634559547e-10 3.087931994904679e-10 8.882596644148976e-10 6.780738675239807e-10 4.67888070633064e-10
          2.824626669787459e-10 2.1903084187916871e-10 7.537766195373434e-10 5.448429286452636e-10 7.914864703756592e-11 3.3158636170907437e-10
          2.24067711810728e-10 1.5559901677959158e-10 3.359092377531839e-10 1.1654906191238163e-10 2.5001735299195397e-11 1.9184763068010187e-11
          2.6387977144564557e-11 2.307539098570321e-11 9.340716328758042e-12 8.896805530769484e-12 9.627348116496939e-12 1.336779083682498e-11
          1.9762804826841858e-11 1.035789070222439e-11 9.268362149379992e-10 1.6755812358298904e-9 1.3061190754837006e-9 6.198505236704636e-10
          8.121250995525739e-10 6.236492073712721e-10 1.873412000421597e-10 2.8461513686750554e-10 1.5644718604242095e-10 2.6276963537728524e-10
          2.2249513855115386e-10 1.1112604031026679e-10 1.832774862887969e-10 3.905563714039627e-11 8.81951220754928e-11 1.5811764504777206e-10
          5.7266660375002444e-11 3.8643801926066344e-11 3.183225414126892e-11 5.4523351452468645e-12 1.750906876128911e-11 1.4349616966076883e-11
          1.7292870378175203e-11 9.766813431927326e-12 8.348409009104137e-12 4.390438315528389e-12 7.549803373908137e-12 7.131783618329357e-12
          1.4486332999689127e-11 8.179496793763615e-12 1.231725519616955e-10 2.934012596940484e-10 5.8071028229666767e-11 1.1373592649166414e-10
          5.61759012482181e-11 9.131220420941702e-11 3.8569653125246236e-11 2.00830612773173e-10 2.3472694823565894e-10 1.935605479467533e-10
          1.5985442906074244e-10 2.0899166195522658e-10 7.620200394505652e-11 1.2485121787829852e-10 1.2365490069662113e-10 1.4554428347088096e-10
          6.612948245910611e-11 2.377206517873263e-11 4.427837998943879e-11 1.4018367815664061e-11 2.2110699897074745e-11 1.5150177580619746e-11
          2.600083371478694e-11 1.7270721506370255e-11 1.6282564370679486e-10 2.1086779336646932e-10 1.6882442243765451e-10 4.0685670137367714e-10
          1.1245855558984802e-10 1.5329686025149173e-10 9.332508247791405e-11 1.240753219216915e-10 5.669668157563451e-11 3.0303479283257276e-10
          2.2161056262643566e-10 7.085185244627885e-10 4.544616202934803e-10 1.76334881752291e-9 5.827036869225203e-10 3.5378184605885006e-10
          2.01552252049185e-10 1.4238321968303154e-9 8.977336826344228e-10 7.652342475889076e-10 2.073087065738703e-10 2.694674219714572e-10
          2.105118049749905e-10 4.902638445365398e-10 1.5100033408349912e-10 2.0258060978726754e-10 7.089086257545839e-11 1.0435259169906314e-10
          1.1506780232181009e-10 1.5107468827022964e-10 6.932663549599875e-11 3.7872673084769284e-10 2.1152404154485062e-10 2.7429853737012517e-10
          1.7624168168677703e-11 2.6993083630772358e-11 1.991902551600418e-11 6.103245095213262e-11 1.2066195359218998e-10 8.661218257074568e-11
          5.900563183108345e-10 3.8560409670256304e-10 2.796897739661392e-10 3.86307527498752e-11 5.834022591286405e-11 3.017174194196156e-11
          4.366906603067977e-11 2.720219727471557e-11 3.9025034794022395e-11 3.1034370161516047e-11 1.2528221975120612e-10 8.994752029845767e-11
          7.741106259821699e-11 3.5822613011041695e-9 1.889463996453885e-9 6.766710697563782e-9 2.969324672192246e-9 1.978115428914012e-9
          1.5143889544733142e-9 9.361742148681236e-10 5.710535528009405e-9 3.95495566768021e-9 2.8646409639258652e-9 8.202706065484084e-10
          6.354350969714806e-10 1.4630757483534213e-9 6.676563332994659e-10 4.1564730971293774e-10 4.72827088643303e-10 2.4759199377719003e-10
          1.2064827220221438e-9 7.724939050710587e-10 6.715048725746409e-10 1.1367440191104936e-8 6.036900948130028e-9 9.786326652100913e-9
          7.066405028679742e-9 4.910944896406002e-9 3.1689418204288595e-9 7.605861389891295e-9 2.465524097382407e-9 1.2089001607176935e-9
          3.656113317209095e-9 2.041860680085385e-9 1.3230054861067364e-9 9.22841959704018e-10 6.171847573165628e-10 3.0791105945499612e-9
          2.0591674661005835e-9 1.3758960822193656e-9 1.3203786863949811e-8 1.0893417872910637e-8 7.266441538367727e-9 1.3962031490130418e-8
          5.022854726115751e-9 2.4339758987296266e-9 6.202349287475964e-9 4.2712520381196995e-9 2.9101600986666335e-9 1.8803049961587248e-9
          1.079237924969611e-9 5.346542740289648e-9 3.72698623437062e-9 2.331248818726741e-9 1.960925650006038e-8 1.6233150505064252e-8
          1.0950699552653734e-8 1.716082890349622e-8 6.983156982836576e-9 3.394244695010725e-9 7.291634567985291e-9 6.0925476369922185e-9
          4.327821813099012e-9 2.6427644935194496e-9 1.5573622794752905e-9 6.37906868706568e-9 4.550740441819082e-9 2.762345126392712e-9
          1.3385252453244845e-9 8.917328900662862e-10 6.044345339988582e-10 3.894986016911503e-10 2.7466967371520986e-9 1.8630732119034484e-9
          1.1903562080031648e-9 2.5694920757242614e-10 1.6004725180477888e-10 1.4916772496128783e-10 9.157420199282564e-11 4.852801195812694e-10
          3.0549171614388887e-10 2.737022859095544e-10 5.046291050954634e-9 3.4880677118029736e-9 2.1316206087858198e-9 1.4130800724383685e-9
          3.447456202090322e-9 1.4985422012595297e-9 8.417077982166275e-10 5.348803891975157e-10 4.659576316699571e-10 2.859358863230654e-10
          1.329117115324107e-9 8.524489163166862e-10 5.741129977481944e-10 5.373321528970242e-10 2.1863909503667055e-10 5.015745367968759e-9
          3.3939920374211405e-9 6.547870248195094e-9 2.214342918681205e-9 1.898706721117985e-9 1.2273255576875386e-9 6.774295839703492e-10
          4.231572043771851e-10 2.4512024825904743e-9 1.5923562723924146e-9 8.672956729625496e-10 7.777610459740724e-10 2.5963074604055565e-10
          7.674103189784109e-9 5.264731561325318e-9 8.08901876686827e-9 2.860059228983329e-9 1.8619471957530766e-9 1.0004701750743263e-9
          6.313284161714954e-10 3.0111317363624737e-9 1.961468893791853e-9 1.049474619822098e-9 3.48160485713898e-10 4.288675648804614e-10
          3.4133857844486665e-10 5.921182940022091e-10 2.8020836789767434e-10 3.4389578796514147e-10 2.1225625008145066e-10 2.589240110498216e-10
          2.1805396482318556e-10 2.58793890121511e-10 1.7624920179815545e-10 4.821727390647867e-10 3.330267239189577e-10 3.4268122596505247e-10
          7.621279372285366e-10 5.908182037792723e-10 9.182101509933657e-10 6.340426797359877e-10 4.019045627956869e-10 4.284339342922772e-10
          2.1930148339933635e-10 7.714385360298294e-10 4.982493942910323e-10 5.095872026145418e-10 1.0457552431264962e-9 8.109929088114299e-10
          1.1046841147659407e-9 8.772572299375042e-10 5.654304309260813e-10 5.800459139678358e-10 2.824714076693808e-10 9.229604771903598e-10
          5.914269989921316e-10 6.11956654780874e-10 2.0786654366647767e-10 2.409910584973744e-10 1.2818815698626543e-10 1.4747820599875075e-10
          1.38549333672848e-10 1.3930229955746128e-10 8.615710396312866e-11 2.9972747807448e-10 1.8333193731894218e-10 1.5220961046420423e-10
          7.681345838114395e-11 8.82653326226184e-11 5.48269036957653e-11 5.6183933695037504e-11 3.4111152727555845e-10 2.0969784385732466e-10
          1.7220522332618105e-10 1.0392894434318442e-10 3.56883671730428e-10 2.1950006808800104e-10 1.8004649116602821e-10 1.27717106119376e-8
          1.4883018039810993e-8 1.066692070703007e-8 1.3938253613444385e-8 4.756880546679348e-8 5.642942641540867e-8 4.579995215127707e-8
          6.680576783340741e-9 1.2838045552696904e-8 2.0864055007958427e-9 6.718471824265698e-9 2.1797975737327956e-9 3.217778818346484e-9
          7.587297704218844e-9 1.251810365892235e-7 5.37860863564883e-8 3.6433251343189795e-8 8.878674104995186e-8 3.610731754138636e-8
          1.4398144351318782e-7 7.482400907473633e-8 6.222817425747707e-8 2.9302636492605547e-8 1.1154231447829142e-7 6.61876380912644e-8
          3.497013142808671e-9 1.7325462634251457e-7 9.023624194278617e-8 1.9136239621305738e-9 9.467461967564312e-9 5.042793049492771e-9
          1.381764070765483e-10 2.167608973848292e-8 4.657681287691481e-11 1.007076705776939e-7 4.000586332708665e-8 1.0328473172315399e-7
          1.1747538605021988e-7 5.772559369758422e-8 7.703357708815563e-8 2.090830414607733e-8 3.577295704617e-8 1.665650491726652e-7
          1.318265129904166e-7 7.155649474775322e-8 7.745783709272713e-8 1.6885370492964965e-7 1.0845107637051752e-7 6.129365108805836e-8
          2.0312655051400794e-7 2.116752744239464e-7 1.0851669089972859e-7 1.8814970027328533e-7 2.4614694985418515e-7 1.245580022502134e-7
          1.0177575660599995e-7 1.200229168019465e-7 1.043748885752237e-9 8.204836436856807e-10 2.5744421879672825e-10 2.1060546276370656e-10
          4.028278645744731e-10 1.1938354626976766e-10 3.996900400180168e-9 3.2558064160482335e-9 6.15887555252144e-9 6.613352309192644e-11
          1.0366366032995146e-10 6.52226482037348e-11 5.4417842016379436e-11 3.2579107593393684e-11 1.801575617872622e-11 1.5428650928185896e-10
          2.913399051756177e-10 2.1461823327895233e-10 4.4582904519983775e-11 1.0480818944398885e-10 7.051833646277736e-11 4.683455191033429e-10
          2.5656286467901115e-10 1.5689699056174836e-10 1.1567384190364354e-9 9.774639650080107e-10 6.643311456464869e-10 3.743525576824255e-10
          2.5482570342427556e-9 1.6811714085846522e-9 2.212023528957349e-11 3.553613801733725e-11 1.7166129012080593e-11 2.576153024563394e-11
          9.215964796582167e-11 6.822585229544856e-11 2.397838169626295e-10 1.5295606886657797e-10 4.412563148121757e-10 1.1472594999297433e-9
          2.901928196706492e-10 7.713039606705494e-10 6.320766213203972e-9 5.402206828165019e-9 3.8398709984053465e-9 1.0593428904478105e-8
          7.831475699214103e-9 2.0731407826313452e-8 1.8297828014009598e-8 1.399270591425716e-8 2.7751757418623298e-8 1.5118399616255507e-8
          1.7293001322209743e-8 2.221864043002817e-8 1.1277052576704352e-8 2.4762385326156145e-8 2.1607142979371478e-8 1.618609928457425e-8
          3.147379604593282e-8 2.7605589782400228e-8 2.0920243123409113e-8 3.660746470497478e-8 3.210505657507322e-8 2.4396964294227838e-8
          3.8907622869425916e-8 3.397246046357783e-8 2.5686562874582422e-8 2.7133188403977135e-9 1.8654097720378393e-9 5.705987488062067e-9
          4.014917027458939e-9 1.0529019630273225e-8 7.598890850542276e-9 1.711713111247287e-8 8.254594411198907e-9 1.2602777462537828e-8
          5.811701789600156e-9 1.2032522941810116e-8 8.597294242252126e-9 1.570363064548202e-8 1.1320461490449394e-8 3.899082202408684e-9
          5.83988781556854e-9 1.841623516943828e-8 1.3329376879607486e-8 1.9421392969506022e-8 1.4072014095176207e-8
        </DataArray>
        <DataArray type="Float64" Name="gradient_matprop_error" format="ascii" RangeMin="0" RangeMax="0">
          0 0 0 0 0 0
          0 0 0 0 0 0
          0 0 0 0 0 0
          0 0 0 0 0 0
          0 0 0 0 0 0
          0 0 0 0 0 0
          0 0 0 0 0 0
          0 0 0 0 0 0
          0 0 0 0 0 0
          0 0 0 0 0 0
          0 0 0 0 0 0
          0 0 0 0 0 0
          0 0 0 0 0 0
          0 0 0 0 0 0
          0 0 0 0 0 0
          0 0 0 0 0 0
          0 0 0 0 0 0
          0 0 0 0 0 0
          0 0 0 0 0 0
          0 0 0 0 0 0
          0 0 0 0 0 0
          0 0 0 0 0 0
          0 0 0 0 0 0
          0 0 0 0 0 0
          0 0 0 0 0 0
          0 0 0 0 0 0
          0 0 0 0 0 0
          0 0 0 0 0 0
          0 0 0 0 0 0
          0 0 0 0 0 0
          0 0 0 0 0 0
          0 0 0 0 0 0
          0 0 0 0 0 0
          0 0 0 0 0 0
          0 0 0 0 0 0
          0 0 0 0 0 0
          0 0 0 0 0 0
          0 0 0 0 0 0
          0 0 0 0 0 0
          0 0 0 0 0 0
          0 0 0 0 0 0
          0 0 0 0 0 0
          0 0 0 0 0 0
          0 0 0 0 0 0
          0 0 0 0 0 0
          0 0 0 0 0 0
          0 0 0 0 0 0
          0 0 0 0 0 0
          0 0 0 0 0 0
          0 0 0 0 0 0
          0 0 0 0 0 0
          0 0 0 0 0 0
          0 0 0 0 0 0
          0 0 0 0 0 0
          0 0 0 0 0 0
          0 0 0 0 0 0
          0 0 0 0 0 0
          0 0 0 0 0 0
          0 0 0 0 0 0
          0 0 0 0 0 0
          0 0 0 0 0 0
          0 0 0 0 0 0
          0 0 0 0 0 0
          0 0 0 0 0 0
          0 0 0 0 0 0
          0 0 0 0 0 0
          0 0 0 0 0 0
          0 0 0 0 0 0
          0 0 0 0 0 0
          0 0 0 0 0 0
          0 0 0 0 0 0
          0 0 0 0 0 0
          0 0 0 0 0 0
          0 0 0 0 0 0
          0 0 0 0 0 0
          0 0 0 0 0 0
          0 0 0 0 0 0
          0 0 0 0 0 0
          0 0 0 0 0 0
          0 0 0 0 0 0
          0 0 0 0 0 0
          0 0 0 0 0 0
          0 0 0 0 0 0
          0 0 0 0 0 0
          0 0 0 0 0 0
          0 0 0 0 0 0
          0 0 0 0 0 0
          0 0 0 0 0 0
          0 0 0 0 0 0
          0 0 0 0 0 0
          0 0 0 0 0 0
          0 0 0 0 0 0
          0 0 0 0 0 0
          0 0 0 0 0 0
          0 0 0 0 0 0
          0 0 0 0 0 0
          0 0 0 0 0 0
          0 0 0 0 0 0
          0 0 0 0 0 0
          0 0 0 0 0 0
          0 0 0 0 0 0
          0 0 0 0 0 0
          0 0 0 0 0 0
          0 0 0 0 0 0
          0 0 0 0 0 0
          0 0 0 0 0 0
          0 0 0 0 0 0
          0 0 0 0 0 0
          0 0 0 0 0 0
          0 0 0 0 0 0
          0 0 0 0 0 0
          0 0 0 0 0 0
          0 0 0 0 0 0
          0 0 0 0 0
        </DataArray>
        <DataArray type="Float64" Name="initial_marker" format="ascii" RangeMin="0" RangeMax="2">
          0 0 0 0 0 0
          0 0 0 0 0 0
          0 0 0 0 0 0
          0 0 0 0 0 0
          0 0 0 0 0 0
          0 0 0 0 0 0
          0 0 0 0 0 2
          0 0 0 0 0 0
          0 0 0 0 0 0
          0 0 0 0 0 0
          0 0 0 0 0 0
          0 0 0 0 0 0
          0 0 0 0 0 0
          0 0 0 0 0 0
          0 0 0 0 0 0
          0 0 0 0 0 0
          0 0 0 0 0 0
          0 0 0 0 0 0
          0 0 0 0 0 0
          0 0 0 0 0 0.25
          0 1.25 0 0 0 0
          0 0 2 1.75 2 0.25
          0.5 0 0 0 0 0
          0.5 0 0 0 0 0
          0 0 0 0 0 0
          0 0 0 0 0 0
          0 0 0 0 0 0
          0 0 0 0.5 1.5 0.5
          2 0.25 1 0.5 0 0.25
          0 2 2 0.5 0.5 0
          0 0 1.75 0 1.6666666666666667 2
          2 1.25 1 2 2 2
          2 2 2 2 2 2
          1 2 1.5 2 2 2
          2 0 0.5 0 1 0
          0.25 0 0 0 0 0
          0.5 0 0 1 0 1
          0.5 0 0 0 0.5 0
          0 0 0 0 0 0
          0 0 0 0 0 0
          0 0 0 0 0 0
          0 0 0 0 0 0
          0 0 0 0 0 0
          0 0 0 0 0 0
          0 0 0 0 0 0
          0 0 0 0 0 0
          0 0 0 0 0 0
          0 0 0 0 0 0
          0 0 0 0 0 0
          0 0 0 0 0 0
          0 0 0 0 0 0
          0 0 0 0 0 0
          0 0 0 0.5 0 1.5
          0 0.5 0 0 0 1.5
          0.6666666666666666 2 1.5 2 2 1.5
          1.5 2 2 2 0 0.5
          0 1 0 0.5 0 0.5
          0 0 0 1 1 0
          0 0 0 0.6666666666666666 1.5 1.6666666666666667
          2 2 2 0 0.5 0
          0.5 0 0 0 1 1
          0 2 2 2 2 2
          2 2 2 2 2 1.5
          1 2 1.5 1.5 1 1
          2 2 1.3333333333333333 2 2 2
          2 2 2 2 2 1.5
          2 2 2 1.5 1.6666666666666667 2
          2 2 2 2 2 2
          2 2 2 2 2 2
          2 2 2 2 2 2
          2 2 2 2 2 2
          2 2 2 2 2 2
          2 2 2 2 2 2
          2 1.5 1.5 1 1 2
          2 2 2 2 2 2
          2 2 2 2 2 2
          2 2 2 2 1.6666666666666667 2
          2 2 2 2 2 2
          2 2 2 2 2 1.75
          2 2 2 2 2 2
          2 2 2 2 0 0.5
          0 1 0 0.5 0 0.5
          0 0 0 1 1 0
          1 0 1 1 1 0
          0 1 1 0 1 0
          1 1 1 0 0 1
          1 0 1 1 1 1
          0 0 0 1 1 0
          0.5 0.75 0 0 1 1
          0 0 1 1 0 0
          0 0 0 0 0 0
          0 0 0 0 0 0
          0 1 1 1 1 0.6666666666666666
          2 2 1.25 0.3333333333333333 1.75 0.75
          0 2 1 0.5 2 2
          0 2 0 2 2 2
          2 2 2 2 2 2
          2 2 2 2 2 2
          2 2 2 2 2 2
          2 2 0 0 0 0
          0 0 1 1 1 0
          0 0 0 0 0 0
          1 1 0 1 0.5 2
          2 1.5 2 2 2 2
          2 2 0 0.5 0 0.5
          1.5 1.6666666666666667 2 2 2 2
          2 2 2 2 2 2
          2 2 2 2 2 2
          2 2 2 2 2 2
          2 2 2 2 2 2
          2 2 2 2 2 2
          2 2 2 2 2 2
          2 2 2 2 2 2
          2 2 2 2 2
        </DataArray>
        <DataArray type="Float64" Name="markers_norefine" format="ascii" RangeMin="0" RangeMax="0">
          0 0 0 0 0 0
          0 0 0 0 0 0
          0 0 0 0 0 0
          0 0 0 0 0 0
          0 0 0 0 0 0
          0 0 0 0 0 0
          0 0 0 0 0 0
          0 0 0 0 0 0
          0 0 0 0 0 0
          0 0 0 0 0 0
          0 0 0 0 0 0
          0 0 0 0 0 0
          0 0 0 0 0 0
          0 0 0 0 0 0
          0 0 0 0 0 0
          0 0 0 0 0 0
          0 0 0 0 0 0
          0 0 0 0 0 0
          0 0 0 0 0 0
          0 0 0 0 0 0
          0 0 0 0 0 0
          0 0 0 0 0 0
          0 0 0 0 0 0
          0 0 0 0 0 0
          0 0 0 0 0 0
          0 0 0 0 0 0
          0 0 0 0 0 0
          0 0 0 0 0 0
          0 0 0 0 0 0
          0 0 0 0 0 0