<?xml version="1.0"?>
<VTKFile type="UnstructuredGrid" version="0.1" byte_order="LittleEndian" header_type="UInt32" compressor="vtkZLibDataCompressor">
  <UnstructuredGrid>
    <Piece NumberOfPoints="577" NumberOfCells="346">
      <PointData>
        <DataArray type="Int32" Name="libmesh_node_id" format="ascii" RangeMin="659" RangeMax="5107">
          670 678 1339 1340 1342 1343
          1347 1348 1349 1365 1366 1367
          1368 1371 1372 1373 2241 2242
          2243 2244 2247 2249 2250 2251
          2252 2253 2254 2255 2256 2257
          2258 2259 2260 2261 2262 2271
          2279 2280 2281 2282 2286 2287
          2289 2290 2292 2307 2329 2330
          2332 2335 2337 2338 2339 2340
          2341 2342 2343 2344 2345 2346
          2348 2352 2358 2363 2364 2366
          2367 2369 2371 2372 2373 2374
          2375 2376 2377 2378 2379 2380
          2382 2386 2388 2392 2395 2396
          2399 2401 2402 2404 2429 2430
          2433 2435 2436 2438 2710 2711
          2713 2714 2716 2717 2724 2730
          2731 2736 2749 4033 4034 4035
          4036 4037 4038 4039 4040 4041
          4042 4043 4044 4045 4046 4047
          4048 4049 4050 4051 4052 4053
          4054 4055 4056 4057 4058 4059
          4060 4061 4062 4063 4064 4065
          4066 4067 4068 4069 4070 4071
          4072 4073 4074 4075 4076 4077
          4078 4079 4080 4081 4082 4083
          4084 4085 4086 4087 4088 4089
          4096 4097 4102 4108 4128 4129
          4130 4131 4132 4133 4134 4135
          4136 4137 4138 4139 4140 4141
          4156 4157 4158 4159 4160 4161
          4162 4163 4164 4165 4176 4177
          4178 4179 4180 4181 4182 4183
          4184 4185 4196 4197 4198 4199
          4200 4201 4202 4285 4286 4287
          4288 4292 4293 4295 4296 4346
          4347 4348 4349 4353 4354 4355
          4366 4367 4368 4369 4370 4371
          4372 4373 4374 4375 4383 4384
          4385 4386 4387 4388 4389 4390
          4391 4392 4393 4394 4395 4396
          4397 4398 4399 4400 4401 4402
          4403 4404 4405 4406 4407 4408
          4409 4410 4411 4412 4413 4414
          4415 4416 4417 4418 4419 4420
          4421 4422 4423 4424 4425 4426
          4427 4428 4429 4430 4431 4432
          4433 4434 4435 4436 4437 4438
          4439 4440 4441 4442 4443 4444
          4445 4446 4447 4448 4471 4476
          4477 4499 4500 4501 4502 4503
          4504 4505 4506 4507 4508 4516
          4517 4518 4519 4520 4521 4522
          4525 4526 4531 4533 4534 4535
          4536 4537 4538 4539 4540 4541
          4542 4550 4551 4552 4553 4554
          4555 4556 4557 4558 4559 4560
          4561 4562 4563 4564 4565 4566
          4567 4568 4569 4570 4571 4572
          4573 4574 4575 4576 4577 4578
          4579 4580 4581 4582 4583 4584
          4585 4586 4587 4588 4589 4590
          4591 4592 4593 4594 4595 4596
          4597 4598 4599 4600 4601 4602
          4603 4604 4605 4606 4607 4608
          4609 4610 4611 4612 4613 4614
          4615 4616 4617 4618 4619 4620
          4621 4622 4623 4624 4635 4637
          4638 4639 4642 4643 4655 4657
          4658 4659 4662 4663 4675 4676
          4677 4678 4679 4680 4681 4682
          4683 4684 4695 4696 4697 4698
          4699 4700 4701 4709 4710 4711
          4712 4713 4714 4715 4716 4717
          4718 4725 4726 4728 4729 4730
          4731 4732 4733 4734 4735 4740
          4742 4846 4847 4853 4932 4933
          4934 4935 4936 4937 4938 4939
          4940 4941 4942 4943 4946 4948
          4949 4951 4952 4953 4954 4955
          4956 4957 4958 4959 4961 4963
          4965 4966 4967 4968 4969 4970
          4971 4972 4973 4974 4975 4976
          4977 4980 4982 4983 4985 4986
          4987 4988 4989 4990 4991 4992
          4993 4995 4997 4999 5068 5069
          5072 5073 5075 5079 5096 5097
          5100 5101 5103 5107 1288 1289
          659 1295 2245 2246 2327 2328
          2248 2331 2347 2336 2351 2365
          2381 2370 2385 4344 4358 4359
          4361 2333 4364 2334 4351 4377
          4379 4381 4491 4492 4494 2361
          4497 2362 4510 4512 4514 4495
          4496 4523 4524 4498 4528 4527
          4529 4530 2368 4532 4544 4546
          4548
        </DataArray>
        <DataArray type="Float64" Name="bounds" format="ascii" RangeMin="0" RangeMax="0">
          0 0 0 0 0 0
          0 0 0 0 0 0
          0 0 0 0 0 0
          0 0 0 0 0 0
          0 0 0 0 0 0
          0 0 0 0 0 0
          0 0 0 0 0 0
          0 0 0 0 0 0
          0 0 0 0 0 0
          0 0 0 0 0 0
          0 0 0 0 0 0
          0 0 0 0 0 0
          0 0 0 0 0 0
          0 0 0 0 0 0
          0 0 0 0 0 0
          0 0 0 0 0 0
          0 0 0 0 0 0
          0 0 0 0 0 0
          0 0 0 0 0 0
          0 0 0 0 0 0
          0 0 0 0 0 0
          0 0 0 0 0 0
          0 0 0 0 0 0
          0 0 0 0 0 0
          0 0 0 0 0 0
          0 0 0 0 0 0
          0 0 0 0 0 0
          0 0 0 0 0 0
          0 0 0 0 0 0
          0 0 0 0 0 0
          0 0 0 0 0 0
          0 0 0 0 0 0
          0 0 0 0 0 0
          0 0 0 0 0 0
          0 0 0 0 0 0
          0 0 0 0 0 0
          0 0 0 0 0 0
          0 0 0 0 0 0
          0 0 0 0 0 0
          0 0 0 0 0 0
          0 0 0 0 0 0
          0 0 0 0 0 0
          0 0 0 0 0 0
          0 0 0 0 0 0
          0 0 0 0 0 0
          0 0 0 0 0 0
          0 0 0 0 0 0
          0 0 0 0 0 0
          0 0 0 0 0 0
          0 0 0 0 0 0
          0 0 0 0 0 0
          0 0 0 0 0 0
          0 0 0 0 0 0
          0 0 0 0 0 0
          0 0 0 0 0 0
          0 0 0 0 0 0
          0 0 0 0 0 0
          0 0 0 0 0 0
          0 0 0 0 0 0
          0 0 0 0 0 0
          0 0 0 0 0 0
          0 0 0 0 0 0
          0 0 0 0 0 0
          0 0 0 0 0 0
          0 0 0 0 0 0
          0 0 0 0 0 0
          0 0 0 0 0 0
          0 0 0 0 0 0
          0 0 0 0 0 0
          0 0 0 0 0 0
          0 0 0 0 0 0
          0 0 0 0 0 0
          0 0 0 0 0 0
          0 0 0 0 0 0
          0 0 0 0 0 0
          0 0 0 0 0 0
          0 0 0 0 0 0
          0 0 0 0 0 0
          0 0 0 0 0 0
          0 0 0 0 0 0
          0 0 0 0 0 0
          0 0 0 0 0 0
          0 0 0 0 0 0
          0 0 0 0 0 0
          0 0 0 0 0 0
          0 0 0 0 0 0
          0 0 0 0 0 0
          0 0 0 0 0 0
          0 0 0 0 0 0
          0 0 0 0 0 0
          0 0 0 0 0 0
          0 0 0 0 0 0
          0 0 0 0 0 0
          0 0 0 0 0 0
          0 0 0 0 0 0
          0 0 0 0 0 0
          0
        </DataArray>
        <DataArray type="Float64" Name="gradient_error" format="ascii" RangeMin="1.7166129012080593e-11" RangeMax="2.4691773634586905e-7">
          5.509024346241169e-9 5.60486115625455e-8 5.37860863564883e-8 3.6433251343189795e-8 2.044282899286909e-10 1.0366366032995146e-10
          1.3941504286271463e-7 7.482400907473633e-8 1.6811714085846522e-9 6.995375276843052e-8 1.6885370492964965e-7 5.242373923896399e-8
          2.221864043002817e-8 9.427049659711063e-9 2.4691773634586905e-7 5.066211014758426e-8 6.15887555252144e-9 1.8113902155728712e-8
          1.5287747007092193e-8 9.467461967564312e-9 1.0249408684656035e-7 3.996900400180168e-9 3.2558064160482335e-9 9.802425766396427e-9
          8.232335820218653e-9 1.6898079346451708e-10 6.910831738557398e-10 5.350089264390715e-10 1.9136239621305738e-9 5.042793049492771e-9
          2.5656286467901115e-10 4.962708938777363e-8 4.0274071970451074e-8 4.0973421777702706e-9 2.167608973848292e-8 1.381764070765483e-10
          6.649525445221556e-11 5.476647945280213e-11 3.148378331990928e-10 2.344762764306962e-10 4.5685049746514836e-11 1.0991214726057275e-10
          2.8673694739544954e-9 2.0791501790235734e-9 7.713039606705494e-10 4.657681287691481e-11 1.1400318273740103e-7 1.301021895820436e-7
          1.1747538605021988e-7 1.0231206270000743e-7 6.580733923133965e-8 8.977237860222065e-8 2.3561756663163394e-8 1.870916119357278e-8
          7.745783709272713e-8 7.831475699214103e-9 6.464802697116607e-8 9.583692586580991e-8 4.920638791976086e-8 1.0845107637051752e-7
          5.772559369758422e-8 1.318265129904166e-7 6.129365108805836e-8 5.081399241645101e-8 8.845959461959078e-8 2.147491446551257e-7
          1.2877021107292044e-8 8.073520626890797e-8 6.671949838163408e-8 8.876819247375768e-8 6.229629012682044e-8 7.38768392737636e-8
          1.2363541236474014e-7 4.136913868788416e-8 3.181387590796264e-8 9.061526793650179e-8 8.13895335880479e-8 1.4496585225069687e-7
          2.116752744239464e-7 2.4614694985418515e-7 1.0177575660599995e-7 1.200229168019465e-7 1.436695341410707e-8 1.0985554090425277e-8
          4.014917027458939e-9 3.648005393381122e-8 3.128894565547251e-8 1.2602777462537828e-8 4.5059720448206125e-8 5.2018103994990015e-8
          2.4153851413922718e-8 4.3794736109611104e-8 5.843399074482026e-8 2.98829097285711e-8 1.043748885752237e-9 8.204836436856807e-10
          2.5744421879672825e-10 2.1060546276370656e-10 4.028278645744731e-10 1.1938354626976766e-10 6.613352309192644e-11 6.52226482037348e-11
          5.4417842016379436e-11 3.2579107593393684e-11 1.801575617872622e-11 4.2532781388028035e-10 5.761475877353199e-10 5.335455079667841e-10
          4.4974953822198173e-10 1.393636909608041e-9 3.175148009178747e-10 2.9465622033318717e-10 4.462260378525971e-10 4.1546718725022733e-10
          1.2294858524680875e-10 2.4774418264938456e-10 2.3295996765135296e-10 2.4742479433947526e-10 3.498934061112249e-10 1.953047922202739e-10
          1.1571444223387622e-9 1.0840969025631672e-9 6.482091828155675e-10 9.108552700990647e-10 2.8970048761965446e-10 3.691621471508332e-10
          2.913399051756177e-10 9.030185519322392e-10 2.0001646939619335e-10 2.8089827177560246e-10 8.232274700688445e-11 1.4885510966264196e-10
          1.5428650928185896e-10 2.1461823327895233e-10 1.0480818944398885e-10 6.901160104845783e-10 3.9075012698023167e-10 4.683455191033429e-10
          2.9059494758273813e-9 2.7294990636036596e-9 2.3384128232265157e-9 8.366980370187115e-9 2.634469911360871e-9 2.4670930907844897e-9
          2.0364454158755875e-9 1.8963066410300665e-9 2.065146743299189e-9 1.5304775229620353e-9 7.747483498571105e-9 7.129874857554581e-9
          5.121860208515769e-9 5.739787034079805e-9 1.8003584929197119e-9 1.1567384190364354e-9 4.9740696285127e-9 1.5367874666873233e-9
          1.0742351559319453e-9 9.774639650080107e-10 6.643311456464869e-10 4.131735548649495e-9 2.8155004250521287e-9 2.5482570342427556e-9
          4.4582904519983775e-11 7.051833646277736e-11 1.5689699056174836e-10 3.743525576824255e-10 6.88736152651676e-11 6.498962147022622e-11
          1.4600817697248722e-10 1.370876713145018e-10 3.8677375098580586e-11 9.239003456551623e-11 8.638662036510409e-11 5.503910627032238e-11
          1.1381122487247019e-10 7.096942229378426e-11 4.68887876884198e-10 4.3714052192943036e-10 2.924774482016989e-10 3.5433537851248e-10
          4.3151558602601964e-11 8.433654511018269e-11 2.610426032485448e-11 5.1485765990313166e-11 3.197341737515664e-11 5.6648499267921744e-11
          3.814527403025441e-11 2.5142790760043603e-10 1.6303788777997317e-10 1.5868924938326824e-10 1.4545779262658964e-9 1.349040992228043e-9
          1.0050800810894493e-9 9.294916423091318e-10 1.0735698723813457e-9 7.330096741941352e-10 4.0356682875779085e-9 3.743724445918301e-9
          2.651421336708404e-9 2.9652452526920403e-9 7.351245862121342e-10 4.941780196868979e-10 4.412563148121757e-10 2.901928196706492e-10
          1.989671217695643e-9 1.3708008554194466e-9 1.1472594999297433e-9 2.212023528957349e-11 3.553613801733725e-11 1.7166129012080593e-11
          2.576153024563394e-11 9.215964796582167e-11 6.822585229544856e-11 2.397838169626295e-10 1.5295606886657797e-10 5.714553301560783e-8
          5.572209001083745e-8 5.2627965742223623e-8 4.93358007215366e-8 3.859255771634664e-8 3.80410682423944e-8 3.281216099568715e-8
          6.099355521153586e-8 6.05121236181305e-8 5.957923922087581e-8 5.871221264645662e-8 5.647996861002943e-8 5.568399455854592e-8
          6.922946200157011e-8 7.036983889055956e-8 7.104814004047057e-8 7.00601599709478e-8 4.679494668302534e-8 4.5572904755191246e-8
          4.066064817071694e-8 3.97841979788196e-8 6.403261217759577e-8 6.548923310718467e-8 5.9455120192844994e-8 1.769290497819857e-8
          1.6232636507218553e-8 1.3247109672250803e-8 4.887932485339178e-8 4.7856528971837897e-8 3.4136860609612866e-8 4.683373309028401e-8
          1.5702300250073074e-8 1.457513042898038e-8 1.22823067287764e-8 1.1543522227177807e-8 1.1938363573386161e-8 9.424345493296354e-9
          2.8025423860988576e-8 2.6706217706043335e-8 2.2385170599441977e-8 2.2919229767598686e-8 9.986341504622552e-9 6.320766213203972e-9
          1.9445025241587976e-8 8.73041159091059e-9 6.528055102041862e-9 5.402206828165019e-9 3.8398709984053465e-9 1.7184813572109996e-8
          1.3239289458701363e-8 1.0593428904478105e-8 5.6547524702874886e-8 5.523887206688115e-8 5.196172285712015e-8 5.0461705512942295e-8
          5.393021943088743e-8 4.540718223306909e-8 6.839007098873983e-8 6.920767149776015e-8 6.527136018553011e-8 7.125017720559688e-8
          4.607079099235858e-8 4.4666589765033524e-8 3.933564495681638e-8 3.7960934973779255e-8 3.9123134870113585e-8 3.259663075190181e-8
          5.9080991193268174e-8 5.98314435681228e-8 5.2887606238853124e-8 5.676799480000239e-8 3.3035131551855005e-8 2.0731407826313452e-8
          6.714621442780133e-8 5.368141577696128e-8 6.059244125237289e-8 2.958086929628828e-8 2.345324433934233e-8 1.8297828014009598e-8
          1.399270591425716e-8 4.470221938235988e-8 3.703473254637385e-8 2.7751757418623298e-8 1.7293001322209743e-8 1.5118399616255507e-8
          1.1277052576704352e-8 7.232979051422832e-8 7.707303068548363e-8 7.514465985046529e-8 7.996439783209102e-8 8.095059739797892e-8
          8.310814679813266e-8 4.531813466375431e-8 6.288756894119053e-8 6.84870408127238e-8 8.428042143942468e-8 7.766215390992975e-8
          7.734645942560632e-8 7.523938388064056e-8 7.326076106866407e-8 8.544593866610034e-8 8.693571131635679e-8 8.278803767197809e-8
          1.651725904786332e-8 3.944868359578483e-8 3.3770176692340293e-8 1.4589851889918436e-8 4.044185095603277e-8 1.7594481184097552e-8
          4.6107561710672e-8 7.861471506856224e-8 8.479599565499456e-8 9.585668885108588e-9 3.381710484495612e-8 3.787001692982692e-8
          7.407359861085968e-8 8.861683195001312e-8 9.151649179672937e-8 8.629808378504887e-8 8.806163452071607e-8 8.859820568219754e-8
          9.217300078517487e-8 8.709775494747938e-8 7.542943633689053e-8 7.973346876297532e-8 7.241325088439821e-8 7.607120724734146e-8
          8.219892422802174e-8 7.846437748772382e-8 5.9077252929994307e-8 7.472706147308356e-8 7.794902051782449e-8 9.061906955580211e-8
          6.659350247355729e-8 6.995302949154033e-8 5.9007137268134924e-8 6.226842006307279e-8 7.234643966059931e-8 6.381427621467943e-8
          6.82311698110859e-8 7.536100062848024e-8 6.775105826491062e-8 8.27815461337242e-8 7.411199908771338e-8 6.860470617125432e-8
          6.786365090844337e-8 4.9749344734851376e-8 8.553941325924822e-8 8.124742995363196e-8 8.021755742306502e-8 6.118494942918207e-8
          5.192666069195823e-8 3.9019285884356106e-8 3.1920069647283695e-8 7.413279955851257e-8 6.43768208207395e-8 4.977216629628091e-8
          2.812096495317137e-8 5.6336600440044384e-8 4.43262613585995e-8 6.678777946177684e-8 9.035292803940648e-8 9.159380220833899e-8
          1.6381879295013514e-8 4.689188762627649e-8 5.851773201504642e-8 8.750365250060241e-8 5.6786099604750136e-8 7.167249675559736e-8
          5.966226687542343e-8 6.887571774554774e-8 8.767188682901128e-8 7.961051744099252e-8 4.7664838166482154e-8 6.697968989251114e-8
          6.784496566219709e-8 8.850347935969369e-8 9.149792219064552e-8 8.82094641005195e-8 8.684222422939543e-8 6.913866708718413e-8
          9.299480161042001e-8 9.033538700154711e-8 8.838419417717468e-8 8.173535961196806e-8 7.212195599661045e-8 5.7251843222614395e-8
          4.819694186574317e-8 8.421516671999461e-8 7.47095032883939e-8 5.990429544012548e-8 2.4762385326156145e-8 3.147379604593282e-8
          2.1607142979371478e-8 1.618609928457425e-8 2.7605589782400228e-8 2.0920243123409113e-8 3.660746470497478e-8 3.8907622869425916e-8
          3.210505657507322e-8 2.4396964294227838e-8 3.397246046357783e-8 2.5686562874582422e-8 9.535058547109378e-9 8.911265189020029e-9
          7.040762226309075e-9 6.5446625984528216e-9 7.149384196200181e-9 5.172300549560599e-9 1.8821139797499044e-8 1.7811187852279754e-8
          1.3531172161959369e-8 1.46814946120469e-8 4.8025110647151466e-9 3.3969343971166514e-9 2.7133188403977135e-9 1.8654097720378393e-9
          1.0082094640803307e-8 7.346069951742406e-9 5.705987488062067e-9 3.204430430640585e-8 3.075149021640939e-8 2.4774055484236423e-8
          2.368505282577985e-8 2.604533815177472e-8 1.9856299710724774e-8 4.492000304798763e-8 4.4683601914545814e-8 3.575339352953436e-8
          4.0254792178920886e-8 2.763689939452866e-8 2.682882712180138e-8 2.304877811682248e-8 1.832162029429101e-8 1.3690265392204824e-8
          1.0529019630273225e-8 7.598890850542276e-9 2.9373356386305173e-8 2.2249999228395205e-8 1.711713111247287e-8 1.6036351187510567e-8
          8.79654333126044e-9 8.254594411198907e-9 5.811701789600156e-9 3.899082202408684e-9 5.1254915355124453e-8 5.389252055981455e-8
          4.403078594203146e-8 4.535818826884439e-8 5.367646388294566e-8 4.305952468117581e-8 5.3033683045003554e-8 5.815829288060299e-8
          4.9438730324636326e-8 6.319202585998356e-8 3.591224402806048e-8 3.596359035877524e-8 3.248223943088614e-8 3.92760174750548e-8
          4.154595808675933e-8 4.058309579409822e-8 4.184109644355817e-8 3.207260857114522e-8 2.483909006257247e-8 1.8467749399956596e-8
          5.292575873106231e-8 4.1225053385334386e-8 3.233847410893717e-8 2.334007992933597e-8 1.3069157405790784e-8 3.0300512112715354e-8
          1.7218313019929808e-8 5.3596491874936026e-8 6.019560252938357e-8 4.4063823897063143e-8 5.0349473063018634e-8 6.86247864198014e-8
          5.694738629531016e-8 5.343507464845835e-8 6.074112946431736e-8 5.053344306036098e-8 7.041588182536948e-8 3.8506865709744837e-8
          4.306063429310789e-8 4.5450040337452526e-8 3.772608155678372e-8 4.3088627431675955e-8 4.692087169255094e-8 6.019583975999117e-8
          4.751527280985259e-8 3.782513988128096e-8 2.8338445098578973e-8 6.26732880622193e-8 4.9705463034325295e-8 3.9841890122263546e-8
          3.529510622188094e-8 2.0268770554501487e-8 3.7094117481968816e-8 2.139239931746574e-8 1.2032522941810116e-8 8.597294242252126e-9
          1.570363064548202e-8 1.1320461490449394e-8 5.83988781556854e-9 7.765256977155882e-9 1.841623516943828e-8 1.3329376879607486e-8
          1.9421392969506022e-8 1.4072014095176207e-8 9.192118713020316e-9 9.719653379280566e-9 1.251810365892235e-7 8.878674104995186e-8
          2.3094722807762053e-7 1.4398144351318782e-7 2.0517382644905913e-7 1.7374287254817549e-7 1.3221184160158953e-7 1.1225275341376567e-7
          1.007076705776939e-7 1.0328473172315399e-7 7.703357708815563e-8 1.6115170709153613e-7 1.665650491726652e-7 1.8907912053407247e-7
          2.0312655051400794e-7 1.6819759231040185e-7 1.8814970027328533e-7 5.7519346374941865e-8 6.076258778694357e-8 6.062921955850344e-8
          5.774237040248362e-8 6.642611407079236e-8 6.771699850987962e-8 6.883426288015234e-8 3.998752327399475e-8 4.876067484059802e-8
          4.253246020629213e-8 6.469522669841641e-8 6.840379871167932e-8 7.253031224535407e-8 7.669296110122015e-8 4.3194092544987866e-8
          5.924645535612165e-8 7.931846013244183e-8 7.550940164633622e-8 7.4289706869261e-8 8.133073920715135e-8 4.3260811310290756e-8
          5.6438779937057474e-8 2.207659265924163e-8 4.0723368362363803e-8 7.334916324452129e-8 7.360151726673344e-8 6.834731681193974e-8
          1.8440289473128544e-8 3.544886312915201e-8 6.900561723633019e-8 6.400269114001199e-8 8.306145225261379e-8 7.509009719904945e-8
          8.262360239396582e-8
        </DataArray>
        <DataArray type="Float64" Name="gradient_matprop_error" format="ascii" RangeMin="0" RangeMax="0">
          0 0 0 0 0 0
          0 0 0 0 0 0
          0 0 0 0 0 0
          0 0 0 0 0 0
          0 0 0 0 0 0
          0 0 0 0 0 0
          0 0 0 0 0 0
          0 0 0 0 0 0
          0 0 0 0 0 0
          0 0 0 0 0 0
          0 0 0 0 0 0
          0 0 0 0 0 0
          0 0 0 0 0 0
          0 0 0 0 0 0
          0 0 0 0 0 0
          0 0 0 0 0 0
          0 0 0 0 0 0
          0 0 0 0 0 0
          0 0 0 0 0 0
          0 0 0 0 0 0
          0 0 0 0 0 0
          0 0 0 0 0 0
          0 0 0 0 0 0
          0 0 0 0 0 0
          0 0 0 0 0 0
          0 0 0 0 0 0
          0 0 0 0 0 0
          0 0 0 0 0 0
          0 0 0 0 0 0
          0 0 0 0 0 0
          0 0 0 0 0 0
          0 0 0 0 0 0
          0 0 0 0 0 0
          0 0 0 0 0 0
          0 0 0 0 0 0
          0 0 0 0 0 0
          0 0 0 0 0 0
          0 0 0 0 0 0
          0 0 0 0 0 0
          0 0 0 0 0 0
          0 0 0 0 0 0
          0 0 0 0 0 0
          0 0 0 0 0 0
          0 0 0 0 0 0
          0 0 0 0 0 0
          0 0 0 0 0 0
          0 0 0 0 0 0
          0 0 0 0 0 0
          0 0 0 0 0 0
          0 0 0 0 0 0
          0 0 0 0 0 0
          0 0 0 0 0 0
          0 0 0 0 0 0
          0 0 0 0 0 0
          0 0 0 0 0 0
          0 0 0 0 0 0
          0 0 0 0 0 0
          0 0 0 0 0 0
          0 0 0 0 0 0
          0 0 0 0 0 0
          0 0 0 0 0 0
          0 0 0 0 0 0
          0 0 0 0 0 0
          0 0 0 0 0 0
          0 0 0 0 0 0
          0 0 0 0 0 0
          0 0 0 0 0 0
          0 0 0 0 0 0
          0 0 0 0 0 0
          0 0 0 0 0 0
          0 0 0 0 0 0
          0 0 0 0 0 0
          0 0 0 0 0 0
          0 0 0 0 0 0
          0 0 0 0 0 0
          0 0 0 0 0 0
          0 0 0 0 0 0
          0 0 0 0 0 0
          0 0 0 0 0 0
          0 0 0 0 0 0
          0 0 0 0 0 0
          0 0 0 0 0 0
          0 0 0 0 0 0
          0 0 0 0 0 0
          0 0 0 0 0 0
          0 0 0 0 0 0
          0 0 0 0 0 0
          0 0 0 0 0 0
          0 0 0 0 0 0
          0 0 0 0 0 0
          0 0 0 0 0 0
          0 0 0 0 0 0
          0 0 0 0 0 0
          0 0 0 0 0 0
          0 0 0 0 0 0
          0 0 0 0 0 0
          0
        </DataArray>
        <DataArray type="Float64" Name="initial_marker" format="ascii" RangeMin="0" RangeMax="2">
          2 2 1 1 1 0
          2 2 2 2 2 2
          2 2 2 2 1 2
          2 2 2 1 1 2
          2 1 2 2 0.5 2
          2 2 2 2 2 0
          1 0.75 2 2 0 1.75
          2 2 2 0 2 2
          2 2 2 2 2 2
          2 2 2 2 2 2
          2 2 2 2 2 2
          2 2 2 2 2 2
          2 2 2 2 2 2
          2 2 2 2 2 2
          2 2 2 2 2 2
          2 2 2 2 0 0
          0 0 0 0 0 0
          0 0 0 2 2 2
          2 2 2 2 2 2
          2 2 2 2 2 2
          2 2 2 2 1 1.5
          1 2 1 1.5 1 1.5
          0 1 1 2 2 2
          2 2 2 2 2 2
          2 2 2 2 2 2
          2 2 2 2 2 2
          2 2 2 2 2 2
          0 0.5 1.5 2 2 2
          2 2 2 2 2 2
          2 1.75 2 2 2 2
          1 1.5 0.5 1.25 0 1
          1 2 2 2 2 2
          2 2 2 2 2 2
          2 2 2 2 2 2
          2 2 2 0 0.5 0
          0.5 1.5 1.6666666666666667 2 2 2
          2 2 2 2 2 2
          2 2 2 2 2 2
          2 2 2 2 2 2
          2 2 2 2 2 2
          2 2 2 2 2 2
          2 2 2 2 2 2
          2 2 2 2 2 2
          2 2 2 2 2 2
          2 2 2 2 2 2
          2 2 2 2 2 2
          2 2 2 2 2 2
          2 2 2 2 2 2
          2 2 2 2 2 2
          2 2 2 2 2 2
          2 2 2 2 2 2
          2 2 2 2 2 2
          2 2 2 2 2 2
          2 2 2 2 2 2
          2 2 2 2 2 2
          2 2 2 2 2 2
          2 2 2 2 2 2
          2 2 2 2 2 2
          2 2 2 2 2 2
          2 2 2 2 2 2
          2 2 2 2 2 2
          2 2 2 2 2 2
          2 2 2 2 2 2
          2 2 2 2 2 2
          2 2 2 2 2 2
          2 2 2 2 2 2
          2 2 2 2 2 2
          2 2 2 2 2 2
          2 2 2 2 2 2
          2 2 2 2 2 2
          2 2 2 2 2 2
          2 2 2 2 2 2
          2 2 2 2 2 2
          2 2 2 2 2 2
          2 2 2 2 2 2
          2 2 2 2 2 2
          2 2 2 2 2 2
          2 2 2 2 2 2
          2 2 2 2 2 2
          2 2 2 2 2 2
          2 2 2 2 2 2
          2 2 2 2 2 2
          2 2 2 2 2 2
          2 2 2 2 2 2
          2 2 2 2 2 2
          2 2 2 2 2 2
          2 2 2 2 2 2
          2 2 2 2 1 1
          2 2 2 2 2 2
          2 2 2 2 2 2
          2 2 2 2 2 2
          2 2 2 2 2 2
          2 2 2 2 2 2
          2 2 2 2 2 2
          2 2 2 2 2 2
          2 2 2 2 2 2
          2
        </DataArray>
        <DataArray type="Float64" Name="markers_norefine" format="ascii" RangeMin="0" RangeMax="2">
          0 2 0 0 0 0
          0 0 0 2 0 1
          0 2 1 0 0 0
          0 0 0 0 0 0
          0 0 0 0 0 0
          0 0 0 0 0 0
          0 0 0 0 0 0
          0 0 0 0 0 0
          0 1.5 0 0 0 0
          0 0 2 1 0.25 0
          0 0 0 2 2 1
          2 2 2 2 2 1.75
          0.25 0 2 2 2 1
          0 0 0 0 0 0
          0 0 0 0 1.5 0.5
          0 2 1 0 0 0
          0 0 0 0 0 0
          0 0 0 0 0 0
          0 0 0 0 0 0
          0 0 0 0 0 0
          0 0 0 0 0 0
          0 0 0 0 0 0
          0 0 0 0 0 0
          0 0 0 0 0 0
          0 0 0 0 0 0
          0 0 0 0 0 0
          0 0 0 0 0 0
          0 0 0 0 0 0
          0 0 0 0 0 0
          0 0 0 0 0 0
          0 0 0 0 0 0
          0 0 0 0 0 0
          0 0 0 0 0 0
          0 0 0 0 0 0
          0 0 0 0 0 0
          0 0 0 0 0 0
          0 0 0 0 0 0
          1 1 1 1 0.75 0.6666666666666666
          2 2 2 1.75 0.25 0
          0 0 0.75 0.6666666666666666 0 0
          0 0 0 0 0 0
          0 0 0 0 0 0
          0 0 0 0 0 0
          0 0 0 0 0 0
          0 0 1 1 1 0.75
          1 0.3333333333333333 2 2 1.75 2
          0.5 0.25 0 0 0 0
          1.5 1.25 0.75 0.5 0 0
          1 0.3333333333333333 0 0 0 0
          0 0 0 0 0 0
          0 2 2 2 2 2
          2 2 2 2 2 1.5
          1.5 1 1 2 2 2
          2 2 2 2 2 2
          2 2 2 2 2 2
          2 2 2 2 2 2
          2 2 2 2 2 2
          2 1.75 2 2 2 2
          2 2 2 1.75 1.5 1
          2 2 2 2 1.25 0.75
          0.5 0 1.75 1.25 1.5 0.5
          0.25 0 0 1 0.75 0
          2 2 2 2 2 2
          2 2 2 2 2 2
          2 2 2 2 2 2
          2 2 2 1.75 2 1
          2 2 2 1.25 1 0.25
          0 1.5 1 0.5 0 0
          0 0 0 0 0 0
          0 0 0 0 0 0
          0 0 0 0 0 0
          0 0 0 0 0 0
          0 0 0 0 0 0
          0 0 0 0.5 0.25 0
          0 0 0 0 0 0
          0 0 0 0 0 0
          0 0 0 0 1.5 1.25
          0.5 0.5 0.5 0.25 2 2
          1.25 1.25 0 0 0 0.5
          0.25 0 0 0 0 0
          0.25 0 0 0 0 0
          0 2 2 2 1.75 1.5
          0.75 2 2 2 1.5 1
          0.75 0.25 1 1 0.5 0.5
          0 0 0 0.5 0 0
          0 0 0 0 0 0
          0 0 0 0 0 0
          0 0 0 0 0 0
          0 0 0 0 0 0
          0 0 0 0.25 0 1
          0 1.5 0 0 1 1
          1 2 2 2 0 0.5
          0 1.25 2 2 2 2
          2 2 1.75 1.5 2 2
          2 2 2 2 2 2
          2 2 2 2 2 1.6666666666666667
          2
        </DataArray>
        <DataArray type="Float64" Name="markers_mustrefine" format="ascii" RangeMin="0" RangeMax="2">
          2 2 1 1 1 0
          2 2 2 2 2 2
          2 2 2 2 1 2
          2 2 2 1 1 2
          2 1 2 2 0.5 2
          2 2 2 2 2 0
          1 0.75 2 2 0 1.75
          2 2 2 0 2 2
          2 2 2 2 2 2
          2 2 2 2 2 2
          2 2 2 2 2 2
          2 2 2 2 2 2
          2 2 2 2 2 2
          2 2 2 2 2 2
          2 2 2 2 2 2
          2 2 2 2 0 0
          0 0 0 0 0 0
          0 0 0 2 2 2
          2 2 2 2 2 2
          2 2 2 2 2 2
          2 2 2 2 1 1.5
          1 2 1 1.5 1 1.5
          0 1 1 2 2 2
          2 2 2 2 2 2
          2 2 2 2 2 2
          2 2 2 2 2 2
          2 2 2 2 2 2
          0 0.5 1.5 2 2 2
          2 2 2 2 2 2
          2 1.75 2 2 2 2
          1 1.5 0.5 1.25 0 1
          1 2 2 2 2 2
          2 2 2 2 2 2
          2 2 2 2 2 2
          2 2 2 0 0.5 0
          0.5 1.5 1.6666666666666667 2 2 2
          2 2 2 2 2 2
          2 2 2 2 2 2
          2 2 2 2 2 2
          2 2 2 2 2 2
          2 2 2 2 2 2
          2 2 2 2 2 2
          2 2 2 2 2 2
          2 2 2 2 2 2
          2 2 2 2 2 2
          2 2 2 2 2 2
          2 2 2 2 2 2
          2 2 2 2 2 2
          2 2 2 2 2 2
          2 2 2 2 2 2
          2 2 2 2 2 2
          2 2 2 2 2 2
          2 2 2 2 2 2
          2 2 2 2 2 2
          2 2 2 2 2 2
          2 2 2 2 2 2
          2 2 2 2 2 2
          2 2 2 2 2 2
          2 2 2 2 2 2
          2 2 2 2 2 2
          2 2 2 2 2 2
          2 2 2 2 2 2
          2 2 2 2 2 2
          2 2 2 2 2 2
          2 2 2 2 2 2
          2 2 2 2 2 2
          2 2 2 2 2 2
          2 2 2 2 2 2
          2 2 2 2 2 2
          2 2 2 2 2 2
          2 2 2 2 2 2
          2 2 2 2 2 2
          2 2 2 2 2 2
          2 2 2 2 2 2
          2 2 2 2 2 2
          2 2 2 2 2 2
          2 2 2 2 2 2
          2 2 2 2 2 2
          2 2 2 2 2 2
          2 2 2 2 2 2
          2 2 2 2 2 2
          2 2 2 2 2 2
          2 2 2 2 2 2
          2 2 2 2 2 2
          2 2 2 2 2 2
          2 2 2 2 2 2
          2 2 2 2 2 2
          2 2 2 2 1 1
          2 2 2 2 2 2
          2 2 2 2 2 2
          2 2 2 2 2 2
          2 2 2 2 2 2
          2 2 2 2 2 2
          2 2 2 2 2 2
          2 2 2 2 2 2
          2 2 2 2 2 2
          2
        </DataArray>
        <DataArray type="Float64" Name="gradient_marker" format="ascii" RangeMin="0" RangeMax="1">
          1 1 0.25 0.125 1 1
          0.75 0.125 1 0 0.5 1
          1 0 0.5 1 0 0
          0 0 0.3333333333333333 0.5 0.5 0.5
          0.5 1 1 1 0.5 0.5
          1 0.75 0.625 1 0.5 1
          1 1 1 1 1 1
          1 1 1 1 0.5 0.375
          0.25 0.125 0.75 0.75 1 1
          0.625 1 0.5 0.625 1 0.75
          0.125 0.375 0.625 0 0 0.5
          0 0 0.5 0.5 1 1
          0.75 1 0.5 0.5 1 0.75
          0.5 0.5 0.75 0.75 1 1
          1 1 1 1 1 1
          1 1 1 1 0.5 0.5
          1 1 0.5 1 1 1
          1 1 1 1 1 1
          1 1 1 1 1 1
          1 1 1 1 1 1
          1 1 1 1 1 1