<?xml version="1.0"?>
<VTKFile type="UnstructuredGrid" version="0.1" byte_order="LittleEndian" header_type="UInt32" compressor="vtkZLibDataCompressor">
  <UnstructuredGrid>
    <Piece NumberOfPoints="1326" NumberOfCells="819">
      <PointData>
        <DataArray type="Int32" Name="libmesh_node_id" format="ascii" RangeMin="0" RangeMax="12689">
          0 1 2 3 4 5
          6 7 8 9 10 11
          12 13 14 15 16 17
          18 19 20 21 22 23
          24 25 26 27 120 121
          122 123 124 125 126 127
          128 129 130 131 132 133
          180 181 182 183 184 185
          186 187 188 189 190 191
          192 193 240 241 242 243
          244 245 246 247 248 249
          250 251 252 253 300 301
          302 303 304 305 306 330
          331 332 333 334 335 336
          360 361 362 363 364 365
          366 367 368 369 370 371
          372 373 374 375 420 421
          422 423 424 425 426 427
          450 451 452 453 454 455
          456 457 480 481 482 483
          484 485 486 487 488 489
          490 491 492 493 494 495
          540 541 542 543 544 545
          546 547 570 571 572 573
          574 575 576 577 600 601
          602 603 604 605 606 607
          608 609 610 611 612 613
          614 615 660 661 662 663
          664 665 666 667 690 691
          692 693 694 695 696 697
          720 721 722 723 724 725
          726 727 728 729 730 731
          732 733 734 735 736 737
          780 781 782 783 784 785
          786 787 788 810 811 812
          813 814 815 816 817 818
          840 841 842 843 844 845
          846 847 848 849 850 851
          852 853 854 855 856 857
          858 859 900 901 902 903
          904 905 906 907 908 909
          930 931 932 933 934 935
          936 937 938 939 960 961
          962 963 964 965 966 967
          968 969 970 971 972 973
          974 975 976 977 978 979
          1020 1021 1022 1023 1024 1025
          1026 1027 1028 1029 1050 1051
          1052 1053 1054 1055 1056 1057
          1058 1059 1080 1081 1082 1083
          1084 1085 1086 1087 1088 1089
          1090 1091 1092 1093 1094 1095
          1096 1097 1098 1099 1140 1141
          1142 1143 1144 1145 1146 1147
          1148 1149 1170 1171 1172 1173
          1174 1175 1176 1177 1178 1179
          1200 1201 1202 1203 1204 1205
          1206 1207 1208 1209 1210 1211
          1212 1213 1214 1215 1216 1217
          1218 1219 1220 1221 1222 1223
          1260 1261 1262 1263 1264 1265
          1266 1267 1268 1269 1270 1271
          1290 1291 1292 1293 1294 1295
          1296 1297 1298 1299 1300 1301
          1320 1321 1322 1323 1324 1325
          1326 1327 1328 1329 1330 1331
          1332 1333 1334 1335 1336 1337
          1338 1339 1340 1341 1342 1343
          1344 1345 1346 1347 1380 1381
          1382 1383 1384 1385 1386 1387
          1388 1389 1390 1391 1392 1393
          1410 1411 1412 1413 1414 1415
          1416 1417 1418 1419 1420 1421
          1422 1423 1440 1441 1442 1443
          1444 1445 1446 1447 1448 1449
          1450 1451 1452 1453 1454 1455
          1456 1457 1458 1459 1460 1461
          1462 1463 1464 1465 1466 1467
          1500 1501 1502 1503 1504 1505
          1506 1507 1508 1509 1510 1511
          1512 1513 1530 1531 1532 1533
          1534 1535 1536 1537 1538 1539
          1540 1541 1542 1543 1560 1561
          1562 1563 1564 1565 1566 1567
          1568 1569 1570 1571 1572 1573
          1574 1575 1576 1577 1578 1579
          1580 1581 1582 1583 1584 1585
          1620 1621 1622 1623 1624 1625
          1626 1627 1628 1629 1630 1631
          1632 1650 1651 1652 1653 1654
          1655 1656 1657 1658 1659 1660
          1661 1662 1680 1681 1682 1683
          1684 1685 1686 1687 1688 1689
          1690 1691 1692 1693 1694 1695
          1696 1697 1698 1699 1700 1701
          1702 1703 1704 1705 1740 1741
          1742 1743 1744 1745 1746 1747
          1748 1749 1750 1751 1752 1770
          1771 1772 1773 1774 1775 1776
          1777 1778 1779 1780 1781 1782
          1800 1801 1802 1803 1804 1805
          1806 1807 1808 1809 1810 1811
          1812 1813 1814 1815 1816 1817
          1818 1819 1820 1821 1822 1823
          1824 1825 1860 1861 1862 1863
          1864 1865 1866 1867 1868 1869
          1870 1871 1872 1890 1891 1892
          1893 1894 1895 1896 1897 1898
          1899 1900 1901 1902 1920 1921
          1922 1923 1924 1925 1926 1927
          1928 1929 1930 1931 1932 1933
          1934 1935 1936 1937 1938 1939
          1940 1941 1942 1943 1944 1945
          1980 1981 1982 1983 1984 1985
          1986 1987 1988 1989 1990 1991
          1992 2010 2011 2012 2013 2014
          2015 2016 2017 2018 2019 2020
          2021 2022 2040 2041 2042 2043
          2044 2045 2046 2047 2048 2049
          2050 2051 2052 2053 2054 2055
          2056 2057 2058 2059 2060 2061
          2062 2063 2064 2065 2100 2101
          2102 2103 2104 2105 2106 2107
          2108 2109 2110 2111 2112 2130
          2131 2132 2133 2134 2135 2136
          2137 2138 2139 2140 2141 2142
          2160 2161 2162 2163 2164 2165
          2166 2167 2168 2169 2170 2171
          2172 2173 2174 2175 2176 2177
          2178 2179 2180 2181 2182 2183
          2184 2185 2220 2221 2222 2223
          2224 2225 2226 2227 2228 2229
          2230 2231 2232 2250 2251 2252
          2253 2254 2255 2256 2257 2258
          2259 2260 2261 2262 2280 2281
          2282 2283 2284 2285 2286 2287
          2288 2289 2290 2291 2292 2293
          2294 2295 2296 2297 2298 2299
          2300 2301 2302 2303 2304 2305
          2340 2341 2342 2343 2344 2345
          2346 2347 2348 2349 2350 2351
          2352 2370 2371 2372 2373 2374
          2375 2376 2377 2378 2379 2380
          2381 2382 12073 12074 12075 12076
          12077 12078 12079 12080 12081 12082
          12083 12084 12085 12086 12087 12088
          12089 12090 12091 12092 12093 12094
          12095 12096 12097 12098 12099 12100
          12101 12102 12103 12104 12105 12106
          12107 12108 12109 12110 12111 12112
          12113 12114 12115 12116 12117 12118
          12119 12120 12121 12122 12123 12124
          12125 12126 12127 12128 12129 12130
          12131 12132 12133 12134 12135 12136
          12137 12138 12139 12140 12141 12142
          12143 12144 12145 12146 12147 12148
          12149 12150 12151 12152 12153 12154
          12155 12156 12157 12158 12159 12160
          12161 12162 12163 12164 12165 12166
          12167 12168 12169 12170 12171 12172
          12173 12174 12175 12176 12177 12178
          12179 12180 12181 12182 12183 12184
          12185 12186 12187 12188 12189 12190
          12191 12192 12193 12194 12195 12196
          12197 12198 12199 12200 12201 12202
          12203 12214 12215 12216 12217 12218
          12219 12220 12221 12222 12223 12224
          12225 12226 12227 12228 12229 12230
          12231 12232 12233 12234 12235 12236
          12237 12238 12239 12240 12241 12242
          12243 12244 12245 12246 12247 12248
          12249 12250 12251 12252 12253 12254
          12255 12256 12257 12258 12259 12260
          12261 12262 12263 12264 12265 12266
          12267 12268 12269 12270 12271 12272
          12273 12274 12275 12276 12277 12278
          12279 12280 12281 12282 12283 12284
          12285 12286 12287 12288 12289 12290
          12291 12292 12293 12294 12295 12296
          12297 12298 12299 12300 12301 12302
          12303 12304 12305 12306 12307 12308
          12309 12310 12311 12312 12313 12314
          12315 12316 12317 12318 12319 12320
          12321 12322 12323 12324 12325 12326
          12327 12328 12329 12330 12331 12332
          12333 12334 12335 12336 12337 12338
          12339 12340 12341 12342 12343 12344
          12345 12346 12347 12348 12349 12350
          12351 12352 12353 12357 12358 12360
          12361 12363 12415 12416 12417 12418
          12419 12420 12421 12422 12423 12424
          12425 12426 12427 12428 12429 12430
          12431 12432 12433 12434 12435 12436
          12437 12438 12439 12440 12441 12442
          12443 12444 12445 12446 12447 12448
          12449 12450 12451 12452 12453 12454
          12455 12456 12457 12458 12459 12460
          12461 12462 12463 12464 12465 12466
          12467 12468 12469 12470 12471 12472
          12473 12474 12475 12476 12477 12478
          12479 12480 12481 12482 12483 12484
          12485 12486 12487 12488 12489 12490
          12491 12492 12493 12494 12495 12496
          12497 12498 12499 12500 12501 12502
          12503 12504 12505 12506 12507 12508
          12509 12510 12511 12512 12513 12514
          12515 12516 12517 12518 12519 12520
          12521 12522 12523 12524 12525 12526
          12527 12528 12529 12530 12531 12532
          12533 12534 12535 12536 12537 12538
          12657 12658 12659 12660 12661 12662
          12663 12664 12665 12666 12667 12668
          12669 12670 12671 12672 12673 12674
          12675 12676 12677 12678 12679 12683
          12684 12686 12687 12689 1586 1587
          1633 1663 1706 1707 1753 1783
          1826 1827 1873 1903 1946 1947
          1993 2023 2066 2067 2113 2143
          2186 2187 2233 2263 2307 2353
          2383 12354 12355 12356 12359 12362
          12680 12681 12682 12685 2306 12688
        </DataArray>
        <DataArray type="Float64" Name="bounds" format="ascii" RangeMin="0" RangeMax="0">
          0 0 0 0 0 0
          0 0 0 0 0 0
          0 0 0 0 0 0
          0 0 0 0 0 0
          0 0 0 0 0 0
          0 0 0 0 0 0
          0 0 0 0 0 0
          0 0 0 0 0 0
          0 0 0 0 0 0
          0 0 0 0 0 0
          0 0 0 0 0 0
          0 0 0 0 0 0
          0 0 0 0 0 0
          0 0 0 0 0 0
          0 0 0 0 0 0
          0 0 0 0 0 0
          0 0 0 0 0 0
          0 0 0 0 0 0
          0 0 0 0 0 0
          0 0 0 0 0 0
          0 0 0 0 0 0
          0 0 0 0 0 0
          0 0 0 0 0 0
          0 0 0 0 0 0
          0 0 0 0 0 0
          0 0 0 0 0 0
          0 0 0 0 0 0
          0 0 0 0 0 0
          0 0 0 0 0 0
          0 0 0 0 0 0
          0 0 0 0 0 0
          0 0 0 0 0 0
          0 0 0 0 0 0
          0 0 0 0 0 0
          0 0 0 0 0 0
          0 0 0 0 0 0
          0 0 0 0 0 0
          0 0 0 0 0 0
          0 0 0 0 0 0
          0 0 0 0 0 0
          0 0 0 0 0 0
          0 0 0 0 0 0
          0 0 0 0 0 0
          0 0 0 0 0 0
          0 0 0 0 0 0
          0 0 0 0 0 0
          0 0 0 0 0 0
          0 0 0 0 0 0
          0 0 0 0 0 0
          0 0 0 0 0 0
          0 0 0 0 0 0
          0 0 0 0 0 0
          0 0 0 0 0 0
          0 0 0 0 0 0
          0 0 0 0 0 0
          0 0 0 0 0 0
          0 0 0 0 0 0
          0 0 0 0 0 0
          0 0 0 0 0 0
          0 0 0 0 0 0
          0 0 0 0 0 0
          0 0 0 0 0 0
          0 0 0 0 0 0
          0 0 0 0 0 0
          0 0 0 0 0 0
          0 0 0 0 0 0
          0 0 0 0 0 0
          0 0 0 0 0 0
          0 0 0 0 0 0
          0 0 0 0 0 0
          0 0 0 0 0 0
          0 0 0 0 0 0
          0 0 0 0 0 0
          0 0 0 0 0 0
          0 0 0 0 0 0
          0 0 0 0 0 0
          0 0 0 0 0 0
          0 0 0 0 0 0
          0 0 0 0 0 0
          0 0 0 0 0 0
          0 0 0 0 0 0
          0 0 0 0 0 0
          0 0 0 0 0 0
          0 0 0 0 0 0
          0 0 0 0 0 0
          0 0 0 0 0 0
          0 0 0 0 0 0
          0 0 0 0 0 0
          0 0 0 0 0 0
          0 0 0 0 0 0
          0 0 0 0 0 0
          0 0 0 0 0 0
          0 0 0 0 0 0
          0 0 0 0 0 0
          0 0 0 0 0 0
          0 0 0 0 0 0
          0 0 0 0 0 0
          0 0 0 0 0 0
          0 0 0 0 0 0
          0 0 0 0 0 0
          0 0 0 0 0 0
          0 0 0 0 0 0
          0 0 0 0 0 0
          0 0 0 0 0 0
          0 0 0 0 0 0
          0 0 0 0 0 0
          0 0 0 0 0 0
          0 0 0 0 0 0
          0 0 0 0 0 0
          0 0 0 0 0 0
          0 0 0 0 0 0
          0 0 0 0 0 0
          0 0 0 0 0 0
          0 0 0 0 0 0
          0 0 0 0 0 0
          0 0 0 0 0 0
          0 0 0 0 0 0
          0 0 0 0 0 0
          0 0 0 0 0 0
          0 0 0 0 0 0
          0 0 0 0 0 0
          0 0 0 0 0 0
          0 0 0 0 0 0
          0 0 0 0 0 0
          0 0 0 0 0 0
          0 0 0 0 0 0
          0 0 0 0 0 0
          0 0 0 0 0 0
          0 0 0 0 0 0
          0 0 0 0 0 0
          0 0 0 0 0 0
          0 0 0 0 0 0
          0 0 0 0 0 0
          0 0 0 0 0 0
          0 0 0 0 0 0
          0 0 0 0 0 0
          0 0 0 0 0 0
          0 0 0 0 0 0
          0 0 0 0 0 0
          0 0 0 0 0 0
          0 0 0 0 0 0
          0 0 0 0 0 0
          0 0 0 0 0 0
          0 0 0 0 0 0
          0 0 0 0 0 0
          0 0 0 0 0 0
          0 0 0 0 0 0
          0 0 0 0 0 0
          0 0 0 0 0 0
          0 0 0 0 0 0
          0 0 0 0 0 0
          0 0 0 0 0 0
          0 0 0 0 0 0
          0 0 0 0 0 0
          0 0 0 0 0 0
          0 0 0 0 0 0
          0 0 0 0 0 0
          0 0 0 0 0 0
          0 0 0 0 0 0
          0 0 0 0 0 0
          0 0 0 0 0 0
          0 0 0 0 0 0
          0 0 0 0 0 0
          0 0 0 0 0 0
          0 0 0 0 0 0
          0 0 0 0 0 0
          0 0 0 0 0 0
          0 0 0 0 0 0
          0 0 0 0 0 0
          0 0 0 0 0 0
          0 0 0 0 0 0
          0 0 0 0 0 0
          0 0 0 0 0 0
          0 0 0 0 0 0
          0 0 0 0 0 0
          0 0 0 0 0 0
          0 0 0 0 0 0
          0 0 0 0 0 0
          0 0 0 0 0 0
          0 0 0 0 0 0
          0 0 0 0 0 0
          0 0 0 0 0 0
          0 0 0 0 0 0
          0 0 0 0 0 0
          0 0 0 0 0 0
          0 0 0 0 0 0
          0 0 0 0 0 0
          0 0 0 0 0 0
          0 0 0 0 0 0
          0 0 0 0 0 0
          0 0 0 0 0 0
          0 0 0 0 0 0
          0 0 0 0 0 0
          0 0 0 0 0 0
          0 0 0 0 0 0
          0 0 0 0 0 0
          0 0 0 0 0 0
          0 0 0 0 0 0
          0 0 0 0 0 0
          0 0 0 0 0 0
          0 0 0 0 0 0
          0 0 0 0 0 0
          0 0 0 0 0 0
          0 0 0 0 0 0
          0 0 0 0 0 0
          0 0 0 0 0 0
          0 0 0 0 0 0
          0 0 0 0 0 0
          0 0 0 0 0 0
          0 0 0 0 0 0
          0 0 0 0 0 0
          0 0 0 0 0 0
          0 0 0 0 0 0
          0 0 0 0 0 0
          0 0 0 0 0 0
          0 0 0 0 0 0
          0 0 0 0 0 0
          0 0 0 0 0 0
          0 0 0 0 0 0
          0 0 0 0 0 0
          0 0 0 0 0 0
        </DataArray>
        <DataArray type="Float64" Name="gradient_error" format="ascii" RangeMin="2.445197502027638e-16" RangeMax="2.1228552406168117e-7">
          2.711659095289888e-16 2.7127122516228066e-16 2.715578352017024e-16 2.715014743368697e-16 2.7384931535894446e-16 2.7357439204096453e-16
          2.7305539386223093e-16 2.7320867778280446e-16 2.7155685277878334e-16 2.717146196593722e-16 2.7286387179796867e-16 2.7265280041735395e-16
          2.719644834523942e-16 2.7194581680122097e-16 2.719326310579873e-16 2.721122914476533e-16 2.7240788968245874e-16 2.7220541173916893e-16
          2.7101518713362646e-16 2.7156382767984453e-16 2.7272698487429693e-16 2.724042478078994e-16 2.704452931834209e-16 2.711957701546744e-16
          2.727268340734072e-16 2.724320354677317e-16 2.7058650812179916e-16 2.7121484199529107e-16 2.7196372340788346e-16 2.719615428291519e-16
          2.722758390835251e-16 2.72287626978081e-16 2.719737074912362e-16 2.7223802066087594e-16 2.7199579674478426e-16 2.7217459390447835e-16
          2.720280508678874e-16 2.7209649552512524e-16 2.7206250484888144e-16 2.7202271489663046e-16 2.72087792508956e-16 2.7197485936238885e-16
          2.720830015746428e-16 2.720860465135531e-16 2.7201528248355283e-16 2.720072137494976e-16 2.7207502844251127e-16 2.720343122850127e-16
          2.720644433395208e-16 2.720572359716372e-16 2.7205316793989574e-16 2.720805228241879e-16 2.7204349895626104e-16 2.720991826673331e-16
          2.720383481558558e-16 2.7210654285599466e-16 2.663743798936036e-16 2.676031883797667e-16 2.6895614477002307e-16 2.6825059645527035e-16
          2.7066579372230643e-16 2.7073547013348933e-16 2.7438938188142184e-16 2.729411812059321e-16 2.776552681041985e-16 2.7493875874590134e-16
          2.7918355774654855e-16 2.7600205444779384e-16 2.778406540106746e-16 2.754784231259795e-16 2.7123187760497483e-16 2.711569392514446e-16
          2.7144233598801387e-16 2.7174366671710775e-16 2.7206935359440292e-16 2.7234222468677617e-16 2.72486535361733e-16 2.721546540496702e-16
          2.721870654859522e-16 2.720795254313555e-16 2.7199435290377324e-16 2.7191645780120177e-16 2.7186389822451326e-16 2.7185687848218154e-16
          2.880948576165576e-16 2.8291294836210394e-16 2.80609440774917e-16 2.8370391113790936e-16 2.7069947582449975e-16 2.7323889445130857e-16
          2.5752794407665477e-16 2.6512059933293793e-16 2.4771928226263613e-16 2.588249941561811e-16 2.445197502027638e-16 2.5626708631943973e-16
          2.5162093808756856e-16 2.594987700522661e-16 2.6901109926141365e-16 2.6855818140214573e-16 2.751437348320736e-16 2.7558243464336485e-16
          2.740267556958203e-16 2.726504009883607e-16 2.713862894660855e-16 2.704922623988138e-16 2.7014076852914567e-16 2.703750123254504e-16
          2.7198153647641723e-16 2.718519046274685e-16 2.7227519831352325e-16 2.7258754738750035e-16 2.7284187288244496e-16 2.7297010236151193e-16
          2.729049350413278e-16 2.7264476110802285e-16 2.494162689350349e-16 2.7431787753212663e-16 2.6556337816173597e-16 2.513528232984759e-16
          3.3065070395364073e-16 2.9859648857841117e-16 3.8749199009664216e-16 3.3354461889312387e-16 4.219318124467355e-16 3.5682117906019123e-16
          4.1535000144998623e-16 3.570967580257721e-16 3.6402352930080034e-16 3.3121191071936873e-16 3.0228495281415316e-16 2.9665584250761495e-16
          2.6396371032466283e-16 2.6242436083187407e-16 2.6834699057993456e-16 2.7439980213361007e-16 2.8012695305758654e-16 2.836094497525566e-16
          2.836462143852628e-16 2.805639531596685e-16 2.7111854185798045e-16 2.7155934400183116e-16 2.701517079566874e-16 2.692023565776146e-16
          2.6854336044152605e-16 2.683753849035553e-16 2.6889213663258835e-16 2.701011741182602e-16 2.9589442301023213e-16 3.818117513670729e-16
          3.41317322546279e-16 3.05926977543002e-16 6.243393284096024e-16 4.515630922707599e-16 9.07704871692922e-16 5.988158878702273e-16
          1.0545931256931854e-15 6.916312253116951e-16 9.45419647552832e-16 6.469916391983798e-16 6.547397470130392e-16 4.886078409337293e-16
          6.178332517515166e-16 4.46022980430094e-16 2.9190895496665503e-16 2.985208544182602e-16 2.8283789588969805e-16 2.899664927485127e-16
          3.098818153316707e-16 3.1897389972062616e-16 3.0355947948563837e-16 2.7623472851441763e-16 2.82995016207825e-16 2.8108217676074856e-16
          2.868889356474788e-16 2.9000608144949283e-16 2.9109430573313693e-16 2.8938416859732457e-16 2.846430241168573e-16 2.782567479201639e-16
          2.005241533872923e-15 2.4563717912368067e-15 1.516023649901233e-15 1.243222380214498e-15 3.4561956799356877e-15 2.1275973235761567e-15
          4.303018890345897e-15 2.673433467682965e-15 4.432952104317019e-15 2.82057354821803e-15 3.5502936373457872e-15 2.374305324551706e-15
          2.2628258788383543e-15 1.6214050064802203e-15 2.425759559867216e-15 1.5327132602038225e-15 3.0570019926693107e-15 1.7227912777857076e-15
          4.1447989192751003e-16 3.657790234315518e-16 5.299225022358299e-16 6.548320702363953e-16 7.341811743432707e-16 7.230610178911978e-16
          6.134940121272278e-16 4.561904790100287e-16 3.469768428083228e-16 2.5328427528936134e-16 2.503548203070302e-16 2.608460372550336e-16
          2.658160954527574e-16 2.601673565674996e-16 2.4780502402477064e-16 2.4700389013236914e-16 2.727139974796284e-16 3.0537312271454127e-16
          1.3168948583581936e-14 1.4678348561119625e-14 8.946521748709194e-15 7.969642446974917e-15 1.7600089427476503e-14 1.0888035631918108e-14
          1.9135256154866557e-14 1.20579466543824e-14 1.7514182220429084e-14 1.134966719116554e-14 1.2392211265639867e-14 8.498042153519876e-15
          8.584064461678335e-15 5.927416869914045e-15 1.2090124701975601e-14 6.930401462955707e-15 1.5228703140367825e-14 8.223174415000412e-15
          1.2304021521881345e-14 6.9884406955947864e-15 1.909850970818588e-15 1.6726952841810908e-15 2.415360285074074e-15 2.8222300289235355e-15
          2.897692386776907e-15 2.5534245522774363e-15 1.8420732090573363e-15 1.1209935488386302e-15 9.093303154811403e-16 1.1700328186667768e-15
          6.050070053384133e-16 5.750542579942851e-16 6.547387337884329e-16 6.638229039488339e-16 6.102326116518166e-16 5.029760631549893e-16
          4.133771399649184e-16 4.713088737414482e-16 6.010149413292823e-16 6.672057680253254e-16 7.429381427684028e-14 7.73523008579577e-14
          4.924082718652988e-14 4.7225496455867137e-14 8.15815803588679e-14 5.225609922807403e-14 7.838453625487536e-14 5.095316225200208e-14
          6.301206051167411e-14 4.2321880131623176e-14 4.0085609650069776e-14 2.852435694958365e-14 3.7082485837782403e-14 2.368583384289227e-14
          6.28871066041057e-14 3.440539391080144e-14 7.418173770904276e-14 4.0446758087720535e-14 5.679276959625262e-14 3.300088170849705e-14
          1.1390853182402355e-14 1.0855933782313069e-14 1.2361037885195654e-14 1.2632271908570319e-14 1.1541310767349793e-14 9.041400455435233e-15
          5.7771690050113905e-15 3.956162938473147e-15 4.6232801584128675e-15 5.901090056075069e-15 1.652352849702659e-15 1.5546889297321504e-15
          1.791457673111147e-15 1.7427555680118196e-15 1.4509217831273535e-15 1.119696661772941e-15 1.2651561620206484e-15 1.988644659449098e-15
          2.534781850427449e-15 2.5931862914086505e-15 3.5565688284390983e-13 3.5388980919789975e-13 2.321978040028615e-13 2.332466978675246e-13
          3.3678323201040083e-13 2.2209654425201773e-13 2.8482297178963317e-13 1.9123096857005367e-13 1.9529636855059195e-13 1.3716407713194824e-13
          1.3444330117763172e-13 9.349541969884463e-14 1.9781405456818004e-13 1.1353638626039786e-13 3.286438170248674e-13 1.787943997601029e-13
          3.520905262611584e-13 1.9735980651517133e-13 2.531018998272843e-13 1.512919381988829e-13 5.809026780519726e-14 5.831165804178901e-14
          5.638587266725635e-14 5.117513283165963e-14 4.1430848766315114e-14 2.8268669050788666e-14 1.775846709545058e-14 1.9247224518639872e-14
          2.687350941803576e-14 2.9976334134183706e-14 5.674736802571283e-15 5.7868031924386044e-15 5.361888840878087e-15 4.711300312845111e-15
          3.829911819325718e-15 3.989799881519764e-15 6.258216238285518e-15 9.549466541941312e-15 1.1117932066887217e-14 1.0470691697885847e-14
          1.4423255084096345e-12 1.3788420673745436e-12 9.281360290015685e-13 9.695120229689395e-13 1.1784419790553225e-12 8.005148802496601e-13
          8.434036133713595e-13 5.904060998678527e-13 5.412722693444628e-13 3.8478254069219995e-13 6.501657251719948e-13 3.9032934671303193e-13
          1.1762103225340604e-12 6.483978822185109e-13 1.661113538026486e-12 9.270692850998957e-13 1.6168677813573617e-12 9.323481467458726e-13
          1.0771305687300362e-12 6.629322740654745e-13 6.282264980691173e-13 4.2466300702696236e-13 3.98825272385548e-13 2.797363329226458e-13
          2.5051635753524904e-13 2.617121440166475e-13 2.2022013058623514e-13 1.7587018268445747e-13 1.2159760883128868e-13 7.566260764468534e-14
          7.605480283164455e-14 1.178223810558031e-13 1.4690082393222507e-13 1.4463332841155786e-13 1.2676015475953663e-13 9.118914903270512e-14
          2.3602724441905008e-14 2.6725750505050327e-14 1.7852479728472653e-14 1.4331779004568747e-14 1.490240562264022e-14 2.0832247035301542e-14
          3.1524163760327765e-14 4.261972993830046e-14 4.5973135730066707e-14 4.0532677422202777e-14 3.242079353426606e-14 2.173090460566654e-14
          4.545231587660499e-12 4.118872987060864e-12 2.8554255791273893e-12 3.1355940845414778e-12 2.9978435901886917e-12 2.121839147635241e-12
          2.0272493461917415e-12 1.416549714987146e-12 2.5028519761246343e-12 1.5060114681278758e-12 4.4490424801944976e-12 2.5138346551481785e-12
          6.67861962907346e-12 3.793070168267102e-12 8.015405968614859e-12 4.6179364096400755e-12 7.1043420296088104e-12 4.206929094812844e-12
          4.290795794197617e-12 2.7268327955850087e-12 2.1059878975873104e-12 1.5137028445611105e-12 1.6108873069066482e-12 1.1040095184025312e-12
          2.7329600171575916e-12 1.5069705283693687e-12 4.686378861532864e-12 2.4404477290476598e-12 8.474752918156798e-13 9.23153908704476e-13
          6.591090196646822e-13 4.3342155469247457e-13 2.919339378089775e-13 3.417680058528649e-13 5.252981917222536e-13 6.975622091851791e-13
          7.416265560419596e-13 6.512447157961489e-13 5.105362211934853e-13 3.3770715128080976e-13 1.8562533887201114e-13 1.501879644550102e-13
          1.0297241243744608e-13 1.2035123598649596e-13 7.238333424757412e-14 6.099302560239896e-14 7.469691548683794e-14 1.0490918160386968e-13
          1.4307567598376302e-13 1.7465756770506606e-13 1.7373695206704105e-13 1.396196346198958e-13 9.965465085205969e-14 7.828257266320564e-14
          9.026963816287651e-14 1.0585933234756427e-13 7.32064870227626e-12 6.862354440862092e-12 4.887764387092462e-12 5.349512967202446e-12
          7.909031025566928e-12 5.108723251904783e-12 1.2590652513235322e-11 7.59160236579433e-12 2.001821753038618e-11 1.1836556898126666e-11
          2.824138244278946e-11 1.661520866386551e-11 3.4691579092267776e-11 2.042099842626767e-11 3.639194901896126e-11 2.1538395029123338e-11
          2.922868600853647e-11 1.7725822937779615e-11 1.546602043444149e-11 1.0190072608726653e-11 7.123190552855342e-12 5.268673348716996e-12
          8.790565661597765e-12 5.371093957679092e-12 1.5435024920807264e-11 8.29593162429495e-12 2.2133041644400415e-11 1.1693590076182606e-11
          1.6375942613492257e-12 1.888439327808526e-12 1.3133498486266828e-12 1.4629803595877678e-12 2.023239713205606e-12 2.7312870729714588e-12
          3.3574562822807004e-12 3.653251322079629e-12 3.3970294928886392e-12 2.6731654998381754e-12 1.8738154687295045e-12 1.178250895136318e-12
          8.616490178245618e-13 9.296956040890157e-13 3.620141893756191e-13 3.985014234884206e-13 3.1828421901072733e-13 3.334085008222004e-13
          3.9158316054405747e-13 4.735392610013609e-13 5.64494804293842e-13 6.216616048738373e-13 5.710991187545077e-13 4.322062166645355e-13
          3.33474792880359e-13 4.0487953651221824e-13 5.664597078664913e-13 6.052527002132355e-13 5.860291521871746e-11 6.477573675637178e-11
          4.233633134042534e-11 3.87632280292781e-11 8.260119916380433e-11 5.266391191459779e-11 1.0760109931826546e-10 6.719277704319642e-11
          1.330248794971678e-10 8.184393373346827e-11 1.5335232022716033e-10 9.323038612442517e-11 1.6235772396640972e-10 9.791586599688842e-11
          1.5075109717836483e-10 9.096779174156691e-11 1.0762122599381577e-10 6.654279441727513e-11 5.2263796246462596e-11 3.4815694102999307e-11
          3.699235518798217e-11 2.34808427894671e-11 6.044806060019427e-11 3.331567735693484e-11 8.760386471077307e-11 4.726870269464773e-11
          1.1185523028150798e-11 1.0665845701810989e-11 1.2655756908767227e-11 1.4693257156939087e-11 1.6590324732157064e-11 1.7758067917351947e-11
          1.7889339367608944e-11 1.6675451718916505e-11 1.3734078134666463e-11 9.664430861501391e-12 6.063801764325001e-12 4.490598439226261e-12
          5.179811637591965e-12 2.4741201318226956e-12 2.408150563783228e-12 2.5848891521432102e-12 2.6020595457508177e-12 2.517661494545372e-12
          2.4076838130138923e-12 2.3046707078507786e-12 2.166417133063982e-12 2.0037934285984197e-12 1.961269763466758e-12 2.15827313769797e-12
          2.7979027647771127e-12 3.426082596661555e-12 5.677651147285538e-10 5.836520152534857e-10 3.860843146490262e-10 3.780289316887901e-10
          6.230828665006838e-10 4.0558035645755473e-10 6.676237648644068e-10 4.2614339846614047e-10 6.987717316434281e-10 4.375430554462091e-10
          6.998897782648001e-10 4.3089687105596315e-10 6.511187786381971e-10 3.959882480992948e-10 5.250338207691389e-10 3.1885224835622057e-10
          3.3085941853626274e-10 2.039594584066869e-10 2.3155137126092762e-10 1.3783457618662423e-10 3.026496670100787e-10 1.6760483877114968e-10
          4.1359623739823775e-10 2.277869335598559e-10 4.923579039770537e-10 2.7329491462683315e-10 1.0596593521919735e-10 1.0585803957105213e-10
          1.0543619002054123e-10 1.028252721891407e-10 9.736636878836119e-11 8.883079870442356e-11 7.717501095959534e-11 6.239020224269853e-11
          4.4814762743644277e-11 2.9284006145699044e-11 2.4338900078259362e-11 3.0063162549754356e-11 3.680624948678907e-11 2.3415256393827934e-11
          2.3423330493077902e-11 2.2794533626656913e-11 2.0987512310407333e-11 1.8418358327732256e-11 1.575763356172083e-11 1.349230435879832e-11
          1.2109728542094891e-11 1.2570027210177462e-11 1.4450231179077253e-11 1.6117789624297983e-11 1.814869537803464e-11 1.9380573696965517e-11
          3.2967550756021943e-9 3.250279463022546e-9 2.1293918604109303e-9 2.172997534819305e-9 3.131853920092284e-9 2.0185633397218743e-9
          2.961541723075882e-9 1.8669488608566733e-9 2.7189433365489575e-9 1.6733731613732546e-9 2.3614119416245777e-9 1.4202041973717329e-9
          1.836869175456639e-9 1.087578417725881e-9 1.1683923372435693e-9 7.065104277348272e-10 1.0583766999650735e-9 6.506144427004086e-10
          1.7376729407508053e-9 1.019562656586323e-9 2.3780517521839063e-9 1.3678705350634137e-9 2.673870843979227e-9 1.5354572998102282e-9
          2.7469864895377724e-9 1.5750150862528522e-9 5.791089636340471e-10 6.009221407896531e-10 5.228679532123128e-10 4.4916031768653403e-10
          3.6893364243284243e-10 2.875398921532498e-10 2.1217834178446273e-10 1.6332945351893595e-10 1.64978919480321e-10 1.9912856113725532e-10
          2.298781156612492e-10 2.5114844027062003e-10 2.5312369215913113e-10 1.4971366946877854e-10 1.5260428754289006e-10 1.4046314707316166e-10