<?xml version="1.0"?>
<VTKFile type="UnstructuredGrid" version="0.1" byte_order="LittleEndian" header_type="UInt32" compressor="vtkZLibDataCompressor">
  <UnstructuredGrid>
    <Piece NumberOfPoints="1209" NumberOfCells="801">
      <PointData>
        <DataArray type="Int32" Name="libmesh_node_id" format="ascii" RangeMin="2324" RangeMax="11957">
          2324 2670 2672 2673 2675 2680
          2681 2682 2744 2745 2746 3127
          3128 3129 3130 3131 3132 3133
          3135 3136 3137 3138 3139 3140
          3141 3142 3143 3144 3145 3146
          3147 3148 3149 3150 3151 3152
          3153 3154 3158 3163 3166 3168
          3172 3173 3653 3654 3655 3656
          3657 3661 3662 3663 3664 3665
          3666 3667 3708 3709 3710 3711
          3712 3713 3714 3715 3716 3717
          3718 3719 3720 3721 4883 4884
          4885 4886 4887 4888 4889 4890
          4891 4892 4893 4894 4895 4896
          4897 4898 4899 4900 4901 4902
          4903 4904 4905 4906 4907 4908
          4909 4910 4911 4912 4913 4914
          4915 4916 4917 4918 4919 4920
          4921 4922 4923 4924 4925 4926
          4927 4928 4929 4930 4931 4932
          4933 4934 4935 4936 4937 4938
          4939 4940 4941 4942 4943 4944
          4945 4946 4947 4948 4949 4950
          4951 4952 4953 4954 4955 4956
          4957 4958 4959 4960 4961 4962
          4963 4964 4965 4966 4967 4968
          4969 4970 4971 4972 4973 4974
          4975 4976 4977 4978 4979 4980
          4981 4982 4983 4984 4985 4986
          4987 4988 4989 4990 4991 4992
          4993 4994 4995 4996 4997 4998
          4999 5000 5001 5002 5003 5004
          5005 5006 5007 5008 5009 5010
          5011 5012 5013 5014 5015 5016
          5017 5018 5019 5020 5021 5022
          5031 5034 5038 5040 5041 5042
          5043 5044 5045 5046 5047 5048
          5049 5060 5061 5062 5063 5064
          5065 5066 5067 5068 5069 5070
          5071 5072 5073 5074 5075 5076
          5077 5078 5079 5242 5243 5244
          5245 5246 5247 5248 5249 5250
          5251 5279 5280 5281 5282 5283
          5284 5285 5286 5287 5288 5289
          5290 5291 5292 5293 5294 5295
          5296 5297 5298 5299 5300 5301
          5302 5303 5304 5305 5306 5307
          5308 5309 5317 5318 5319 5320
          5321 5322 5323 5324 5325 5326
          5327 5328 5329 5330 5331 5332
          5333 5334 5335 5336 5337 5338
          5339 5340 5341 5342 5343 5662
          5663 5664 5665 5666 5667 5668
          5669 5670 5671 5672 5673 5674
          5675 5676 5677 5678 5679 5680
          5681 5682 5683 5684 5685 11018
          11019 11020 11023 11026 11028 11029
          11030 11031 11032 11033 11034 11035
          11036 11037 11038 11039 11040 11041
          11044 11045 11048 11050 11052 11053
          11054 11055 11056 11057 11058 11059
          11060 11061 11062 11063 11064 11065
          11066 11067 11068 11069 11070 11071
          11072 11073 11074 11075 11076 11077
          11078 11079 11080 11081 11082 11083
          11084 11085 11086 11087 11088 11089
          11090 11091 11092 11093 11094 11095
          11096 11097 11098 11099 11100 11101
          11102 11103 11104 11105 11106 11107
          11108 11109 11112 11113 11116 11118
          11120 11121 11122 11123 11124 11125
          11126 11127 11128 11129 11132 11133
          11136 11138 11140 11141 11142 11143
          11144 11145 11146 11147 11148 11149
          11150 11151 11152 11153 11154 11155
          11156 11157 11158 11159 11160 11161
          11162 11163 11164 11165 11166 11167
          11168 11169 11170 11171 11172 11173
          11174 11175 11176 11177 11178 11179
          11182 11183 11185 11188 11190 11191
          11192 11193 11194 11195 11196 11197
          11198 11199 11201 11203 11205 11207
          11208 11209 11210 11211 11212 11213
          11216 11217 11219 11222 11224 11225
          11226 11227 11228 11229 11230 11231
          11232 11233 11235 11237 11239 11241
          11242 11243 11244 11245 11246 11247
          11248 11249 11250 11251 11252 11253
          11254 11255 11256 11257 11258 11259
          11260 11261 11262 11263 11264 11265
          11266 11267 11268 11269 11270 11271
          11272 11273 11274 11275 11276 11277
          11278 11279 11280 11281 11282 11283
          11284 11285 11286 11287 11288 11289
          11290 11291 11292 11293 11294 11295
          11296 11297 11298 11299 11300 11301
          11302 11303 11304 11305 11306 11307
          11308 11309 11310 11311 11312 11313
          11314 11315 11317 11319 11321 11323
          11324 11325 11326 11327 11328 11329
          11331 11333 11335 11337 11338 11339
          11340 11341 11342 11343 11345 11347
          11349 11351 11352 11353 11354 11355
          11356 11357 11359 11361 11363 11365
          11366 11367 11368 11369 11370 11371
          11372 11373 11374 11375 11376 11377
          11378 11379 11380 11381 11382 11383
          11384 11385 11386 11387 11388 11389
          11390 11391 11392 11393 11394 11395
          11396 11397 11398 11399 11400 11401
          11402 11403 11404 11405 11406 11407
          11408 11409 11410 11411 11412 11413
          11414 11415 11416 11417 11418 11419
          11420 11421 11422 11423 11424 11425
          11426 11427 11428 11429 11430 11431
          11432 11433 11434 11435 11436 11437
          11438 11439 11440 11441 11442 11443
          11444 11445 11446 11447 11448 11449
          11450 11451 11452 11453 11454 11455
          11456 11457 11458 11459 11460 11461
          11462 11463 11464 11465 11466 11467
          11468 11469 11470 11471 11472 11473
          11474 11475 11476 11477 11478 11479
          11480 11481 11482 11483 11484 11485
          11486 11487 11488 11489 11490 11491
          11492 11493 11494 11495 11496 11497
          11498 11499 11500 11501 11502 11503
          11504 11505 11506 11507 11508 11509
          11510 11511 11512 11513 11514 11515
          11516 11517 11518 11519 11520 11521
          11522 11523 11524 11525 11526 11527
          11528 11529 11530 11531 11532 11533
          11534 11535 11536 11537 11538 11539
          11540 11541 11542 11543 11544 11545
          11546 11547 11548 11549 11550 11551
          11552 11553 11554 11555 11556 11557
          11558 11559 11560 11561 11562 11563
          11564 11565 11566 11567 11568 11569
          11570 11571 11572 11573 11574 11575
          11576 11577 11578 11579 11580 11581
          11582 11583 11584 11585 11586 11587
          11588 11589 11590 11591 11592 11593
          11594 11595 11596 11597 11598 11599
          11600 11601 11602 11603 11604 11605
          11606 11607 11608 11609 11610 11611
          11612 11613 11614 11615 11616 11617
          11618 11619 11620 11621 11622 11623
          11624 11625 11626 11627 11628 11629
          11630 11631 11632 11633 11634 11635
          11636 11637 11638 11639 11640 11641
          11642 11643 11644 11645 11646 11647
          11648 11649 11650 11651 11652 11653
          11654 11655 11656 11657 11658 11659
          11660 11661 11662 11663 11664 11665
          11666 11667 11668 11669 11670 11671
          11672 11673 11674 11675 11676 11677
          11678 11679 11680 11681 11682 11683
          11684 11685 11686 11687 11688 11689
          11690 11691 11692 11693 11694 11695
          11696 11697 11698 11699 11700 11701
          11702 11703 11704 11705 11706 11707
          11708 11709 11712 11713 11718 11720
          11721 11722 11723 11724 11725 11726
          11727 11728 11729 11741 11745 11747
          11748 11749 11750 11751 11752 11753
          11761 11762 11763 11764 11768 11769
          11772 11776 11778 11779 11780 11781
          11782 11783 11784 11792 11793 11796
          11797 11799 11800 11801 11802 11803
          11804 11805 11806 11807 11808 11809
          11810 11811 11812 11813 11814 11815
          11816 11817 11818 11819 11820 11821
          11822 11823 11824 11825 11826 11827
          11828 11829 11830 11831 11832 11833
          11834 11835 11836 11837 11838 11839
          11840 11841 11842 11843 11844 11845
          11846 11847 11848 11849 11850 11851
          11852 11853 11854 11855 11856 11857
          11858 11859 11860 11861 11862 11863
          11864 11865 11866 11911 11912 11913
          11914 11915 11916 11917 11918 11919
          11920 11921 11922 11923 11924 11925
          11926 11927 11928 11929 11930 11931
          11932 11933 11934 11935 11936 11937
          11938 11939 11940 11941 11942 11943
          11944 11945 11946 11947 11948 11949
          11950 11951 11952 11953 11954 11955
          11956 11957 2452 2734 2735 2674
          2736 2737 2676 2739 2740 2485
          2743 2742 2486 2747 3155 3157
          2678 3159 3156 3161 3160 3167
          3165 3169 3170 2679 3171 2459
          3174 3329 3332 3333 3330 2671
          3660 3659 3134 3668 3669 3670
          3674 3672 5025 5023 5026 5024
          5029 5028 5030 5032 5052 5036
          5053 5056 5058 3164 2683 5202
          5204 11716 11743 5033 11738 11755
          11765 11766 11757 11767 11759 11770
          5035 11774 5037 11786 11794 11788
          11795 11790 11798 5039 3162 11885
          11895 11897 11899
        </DataArray>
        <DataArray type="Float64" Name="bounds" format="ascii" RangeMin="0" RangeMax="0">
          0 0 0 0 0 0
          0 0 0 0 0 0
          0 0 0 0 0 0
          0 0 0 0 0 0
          0 0 0 0 0 0
          0 0 0 0 0 0
          0 0 0 0 0 0
          0 0 0 0 0 0
          0 0 0 0 0 0
          0 0 0 0 0 0
          0 0 0 0 0 0
          0 0 0 0 0 0
          0 0 0 0 0 0
          0 0 0 0 0 0
          0 0 0 0 0 0
          0 0 0 0 0 0
          0 0 0 0 0 0
          0 0 0 0 0 0
          0 0 0 0 0 0
          0 0 0 0 0 0
          0 0 0 0 0 0
          0 0 0 0 0 0
          0 0 0 0 0 0
          0 0 0 0 0 0
          0 0 0 0 0 0
          0 0 0 0 0 0
          0 0 0 0 0 0
          0 0 0 0 0 0
          0 0 0 0 0 0
          0 0 0 0 0 0
          0 0 0 0 0 0
          0 0 0 0 0 0
          0 0 0 0 0 0
          0 0 0 0 0 0
          0 0 0 0 0 0
          0 0 0 0 0 0
          0 0 0 0 0 0
          0 0 0 0 0 0
          0 0 0 0 0 0
          0 0 0 0 0 0
          0 0 0 0 0 0
          0 0 0 0 0 0
          0 0 0 0 0 0
          0 0 0 0 0 0
          0 0 0 0 0 0
          0 0 0 0 0 0
          0 0 0 0 0 0
          0 0 0 0 0 0
          0 0 0 0 0 0
          0 0 0 0 0 0
          0 0 0 0 0 0
          0 0 0 0 0 0
          0 0 0 0 0 0
          0 0 0 0 0 0
          0 0 0 0 0 0
          0 0 0 0 0 0
          0 0 0 0 0 0
          0 0 0 0 0 0
          0 0 0 0 0 0
          0 0 0 0 0 0
          0 0 0 0 0 0
          0 0 0 0 0 0
          0 0 0 0 0 0
          0 0 0 0 0 0
          0 0 0 0 0 0
          0 0 0 0 0 0
          0 0 0 0 0 0
          0 0 0 0 0 0
          0 0 0 0 0 0
          0 0 0 0 0 0
          0 0 0 0 0 0
          0 0 0 0 0 0
          0 0 0 0 0 0
          0 0 0 0 0 0
          0 0 0 0 0 0
          0 0 0 0 0 0
          0 0 0 0 0 0
          0 0 0 0 0 0
          0 0 0 0 0 0
          0 0 0 0 0 0
          0 0 0 0 0 0
          0 0 0 0 0 0
          0 0 0 0 0 0
          0 0 0 0 0 0
          0 0 0 0 0 0
          0 0 0 0 0 0
          0 0 0 0 0 0
          0 0 0 0 0 0
          0 0 0 0 0 0
          0 0 0 0 0 0
          0 0 0 0 0 0
          0 0 0 0 0 0
          0 0 0 0 0 0
          0 0 0 0 0 0
          0 0 0 0 0 0
          0 0 0 0 0 0
          0 0 0 0 0 0
          0 0 0 0 0 0
          0 0 0 0 0 0
          0 0 0 0 0 0
          0 0 0 0 0 0
          0 0 0 0 0 0
          0 0 0 0 0 0
          0 0 0 0 0 0
          0 0 0 0 0 0
          0 0 0 0 0 0
          0 0 0 0 0 0
          0 0 0 0 0 0
          0 0 0 0 0 0
          0 0 0 0 0 0
          0 0 0 0 0 0
          0 0 0 0 0 0
          0 0 0 0 0 0
          0 0 0 0 0 0
          0 0 0 0 0 0
          0 0 0 0 0 0
          0 0 0 0 0 0
          0 0 0 0 0 0
          0 0 0 0 0 0
          0 0 0 0 0 0
          0 0 0 0 0 0
          0 0 0 0 0 0
          0 0 0 0 0 0
          0 0 0 0 0 0
          0 0 0 0 0 0
          0 0 0 0 0 0
          0 0 0 0 0 0
          0 0 0 0 0 0
          0 0 0 0 0 0
          0 0 0 0 0 0
          0 0 0 0 0 0
          0 0 0 0 0 0
          0 0 0 0 0 0
          0 0 0 0 0 0
          0 0 0 0 0 0
          0 0 0 0 0 0
          0 0 0 0 0 0
          0 0 0 0 0 0
          0 0 0 0 0 0
          0 0 0 0 0 0
          0 0 0 0 0 0
          0 0 0 0 0 0
          0 0 0 0 0 0
          0 0 0 0 0 0
          0 0 0 0 0 0
          0 0 0 0 0 0
          0 0 0 0 0 0
          0 0 0 0 0 0
          0 0 0 0 0 0
          0 0 0 0 0 0
          0 0 0 0 0 0
          0 0 0 0 0 0
          0 0 0 0 0 0
          0 0 0 0 0 0
          0 0 0 0 0 0
          0 0 0 0 0 0
          0 0 0 0 0 0
          0 0 0 0 0 0
          0 0 0 0 0 0
          0 0 0 0 0 0
          0 0 0 0 0 0
          0 0 0 0 0 0
          0 0 0 0 0 0
          0 0 0 0 0 0
          0 0 0 0 0 0
          0 0 0 0 0 0
          0 0 0 0 0 0
          0 0 0 0 0 0
          0 0 0 0 0 0
          0 0 0 0 0 0
          0 0 0 0 0 0
          0 0 0 0 0 0
          0 0 0 0 0 0
          0 0 0 0 0 0
          0 0 0 0 0 0
          0 0 0 0 0 0
          0 0 0 0 0 0
          0 0 0 0 0 0
          0 0 0 0 0 0
          0 0 0 0 0 0
          0 0 0 0 0 0
          0 0 0 0 0 0
          0 0 0 0 0 0
          0 0 0 0 0 0
          0 0 0 0 0 0
          0 0 0 0 0 0
          0 0 0 0 0 0
          0 0 0 0 0 0
          0 0 0 0 0 0
          0 0 0 0 0 0
          0 0 0 0 0 0
          0 0 0 0 0 0
          0 0 0 0 0 0
          0 0 0 0 0 0
          0 0 0 0 0 0
          0 0 0 0 0 0
          0 0 0 0 0 0
          0 0 0 0 0 0
          0 0 0 0 0 0
          0 0 0 0 0 0
          0 0 0 0 0 0
          0 0 0
        </DataArray>
        <DataArray type="Float64" Name="gradient_error" format="ascii" RangeMin="8.370854904980559e-15" RangeMax="4.075055292959496e-12">
          6.081621162924729e-14 2.42552433706174e-13 2.8168929548966537e-13 1.3867740672208914e-13 4.372479414937122e-14 5.064158530723571e-13
          1.5048278846149255e-13 6.953454617096567e-14 9.603067014959036e-14 5.366355836924149e-14 6.392974708303367e-14 9.22839996573013e-13
          7.763498681943727e-13 6.523961511187279e-13 4.691014973001982e-13 2.332485343796811e-13 1.5393131159987056e-13 1.3321912572628213e-13
          2.113915495175819e-13 1.2364897467790297e-13 2.0162100460959377e-12 1.5414562860269988e-12 3.8184369887045734e-13 6.197473002415536e-13
          7.236527810151704e-14 6.28157246756541e-14 8.670386626211394e-14 6.492518754497029e-14 3.9584694708469846e-14 4.4664832538500514e-14
          5.793422350955018e-14 5.01647013261543e-14 6.941826378190049e-14 4.943600573522058e-14 1.120986321838378e-13 8.343718126222578e-14
          4.474010691448533e-14 5.242260352597516e-14 1.0305461480498047e-13 8.322742558221216e-14 5.5239025883028366e-14 4.810454176539391e-14
          6.930984230220534e-14 6.029843302742197e-14 6.623663902570387e-13 5.91518059595906e-13 7.044710718850464e-14 2.434853682754169e-13
          2.1216622640686182e-13 3.280293419446605e-14 3.045567532650115e-14 7.345104287379596e-14 6.446767947053528e-14 1.8155634328792283e-14
          3.4201173597752787e-14 2.996858470000798e-14 5.071617555940612e-14 4.3819784619794796e-14 5.713017260599588e-14 4.7180112051179774e-14
          2.3831113125075613e-14 6.228070425992297e-14 5.1040257117331454e-14 2.8050921547116023e-14 3.9122808915090433e-14 2.9305988189619985e-14
          7.375136740794322e-14 5.826393244596082e-14 7.824940110958729e-14 5.220688286865752e-14 1.2901782879302744e-12 1.2050057027828958e-12
          8.447023492479502e-13 7.876410240481161e-13 5.976384078303249e-13 4.1888735495261783e-13 3.9142713229583664e-13 9.833103786966376e-13
          6.398021224773222e-13 3.1980008871702675e-13 1.282809676688668e-12 1.181301607554816e-12 6.006324621563591e-13 9.23304778067448e-13
          3.093661862790878e-13 2.908391279033553e-13 2.0377706363808616e-13 1.9096979912295677e-13 1.3945527676302528e-13 9.793725704237415e-14
          9.141135913027269e-14 2.3997527474400083e-13 1.5685400194717816e-13 1.0260564336569654e-13 3.2201406910039645e-13 2.9632512697500137e-13
          1.4154810695049998e-13 2.3092983442029547e-13 7.058939139040018e-13 4.554048196595675e-13 3.555304159729013e-13 2.2933223853139645e-13
          4.4916171608232345e-13 2.8667837555065583e-13 1.8647422608198127e-13 6.140759775654722e-13 3.112092021669973e-13 3.4864206016597934e-13
          1.7128308449804298e-13 1.4955534671126717e-13 8.041015944136102e-14 1.3745834462653759e-13 1.0741435212211806e-13 1.7171910237381195e-13
          1.2496620924709614e-13 1.838520596479158e-13 1.4818061796181096e-13 1.7776479360667284e-13 3.729503817909807e-12 3.4263127306412802e-12
          1.918379637458283e-12 1.7617132379190876e-12 2.6556138442379116e-12 1.363961890475944e-12 3.835038564680053e-12 3.604583688493229e-12
          1.890587361618931e-12 2.9553571595880363e-12 9.568891960796053e-13 8.784167242097963e-13 4.628913680200921e-13 4.247568661370465e-13
          6.795124371608206e-13 3.2798660627421953e-13 1.0266718740480662e-12 9.606517514740102e-13 4.72936342860555e-13 7.792704616492599e-13
          1.7353360194459797e-12 8.899584900189147e-13 9.567775707600708e-13 4.892418452465859e-13 2.0617421376926617e-12 1.0686988178796907e-12
          1.2022531729609445e-12 4.423822021920544e-13 2.1301009439596608e-13 2.4246238466521915e-13 1.1631558126256309e-13 5.372045808147418e-13
          2.6190980529040857e-13 3.0998285129466805e-13 6.648660241612898e-14 6.201207841185313e-14 8.462075188337965e-14 7.89371631133254e-14
          2.953703892294354e-14 8.087603884178562e-14 7.58186131933271e-14 5.1205488838095584e-14 9.355091807100653e-14 6.340715209002997e-14
          1.0584987857163516e-13 9.793573160124025e-14 8.056226792208942e-14 1.0374937399377777e-13 2.166704055608062e-13 1.9874686845010936e-13
          9.788910262400103e-14 8.982181661619611e-14 1.53228265399597e-13 6.910717917843658e-14 2.420117183487135e-13 2.2562626799134576e-13
          1.0437303771889863e-13 1.8135337114455846e-13 3.975351216238386e-14 4.9445893768426115e-14 4.238681747878264e-14 4.9672444908499165e-14
          4.9869996121325464e-14 4.865556444861202e-14 5.748838239132573e-14 5.0617819618168064e-14 4.934544314343041e-14 5.764422222306235e-14
          5.049282342932187e-14 4.6786648699976204e-14 5.613596198525105e-14 3.690497535577907e-14 9.763410751944863e-14 9.920870305945597e-14
          5.786720896911621e-14 5.5108760899761244e-14 7.370024801039872e-14 6.603493170377092e-14 6.566731609248869e-14 1.238891114275653e-13
          5.665574096723159e-14 7.060792966446514e-14 4.819189799769423e-14 5.396006682967982e-14 4.003912084471234e-14 5.056210837145671e-14
          5.118321607128055e-14 6.436922510249762e-14 4.8214541738012433e-14 4.3088055137146074e-14 5.1100267835829103e-14 6.4737766172087e-14
          1.7951435517525106e-13 2.274175617677258e-13 2.9942167146801664e-13 1.310803974341744e-13 1.1203964900218704e-13 7.866204671297076e-14
          6.484201789479035e-14 1.05030169822371e-13 9.216838106167768e-14 7.80071808043039e-14 1.4884291780767386e-13 7.163898434770797e-14
          9.437257081959443e-14 1.0616831180057944e-13 1.0127170335316796e-13 5.4785204990206826e-14 7.178715940013923e-14 6.067962282547391e-14
          7.581530259691556e-14 3.978275065705338e-14 9.739866138819168e-14 8.878911381007164e-14 9.095098236835722e-14 6.635417392123536e-14
          6.774689672150638e-14 5.77105912914625e-14 6.979769576674616e-14 5.399376575231862e-14 6.314227667281442e-14 5.169661047730826e-14
          5.40636687988395e-14 6.936709355298792e-14 6.220727180881131e-14 1.4180920190627238e-14 2.7678487874523866e-14 8.370854904980559e-15
          1.3886011931219533e-14 9.183390967205888e-15 1.4017669186169899e-14 8.959857457939042e-15 4.1176055558420484e-14 1.9401168957458507e-14
          1.8851947405133913e-14 1.925311313988047e-14 1.86242701991194e-14 4.0128983064358133e-14 3.7092513752527384e-14 1.4673321442040736e-14
          2.5339381595680204e-14 2.3006777988634705e-14 1.6732318774150313e-14 3.025851803684626e-14 1.864369944121314e-14 4.09560380314494e-14
          9.613910325561624e-14 2.3984269802675305e-14 4.7150238644993314e-14 3.1972112382109644e-14 6.27462116970514e-14 3.532873850187928e-14
          1.419064668379378e-14 2.2450983996163998e-14 1.0836129056106202e-14 1.4928436888232546e-14 1.291208307764526e-14 1.8440976359332118e-14
          1.3243649275628014e-14 6.639472485177713e-14 1.3773309107486645e-13 3.8406923941479574e-14 7.157974025733709e-14 5.2888434495025226e-14
          9.424886075661133e-14 4.9382467624932994e-14 2.2076171546036872e-14 3.573327543300151e-14 1.659713862758031e-14 2.373408697037718e-14
          1.7246771122139394e-14 2.4733279829321372e-14 1.7976679744707093e-14 3.535183547352026e-14 4.6304687290882056e-14 2.4175107884217952e-14
          3.1238784763909543e-14 2.4819122144351722e-14 3.218566536936098e-14 2.3112974704855246e-14 5.725753910824387e-14 3.830246164360112e-14
          3.955220859437024e-14 2.8309062238461945e-14 3.67947125988863e-14 2.010516701983704e-14 2.471086901957427e-14 1.897018609825537e-14
          2.348573521340074e-14 1.77449849555302e-14 4.528036295931067e-14 2.93165710193115e-14 2.8001284328546112e-14 4.4861372629917755e-14
          4.196557530734197e-14 5.87572890692462e-14 5.465305733593669e-14 2.842198216778286e-14 4.0904526768492845e-14 3.8026069868322256e-14
          3.43944013566134e-14 4.425614783547702e-14 3.055497081893829e-14 7.265320550857465e-14 6.734053936453142e-14 4.7630157568861645e-14
          5.4117894314340625e-14 2.486842277975683e-14 3.180400051722101e-14 1.6593493085180327e-14 2.182868381130848e-14 2.001782083105304e-14
          2.5644530966115158e-14 1.769503895289204e-14 3.873957825468518e-14 2.706387453743663e-14 3.1271241101177273e-14 3.917574667032706e-13
          6.217752248619642e-13 6.097345782437895e-13 5.750793277399417e-13 1.2566225018906313e-12 2.83199450525733e-13 2.778510268693876e-13
          4.432088615921666e-13 4.3459428047031115e-13 1.960670939243278e-13 3.1383130731968795e-13 3.077086227316532e-13 2.6254728250120875e-13
          4.098375744910856e-13 2.9013009268712855e-13 9.182101920754067e-13 8.99442261248876e-13 6.390409887260429e-13 8.454632114824617e-13
          3.3745199235485926e-13 5.21913675001272e-13 4.557451987882313e-13 1.065863341205181e-12 2.3924658515319123e-13 3.7189787694909414e-13
          1.6872860826352216e-13 2.632097813514388e-13 2.0997815066052742e-13 3.2464905262787626e-13 2.29711782373318e-13 7.627409916738425e-13
          5.417734859362637e-13 6.606019214536691e-13 1.4034622574633784e-13 1.3770816904557493e-13 2.20759716781033e-13 2.164613419001443e-13
          9.634079127256115e-14 1.5425664622939005e-13 1.512489161902952e-13 1.3010932661417794e-13 2.0407714681698335e-13 1.4259568087364014e-13
          4.601042540024875e-13 4.50663841619592e-13 3.15387523078063e-13 4.235205649330807e-13 6.752695271840804e-14 6.613440577786819e-14
          1.0658826054097608e-13 1.0445715399625025e-13 4.5711701775879737e-14 7.30685956604645e-14 7.156394385415467e-14 6.265643913592887e-14
          9.852534355826415e-14 6.759798835955674e-14 2.2363236010901766e-13 2.1903218900713981e-13 1.5076713057508982e-13 2.056858639607591e-13
          1.1844472088153008e-13 1.8505605736318802e-13 8.317170066028585e-14 1.29259617424806e-13 1.0425476715150523e-13 1.6154729317909963e-13
          1.1291257193196269e-13 3.8194927207708015e-13 2.6712301238959673e-13 3.305056510932989e-13 5.816049702063275e-14 8.924047548397412e-14
          4.159655645919311e-14 6.10142318885075e-14 5.27250659430696e-14 7.747415501462664e-14 5.694353123496178e-14 1.8521699528393998e-13
          1.267082301033371e-13 1.5976899865908253e-13 2.5091450484090764e-13 3.831212805449702e-13 3.1014212384572504e-13 7.681358075337795e-13
          1.776035567570075e-13 2.7273117087530094e-13 1.2550069056770965e-13 1.9286534472001513e-13 1.4521183712962705e-13 2.2071289063014222e-13
          1.560457075296401e-13 5.494476393331217e-13 3.900116216897228e-13 4.389401706853812e-13 1.6196645281234664e-13 2.4199435388551275e-13
          1.8212158815994767e-13 4.719898249746625e-13 1.1574650955049978e-13 1.7202042357905441e-13 8.352581290134286e-14 1.2090343603851073e-13
          9.007106163459353e-14 1.2852308017250976e-13 9.853037308713995e-14 3.373400729522913e-13 2.3821394763286027e-13 2.483059025116747e-13
          8.948639318799046e-14 1.355276973610795e-13 6.491858502785421e-14 9.426349190241557e-14 7.494398150298008e-14 1.0897702896108465e-13
          8.212331122264048e-14 2.7462641472347225e-13 1.9091238851579156e-13 2.185649192288292e-13 4.751222043326569e-14 6.451661063389937e-14
          4.0718114036163884e-14 5.2352031864714595e-14 4.5324283587128265e-14 5.78412225414898e-14 4.765702823603661e-14 1.310712829574118e-13
          1.0441507775630293e-13 1.1866758695046893e-13 6.180520000691317e-14 8.40426489324302e-14 5.369878288727301e-14 6.898462791910293e-14
          5.592658996035285e-14 7.22128364183159e-14 6.014112055916006e-14 1.6589041620312077e-13 1.330865405403381e-13 1.3915072844764384e-13
          2.432615464399855e-12 2.3809943160498593e-12 2.232691340153063e-12 3.6513094343521385e-12 1.7458952998169978e-12 1.7087921113882336e-12
          1.2436176059562575e-12 1.2171494087485386e-12 1.6022090185805374e-12 1.1411312948817127e-12 2.6851270349371907e-12 2.6286903570370007e-12
          1.8779641438802522e-12 2.466326209329225e-12 2.0060122688161944e-12 1.7272715057235222e-12 3.081400585609416e-12 1.4393276102480066e-12
          1.0249775104826544e-12 1.239101981720849e-12 8.822533838274945e-13 2.2175055652687554e-12 1.583618358624257e-12 1.9104802711743772e-12
          4.075055292959496e-12 4.001564785266911e-12 3.787273687206375e-12 3.776966019932308e-12 2.951751172751406e-12 2.8980153010802207e-12
          2.121369097670622e-12 2.082405703153568e-12 2.7414648350310087e-12 1.9689859216967452e-12 2.7918367637702135e-12 2.74868712243639e-12
          1.984450110130601e-12 2.6208967320806798e-12 3.4506747921495824e-12 3.0217274307166275e-12 3.325221625950045e-12 2.4959478616779958e-12
          1.7913719346682843e-12 2.1836838763330767e-12 1.5658853322800614e-12 2.414606998711806e-12 1.7396061556201917e-12 2.1427272854469835e-12
          8.791618406807923e-13 8.604192185994715e-13 6.168472733752628e-13 6.036655603336949e-13 8.066118307917136e-13 5.658566798914089e-13
          1.3600816848696793e-12 1.3313623779892622e-12 9.366360593020009e-13 1.2487763639430887e-12 4.295883235029728e-13 4.203860225971138e-13
          2.971212778837775e-13 2.907478014163486e-13 3.939448534458179e-13 2.723377007186113e-13 6.680922569379318e-13 6.539146919696864e-13
          4.5304273329255396e-13 6.131859778205121e-13 7.244367885837155e-13 5.08252447390495e-13 6.234255572001857e-13 4.3738045481681837e-13
          1.1223041857981706e-12 7.893112250811705e-13 9.663951343984368e-13 3.541388021112641e-13 2.448685349599615e-13 3.0535728490201e-13
          2.1129045821817218e-13 5.508380643183738e-13 3.814199240273723e-13 4.739841259459116e-13 1.5126825301932497e-12 1.484664361070627e-12
          1.0702292530979244e-12 1.0502473199056325e-12 1.4031675376682242e-12 9.92165601328033e-13 1.4444900718194781e-12 1.421329234877203e-12
          1.0099356368265562e-12 1.353009846187326e-12 7.512727717417273e-13 7.371397084653421e-13 5.23222029002552e-13 5.133092873311013e-13
          6.960798995582011e-13 4.845211761884159e-13 7.239225247590454e-13 7.119376023858915e-13 4.979106356920419e-13 6.767000704260951e-13
          1.2757201078037705e-12 9.014452806679339e-13 1.114196234779058e-12 7.866508402321426e-13 1.243474270869317e-12 8.818745153646497e-13
          1.10028183218171e-12 6.320207851155707e-13 4.396548703697823e-13 5.510944101180336e-13 3.8306432516093536e-13 6.205295091963578e-13
          4.332224097158907e-13 5.476203849162826e-13 1.4257303484980325e-12 1.1286794189110822e-12 2.1930162606931994e-12 1.0225773070216946e-12
          7.280953093731224e-13 8.092588216020202e-13 5.761162223365879e-13 1.5770870086044801e-12 1.1255690160778468e-12 1.247431837459655e-12
          8.575924226326233e-13 6.255884443143797e-13 1.31600649466933e-12 6.153552313636913e-13 4.383044896663295e-13 4.493637819098626e-13
          3.1996654992996846e-13 9.454681064624543e-13 6.740865856556272e-13 6.868395517931734e-13 2.5389257795100055e-12 2.043919385808542e-12
          2.5223361758111517e-12 1.8329445432217883e-12 1.31310155793532e-12 1.4740504443895585e-12 1.0549222018044753e-12 1.8258331896053563e-12
          1.311462457954066e-12 1.4900884598237422e-12 1.574910006356693e-12 1.160933702441689e-12 1.6110344736493264e-12 1.1346258336517332e-12
          8.111944498106683e-13 8.355223664324303e-13 5.967631395327921e-13 1.1626401088089667e-12 8.32677871552699e-13 8.664564867853161e-13
          5.149356150951212e-13 3.6147524725385753e-13 4.080944914876618e-13 2.8655453349718534e-13 7.971825368299553e-13 5.60268359744277e-13
          6.299270534510788e-13 2.5200745338971173e-13 1.7387166245273594e-13 1.9868545028899384e-13 1.3641300831979874e-13 3.9059461139271863e-13
          2.7009368550273896e-13 3.0824448379894107e-13 3.0992351304104333e-13 2.168291221160506e-13 2.2502107688868931e-13 1.567257785801104e-13
          4.767983510272007e-13 3.3457788675776793e-13 3.45807898620344e-13 1.0745551913997301e-13 1.4966400712398647e-13 7.307604409074674e-14
          1.0256754197692829e-13 7.757715643185089e-14 1.0806004719792676e-13 7.406499406204996e-14 2.3296403670140256e-13 1.6090976466289336e-13
          1.6863395398580751e-13 9.334544510441982e-13 6.584440630051688e-13 7.491967015089164e-13 5.279876651212918e-13 9.347312307059515e-13