<?xml version="1.0"?>
<VTKFile type="UnstructuredGrid" version="0.1" byte_order="LittleEndian" header_type="UInt32" compressor="vtkZLibDataCompressor">
  <UnstructuredGrid>
    <Piece NumberOfPoints="1097" NumberOfCells="781">
      <PointData>
        <DataArray type="Int32" Name="libmesh_node_id" format="ascii" RangeMin="2444" RangeMax="8617">
          2614 2620 2966 2983 2984 2989
          2999 3004 3019 3020 3026 4017
          4051 4081 4082 4085 4087 4102
          4107 4117 4119 4120 4121 4131
          4135 4169 4170 4174 4207 4208
          4211 4301 4302 4303 4304 4305
          4306 4307 4308 4309 4310 4311
          4312 4315 4316 4318 4320 4322
          4324 4328 4329 4332 4334 4338
          4339 4341 4342 4343 4344 4345
          4346 4347 4348 4350 4352 4354
          4355 4356 4359 4360 4362 4363
          4366 4367 6011 6012 6013 6014
          6015 6016 6017 6018 6019 6020
          6042 6043 6044 6045 6046 6047
          6048 6235 6236 6237 6238 6239
          6240 6241 6263 6264 6265 6266
          6267 6268 6269 6328 6329 6330
          6331 6332 6333 6334 6335 6336
          6337 6348 6349 6350 6351 6352
          6353 6354 6355 6356 6357 6365
          6366 6367 6368 6369 6370 6371
          6379 6380 6381 6382 6383 6384
          6385 6434 6435 6436 6437 6438
          6439 6440 6441 6442 6443 6451
          6452 6453 6454 6455 6456 6457
          6468 6469 6470 6471 6475 6476
          6525 6526 6527 6528 6529 6530
          6531 6539 6540 6541 6542 6543
          6544 6545 6547 6549 6551 6553
          6554 6555 6556 6557 6558 6559
          6561 6565 6567 6568 6569 6570
          6571 6572 6573 6621 6622 6623
          6624 6625 6626 6627 6635 6636
          6639 6640 6649 6650 6651 6652
          6653 6654 6655 6663 6664 6667
          6668 6854 6855 6856 6857 6858
          6859 6860 6861 6862 6863 6864
          6865 6868 6869 6871 6873 6888
          6889 6890 6891 6892 6893 6894
          6895 6896 6897 6898 6899 6900
          6901 6956 6958 6960 6962 7120
          7121 7122 7123 7124 7125 7126
          7127 7128 7129 7130 7131 7132
          7133 7148 7149 7150 7151 7152
          7153 7154 7155 7156 7157 7158
          7159 7160 7161 7176 7178 7180
          7182 7204 7206 7208 7210 7766
          7767 7768 7769 7770 7771 7772
          7773 7774 7775 7776 7777 7778
          7779 7780 7781 7782 7783 7784
          7785 7786 7787 7788 7789 7790
          7791 7792 7793 7794 7795 7796
          7797 7798 7799 7800 7801 7802
          7803 7804 7805 7806 7807 7808
          7809 7810 7811 7812 7813 7814
          7815 7816 7817 7818 7819 7820
          7821 7822 7823 7824 7825 7826
          7827 7828 7829 7830 7831 7832
          7833 7834 7835 7836 7837 7838
          7839 7840 7841 7842 7843 7844
          7845 7848 7849 7851 7853 7854
          7855 7856 7857 7858 7859 7860
          7861 7862 7863 7864 7865 7868
          7869 7871 7873 7874 7875 7876
          7877 7878 7879 7880 7881 7883
          7885 7887 7888 7889 7890 7891
          7892 7893 7894 7895 7897 7899
          7901 7902 7903 7904 7905 7906
          7907 7908 7909 7910 7911 7912
          7913 7914 7915 7916 7917 7918
          7919 7920 7921 7922 7923 7924
          7925 7926 7927 7928 7929 7930
          7931 7932 7933 7934 7935 7936
          7937 7938 7939 7943 7944 7946
          7947 7948 7949 7953 7954 7956
          7957 7958 7959 7960 7961 7962
          7963 7964 7965 7966 7967 7968
          7969 7970 7971 7972 7973 7974
          7975 7976 7977 7978 7979 7980
          7981 7982 7983 7984 7985 7986
          7987 7988 7989 7990 7991 7992
          7993 7997 7998 8000 8001 8002
          8003 8007 8008 8010 8011 8012
          8013 8014 8015 8016 8017 8018
          8019 8020 8021 8022 8023 8024
          8025 8026 8027 8028 8029 8030
          8031 8032 8033 8034 8035 8036
          8037 8038 8039 8040 8041 8042
          8043 8044 8045 8046 8047 8048
          8049 8050 8051 8052 8053 8054
          8055 8056 8057 8058 8059 8060
          8061 8062 8063 8064 8065 8066
          8067 8068 8069 8070 8071 8072
          8073 8075 8077 8079 8080 8081
          8082 8083 8084 8085 8086 8087
          8089 8091 8093 8094 8095 8096
          8097 8098 8099 8100 8101 8103
          8105 8107 8108 8109 8110 8111
          8112 8113 8114 8115 8117 8119
          8121 8122 8123 8124 8125 8126
          8127 8128 8129 8130 8131 8132
          8133 8134 8135 8136 8137 8140
          8141 8143 8144 8147 8148 8150
          8151 8152 8153 8154 8155 8156
          8157 8158 8159 8160 8161 8162
          8163 8164 8165 8168 8169 8171
          8172 8175 8176 8178 8179 8180
          8181 8182 8183 8184 8185 8186
          8187 8188 8189 8190 8191 8192
          8193 8196 8197 8199 8200 8203
          8204 8206 8207 8208 8209 8210
          8211 8212 8213 8214 8215 8216
          8217 8218 8219 8220 8221 8224
          8225 8227 8228 8231 8232 4099
          4101 2617 4103 4100 4105 4104
          4321 4325 4326 4323 3023 4327
          4331 4335 4336 4333 2630 4337
          4389 4393 4390 4394 5420 5422
          5425 5424 4011 4013 4015 5442
          5440 4079 5445 5444 4083 5456
          5454 5481 5485 4165 5483 5486
          4167 2998 5529 5531 5533 5534
          5492 5536 4179 5493 5538 2625
          4313 5540 5541 3021 5543 5545
          5550 5552 5995 6003 5987 5996
          6004 5997 6007 4012 6000 6009
          4014 4016 6024 6030 6036 6031
          6038 4018 6034 6040 4019 4020
          6217 6223 6229 6224 6231 4048
          6227 6233 4049 4050 6245 6251
          6257 6252 6259 4052 6255 6261
          4053 4054 6320 6321 6324 6326
          4080 6340 6341 6344 6346 4084
          6359 6361 6363 4086 6373 6375
          6377 4088 6426 6427 6430 6432
          6445 6447 6449 4106 6460 6461
          6472 6473 6464 6474 6466 6477
          4108 2987 6230 6519 6518 6234
          6523 6522 6521 4116 6533 6535
          6537 4118 6258 6546 6524 6548
          6262 6550 6552 6536 6560 6538
          6563 6562 6564 4122 6566 6615
          6617 6619 4130 6629 6637 6631
          6638 6633 6641 4132 4133 6643
          6645 6647 4134 6657 6665 6659
          6666 6661 6669 4136 2444 6838
          6839 6840 6843 4166 6848 6849
          6866 6850 6867 6870 6853 4168
          6872 4171 6876 6877 6880 4172
          6883 6884 6887 4173 6911 6929
          6944 4176 6930 6945 6957 6931
          4180 6959 6948 4182 6961 4184
          7108 7109 7112 4205 7115 7116
          7119 4206 7136 7137 7140 4209
          7143 7144 7147 4210 7164 7165
          7177 7179 7168 4212 7181 4214
          7192 7193 7205 7207 7196 4216
          7209 4218 6926 6927 6928 6936
          6937 7846 6938 7847 7850 6941
          4181 7852 4314 7866 7867 7870
          7872 4317 6965 6966 7882 7884
          6969 3000 7886 4319 7896 7898
          7900 3022 7940 7941 7942 7945
          4330 7950 7951 7952 7955 3024
          7994 7995 7996 7999 4340 8004
          8005 8006 8009 3025 7185 7186
          8074 8076 7189 4215 8078 4349
          8088 8090 8092 4351 7213 7214
          8102 8104 7217 2633 8106 4353
          8116 8118 8120 3027 8138 8139
          8142 4357 8145 8146 8149 4358
          8166 8167 8170 4361 8173 8174
          8177 3028 8194 8195 8198 4364
          8201 8202 8205 4365 8222 8223
          8226 4368 8229 8230 8233 2635
          8258 8370 8259 8371 8374 8375
          8263 8377 8379 8290 8380 8382
          8294 8384 8386 8397 8398 8401
          8402 8404 8406 8473 8569 8571
          8477 8573 8575 8583 8585 8587
          8589 8501 8597 8599 8505 8601
          8603 8611 8613 8615 8617
        </DataArray>
        <DataArray type="Float64" Name="bounds" format="ascii" RangeMin="0" RangeMax="0">
          0 0 0 0 0 0
          0 0 0 0 0 0
          0 0 0 0 0 0
          0 0 0 0 0 0
          0 0 0 0 0 0
          0 0 0 0 0 0
          0 0 0 0 0 0
          0 0 0 0 0 0
          0 0 0 0 0 0
          0 0 0 0 0 0
          0 0 0 0 0 0
          0 0 0 0 0 0
          0 0 0 0 0 0
          0 0 0 0 0 0
          0 0 0 0 0 0
          0 0 0 0 0 0
          0 0 0 0 0 0
          0 0 0 0 0 0
          0 0 0 0 0 0
          0 0 0 0 0 0
          0 0 0 0 0 0
          0 0 0 0 0 0
          0 0 0 0 0 0
          0 0 0 0 0 0
          0 0 0 0 0 0
          0 0 0 0 0 0
          0 0 0 0 0 0
          0 0 0 0 0 0
          0 0 0 0 0 0
          0 0 0 0 0 0
          0 0 0 0 0 0
          0 0 0 0 0 0
          0 0 0 0 0 0
          0 0 0 0 0 0
          0 0 0 0 0 0
          0 0 0 0 0 0
          0 0 0 0 0 0
          0 0 0 0 0 0
          0 0 0 0 0 0
          0 0 0 0 0 0
          0 0 0 0 0 0
          0 0 0 0 0 0
          0 0 0 0 0 0
          0 0 0 0 0 0
          0 0 0 0 0 0
          0 0 0 0 0 0
          0 0 0 0 0 0
          0 0 0 0 0 0
          0 0 0 0 0 0
          0 0 0 0 0 0
          0 0 0 0 0 0
          0 0 0 0 0 0
          0 0 0 0 0 0
          0 0 0 0 0 0
          0 0 0 0 0 0
          0 0 0 0 0 0
          0 0 0 0 0 0
          0 0 0 0 0 0
          0 0 0 0 0 0
          0 0 0 0 0 0
          0 0 0 0 0 0
          0 0 0 0 0 0
          0 0 0 0 0 0
          0 0 0 0 0 0
          0 0 0 0 0 0
          0 0 0 0 0 0
          0 0 0 0 0 0
          0 0 0 0 0 0
          0 0 0 0 0 0
          0 0 0 0 0 0
          0 0 0 0 0 0
          0 0 0 0 0 0
          0 0 0 0 0 0
          0 0 0 0 0 0
          0 0 0 0 0 0
          0 0 0 0 0 0
          0 0 0 0 0 0
          0 0 0 0 0 0
          0 0 0 0 0 0
          0 0 0 0 0 0
          0 0 0 0 0 0
          0 0 0 0 0 0
          0 0 0 0 0 0
          0 0 0 0 0 0
          0 0 0 0 0 0
          0 0 0 0 0 0
          0 0 0 0 0 0
          0 0 0 0 0 0
          0 0 0 0 0 0
          0 0 0 0 0 0
          0 0 0 0 0 0
          0 0 0 0 0 0
          0 0 0 0 0 0
          0 0 0 0 0 0
          0 0 0 0 0 0
          0 0 0 0 0 0
          0 0 0 0 0 0
          0 0 0 0 0 0
          0 0 0 0 0 0
          0 0 0 0 0 0
          0 0 0 0 0 0
          0 0 0 0 0 0
          0 0 0 0 0 0
          0 0 0 0 0 0
          0 0 0 0 0 0
          0 0 0 0 0 0
          0 0 0 0 0 0
          0 0 0 0 0 0
          0 0 0 0 0 0
          0 0 0 0 0 0
          0 0 0 0 0 0
          0 0 0 0 0 0
          0 0 0 0 0 0
          0 0 0 0 0 0
          0 0 0 0 0 0
          0 0 0 0 0 0
          0 0 0 0 0 0
          0 0 0 0 0 0
          0 0 0 0 0 0
          0 0 0 0 0 0
          0 0 0 0 0 0
          0 0 0 0 0 0
          0 0 0 0 0 0
          0 0 0 0 0 0
          0 0 0 0 0 0
          0 0 0 0 0 0
          0 0 0 0 0 0
          0 0 0 0 0 0
          0 0 0 0 0 0
          0 0 0 0 0 0
          0 0 0 0 0 0
          0 0 0 0 0 0
          0 0 0 0 0 0
          0 0 0 0 0 0
          0 0 0 0 0 0
          0 0 0 0 0 0
          0 0 0 0 0 0
          0 0 0 0 0 0
          0 0 0 0 0 0
          0 0 0 0 0 0
          0 0 0 0 0 0
          0 0 0 0 0 0
          0 0 0 0 0 0
          0 0 0 0 0 0
          0 0 0 0 0 0
          0 0 0 0 0 0
          0 0 0 0 0 0
          0 0 0 0 0 0
          0 0 0 0 0 0
          0 0 0 0 0 0
          0 0 0 0 0 0
          0 0 0 0 0 0
          0 0 0 0 0 0
          0 0 0 0 0 0
          0 0 0 0 0 0
          0 0 0 0 0 0
          0 0 0 0 0 0
          0 0 0 0 0 0
          0 0 0 0 0 0
          0 0 0 0 0 0
          0 0 0 0 0 0
          0 0 0 0 0 0
          0 0 0 0 0 0
          0 0 0 0 0 0
          0 0 0 0 0 0
          0 0 0 0 0 0
          0 0 0 0 0 0
          0 0 0 0 0 0
          0 0 0 0 0 0
          0 0 0 0 0 0
          0 0 0 0 0 0
          0 0 0 0 0 0
          0 0 0 0 0 0
          0 0 0 0 0 0
          0 0 0 0 0 0
          0 0 0 0 0 0
          0 0 0 0 0 0
          0 0 0 0 0 0
          0 0 0 0 0 0
          0 0 0 0 0 0
          0 0 0 0 0 0
          0 0 0 0 0 0
          0 0 0 0 0
        </DataArray>
        <DataArray type="Float64" Name="gradient_error" format="ascii" RangeMin="3.2710646005145453e-12" RangeMax="1.3881929792686129e-9">
          2.401566175121352e-10 8.759415420255952e-10 4.654036863625372e-10 8.597757454772191e-11 1.3024780901744132e-10 2.717703892616822e-10
          3.0575570444986165e-10 6.394911731377041e-10 4.536955782857112e-11 7.909242948577364e-11 1.7871287382182784e-10 1.9956212078722718e-10
          8.282337741068289e-10 1.5069406148072127e-10 1.1652881830694523e-10 6.077253250601603e-11 2.6288190834963e-10 5.099077803182257e-11
          5.7567729345821004e-11 4.709169195449246e-10 2.2797526947562921e-10 6.252198166003514e-10 5.404887372947075e-10 9.605184972198457e-11
          1.1508662146825686e-10 1.7903382857895652e-10 1.5635264750148744e-10 3.8255076498470066e-10 7.097729483300628e-10 5.910869095670068e-10
          7.58879914571077e-10 1.113689966187627e-10 9.00124771866174e-11 8.094065487228134e-11 6.795895565933914e-11 6.2922045521788e-11
          4.6273288551642864e-11 3.4513539740655995e-11 2.1156183447429412e-10 1.6593445572006913e-10 1.0266888822253585e-10 5.7618013344910095e-11
          5.008880484168924e-11 3.205202801986024e-11 2.5171769323473663e-11 1.2673443578401873e-10 5.947667474958537e-11 3.7966779949634506e-11
          2.774907770393404e-11 4.4487753737429075e-11 3.368289791551202e-11 1.9875608434967353e-11 1.39061533239249e-11 2.494169021380377e-11
          1.80517002900499e-11 3.9323073221257883e-10 3.195184059027858e-10 1.8543149482724844e-10 1.4715047452746268e-10 4.5590112493619345e-10
          3.741975489581855e-10 2.2317043366746773e-10 2.523796417569011e-10 1.1380997725247292e-10 2.9851351849258607e-10 1.3941958961014526e-10
          7.621143623973105e-11 5.916572908592015e-11 9.21453953423257e-11 7.215121287745898e-11 4.4874375429149426e-11 3.322819360398398e-11
          5.5172385936397627e-11 4.117201840381638e-11 1.3294223537157197e-10 1.7465085861252125e-10 1.168649496845327e-10 1.5460885323566334e-10
          1.0767121514267419e-10 1.4092687217100178e-10 1.2436401097822751e-10 2.787247281042207e-10 2.4971847454431527e-10 2.2359966366931552e-10
          4.30322872645735e-10 3.9063521256700616e-10 3.4352832433522217e-10 3.104269903107502e-10 6.389666348930052e-10 5.879692222721199e-10
          5.083942271150502e-10 8.916630088371611e-10 8.307634432031509e-10 7.097109412543571e-10 6.576177208476334e-10 1.0996175678818627e-9
          1.0338120848791e-9 8.858756469690542e-10 1.1316640762301448e-9 1.0683826798383304e-9 9.436717818855938e-10 8.859601804951936e-10
          1.0890415355213754e-9 1.028915864612698e-9 9.32265548642835e-10 8.499518535499854e-11 1.1062204891872403e-10 7.429829818430832e-11
          9.729399957005248e-11 6.531573927770254e-11 8.44819194283133e-11 7.404613737300274e-11 1.7408843995985868e-10 1.547445609557441e-10
          1.3164571102414565e-10 4.8928048514328623e-11 6.2837011248817e-11 4.250541339145644e-11 5.4877388426126125e-11 3.58231201325445e-11
          4.558076795343426e-11 3.966032386080136e-11 9.678675476811681e-11 8.530931750062126e-11 6.92426433284117e-11 2.6559700341468327e-10
          2.3884478249742507e-10 1.9898801961475642e-10 1.7805343765888998e-10 3.908818376871689e-10 3.558220090278361e-10 2.9047624114077715e-10
          1.4463365337656248e-10 1.287678744795295e-10 1.0215083300091348e-10 9.049354444313972e-11 2.0887458458652703e-10 1.8792071400565838e-10
          1.456176815060278e-10 2.5585057803709242e-11 3.200658774848415e-11 2.2068543558705225e-11 2.7735606027553457e-11 2.1604187282606513e-11
          2.6225232695097075e-11 2.2662541664392213e-11 4.81822816873448e-11 4.210766029514613e-11 3.6065938950288855e-11 7.034798691479575e-11
          6.201739103024455e-11 4.689897016349037e-11 4.114625814143145e-11 9.86271429827494e-11 8.771607799535637e-11 6.509328030922593e-11
          2.5526197229504915e-11 3.070249434062295e-11 2.2165142534396978e-11 2.6792214678631816e-11 4.198483603049539e-11 3.692283717009712e-11
          5.446993533286595e-10 5.01615033882604e-10 4.029166613299212e-10 3.686247352238801e-10 6.862380438601282e-10 6.374896470707457e-10
          5.104455230806009e-10 2.8747356167838206e-10 2.6125772579173094e-10 1.982314310809472e-10 1.7896342954502031e-10 3.646497752404249e-10
          3.340173539053611e-10 2.5066518364363956e-10 8.007350217867246e-10 6.122021438217544e-10 8.0621078917339e-10 7.512560063650747e-10
          7.007790151566514e-10 5.703031528447697e-10 5.283091256148841e-10 7.569369956849724e-10 7.066549299205057e-10 5.829288166667715e-10
          4.468069167581154e-10 4.60854997212244e-10 4.130660435393416e-10 3.799015343920419e-10 2.8614094698053573e-10 2.612716096067203e-10
          4.264702619817402e-10 3.9260886196411885e-10 2.973338209429587e-10 1.3250071334777467e-10 1.1884745855580445e-10 8.615487510134565e-11
          7.678776292284091e-11 1.6637187186379842e-10 1.502546979194447e-10 1.0708723313455257e-10 5.4704499246323486e-11 4.845018667360666e-11
          6.716443664562096e-11 5.983635565735819e-11 1.9037751914325348e-10 1.7259798450582294e-10 1.2230957135119026e-10 1.1011509371146888e-10
          1.985179634371216e-10 1.801714642602512e-10 1.2769003697285606e-10 7.632351915124564e-11 6.824073658929853e-11 7.963628289464657e-11
          7.128274769376638e-11 1.0224068575382215e-10 1.361756365145813e-10 8.894885190847779e-11 1.1924676632485992e-10 8.239000692838424e-11
          1.0922987797584621e-10 9.540786488347903e-11 2.2248546611259764e-10 1.9698921665614416e-10 1.7717075265068102e-10 7.694568461448106e-11
          1.0379100383774433e-10 6.175703227904657e-11 8.284954904903776e-11 1.7327306680561248e-10 1.3711060201623254e-10 3.524582309056172e-10
          3.159051937442627e-10 2.788758624337983e-10 2.4892353000774237e-10 5.376006583771482e-10 4.881744200579543e-10 4.233776959397145e-10
          2.8118032489061416e-10 2.484968422724308e-10 2.2069851349323936e-10 1.9433461040149768e-10 4.4010672024423067e-10 3.9383742764590047e-10
          3.4323706998215117e-10 2.1803762422770142e-10 1.6993912027174444e-10 3.497830498079939e-10 2.7039196122978434e-10 7.690645983761229e-10
          7.070451762235789e-10 6.054124505197118e-10 5.53516558224923e-10 9.65885975918148e-10 8.96339435526254e-10 7.693569584935894e-10
          6.453189411976118e-10 5.845589533160666e-10 5.02442146588335e-10 4.527234010958975e-10 8.258554960254864e-10 7.55241489623912e-10
          6.501213815814933e-10 1.0027713262667759e-9 9.351279796197432e-10 8.265837794267047e-10 7.660323728482558e-10 9.667546975565844e-10
          9.026952354357065e-10 8.180031196157685e-10 8.66004173894999e-10 7.961387315915863e-10 7.049333658322421e-10 6.439873379303908e-10
          8.371726368767983e-10 7.708301723554285e-10 6.991520104869077e-10 5.254431325727565e-10 4.048705234643095e-10 6.853562480427924e-10
          5.333525159129654e-10 7.263747877876402e-10 5.839094640241691e-10 7.044391269356499e-10 5.805890337527166e-10 6.468124072785462e-11
          8.520184355014827e-11 5.6026275571302715e-11 7.422297895916134e-11 4.9421114293457127e-11 6.464540187132239e-11 5.616120506403318e-11
          1.368782483106783e-10 1.203881223941791e-10 1.0269045952736496e-10 4.827268800390982e-11 6.429718725634788e-11 4.136201469259146e-11
          5.53746664485281e-11 3.671858592295441e-11 4.852992118449271e-11 4.170077879219102e-11 1.0524533382201663e-10 9.14365891345442e-11
          7.844579816056964e-11 3.6794267981196974e-11 4.77568179911848e-11 3.171264583427743e-11 4.1370281699217926e-11 2.6776033091081608e-11
          3.440563330218748e-11 2.9721044430468174e-11 7.489680582842379e-11 6.542684042046655e-11 5.3153768252971945e-11 2.7206101755094743e-11
          3.5657319949496107e-11 2.3221564485213164e-11 3.0568269215835513e-11 1.9706253914014163e-11 2.554862716746373e-11 2.184725889455684e-11
          5.684107154385787e-11 4.910025982838988e-11 4.007332115983219e-11 2.1360156676870518e-10 1.8985424214745666e-10 1.5850836953209226e-10
          1.4029086292811677e-10 3.21955398776653e-10 2.894179907893569e-10 2.3656283994283044e-10 1.6766244289046334e-10 1.4709323366148688e-10
          1.2340762729841233e-10 1.0787665578242542e-10 2.584108804978991e-10 2.2913629707701431e-10 1.8798332221535024e-10 1.1411320052216069e-10
          1.0057772157203776e-10 7.983640207532624e-11 7.007825662933453e-11 1.6818969747573283e-10 1.4965486647190258e-10 1.159537322035121e-10
          8.813382188288086e-11 7.676859407360868e-11 6.117435864378997e-11 5.309693667735236e-11 1.3234921065159812e-10 1.1631338005468442e-10
          9.03817563966614e-11 3.5215988764088665e-11 4.73977119756504e-11 2.981713107075992e-11 4.033098544516568e-11 2.6688670441636907e-11
          3.5619203909495734e-11 3.025214683166321e-11 7.894354000747565e-11 6.772951239587467e-11 5.852073379103392e-11 2.509994512091094e-11
          3.4113521823385704e-11 1.8968149087356607e-11 2.5547339496748564e-11 5.774438095029444e-11 4.26137559213072e-11 1.9696450905445098e-11
          2.6052670681019847e-11 1.6622025716983756e-11 2.2083011604047514e-11 1.4205539303101191e-11 1.8576752099600748e-11 1.571119715896101e-11
          4.216885114554373e-11 3.6005022370034144e-11 2.955933818945702e-11 1.3957326536460162e-11 1.8616192473392603e-11 1.0030994837945506e-11
          1.321328622151835e-11 3.0564057165026544e-11 2.1310733035208586e-11 1.281942814235861e-10 1.1098426892494465e-10 9.37043993622795e-11
          8.087878842478881e-11 2.0176606121529685e-10 1.7642700691350955e-10 1.4550037261812128e-10 9.545019459002549e-11 6.936724837313667e-11
          1.531963559251867e-10 1.096551793737279e-10 6.646470216384822e-11 5.719501572927687e-11 4.5818486155962405e-11 3.930676389387304e-11
          1.0157523382903728e-10 8.814220409263199e-11 6.879600943442758e-11 4.892145446925475e-11 3.352422918120077e-11 7.600016855903142e-11
          5.1106611431275906e-11 1.9015952545294545e-11 2.3990112468576077e-11 1.6331405548249736e-11 2.0672080713481868e-11 1.6005353665558275e-11
          1.956676161307506e-11 1.6836263081608532e-11 3.668912780373392e-11 3.1827527491689005e-11 2.731784112934855e-11 1.393710945256479e-11
          1.7714051785768195e-11 1.183550151210214e-11 1.510218940941826e-11 1.170133682170829e-11 1.4393875555212502e-11 1.2245362799058867e-11
          2.7471534129187026e-11 2.358637743365373e-11 2.036677778155496e-11 5.447248987096578e-11 4.761844696695103e-11 3.5987798930183086e-11
          3.133802982922613e-11 7.768640577821638e-11 6.845719170929372e-11 5.0725552117774e-11 4.1410305975659866e-11 3.581448768910148e-11
          2.714998612312607e-11 2.3398100959230924e-11 5.999509673409803e-11 5.2280936249163186e-11 3.8815531130681586e-11 1.9236145322474537e-11
          2.3335008968207063e-11 1.6636807878302683e-11 2.024466649806234e-11 3.23689813572465e-11 2.825398518809286e-11 1.429062925697444e-11
          1.7465889542728174e-11 1.2214137773400392e-11 1.4992139060952353e-11 2.4542533023438265e-11 2.120780121406979e-11 1.000335983453326e-11
          1.2810055043447166e-11 8.415809808806875e-12 1.0809986738119788e-11 8.377657520349127e-12 1.037007324348225e-11 8.73979600795474e-12
          2.013939825818365e-11 1.7100949325524467e-11 1.4870991538730684e-11 7.035086069929832e-12 9.064536869066863e-12 5.88908043745507e-12
          7.565958377805921e-12 5.877306520467915e-12 7.314871564906347e-12 6.1146460939073775e-12 1.4435698778282847e-11 1.2108985251996791e-11
          1.0624739142769739e-11 3.080019529820029e-11 2.633808035860824e-11 2.0055386259519857e-11 1.7096914863781477e-11 4.5295440859719364e-11
          3.901398399544828e-11 2.9066782733525446e-11 2.2394890258929092e-11 1.8938048624030378e-11 1.449281512710364e-11 1.2225867177428404e-11
          3.340607014070165e-11 2.8434037105976758e-11 2.1280647053680098e-11 1.0397952707764257e-11 1.2807355636109498e-11 8.809014640859095e-12
          1.0883935367005273e-11 1.8227623686936162e-11 1.558019850718509e-11 7.406998381055713e-12 9.192134582345196e-12 6.198628968629454e-12
          7.723015881958743e-12 1.324422213062876e-11 1.119535451946385e-11 4.5901549196591415e-10 4.172075978505799e-10 3.352166235111254e-10
          3.0286758423027655e-10 5.884076707955464e-10 5.394184058425877e-10 4.3174990839592024e-10 3.7656304729610987e-10 3.374583391001672e-10
          2.718093391558525e-10 2.4227215595022747e-10 4.910247437156538e-10 4.437459586764125e-10 3.5570466099757103e-10 2.3609833888835305e-10
          2.1205789002839737e-10 1.6073913551178117e-10 1.4354538825684786e-10 3.0416447477622453e-10 2.7523779341556177e-10 2.0621706879453185e-10
          1.8925403678021358e-10 1.6780566790305042e-10 1.27420890833887e-10 1.1241123557631605e-10 2.4743772351459995e-10 2.2096448429273799e-10
          1.6571050457348879e-10 6.495624492899611e-10 5.98049994395426e-10 4.863617247615966e-10 4.447892311266938e-10 6.555988266558474e-10
          6.041943130816975e-10 4.980367093265847e-10 5.46775577222757e-10 4.963021912413216e-10 4.0398856159417175e-10 3.643622266211431e-10
          5.529619052563074e-10 5.024571564344743e-10 4.144847497959224e-10 3.473216613149051e-10 3.155187891289549e-10 2.372420119541692e-10
          2.1412670809578752e-10 3.59283813291248e-10 3.266977184070767e-10 2.4702119409381474e-10 2.847408807327434e-10 2.552368042528642e-10
          1.9205177682233596e-10 1.7114826465173812e-10 2.951100055154613e-10 2.6478085805387986e-10 2.0035388876097432e-10 3.002351636808354e-10
          2.6517967512583145e-10 2.1445602662623067e-10 1.8851788972696567e-10 3.9807573975198114e-10 3.54455667978047e-10 2.8498767326066897e-10
          2.3251373519617728e-10 1.6456584532174002e-10 3.132582449850455e-10 2.2190408937838245e-10 1.4781127942206304e-10 1.2933966893484143e-10
          9.855073441930691e-11 8.585537975226178e-11 1.959933602562164e-10 1.7266309483611527e-10 1.29831541206528e-10 1.1242649546200148e-10
          7.432116435057553e-11 1.5107164831185133e-10 9.911610241803172e-11 4.471802113784297e-10 3.9991959870297674e-10 3.262865142901618e-10
          2.9009169941611275e-10 4.532280662034072e-10 4.05787550752215e-10 3.3542605859505014e-10 3.549649360543133e-10 2.560475467790271e-10
          3.6058686648583945e-10 2.637417615071129e-10 2.2723029931004396e-10 2.009052407101686e-10 1.5152885853463006e-10 1.3327832889599655e-10
          2.359465617869103e-10 2.0880320564212237e-10 1.5837034545507383e-10 1.7640069357247442e-10 1.1645167869894132e-10 1.835005973459678e-10
          1.21922828297494e-10 1.0611023494958336e-10 9.423527858994586e-11 6.816044124601306e-11 6.02051592907403e-11 1.3503350980640114e-10
          1.2068545502746164e-10 8.577734461142384e-11 8.32158507489623e-11 7.305554358655718e-11 5.289443170495155e-11 4.6212733503710525e-11
          1.0723415652856936e-10 9.471136521290841e-11 6.734164209741278e-11 4.2759207798625204e-11 3.756581139661178e-11 5.310359463895931e-11
          4.690652374462355e-11 3.283690448929782e-11 2.8550987467710445e-11 4.121888567537684e-11 3.602497772195793e-11 1.5568744347866697e-10
          1.39643660231984e-10 9.868634016020277e-11 8.798262214078203e-11 1.6268652221358693e-10 1.4606717899958706e-10 1.0325069030067522e-10
          1.2451182553657405e-10 1.1034450286085381e-10 7.800355657242422e-11 6.875788088672118e-11 1.303653838576552e-10 1.1564058778830861e-10
          8.177464281684085e-11 6.07697155302395e-11 5.385589565497385e-11 6.354656727925736e-11 5.637492135556041e-11 4.7478433999386065e-11
          4.162674560569471e-11 4.9748989408219475e-11 4.3660048623259165e-11 6.375387851186896e-11 5.5301018896403996e-11 4.014485566353271e-11
          3.467181311299592e-11 8.314124526378592e-11 7.25343949574924e-11 5.1679920586786903e-11 4.7676446081646475e-11 4.084986777758628e-11
          2.9769185807962233e-11 2.5408024887959106e-11 6.288652351803108e-11 5.417935298019029e-11 3.873191079592537e-11 2.468872146958257e-11
          2.122996968244684e-11 3.1310434069248845e-11 2.7058592133916082e-11 1.8152366164877355e-11 1.54319031217249e-11 2.3249577489324416e-11
          1.9860306085279085e-11 9.718465272381202e-11 8.505921097855177e-11 6.02509333236735e-11 5.248041341660887e-11 1.0194203455674573e-10
          8.930212757763047e-11 6.328370102803907e-11 7.397718052440212e-11 6.392979082232707e-11 4.54350312820037e-11 3.909462081615717e-11
          7.773443652412811e-11 6.723350008971651e-11 4.7808058325445996e-11 3.629078858103016e-11 3.145736766611155e-11 3.8099663153310193e-11
          3.3055949508065894e-11 2.7108951323260748e-11 2.3223844075935756e-11 2.8512306520004533e-11 2.444757598112347e-11 9.473682309138679e-11
          6.868772674639275e-11 8.31432880150911e-11 9.22119772402392e-11 6.832347318670574e-11 4.575418585572981e-11 6.236525712127951e-11
          5.007707392688818e-11 4.8874066607860875e-11 3.367051894304495e-11 3.597294819184948e-11 4.2082062833034544e-11 2.4365107714903163e-11
          2.5343255487633797e-11 2.4825515179164657e-11 1.7308096967986498e-11 1.735408514976604e-11 2.0303589270321998e-11 1.2005974200874005e-11
          1.544443557125063e-11 1.1635727783170223e-11 1.3351191931080159e-11 8.147989653306829e-12 4.982812381377964e-10 3.7231059079310844e-10
          2.6289076369453457e-10 3.5537798333217614e-10 4.5713127358101917e-10 3.4620534713454074e-10 3.2058690059828704e-10 1.687580287872375e-10
          2.3093212641633784e-10 2.037306987282806e-10 9.893806883516525e-11 1.3722894180718908e-10 1.1790080182560617e-10 5.2776898461247927e-11
          7.405328169397755e-11 2.762334788993528e-10 1.9376622015788457e-10 2.5998295066052473e-10 2.0136112765374268e-10 1.4055523464815058e-10
          1.91310207075087e-10 1.3099611271781e-10 1.2337301425492363e-10 8.895934216828174e-11 7.16653153538929e-11 5.130857155582434e-11
          9.987004747923906e-11 6.289496933047276e-11 9.377646243840027e-11 6.947174557479767e-11 4.3576560204025195e-11 6.565641776749319e-11
          4.014156796739493e-11 3.603354779294083e-11 2.4741691738940126e-11 2.208581922034474e-11 3.7805099636197176e-11 2.6855060448639406e-11