<?xml version="1.0"?>
<VTKFile type="UnstructuredGrid" version="0.1" byte_order="LittleEndian" header_type="UInt32" compressor="vtkZLibDataCompressor">
  <UnstructuredGrid>
    <Piece NumberOfPoints="1260" NumberOfCells="822">
      <PointData>
        <DataArray type="Int32" Name="libmesh_node_id" format="ascii" RangeMin="24" RangeMax="2039">
          28 29 30 31 32 33
          34 35 36 37 38 39
          40 41 42 43 44 45
          46 47 48 49 50 51
          52 53 54 55 56 57
          58 59 60 61 62 63
          64 65 66 67 68 69
          70 71 72 73 74 75
          76 77 78 79 80 81
          82 83 84 85 86 87
          88 89 90 91 92 93
          94 95 96 97 98 99
          100 101 102 103 104 105
          106 107 108 109 110 111
          112 113 114 115 116 117
          118 119 134 135 136 137
          138 139 140 141 142 143
          144 145 146 147 148 149
          150 151 152 153 154 155
          156 157 158 159 160 161
          162 163 164 165 166 167
          168 169 170 171 172 173
          174 175 176 177 178 179
          194 195 196 197 198 199
          200 201 202 203 204 205
          206 207 208 209 210 211
          212 213 214 215 216 217
          218 219 220 221 222 223
          224 225 226 227 228 229
          230 231 232 233 234 235
          236 237 238 239 254 255
          256 257 258 259 260 261
          262 263 264 265 266 267
          268 269 270 271 272 273
          274 275 276 277 278 279
          280 281 282 283 284 285
          286 287 288 289 290 291
          292 293 294 295 296 297
          298 299 307 308 309 310
          311 312 313 314 315 316
          317 318 319 320 321 322
          323 324 325 326 327 328
          329 337 338 339 340 341
          342 343 344 345 346 347
          348 349 350 351 352 353
          354 355 356 357 358 359
          376 377 378 379 380 381
          382 383 384 385 386 387
          388 389 390 391 392 393
          394 395 396 397 398 399
          400 401 402 403 404 405
          406 407 408 409 410 411
          412 413 414 415 416 417
          418 419 428 429 430 431
          432 433 434 435 436 437
          438 439 440 441 442 443
          444 445 446 447 448 449
          458 459 460 461 462 463
          464 465 466 467 468 469
          470 471 472 473 474 475
          476 477 478 479 496 497
          498 499 500 501 502 503
          504 505 506 507 508 509
          510 511 512 513 514 515
          516 517 518 519 520 521
          522 523 524 525 526 527
          528 529 530 531 532 533
          534 535 536 537 538 539
          548 549 550 551 552 553
          554 555 556 557 558 559
          560 561 562 563 564 565
          566 567 568 569 578 579
          580 581 582 583 584 585
          586 587 588 589 590 591
          592 593 594 595 596 597
          598 599 616 617 618 619
          620 621 622 623 624 625
          626 627 628 629 630 631
          632 633 634 635 636 637
          638 639 640 641 642 643
          644 645 646 647 648 649
          650 651 652 653 654 655
          656 657 658 659 668 669
          670 671 672 673 674 675
          676 677 678 679 680 681
          682 683 684 685 686 687
          688 689 698 699 700 701
          702 703 704 705 706 707
          708 709 710 711 712 713
          714 715 716 717 718 719
          738 739 740 741 742 743
          744 745 746 747 748 749
          750 751 752 753 754 755
          756 757 758 759 760 761
          762 763 764 765 766 767
          768 769 770 771 772 773
          774 775 776 777 778 779
          789 790 791 792 793 794
          795 796 797 798 799 800
          801 802 803 804 805 806
          807 808 809 819 820 821
          822 823 824 825 826 827
          828 829 830 831 832 833
          834 835 836 837 838 839
          860 861 862 863 864 865
          866 867 868 869 870 871
          872 873 874 875 876 877
          878 879 880 881 882 883
          884 885 886 887 888 889
          890 891 892 893 894 895
          896 897 898 899 910 911
          912 913 914 915 916 917
          918 919 920 921 922 923
          924 925 926 927 928 929
          940 941 942 943 944 945
          946 947 948 949 950 951
          952 953 954 955 956 957
          958 959 980 981 982 983
          984 985 986 987 988 989
          990 991 992 993 994 995
          996 997 998 999 1000 1001
          1002 1003 1004 1005 1006 1007
          1008 1009 1010 1011 1012 1013
          1014 1015 1016 1017 1018 1019
          1030 1031 1032 1033 1034 1035
          1036 1037 1038 1039 1040 1041
          1042 1043 1044 1045 1046 1047
          1048 1049 1060 1061 1062 1063
          1064 1065 1066 1067 1068 1069
          1070 1071 1072 1073 1074 1075
          1076 1077 1078 1079 1100 1101
          1102 1103 1104 1105 1106 1107
          1108 1109 1110 1111 1112 1113
          1114 1115 1116 1117 1118 1119
          1120 1121 1122 1123 1124 1125
          1126 1127 1128 1129 1130 1131
          1132 1133 1134 1135 1136 1137
          1138 1139 1150 1151 1152 1153
          1154 1155 1156 1157 1158 1159
          1160 1161 1162 1163 1164 1165
          1166 1167 1168 1169 1180 1181
          1182 1183 1184 1185 1186 1187
          1188 1189 1190 1191 1192 1193
          1194 1195 1196 1197 1198 1199
          1224 1225 1226 1227 1228 1229
          1230 1231 1232 1233 1234 1235
          1236 1237 1238 1239 1240 1241
          1242 1243 1244 1245 1246 1247
          1248 1249 1250 1251 1252 1253
          1254 1255 1256 1257 1258 1259
          1272 1273 1274 1275 1276 1277
          1278 1279 1280 1281 1282 1283
          1284 1285 1286 1287 1288 1289
          1302 1303 1304 1305 1306 1307
          1308 1309 1310 1311 1312 1313
          1314 1315 1316 1317 1318 1319
          1348 1349 1350 1351 1352 1353
          1354 1355 1356 1357 1358 1359
          1360 1361 1362 1363 1364 1365
          1366 1367 1368 1369 1370 1371
          1372 1373 1374 1375 1376 1377
          1378 1379 1394 1395 1396 1397
          1398 1399 1400 1401 1402 1403
          1404 1405 1406 1407 1408 1409
          1424 1425 1426 1427 1428 1429
          1430 1431 1432 1433 1434 1435
          1436 1437 1438 1439 1468 1469
          1470 1471 1472 1473 1474 1475
          1476 1477 1478 1479 1480 1481
          1488 1489 1490 1491 1492 1493
          1494 1495 1496 1497 1498 1499
          1514 1515 1516 1517 1518 1519
          1520 1524 1525 1526 1527 1528
          1529 1544 1545 1546 1547 1548
          1549 1550 1554 1555 1556 1557
          1558 1559 1612 1613 1614 1615
          1616 1617 1618 1619 1646 1647
          1648 1649 1676 1677 1678 1679
          1734 1735 1736 1737 1738 1739
          1767 1768 1769 1797 1798 1799
          1854 1855 1856 1857 1858 1859
          1887 1888 1889 1917 1918 1919
          24 25 26 27 132 133
          192 193 252 253 306 336
          372 374 375 373 427 426
          457 456 494 495 547 577
          614 615 667 697 734 736
          737 735 788 787 818 817
          856 858 859 857 909 908
          939 938 978 979 1029 1059
          1098 1099 1149 1179 1218 1220
          1221 1219 1222 1223 1270 1269
          1271 1300 1299 1301 1342 1344
          1345 1343 1346 1347 1392 1391
          1393 1422 1421 1423 1466 1467
          1482 1483 1484 1485 1486 1487
          1513 1521 1522 1523 1543 1551
          1552 1553 1586 1588 1589 1587
          1590 1591 1592 1593 1594 1595
          1596 1597 1598 1599 1600 1601
          1602 1603 1606 1608 1609 1607
          1610 1611 1634 1633 1635 1636
          1637 1638 1639 1640 1641 1644
          1643 1645 1664 1663 1665 1666
          1667 1668 1669 1670 1671 1674
          1673 1675 1730 1732 1733 1731
          1766 1765 1796 1795 1852 1853
          1886 1916 1972 1974 1975 1973
          1976 1977 1978 1979 2007 2006
          2008 2009 2037 2036 2038 2039
        </DataArray>
        <DataArray type="Float64" Name="bounds" format="ascii" RangeMin="0" RangeMax="0">
          0 0 0 0 0 0
          0 0 0 0 0 0
          0 0 0 0 0 0
          0 0 0 0 0 0
          0 0 0 0 0 0
          0 0 0 0 0 0
          0 0 0 0 0 0
          0 0 0 0 0 0
          0 0 0 0 0 0
          0 0 0 0 0 0
          0 0 0 0 0 0
          0 0 0 0 0 0
          0 0 0 0 0 0
          0 0 0 0 0 0
          0 0 0 0 0 0
          0 0 0 0 0 0
          0 0 0 0 0 0
          0 0 0 0 0 0
          0 0 0 0 0 0
          0 0 0 0 0 0
          0 0 0 0 0 0
          0 0 0 0 0 0
          0 0 0 0 0 0
          0 0 0 0 0 0
          0 0 0 0 0 0
          0 0 0 0 0 0
          0 0 0 0 0 0
          0 0 0 0 0 0
          0 0 0 0 0 0
          0 0 0 0 0 0
          0 0 0 0 0 0
          0 0 0 0 0 0
          0 0 0 0 0 0
          0 0 0 0 0 0
          0 0 0 0 0 0
          0 0 0 0 0 0
          0 0 0 0 0 0
          0 0 0 0 0 0
          0 0 0 0 0 0
          0 0 0 0 0 0
          0 0 0 0 0 0
          0 0 0 0 0 0
          0 0 0 0 0 0
          0 0 0 0 0 0
          0 0 0 0 0 0
          0 0 0 0 0 0
          0 0 0 0 0 0
          0 0 0 0 0 0
          0 0 0 0 0 0
          0 0 0 0 0 0
          0 0 0 0 0 0
          0 0 0 0 0 0
          0 0 0 0 0 0
          0 0 0 0 0 0
          0 0 0 0 0 0
          0 0 0 0 0 0
          0 0 0 0 0 0
          0 0 0 0 0 0
          0 0 0 0 0 0
          0 0 0 0 0 0
          0 0 0 0 0 0
          0 0 0 0 0 0
          0 0 0 0 0 0
          0 0 0 0 0 0
          0 0 0 0 0 0
          0 0 0 0 0 0
          0 0 0 0 0 0
          0 0 0 0 0 0
          0 0 0 0 0 0
          0 0 0 0 0 0
          0 0 0 0 0 0
          0 0 0 0 0 0
          0 0 0 0 0 0
          0 0 0 0 0 0
          0 0 0 0 0 0
          0 0 0 0 0 0
          0 0 0 0 0 0
          0 0 0 0 0 0
          0 0 0 0 0 0
          0 0 0 0 0 0
          0 0 0 0 0 0
          0 0 0 0 0 0
          0 0 0 0 0 0
          0 0 0 0 0 0
          0 0 0 0 0 0
          0 0 0 0 0 0
          0 0 0 0 0 0
          0 0 0 0 0 0
          0 0 0 0 0 0
          0 0 0 0 0 0
          0 0 0 0 0 0
          0 0 0 0 0 0
          0 0 0 0 0 0
          0 0 0 0 0 0
          0 0 0 0 0 0
          0 0 0 0 0 0
          0 0 0 0 0 0
          0 0 0 0 0 0
          0 0 0 0 0 0
          0 0 0 0 0 0
          0 0 0 0 0 0
          0 0 0 0 0 0
          0 0 0 0 0 0
          0 0 0 0 0 0
          0 0 0 0 0 0
          0 0 0 0 0 0
          0 0 0 0 0 0
          0 0 0 0 0 0
          0 0 0 0 0 0
          0 0 0 0 0 0
          0 0 0 0 0 0
          0 0 0 0 0 0
          0 0 0 0 0 0
          0 0 0 0 0 0
          0 0 0 0 0 0
          0 0 0 0 0 0
          0 0 0 0 0 0
          0 0 0 0 0 0
          0 0 0 0 0 0
          0 0 0 0 0 0
          0 0 0 0 0 0
          0 0 0 0 0 0
          0 0 0 0 0 0
          0 0 0 0 0 0
          0 0 0 0 0 0
          0 0 0 0 0 0
          0 0 0 0 0 0
          0 0 0 0 0 0
          0 0 0 0 0 0
          0 0 0 0 0 0
          0 0 0 0 0 0
          0 0 0 0 0 0
          0 0 0 0 0 0
          0 0 0 0 0 0
          0 0 0 0 0 0
          0 0 0 0 0 0
          0 0 0 0 0 0
          0 0 0 0 0 0
          0 0 0 0 0 0
          0 0 0 0 0 0
          0 0 0 0 0 0
          0 0 0 0 0 0
          0 0 0 0 0 0
          0 0 0 0 0 0
          0 0 0 0 0 0
          0 0 0 0 0 0
          0 0 0 0 0 0
          0 0 0 0 0 0
          0 0 0 0 0 0
          0 0 0 0 0 0
          0 0 0 0 0 0
          0 0 0 0 0 0
          0 0 0 0 0 0
          0 0 0 0 0 0
          0 0 0 0 0 0
          0 0 0 0 0 0
          0 0 0 0 0 0
          0 0 0 0 0 0
          0 0 0 0 0 0
          0 0 0 0 0 0
          0 0 0 0 0 0
          0 0 0 0 0 0
          0 0 0 0 0 0
          0 0 0 0 0 0
          0 0 0 0 0 0
          0 0 0 0 0 0
          0 0 0 0 0 0
          0 0 0 0 0 0
          0 0 0 0 0 0
          0 0 0 0 0 0
          0 0 0 0 0 0
          0 0 0 0 0 0
          0 0 0 0 0 0
          0 0 0 0 0 0
          0 0 0 0 0 0
          0 0 0 0 0 0
          0 0 0 0 0 0
          0 0 0 0 0 0
          0 0 0 0 0 0
          0 0 0 0 0 0
          0 0 0 0 0 0
          0 0 0 0 0 0
          0 0 0 0 0 0
          0 0 0 0 0 0
          0 0 0 0 0 0
          0 0 0 0 0 0
          0 0 0 0 0 0
          0 0 0 0 0 0
          0 0 0 0 0 0
          0 0 0 0 0 0
          0 0 0 0 0 0
          0 0 0 0 0 0
          0 0 0 0 0 0
          0 0 0 0 0 0
          0 0 0 0 0 0
          0 0 0 0 0 0
          0 0 0 0 0 0
          0 0 0 0 0 0
          0 0 0 0 0 0
          0 0 0 0 0 0
          0 0 0 0 0 0
          0 0 0 0 0 0
          0 0 0 0 0 0
          0 0 0 0 0 0
          0 0 0 0 0 0
          0 0 0 0 0 0
          0 0 0 0 0 0
          0 0 0 0 0 0
          0 0 0 0 0 0
          0 0 0 0 0 0
        </DataArray>
        <DataArray type="Float64" Name="gradient_error" format="ascii" RangeMin="1.8469217834573938e-16" RangeMax="1.0622530720846606e-10">
          2.7235433284590484e-16 2.7225314836285814e-16 2.7148668668626267e-16 2.716598694913624e-16 2.7209594084571733e-16 2.7211870781305916e-16
          2.7210516776536825e-16 2.719904452965334e-16 2.7209872298206576e-16 2.7210871259712227e-16 2.7213725132942747e-16 2.72038420512194e-16
          2.718429866578118e-16 2.7195742305180185e-16 2.726521193831781e-16 2.7234866157524634e-16 2.715144044023812e-16 2.717718011092113e-16
          2.73263062174117e-16 2.726977753596433e-16 2.7159847962732435e-16 2.7181194714617983e-16 2.729904360334585e-16 2.725622801870329e-16
          2.722611635257373e-16 2.7215443779055595e-16 2.7158072287062533e-16 2.7183176075907357e-16 2.7261555877216057e-16 2.723368845671854e-16
          2.708927729966265e-16 2.714760616040374e-16 2.721083839036005e-16 2.720797375333087e-16 2.7197350681665577e-16 2.7202368861618e-16
          2.718250208730123e-16 2.7194062584576945e-16 2.7255873403607145e-16 2.723107194758683e-16 2.7200015947016315e-16 2.7203109216478826e-16
          2.7218838757171045e-16 2.7211927152765617e-16 2.7212253754758834e-16 2.7209065284125766e-16 2.719257845711873e-16 2.71991296118147e-16
          2.720828901381288e-16 2.7207128214234966e-16 2.720058657437584e-16 2.720306249164975e-16 2.72037390114937e-16 2.720479296372744e-16
          2.721011095784363e-16 2.7207959937917327e-16 2.720595622852286e-16 2.7205835543622453e-16 2.720562997527494e-16 2.720583521428677e-16
          2.72059026069568e-16 2.720586129305329e-16 2.720567533121411e-16 2.720573687997991e-16 2.7205818297128026e-16 2.7205811989697927e-16
          2.7205807784742517e-16 2.720580941417625e-16 2.7205788021392894e-16 2.720578991362863e-16 2.720581430240828e-16 2.7205815669022744e-16
          2.7205778770471787e-16 2.7205780872949295e-16 2.720581997909827e-16 2.720582134570951e-16 2.7205796431326246e-16 2.7205792436603717e-16
          2.7205825866063665e-16 2.7205827180110734e-16 2.7205796431317934e-16 2.7205792436606044e-16 2.720582586606632e-16 2.720582718011815e-16
          2.720576804780189e-16 2.7205771096403555e-16 2.720581009743119e-16 2.720581472289166e-16 2.7205749756222844e-16 2.720576047887061e-16
          2.7205793908323053e-16 2.720580378998173e-16 2.7209587172676705e-16 2.71966229692813e-16 2.720931656771351e-16 2.7198072738031516e-16
          2.7208495062731784e-16 2.7200509629552157e-16 2.7206593226876874e-16 2.720485145764522e-16 2.720469554134019e-16 2.720874793430414e-16
          2.7204451888818467e-16 2.7208997702292715e-16 2.720549198469602e-16 2.720665756127108e-16 2.720593320976789e-16 2.720569013615444e-16
          2.7205530251594873e-16 2.720651689839383e-16 2.7205734778552407e-16 2.72060608130233e-16 2.7205983273061634e-16 2.720550619954261e-16
          2.7205839778658914e-16 2.7205793071313007e-16 2.7205878140186233e-16 2.72057164201542e-16 2.7205822095119724e-16 2.720581855546914e-16
          2.7205764265318003e-16 2.720591045387368e-16 2.7205804315639783e-16 2.720580279135693e-16 2.72057958005875e-16 2.7205810991018836e-16
          2.7205785918916776e-16 2.7205816194641835e-16 2.720578087294371e-16 2.7205821345707366e-16 2.720579243659168e-16 2.7205827180099005e-16
          2.7205792436615116e-16 2.720582718012144e-16 2.7205771096416137e-16 2.7205814722902496e-16 2.720576047886209e-16 2.7205803789977256e-16
          2.7203977957372266e-16 2.720994070891638e-16 2.720448565738692e-16 2.720857319329317e-16 2.72051199042457e-16 2.720706028960826e-16
          2.7206000509174563e-16 2.7205182538558986e-16 2.7206471301076236e-16 2.7204247014091326e-16 2.7206362311133413e-16 2.7204582970524697e-16
          2.720621276385458e-16 2.720503525778999e-16 2.7206045383314756e-16 2.720544525116404e-16 2.720595138688806e-16 2.7205646755217237e-16
          2.720584647525215e-16 2.7205851134480087e-16 2.720576406018193e-16 2.7205996850725013e-16 2.720580274382514e-16 2.7205905376115356e-16
          2.7205788865715414e-16 2.720589443138474e-16 2.720579727427827e-16 2.7205828192947256e-16 2.7205813671913954e-16 2.7205780454448753e-16
          2.7205788652129796e-16 2.720580715396815e-16 2.720578591890717e-16 2.7205810938427693e-16 2.720578003196919e-16 2.720581535364646e-16
          2.7205778770460614e-16 2.7205819979093993e-16 2.720579643130218e-16 2.720582586604019e-16 2.720579643133607e-16 2.7205825866072904e-16
          2.7205768047827054e-16 2.720581009745287e-16 2.7205749756205804e-16 2.72057939083141e-16 2.7387721588270945e-16 2.7345563272738665e-16
          2.712559757147029e-16 2.720087494637645e-16 2.7099852405986435e-16 2.717210972678301e-16 2.692545961533213e-16 2.706383086047086e-16
          2.6742623007443384e-16 2.6956992706317476e-16 2.6891283207301883e-16 2.703271289727714e-16 2.744487260195024e-16 2.7320262882775487e-16
          2.770454258005244e-16 2.745484252861239e-16 2.726941698241854e-16 2.723465093518658e-16 2.7018960976614557e-16 2.711149392951769e-16
          2.7156825674415224e-16 2.718285998914863e-16 2.7257887134022226e-16 2.723225264231115e-16 2.722739921924138e-16 2.7217211697350803e-16
          2.719057085266127e-16 2.7198266281985854e-16 2.7206278024079123e-16 2.720566613264264e-16 2.72064024063853e-16 2.720615460938845e-16
          2.720589955864074e-16 2.7205878270942403e-16 2.720581556392316e-16 2.7205820084260694e-16 2.7205823868704885e-16 2.7205825918624446e-16
          2.7205826391700525e-16 2.7205827653189594e-16 2.7205826391701743e-16 2.720582765319024e-16 2.7205826496798048e-16 2.720582891465126e-16
          2.7205822502067205e-16 2.7205826286533543e-16 2.724680871026785e-16 2.723647678917262e-16 2.722381859679584e-16 2.7206244332586433e-16
          2.7192304739433083e-16 2.7192712377582143e-16 2.7202350420818717e-16 2.720622857213708e-16 2.7203219886007494e-16 2.7204903313515163e-16
          2.7207025308302743e-16 2.72060310253843e-16 2.7206274869314016e-16 2.7205888951724965e-16 2.720550734795324e-16 2.7205853514106814e-16
          2.720583154298741e-16 2.7205820136810407e-16 2.7205825918617056e-16 2.720582765317212e-16 2.720582765317995e-16 2.7205828914657254e-16
          2.720582628654648e-16 2.719021246332932e-16 2.7196801257062644e-16 2.7203270146012095e-16 2.7210286559563283e-16 2.721324707367459e-16
          2.7211282167911897e-16 2.72090476780367e-16 2.7207314667101815e-16 2.7206554884060365e-16 2.7205779744609494e-16 2.720515631272346e-16
          2.7205443900168532e-16 2.72055255631678e-16 2.720581619213949e-16 2.72059604547003e-16 2.7205800215822024e-16 2.7205806102730756e-16
          2.7205815669022567e-16 2.720582386869011e-16 2.7205826391665574e-16 2.7205826391681163e-16 2.720582649681004e-16 2.720582250209308e-16
          2.8047616043058407e-16 2.749692840711119e-16 2.8111542712322756e-16 2.760178262806679e-16 2.8681092288788375e-16 2.7973364896769873e-16
          2.9227805452375135e-16 2.830310413252607e-16 2.8468469549729857e-16 2.79089265072605e-16 2.661746441500774e-16 2.693438481845822e-16
          2.6128402244345883e-16 2.6669185412811026e-16 2.7506214723473673e-16 2.7368094763646926e-16 2.800361881857545e-16 2.7608549891015517e-16
          2.7448762089162866e-16 2.7321152725561343e-16 2.704732419361567e-16 2.7124487745409407e-16 2.713755789111065e-16 2.7169085043818288e-16
          2.726530592304349e-16 2.72352994422046e-16 2.720515823660624e-16 2.7207024256624115e-16 2.7203711121863046e-16 2.7204624635681397e-16
          2.720545731052989e-16 2.720554671595505e-16 2.7205791701025277e-16 2.720578134626678e-16 2.72058062078759e-16 2.720579942736641e-16
          2.7205804105392037e-16 2.720579842868975e-16 2.720580242340084e-16 2.720579758769373e-16 2.7205805471982765e-16 2.7205802213136627e-16
          2.7205816615118527e-16 2.720581493313349e-16 2.708981846080045e-16 2.7149103260719216e-16 2.7222897465123284e-16 2.727494882804773e-16
          2.7265551297570383e-16 2.722181057727551e-16 2.7204910116850225e-16 2.7216474067538356e-16 2.720978788366014e-16 2.7201078474711487e-16
          2.7204570390521345e-16 2.7203833491433654e-16 2.7205577832850353e-16 2.7207051846156135e-16 2.7205662139761727e-16 2.720572531704118e-16
          2.72057889676213e-16 2.720579548520226e-16 2.720579905942352e-16 2.7205800846536655e-16 2.720580400024923e-16 2.7205814933146643e-16
          2.723339615043693e-16 2.720618397762762e-16 2.7180157425495185e-16 2.717149484341846e-16 2.7181719130349627e-16 2.719231593264232e-16
          2.7199851652424276e-16 2.7202973331256524e-16 2.720609480386471e-16 2.7208613587463164e-16 2.7207489483839544e-16 2.7207054786341387e-16
          2.720586270433499e-16 2.720521341567028e-16 2.7205786130023705e-16 2.7205814512702156e-16 2.720580694373432e-16 2.720579832354761e-16
          2.720580536685957e-16 2.720580894108668e-16 2.7205809046207964e-16 2.7205816615144836e-16 2.7039851522310213e-16 2.7620126384668408e-16
          2.5683426188854385e-16 2.6585948314102595e-16 2.456020553984084e-16 2.5714847850230727e-16 2.398853120477438e-16 2.525631062697583e-16
          2.601189239590739e-16 2.6333532146596035e-16 3.4871371267770706e-16 3.0950394417184014e-16 3.996786176580323e-16 3.3580591364159145e-16
          3.1600832340086376e-16 2.9358075530274795e-16 2.5082596074676977e-16 2.613025228230477e-16 2.6811495364987903e-16 2.7034973120640744e-16
          2.84376230427901e-16 2.7833177309900497e-16 2.77378301263995e-16 2.748375610058577e-16 2.700169896449551e-16 2.710522109802591e-16
          2.7204251387977237e-16 2.719889883996631e-16 2.7213283269286296e-16 2.7209860613127626e-16 2.720720787364137e-16 2.720679478982675e-16
          2.7205893675511505e-16 2.7205913122990735e-16 2.720578802167584e-16 2.72058076797516e-16 2.7205802528534503e-16 2.7205810885889453e-16
          2.720582901979482e-16 2.720582781086392e-16 2.7205844578126645e-16 2.720584163465424e-16 2.720585277779851e-16 2.72058534085429e-16
          2.767303111329493e-16 2.737411973455046e-16 2.7115235779664177e-16 2.6952056062864166e-16 2.698633816462782e-16 2.7145834883501734e-16
          2.721102150721749e-16 2.716556450254144e-16 2.7190819376510565e-16 2.7226116229437906e-16 2.721339763467179e-16 2.721502371103423e-16
          2.7207096994541844e-16 2.7200804120835713e-16 2.7206156838177964e-16 2.7206072038616225e-16 2.7205865604706575e-16 2.7205819663754193e-16
          2.720582213415411e-16 2.720582675961962e-16 2.720583695663758e-16 2.72058534085429e-16 2.7145660979563256e-16 2.725976902975012e-16
          2.736098139870772e-16 2.7380022076551066e-16 2.7317504431970966e-16 2.726225220040615e-16 2.7228722051919925e-16 2.7215810284619655e-16
          2.720373026308857e-16 2.7193781582582223e-16 2.7198063692332697e-16 2.7200365347296424e-16 2.7205450757527373e-16 2.720806194971603e-16
          2.720587571938698e-16 2.720576237122032e-16 2.720579863894319e-16 2.7205811989681026e-16 2.72058250250638e-16 2.7205826917306205e-16
          2.720583522209332e-16 2.720585277779851e-16 7.28505136373206e-16 4.922719774255619e-16 6.598407237866587e-16 4.6905664925736e-16
          6.715338762948325e-16 4.920957859980547e-16 6.827686765124398e-16 5.044802341222739e-16 5.433121930150188e-16 4.255809236917716e-16
          7.255213930623906e-16 5.040164778255494e-16 9.472691888410425e-16 6.104184146633914e-16 6.963035325137368e-16 4.863772964346689e-16
          4.406560831640689e-16 3.5716225619773166e-16 3.642903780823773e-16 3.172901179986937e-16 3.2096633642243887e-16 2.961171351755451e-16
          2.9829689934901897e-16 2.8476990897792934e-16 2.8240940736007426e-16 2.772315237471817e-16 2.7230122121110125e-16 2.7243297306385148e-16
          2.7179756931586673e-16 2.719226211379999e-16 2.72000065764492e-16 2.720186643877987e-16 2.7205241534392414e-16 2.7205270547428404e-16
          2.7205861611775125e-16 2.7205812622883833e-16 2.72058762206514e-16 2.72058558790728e-16 2.7205861398027494e-16 2.7205848572880823e-16
          2.720586139800607e-16 2.7205849834351447e-16 2.720587043868114e-16 2.720585677253953e-16 2.6445138318041845e-16 2.7385496470220727e-16
          2.8993296183537987e-16 2.9650658783753404e-16 2.880310222668694e-16 2.762401332695105e-16 2.7244239255210353e-16 2.741120379250709e-16
          2.7296280317487183e-16 2.7147793484403865e-16 2.7186377186412314e-16 2.717803966734538e-16 2.7207031320084024e-16 2.722669914118055e-16
          2.720502447635088e-16 2.720484026211956e-16 2.720558447399652e-16 2.720579296291858e-16 2.7205817876642207e-16 2.7205812883251383e-16
          2.7205813461423224e-16 2.720581703562893e-16 2.728639478829193e-16 2.69437354676353e-16 2.6720822796948296e-16 2.668213839429601e-16
          2.6821239016521443e-16 2.69968703950313e-16 2.7131714461846655e-16 2.71773015494541e-16 2.7225717711834937e-16 2.726660117730672e-16
          2.7245960979959483e-16 2.723178747400679e-16 2.720869862673914e-16 2.719692579070092e-16 2.720528165668846e-16 2.720595422312858e-16
          2.720586938752864e-16 2.7205822291844604e-16 2.7205800215790213e-16 2.7205790018768614e-16 2.720578865214963e-16 2.720579096485993e-16
          2.5863450225958746e-15 1.4870890240770018e-15 2.4760926516010665e-15 1.5069011031553035e-15 2.3593596728285458e-15 1.4632358644902322e-15
          1.7299519405459056e-15 1.0725210645355547e-15 2.7532693613612497e-15 1.5263951709443677e-15 3.642735271135456e-15 1.9623818222938417e-15
          2.3208150448393716e-15 1.2950482999464516e-15 1.127243989707e-15 7.008669692941018e-16 8.344532289454158e-16 5.601260781810581e-16
          7.518364348820373e-16 5.162089151758315e-16 5.0334001095887385e-16 3.910598419598391e-16 2.8761146203087703e-16 2.8074831769610025e-16
          2.707689833395609e-16 2.7051852617676277e-16 2.729573736470982e-16 2.7249852021836825e-16 2.722889847738822e-16 2.72209470202747e-16
          2.720902864835073e-16 2.7208501552894885e-16 2.720604877037537e-16 2.7206124716658833e-16 2.720578665687471e-16 2.7205815828100194e-16
          2.720581619480441e-16 2.720580852070184e-16 2.7205849098536774e-16 2.720582991337849e-16 2.720587043872353e-16 2.720584415768182e-16
          3.571095969349522e-16 4.388539454643734e-16 4.481245402972119e-16 3.572105239740626e-16 2.9052939964148783e-16 2.7878668107095204e-16
          2.7133456009417355e-16 2.7318561475620393e-16 2.7821881863540487e-16 2.757291253002429e-16 2.749892225488527e-16 2.7297594831159537e-16
          2.713456918166294e-16 2.7206468445288283e-16 2.7209249529195993e-16 2.72067678111276e-16 2.720595639243724e-16 2.720580126738404e-16
          2.7205785183103434e-16 2.7205788284240967e-16 2.7205788021411013e-16 3.263861683117752e-16 3.399983362192056e-16 3.291370244425054e-16
          2.9933085942292135e-16 2.815378187554907e-16 2.75544988689677e-16 2.733875651348157e-16 2.7188128063120415e-16 2.706387098541094e-16
          2.708768551308602e-16 2.71198772136901e-16 2.7206672326186737e-16 2.7242331461929424e-16 2.720897021161274e-16 2.7205503495230807e-16
          2.720556116481616e-16 2.7205712121932174e-16 2.7205757535442403e-16 2.72057695196076e-16 2.7205765840261727e-16 2.720575816618192e-16
          1.052149501744571e-14 6.392309484361786e-15 8.875439503261126e-15 5.545017231673459e-15 6.471742052428711e-15 3.9313465074387005e-15
          1.1412096972942604e-14 6.017936560156736e-15 1.4822214973374454e-14 7.615837029337638e-15 9.163944908336832e-15 4.789115133499546e-15
          4.469822504621476e-15 2.4196675828125547e-15 3.1858134563339856e-15 1.7628670776207564e-15 2.5665732422225103e-15 1.4408228513458731e-15
          1.5009868085661159e-15 8.97765703302149e-16 5.235228293719231e-16 4.0802626536264565e-16 2.8279237907640636e-16 2.824193159940215e-16
          2.6944779418704923e-16 2.709311671833098e-16 2.711947131015686e-16 2.7151271174444653e-16 2.7191172668520904e-16 2.719434854912763e-16
          2.720419970632771e-16 2.7204131188411385e-16 2.7205969497158127e-16 2.7205778791930376e-16 2.720605598464096e-16 2.7205939138607914e-16
          2.7206014143581954e-16 2.720592704855372e-16 2.720600289516829e-16 2.720592216018411e-16 1.4781022454064536e-15 1.3932962737195571e-15
          8.656542052237487e-16 4.4159378272616716e-16 3.5000670417115784e-16 3.52237278732509e-16 3.320673799991893e-16 3.2074536781097497e-16
          3.0218578156443686e-16 2.8772258375143617e-16 2.835343370614872e-16 2.7643505001984884e-16 2.7215353307011673e-16 2.7194269791456923e-16
          2.720187857507061e-16 2.7204973441122085e-16 2.720566582043329e-16 2.7205759533270294e-16 2.7205765315148527e-16 2.720576762783277e-16
          6.930805395350477e-16 5.719975873533226e-16 3.4035744799880833e-16 2.5941141808146454e-16 2.905543230414965e-16 2.9018919880276004e-16
          2.9462209899474425e-16 3.015700367144226e-16 2.892991026596387e-16 2.8090056946468997e-16 2.7453897276960624e-16 2.70823847128061e-16
          2.7189252596066303e-16 2.72054685441814e-16 2.720623272040687e-16 2.720588421174911e-16 2.720574355416396e-16 2.720569677396573e-16
          2.7205690676771575e-16 2.7205693830465616e-16 4.3339335734632916e-14 2.6983679520625765e-14 3.217552022603347e-14 2.0786301605796325e-14
          2.5607034228637047e-14 1.546804617317223e-14 4.950554457971054e-14 2.5751864638047443e-14 6.096479875601199e-14 3.107232225009514e-14