<?xml version="1.0"?>
<VTKFile type="UnstructuredGrid" version="0.1" byte_order="LittleEndian" header_type="UInt32" compressor="vtkZLibDataCompressor">
  <UnstructuredGrid>
    <Piece NumberOfPoints="344" NumberOfCells="175">
      <PointData>
        <DataArray type="Int32" Name="libmesh_node_id" format="ascii" RangeMin="174" RangeMax="2802">
          274 293 514 560 568 569
          940 1018 1019 1021 1026 1027
          1028 1029 1030 1031 1032 1033
          1034 1124 1125 1126 1127 1128
          1129 1130 1134 1135 1136 1138
          1139 1140 1141 1142 1143 1144
          1145 1146 1147 1151 1154 1156
          1340 1341 1342 1343 1344 1345
          1346 1347 1348 1349 1350 1351
          1352 1353 2146 2147 2148 2151
          2154 2168 2169 2172 2174 2188
          2189 2191 2204 2210 2211 2212
          2213 2214 2215 2216 2217 2218
          2219 2220 2221 2222 2223 2224
          2225 2226 2227 2228 2229 2230
          2231 2232 2233 2234 2235 2236
          2237 2238 2239 2240 2241 2242
          2243 2244 2245 2246 2247 2248
          2249 2250 2251 2252 2253 2254
          2255 2256 2257 2258 2259 2260
          2261 2262 2263 2268 2269 2270
          2271 2272 2273 2278 2279 2285
          2286 2688 2689 2690 2691 2692
          2693 2694 2695 2696 2697 2698
          2699 2700 2701 2702 2703 2704
          2705 2706 2707 2708 2709 2710
          2712 2713 2714 2715 2716 2717
          2718 2719 2720 2721 2722 2723
          2724 2725 2726 2727 2728 2729
          2730 2731 2732 2733 2734 2735
          2736 2737 2740 2741 2743 2744
          2745 2746 2747 2748 2749 2750
          2751 2752 2753 2754 2755 2756
          2757 2758 2759 2760 2761 2762
          2763 2764 2765 2766 2767 2768
          2769 2770 2771 2772 2773 2774
          2776 2777 2778 2780 2781 2782
          2783 2784 2785 2786 558 285
          562 559 563 564 561 567
          566 570 294 571 509 694
          695 510 516 515 1050 1042
          1051 1043 1052 1035 1053 1131
          1132 1133 1137 1150 1148 1149
          1152 1153 1155 1157 1239 1240
          1247 1248 933 1287 1288 934
          1290 1291 1293 937 1294 2264
          1036 2266 2265 1037 2267 2274
          2275 530 2276 2277 1038 2280
          2206 2281 2283 2282 1039 2284
          2287 2288 2289 2290 2291 531
          2346 2310 2347 2320 2348 2349
          2356 2357 2358 2359 2711 2446
          2447 2449 1072 2452 1073 2462
          2738 2464 2739 2466 2742 1075
          2480 2481 2483 174 2486 1078
          2496 2775 2498 2500 2779 536
          2790 2788 2795 2794 2798 2797
          2802 2801
        </DataArray>
        <DataArray type="Float64" Name="bounds" format="ascii" RangeMin="0" RangeMax="0">
          0 0 0 0 0 0
          0 0 0 0 0 0
          0 0 0 0 0 0
          0 0 0 0 0 0
          0 0 0 0 0 0
          0 0 0 0 0 0
          0 0 0 0 0 0
          0 0 0 0 0 0
          0 0 0 0 0 0
          0 0 0 0 0 0
          0 0 0 0 0 0
          0 0 0 0 0 0
          0 0 0 0 0 0
          0 0 0 0 0 0
          0 0 0 0 0 0
          0 0 0 0 0 0
          0 0 0 0 0 0
          0 0 0 0 0 0
          0 0 0 0 0 0
          0 0 0 0 0 0
          0 0 0 0 0 0
          0 0 0 0 0 0
          0 0 0 0 0 0
          0 0 0 0 0 0
          0 0 0 0 0 0
          0 0 0 0 0 0
          0 0 0 0 0 0
          0 0 0 0 0 0
          0 0 0 0 0 0
          0 0 0 0 0 0
          0 0 0 0 0 0
          0 0 0 0 0 0
          0 0 0 0 0 0
          0 0 0 0 0 0
          0 0 0 0 0 0
          0 0 0 0 0 0
          0 0 0 0 0 0
          0 0 0 0 0 0
          0 0 0 0 0 0
          0 0 0 0 0 0
          0 0 0 0 0 0
          0 0 0 0 0 0
          0 0 0 0 0 0
          0 0 0 0 0 0
          0 0 0 0 0 0
          0 0 0 0 0 0
          0 0 0 0 0 0
          0 0 0 0 0 0
          0 0 0 0 0 0
          0 0 0 0 0 0
          0 0 0 0 0 0
          0 0 0 0 0 0
          0 0 0 0 0 0
          0 0 0 0 0 0
          0 0 0 0 0 0
          0 0 0 0 0 0
          0 0 0 0 0 0
          0 0
        </DataArray>
        <DataArray type="Float64" Name="gradient_error" format="ascii" RangeMin="8.653739128931074e-12" RangeMax="1.6199013456507836e-9">
          1.571968026323755e-10 1.5848046355845595e-11 6.549219383615628e-10 4.729883774515349e-11 2.5987698024023588e-11 5.1761273025110756e-11
          5.88105910502404e-10 8.53547179728813e-10 7.034840890101526e-10 4.86081366187869e-10 2.445473133113601e-10 2.178804874639677e-10
          2.521710115062641e-10 2.1005978227455741e-10 1.149099682075204e-10 8.771848594519055e-11 7.573777014163644e-11 3.0210708788900733e-10
          2.3885705187315094e-10 8.322814581491046e-11 7.643477118879207e-11 6.647347676812694e-11 6.022954098161116e-11 3.8821305092401624e-11
          5.6577563154702144e-11 5.257963334969137e-11 4.959357062193181e-11 4.2252219529529806e-11 3.193018166351206e-11 6.728135684335904e-11
          5.434774428308213e-11 2.160515718782741e-11 1.827913837809916e-11 4.4052621649010956e-11 3.359147545926781e-11 8.421055143633615e-11
          6.7517606614323e-11 2.1766047119906352e-11 5.1911706519651696e-11 5.922622172727451e-11 4.770519715212161e-11 6.444837731870759e-11
          1.6597470255163163e-11 1.5071862868028916e-11 1.895582042461264e-11 1.716062083921788e-11 1.0823707738814974e-11 1.056472194555338e-11
          1.0877180444903297e-11 1.3546255480894669e-11 1.536542125382312e-11 1.1189638944253213e-11 2.1314170594062115e-11 1.9249378810406845e-11
          1.0930653150991619e-11 1.7184587026751574e-11 2.7423577433803587e-10 4.3129425409190137e-10 4.1343056878362765e-10 3.666593978831723e-10
          8.127092626582716e-10 2.143408286270526e-10 3.023135638622902e-10 2.6310262914389596e-10 5.579408681328377e-10 1.6199013456507836e-9
          1.5311471528651195e-9 1.2964969856601004e-9 9.95232492151476e-10 1.628274936095793e-10 1.5718285609022717e-10 2.4337301242019195e-10
          2.337838621436575e-10 8.952882621523468e-11 1.3370611811333994e-10 1.287896700881056e-10 1.4165074938692773e-10 2.0756613747717785e-10
          1.1452032200735943e-10 4.735117592192312e-10 4.514005510059087e-10 2.4079779265750064e-10 3.920252042949112e-10 5.00607740902007e-11
          4.8565362940444946e-11 7.062094866244787e-11 6.810514123034645e-11 3.5883873968179354e-11 4.891159038056516e-11 4.722014603934742e-11
          4.427273572606195e-11 6.126086015792987e-11 4.2765045171097935e-11 1.2977210502588282e-10 1.2417496638348567e-10 7.131969633751109e-11
          1.0917854139797353e-10 1.2117819972929205e-10 1.6985063619475773e-10 6.805995435741957e-11 9.419592419967771e-11 1.1059311925560372e-10
          1.4876370930228276e-10 8.322442644750781e-11 3.1084714746994964e-10 1.6837448588583556e-10 2.5832199459272557e-10 3.9718048052717956e-11
          5.1921625010303835e-11 3.216100209660547e-11 3.898926504819542e-11 3.796057644400121e-11 4.691086350299297e-11 3.797714145232466e-11
          8.830982093304844e-11 5.208103550436748e-11 7.412965373678115e-11 8.858445266195556e-10 8.381884917476805e-10 4.6144820571528625e-10
          4.3741947802463333e-10 7.12252538691129e-10 3.737841624083056e-10 2.3065924799579672e-10 2.1917959104408618e-10 1.1010411136587342e-10
          1.0492143666960877e-10 1.8863560543542014e-10 9.105740223994609e-11 5.497429467784416e-10 2.913871669643355e-10 1.4887831311242944e-10
          7.225444818819203e-11 3.722969388927795e-11 3.578201943546024e-11 5.0513460582648855e-11 4.832790768019627e-11 2.4216694630779733e-11
          3.2173446064044455e-11 3.091492162412508e-11 3.1778237620632776e-11 4.241495435083318e-11 2.7322906071808757e-11 8.193935324100517e-11
          7.788950232998025e-11 3.940589800069053e-11 6.713292131870232e-11 2.6331255820653494e-11 3.417396583320382e-11 1.8944237911666454e-11
          2.337398792528536e-11 2.3440381381683955e-11 2.966037774248496e-11 2.175856089115892e-11 5.2618390550733985e-11 2.776441435275268e-11
          1.2058256341263644e-10 1.1411517371877657e-10 5.096994434046726e-11 4.841088139467792e-11 9.698247233202607e-11 4.1620713592108864e-11
          1.6048986034182626e-10 1.5155872969451488e-10 6.37506727423127e-11 1.2775823014677175e-10 1.7508253662612528e-11 1.6729526412152457e-11
          2.1089091107163617e-11 2.0107740186387738e-11 1.14243974017288e-11 1.3045367978650793e-11 1.2475943928527688e-11 1.4722194737947026e-11
          1.75493605301404e-11 1.0966639321864662e-11 2.7590643806251122e-11 2.622439058068419e-11 1.510525715288371e-11 2.2650364327278527e-11
          7.497855153084758e-11 3.268710490924206e-11 9.753867147647448e-11 4.19718391690146e-11 1.195474732610312e-11 1.4032254884975891e-11
          8.653739128931074e-12 9.410152308524476e-12 1.041590433800457e-11 1.2092177975282842e-11 8.79354585172421e-12 1.7757274723921203e-11
          1.1183644361765115e-11 1.507195814840261e-11 1.9148136584784144e-10 1.807425584570369e-10 7.959559913198897e-11 7.53299022335159e-11
          1.5184180581168896e-10 6.391977507548477e-11 2.0306665863131267e-10 1.9169279622756904e-10 7.967794907946169e-11 1.6091792443751556e-10
          3.2304191672829954e-11 3.065065569552943e-11 1.854228865196767e-11 1.7618174408831283e-11 2.6320373631682412e-11 1.5195853778952616e-11
          3.4097024284872374e-11 3.2338484190313494e-11 1.855332496722171e-11 2.7716544931141545e-11 1.1485736523699499e-10 4.8917262026110674e-11
          4.0560367222982967e-11 1.2137438532702242e-10 5.152030297299936e-11 2.0411048836655208e-11 1.27842576846291e-11 1.7178470128174493e-11
          1.1870867977047861e-11 2.1417310669316673e-11 1.3367792133845856e-11 1.7981475572104876e-11 1.1115072765821218e-10 6.682861300541921e-11
          6.628847603551575e-11 1.1590617476516422e-10 3.321026337748207e-11 4.612002527630565e-11 5.7520818931605e-11 7.45391445544481e-11
          1.4160541822159178e-10 3.7293522526536725e-11 9.369684051234053e-11 1.487369468009544e-10 2.7364257857955544e-10 1.389121721944753e-10
          1.406002721393494e-10 3.9458344021729623e-10 3.001464726979385e-10 6.409515445906077e-10 4.1035396402467265e-10 6.587450980965786e-10
          3.7340721687704296e-10 5.335126415120551e-10 1.5132394628397208e-10 9.970787092462025e-11 1.4868847073652512e-10 6.232127728816339e-11
          6.512444696739541e-11 4.334114594408853e-11 5.191613483096812e-11 4.707407132215369e-11 6.979614749514115e-11 6.894753342185603e-11
          7.05583473080138e-11 9.053044341900653e-11 7.687992863313253e-11 9.98098691252551e-11 1.4950589800738377e-11 1.6190243281584148e-11
          1.4156002201404548e-11 1.6906982524373212e-11 6.75345385522975e-10 2.7727907472508643e-10 2.560702547924748e-10 6.263707591459172e-10
          1.4904458852592996e-10 1.5118014499224075e-10 2.348614348598632e-10 5.930925811369206e-10 1.5331570145855157e-10 1.5480108301489857e-9
          7.938014385765217e-10 7.480222281247662e-10 1.4569504182257342e-9 6.274425601124877e-10 1.2160910328575214e-9 3.8704134541164874e-10
          3.655328027228379e-10 1.8091502385990247e-10 1.7137376924518297e-10 3.0881525807929567e-10 1.461218495552329e-10 3.91708432451472e-10
          7.049417055618139e-10 2.1035622367667526e-10 4.737232202668317e-10 9.088033433138539e-10 3.2901829568422676e-10 6.224793181813615e-10
          1.0879376680027727e-10 6.176153831442219e-11 2.3678534533627504e-10 1.1320615426878666e-10 1.679454124638212e-10 9.597980877815642e-11
          2.0264808801756702e-10 3.3181867952478025e-10 2.622792759542444e-10 4.697586814612133e-10 1.122696024188907e-10 1.434104208972775e-10
          5.816285911895971e-11 7.4424692491825e-11 4.2922573967647743e-11 5.2474604165788084e-11 4.215251843346007e-11 2.7317570485101844e-10
          2.576977973442317e-10 2.1677682566713396e-10 3.6993530604237727e-10 3.484912225167555e-10 2.9110434793009813e-10 1.644754239804011e-10
          5.355377693928233e-11 1.1475398119157062e-10 2.8248887112917766e-11 2.1724741035668707e-10 6.871969197576911e-11 1.4847775305791712e-10
          4.4389263955166333e-10 4.183860704824139e-10 3.488729012200473e-10 4.714319949890414e-10 4.445792900176229e-10 3.7074180193985937e-10
          2.5815591371148827e-10 7.973858892822747e-11 1.7386736933429139e-10 2.736516532525568e-10 8.385675718493426e-11 1.8339556797882385e-10
          2.4673252279672803e-11 3.591715491631599e-11 2.925444200716874e-11 4.4949970548726654e-11 3.323026437625513e-11 5.1307065821234374e-11
          3.4597717425444615e-11 5.3635884541442687e-11
        </DataArray>
        <DataArray type="Float64" Name="gradient_matprop_error" format="ascii" RangeMin="0" RangeMax="0">
          0 0 0 0 0 0
          0 0 0 0 0 0
          0 0 0 0 0 0
          0 0 0 0 0 0
          0 0 0 0 0 0
          0 0 0 0 0 0
          0 0 0 0 0 0
          0 0 0 0 0 0
          0 0 0 0 0 0
          0 0 0 0 0 0
          0 0 0 0 0 0
          0 0 0 0 0 0
          0 0 0 0 0 0
          0 0 0 0 0 0
          0 0 0 0 0 0
          0 0 0 0 0 0
          0 0 0 0 0 0
          0 0 0 0 0 0
          0 0 0 0 0 0
          0 0 0 0 0 0
          0 0 0 0 0 0
          0 0 0 0 0 0
          0 0 0 0 0 0
          0 0 0 0 0 0
          0 0 0 0 0 0
          0 0 0 0 0 0
          0 0 0 0 0 0
          0 0 0 0 0 0
          0 0 0 0 0 0
          0 0 0 0 0 0
          0 0 0 0 0 0
          0 0 0 0 0 0
          0 0 0 0 0 0
          0 0 0 0 0 0
          0 0 0 0 0 0
          0 0 0 0 0 0
          0 0 0 0 0 0
          0 0 0 0 0 0
          0 0 0 0 0 0
          0 0 0 0 0 0
          0 0 0 0 0 0
          0 0 0 0 0 0
          0 0 0 0 0 0
          0 0 0 0 0 0
          0 0 0 0 0 0
          0 0 0 0 0 0
          0 0 0 0 0 0
          0 0 0 0 0 0
          0 0 0 0 0 0
          0 0 0 0 0 0
          0 0 0 0 0 0
          0 0 0 0 0 0
          0 0 0 0 0 0
          0 0 0 0 0 0
          0 0 0 0 0 0
          0 0 0 0 0 0
          0 0 0 0 0 0
          0 0
        </DataArray>
        <DataArray type="Float64" Name="initial_marker" format="ascii" RangeMin="0" RangeMax="2">
          0 0 1 0 1 0
          0.75 2 2 1.75 0 0
          2 2 0 1 0.75 0
          1.25 0 0 0 0 0
          0 0 1.5 1.5 0 2
          2 1 0.75 1.5 0 2
          2 1 1.5 0 0 0
          0 0 0 0 0 0
          0 0 0 0 0 0
          0 0 2 2 2 1.75
          2 0.5 1.25 1 2 2
          2 2 2 1 1 1.5
          1.5 0 1 1 0.5 1.25
          1 2 2 2 2 0
          0 0.5 0.5 0 0 0
          0 0.5 0 1.5 1.5 1.3333333333333333
          1.5 0 1 0 0.75 0
          1 0.5 2 1.75 2 0
          0.25 0 0 0 0 0
          1.25 0.6666666666666666 1 2 2 2
          2 2 2 2 2 2
          2 2 1.75 2 2 2
          1.5 1 1 1.5 1.5 0
          1 1 0.5 1.25 1 2
          2 2 2 0 0.75 0
          0.5 0 0.5 0 1.75 1.3333333333333333
          2 2 2 2 2 2
          2 2 2 2 1 1
          1.5 1.5 0 1 1 1
          1.25 0.5 2 2 2 1.75
          2 1.75 2 2 0.5 0.75
          0 0 0 0.5 0 1.25
          0.5 1 2 2 2 2
          2 2 2 2 2 2
          2 2 2 2 2 2
          2 2 2 2 2 2
          2 2 2 1.5 1 1
          0 1.5 1 1 0 0
          0 0 0 0 0 0
          0 0 0 0 0 0
          0 0 0 0 0 0
          0 0.5 0 0.25 0 0
          0 0 0.25 0 0 0
          0 0 0 0 0 0
          0 0 0 0 0 0
          0 0 0 0 0 2
          2 2 2 2 2 2
          2 2 2 2 2 2
          2 2 2 2 2 2
          1.75 1.3333333333333333 2 2 2 1.75
          1.5 1.6666666666666667 1.75 2 1 1.5
          0.5 1 0 0.5 1.3333333333333333 2
          2 2 2 2 2 2
          1.75 2 1.3333333333333333 2 2 2
          2 2 2 2 2 2
          2 2 2 2 2 2
          0.5 0.75 1 1.25 1 1.5
          1 1.5
        </DataArray>
        <DataArray type="Float64" Name="markers_norefine" format="ascii" RangeMin="0" RangeMax="0">
          0 0 0 0 0 0
          0 0 0 0 0 0
          0 0 0 0 0 0
          0 0 0 0 0 0
          0 0 0 0 0 0
          0 0 0 0 0 0
          0 0 0 0 0 0
          0 0 0 0 0 0
          0 0 0 0 0 0
          0 0 0 0 0 0
          0 0 0 0 0 0
          0 0 0 0 0 0
          0 0 0 0 0 0
          0 0 0 0 0 0
          0 0 0 0 0 0
          0 0 0 0 0 0
          0 0 0 0 0 0
          0 0 0 0 0 0
          0 0 0 0 0 0
          0 0 0 0 0 0
          0 0 0 0 0 0
          0 0 0 0 0 0
          0 0 0 0 0 0
          0 0 0 0 0 0
          0 0 0 0 0 0
          0 0 0 0 0 0
          0 0 0 0 0 0
          0 0 0 0 0 0
          0 0 0 0 0 0
          0 0 0 0 0 0
          0 0 0 0 0 0
          0 0 0 0 0 0
          0 0 0 0 0 0
          0 0 0 0 0 0
          0 0 0 0 0 0
          0 0 0 0 0 0
          0 0 0 0 0 0
          0 0 0 0 0 0
          0 0 0 0 0 0
          0 0 0 0 0 0
          0 0 0 0 0 0
          0 0 0 0 0 0
          0 0 0 0 0 0
          0 0 0 0 0 0
          0 0 0 0 0 0
          0 0 0 0 0 0
          0 0 0 0 0 0
          0 0 0 0 0 0
          0 0 0 0 0 0
          0 0 0 0 0 0
          0 0 0 0 0 0
          0 0 0 0 0 0
          0 0 0 0 0 0
          0 0 0 0 0 0
          0 0 0 0 0 0
          0 0 0 0 0 0
          0 0 0 0 0 0
          0 0
        </DataArray>
        <DataArray type="Float64" Name="markers_mustrefine" format="ascii" RangeMin="0" RangeMax="2">
          0 0 1 0 1 0
          0.75 2 2 1.75 0 0
          2 2 0 1 0.75 0
          1.25 0 0 0 0 0
          0 0 1.5 1.5 0 2
          2 1 0.75 1.5 0 2
          2 1 1.5 0 0 0
          0 0 0 0 0 0
          0 0 0 0 0 0
          0 0 2 2 2 1.75
          2 0.5 1.25 1 2 2
          2 2 2 1 1 1.5
          1.5 0 1 1 0.5 1.25
          1 2 2 2 2 0
          0 0.5 0.5 0 0 0
          0 0.5 0 1.5 1.5 1.3333333333333333
          1.5 0 1 0 0.75 0
          1 0.5 2 1.75 2 0
          0.25 0 0 0 0 0
          1.25 0.6666666666666666 1 2 2 2
          2 2 2 2 2 2
          2 2 1.75 2 2 2
          1.5 1 1 1.5 1.5 0
          1 1 0.5 1.25 1 2
          2 2 2 0 0.75 0
          0.5 0 0.5 0 1.75 1.3333333333333333
          2 2 2 2 2 2
          2 2 2 2 1 1
          1.5 1.5 0 1 1 1
          1.25 0.5 2 2 2 1.75
          2 1.75 2 2 0.5 0.75
          0 0 0 0.5 0 1.25
          0.5 1 2 2 2 2
          2 2 2 2 2 2
          2 2 2 2 2 2
          2 2 2 2 2 2
          2 2 2 1.5 1 1
          0 1.5 1 1 0 0
          0 0 0 0 0 0
          0 0 0 0 0 0
          0 0 0 0 0 0
          0 0.5 0 0.25 0 0
          0 0 0.25 0 0 0
          0 0 0 0 0 0
          0 0 0 0 0 0
          0 0 0 0 0 2
          2 2 2 2 2 2
          2 2 2 2 2 2
          2 2 2 2 2 2
          1.75 1.3333333333333333 2 2 2 1.75
          1.5 1.6666666666666667 1.75 2 1 1.5
          0.5 1 0 0.5 1.3333333333333333 2
          2 2 2 2 2 2
          1.75 2 1.3333333333333333 2 2 2
          2 2 2 2 2 2
          2 2 2 2 2 2
          0.5 0.75 1 1.25 1 1.5
          1 1.5
        </DataArray>
        <DataArray type="Float64" Name="gradient_marker" format="ascii" RangeMin="1" RangeMax="1">
          1 1 1 1 1 1
          1 1 1 1 1 1
          1 1 1 1 1 1
          1 1 1 1 1 1
          1 1 1 1 1 1
          1 1 1 1 1 1
          1 1 1 1 1 1
          1 1 1 1 1 1
          1 1 1 1 1 1
          1 1 1 1 1 1
          1 1 1 1 1 1
          1 1 1 1 1 1
          1 1 1 1 1 1
          1 1 1 1 1 1
          1 1 1 1 1 1
          1 1 1 1 1 1
          1 1 1 1 1 1
          1 1 1 1 1 1
          1 1 1 1 1 1
          1 1 1 1 1 1
          1 1 1 1 1 1
          1 1 1 1 1 1
          1 1 1 1 1 1
          1 1 1 1 1 1
          1 1 1 1 1 1
          1 1 1 1 1 1
          1 1 1 1 1 1
          1 1 1 1 1 1
          1 1 1 1 1 1
          1 1 1 1 1 1
          1 1 1 1 1 1
          1 1 1 1 1 1
          1 1 1 1 1 1
          1 1 1 1 1 1
          1 1 1 1 1 1
          1 1 1 1 1 1
          1 1 1 1 1 1
          1 1 1 1 1 1
          1 1 1 1 1 1
          1 1 1 1 1 1
          1 1 1 1 1 1
          1 1 1 1 1 1
          1 1 1 1 1 1
          1 1 1 1 1 1
          1 1 1 1 1 1
          1 1 1 1 1 1
          1 1 1 1 1 1
          1 1 1 1 1 1
          1 1 1 1 1 1
          1 1 1 1 1 1
          1 1 1 1 1 1
          1 1 1 1 1 1
          1 1 1 1 1 1
          1 1 1 1 1 1
          1 1 1 1 1 1
          1 1 1 1 1 1
          1 1 1 1 1 1
          1 1
        </DataArray>
        <DataArray type="Float64" Name="gradient_matprop_marker" format="ascii" RangeMin="0" RangeMax="0">
          0 0 0 0 0 0
          0 0 0 0 0 0
          0 0 0 0 0 0
          0 0 0 0 0 0
          0 0 0 0 0 0
          0 0 0 0 0 0
          0 0 0 0 0 0
          0 0 0 0 0 0
          0 0 0 0 0 0
          0 0 0 0 0 0
          0 0 0 0 0 0
          0 0 0 0 0 0
          0 0 0 0 0 0
          0 0 0 0 0 0
          0 0 0 0 0 0
          0 0 0 0 0 0
          0 0 0 0 0 0
          0 0 0 0 0 0
          0 0 0 0 0 0
          0 0 0 0 0 0
          0 0 0 0 0 0
          0 0 0 0 0 0
          0 0 0 0 0 0
          0 0 0 0 0 0
          0 0 0 0 0 0
          0 0 0 0 0 0
          0 0 0 0 0 0
          0 0 0 0 0 0
          0 0 0 0 0 0
          0 0 0 0 0 0
          0 0 0 0 0 0
          0 0 0 0 0 0
          0 0 0 0 0 0
          0 0 0 0 0 0
          0 0 0 0 0 0
          0 0 0 0 0 0
          0 0 0 0 0 0
          0 0 0 0 0 0
          0 0 0 0 0 0
          0 0 0 0 0 0
          0 0 0 0 0 0
          0 0 0 0 0 0
          0 0 0 0 0 0
          0 0 0 0 0 0
          0 0 0 0 0 0
          0 0 0 0 0 0
          0 0 0 0 0 0
          0 0 0 0 0 0
          0 0 0 0 0 0
          0 0 0 0 0 0
          0 0 0 0 0 0
          0 0 0 0 0 0
          0 0 0 0 0 0
          0 0 0 0 0 0
          0 0 0 0 0 0
          0 0 0 0 0 0
          0 0 0 0 0 0
          0 0
        </DataArray>
        <DataArray type="Float64" Name="combo" format="ascii" RangeMin="1" RangeMax="1">
          1 1 1 1 1 1
          1 1 1 1 1 1
          1 1 1 1 1 1
          1 1 1 1 1 1
          1 1 1 1 1 1
          1 1 1 1 1 1
          1 1 1 1 1 1
          1 1 1 1 1 1
          1 1 1 1 1 1
          1 1 1 1 1 1
          1 1 1 1 1 1
          1 1 1 1 1 1
          1 1 1 1 1 1
          1 1 1 1 1 1
          1 1 1 1 1 1
          1 1 1 1 1 1
          1 1 1 1 1 1
          1 1 1 1 1 1
          1 1 1 1 1 1
          1 1 1 1 1 1
          1 1 1 1 1 1
          1 1 1 1 1 1
          1 1 1 1 1 1
          1 1 1 1 1 1
          1 1 1 1 1 1
          1 1 1 1 1 1
          1 1 1 1 1 1
          1 1 1 1 1 1
          1 1 1 1 1 1
          1 1 1 1 1 1
          1 1 1 1 1 1
          1 1 1 1 1 1
          1 1 1 1 1 1
          1 1 1 1 1 1
          1 1 1 1 1 1
          1 1 1 1 1 1
          1 1 1 1 1 1
          1 1 1 1 1 1
          1 1 1 1 1 1
          1 1 1 1 1 1
          1 1 1 1 1 1
          1 1 1 1 1 1
          1 1 1 1 1 1
          1 1 1 1 1 1
          1 1 1 1 1 1
          1 1 1 1 1 1
          1 1 1 1 1 1
          1 1 1 1 1 1
          1 1 1 1 1 1
          1 1 1 1 1 1
          1 1 1 1 1 1
          1 1 1 1 1 1
          1 1 1 1 1 1
          1 1 1 1 1 1
          1 1 1 1 1 1
          1 1 1 1 1 1
          1 1 1 1 1 1
          1 1
        </DataArray>
        <DataArray type="Float64" Name="dHdT" format="ascii" RangeMin="25.81270790197629" RangeMax="26.154210990401932">
          25.818871496262506 25.812940457024233 25.866345309084714 25.814494261451834 25.81538566243617 25.8146442660615
          25.861162676270848 25.995160196725266 25.964242998392763 25.903115520208445 25.831947360641408 25.830594005977886
          25.86623969877722 25.85822457556053 25.81991956651825 25.82604877992017 25.82448048743571 25.830452495576726
          25.84273616419912 25.816295223412496 25.81613008271082 25.81663672469706 25.81635552943429 25.81462765753506
          25.81507079405111 25.814938211639408 25.81991464612811 25.818887011780667 25.81469535172815 25.826817677335
          25.824096752107085 25.815014193083233 25.814759329333054 25.81914077624666 25.814807731609505 25.830578760855197
          25.826819040538815 25.815046081248315 25.820254402091052 25.815276494930522 25.815070845621683 25.81547769284334
          25.813497085449757 25.813485237891825 25.813537646265846 25.81352057897302 25.813157459000486 25.813116034076636
          25.813143345223097 25.81347339033389 25.81350351168019 25.81317065636956 25.81357820708194 25.813555920054213
          25.813129231445707 25.813533633026488 25.880113152358323 25.910514103817125 25.906979354447124 25.897290400407602
          25.98669226151881 25.865647937707145 25.883804516711976 25.87581370148722 25.934724471781188 26.154210990401932
          26.134929287828697 26.085079451704676 26.02256514637734 25.853586707624814 25.85244501992854 25.86860677982262
          25.866700019497927 25.8353411668511 25.84359497036092 25.842625221890472 25.849277551519904 25.861542047257085
          25.84013074084699 25.913357760493547 25.908904991685862 25.86403763638662 25.897143269473148 25.8254941856447
          25.82520757506552 25.829228055308228 25.828774829204647 25.8216038279972 25.824108643994514 25.823835460848194
          25.824602270478195 25.827655243525086 25.823148315733036 25.840204727280067 25.83917795877734 25.828214529740492
          25.83647015066692 25.845047079324566 25.854775797901684 25.832423285094343 25.837192274193136 25.842842387841568
          25.85126076046243 25.835778540112315 25.8818586619852 25.850735962733214 25.872146797039864 25.82419265427867
          25.826454201600225 25.82100566813309 25.822458465117343 25.824101732087282 25.82591951925134 25.82218257647048
          25.832987475200774 25.824936355165253 25.83085404061623 25.997280884889285 25.987222478479502 25.90799104865324
          25.903075661400347 25.96113590390468 25.89032175225753 25.860085730898202 25.85782391005656 25.835605223097332
          25.834616485600296 25.851924289250057 25.83203407925642 25.928354878065658 25.874173120607935 25.844338535006905
          25.828698108296102 25.821324175261935 25.82104298659777 25.823620209664924 25.82320463231077 25.81833290707717
          25.81972161771618 25.819479255796104 25.820332694363195 25.822133030930342 25.818868229082703 25.82946986254968
          25.82868077257458 25.821039350415777 25.826638184796742 25.81947062781773 25.82082705611755 25.817467766260897
          25.818198698588894 25.819037664842668 25.820177105331034 25.8178978328884 25.824105131232777 25.818950498588475
          25.837548931162843 25.836177098183875 25.82339760950287 25.82288367787853 25.83266997366987 25.82156129676925
          25.84651087338593 25.844425193984883 25.82605177494651 25.839160122505927 25.81675899968765 25.816614900312146
          25.817341236114117 25.817159809092022 25.815215468461076 25.815534780845063 25.815445093816017 25.81624797374682
          25.816690867071078 25.81521076756988 25.818507768511136 25.81824736565083 25.81594637494583 25.817572502953265
          25.828334307557625 25.819890103203967 25.83278623361763 25.821659228506544 25.81578237574153 25.816112923028673
          25.8148024698241 25.814948694019463 25.815539604926073 25.81582249398511 25.81483125968614 25.816757515530085
          25.815261376652213 25.816356987944168 25.85379625580011 25.851089714742255 25.82952798910268 25.828547188220654
          25.84431698593673 25.826063978053554 25.856645146122595 25.853687970757107 25.8295119589392 25.846310672105357
          25.819454817780944 25.819125225228145 25.816535543616332 25.816381102953567 25.818279131805365 25.815976991619006
          25.819817571080208 25.819460437026525 25.81654417518643 25.818547018099544 25.836257617422536 25.823017710749838
          25.821371562582026 25.83758460467688 25.823536238470258 25.817266387382798 25.815531087402466 25.816770143830205
          25.81533485385772 25.817461214021236 25.815634339715334 25.816931694816226 25.814093402698994 25.813068891887646
          25.813219441423172 25.81413837319232 25.81303173325297 25.813109898019512 25.8142298375384 25.813326127583466
          25.81449485105486 25.81307891304386 25.81321255702387 25.814596852302174 25.816626247810195 25.814083596087936
          25.81414639029759 25.81704526629662 25.819069617588834 25.848013000883075 25.829852231802054 25.844874607245504
          25.83301623052677 25.86021156497023 25.81992178361248 25.82180716596494 25.820597924240744 25.81588313801379
          25.816166520222296 25.814752434527456 25.817198658238148 25.814936598298893 25.8164656430149 25.81694001736152
          25.816345794699924 25.81686518633862 25.817340266798425 25.817151980212305 25.812727884042516 25.81275543373381
          25.81270790197629 25.81274453971727 25.840424206853893 25.824519517953917 25.824174004580172 25.8389417393714
          25.81944895313454 25.819556991947344 25.823828491206424 25.838202007999424 25.819665030760152 26.13935191359584
          25.977786728559032 25.967549428126365 26.118267222248928 25.941639595857367 26.064973496309157 25.89233836739846
          25.88774900454721 25.849810087063457 25.847853345066046 25.87601876242616 25.84281548534517 25.897462908297765
          25.963788332004953 25.858810801055103 25.910267435286734 26.000772920664787 25.881893877233285 25.943287454075797
          25.837057385892464 25.827069340459662 25.86153061780437 25.836483745806074 25.848164424876884 25.830153878224106
          25.86124791478019 25.889819633335787 25.87291128725075 25.917058780099484 25.84076191671331 25.8466225164154
          25.828627679645415 25.831378867084553 25.824337727819515 25.825965803286408 25.822410176200943 25.869416589135973
          25.865940907654007 25.85714579415773 25.89175262351379 25.886373911167546 25.87295702044397 25.846500526748756
          25.824354027995554 25.83691458867286 25.8190857561839 25.857179345675473 25.827065145950442 25.84345892358153
          25.910339848863124 25.90327652510853 25.885814987815664 25.917673151040525 25.909925076497334 25.890827702306844
          25.86562833990909 25.82917978716206 25.848470543755766 25.86887886524772 25.829980347022634 25.850372394697473
          25.818568509090664 25.821347475398706 25.81940343128144 25.822877619415543 25.820127840204044 25.824092410741184
          25.820410886199575 25.824556984120697
        </DataArray>
        <DataArray type="Float64" Name="dk/dtemperature" format="ascii" RangeMin="0.015535492876667088" RangeMax="0.015804580349343195">