<?xml version="1.0"?>
<VTKFile type="UnstructuredGrid" version="0.1" byte_order="LittleEndian" header_type="UInt32" compressor="vtkZLibDataCompressor">
  <UnstructuredGrid>
    <Piece NumberOfPoints="719" NumberOfCells="461">
      <PointData>
        <DataArray type="Int32" Name="libmesh_node_id" format="ascii" RangeMin="730" RangeMax="6346">
          730 908 909 912 914 915
          916 917 918 919 1219 1221
          1225 1226 1825 1837 1838 1840
          1843 1844 1846 1849 1851 1852
          1855 1856 1857 1858 1860 1863
          1864 1867 1869 1871 1872 1873
          1874 1875 1876 1877 1878 1879
          1880 2985 3030 3031 3032 3033
          3040 3041 3043 3053 3061 3063
          3076 3077 3079 3082 3092 3094
          3096 3110 3111 3113 3116 3126
          3128 3130 3132 3133 3134 3135
          3136 3137 3138 3139 3140 3141
          3142 3143 3146 3148 3149 3151
          3152 3153 3154 3155 3156 3157
          3158 3159 3161 3162 3163 3165
          3166 3167 3168 3169 3170 3171
          3172 3173 3174 3175 3176 3177
          3180 3182 3183 3185 3186 3187
          3188 3189 3190 3191 3192 3193
          3195 3196 3197 3199 3200 3201
          3202 3203 3204 3205 3206 3207
          3208 3209 3210 3211 3212 3213
          3214 3215 3216 3217 3218 3219
          3220 3221 3222 3223 3224 3225
          3226 3227 3228 3229 3230 3231
          3232 3233 3234 3235 3236 3237
          3238 3239 3240 5360 5361 5362
          5363 5364 5365 5366 5367 5368
          5369 5370 5373 5374 5375 5377
          5378 5379 5380 5415 5416 5417
          5418 5419 5420 5421 5422 5423
          5424 5425 5426 5429 5431 5432
          5434 5435 5436 5437 5438 5439
          5440 5441 5442 5444 5446 5448
          5511 5512 5513 5518 5520 5528
          5529 5530 5538 5539 5540 5595
          5615 5616 5618 5621 5635 5723
          5724 5726 5729 5739 5741 5743
          5757 5758 5760 5763 5773 5775
          5777 5817 5818 5819 5820 5821
          5822 5823 5824 5825 5826 5827
          5828 5829 5830 5831 5832 5833
          5834 5835 5836 5837 5838 5839
          5840 5841 5842 5843 5844 5845
          5846 5847 5848 5849 5850 5851
          5852 5853 5854 5855 5856 5857
          5858 5859 5860 5861 5862 5863
          5864 5865 5866 5867 5868 5869
          5870 5871 5872 5873 5874 5875
          5876 5877 5878 5879 5880 5881
          5882 5883 5884 5885 5886 5887
          5890 5892 5893 5895 5896 5897
          5898 5899 5900 5901 5902 5903
          5905 5907 5909 5910 5911 5912
          5913 5914 5915 5916 5917 5918
          5919 5920 5921 5924 5926 5927
          5929 5930 5931 5932 5933 5934
          5935 5936 5937 5939 5941 5943
          5946 5951 5952 5953 5956 5961
          5962 5963 5964 5965 5966 5967
          5968 5969 5970 5971 5972 5973
          5974 5975 5976 5977 5978 5979
          5980 5981 5982 5983 5984 5985
          5986 5987 5988 5989 5990 5991
          5993 5995 5997 5998 5999 6000
          6001 6002 6003 6004 6005 6006
          6007 6008 6009 6010 6011 6012
          6013 6014 6015 6016 6017 6018
          6019 6021 6023 6025 6026 6027
          6028 6029 6030 6031 6032 6033
          6034 6035 6036 6037 6038 6039
          6040 6041 6042 6043 6044 6045
          6046 6047 6048 6049 6050 6051
          6052 6053 6054 6055 6056 6057
          6058 6059 6060 6061 6062 6063
          6064 6065 6066 6067 6068 6069
          6070 6071 6072 6073 6074 6075
          6076 6077 6078 6079 6080 6081
          6082 6083 6084 6085 6086 6087
          6088 6089 6090 6091 6092 6093
          6094 6095 6096 6097 6098 6099
          6100 6101 6102 6103 6104 6105
          6106 6107 6108 6109 6110 6111
          6112 6113 6114 6115 6116 6117
          6118 6119 6122 6124 6125 6127
          6128 6129 6130 6131 6132 6133
          6134 6135 6137 6139 6141 6142
          6143 6144 6145 6146 6147 6148
          6149 6150 6151 6152 6153 6156
          6158 6159 6161 6162 6163 6164
          6165 6166 6167 6168 6169 6171
          6173 6175 6176 6177 6178 6179
          6180 6181 6182 6183 6184 6185
          6186 6187 6188 6189 6190 6191
          6192 6193 6194 6195 6196 6197
          6198 6199 6200 6201 6202 6203
          6204 6205 6206 6207 6208 6209
          6210 6211 6212 6213 6214 6215
          6216 6217 6218 6219 6220 6221
          6222 6223 6225 6227 6229 6230
          6231 6232 6233 6234 6235 6236
          6237 6238 6239 6240 6241 6242
          6243 6244 6245 6246 6247 6248
          6249 6250 6251 6253 6255 6257
          6258 6259 6260 6261 6262 6263
          6264 6265 6266 6267 6268 6269
          6270 6271 6272 6273 6274 6275
          6276 6277 6278 6279 6280 6281
          6282 6283 6284 6285 6286 6287
          6288 6289 6290 6291 6292 6293
          6294 6295 6296 6297 6298 6299
          6300 6301 6302 6303 6304 6305
          6306 6307 6308 6309 6310 6311
          6312 6313 6314 6315 6316 6317
          6318 6319 6320 6321 6322 6323
          6324 6325 6326 6327 6328 6329
          6330 6331 6332 6333 6334 6335
          6336 6337 6338 6339 6340 6341
          6342 6343 6344 6345 6346
        </DataArray>
        <DataArray type="Float64" Name="bounds" format="ascii" RangeMin="0" RangeMax="0">
          0 0 0 0 0 0
          0 0 0 0 0 0
          0 0 0 0 0 0
          0 0 0 0 0 0
          0 0 0 0 0 0
          0 0 0 0 0 0
          0 0 0 0 0 0
          0 0 0 0 0 0
          0 0 0 0 0 0
          0 0 0 0 0 0
          0 0 0 0 0 0
          0 0 0 0 0 0
          0 0 0 0 0 0
          0 0 0 0 0 0
          0 0 0 0 0 0
          0 0 0 0 0 0
          0 0 0 0 0 0
          0 0 0 0 0 0
          0 0 0 0 0 0
          0 0 0 0 0 0
          0 0 0 0 0 0
          0 0 0 0 0 0
          0 0 0 0 0 0
          0 0 0 0 0 0
          0 0 0 0 0 0
          0 0 0 0 0 0
          0 0 0 0 0 0
          0 0 0 0 0 0
          0 0 0 0 0 0
          0 0 0 0 0 0
          0 0 0 0 0 0
          0 0 0 0 0 0
          0 0 0 0 0 0
          0 0 0 0 0 0
          0 0 0 0 0 0
          0 0 0 0 0 0
          0 0 0 0 0 0
          0 0 0 0 0 0
          0 0 0 0 0 0
          0 0 0 0 0 0
          0 0 0 0 0 0
          0 0 0 0 0 0
          0 0 0 0 0 0
          0 0 0 0 0 0
          0 0 0 0 0 0
          0 0 0 0 0 0
          0 0 0 0 0 0
          0 0 0 0 0 0
          0 0 0 0 0 0
          0 0 0 0 0 0
          0 0 0 0 0 0
          0 0 0 0 0 0
          0 0 0 0 0 0
          0 0 0 0 0 0
          0 0 0 0 0 0
          0 0 0 0 0 0
          0 0 0 0 0 0
          0 0 0 0 0 0
          0 0 0 0 0 0
          0 0 0 0 0 0
          0 0 0 0 0 0
          0 0 0 0 0 0
          0 0 0 0 0 0
          0 0 0 0 0 0
          0 0 0 0 0 0
          0 0 0 0 0 0
          0 0 0 0 0 0
          0 0 0 0 0 0
          0 0 0 0 0 0
          0 0 0 0 0 0
          0 0 0 0 0 0
          0 0 0 0 0 0
          0 0 0 0 0 0
          0 0 0 0 0 0
          0 0 0 0 0 0
          0 0 0 0 0 0
          0 0 0 0 0 0
          0 0 0 0 0 0
          0 0 0 0 0 0
          0 0 0 0 0 0
          0 0 0 0 0 0
          0 0 0 0 0 0
          0 0 0 0 0 0
          0 0 0 0 0 0
          0 0 0 0 0 0
          0 0 0 0 0 0
          0 0 0 0 0 0
          0 0 0 0 0 0
          0 0 0 0 0 0
          0 0 0 0 0 0
          0 0 0 0 0 0
          0 0 0 0 0 0
          0 0 0 0 0 0
          0 0 0 0 0 0
          0 0 0 0 0 0
          0 0 0 0 0 0
          0 0 0 0 0 0
          0 0 0 0 0 0
          0 0 0 0 0 0
          0 0 0 0 0 0
          0 0 0 0 0 0
          0 0 0 0 0 0
          0 0 0 0 0 0
          0 0 0 0 0 0
          0 0 0 0 0 0
          0 0 0 0 0 0
          0 0 0 0 0 0
          0 0 0 0 0 0
          0 0 0 0 0 0
          0 0 0 0 0 0
          0 0 0 0 0 0
          0 0 0 0 0 0
          0 0 0 0 0 0
          0 0 0 0 0 0
          0 0 0 0 0 0
          0 0 0 0 0 0
          0 0 0 0 0 0
          0 0 0 0 0 0
          0 0 0 0 0 0
          0 0 0 0 0
        </DataArray>
        <DataArray type="Float64" Name="gradient_error" format="ascii" RangeMin="1.1825244953808381e-11" RangeMax="2.4093765939242927e-7">
          1.689420009519226e-10 2.14181600569226e-7 2.089794026302972e-8 2.3038449598341356e-11 1.2942745068884898e-9 1.3862149492728328e-10
          1.1995613812697487e-8 5.056077344886652e-8 1.3773427313146733e-10 1.4739601381411045e-9 8.362997103464026e-10 1.3624781597444818e-10
          9.23502607161272e-10 1.1632220773610815e-10 1.1037856571545042e-7 8.840082471873938e-9 2.379741180072084e-9 2.2021952711861675e-10
          7.274927361327733e-8 1.7606519365492846e-7 3.325707040990736e-8 2.4093765939242927e-7 4.777624972709057e-8 2.1306642808670046e-8
          4.619826137388684e-10 8.953363406015637e-11 5.864699161595544e-8 4.294452777675948e-8 8.934378210225042e-10 5.210845067456816e-9
          1.4294587667935671e-8 1.272469485411037e-9 1.9516142657411314e-8 2.3818603896599127e-10 3.866187881515326e-10 4.096208716748727e-11
          7.32950652597636e-11 3.9476778924829155e-10 4.4557887070760675e-10 1.301632864895381e-10 5.222954351503736e-10 9.225939478239585e-11
          4.65031457663766e-10 1.4721270911147156e-7 7.329306336334116e-8 5.992800458028458e-8 6.63339077731561e-9 3.051006947906001e-8
          4.533229959675576e-9 3.285772337003039e-9 1.0511210812282321e-9 2.5241088219909977e-9 1.7314332092935628e-10 7.204336729918629e-11
          1.5052029594077595e-7 1.6705982613196283e-7 1.3799967029897818e-7 1.1463279798511711e-7 5.8219918789762556e-8 1.4646366558676054e-8
          1.2444320564357783e-7 4.142158838508401e-8 9.986930302565178e-8 2.1083719385389414e-7 9.042288779650391e-8 1.9351587154445603e-7
          3.8712629696975814e-8 2.2292520506913538e-7 8.468204895724279e-8 1.1155822094915707e-7 2.6846367146823952e-8 2.2392683713722818e-8
          9.010280326755697e-8 8.866019474487562e-9 6.242590409517096e-8 1.0344296379510629e-7 4.8816251260198134e-8 1.1256208625869405e-7
          1.5733461312666573e-8 1.2530433149130071e-8 4.262314737039718e-9 3.257431542096057e-8 2.9184152244741638e-8 1.1150081538417871e-8
          2.5631386303800232e-8 1.5974094151798185e-9 4.9174070571060805e-9 3.011662267320348e-10 5.5838891627852534e-8 3.956719802124159e-9
          9.152415057598131e-9 6.375370433312908e-10 1.2016969335168368e-10 5.958072918403072e-11 1.642069511426872e-9 1.7842912617858493e-10
          6.931491571832465e-8 9.324092106063489e-8 5.731258508923502e-8 7.010592044744758e-8 1.1536319806587759e-7 3.598643558231779e-8
          4.5261553771012e-8 9.748974852332792e-8 7.773147246075351e-8 1.3423824349551374e-7 4.0290639383052546e-8 4.549713453693156e-8
          1.930901572690269e-8 4.029839408819742e-8 5.116998422066957e-8 2.3098347754633893e-8 8.904497083838443e-8 6.879531709531317e-9
          1.343896558833405e-8 7.591945992871656e-10 1.0371484383882675e-7 8.270273767198797e-9 1.5255825301850062e-8 2.9113252361291012e-9
          2.746479490827019e-10 1.168872015992901e-10 3.527521478531084e-9 3.2632082795958954e-10 7.495527509579078e-10 1.7095730858648452e-9
          1.122003997060204e-9 2.9567929481262285e-9 4.278718365982499e-9 3.326744197982596e-9 4.9373639441966175e-9 5.33931667200262e-10
          1.0348610121821666e-9 2.0874228751768367e-10 2.1953025216099187e-10 2.956248943345193e-10 6.956126353846939e-10 1.6335098978392334e-10
          1.6767854131630336e-9 2.0135348221199198e-10 1.3792423386853395e-9 6.590801554732997e-11 8.309317162325498e-11 2.210185491960021e-11
          4.780198360503544e-11 1.98482114323151e-11 3.7259817167830274e-11 1.1825244953808381e-11 6.705441000035514e-11 5.280164753542237e-11
          6.618263599777532e-11 2.436560457222069e-9 3.051336296106687e-10 2.0895054100836757e-9 5.020000595088774e-10 2.8152027196049068e-9
          3.526813942725783e-10 2.4268160401438925e-9 6.707701928186994e-11 4.7767846739001005e-11 9.586489450612942e-11 2.3081410986360056e-11
          7.64186937214275e-11 5.4748476946172687e-11 1.0804147584725939e-10 1.2828431103301778e-8 5.360528785771646e-9 4.946920099103835e-9
          3.988940601018155e-9 3.7043155422050545e-9 3.982420959491454e-9 2.9219496290516135e-9 1.206772740988133e-8 1.1166330048604325e-8
          8.279111564606581e-9 9.02752021969616e-9 7.620619835586462e-9 2.8108170721216525e-9 1.918864676468999e-9 1.0499084433899617e-9
          6.381791287588285e-9 4.388989117187747e-9 3.600599992965668e-9 2.8489438900066733e-9 2.6364377637952345e-9 1.949091977198315e-9
          1.797307891031219e-9 2.0517510741625938e-9 1.384297726845269e-9 6.473334739765613e-9 6.03951497735919e-9 4.210716355255137e-9
          4.772582389024388e-9 1.2678629082591855e-9 1.165675086311755e-9 8.907550004803033e-10 3.00469794222966e-9 2.7788007587755316e-9
          2.1442241762425518e-9 1.3098875879815953e-9 8.686542077752924e-10 6.913426934146728e-10 4.476129907184402e-10 3.0669379938482656e-9
          2.0694148408662718e-9 1.5994582291244276e-9 5.524823010123821e-10 2.8034878609718134e-10 1.3304146382536254e-9 6.642930420979184e-10
          7.054077666219047e-10 4.499393219090938e-10 2.814184008677814e-10 2.7889069706878104e-10 1.0492260111931532e-10 1.061322673312083e-10
          6.264065843592606e-11 5.573323252233203e-11 3.7054922504791404e-11 2.1570513959475093e-11 1.8744452056228723e-11 5.885039346862718e-8
          6.213854906750706e-8 6.337496905562422e-8 6.272310233740115e-8 7.627101342405953e-8 7.2901760832011e-8 7.2850021425927e-8
          8.415179828017706e-8 9.324514855004682e-8 6.893981270311191e-8 8.531892250636878e-8 7.960112304707105e-8 9.668840596375624e-8
          1.447243882650918e-8 4.845079531503918e-8 9.509214375316886e-8 4.2683079578710864e-8 1.0209295649616374e-7 9.643077728955891e-8
          1.0293458011696932e-7 2.4096681899467703e-8 2.229374740014909e-8 1.8583915977757675e-8 5.326496335618601e-8 5.300051145320348e-8
          3.929745352498461e-8 5.273605955022095e-8 2.1236450266051557e-8 1.9922705951987054e-8 1.6366162043899876e-8 1.5604479539760793e-8
          1.6648144254765707e-8 1.2979387288328517e-8 3.2595973461340436e-8 3.1580639626587075e-8 2.602847245590467e-8 2.7730126523150955e-8
          1.4169054150084062e-8 8.337331480439308e-9 2.38719562546355e-8 1.2193576781199732e-8 8.857274516638138e-9 7.0313229525533475e-9
          4.854537333223416e-9 2.092467362710691e-8 1.57934784543636e-8 1.2331251209432409e-8 5.765545979593787e-8 5.8331846854166917e-8
          5.2097363117062627e-8 5.237793153306742e-8 5.9008233912395965e-8 4.925159644228782e-8 6.859624668763263e-8 7.169314826148608e-8
          6.513272964056605e-8 7.588437979101105e-8 4.590277466348432e-8 4.609719014840385e-8 3.909908138982088e-8 3.8942275337232685e-8
          4.248910457432119e-8 3.497897861682826e-8 5.504277538200541e-8 5.779879553382473e-8 5.002804764603981e-8 5.76571430225749e-8
          3.694777592795382e-8 2.251068053350594e-8 7.125016339571847e-8 5.6241706968731624e-8 6.442728708908287e-8 3.275748627127376e-8
          2.5310727467876664e-8 1.9569674779485045e-8 1.4455316567987835e-8 4.616663223199157e-8 3.6948313981722606e-8 2.7671764910526215e-8
          1.2551452709323485e-8 1.1896866989879829e-8 9.13340718937589e-9 8.588966347028832e-9 9.704959154624182e-9 6.868020201735002e-9
          2.1038266568094057e-8 2.0287038933691046e-8 1.5075406224374744e-8 1.718727468825466e-8 6.218660558775981e-9 5.809042344885734e-9
          4.570767969288947e-9 1.1134589348102834e-8 1.056374180080601e-8 8.571043345094456e-9 6.387096164792669e-9 4.400153107542983e-9
          3.3448939170165276e-9 2.2334110928335293e-9 1.1735180274121054e-8 8.291638051114378e-9 6.271155281570751e-9 2.869637651294879e-9
          1.4250959348765668e-9 5.508578471592495e-9 2.7522305041632963e-9 3.159116842408297e-8 3.106255669805073e-8 2.3923476040194957e-8
          2.3343964958015455e-8 2.7243403546527066e-8 2.01434359359615e-8 4.073219460852963e-8 4.170839297508319e-8 3.253606153958337e-8
          3.8910397664012004e-8 1.721291459777164e-8 1.6673875576660028e-8 1.4105293328776226e-8 2.3856312204066912e-8 2.354761296385791e-8
          2.0668595167560734e-8 1.9167075884030403e-8 1.382455997860522e-8 1.0500845125319366e-8 7.284014799252892e-9 2.8317949802671284e-8
          2.0640923104501864e-8 1.5801579057789865e-8 9.388090638451362e-9 4.769342044224085e-9 1.4243115926778842e-8 7.414843158912887e-9
          7.06874487057796e-9 5.931735051588467e-9 4.022439115628362e-9 2.6891240535854726e-9 1.089187066073531e-9 9.071000890198713e-10
          5.816714847028749e-10 4.6156029704668857e-10 1.1194176898786749e-8 5.507603069094639e-9 1.6127227586809962e-8 9.52033926963214e-9
          6.649285238962469e-9 4.351859194469169e-9 2.625209071792667e-9 1.3866902645367442e-8 9.934950616464974e-9 6.425427416738686e-9
          1.756943229786152e-9 8.10648959519306e-10 2.5488392990848304e-9 1.4627239546513302e-9 9.409470660707264e-10 6.038522210149421e-10
          3.154826659642594e-10 2.1404816048000523e-9 1.3991503996525506e-9 8.747991076853668e-10 1.448806430664978e-9 9.355430117031957e-10
          5.561571076255748e-10 3.467808177358656e-10 2.7034234996951596e-9 1.7682993165264817e-9 1.0123579564415067e-9 5.841054762663116e-10
          2.1172785561917166e-10 1.1122249269191643e-9 3.9147247603033116e-10 1.9985591306504305e-10 1.2045441932253225e-10 1.0177792894898146e-10
          6.040235721040552e-11 3.530981695475669e-10 2.1491821081388297e-10 1.4009588626748891e-10 7.183966148215544e-11 4.186053132384572e-11
          3.540618951280742e-11 2.0299784757553946e-11 1.2864548322086997e-10 7.496994130948045e-11 6.229936639807541e-11 4.56397783767388e-9
          3.0259448144660574e-9 1.6863501324241781e-9 1.0715045893428617e-9 6.966523365357768e-9 4.684415852547844e-9 2.565846456317606e-9
          1.9191279269628594e-9 6.611707393173834e-10 2.9947999607347914e-9 1.0177895668305328e-9 5.763492092837746e-10 3.528098483993784e-10
          1.860221869326381e-10 1.3494955838865562e-10 8.624999567961565e-10 5.297295330255882e-10 2.7495900955109113e-10 2.1174605080250783e-10
          1.2365274511508037e-10 1.0115356334649066e-10 5.7690592383443944e-11 3.191168137052723e-10 1.869451766440816e-10 1.1507840878835134e-10
          7.536929704716274e-8 8.317044844653749e-8 7.147613311045683e-8 7.692170024568127e-8 8.875101257632221e-8 8.122948677448114e-8
          5.822414387574462e-8 7.887364067490485e-8 8.159354362808903e-8 9.944375384912508e-8 6.258661925433625e-8 6.746011322351361e-8
          5.2851209511883244e-8 5.757713749177399e-8 7.179483720933229e-8 6.096610567011454e-8 6.747569839763625e-8 7.480563467947224e-8
          6.341808217037763e-8 8.257939910824505e-8 7.879414873536555e-8 7.02233282355743e-8 7.105787216399889e-8 4.8911783416015674e-8
          9.117684040848496e-8 8.27208270716967e-8 8.298931059278483e-8 6.02161169920202e-8 4.913820208415398e-8 3.655432232197689e-8
          2.886330285838903e-8 7.185916977989498e-8 5.943589730685566e-8 4.511239055083388e-8 3.2786900723331285e-8 6.388169377836904e-8
          5.416079554770507e-8 7.54485881679644e-8 1.0001703981559415e-7 9.762272386507914e-8 2.4717570649923267e-8 5.663388883216152e-8
          6.990088415692694e-8 9.746223153635147e-8 6.361536851392425e-8 7.569851125034048e-8 5.8961955267388275e-8 6.675540283849736e-8
          8.847385681487352e-8 7.581758019295818e-8 5.917837790676738e-8 7.401483636062055e-8 6.7495774752051e-8 8.999606284469084e-8
          9.779870367972386e-8 8.988827185110041e-8 9.053981456166623e-8 6.625719087488708e-8 9.958186061749043e-8 9.213585818970726e-8
          9.27894651766777e-8 7.899118613379234e-8 6.603666502002194e-8 5.122756352504993e-8 4.110072154467854e-8 8.134299527954145e-8
          6.826912991278543e-8 5.342139795467505e-8 4.5030850966905526e-8 4.872526283013589e-8 3.847629638665734e-8 4.015403986133216e-8
          4.9670957793662716e-8 3.832623225860738e-8 4.677230450540719e-8 5.256251058835004e-8 4.422804733203393e-8 5.7557598149034517e-8
          2.99951920194565e-8 3.027027021199131e-8 2.7504859463152757e-8 3.397830547071793e-8 3.532449743675823e-8 3.347072592985582e-8
          3.808779746363398e-8 2.7978624780970063e-8 2.160059417257974e-8 1.5392168064627668e-8 4.663798396950958e-8 3.461297872285153e-8
          2.7011309412233643e-8 1.945610662702568e-8 1.0363127336369686e-8 2.4211785168256887e-8 1.3088966810320458e-8 4.818448886660604e-8
          5.491799830868053e-8 4.0345536647273376e-8 4.5759426459191546e-8 6.229963721340822e-8 4.9746537192002884e-8 4.8759614702078846e-8
          5.5787240955477086e-8 4.6181028776096457e-8 6.39263929320685e-8 3.5593536306880763e-8 3.8032509492042266e-8 3.7431571546719645e-8
          3.5923446016928086e-8 3.8826751223466016e-8 3.880450000286221e-8 5.234450692576785e-8 3.922405129808096e-8 3.090009307099918e-8
          2.209201197469739e-8 5.433335806694061e-8 4.08755785151433e-8 3.2309323805867486e-8 2.7577418252843216e-8 1.5024363496499846e-8
          2.8792488867726486e-8 1.5725343500204574e-8 2.194480437805284e-8 1.10588318558081e-8 2.714385546761523e-8 1.884162576100868e-8
          1.3554427776044074e-8 8.837669552348552e-9 5.467253354740926e-9 2.3383735962896325e-8 1.6948710536243088e-8 1.1046354832147493e-8
          3.4436154924082016e-9 1.5580507488417336e-9 4.218219193522878e-9 2.9042537362330285e-9 1.9131928941125893e-9 1.1646797050571892e-9
          6.178655937739543e-10 3.5859735926663247e-9 2.393381705950007e-9 1.4223690497176537e-9 3.095926338679673e-8 1.574793320517044e-8
          3.2596534004417066e-8 2.6702786747354486e-8 1.9406271707156824e-8 1.2631718847950115e-8 7.89465070845837e-9 2.8041329093574382e-8
          2.0308874260042867e-8 1.3263791406651178e-8 4.7229869923798165e-9 2.1295991618082314e-9 4.916857886740795e-9 4.049153505055813e-9
          2.738349544076122e-9 1.5968952611763934e-9 8.578268875834016e-10 4.2241434162659506e-9 2.8656263111519504e-9 1.6625810445012025e-9
          9.639694494224935e-9 6.560203705268428e-9 3.563727545678579e-9 2.2919735643843828e-9 1.2133791027273259e-8 8.320789117790984e-9
          4.510220152156971e-9 4.2272116488192394e-9 1.4252836994508416e-9 5.400312775264086e-9 1.8136422316488565e-9 1.1823875021969802e-9
          7.270859022040403e-10 3.7116653357487e-10 2.2064255748237655e-10 1.483486555461598e-9 9.134905202716225e-10 4.5946170779500455e-10
          4.3952083100686215e-10 2.582169857631187e-10 1.2892433926648059e-10 9.168634221760925e-11 5.531932568883323e-10 3.2530931305784644e-10
          1.6117363946246925e-10 1.3925497075354286e-8 9.583694451771438e-9 5.1956981429313334e-9 3.362039968979751e-9 1.4579996152083537e-8
          1.004370570756942e-8 5.446717614063333e-9 6.248903965998952e-9 2.096287172624574e-9 6.558749950374825e-9 2.200128941641161e-9
          1.7013558722884938e-9 1.0487916487262477e-9 5.220669282307701e-10 3.125477568282512e-10 1.7811672511713925e-9 1.0981977033395429e-9
          5.447632154902967e-10 6.355034078488747e-10 3.736272511874387e-10 1.8343694968533083e-10 1.3073721767686364e-10 6.655146176163467e-10
          3.9120019494182893e-10 1.9151697207230537e-10 1.983638272445189e-10 2.4301657664211797e-10 1.881707133788552e-10 3.214763257789939e-10
          1.59233619876891e-10 1.9485781696919498e-10 9.118486796800519e-11 1.1224378723278537e-10 1.1642585846680995e-10 1.3343871979555103e-10
          6.190255978374874e-11 2.6224806077667e-10 1.5678283381081223e-10 1.6907585646521138e-10 4.963710895750192e-11 6.105664451833872e-11
          3.70078944882566e-11 4.432477186737869e-11 3.4265226076049394e-11 3.7622140624785947e-11 3.014588789432126e-11 8.655336788140565e-11
          5.588080861902339e-11 4.607995170883411e-11 3.8755991758268063e-10 2.927447249247025e-10 4.481267768541041e-10 3.247140857729176e-10
          2.0344522340788182e-10 2.04010765330745e-10 9.254647306486063e-11 3.8146343278296477e-10 2.4543676363120773e-10 2.3522941590128116e-10
          5.022983737721061e-10 3.7741366781120633e-10 5.281797034830944e-10 4.277124558174507e-10 2.7547506360278235e-10 2.6326277269696367e-10
          1.2081441196479326e-10 4.4791211012296593e-10 2.867040856348541e-10 2.763881124467244e-10 1.1457670719090419e-10 6.653481080489295e-11
          5.569493686805614e-11 3.464884429822399e-11 1.3939876329114405e-10 8.1282019653068e-11 6.485845992378757e-11 3.3808792106242637e-11
          3.842234132979847e-11 2.5096886186480613e-11 2.7906282579010256e-11 2.34290368042711e-11 2.348162440974164e-11 1.9239293566213855e-11
          4.6593270774575304e-11 3.33465902747128e-11 2.5441122591067603e-11 1.566596133882055e-10 9.137669277178094e-11 7.25560132136994e-11
          4.287066879402069e-11 1.6304455889229554e-10 9.525857954192711e-11 7.560413207179021e-11 5.243987884475932e-11 3.7622009579598254e-11
          2.869535721656626e-11 2.4244456925624384e-11 5.472910669372234e-11 3.9266517581310814e-11 3.0042681266209504e-11
        </DataArray>
        <DataArray type="Float64" Name="gradient_matprop_error" format="ascii" RangeMin="0" RangeMax="0">
          0 0 0 0 0 0
          0 0 0 0 0 0
          0 0 0 0 0 0
          0 0 0 0 0 0
          0 0 0 0 0 0
          0 0 0 0 0 0
          0 0 0 0 0 0
          0 0 0 0 0 0
          0 0 0 0 0 0
          0 0 0 0 0 0
          0 0 0 0 0 0
          0 0 0 0 0 0
          0 0 0 0 0 0
          0 0 0 0 0 0
          0 0 0 0 0 0
          0 0 0 0 0 0
          0 0 0 0 0 0
          0 0 0 0 0 0
          0 0 0 0 0 0
          0 0 0 0 0 0
          0 0 0 0 0 0
          0 0 0 0 0 0
          0 0 0 0 0 0
          0 0 0 0 0 0
          0 0 0 0 0 0
          0 0 0 0 0 0
          0 0 0 0 0 0
          0 0 0 0 0 0
          0 0 0 0 0 0
          0 0 0 0 0 0
          0 0 0 0 0 0
          0 0 0 0 0 0
          0 0 0 0 0 0
          0 0 0 0 0 0
          0 0 0 0 0 0
          0 0 0 0 0 0
          0 0 0 0 0 0
          0 0 0 0 0 0
          0 0 0 0 0 0
          0 0 0 0 0 0
          0 0 0 0 0 0
          0 0 0 0 0 0
          0 0 0 0 0 0
          0 0 0 0 0 0
          0 0 0 0 0 0
          0 0 0 0 0 0
          0 0 0 0 0 0
          0 0 0 0 0 0
          0 0 0 0 0 0
          0 0 0 0 0 0
          0 0 0 0 0 0
          0 0 0 0 0 0
          0 0 0 0 0 0
          0 0 0 0 0 0
          0 0 0 0 0 0
          0 0 0 0 0 0
          0 0 0 0 0 0
          0 0 0 0 0 0
          0 0 0 0 0 0
          0 0 0 0 0 0
          0 0 0 0 0 0
          0 0 0 0 0 0
          0 0 0 0 0 0
          0 0 0 0 0 0
          0 0 0 0 0 0
          0 0 0 0 0 0
          0 0 0 0 0 0
          0 0 0 0 0 0
          0 0 0 0 0 0
          0 0 0 0 0 0
          0 0 0 0 0 0
          0 0 0 0 0 0
          0 0 0 0 0 0
          0 0 0 0 0 0
          0 0 0 0 0 0
          0 0 0 0 0 0
          0 0 0 0 0 0
          0 0 0 0 0 0
          0 0 0 0 0 0
          0 0 0 0 0 0
          0 0 0 0 0 0
          0 0 0 0 0 0
          0 0 0 0 0 0
          0 0 0 0 0 0
          0 0 0 0 0 0
          0 0 0 0 0 0
          0 0 0 0 0 0
          0 0 0 0 0 0
          0 0 0 0 0 0
          0 0 0 0 0 0
          0 0 0 0 0 0
          0 0 0 0 0 0
          0 0 0 0 0 0
          0 0 0 0 0 0
          0 0 0 0 0 0
          0 0 0 0 0 0
          0 0 0 0 0 0
          0 0 0 0 0 0
          0 0 0 0 0 0
          0 0 0 0 0 0
          0 0 0 0 0 0
          0 0 0 0 0 0
          0 0 0 0 0 0
          0 0 0 0 0 0
          0 0 0 0 0 0
          0 0 0 0 0 0
          0 0 0 0 0 0
          0 0 0 0 0 0
          0 0 0 0 0 0
          0 0 0 0 0 0
          0 0 0 0 0 0
          0 0 0 0 0 0
          0 0 0 0 0 0
          0 0 0 0 0 0
          0 0 0 0 0 0
          0 0 0 0 0 0
          0 0 0 0 0 0
          0 0 0 0 0 0
          0 0 0 0 0 0
          0 0 0 0 0
        </DataArray>
        <DataArray type="Float64" Name="initial_marker" format="ascii" RangeMin="0" RangeMax="2">
          0 2 1.25 0 0 0
          2 2 1.5 0 0 0
          0 0 2 2 2 0.5
          2 2 2 2 2 2
          2 1 2 2 2 0.25
          0.5 0 0.5 0 0 0
          0 0 0 0 0 0
          0 2 2 2 2 2
          2 2 2 0.75 2 0.25
          2 2 2 2 2 1.6666666666666667
          2 2 2 2 2 2
          2 2 2 2 2 2
          2 2 2 2 2 2
          2 2 2 2 2 2
          2 2 1.25 1 2 2
          2 2 1 0.75 2 1.5
          2 2 2 2 2 2
          2 2 2 2 2 2
          2 2 2 2 2 2
          2 2 2 2 2 2
          2 1.25 2 2 0 0.5
          0 1 1 0 1 0
          0.25 0 0 0 0 0
          0.5 0 0 0 0 0
          0 0 0 0 0 0
          0 0.5 0 0 0 0.5
          0 0 0 0 0 0
          0 0 0 2 2 2
          2 2 2 2 2 2
          2 2 2 2 2 2
          2 2 2 2 2 2
          2 2 2 2 2 2
          2 2 2 2 2 2
          2 2 2 2 2 2
          2 2 2 2 2 2
          2 2 2 2 2 1.5
          1.25 1 1 1 0 2
          2 2 2 2 2 2
          2 2 2 2 2 2
          2 2 2 2 2 2
          2 2 2 2 2 2
          2 2 2 2 2 2
          2 2 2 2 2 2
          2 2 2 2 2 2
          2 2 2 2 2 2
          2 2 2 2 2 2
          2 2 2 2 2 2
          2 2 2 2 2 2
          2 2 2 2 2 2
          2 2 2 2 2 2
          2 2 2 2 2 2
          2 2 2 2 2 2
          2 2 2 2 2 2
          2 2 2 2 2 2
          2 2 2 2 2 2
          2 2 2 2 2 2
          2 2 2 2 2 2
          2 2 2 2 2 2
          2 2 2 2 2 2
          2 2 2 2 2 2
          2 1.3333333333333333 2 2 2 2
          2 2 2 2 2 2
          2 1.5 2 2 2 1.5
          1.5 2 2 2 2 2
          2 2 2 2 2 2
          2 2 2 2 1.75 2
          1.5 2 2 1.3333333333333333 1.5 1.25
          1 0.5 2 1.75 2 2
          2 2 2 2 2 2
          2 2 2 2 2 2
          1.25 1.3333333333333333 2 2 1.75 2
          2 2 2 2 2 1.6666666666666667
          2 2 2 2 2 2
          2 2 2 2 2 2
          2 2 2 2 2 2
          2 2 2 2 2 2
          2 2 2 2 2 2
          2 2 2 2 2 2
          2 2 2 2 2 2
          2 2 2 2 2 2
          2 2 2 2 2 2
          2 2 2 2 2 2
          2 2 2 2 2 2
          2 2 2 2 2 2
          2 2 2 2 2 2
          2 2 2 2 2 2
          2 2 2 2 2 2
          2 2 2 2 2 2
          2 2 2 2 2 2
          2 2 2 2 2 2
          2 2 2 2 2 2
          2 2 2 2 2 2
          2 2 2 2 2 2
          2 2 2 2 2 2
          2 2 2 2 2 2
          2 2 2 2 2 2
          2 2 2 2 2 2