<?xml version="1.0"?>
<VTKFile type="UnstructuredGrid" version="0.1" byte_order="LittleEndian" header_type="UInt32" compressor="vtkZLibDataCompressor">
  <UnstructuredGrid>
    <Piece NumberOfPoints="361" NumberOfCells="205">
      <PointData>
        <DataArray type="Int32" Name="libmesh_node_id" format="ascii" RangeMin="269" RangeMax="2625">
          271 535 542 544 545 546
          547 551 552 554 555 1028
          1029 1030 1033 1036 1050 1051
          1054 1056 1058 1059 1060 1061
          1062 1063 1064 1065 1066 1067
          1068 1069 1070 1071 1086 1087
          1090 1091 1093 1095 1166 1167
          1169 1343 1344 1378 1379 1380
          1381 1382 1383 1384 1385 1386
          1387 1762 1763 1764 1765 1766
          1767 1768 1769 1770 1771 1772
          1773 1774 1775 1786 1787 1788
          1789 1790 1791 1792 1793 1794
          1795 1806 1807 1808 1809 1810
          1811 1812 1813 1814 1815 1823
          1824 1825 1826 1827 1828 1829
          1854 1855 1856 1857 1858 1859
          1860 1861 1862 1863 1864 1865
          1866 1867 1868 1869 1870 1871
          1872 1873 1874 1875 1876 1877
          1878 1879 1880 1881 1882 1883
          1884 1885 1886 1887 1888 1889
          1890 1891 1892 1893 1894 1895
          1896 1897 1898 1899 1900 1901
          1902 1903 1904 1905 1906 1907
          1908 1909 1910 1911 1912 1913
          1914 1915 1916 1917 1918 1919
          1920 1921 1922 1923 1924 1925
          1926 1927 1928 1929 1930 1931
          1932 1933 1934 1935 1936 1937
          1938 1987 1988 1989 1990 1991
          1992 1993 1994 1995 1996 2070
          2071 2072 2073 2074 2075 2087
          2088 2089 2090 2179 2180 2181
          2182 2196 2197 2198 2199 2200
          2201 2202 2466 2467 2468 2469
          2470 2471 2476 2477 2478 2479
          2480 2481 2484 2486 2487 2488
          2489 2493 2494 2495 2496 2498
          2602 2603 2604 2605 2616 2617
          2618 2619 2620 2621 2622 534
          270 536 539 1031 1048 1032
          1049 1052 1053 1055 272 1057
          1336 1337 269 1370 1373 1374
          1371 1024 1025 1377 1376 1372
          1404 1402 1125 1126 1405 1403
          1409 1186 1410 1752 1753 1754
          1757 1026 1760 1027 1778 1779
          1782 1784 1798 1799 1801 1034
          1804 1035 1817 1819 1821 1037
          1846 1847 1850 1852 2062 2063
          2065 1106 2076 2077 2068 1108
          2078 2079 1107 1109 2081 2083
          2091 2085 2092 2093 1110 1111
          2173 2175 2183 2177 2184 2185
          1123 1124 2188 2189 2192 2203
          2194 2204 2205 2472 2473 1164
          2474 2475 1165 2482 2483 2485
          2490 2491 2492 1168 2497 2499
          2606 2607 2608 1184 2623 2624
          2625
        </DataArray>
        <DataArray type="Float64" Name="bounds" format="ascii" RangeMin="0" RangeMax="0">
          0 0 0 0 0 0
          0 0 0 0 0 0
          0 0 0 0 0 0
          0 0 0 0 0 0
          0 0 0 0 0 0
          0 0 0 0 0 0
          0 0 0 0 0 0
          0 0 0 0 0 0
          0 0 0 0 0 0
          0 0 0 0 0 0
          0 0 0 0 0 0
          0 0 0 0 0 0
          0 0 0 0 0 0
          0 0 0 0 0 0
          0 0 0 0 0 0
          0 0 0 0 0 0
          0 0 0 0 0 0
          0 0 0 0 0 0
          0 0 0 0 0 0
          0 0 0 0 0 0
          0 0 0 0 0 0
          0 0 0 0 0 0
          0 0 0 0 0 0
          0 0 0 0 0 0
          0 0 0 0 0 0
          0 0 0 0 0 0
          0 0 0 0 0 0
          0 0 0 0 0 0
          0 0 0 0 0 0
          0 0 0 0 0 0
          0 0 0 0 0 0
          0 0 0 0 0 0
          0 0 0 0 0 0
          0 0 0 0 0 0
          0 0 0 0 0 0
          0 0 0 0 0 0
          0 0 0 0 0 0
          0 0 0 0 0 0
          0 0 0 0 0 0
          0 0 0 0 0 0
          0 0 0 0 0 0
          0 0 0 0 0 0
          0 0 0 0 0 0
          0 0 0 0 0 0
          0 0 0 0 0 0
          0 0 0 0 0 0
          0 0 0 0 0 0
          0 0 0 0 0 0
          0 0 0 0 0 0
          0 0 0 0 0 0
          0 0 0 0 0 0
          0 0 0 0 0 0
          0 0 0 0 0 0
          0 0 0 0 0 0
          0 0 0 0 0 0
          0 0 0 0 0 0
          0 0 0 0 0 0
          0 0 0 0 0 0
          0 0 0 0 0 0
          0 0 0 0 0 0
          0
        </DataArray>
        <DataArray type="Float64" Name="gradient_error" format="ascii" RangeMin="1.1695677327065427e-10" RangeMax="1.6786404480649778e-8">
          3.5859154181163474e-9 1.1014696614846309e-9 1.8076769060906813e-9 8.261814804886637e-10 1.2798389696554881e-9 5.494388698088407e-10
          1.153175381682788e-9 1.7462311806969776e-9 2.1034901826115375e-9 6.815825643404145e-10 4.2025517839989416e-10 1.0310985477671033e-9
          1.0982110250275604e-9 9.565078066050322e-10 1.2196320049529057e-9 2.983791496012138e-9 2.3009861305284653e-9 2.1836074036790964e-9
          2.73063976174374e-9 1.637008824809486e-9 5.253705603690396e-10 6.143317800842112e-10 5.130584217991648e-10 5.5614345336239e-10
          5.500315407820678e-10 3.186517841487583e-10 4.0663452916388427e-10 8.966283138426881e-10 6.955110625368717e-10 5.076520635305866e-10
          1.7010864134994913e-9 1.4094926668359597e-9 5.670988961606696e-10 8.49153574814002e-10 1.1083433225068883e-9 1.0477216448732213e-9
          9.185107936003365e-10 1.31756271021349e-9 7.766503556038119e-10 1.2005295857797183e-9 2.063733488192099e-9 1.6310113868598505e-9
          8.695763687116373e-10 7.251844550287357e-10 7.318911169459484e-10 3.9746796914070123e-10 4.1629939627694073e-10 6.230068888677324e-10
          6.016398647167798e-10 3.0906611608915927e-10 3.929815584227389e-10 4.1109016394818876e-10 4.3513082341318017e-10 5.80272840565827e-10
          4.291987694736386e-10 6.09664678551581e-10 5.924040170170326e-10 8.538370714299033e-10 8.28265257975876e-10 4.180927703382415e-10
          6.055010234623543e-10 5.869155383520316e-10 5.46924256796365e-10 7.584699124916662e-10 5.379619475956374e-10 1.5352987409495035e-9
          1.4834286190451988e-9 1.0608346261650522e-9 1.3393372894279469e-9 5.082901364392978e-10 6.603962161670208e-10 3.673689407562306e-10
          4.739719557633913e-10 4.978751147683499e-10 6.065460518725579e-10 4.403500695772169e-10 1.1261975374553274e-9 8.044131215856098e-10
          1.0000015888478593e-9 2.7526824051701596e-9 2.645607509669221e-9 1.9930203533910314e-9 1.9141140262660952e-9 2.353584971459363e-9
          1.6991120495364358e-9 4.8775684596365355e-9 4.661871649981571e-9 3.422232006247759e-9 4.081407699979702e-9 1.9534417976335703e-9
          1.40392730298033e-9 1.5251225287591039e-9 1.088973429219926e-9 3.3027738943279305e-9 2.4002642162774274e-9 2.50472355542125e-9
          8.691588229927976e-10 1.1241342850916128e-9 6.151211617869735e-10 7.994204153669218e-10 7.48870865833328e-10 9.362697791817136e-10
          6.657321783229396e-10 1.7958397280971514e-9 1.2858835737399258e-9 1.3736651044312758e-9 2.9620038903069394e-10 2.9092317034963913e-10
          4.1811961863214525e-10 4.058595100728986e-10 2.0294803161694345e-10 2.832754489786655e-10 2.7346554357913583e-10 2.7169806355869074e-10
          3.703466020293562e-10 2.683036113255519e-10 7.619056647699694e-10 7.362308710596997e-10 4.92106727920846e-10 6.644445920063413e-10
          1.365279318585975e-10 1.397136661449972e-10 1.858691292282753e-10 1.8081354449649805e-10 1.1695677327065427e-10 1.4597702120279393e-10
          1.4590415829949978e-10 1.428994004313969e-10 1.7575795976472079e-10 1.458312953962057e-10 3.3569423973030575e-10 3.201037287188895e-10
          2.3280954255217796e-10 3.173156467431492e-10 2.4454499992482165e-10 3.188507673312588e-10 2.0044094194045822e-10 2.571091498869804e-10
          2.3133982440084606e-10 2.9060773211745727e-10 2.366187421565175e-10 5.57871088517324e-10 4.293824174495261e-10 4.942526835628869e-10
          1.3905927176873002e-9 1.3365202421751935e-9 9.355294020358778e-10 8.990339060202325e-10 1.1882093552733903e-9 7.991814128467739e-10
          2.524068641693285e-9 2.4066701777744535e-9 1.62139413551627e-9 2.0934015559790003e-9 6.092364898357531e-10 5.837954362943686e-10
          3.806964768946989e-10 3.645954984989266e-10 5.159993899424684e-10 3.224469990286599e-10 1.0985911610689978e-9 1.0474594300306286e-9
          6.50351725628148e-10 9.113125222033911e-10 9.810726469274656e-10 6.602522625574054e-10 7.588507250096228e-10 5.117170922561875e-10
          1.6789747499288508e-9 1.1303833592678118e-9 1.260813212101976e-9 3.105912969522864e-10 4.25329136427051e-10 1.9489713668903863e-10
          2.6431869433021625e-10 2.4518244571542387e-10 3.293401594971913e-10 2.2706626173513498e-10 7.335243229828894e-10 4.5611088617027993e-10
          5.536338167696027e-10 4.3205770934556157e-10 5.589390401995001e-10 2.950256030068554e-10 3.795430530882237e-10 3.7617550874525406e-10
          4.683509803509922e-10 3.203320310899233e-10 8.965000317781754e-10 6.066313369320245e-10 6.829896342200315e-10 8.36592392920694e-9
          7.962737813775258e-9 6.2706576663337115e-9 5.954540127175911e-9 6.872810140380276e-9 5.107403880836331e-9 5.425001282382421e-9
          3.9968933522220454e-9 3.98934768558277e-9 2.9114157784340554e-9 2.7881850533404367e-9 2.014745119443924e-9 1.866477829125582e-9
          1.3399559616477665e-9 1.0035950761064591e-9 1.2178133406353464e-9 7.311425699382563e-10 8.789160231830875e-10 8.284739876688182e-10
          9.64279740882727e-10 7.019803358799165e-10 4.472649861458471e-9 4.23990287124061e-9 3.033171770385871e-9 2.8726659582582686e-9
          3.6211672088968645e-9 2.4487328529712635e-9 1.95833983793933e-9 1.8545350892326737e-9 1.207073637817472e-9 1.1439128668987227e-9
          1.5813448585720284e-9 9.778034961812512e-10 1.944252430330321e-9 2.819035155145957e-9 1.903540067256802e-9 2.043110862582865e-9
          1.379021001356941e-9 1.2327940191116992e-9 7.6606151596976e-10 8.974766673196399e-10 5.603498959303459e-10 1.2361213760126441e-9
          1.4079555939887178e-9 9.51468018507324e-10 9.317411904728399e-10 6.293890057799214e-10 4.880995486257445e-10 5.989675421013495e-10
          3.254914271464547e-10 4.0176830654624205e-10 3.9081367680683817e-10 4.670339395896571e-10 3.1142721053514885e-10 3.763114681931719e-9
          6.97237062802931e-9 3.3778281786217474e-9 7.2898302937266605e-9 2.966586481114077e-9 4.386430343133616e-9 2.354772059011684e-9
          4.165646365189459e-9 3.4979022112507287e-9 5.161128255194568e-9 3.120163960836535e-9 5.2677528104791394e-9 4.747113104561799e-9
          2.0604121881579196e-9 1.9514019793322442e-9 1.8585600916149569e-9 2.4642687159592826e-9 1.2707112838013796e-9 1.2454086946909416e-9
          2.379057107478506e-9 2.1906386801620775e-9 2.0079316998424633e-9 1.2201061055805031e-9 2.29384549899773e-9 8.169733445443515e-10
          2.5858217178348215e-9 4.818490938323418e-9 5.072817929873525e-9 2.6546724950494806e-9 3.1960741638763226e-9 6.056895598473529e-9
          1.266363080496294e-9 1.270039968049885e-9 1.5588824651726632e-9 8.311740837602255e-10 1.179847739028842e-9 1.146795245743492e-9
          1.0499234697613778e-9 2.0859199991943995e-9 2.017318513557092e-9 1.8260771434646812e-9 6.856714885115218e-10 9.020801796123942e-10
          8.180561721601749e-10 1.5426764374445588e-9 3.6702820910997464e-9 3.532748739403856e-9 3.1561607363132084e-9 6.362130937528048e-9
          6.093773048770311e-9 5.367369208108984e-9 2.6390312748327715e-9 2.0817111662962842e-9 4.382586834285414e-9 3.3589194311463073e-9
          1.222834502311676e-9 1.5583867555215229e-9 1.3143076431975688e-9 2.442573527642789e-9 1.0649497547230191e-8 1.0165368288838953e-8
          8.843604935475038e-9 1.6786404480649778e-8 1.3509185232057204e-8 1.285407712176481e-8 1.6025281146111856e-8 1.0362341360911234e-8
          9.824402682637818e-9 1.1021723122542598e-8 1.3870934220128263e-8 8.347210141230223e-9 7.061469020646332e-9 5.2636727856491906e-9
          8.532418698908136e-9 1.088928103834958e-8 6.38602416250401e-9 6.096809413721794e-9 7.909699462393585e-9 4.505741196369095e-9
          3.7334408882932e-9 2.530241321813989e-9 4.130373006220055e-9 5.4502976011245915e-9 3.0155128503926508e-9 2.698247605855e-9
          3.617445339598853e-9 1.9482662988326773e-9 1.3449449139193652e-9 1.6480391038507546e-9 1.2920989701518502e-9 1.7068998045302158e-9
          2.322459104849484e-9 1.2229712813360481e-9 1.3047917465504448e-9 7.528706248151955e-9 7.1166700842059706e-9 5.1698319607190575e-9
          4.876396084085904e-9 6.003099439609371e-9 4.0937339269273425e-9 3.3555128660265816e-9 3.1613875371162823e-9 2.6490021740875608e-9
          4.553551521396966e-9 3.0910608209648286e-9 3.186845981506917e-9 2.156981384757263e-9 1.999720763402352e-9 1.397806784304413e-9
          2.117936264936052e-9 1.4315644247583054e-9 1.3605402270365305e-9 9.186715041088119e-10 8.487717694438774e-10 5.736983180311147e-10
          6.441817355081404e-10
        </DataArray>
        <DataArray type="Float64" Name="gradient_matprop_error" format="ascii" RangeMin="0" RangeMax="0">
          0 0 0 0 0 0
          0 0 0 0 0 0
          0 0 0 0 0 0
          0 0 0 0 0 0
          0 0 0 0 0 0
          0 0 0 0 0 0
          0 0 0 0 0 0
          0 0 0 0 0 0
          0 0 0 0 0 0
          0 0 0 0 0 0
          0 0 0 0 0 0
          0 0 0 0 0 0
          0 0 0 0 0 0
          0 0 0 0 0 0
          0 0 0 0 0 0
          0 0 0 0 0 0
          0 0 0 0 0 0
          0 0 0 0 0 0
          0 0 0 0 0 0
          0 0 0 0 0 0
          0 0 0 0 0 0
          0 0 0 0 0 0
          0 0 0 0 0 0
          0 0 0 0 0 0
          0 0 0 0 0 0
          0 0 0 0 0 0
          0 0 0 0 0 0
          0 0 0 0 0 0
          0 0 0 0 0 0
          0 0 0 0 0 0
          0 0 0 0 0 0
          0 0 0 0 0 0
          0 0 0 0 0 0
          0 0 0 0 0 0
          0 0 0 0 0 0
          0 0 0 0 0 0
          0 0 0 0 0 0
          0 0 0 0 0 0
          0 0 0 0 0 0
          0 0 0 0 0 0
          0 0 0 0 0 0
          0 0 0 0 0 0
          0 0 0 0 0 0
          0 0 0 0 0 0
          0 0 0 0 0 0
          0 0 0 0 0 0
          0 0 0 0 0 0
          0 0 0 0 0 0
          0 0 0 0 0 0
          0 0 0 0 0 0
          0 0 0 0 0 0
          0 0 0 0 0 0
          0 0 0 0 0 0
          0 0 0 0 0 0
          0 0 0 0 0 0
          0 0 0 0 0 0
          0 0 0 0 0 0
          0 0 0 0 0 0
          0 0 0 0 0 0
          0 0 0 0 0 0
          0
        </DataArray>
        <DataArray type="Float64" Name="initial_marker" format="ascii" RangeMin="0" RangeMax="2">
          2 0 2 0 0 0
          0 0 0 2 1.75 0
          2 2 1 2 0 0
          0 1.5 0 0 2 1.25
          0 1 1 0 0.5 0
          2 2 2 2 0 0
          0 0 0.75 0 2 2
          2 0 0 0 0 0
          0 0 0 0 0 0
          0 0 0 1 1 0
          1 1 0 1 1 2
          2 2 2 0 0.75 0
          0.5 0 0.5 0 1.75 1.5
          1.6666666666666667 2 2 2 2 2
          2 2 2 2 2 2
          2 2 2 2 2 2
          1 1.5 1 1.5 0 1
          1 2 2 2 0 0
          1 1 0 1 0.75 0
          0.75 0.3333333333333333 2 2 1.75 1.75
          0 0 0.5 0.25 0 0
          0 0 0 0 1.5 1.25
          1.3333333333333333 1.3333333333333333 0 0.25 0 0
          0 0 0 1.25 1.3333333333333333 1
          2 2 2 2 2 2
          2 2 2 2 2 2
          2 2 2 2 2 2
          2 2 2 2 1.75 1.5
          2 2 2 1.5 1.75 1
          1.5 0.5 1.25 1 2 2
          2 0.5 1.25 0 0.75 0
          1 0.5 2 1.75 1.6666666666666667 2
          2 2 2 2 2 2
          2 2 2 2 2 2
          2 1 1 1 1 0
          0 0 2 2 2 2
          2 2 2 2 2 2
          2 2 2 2 2 2
          2 2 2 2 2 2
          2 2 1.75 1.5 0.5 0.75
          0 0.5 0 0 0 0
          0 0 0 0 0 1.5
          0 0 0 1.5 0 0
          0 0 0 0 0 0
          0 0 0 0 0 0
          0 0 0.75 0.5 0 0
          0 0.25 0 0 1 1
          1 2 2 2 0 1
          1 2 2 2 2 2
          2 2 2 2 2 2
          1 1.5 1 2 2 2
          2 2 2 2 2 2
          2 2 2 2 2 2
          2 2 2 2 2 2
          2 2 2 2 2 2
          2 2 1 1.25 0.5 1.5
          1.75 1.5 1 2 2 2
          2 2 2 2 2 2
          2 2 2 2 2 2
          2 2 2 2 1.5 1.25
          1
        </DataArray>
        <DataArray type="Float64" Name="markers_norefine" format="ascii" RangeMin="0" RangeMax="0">
          0 0 0 0 0 0
          0 0 0 0 0 0
          0 0 0 0 0 0
          0 0 0 0 0 0
          0 0 0 0 0 0
          0 0 0 0 0 0
          0 0 0 0 0 0
          0 0 0 0 0 0
          0 0 0 0 0 0
          0 0 0 0 0 0
          0 0 0 0 0 0
          0 0 0 0 0 0
          0 0 0 0 0 0
          0 0 0 0 0 0
          0 0 0 0 0 0
          0 0 0 0 0 0
          0 0 0 0 0 0
          0 0 0 0 0 0
          0 0 0 0 0 0
          0 0 0 0 0 0
          0 0 0 0 0 0
          0 0 0 0 0 0
          0 0 0 0 0 0
          0 0 0 0 0 0
          0 0 0 0 0 0
          0 0 0 0 0 0
          0 0 0 0 0 0
          0 0 0 0 0 0
          0 0 0 0 0 0
          0 0 0 0 0 0
          0 0 0 0 0 0
          0 0 0 0 0 0
          0 0 0 0 0 0
          0 0 0 0 0 0
          0 0 0 0 0 0
          0 0 0 0 0 0
          0 0 0 0 0 0
          0 0 0 0 0 0
          0 0 0 0 0 0
          0 0 0 0 0 0
          0 0 0 0 0 0
          0 0 0 0 0 0
          0 0 0 0 0 0
          0 0 0 0 0 0
          0 0 0 0 0 0
          0 0 0 0 0 0
          0 0 0 0 0 0
          0 0 0 0 0 0
          0 0 0 0 0 0
          0 0 0 0 0 0
          0 0 0 0 0 0
          0 0 0 0 0 0
          0 0 0 0 0 0
          0 0 0 0 0 0
          0 0 0 0 0 0
          0 0 0 0 0 0
          0 0 0 0 0 0
          0 0 0 0 0 0
          0 0 0 0 0 0
          0 0 0 0 0 0
          0
        </DataArray>
        <DataArray type="Float64" Name="markers_mustrefine" format="ascii" RangeMin="0" RangeMax="2">
          2 0 2 0 0 0
          0 0 0 2 1.75 0
          2 2 1 2 0 0
          0 1.5 0 0 2 1.25
          0 1 1 0 0.5 0
          2 2 2 2 0 0
          0 0 0.75 0 2 2
          2 0 0 0 0 0
          0 0 0 0 0 0
          0 0 0 1 1 0
          1 1 0 1 1 2
          2 2 2 0 0.75 0
          0.5 0 0.5 0 1.75 1.5
          1.6666666666666667 2 2 2 2 2
          2 2 2 2 2 2
          2 2 2 2 2 2
          1 1.5 1 1.5 0 1
          1 2 2 2 0 0
          1 1 0 1 0.75 0
          0.75 0.3333333333333333 2 2 1.75 1.75
          0 0 0.5 0.25 0 0
          0 0 0 0 1.5 1.25
          1.3333333333333333 1.3333333333333333 0 0.25 0 0
          0 0 0 1.25 1.3333333333333333 1
          2 2 2 2 2 2
          2 2 2 2 2 2
          2 2 2 2 2 2
          2 2 2 2 1.75 1.5
          2 2 2 1.5 1.75 1
          1.5 0.5 1.25 1 2 2
          2 0.5 1.25 0 0.75 0
          1 0.5 2 1.75 1.6666666666666667 2
          2 2 2 2 2 2
          2 2 2 2 2 2
          2 1 1 1 1 0
          0 0 2 2 2 2
          2 2 2 2 2 2
          2 2 2 2 2 2
          2 2 2 2 2 2
          2 2 1.75 1.5 0.5 0.75
          0 0.5 0 0 0 0
          0 0 0 0 0 1.5
          0 0 0 1.5 0 0
          0 0 0 0 0 0
          0 0 0 0 0 0
          0 0 0.75 0.5 0 0
          0 0.25 0 0 1 1
          1 2 2 2 0 1
          1 2 2 2 2 2
          2 2 2 2 2 2
          1 1.5 1 2 2 2
          2 2 2 2 2 2
          2 2 2 2 2 2
          2 2 2 2 2 2
          2 2 2 2 2 2
          2 2 1 1.25 0.5 1.5
          1.75 1.5 1 2 2 2
          2 2 2 2 2 2
          2 2 2 2 2 2
          2 2 2 2 1.5 1.25
          1
        </DataArray>
        <DataArray type="Float64" Name="gradient_marker" format="ascii" RangeMin="1" RangeMax="1">
          1 1 1 1 1 1
          1 1 1 1 1 1
          1 1 1 1 1 1
          1 1 1 1 1 1
          1 1 1 1 1 1
          1 1 1 1 1 1
          1 1 1 1 1 1
          1 1 1 1 1 1
          1 1 1 1 1 1
          1 1 1 1 1 1
          1 1 1 1 1 1
          1 1 1 1 1 1
          1 1 1 1 1 1
          1 1 1 1 1 1
          1 1 1 1 1 1
          1 1 1 1 1 1
          1 1 1 1 1 1
          1 1 1 1 1 1
          1 1 1 1 1 1
          1 1 1 1 1 1
          1 1 1 1 1 1
          1 1 1 1 1 1
          1 1 1 1 1 1
          1 1 1 1 1 1
          1 1 1 1 1 1
          1 1 1 1 1 1
          1 1 1 1 1 1
          1 1 1 1 1 1
          1 1 1 1 1 1
          1 1 1 1 1 1
          1 1 1 1 1 1
          1 1 1 1 1 1
          1 1 1 1 1 1
          1 1 1 1 1 1
          1 1 1 1 1 1
          1 1 1 1 1 1
          1 1 1 1 1 1
          1 1 1 1 1 1
          1 1 1 1 1 1
          1 1 1 1 1 1
          1 1 1 1 1 1
          1 1 1 1 1 1
          1 1 1 1 1 1
          1 1 1 1 1 1
          1 1 1 1 1 1
          1 1 1 1 1 1
          1 1 1 1 1 1
          1 1 1 1 1 1
          1 1 1 1 1 1
          1 1 1 1 1 1
          1 1 1 1 1 1
          1 1 1 1 1 1
          1 1 1 1 1 1
          1 1 1 1 1 1
          1 1 1 1 1 1
          1 1 1 1 1 1
          1 1 1 1 1 1
          1 1 1 1 1 1
          1 1 1 1 1 1
          1 1 1 1 1 1
          1
        </DataArray>
        <DataArray type="Float64" Name="gradient_matprop_marker" format="ascii" RangeMin="0" RangeMax="0">
          0 0 0 0 0 0
          0 0 0 0 0 0
          0 0 0 0 0 0
          0 0 0 0 0 0
          0 0 0 0 0 0
          0 0 0 0 0 0
          0 0 0 0 0 0
          0 0 0 0 0 0
          0 0 0 0 0 0
          0 0 0 0 0 0
          0 0 0 0 0 0
          0 0 0 0 0 0
          0 0 0 0 0 0
          0 0 0 0 0 0
          0 0 0 0 0 0
          0 0 0 0 0 0
          0 0 0 0 0 0
          0 0 0 0 0 0
          0 0 0 0 0 0
          0 0 0 0 0 0
          0 0 0 0 0 0
          0 0 0 0 0 0
          0 0 0 0 0 0
          0 0 0 0 0 0
          0 0 0 0 0 0
          0 0 0 0 0 0
          0 0 0 0 0 0
          0 0 0 0 0 0
          0 0 0 0 0 0
          0 0 0 0 0 0
          0 0 0 0 0 0
          0 0 0 0 0 0
          0 0 0 0 0 0
          0 0 0 0 0 0
          0 0 0 0 0 0
          0 0 0 0 0 0
          0 0 0 0 0 0
          0 0 0 0 0 0
          0 0 0 0 0 0
          0 0 0 0 0 0
          0 0 0 0 0 0
          0 0 0 0 0 0
          0 0 0 0 0 0
          0 0 0 0 0 0
          0 0 0 0 0 0
          0 0 0 0 0 0
          0 0 0 0 0 0
          0 0 0 0 0 0
          0 0 0 0 0 0
          0 0 0 0 0 0
          0 0 0 0 0 0
          0 0 0 0 0 0
          0 0 0 0 0 0
          0 0 0 0 0 0
          0 0 0 0 0 0
          0 0 0 0 0 0
          0 0 0 0 0 0
          0 0 0 0 0 0
          0 0 0 0 0 0
          0 0 0 0 0 0
          0
        </DataArray>
        <DataArray type="Float64" Name="combo" format="ascii" RangeMin="1" RangeMax="1">
          1 1 1 1 1 1
          1 1 1 1 1 1
          1 1 1 1 1 1
          1 1 1 1 1 1
          1 1 1 1 1 1
          1 1 1 1 1 1
          1 1 1 1 1 1
          1 1 1 1 1 1
          1 1 1 1 1 1
          1 1 1 1 1 1
          1 1 1 1 1 1
          1 1 1 1 1 1
          1 1 1 1 1 1
          1 1 1 1 1 1
          1 1 1 1 1 1
          1 1 1 1 1 1
          1 1 1 1 1 1
          1 1 1 1 1 1
          1 1 1 1 1 1
          1 1 1 1 1 1
          1 1 1 1 1 1
          1 1 1 1 1 1
          1 1 1 1 1 1
          1 1 1 1 1 1
          1 1 1 1 1 1
          1 1 1 1 1 1
          1 1 1 1 1 1
          1 1 1 1 1 1
          1 1 1 1 1 1
          1 1 1 1 1 1
          1 1 1 1 1 1
          1 1 1 1 1 1
          1 1 1 1 1 1
          1 1 1 1 1 1
          1 1 1 1 1 1
          1 1 1 1 1 1
          1 1 1 1 1 1
          1 1 1 1 1 1
          1 1 1 1 1 1
          1 1 1 1 1 1
          1 1 1 1 1 1
          1 1 1 1 1 1
          1 1 1 1 1 1
          1 1 1 1 1 1
          1 1 1 1 1 1
          1 1 1 1 1 1
          1 1 1 1 1 1
          1 1 1 1 1 1
          1 1 1 1 1 1
          1 1 1 1 1 1
          1 1 1 1 1 1
          1 1 1 1 1 1
          1 1 1 1 1 1
          1 1 1 1 1 1
          1 1 1 1 1 1
          1 1 1 1 1 1
          1 1 1 1 1 1
          1 1 1 1 1 1
          1 1 1 1 1 1
          1 1 1 1 1 1
          1
        </DataArray>
        <DataArray type="Float64" Name="dHdT" format="ascii" RangeMin="25.821166164436292" RangeMax="31.218947656537694">
          26.67649074488393 25.915338370787577 26.267646607842103 25.824817669978334 25.827092495304584 25.83579426442246
          25.83881169680921 25.829489260196514 25.836678134648594 25.967470187676316 25.895701835921045 25.910831494139636
          26.094476369776864 26.06276489001983 25.994554240609162 26.53469528181784 25.92131228126918 25.948681788186423
          25.94046492819713 26.06041995822705 25.86208432773981 25.86065146820524 25.940847444756812 25.92402106117844
          25.842327428742937 25.86424636175375 25.860536032497713 25.86411019313339 25.896057075421826 25.851767328859985
          26.20651531539127 26.141852586604095 25.94356063373899 26.02010582741141 25.868710525063463 25.8801591440462
          25.864405630332534 25.877949664357857 25.928221739033837 25.89566293243493 26.268518990903296 26.17122139662864
          26.00969855302653 25.821166164436292 25.821455211264286 25.836245770529455 25.837134622514938 25.843986115866066
          25.84436978028922 25.830424308542952 25.833904860549495 25.834563632116858 25.838023474500417 25.844753444712385
          25.835222403684217 25.993967855462294 25.990680853861736 26.0516399420175 26.046154109331358 25.937673912709418
          25.979691650946656 25.975945173334807 25.982184662905105 26.031638486413048 25.965761863916523 26.21432508386681
          26.202365178725216 26.085907227796078 26.169995212452616 25.972788473994804 26.013519905010543 25.92386778364511
          25.952635540851002 25.968601474440575 26.004431113840205 25.94594604959193 26.12577848967157 26.03170891598548
          26.100945854092245 26.50668246771579 26.481202602159804 26.30361269769999 26.285263460820964 26.412631601739456
          26.235986767542947 27.02530855995279 26.970777521977777 26.637425632402547 26.827930484229135 26.31957560228566
          26.16961168761668 26.22235835518133 26.100945615259917 26.642135958057615 26.40104945000818 26.45609224773436
          26.07298359461571 26.136838175424728 25.997373477618915 26.0417191079002 26.047073282997715 26.09857037818301
          26.015711049369987 26.296147947471635 26.15403427169289 26.205793059714335 25.90047603371582 25.898944632412732
          25.927361175913745 25.924729977798826 25.871501892359575 25.890033877132446 25.88847582551388 25.89500991303994
          25.917813429564607 25.889445571353576 26.00513591544771 25.99909359634233 25.937012621857573 25.9830072981909
          25.852820080152622 25.852551591048172 25.86397982288324 25.863463980739272 25.84494824159914 25.85342343972407
          25.853314040302234 25.852283101943726 25.862948138595304 25.853204640880396 25.896088096118294 25.89414517114524
          25.872181967165375 25.894759538073277 25.890371058907178 25.90934413847592 25.87732394823443 25.89172630103469
          25.88813552284413 25.905160197506525 25.888951435799264 25.962095393241427 25.925148287543525 25.95129215838792
          26.148949245912988 26.136139843444912 26.03539819910889 26.026974352657472 26.102014604912085 26.004493770661206
          26.406928369879495 26.379937093131733 26.188668975447634 26.309044787336543 25.955754754257967 25.950669999842354
          25.902542297639137 25.899654781448405 25.936971489178458 25.891775350012672 26.063962920690344 26.052790395460864
          25.960895658430523 26.0234246669873 26.056485460292464 25.974654748090902 26.009903643150533 25.944403675265534
          26.216789747531532 26.080887887800287 26.12472841514926 25.893528823922072 25.91841884725131 25.866167057127292
          25.880944780476803 25.88138074031285 25.89935200801298 25.874833657974705 25.98497157097201 25.92067766075475
          25.946570065334733 25.940316267199556 25.97021393426964 25.898938145517697 25.918554189375413 25.92921099391139
          25.952892733975794 25.907173489285196 26.046676414143576 25.968692547964196 26.00315462401865 27.948892863205618
          27.82987256726736 27.332223121808457 27.248999170842573 27.5287399299179 27.036272636698424 27.15982342052272
          26.772699353072763 26.813275525953827 26.523867276537345 26.530146310098903 26.321087601433767 26.31938676727897
          26.170593259850843 26.12324317763881 26.173984058609857 26.029701804554918 26.066482951332503 26.078644838403115
          26.115955403490663 26.02484868538154 26.85785493831188 26.801138464228693 26.505120331024262 26.467726952332804
          26.655505762320097 26.37177466047131 26.25268509231624 26.22931760940624 26.08067657022188 26.066867341368965
          26.169137961329746 26.031166086792908 26.2409527772663 26.47404979495827 26.25197177010752 26.30215807186952
          26.13799252366813 26.093529895843087 25.98601006141302 26.021367958775812 25.94275086899875 26.086776824200292
          26.161960146371342 26.04488611282534 26.058444945355216 25.97692252910155 25.96356011889755 25.988211020711606
          25.91697759037897 25.932401711546422 25.942319835264318 25.960646355138287 25.915473336117905 25.8521884421323
          25.849474506454364 25.904385460962317 25.885606859604174 26.011232270039603 26.01499537379485 26.17227967094506
          26.07079313207651 25.986051899360668 26.05071478347868 26.296469236123848 25.959853569412715 26.13410962004202
          25.831680415879728 25.831449020575025 25.846934974760664 25.925349184468104 25.87297494612498 25.87309070052536
          25.924339810302826 26.01573618206757 26.00562852362901 25.873206454925743 25.923330436137547 25.856182232044045
          25.937632051673436 26.040799405071745 26.257157567796995 26.042332294963366 25.958645673393136 26.083520172301068
          25.878185649770096 25.922836348069502 25.88767351735335 26.063241054667557 26.148307586455825 26.140558161603266
          26.12015312579961 26.370965048941546 26.35467229247323 26.310489801592375 26.037751256197097 26.094870011681092
          26.082242508513666 26.249717825690567 26.765841137337773 26.731518806033776 26.63927493145953 27.462958712537997
          27.389922091309 27.19835130626459 26.513449811268025 26.380680526764337 26.948777191987727 26.697957210019865
          26.17465639013412 26.26244255583186 26.20907029248183 26.4804540828977 28.72947989027459 28.564668478213036
          28.15032130743227 31.218947656537694 29.65450623458039 29.378289924450765 30.81384536057493 28.485532880943786