<?xml version="1.0"?>
<VTKFile type="UnstructuredGrid" version="0.1" byte_order="LittleEndian" header_type="UInt32" compressor="vtkZLibDataCompressor">
  <UnstructuredGrid>
    <Piece NumberOfPoints="366" NumberOfCells="202">
      <PointData>
        <DataArray type="Int32" Name="libmesh_node_id" format="ascii" RangeMin="219" RangeMax="3033">
          220 278 280 282 563 572
          577 581 584 586 588 589
          592 593 595 597 1124 1125
          1126 1127 1128 1129 1157 1158
          1159 1160 1161 1162 1163 1184
          1186 1187 1188 1189 1190 1221
          1222 1223 1224 1225 1226 1227
          1245 1246 1247 1248 1249 1250
          1251 1252 1253 1254 1255 1256
          1257 1258 1259 1260 1261 1262
          1263 1264 1402 1403 1404 1405
          1406 1407 1408 1409 1410 1411
          1412 1413 1414 1415 2183 2184
          2185 2190 2191 2192 2193 2194
          2195 2203 2204 2205 2211 2213
          2214 2215 2216 2217 2218 2219
          2220 2221 2222 2223 2225 2226
          2227 2228 2229 2230 2231 2232
          2233 2411 2413 2415 2417 2418
          2419 2420 2421 2422 2423 2425
          2426 2427 2429 2430 2431 2432
          2433 2434 2435 2436 2437 2439
          2441 2443 2445 2446 2447 2448
          2449 2450 2451 2453 2454 2455
          2457 2458 2459 2460 2461 2462
          2463 2464 2465 2606 2607 2608
          2623 2624 2625 2633 2634 2635
          2636 2637 2638 2639 2640 2641
          2642 2645 2646 2649 2650 2651
          2652 2653 2654 2655 2656 2657
          2658 2659 2660 2661 2662 2663
          2844 2845 2846 2847 2848 2849
          2850 2853 2854 2857 2858 2859
          2860 2861 2862 2863 2864 2865
          2866 2867 2868 2869 2870 2871
          2872 2873 2874 2875 2876 2877
          2878 2881 2882 2885 2886 2887
          2888 2889 2890 2891 2892 2893
          2894 2895 2896 2897 2898 2899
          2983 2984 2985 2986 2987 2988
          2989 2990 2991 2992 2993 2994
          2995 2996 2997 2998 2999 3000
          3001 3002 3003 3004 3005 3006
          3007 3008 3009 3010 3011 3012
          3013 3014 3015 3016 3017 3018
          3019 3020 3021 3022 3023 3024
          3025 3026 3027 3028 3029 3030
          3031 3032 3033 264 277 412
          402 219 418 409 414 419
          578 580 582 579 583 585
          587 1237 1238 1241 1243 543
          1057 1397 1119 1398 1401 562
          2144 2186 2145 2187 2148 2188
          2189 2134 2174 1117 2178 2150
          2175 1123 2206 2207 2209 2208
          2210 2212 2177 2158 2166 2168
          1121 2224 2170 2410 2412 2414
          2416 2424 2384 2386 2428 2388
          1153 2438 2440 2442 2444 2452
          2404 2406 2456 2408 567 2965
          2966 2969 2971 2977 2979 2981
        </DataArray>
        <DataArray type="Float64" Name="bounds" format="ascii" RangeMin="0" RangeMax="0">
          0 0 0 0 0 0
          0 0 0 0 0 0
          0 0 0 0 0 0
          0 0 0 0 0 0
          0 0 0 0 0 0
          0 0 0 0 0 0
          0 0 0 0 0 0
          0 0 0 0 0 0
          0 0 0 0 0 0
          0 0 0 0 0 0
          0 0 0 0 0 0
          0 0 0 0 0 0
          0 0 0 0 0 0
          0 0 0 0 0 0
          0 0 0 0 0 0
          0 0 0 0 0 0
          0 0 0 0 0 0
          0 0 0 0 0 0
          0 0 0 0 0 0
          0 0 0 0 0 0
          0 0 0 0 0 0
          0 0 0 0 0 0
          0 0 0 0 0 0
          0 0 0 0 0 0
          0 0 0 0 0 0
          0 0 0 0 0 0
          0 0 0 0 0 0
          0 0 0 0 0 0
          0 0 0 0 0 0
          0 0 0 0 0 0
          0 0 0 0 0 0
          0 0 0 0 0 0
          0 0 0 0 0 0
          0 0 0 0 0 0
          0 0 0 0 0 0
          0 0 0 0 0 0
          0 0 0 0 0 0
          0 0 0 0 0 0
          0 0 0 0 0 0
          0 0 0 0 0 0
          0 0 0 0 0 0
          0 0 0 0 0 0
          0 0 0 0 0 0
          0 0 0 0 0 0
          0 0 0 0 0 0
          0 0 0 0 0 0
          0 0 0 0 0 0
          0 0 0 0 0 0
          0 0 0 0 0 0
          0 0 0 0 0 0
          0 0 0 0 0 0
          0 0 0 0 0 0
          0 0 0 0 0 0
          0 0 0 0 0 0
          0 0 0 0 0 0
          0 0 0 0 0 0
          0 0 0 0 0 0
          0 0 0 0 0 0
          0 0 0 0 0 0
          0 0 0 0 0 0
          0 0 0 0 0 0
        </DataArray>
        <DataArray type="Float64" Name="gradient_error" format="ascii" RangeMin="2.43822073137936e-10" RangeMax="6.202030074699622e-8">
          3.4190067448969726e-9 2.785626983071476e-9 1.945838137896318e-9 1.7212442043192385e-8 2.3875529694916474e-9 8.255441904187971e-10
          1.1546547546336762e-9 6.228101224857411e-9 9.91668063266336e-9 7.382541324071424e-9 2.129762218004646e-9 1.8079993506771798e-9
          2.1819764638771406e-9 3.0115213915693024e-9 2.0468872691226536e-9 3.3918151122818583e-9 1.9482662988326773e-9 5.072817929873525e-9
          2.6546724950494806e-9 6.369979337537457e-9 3.5510192025578014e-9 4.572525011079235e-9 9.032833110623694e-9 5.166245576005496e-9
          3.2803279954316396e-9 1.7470368366684041e-9 1.0162019708278862e-8 5.86484412530055e-9 3.6366068786284114e-9 9.186715041088119e-10
          1.270039968049885e-9 6.592597171538662e-10 1.6917659224528282e-9 6.91584756803032e-10 1.3559755106891636e-9 2.48968777977137e-9
          1.0130980732891229e-9 1.2831656695551881e-9 1.0581132123695989e-9 2.840542488180279e-9 1.1552463650832722e-9 1.4145569986901277e-9
          5.344962159574362e-9 3.6468971643236136e-9 2.780397725090716e-9 1.8789363221502137e-9 4.843404441241057e-9 5.86188351113703e-9
          3.033857006990186e-9 3.909454969693745e-9 2.0091379319331745e-9 6.257516969704008e-9 1.5808042452347302e-9 1.4086181339696844e-9
          9.751909019742006e-10 1.1862944084927934e-9 1.2387919637126605e-9 1.4335210069629243e-9 6.742152669252341e-10 1.5086293220972857e-9
          1.272362242592739e-9 1.5128698592904926e-9 4.818490938323418e-9 6.056895598473529e-9 2.5858217178348215e-9 3.1960741638763226e-9
          3.299902356447631e-9 3.760230593179847e-9 2.015848657619515e-9 1.266363080496294e-9 1.5588824651726632e-9 6.20727577597829e-10
          7.354414035766913e-10 9.056256224499761e-10 1.0145186976199703e-9 5.203466575237715e-10 4.130373006220055e-9 3.0155128503926508e-9
          2.698247605855e-9 1.4928695799978802e-9 1.7669617653114618e-9 1.2920989701518502e-9 3.085156263146816e-9 2.322459104849484e-9
          2.404387805630921e-9 1.7068998045302158e-9 1.2229712813360481e-9 1.3047917465504448e-9 1.0007736247711802e-8 5.828570278945902e-9
          4.297975527572514e-9 3.7114303701969117e-9 2.6994346404010304e-9 7.778924686326642e-9 5.79148215601213e-9 4.84752469454973e-9
          4.081293730749486e-9 3.1095950712718963e-9 3.163036097317288e-9 2.385157052122095e-9 3.959154410219777e-9 3.492222497263488e-9
          2.30016169269287e-9 1.6532190967468047e-9 1.7420501985298344e-9 1.2435796545806777e-9 2.9541224622382473e-9 2.1356917157697234e-9
          1.940623909729373e-9 1.244764553903255e-8 7.803146351317426e-9 1.456829693779732e-8 9.77160058970252e-9 7.3362091794310796e-9
          5.986618456270232e-9 4.414081605055119e-9 1.1515847660398025e-8 8.702882806009685e-9 6.971716871063905e-9 4.785753856330997e-9
          3.778994626319024e-9 2.8613825006608138e-9 5.4863492369706166e-9 4.316614347086989e-9 3.5956713502609543e-9 2.6125470810544277e-9
          2.1111334082502984e-9 1.5160816868504315e-9 4.142355675197908e-9 3.021201556668141e-9 2.429514846026519e-9 1.60250512288729e-8
          9.866586253970078e-9 1.654633387855865e-8 1.2712108500987938e-8 9.648008222909191e-9 7.643396268052283e-9 5.681359857555143e-9
          1.313806843106027e-8 9.986072995351509e-9 7.88220419397088e-9 5.9605143085104836e-9 4.6503579348859124e-9 3.5446495137703557e-9
          6.126934261929142e-9 4.766317949339549e-9 4.5137265123651495e-9 3.299545852407753e-9 2.630623001337527e-9 1.894483268550453e-9
          4.644394831869434e-9 3.397584429298063e-9 2.700848461556261e-9 2.117936264936052e-9 1.4315644247583054e-9 1.3605402270365305e-9
          8.487717694438774e-10 5.736983180311147e-10 6.441817355081404e-10 3.7602156775896224e-10 2.6579612739598066e-10 2.878163126882745e-10
          3.037739261834351e-9 2.0581212909977842e-9 1.8926013222834655e-9 1.278941407719093e-9 4.121102933857935e-9 2.801475192037972e-9
          2.500337866181696e-9 8.35156685925928e-10 5.238790454608384e-10 1.1013066615269283e-9 1.1513428813628538e-9 7.785441475042135e-10
          8.625381488237844e-10 5.855581783125002e-10 1.4928656250286075e-9 1.0068871051165188e-9 9.66039182451359e-10 5.075339049308147e-10
          3.203383097051324e-10 3.803047704078551e-10 2.43822073137936e-10 6.525622463164799e-10 4.1240256486869345e-10 4.806704685015402e-10
          5.253941718275373e-9 3.585506706078107e-9 3.1209659103758188e-9 2.115693531632619e-9 6.2653800438500194e-9 4.290984601506997e-9
          3.6658645852383294e-9 1.3769774503819444e-9 8.623963304202589e-10 1.6204387236617103e-9 1.8368339115353895e-9 1.2390684331887053e-9
          1.05557310338876e-9 8.118274716946782e-10 2.1324905655782095e-9 1.4407224328833643e-9 1.2193037237957686e-9 7.997251284508423e-10
          5.021633647217512e-10 5.827354200679662e-10 3.6576515739969397e-10 9.277768113002544e-10 5.800244005421131e-10 6.71347199829638e-10
          6.969527015772212e-9 4.784924430982306e-9 4.041024006716555e-9 2.7480995155568212e-9 7.222309001950382e-9 4.962790285830039e-9
          4.174958277432565e-9 1.7890594102239253e-9 1.1177129613640395e-9 1.849469629099757e-9 2.3323168147933774e-9 1.5770822600245412e-9
          1.322363711504401e-9 1.0145502803372372e-9 2.4025668308588067e-9 1.6248191553189536e-9 1.358190923019628e-9 1.015148344019466e-9
          6.335644478447797e-10 7.312133449013876e-10 4.537234156949293e-10 1.0459221885599295e-9 6.526772800548313e-10 7.518250443267677e-10
          2.165836724413944e-9 2.3266350594707732e-9 1.6108917776520905e-9 1.7299391279760137e-9 1.7944198605139086e-9 1.8307279432047676e-9
          1.3483243499108062e-9 2.60203655118828e-9 1.937764382161022e-9 1.942934828214705e-9 1.1626882565086108e-9 1.2519239277709082e-9
          8.285978133035938e-10 8.903132785586116e-10 9.438707959365292e-10 9.62508655250785e-10 6.813715691295006e-10 1.4065112603513098e-9
          9.993102124803609e-10 1.0229967204998127e-9 2.782312375882264e-9 2.0767282276584104e-9 2.067002212210503e-9 1.5257819866811922e-9
          2.84798504391557e-9 2.1269141692947134e-9 2.1151707938872222e-9 1.509115947457904e-9 1.0731106824982372e-9 1.0907291663831776e-9
          7.723938333873374e-10 1.5463689732463947e-9 1.099629683849382e-9 1.116611406331771e-9 5.705992128642344e-10 6.136152440610162e-10
          4.81139717663996e-10 5.052092434572924e-10 4.650947683163496e-10 4.776882862325328e-10 4.070631515542883e-10 6.890788441249428e-10
          5.568646213688383e-10 5.126820046222046e-10 7.395209304869428e-10 5.984240314723383e-10 5.477209619627539e-10 4.662735255309347e-10
          7.575154479817981e-10 6.123975894575891e-10 5.603597188298146e-10 4.159513048249329e-8 1.1876305159495968e-8 1.0212500527666609e-8
          2.8671998460229022e-8 6.202030074699622e-8 1.3059328271180756e-8 3.692862616482078e-8 2.9922332836945743e-9 3.6978163870196317e-9
          1.8918844186775776e-8 7.01634398762464e-9 1.5892449214152437e-8 1.7025863904906416e-8 2.490530203157674e-8 2.0422925377568367e-8
          2.8803958176048953e-8 9.830762997062683e-9 6.9276729968642e-9 1.124522387976836e-8 7.439277432074485e-9 1.603587112667511e-8
          4.747113104561799e-9 8.538303120099489e-9 9.073071462264112e-9 1.088467152955205e-8 6.8188160147949895e-9 8.065375457034792e-9
          2.527238930217991e-9 1.8368068390729607e-9 2.9977285196245537e-9 2.2258910868255465e-9 2.430074770847895e-9 1.3449449139193652e-9
          1.6480391038507546e-9 4.3620524047100266e-9 3.3485465558533874e-9 6.013786995672401e-9 4.715381323974795e-9 4.04445136345657e-9
          2.530241321813989e-9 3.617445339598853e-9 9.521876732703859e-9 7.588964092991497e-9 4.92455789808914e-9 6.32917778182069e-9
          1.2378229980496574e-8 8.086735264756547e-9 5.4502976011245915e-9 7.924324296199742e-9 5.264036827783835e-9 4.136418800598926e-9
          9.981270650696027e-9 5.149709026332066e-9 6.5611454868269064e-9 1.5237658075264245e-8 9.809511132399769e-9 1.773879899811724e-8
          1.1275176428843037e-8 6.177142349051e-9 7.786524332607314e-9 4.895660215213862e-9 7.039443932922993e-9 8.80632858450763e-9
          5.551205353947848e-9 1.9478267719901885e-8 1.2263423053314813e-8 2.0105477089033794e-8 1.2612957408091027e-8 7.62014950406356e-9
          9.49327977173441e-9 5.955630259644234e-9 7.823528057502476e-9 9.732049103700023e-9 6.094694787936398e-9 2.8947892051505177e-9
          3.102281593268297e-9 2.4604899524247464e-9 3.457531955817721e-9 3.6884648913490894e-9 2.7741717689621757e-9 3.771639852448812e-9
        </DataArray>
        <DataArray type="Float64" Name="gradient_matprop_error" format="ascii" RangeMin="0" RangeMax="0">
          0 0 0 0 0 0
          0 0 0 0 0 0
          0 0 0 0 0 0
          0 0 0 0 0 0
          0 0 0 0 0 0
          0 0 0 0 0 0
          0 0 0 0 0 0
          0 0 0 0 0 0
          0 0 0 0 0 0
          0 0 0 0 0 0
          0 0 0 0 0 0
          0 0 0 0 0 0
          0 0 0 0 0 0
          0 0 0 0 0 0
          0 0 0 0 0 0
          0 0 0 0 0 0
          0 0 0 0 0 0
          0 0 0 0 0 0
          0 0 0 0 0 0
          0 0 0 0 0 0
          0 0 0 0 0 0
          0 0 0 0 0 0
          0 0 0 0 0 0
          0 0 0 0 0 0
          0 0 0 0 0 0
          0 0 0 0 0 0
          0 0 0 0 0 0
          0 0 0 0 0 0
          0 0 0 0 0 0
          0 0 0 0 0 0
          0 0 0 0 0 0
          0 0 0 0 0 0
          0 0 0 0 0 0
          0 0 0 0 0 0
          0 0 0 0 0 0
          0 0 0 0 0 0
          0 0 0 0 0 0
          0 0 0 0 0 0
          0 0 0 0 0 0
          0 0 0 0 0 0
          0 0 0 0 0 0
          0 0 0 0 0 0
          0 0 0 0 0 0
          0 0 0 0 0 0
          0 0 0 0 0 0
          0 0 0 0 0 0
          0 0 0 0 0 0
          0 0 0 0 0 0
          0 0 0 0 0 0
          0 0 0 0 0 0
          0 0 0 0 0 0
          0 0 0 0 0 0
          0 0 0 0 0 0
          0 0 0 0 0 0
          0 0 0 0 0 0
          0 0 0 0 0 0
          0 0 0 0 0 0
          0 0 0 0 0 0
          0 0 0 0 0 0
          0 0 0 0 0 0
          0 0 0 0 0 0
        </DataArray>
        <DataArray type="Float64" Name="initial_marker" format="ascii" RangeMin="0" RangeMax="2">
          0 0 2 0 1 0.25
          1 0 0 0 0 0
          0 0 0 0 2 0.75
          0.5 2 2 1.5 2 2
          2 2 2 2 2 2
          0.25 0 2 2 1 2
          2 1 1 2 2 1.5
          0 0 0 0 0 0
          0 0 0 0 0 0
          0 0 0 0 0 0
          0 0 0 0 0 0
          0 0 0 0 0 0
          0 0 0 0 2 2
          2 0 1 0.5 2 1.75
          2 1.5 1.5 1 2 2
          2 2 2 2 2 2
          2 2 2 2 2 2
          2 2 2 2 2 2
          1.6666666666666667 2 2 2 2 2
          2 2 2 2 2 2
          2 2 2 2 2 2
          1.75 1.5 2 2 2 2
          2 2 2 2 2 2
          2 2 2 2 2 2
          2 2 2 2 2 2
          2 2 2 2 2 2
          1.5 1.25 1 0.75 0.6666666666666666 0
          2 2 2 2 2 2
          2 2 2 2 2 1.75
          2 1.5 2 2 1.3333333333333333 1.25
          1 0.5 0 1.75 1.25 1.5
          2 2 2 2 2 2
          2 2 2 2 2 2
          1.25 1.3333333333333333 2 2 1.5 2
          1.75 2 1.5 2 2 2
          2 2 2 2 2 2
          2 2 2 2 2 2
          1.75 1.6666666666666667 2 2 2 2
          2 2 2 2 2 2
          1 1 1 1 0 0
          0 1 1 0 0.5 0.75
          0 0.5 0 0 0 1
          1 0 1 1 0 0
          1 1 0 1 1 0
          0 1 1 0 0 0.25
          0 0 0 0 0 0.5
          0 0 0.75 0.5 0 0
          1 1 0 0 0 0
          0 0 0 0 0 0
          0 0 0 0 0 0
          0 0 0 0 0 0
          0 0 1 0 0 1.5
          1 1 1.5 1.5 1 1
          1.25 2 2 2 2 2
          2 2 2 2 2 2
          2 2 2 2 2 2
          2 2 2 2 2 2
          2 2 2 2 2 2
          2 2 2 2 2 2
          2 2 2 2 2 1
          1 0 1 1 0 1
        </DataArray>
        <DataArray type="Float64" Name="markers_norefine" format="ascii" RangeMin="0" RangeMax="0">
          0 0 0 0 0 0
          0 0 0 0 0 0
          0 0 0 0 0 0
          0 0 0 0 0 0
          0 0 0 0 0 0
          0 0 0 0 0 0
          0 0 0 0 0 0
          0 0 0 0 0 0
          0 0 0 0 0 0
          0 0 0 0 0 0
          0 0 0 0 0 0
          0 0 0 0 0 0
          0 0 0 0 0 0
          0 0 0 0 0 0
          0 0 0 0 0 0
          0 0 0 0 0 0
          0 0 0 0 0 0
          0 0 0 0 0 0
          0 0 0 0 0 0
          0 0 0 0 0 0
          0 0 0 0 0 0
          0 0 0 0 0 0
          0 0 0 0 0 0
          0 0 0 0 0 0
          0 0 0 0 0 0
          0 0 0 0 0 0
          0 0 0 0 0 0
          0 0 0 0 0 0
          0 0 0 0 0 0
          0 0 0 0 0 0
          0 0 0 0 0 0
          0 0 0 0 0 0
          0 0 0 0 0 0
          0 0 0 0 0 0
          0 0 0 0 0 0
          0 0 0 0 0 0
          0 0 0 0 0 0
          0 0 0 0 0 0
          0 0 0 0 0 0
          0 0 0 0 0 0
          0 0 0 0 0 0
          0 0 0 0 0 0
          0 0 0 0 0 0
          0 0 0 0 0 0
          0 0 0 0 0 0
          0 0 0 0 0 0
          0 0 0 0 0 0
          0 0 0 0 0 0
          0 0 0 0 0 0
          0 0 0 0 0 0
          0 0 0 0 0 0
          0 0 0 0 0 0
          0 0 0 0 0 0
          0 0 0 0 0 0
          0 0 0 0 0 0
          0 0 0 0 0 0
          0 0 0 0 0 0
          0 0 0 0 0 0
          0 0 0 0 0 0
          0 0 0 0 0 0
          0 0 0 0 0 0
        </DataArray>
        <DataArray type="Float64" Name="markers_mustrefine" format="ascii" RangeMin="0" RangeMax="2">
          0 0 2 0 1 0.25
          1 0 0 0 0 0
          0 0 0 0 2 0.75
          0.5 2 2 1.5 2 2
          2 2 2 2 2 2
          0.25 0 2 2 1 2
          2 1 1 2 2 1.5
          0 0 0 0 0 0
          0 0 0 0 0 0
          0 0 0 0 0 0
          0 0 0 0 0 0
          0 0 0 0 0 0
          0 0 0 0 2 2
          2 0 1 0.5 2 1.75
          2 1.5 1.5 1 2 2
          2 2 2 2 2 2
          2 2 2 2 2 2
          2 2 2 2 2 2
          1.6666666666666667 2 2 2 2 2
          2 2 2 2 2 2
          2 2 2 2 2 2
          1.75 1.5 2 2 2 2
          2 2 2 2 2 2
          2 2 2 2 2 2
          2 2 2 2 2 2
          2 2 2 2 2 2
          1.5 1.25 1 0.75 0.6666666666666666 0
          2 2 2 2 2 2
          2 2 2 2 2 1.75
          2 1.5 2 2 1.3333333333333333 1.25
          1 0.5 0 1.75 1.25 1.5
          2 2 2 2 2 2
          2 2 2 2 2 2
          1.25 1.3333333333333333 2 2 1.5 2
          1.75 2 1.5 2 2 2
          2 2 2 2 2 2
          2 2 2 2 2 2
          1.75 1.6666666666666667 2 2 2 2
          2 2 2 2 2 2
          1 1 1 1 0 0
          0 1 1 0 0.5 0.75
          0 0.5 0 0 0 1
          1 0 1 1 0 0
          1 1 0 1 1 0
          0 1 1 0 0 0.25
          0 0 0 0 0 0.5
          0 0 0.75 0.5 0 0
          1 1 0 0 0 0
          0 0 0 0 0 0
          0 0 0 0 0 0
          0 0 0 0 0 0
          0 0 1 0 0 1.5
          1 1 1.5 1.5 1 1
          1.25 2 2 2 2 2
          2 2 2 2 2 2
          2 2 2 2 2 2
          2 2 2 2 2 2
          2 2 2 2 2 2
          2 2 2 2 2 2
          2 2 2 2 2 1
          1 0 1 1 0 1
        </DataArray>
        <DataArray type="Float64" Name="gradient_marker" format="ascii" RangeMin="0.5" RangeMax="1">
          1 1 1 1 1 1
          1 1 1 1 1 1
          1 1 1 1 1 1
          1 1 1 1 1 1
          1 1 1 1 1 1
          1 1 1 1 1 1
          1 1 1 1 1 1
          1 1 1 1 1 1
          1 1 1 1 1 1
          1 1 1 1 1 1
          1 1 1 1 1 1
          1 1 1 1 1 1
          1 1 1 1 1 1
          1 1 1 1 1 1
          1 1 1 1 1 1
          1 1 1 1 1 1
          1 1 1 1 1 1
          1 1 1 1 1 1
          1 1 1 1 1 1
          1 1 1 1 1 1
          1 1 1 1 1 1
          1 1 1 1 1 1
          1 1 1 1 1 1
          1 1 1 1 1 1
          1 1 1 1 1 1
          1 1 1 1 1 1
          1 1 1 1 1 1
          1 1 1 1 1 1
          1 1 1 1 1 1
          1 1 1 1 1 1
          1 1 1 1 1 1
          1 1 1 1 1 1
          1 1 1 1 1 1
          1 1 1 1 1 1
          1 1 1 1 1 1
          1 1 1 1 1 1
          1 1 1 1 1 1
          1 1 1 1 1 1
          1 1 1 1 1 1
          1 1 1 1 1 1
          1 1 1 1 1 1
          1 1 1 1 1 1
          1 1 1 1 1 1
          1 1 1 1 1 1
          1 1 1 1 1 1
          1 1 1 1 1 1
          1 1 1 1 1 1
          1 1 1 0.5 1 1
          1 0.5 1 1 1 1
          0.5 1 0.5 0.5 0.5 0.5
          0.5 0.625 0.75 0.5 0.75 0.625
          1 0.5 0.75 0.5 0.5 0.875
          1 1 1 1 1 1
          1 1 1 1 1 1
          1 1 1 1 1 1
          1 1 1 1 1 1
          1 1 1 1 1 1
          1 1 1 1 1 1
          1 1 1 1 1 1
          1 1 1 1 1 1
          1 1 1 1 1 1
        </DataArray>
        <DataArray type="Float64" Name="gradient_matprop_marker" format="ascii" RangeMin="0" RangeMax="0">
          0 0 0 0 0 0
          0 0 0 0 0 0
          0 0 0 0 0 0
          0 0 0 0 0 0
          0 0 0 0 0 0
          0 0 0 0 0 0
          0 0 0 0 0 0
          0 0 0 0 0 0
          0 0 0 0 0 0
          0 0 0 0 0 0
          0 0 0 0 0 0
          0 0 0 0 0 0
          0 0 0 0 0 0
          0 0 0 0 0 0
          0 0 0 0 0 0
          0 0 0 0 0 0
          0 0 0 0 0 0
          0 0 0 0 0 0
          0 0 0 0 0 0
          0 0 0 0 0 0
          0 0 0 0 0 0
          0 0 0 0 0 0
          0 0 0 0 0 0
          0 0 0 0 0 0
          0 0 0 0 0 0
          0 0 0 0 0 0
          0 0 0 0 0 0
          0 0 0 0 0 0
          0 0 0 0 0 0
          0 0 0 0 0 0
          0 0 0 0 0 0
          0 0 0 0 0 0
          0 0 0 0 0 0
          0 0 0 0 0 0
          0 0 0 0 0 0
          0 0 0 0 0 0
          0 0 0 0 0 0
          0 0 0 0 0 0
          0 0 0 0 0 0
          0 0 0 0 0 0
          0 0 0 0 0 0
          0 0 0 0 0 0
          0 0 0 0 0 0
          0 0 0 0 0 0
          0 0 0 0 0 0
          0 0 0 0 0 0
          0 0 0 0 0 0
          0 0 0 0 0 0
          0 0 0 0 0 0
          0 0 0 0 0 0
          0 0 0 0 0 0
          0 0 0 0 0 0
          0 0 0 0 0 0
          0 0 0 0 0 0
          0 0 0 0 0 0
          0 0 0 0 0 0
          0 0 0 0 0 0
          0 0 0 0 0 0
          0 0 0 0 0 0
          0 0 0 0 0 0
          0 0 0 0 0 0
        </DataArray>
        <DataArray type="Float64" Name="combo" format="ascii" RangeMin="0.5" RangeMax="1">
          1 1 1 1 1 1
          1 1 1 1 1 1
          1 1 1 1 1 1
          1 1 1 1 1 1
          1 1 1 1 1 1
          1 1 1 1 1 1
          1 1 1 1 1 1
          1 1 1 1 1 1
          1 1 1 1 1 1
          1 1 1 1 1 1
          1 1 1 1 1 1
          1 1 1 1 1 1
          1 1 1 1 1 1
          1 1 1 1 1 1
          1 1 1 1 1 1
          1 1 1 1 1 1
          1 1 1 1 1 1
          1 1 1 1 1 1
          1 1 1 1 1 1
          1 1 1 1 1 1
          1 1 1 1 1 1
          1 1 1 1 1 1
          1 1 1 1 1 1
          1 1 1 1 1 1
          1 1 1 1 1 1
          1 1 1 1 1 1
          1 1 1 1 1 1
          1 1 1 1 1 1
          1 1 1 1 1 1
          1 1 1 1 1 1
          1 1 1 1 1 1
          1 1 1 1 1 1
          1 1 1 1 1 1
          1 1 1 1 1 1
          1 1 1 1 1 1
          1 1 1 1 1 1
          1 1 1 1 1 1
          1 1 1 1 1 1
          1 1 1 1 1 1
          1 1 1 1 1 1
          1 1 1 1 1 1
          1 1 1 1 1 1
          1 1 1 1 1 1
          1 1 1 1 1 1
          1 1 1 1 1 1
          1 1 1 1 1 1
          1 1 1 1 1 1
          1 1 1 0.5 1 1
          1 0.5 1 1 1 1
          0.5 1 0.5 0.5 0.5 0.5
          0.5 0.625 0.75 0.5 0.75 0.625
          1 0.5 0.75 0.5 0.5 0.875
          1 1 1 1 1 1
          1 1 1 1 1 1
          1 1 1 1 1 1
          1 1 1 1 1 1
          1 1 1 1 1 1
          1 1 1 1 1 1
          1 1 1 1 1 1
          1 1 1 1 1 1
          1 1 1 1 1 1
        </DataArray>
        <DataArray type="Float64" Name="dHdT" format="ascii" RangeMin="25.81909071336198" RangeMax="32.68658016571816">
          25.82424718591366 25.82196196375937 26.31528340136955 25.873360950760095 26.1532417444793 25.88326479290862
          25.910599363603332 25.916005462916356 25.890548791819633 25.935731170152593 25.838711040516166 25.845247812443212
          25.835474896323326 25.842220658452863 25.84961163487675 25.845513898987903 26.311688614352498 26.257157567796995
          26.042332294963366 27.498551134637193 26.690088121981823 26.477075409391254 28.254651566803815 27.080385859719648
          26.70710995475843 26.2695017207519 28.60068254384611 27.25361902602168 26.796123140612433 26.041336699987824
          25.922836348069502 25.862509612922704 26.217033991535597 25.975633028950327 25.968097307812144 26.397609234318608
          26.04735301387815 26.012539534392403 25.90252674834208 26.47727826341138 26.078928473993717 26.032230675704877
          26.13251669258961 26.171574979783674 25.98140590848651 25.998553157378872 26.048840302180814 26.090523425401187
          25.96120514203461 26.196405546071524 26.01068949581959 26.107753844633706 25.89820695238076 25.905452377180943
          25.859019883491264 25.866770404692517 25.88026973745717 25.888665648639456 25.8520986421076 25.911021261430587
          25.869958825424508 25.892226873210646 26.040799405071745 26.083520172301068 25.937632051673436 25.958645673393136
          25.978462320576746 26.001424959384853 25.918997613127715 25.878185649770096 25.88767351735335 25.846523625245943
          25.850490704133968 25.86557148162823 25.87050326623715 25.843888095864255 26.855929394213128 26.55454807175268
          26.517087240641924 26.307983256227352 26.379910701569436 26.234119138628007 26.704211100151504 26.47141545717448
          26.54006696520467 26.289667409751715 26.149717722494806 26.20024881346982 28.524692128232875 27.27942048336994
          26.85773893030351 26.76364606141526 26.488256536836058 27.790472506166175 27.21976056575179 27.04534187493301
          26.960649504237505 26.66362056272345 26.727745277954515 26.487311598411708 26.876666589791057 26.824985015434084
          26.430338364863605 26.25001662450523 26.300978878997192 26.158104960630524 26.58648118596005 26.36112027113967
          26.353328967864503 29.32510268794914 27.89601805819007 30.115065334883596 28.350710403859743 27.608942938740263
          27.335613041488454 26.896983392573475 28.8819335477936 27.969909219134053 27.59415626999871 27.089151430934646
          26.89485007097944 26.612120508769564 27.273097794850628 27.02270517957732 26.74267875822011 26.47231064338243
          26.391109681467515 26.220774980749916 26.877490581437538 26.568570403381806 26.460178390379763 30.70902049808661
          28.50869076096315 30.927959372839965 29.2744176171959 28.230696945853015 27.775458609667062 27.207872596956108
          29.421115593993648 28.326493314179785 27.841382335664832 27.399071827212644 27.110474795559295 26.772691037878523
          27.44399156040791 27.141359236977316 26.969625067807865 26.634248442030586 26.5078549007335 26.303263793682262
          27.002730967065453 26.65759872391402 26.524941981662213 26.323787621890652 26.152873960628117 26.155811682079644
          26.044661760586663 25.968594579942902 26.001687361486617 25.91516466478253 25.88610331195193 25.897964010884763
          26.53399060718432 26.29338918630299 26.27819537537353 26.123151342959392 26.78376914153087 26.4599892955696
          26.418266115880744 26.013088781583185 25.938588197212773 26.073535105896426 26.11364034083597 26.014127976173526
          26.050311925561786 25.972559057637177 26.190192480751794 26.065040323890365 26.074794118416108 25.944476482887588
          25.897576179206443 25.91857744995871 25.882195166050746 25.977407102992366 25.918096164890766 25.94135324085441
          27.04941911917685 26.63647462822912 26.561574482673496 26.312980361303488 27.292246902157906 26.796372057338523
          26.68825671670872 26.135250966758207 26.013645366597128 26.1898696737994 26.26659976692664 26.115824027994822
          26.092169339875603 26.02313483123061 26.332780092296638 26.159832606019826 26.12505779941788 26.010264576636413
          25.938708462268423 25.963669105897512 25.911255669995725 26.03879865385342 25.956559341808834 25.98279376536547
          27.46569057586366 26.909644117366163 26.77589965329994 26.45625685089741 27.52927233908608 26.951102599679476
          26.80711518505828 26.22774925778903 26.070657787339538 26.24124603154371 26.37808850353419 26.190076618375997
          26.148176399985797 26.065684796228357 26.394250477849067 26.200948058096365 26.15649570484417 26.058444519462643
          25.96874138052008 25.995934669190873 25.931966562270475 26.065507206575667 25.97310492058835 26.000752830259223
          26.479598711562566 26.514198145926134 26.30280445607898 26.327650876485333 26.345963143212906 26.369304026481757
          26.22061218960187 26.579133721974266 26.37478946795312 26.414233576576606 26.16630508849773 26.183968357484325
          26.06251776210015 26.074594483780118 26.09528170165296 26.106609756817196 26.020830476658997 26.217585544888095
          26.09778305452786 26.129182034099856 26.62607245440182 26.409348096650564 26.44733692871843 26.27668891088345
          26.64267504514481 26.421614554286577 26.458851614034252 26.242350951754943 26.115088169616097 26.146433736676105
          26.047707571709303 26.25116244020462 26.12128143563656 26.152441217133934 25.985200474464058 25.993033603210257
          25.952946309574763 25.95888788450209 25.9525932001928 25.957389532073943 25.930962277890316 26.008301355082118
          25.9706116589075 25.967133353375278 26.020032472511225 25.979919834768513 25.974997647076034 25.944781731124305
          26.02432896681467 25.983445811151444 25.977914451356604 25.96321113236086 25.852699887966804 25.828608152698934
          25.851740369370066 26.061000912090357 25.831999091877123 25.86195375951963 25.81909071336198 25.819888303501553
          26.001834113816535 25.886449756469137 25.93356357411096 26.10876763268817 25.994523457938776 26.177316692538184
          26.02329834934704 26.383975525523265 26.462910084796867 26.300443918064705 26.50895178139889 26.298029159136135