<?xml version="1.0"?>
<VTKFile type="UnstructuredGrid" version="0.1" byte_order="LittleEndian" header_type="UInt32" compressor="vtkZLibDataCompressor">
  <UnstructuredGrid>
    <Piece NumberOfPoints="329" NumberOfCells="170">
      <PointData>
        <DataArray type="Int32" Name="libmesh_node_id" format="ascii" RangeMin="240" RangeMax="2629">
          329 506 511 512 514 516
          748 750 1115 1118 1119 1120
          1121 1122 1123 1124 1125 1126
          1127 1128 1129 1130 1131 1132
          1133 1135 1140 1141 1145 1150
          1155 1156 1157 1159 1160 1161
          1163 1165 1166 1167 1169 1348
          1349 1350 1351 1352 1353 1354
          1355 1356 1357 1358 1359 1360
          1362 1363 1364 1366 1367 1368
          1369 1370 1371 1372 1373 1374
          1375 1376 1377 2236 2246 2247
          2248 2250 2301 2302 2305 2334
          2336 2337 2338 2339 2340 2341
          2342 2343 2344 2345 2346 2347
          2348 2349 2350 2351 2352 2353
          2354 2355 2356 2357 2358 2359
          2360 2361 2362 2364 2366 2368
          2369 2370 2371 2372 2404 2406
          2408 2410 2412 2413 2414 2416
          2438 2440 2442 2444 2446 2447
          2448 2450 2473 2474 2477 2484
          2507 2508 2511 2514 2518 2520
          2522 2524 2526 2527 2528 2529
          2530 2531 2532 2533 2534 2535
          2536 2538 2540 2541 2542 2543
          2544 2545 2546 2548 2550 2552
          2554 2555 2556 2557 2558 2559
          2560 2562 2564 2566 2568 2569
          2570 2571 2572 2573 2574 2575
          2576 2577 2578 2579 2580 2581
          2586 2588 2589 2590 2591 2592
          2593 2594 2595 2596 2597 2598
          2599 2600 2601 2602 2603 2604
          2605 2606 2608 2610 2612 2613
          2614 2615 2616 2617 2618 2619
          2620 2621 2624 2625 2627 2629
          510 321 743 741 744 742
          495 745 313 496 746 499
          501 240 747 749 331 1022
          1116 310 1023 1117 1026 720
          729 1225 1220 1319 1344 1320
          1345 1323 1346 1347 1257 1258
          1261 478 1080 1060 1158 1361
          1081 1084 1162 1365 1086 2326
          2327 2329 2328 2330 2331 2332
          2240 1101 2325 1880 1864 1881
          1884 1028 1886 2226 1099 2242
          2241 2387 2388 2403 2243 2405
          2392 1137 2407 2409 2397 2402
          2421 2422 2437 2439 2426 1143
          2441 2443 2431 2436 2519 2521
          2523 2525 2072 2084 2086 1058
          2537 2088 2539 2547 2549 2551
          2553 2561 2563 2565 2567
        </DataArray>
        <DataArray type="Float64" Name="bounds" format="ascii" RangeMin="0" RangeMax="0">
          0 0 0 0 0 0
          0 0 0 0 0 0
          0 0 0 0 0 0
          0 0 0 0 0 0
          0 0 0 0 0 0
          0 0 0 0 0 0
          0 0 0 0 0 0
          0 0 0 0 0 0
          0 0 0 0 0 0
          0 0 0 0 0 0
          0 0 0 0 0 0
          0 0 0 0 0 0
          0 0 0 0 0 0
          0 0 0 0 0 0
          0 0 0 0 0 0
          0 0 0 0 0 0
          0 0 0 0 0 0
          0 0 0 0 0 0
          0 0 0 0 0 0
          0 0 0 0 0 0
          0 0 0 0 0 0
          0 0 0 0 0 0
          0 0 0 0 0 0
          0 0 0 0 0 0
          0 0 0 0 0 0
          0 0 0 0 0 0
          0 0 0 0 0 0
          0 0 0 0 0 0
          0 0 0 0 0 0
          0 0 0 0 0 0
          0 0 0 0 0 0
          0 0 0 0 0 0
          0 0 0 0 0 0
          0 0 0 0 0 0
          0 0 0 0 0 0
          0 0 0 0 0 0
          0 0 0 0 0 0
          0 0 0 0 0 0
          0 0 0 0 0 0
          0 0 0 0 0 0
          0 0 0 0 0 0
          0 0 0 0 0 0
          0 0 0 0 0 0
          0 0 0 0 0 0
          0 0 0 0 0 0
          0 0 0 0 0 0
          0 0 0 0 0 0
          0 0 0 0 0 0
          0 0 0 0 0 0
          0 0 0 0 0 0
          0 0 0 0 0 0
          0 0 0 0 0 0
          0 0 0 0 0 0
          0 0 0 0 0 0
          0 0 0 0 0
        </DataArray>
        <DataArray type="Float64" Name="gradient_error" format="ascii" RangeMin="4.235782779339009e-11" RangeMax="1.4553403603459667e-8">
          1.5669528214047304e-10 6.371228781727908e-10 4.969280713638789e-10 2.9093918560736617e-10 1.7523269812429626e-9 5.839505925886243e-10
          1.097370448831403e-9 1.7868245014114975e-9 1.9832665548075876e-10 5.511148121988611e-10 4.363926957875006e-10 7.278803071560292e-10
          7.428410123158034e-10 4.214656260032616e-10 6.891127092374432e-10 3.0224708733400875e-10 8.587750903660404e-10 2.4658074823579816e-10
          2.236590074151791e-10 9.59535635367227e-11 9.682124461738632e-11 1.8489838910047985e-10 2.658705989502769e-10 1.0503532124945796e-10
          1.8920985558168606e-10 2.6674693509098e-10 3.73529956766273e-9 1.3451872322766052e-9 4.856814206555696e-9 4.0406224312634536e-10
          5.211010261523369e-10 1.2572807839279335e-9 4.632306080911311e-10 5.097265671276949e-10 1.5539357554997793e-9 5.694304313888402e-10
          1.776500058503242e-10 2.2397266774512652e-10 1.4999349521134128e-10 1.8164271045716606e-10 2.183936858851285e-10 2.8519342705062983e-10
          3.8905263302505766e-10 2.7641237153943677e-10 4.807656205059621e-10 6.483146528928757e-10 3.422838203317063e-10 4.257275937271011e-10
          3.6727863539994675e-10 4.503755174242011e-10 3.2688049917707054e-10 1.0126312461673726e-9 5.238477660549443e-10 6.133386410601825e-10
          6.039734707299674e-10 7.21874959126094e-10 3.772961295919415e-10 6.767609759387666e-10 7.505450355802783e-10 2.102431028631877e-10
          2.4068785407832505e-10 1.3604657750376475e-10 1.430867934440385e-10 1.532812964848632e-10 1.6752218090792502e-10 1.1274336244317256e-10
          2.711326052934624e-10 1.5012700938431228e-10 1.8176306533098682e-10 2.1123793127237806e-9 6.428130581955109e-10 3.8154952939049524e-10
          1.5805812171999456e-9 1.0798641267113772e-9 2.197060304521293e-10 1.2261115590397074e-10 3.6181857772511247e-10 4.32910460448055e-10
          2.5757260244180085e-10 2.1391865342116657e-10 2.794550843009842e-10 1.9010464286907467e-10 6.947284059298005e-10 4.12362286905243e-10
          4.293460151481922e-10 3.461830330643463e-10 4.349078243987242e-10 2.2689964868765914e-10 2.834768306083139e-10 2.7534884240490975e-10
          3.3181766239784974e-10 2.191686072684397e-10 6.351725783133712e-10 4.1186754734351597e-10 4.656195736839553e-10 1.4037368448913866e-10
          1.7687617704121014e-10 1.1208325401509899e-10 1.377046835750648e-10 1.1437273295087468e-10 1.390510829450984e-10 1.1321821586297526e-10
          2.59267638716452e-10 1.761458860941926e-10 1.9568412664563092e-10 1.4912879233157228e-10 8.48974120842411e-11 1.1831016516894718e-10
          6.851416619234815e-11 2.361967669332982e-10 1.312184956236012e-10 1.6419251366542503e-10 4.108042997365557e-9 2.70688394926858e-9
          5.773078884393256e-9 2.527298097597769e-9 1.663090133395655e-9 9.762660840608243e-10 3.5721711354856905e-9 2.297742556744217e-9
          7.065882128193919e-9 4.5472255130696655e-9 7.550126635266533e-9 4.3981034837636595e-9 2.802455432492323e-9 1.6393071459652284e-9
          4.7112760639340835e-9 2.9959216147236923e-9 5.493861757072809e-10 2.976281155330409e-10 7.524952592522179e-10 2.0910075925982153e-10
          9.143110477581009e-10 4.886123349331133e-10 9.765200229275348e-10 2.513350133377719e-10 2.6749058566192543e-10 1.656064696255927e-9
          9.731740747565452e-10 2.2139060025709417e-9 1.0213373494630263e-9 6.050216576188025e-10 6.040017446920692e-10 3.598980151973812e-10
          1.3625864640356549e-9 8.040079361575526e-10 7.769374008888701e-10 8.653625531881464e-10 5.575809886900094e-10 6.215944213249105e-10
          4.0230482473178853e-10 6.967584198727532e-10 3.4930797407888236e-10 2.1076074187907626e-10 2.547542873766713e-10 1.5752798079661067e-10
          4.329355557144655e-10 2.622586023095648e-10 3.064856240226053e-10 2.648155944786752e-9 1.4728957339338242e-9 2.8131868648163666e-9
          1.6294372816505438e-9 9.592431782526126e-10 9.090593141405134e-10 5.406115302706178e-10 1.7309339198415457e-9 1.0181572419466919e-9
          9.585468007718424e-10 8.006623516338131e-10 5.577701555485328e-10 8.392887587440749e-10 4.961873200797602e-10 2.9970549260997224e-10
          3.466096914223441e-10 2.127964450596124e-10 5.199628690487318e-10 3.1385949178519395e-10 3.621178892008805e-10 3.456885851900145e-10
          1.897015355810511e-10 2.0730998362160245e-10 1.3348269460937934e-10 4.5716266739218517e-10 2.4938469544056296e-10 2.676595109041896e-10
          1.3088772097163905e-10 8.702783159537699e-11 1.0228603817163971e-10 1.2042527360009976e-10 7.607797567629392e-11 8.832073993323909e-11
          7.831831239965407e-11 9.002420829779327e-11 6.735544822452279e-11 1.5292596335718614e-10 9.632574928080719e-11 1.1149735890637527e-10
          5.424163405985818e-10 2.951875443989377e-10 3.1076866245488525e-10 1.7163323225985495e-10 5.745633044503795e-10 3.124751853977422e-10
          3.2660126098556597e-10 1.5536088235557033e-10 9.26024108956671e-11 1.6474680805442357e-10 9.846281625081578e-11 1.7501532985426333e-10
          9.938632856405784e-11 1.2573543299476171e-10 7.440102251255748e-11 1.827432420227141e-10 1.0456578530199701e-10 1.3020625237270537e-10
          5.29355108020748e-11 5.5368679478300224e-11 4.235782779339009e-11 4.2671608617698684e-11 5.780184815452564e-11 4.2985389442007275e-11
          7.449292382426747e-10 4.4773191343063687e-10 5.006122618652568e-10 9.99298649083916e-10 4.4964875627967605e-10 1.022060188586964e-9
          3.1331976228469402e-9 1.0374048616946363e-9 6.796660275561684e-9 3.341605506580575e-9 1.5320809611275732e-9 5.487624573438484e-9
          4.110003846404731e-9 1.0388562655030537e-8 4.962978321878928e-10 3.8497877612142977e-10 2.0234305837927956e-9 1.4099345385291052e-9
          7.632356762881136e-10 2.4841339965325675e-9 1.1706433827900684e-9 6.37625728161807e-10 1.6357706163265504e-9 2.5477135447812435e-9
          7.731394531731052e-10 7.851351352905497e-10 2.6726705007933268e-9 6.527891787394246e-10 3.1934842259419125e-10 1.025692658892392e-9
          4.717647572905571e-10 8.410540256222983e-10 2.3042075332780664e-10 3.0423738126675637e-10 1.0341143810792088e-9 1.3613192192815697e-9
          9.036093307394473e-10 1.8602596886115635e-9 2.1070775672439846e-9 1.9903188426487295e-9 1.2192116627965073e-9 1.3345025486942791e-9
          2.1068070473259434e-9 1.477750813494566e-9 1.3754678454624118e-9 1.4596062903336027e-9 1.6837570141560134e-9 1.0975084156293644e-9
          7.030250390651078e-10 4.514597716692629e-10 7.017487115396392e-10 1.7479484836570647e-9 1.1227357303891155e-9 1.0715522138903371e-9
          1.0479336453943477e-9 1.756098132968682e-9 4.840041821142157e-10 5.208582868389661e-10 1.0557995545570144e-9 6.540637547445445e-10
          4.977814540091949e-10 1.6100708995607988e-9 9.568357271795112e-10 5.309716789935412e-9 3.438812047209917e-9 2.5750976018582253e-9
          3.995891846972639e-9 8.48477236422782e-9 5.574558798994526e-9 6.32008136010483e-9 2.7330887150105253e-9 4.19549764653586e-9
          1.1662676897070256e-8 7.809863312269659e-9 8.786506637059554e-9 5.75852452037873e-9 3.4493358448900263e-9 4.892689116263408e-9
          1.3829793939129434e-8 9.427701271394611e-9 1.0653533310150061e-8 6.978283692202798e-9 1.4553403603459667e-8 9.995972053727459e-9
          1.1340313213789362e-8 7.440097537877947e-9 5.979087179730912e-9 6.3731191353498895e-9 2.575422328696512e-9 1.5142921742483203e-9
          3.4367679728074607e-9 1.9579414124641076e-9 2.2700590447139317e-9 1.3081508123148329e-9 9.466547979926272e-10 2.9278874563458893e-9
          1.089546113670083e-9 1.6517502093192296e-9 7.718582056050177e-10 4.103270143723234e-9 2.293745434732097e-9 4.355579179376942e-9
          2.4197124387210123e-9 1.2579405823596876e-9 8.863470609342289e-10 1.3208015028618618e-9 9.292138883311225e-10
        </DataArray>
        <DataArray type="Float64" Name="gradient_matprop_error" format="ascii" RangeMin="0" RangeMax="0">
          0 0 0 0 0 0
          0 0 0 0 0 0
          0 0 0 0 0 0
          0 0 0 0 0 0
          0 0 0 0 0 0
          0 0 0 0 0 0
          0 0 0 0 0 0
          0 0 0 0 0 0
          0 0 0 0 0 0
          0 0 0 0 0 0
          0 0 0 0 0 0
          0 0 0 0 0 0
          0 0 0 0 0 0
          0 0 0 0 0 0
          0 0 0 0 0 0
          0 0 0 0 0 0
          0 0 0 0 0 0
          0 0 0 0 0 0
          0 0 0 0 0 0
          0 0 0 0 0 0
          0 0 0 0 0 0
          0 0 0 0 0 0
          0 0 0 0 0 0
          0 0 0 0 0 0
          0 0 0 0 0 0
          0 0 0 0 0 0
          0 0 0 0 0 0
          0 0 0 0 0 0
          0 0 0 0 0 0
          0 0 0 0 0 0
          0 0 0 0 0 0
          0 0 0 0 0 0
          0 0 0 0 0 0
          0 0 0 0 0 0
          0 0 0 0 0 0
          0 0 0 0 0 0
          0 0 0 0 0 0
          0 0 0 0 0 0
          0 0 0 0 0 0
          0 0 0 0 0 0
          0 0 0 0 0 0
          0 0 0 0 0 0
          0 0 0 0 0 0
          0 0 0 0 0 0
          0 0 0 0 0 0
          0 0 0 0 0 0
          0 0 0 0 0 0
          0 0 0 0 0 0
          0 0 0 0 0 0
          0 0 0 0 0 0
          0 0 0 0 0 0
          0 0 0 0 0 0
          0 0 0 0 0 0
          0 0 0 0 0 0
          0 0 0 0 0
        </DataArray>
        <DataArray type="Float64" Name="initial_marker" format="ascii" RangeMin="0" RangeMax="2">
          0 2 0 0 2 1
          0 0 2 0 0 0
          0 0 2 1.5 0.25 0
          0 0 0 0 0 0
          0.75 0 2 2 2 2
          2 2 2 0.5 2 2
          1.75 0 0 2 0 0
          0 0 0 0 0 0
          0 0 0 0 0 0
          0 0 0 0 0 0
          0 0 0 0 0 0
          0 0 0 2 2 2
          2 2 1.75 1.5 2 1.75
          1.5 0.5 1 0.6666666666666666 2 2
          1.75 0 0.5 0 0.5 0
          0 0 1.5 1.25 1 0
          0.25 0 0 0 0 0
          0.75 0.6666666666666666 0 1.25 0.75 1
          0.5 2 1.75 1.6666666666666667 2 2
          2 2 2 2 2 2
          2 2 2 2 2 2
          2 2 2 2 2 2
          2 2 2 2 2 2
          2 2 2 2 2 2
          2 2 2 2 1.75 2
          1.5 2 1.5 1.25 1 0.5
          2 1.5 2 2 2 2
          2 2 2 2 2 2
          2 2 2 2 2 1.75
          2 1.5 2 2 2 2
          2 1.75 1.6666666666666667 2 2 2
          2 1.6666666666666667 0.5 0.75 0 0.5
          0 0 0 1 1 0
          2 2 2 2 2 2
          2 2 1.5 2 1.5 1.25
          1 0.5 0 1.5 1 1
          0.5 0.5 0 0 0.5 0
          0 0 0 0 0 0
          0 0 0 0 0 0
          0 0 0 0 0 0
          0 0 0.75 0.5 0 0
          0 0 0 0 0 0
          0 0 0 0 0 0
          0 0.5 0 1.25 1 0
          0 0 1 0 0 2
          2 1.5 1.5 2 2 2
          2 2 0.6666666666666666 0.5 1.75 0.75
          0 2 1.5 2 2 2
          2 2 2 2 2 2
          2 2 2 2 2 2
          2 2 2 2 2 2
          2 2 2 2 2 2
          2 2 2 2 2 2
          2 2 2 2 2 2
          2 2 2 2 2
        </DataArray>
        <DataArray type="Float64" Name="markers_norefine" format="ascii" RangeMin="0" RangeMax="0">
          0 0 0 0 0 0
          0 0 0 0 0 0
          0 0 0 0 0 0
          0 0 0 0 0 0
          0 0 0 0 0 0
          0 0 0 0 0 0
          0 0 0 0 0 0
          0 0 0 0 0 0
          0 0 0 0 0 0
          0 0 0 0 0 0
          0 0 0 0 0 0
          0 0 0 0 0 0
          0 0 0 0 0 0
          0 0 0 0 0 0
          0 0 0 0 0 0
          0 0 0 0 0 0
          0 0 0 0 0 0
          0 0 0 0 0 0
          0 0 0 0 0 0
          0 0 0 0 0 0
          0 0 0 0 0 0
          0 0 0 0 0 0
          0 0 0 0 0 0
          0 0 0 0 0 0
          0 0 0 0 0 0
          0 0 0 0 0 0
          0 0 0 0 0 0
          0 0 0 0 0 0
          0 0 0 0 0 0
          0 0 0 0 0 0
          0 0 0 0 0 0
          0 0 0 0 0 0
          0 0 0 0 0 0
          0 0 0 0 0 0
          0 0 0 0 0 0
          0 0 0 0 0 0
          0 0 0 0 0 0
          0 0 0 0 0 0
          0 0 0 0 0 0
          0 0 0 0 0 0
          0 0 0 0 0 0
          0 0 0 0 0 0
          0 0 0 0 0 0
          0 0 0 0 0 0
          0 0 0 0 0 0
          0 0 0 0 0 0
          0 0 0 0 0 0
          0 0 0 0 0 0
          0 0 0 0 0 0
          0 0 0 0 0 0
          0 0 0 0 0 0
          0 0 0 0 0 0
          0 0 0 0 0 0
          0 0 0 0 0 0
          0 0 0 0 0
        </DataArray>
        <DataArray type="Float64" Name="markers_mustrefine" format="ascii" RangeMin="0" RangeMax="2">
          0 2 0 0 2 1
          0 0 2 0 0 0
          0 0 2 1.5 0.25 0
          0 0 0 0 0 0
          0.75 0 2 2 2 2
          2 2 2 0.5 2 2
          1.75 0 0 2 0 0
          0 0 0 0 0 0
          0 0 0 0 0 0
          0 0 0 0 0 0
          0 0 0 0 0 0
          0 0 0 2 2 2
          2 2 1.75 1.5 2 1.75
          1.5 0.5 1 0.6666666666666666 2 2
          1.75 0 0.5 0 0.5 0
          0 0 1.5 1.25 1 0
          0.25 0 0 0 0 0
          0.75 0.6666666666666666 0 1.25 0.75 1
          0.5 2 1.75 1.6666666666666667 2 2
          2 2 2 2 2 2
          2 2 2 2 2 2
          2 2 2 2 2 2
          2 2 2 2 2 2
          2 2 2 2 2 2
          2 2 2 2 1.75 2
          1.5 2 1.5 1.25 1 0.5
          2 1.5 2 2 2 2
          2 2 2 2 2 2
          2 2 2 2 2 1.75
          2 1.5 2 2 2 2
          2 1.75 1.6666666666666667 2 2 2
          2 1.6666666666666667 0.5 0.75 0 0.5
          0 0 0 1 1 0
          2 2 2 2 2 2
          2 2 1.5 2 1.5 1.25
          1 0.5 0 1.5 1 1
          0.5 0.5 0 0 0.5 0
          0 0 0 0 0 0
          0 0 0 0 0 0
          0 0 0 0 0 0
          0 0 0.75 0.5 0 0
          0 0 0 0 0 0
          0 0 0 0 0 0
          0 0.5 0 1.25 1 0
          0 0 1 0 0 2
          2 1.5 1.5 2 2 2
          2 2 0.6666666666666666 0.5 1.75 0.75
          0 2 1.5 2 2 2
          2 2 2 2 2 2
          2 2 2 2 2 2
          2 2 2 2 2 2
          2 2 2 2 2 2
          2 2 2 2 2 2
          2 2 2 2 2 2
          2 2 2 2 2
        </DataArray>
        <DataArray type="Float64" Name="gradient_marker" format="ascii" RangeMin="1" RangeMax="1">
          1 1 1 1 1 1
          1 1 1 1 1 1
          1 1 1 1 1 1
          1 1 1 1 1 1
          1 1 1 1 1 1
          1 1 1 1 1 1
          1 1 1 1 1 1
          1 1 1 1 1 1
          1 1 1 1 1 1
          1 1 1 1 1 1
          1 1 1 1 1 1
          1 1 1 1 1 1
          1 1 1 1 1 1
          1 1 1 1 1 1
          1 1 1 1 1 1
          1 1 1 1 1 1
          1 1 1 1 1 1
          1 1 1 1 1 1
          1 1 1 1 1 1
          1 1 1 1 1 1
          1 1 1 1 1 1
          1 1 1 1 1 1
          1 1 1 1 1 1
          1 1 1 1 1 1
          1 1 1 1 1 1
          1 1 1 1 1 1
          1 1 1 1 1 1
          1 1 1 1 1 1
          1 1 1 1 1 1
          1 1 1 1 1 1
          1 1 1 1 1 1
          1 1 1 1 1 1
          1 1 1 1 1 1
          1 1 1 1 1 1
          1 1 1 1 1 1
          1 1 1 1 1 1
          1 1 1 1 1 1
          1 1 1 1 1 1
          1 1 1 1 1 1
          1 1 1 1 1 1
          1 1 1 1 1 1
          1 1 1 1 1 1
          1 1 1 1 1 1
          1 1 1 1 1 1
          1 1 1 1 1 1
          1 1 1 1 1 1
          1 1 1 1 1 1
          1 1 1 1 1 1
          1 1 1 1 1 1
          1 1 1 1 1 1
          1 1 1 1 1 1
          1 1 1 1 1 1
          1 1 1 1 1 1
          1 1 1 1 1 1
          1 1 1 1 1
        </DataArray>
        <DataArray type="Float64" Name="gradient_matprop_marker" format="ascii" RangeMin="0" RangeMax="0">
          0 0 0 0 0 0
          0 0 0 0 0 0
          0 0 0 0 0 0
          0 0 0 0 0 0
          0 0 0 0 0 0
          0 0 0 0 0 0
          0 0 0 0 0 0
          0 0 0 0 0 0
          0 0 0 0 0 0
          0 0 0 0 0 0
          0 0 0 0 0 0
          0 0 0 0 0 0
          0 0 0 0 0 0
          0 0 0 0 0 0
          0 0 0 0 0 0
          0 0 0 0 0 0
          0 0 0 0 0 0
          0 0 0 0 0 0
          0 0 0 0 0 0
          0 0 0 0 0 0
          0 0 0 0 0 0
          0 0 0 0 0 0
          0 0 0 0 0 0
          0 0 0 0 0 0
          0 0 0 0 0 0
          0 0 0 0 0 0
          0 0 0 0 0 0
          0 0 0 0 0 0
          0 0 0 0 0 0
          0 0 0 0 0 0
          0 0 0 0 0 0
          0 0 0 0 0 0
          0 0 0 0 0 0
          0 0 0 0 0 0
          0 0 0 0 0 0
          0 0 0 0 0 0
          0 0 0 0 0 0
          0 0 0 0 0 0
          0 0 0 0 0 0
          0 0 0 0 0 0
          0 0 0 0 0 0
          0 0 0 0 0 0
          0 0 0 0 0 0
          0 0 0 0 0 0
          0 0 0 0 0 0
          0 0 0 0 0 0
          0 0 0 0 0 0
          0 0 0 0 0 0
          0 0 0 0 0 0
          0 0 0 0 0 0
          0 0 0 0 0 0
          0 0 0 0 0 0
          0 0 0 0 0 0
          0 0 0 0 0 0
          0 0 0 0 0
        </DataArray>
        <DataArray type="Float64" Name="combo" format="ascii" RangeMin="1" RangeMax="1">
          1 1 1 1 1 1
          1 1 1 1 1 1
          1 1 1 1 1 1
          1 1 1 1 1 1
          1 1 1 1 1 1
          1 1 1 1 1 1
          1 1 1 1 1 1
          1 1 1 1 1 1
          1 1 1 1 1 1
          1 1 1 1 1 1
          1 1 1 1 1 1
          1 1 1 1 1 1
          1 1 1 1 1 1
          1 1 1 1 1 1
          1 1 1 1 1 1
          1 1 1 1 1 1
          1 1 1 1 1 1
          1 1 1 1 1 1
          1 1 1 1 1 1
          1 1 1 1 1 1
          1 1 1 1 1 1
          1 1 1 1 1 1
          1 1 1 1 1 1
          1 1 1 1 1 1
          1 1 1 1 1 1
          1 1 1 1 1 1
          1 1 1 1 1 1
          1 1 1 1 1 1
          1 1 1 1 1 1
          1 1 1 1 1 1
          1 1 1 1 1 1
          1 1 1 1 1 1
          1 1 1 1 1 1
          1 1 1 1 1 1
          1 1 1 1 1 1
          1 1 1 1 1 1
          1 1 1 1 1 1
          1 1 1 1 1 1
          1 1 1 1 1 1
          1 1 1 1 1 1
          1 1 1 1 1 1
          1 1 1 1 1 1
          1 1 1 1 1 1
          1 1 1 1 1 1
          1 1 1 1 1 1
          1 1 1 1 1 1
          1 1 1 1 1 1
          1 1 1 1 1 1
          1 1 1 1 1 1
          1 1 1 1 1 1
          1 1 1 1 1 1
          1 1 1 1 1 1
          1 1 1 1 1 1
          1 1 1 1 1 1
          1 1 1 1 1
        </DataArray>
        <DataArray type="Float64" Name="dHdT" format="ascii" RangeMin="25.81876356341899" RangeMax="30.901807958191824">
          25.820831287316963 25.962435763725335 25.844314718102705 25.820911928130805 26.219839108954517 25.86566024734201
          25.835117206535006 25.83295416062375 25.860615442596064 25.838778874907074 25.846309757427136 25.85018647825399
          25.861018240406068 25.83841422635443 25.98732902977404 25.877203926386876 25.88901235093546 25.826106749306653
          25.828239468593328 25.819542382856497 25.820124652132268 25.82431192557256 25.82709539119942 25.820014861320495
          25.836247408920308 25.82953666140231 26.694351700857837 26.123538259698726 26.973646316321584 25.905846611783264
          25.932454524387218 26.122129710319832 25.92610549145514 25.859207619584215 26.192817034329785 25.951098828129503
          25.849561941652716 25.831318492460618 25.822408736110912 25.85781574997336 25.833388351432703 25.83204696906389
          25.836970612316797 25.829438494211402 25.842470057300147 25.84848154167105 25.833102042380986 25.836439246625474
          25.838378781452427 25.842084924150097 25.833169490041215 25.86247725408321 25.840092622239634 25.850000834042955
          25.84304574427703 25.857093432289997 25.83578090362342 25.845840780629597 25.85997626334185 25.826210147463364
          25.82701121519808 25.821990457666296 25.822140201700957 25.824323602198252 25.824762826978212 25.821357681815755
          25.827812282932797 25.82228994573562 25.82520205175817 26.306776462563157 25.968713090844634 25.9063030025899
          26.18109537489225 26.067152045060496 25.867541001519406 25.844376951956686 25.898296044868065 25.92195049859536
          25.879625727523333 25.87417363774319 25.888098493302444 25.865548320873227 25.98019376761678 25.91268163227953
          25.920969078850383 25.919153350891413 25.940167285583925 25.882376461686544 25.89562285671738 25.90279276118425
          25.91776639958671 25.881677109131235 25.987955645513836 25.92590366989153 25.951129499801915 25.85801126621496
          25.865799797452258 25.848655580992514 25.854111542899275 25.851676611247335 25.857235195478385 25.847678622306123
          25.88401242806752 25.862099802269924 25.870226072533637 25.853155325055184 25.836950515401682 25.846962246419544
          25.833775833347786 25.87124553601181 25.846528447591147 25.856543783464517 26.786052687608127 26.44955199146705
          27.220833262981103 26.401805132793868 26.20024740945157 26.03876800131532 26.6596700987877 26.347847734406418
          27.596317765670513 26.89508810128334 27.747948494318305 26.878694556321477 26.468296176146172 26.19274716152725
          26.96595865323078 26.51538240830582 25.939746702951346 25.88218168407284 25.98571505090659 25.8617085604203
          26.02325557906709 25.925003298800906 26.037920155905496 25.871068159326207 25.874690311106434 26.209348511500398
          26.054433541968454 26.33976315100675 26.055159771108883 25.955684684942042 25.961701692775755 25.90216362461674
          26.134381643724804 26.00129998404562 26.002987047794154 26.043793605609178 25.961667516041693 25.98910146071822
          25.92801612636252 25.99642998654783 25.906223559619058 25.870354982638574 25.88616345462538 25.858810467192338
          25.927936058275723 25.883229626427415 25.901438770238855 26.442222626659298 26.173494350765164 26.481465605113815
          26.19670926028897 26.037272243493508 26.03433817081078 25.94425046529774 26.220700888374715 26.051133838122283
          26.046190822745707 26.021863422882998 25.968261894157926 26.031263816718884 25.94369748185676 25.89257034922537
          25.912142446635794 25.874575502784463 25.949533438954695 25.896025459871204 25.916075896686806 25.89465569134389
          25.858802191475164 25.865374017761884 25.847403518225033 25.919574670215145 25.87184600268212 25.87848525583143
          25.845103352907397 25.836193968902403 25.84458554901115 25.848124439756734 25.837611026073205 25.839761718828164
          25.839397973715425 25.84191468510823 25.835723475517344 25.854977941347354 25.840465333145207 25.846706421072547
          25.93924117094196 25.882116488522527 25.88870555292704 25.85579077522554 25.946782610925933 25.886040198009383
          25.892580504954196 25.85009668516969 25.836950125636875 25.851983588982932 25.837787903064115 25.860327327819604
          25.8408152631441 25.850410967671458 25.835544834412964 25.862362103446827 25.841888732361948 25.85184048969885
          25.828951721238465 25.829325023605303 25.826269079786968 25.82658180039374 25.82969832597215 25.82689452100051
          25.829298974831403 25.81876356341899 25.819555969992262 25.826161041180008 25.8197696420942 25.831120779209808
          25.85154714692055 25.825870443249922 25.83713411409153 25.87268676777626 25.830512088942157 25.861257128936515
          25.887484572314122 25.85193510702197 25.819972777852907 25.82001372029113 25.820074255976916 25.902309172562205
          25.855019481372924 25.882246893054244 25.995087052615283 25.889912836321816 25.91681259685064 25.842000501330475
          25.822953516138625 25.82263007127818 25.837421490305267 25.851201238760492 25.833220678966548 25.866331432031348
          25.83948126106703 25.860310646668495 25.827222475169634 25.830658530112213 25.87115128433676 25.884144789435705
          25.8683157403646 25.981290618854736 25.91355252234455 26.056654502361013 25.923458344174357 25.876230501767004
          25.92997479839852 25.89870875793349 25.939239975940175 25.881999521409536 25.93093691011767 26.088211052917703
          25.988090186122456 25.932148842632714 25.99883018100671 26.24218871520121 26.085643477828874 26.086419359433524
          26.06609111420486 26.2297336889608 25.949025937301723 25.972594640888705 26.09574579056642 26.00459729301643
          25.96930747286396 26.22839078081156 26.07717117439294 27.105387800482063 26.62826500649209 26.41869115722489
          26.769266096980417 28.020365121056578 27.184302287144583 27.360101314415722 26.469589187080246 26.817283159496917
          29.234657858370653 27.881412391235667 28.07897752066334 27.20833213482341 26.636865840817272 27.040017501418596
          30.40089640061626 28.514693111483975 28.721075792886985 27.533697602143327 30.901807958191824 28.778481054488275
          28.986976229828283 27.66243882276486 27.395199681888485 27.53999759690467 26.436491033787973 26.192010071239537
          26.641782622687224 26.298147754054206 26.387593571375128 26.161326905077075 26.076650510365177 26.547287831827123
          26.09760203393529 26.242134509285687 26.02457103136858 26.803565650636344 26.378534275249553 26.865369966944623
          26.408674231519708 26.1368106262534 26.049667743670163 26.151274325103344 26.058877384424953
        </DataArray>
        <DataArray type="Float64" Name="dk/dtemperature" format="ascii" RangeMin="0.010958740355833363" RangeMax="0.015804580349343195">
          0.015804580349343192 0.015794138899959315 0.015804580349343192 0.015804580349343192 0.015391702796597531 0.015804580349343192
          0.01580458034934319 0.015804580349343192 0.015804580349343192 0.015804580349343192 0.015804580349343192 0.015804580349343192
          0.015804580349343192 0.015804580349343192 0.01578369745057543 0.015804580349343192 0.015804580349343195 0.015804580349343192
          0.015804580349343192 0.015804580349343192 0.015804580349343192 0.015804580349343192 0.015804580349343192 0.015804580349343192
          0.015804580349343192 0.015804580349343192 0.014710867430994267 0.015596946467317989 0.014361892337941114 0.015804580349343192
          0.015804580349343192 0.015606192811049496 0.015804580349343192 0.015804580349343192 0.015472844180363814 0.015804580349343192
          0.015804580349343192 0.015804580349343192 0.015804580349343192 0.015804580349343192 0.015804580349343192 0.015804580349343192
          0.015804580349343192 0.015804580349343192 0.015804580349343192 0.015804580349343192 0.015804580349343192 0.015804580349343192
          0.015804580349343192 0.015804580349343192 0.015804580349343192 0.015804580349343192 0.01580458034934319 0.015804580349343192
          0.015804580349343192 0.015804580349343192 0.015804580349343185 0.01580458034934319 0.01580458034934319 0.015804580349343192