<?xml version="1.0"?>
<VTKFile type="UnstructuredGrid" version="0.1" byte_order="LittleEndian" header_type="UInt32" compressor="vtkZLibDataCompressor">
  <UnstructuredGrid>
    <Piece NumberOfPoints="318" NumberOfCells="175">
      <PointData>
        <DataArray type="Int32" Name="libmesh_node_id" format="ascii" RangeMin="192" RangeMax="1646">
          192 302 432 433 439 457
          458 465 466 842 843 844
          864 876 877 878 879 880
          881 882 883 884 885 893
          894 895 896 897 898 899
          910 911 912 913 935 937
          948 949 950 951 952 953
          954 955 956 957 968 970
          972 974 1383 1384 1385 1386
          1387 1388 1389 1390 1391 1392
          1397 1398 1399 1404 1425 1426
          1427 1428 1429 1430 1431 1432
          1433 1434 1435 1436 1437 1438
          1439 1440 1441 1442 1443 1444
          1445 1446 1447 1448 1449 1450
          1451 1452 1453 1454 1455 1456
          1457 1458 1459 1460 1461 1462
          1463 1464 1465 1466 1467 1468
          1469 1470 1471 1472 1473 1474
          1475 1476 1477 1478 1479 1480
          1481 1482 1483 1484 1485 1486
          1487 1488 1489 1490 1491 1492
          1493 1494 1495 1496 1497 1498
          1499 1500 1501 1502 1503 1512
          1514 1518 1519 1520 1521 1522
          1523 1524 1525 1526 1527 1528
          1529 1530 1531 1532 1533 1534
          1535 1536 1537 1538 1539 1540
          1541 1542 1543 1544 1545 1546
          1547 1548 1549 1550 1551 1552
          1553 1554 1555 1556 1557 1558
          1559 1560 1561 1562 1563 1564
          1565 1566 1567 1568 1569 1570
          1571 1572 1573 1574 1575 1576
          1577 1578 1579 1580 1581 1582
          1583 1584 1585 1606 1608 1610
          1612 1640 1642 1644 1646 435
          436 446 443 440 453 451
          463 484 468 490 823 834
          835 824 429 830 837 838
          840 827 845 430 841 859
          857 863 862 861 865 869
          871 854 887 889 438 891
          902 903 905 906 908 909
          916 917 924 925 922 927
          929 931 936 933 934 939
          945 969 971 973 962 975
          967 979 868 1402 1417 1418
          1420 437 1423 874 1504 1505
          1586 1587 1507 1590 1592 1593
          1595 1513 1591 1607 1609 959
          1611 1620 1621 1624 1626 1627
          1629 1625 1641 1643 965 1645
        </DataArray>
        <DataArray type="Float64" Name="bounds" format="ascii" RangeMin="0" RangeMax="0">
          0 0 0 0 0 0
          0 0 0 0 0 0
          0 0 0 0 0 0
          0 0 0 0 0 0
          0 0 0 0 0 0
          0 0 0 0 0 0
          0 0 0 0 0 0
          0 0 0 0 0 0
          0 0 0 0 0 0
          0 0 0 0 0 0
          0 0 0 0 0 0
          0 0 0 0 0 0
          0 0 0 0 0 0
          0 0 0 0 0 0
          0 0 0 0 0 0
          0 0 0 0 0 0
          0 0 0 0 0 0
          0 0 0 0 0 0
          0 0 0 0 0 0
          0 0 0 0 0 0
          0 0 0 0 0 0
          0 0 0 0 0 0
          0 0 0 0 0 0
          0 0 0 0 0 0
          0 0 0 0 0 0
          0 0 0 0 0 0
          0 0 0 0 0 0
          0 0 0 0 0 0
          0 0 0 0 0 0
          0 0 0 0 0 0
          0 0 0 0 0 0
          0 0 0 0 0 0
          0 0 0 0 0 0
          0 0 0 0 0 0
          0 0 0 0 0 0
          0 0 0 0 0 0
          0 0 0 0 0 0
          0 0 0 0 0 0
          0 0 0 0 0 0
          0 0 0 0 0 0
          0 0 0 0 0 0
          0 0 0 0 0 0
          0 0 0 0 0 0
          0 0 0 0 0 0
          0 0 0 0 0 0
          0 0 0 0 0 0
          0 0 0 0 0 0
          0 0 0 0 0 0
          0 0 0 0 0 0
          0 0 0 0 0 0
          0 0 0 0 0 0
          0 0 0 0 0 0
          0 0 0 0 0 0
        </DataArray>
        <DataArray type="Float64" Name="gradient_error" format="ascii" RangeMin="4.232730733318452e-9" RangeMax="2.8834681738467584e-7">
          1.0699620753681133e-8 2.6921517952985194e-7 9.801949091533148e-8 1.3261317464579888e-7 1.0592541619662592e-7 1.200227273061181e-7
          1.2520455732620887e-7 1.6161848112064716e-8 1.339603961831694e-7 8.525190293249396e-8 1.1724159576355365e-7 1.1197098548782694e-7
          1.1616147714638242e-7 1.2727084734540191e-8 5.284091367055207e-8 1.5558539342387657e-8 3.941927380264021e-8 1.2213795300775863e-7
          1.186419423193985e-7 6.850411090467798e-9 1.2026968258715307e-8 1.5306480688426566e-8 9.096517397729337e-8 1.337658416620423e-7
          1.4682550790011836e-7 1.1436411057410809e-7 1.190207147205716e-7 1.4181715355141218e-7 1.5782636767971062e-7 1.2277694864436026e-7
          1.1036000867355118e-7 1.0355486470952976e-7 1.1099642539568836e-7 1.2173652967115694e-7 1.193903240228571e-7 9.069824949029588e-8
          2.0570092689826224e-8 2.4877438347661403e-8 2.6760425310193463e-8 3.113624768877595e-8 1.1258136556332974e-7 1.2239658031149758e-7
          1.4005057886440391e-8 2.1391265961528533e-8 2.861311115117213e-8 1.2098170200657085e-7 1.572927916654119e-7 1.1962818229922653e-7
          1.7163458672017025e-7 1.307882317347967e-7 1.7562520072573315e-8 1.900543943859888e-8 1.867705091825392e-8 2.0807241948992963e-8
          1.834866239790896e-8 2.3269674933116573e-8 2.2905946329980418e-8 2.5267609422677087e-8 2.2542217726844263e-8 2.4132639324644947e-8
          1.749278582848441e-8 1.7387756665874264e-8 1.7282727503264115e-8 1.719299913280473e-8 1.7230353188797823e-8 1.7704580416582136e-8
          1.7267707244790916e-8 1.789578562749354e-8 1.8029893322604703e-8 1.8792865031791133e-8 1.9296969035293726e-8 1.8164001017715866e-8
          1.980107303879632e-8 1.2872848230377402e-8 1.3988536319222756e-8 1.4177696310800782e-8 1.5918954521766238e-8 1.999632027920385e-8
          2.0695062468857536e-8 2.167880150232204e-8 2.243569282133277e-8 2.1393804658511223e-8 2.405218927385958e-8 1.3767261462868536e-8
          1.5208794177520647e-8 1.6885937765479592e-8 1.7627721343906574e-8 1.8026027886779407e-8 1.9571973755058824e-8 1.8503641024396315e-8
          2.5034208325098353e-8 2.429701710930496e-8 2.114249484243378e-8 2.3966437074456808e-8 2.270247943749336e-8 6.925036594208233e-9
          8.654082219153947e-9 7.933010018200811e-9 9.212641792123185e-9 1.3531779646753501e-8 1.3673220128767936e-8 4.890508544049858e-9
          6.713827526817865e-9 7.856587084239297e-9 1.217479732961903e-8 9.831626854519481e-9 1.0911738493757129e-8 1.2019830117302016e-8
          1.3183784913474158e-8 1.4790976118566422e-8 1.6598674611884042e-8 8.851696408593012e-9 9.890067240207615e-9 1.2199470515977578e-8
          1.3263066016362073e-8 1.7744735646376132e-8 1.8852027611415018e-8 1.880903984334492e-8 2.0849888531339723e-8 1.7463443405972854e-8
          1.8132081467771208e-8 1.9114438662293522e-8 2.0246543794685116e-8 2.2038296519028094e-8 2.290298548523217e-8 2.5226983523934416e-8
          1.935059274693645e-8 2.1094826089146858e-8 2.3103491532970977e-8 2.8148525418951562e-8 2.791019016457721e-8 3.0668484507284845e-8
          2.7160489273173036e-8 3.35457028017846e-8 3.3388196867097236e-8 3.609548002495066e-8 3.241902161858363e-8 2.5399612705706656e-8
          2.771447458398529e-8 2.4150101775270096e-8 2.965852301220926e-8 3.134809218149838e-8 2.770969371966112e-8 3.2620461834991945e-8
          2.98625227765252e-8 2.383064963931451e-8 2.453379228672739e-8 2.6425869219453894e-8 2.7040718458065098e-8 2.600995687235307e-8
          2.8335087720272673e-8 1.783095460591532e-8 1.9088815032447265e-8 2.182927120126647e-8 2.2480904022135936e-8 2.9338407783142375e-8
          2.988484352127043e-8 3.2382787140356524e-8 3.2872847540312054e-8 3.0960153083982165e-8 3.367046579930145e-8 2.3622773588393885e-8
          2.496826313084477e-8 2.8252061189675367e-8 2.787605999827906e-8 2.6184978740666486e-8 2.849557467777077e-8 2.558697867076711e-8
          2.7976541611672494e-8 2.6029608790342306e-8 2.8435878538839137e-8 2.744408499539194e-8 3.075755075704112e-8 3.289556644204119e-8
          3.00260746055164e-8 3.181310922574705e-8 3.116015393444432e-8 3.4010122029618906e-8 3.288194054562619e-8 1.429732577339143e-8
          1.5808863159800834e-8 1.6576165090636544e-8 1.8607491326322662e-8 1.9084378654948548e-8 2.2173488370623706e-8 1.2445516194629678e-8
          1.4597490663584706e-8 1.696939265895773e-8 1.8066373737158322e-8 1.86895954761454e-8 2.1395816189233787e-8 2.0587571221116387e-8
          2.4103332280631757e-8 2.561637291162751e-8 2.918407116892347e-8 1.5264756540003187e-8 1.923659629222166e-8 2.135275723758621e-8
          2.4981910376077582e-8 2.4220206022023185e-8 2.688035785285598e-8 2.7592055280359502e-8 3.0052556526473324e-8 2.335153923898808e-8
          2.616563339958995e-8 2.731979613619925e-8 2.99324099902234e-8 3.3228140359468563e-8 3.273411105951397e-8 3.570723172123731e-8
          2.9401090613431142e-8 3.2879077362283325e-8 3.204679651914725e-8 3.4710410586534465e-8 3.315816887014797e-8 3.678954293924263e-8
          3.7855132524459315e-8 3.657957127348031e-8 3.8815625749523624e-8 3.638041600655233e-8 3.837480141389936e-8 2.265915283741072e-7
          2.1041928502327795e-7 2.0654364765398775e-7 2.403212798096904e-7 2.7930663299760697e-7 2.53408669846269e-7 2.8834681738467584e-7
          1.719744061387452e-7 1.5787600765952572e-7 2.2906397653116185e-7 1.982984073698799e-7 1.124756478682922e-7 1.2484591044365206e-7
          1.1915718068724757e-7 1.0845807668458118e-7 9.932012715495258e-8 1.1465718086718881e-7 1.3652608307825594e-7 1.288625741797296e-7
          1.023592983188381e-7 9.58363619215021e-8 1.3886668000107046e-7 1.230657115860552e-7 1.0729167548999382e-7 7.890619565145079e-8
          7.854219091262463e-8 1.0986846095301619e-7 6.442810560411714e-8 6.583423611841617e-8 9.157477808994753e-8 7.197862626862029e-8
          1.1811867189900051e-7 1.0201876713123817e-7 1.2002808407595893e-7 1.0710200111484712e-7 1.032277043209215e-7 1.2564849585374477e-7
          1.4555397532055387e-7 1.358123774395924e-7 1.4944721754982557e-7 1.376817835191074e-7 1.0926704323020528e-7 1.066871860750519e-7
          1.4514638676192087e-7 1.3184351792419648e-7 1.2376246089495417e-7 1.1216445462742611e-7 9.836488365845266e-8 1.2089881544566892e-7
          7.623322662687914e-8 7.029249045065404e-8 1.1757877733576265e-7 6.000314635197857e-8 5.312695823959356e-8 6.14494534303312e-8
          1.0915800571817242e-7 1.617902542716873e-7 1.1427879367122258e-7 1.792907586973892e-7 1.2488719183080155e-7 1.5642279901805915e-7
          1.3991656294465929e-7 1.7590645008703058e-7 3.9496117249685155e-8 1.329275123169369e-8 7.1974119673315924e-9 9.16135138271867e-9
          1.3002235852408334e-8 4.232730733318452e-9 6.990072547484409e-9 3.894357614515707e-8 3.9005359297319976e-8 3.871388957306827e-8
          3.5350998913413334e-8 3.57972392379613e-8 3.6900410371137635e-8 3.625306593271511e-8 2.9766898049393275e-8 3.146007410155644e-8
          3.443860175387277e-8 3.332669147524284e-8 3.8487557252866646e-8 3.600816856490868e-8 3.388194927130571e-8 3.7540941978537786e-8
          3.9270613473432404e-8 2.226511288001012e-8 2.664026700612147e-8 3.26794689648349e-8 1.6693068190740383e-8 2.3240974711984384e-8
          3.2087455916216836e-8 3.587109438539782e-8 3.974015209364559e-8 4.185363141376396e-8 3.516533022059304e-8 3.96287228950009e-8
        </DataArray>
        <DataArray type="Float64" Name="gradient_matprop_error" format="ascii" RangeMin="0" RangeMax="0">
          0 0 0 0 0 0
          0 0 0 0 0 0
          0 0 0 0 0 0
          0 0 0 0 0 0
          0 0 0 0 0 0
          0 0 0 0 0 0
          0 0 0 0 0 0
          0 0 0 0 0 0
          0 0 0 0 0 0
          0 0 0 0 0 0
          0 0 0 0 0 0
          0 0 0 0 0 0
          0 0 0 0 0 0
          0 0 0 0 0 0
          0 0 0 0 0 0
          0 0 0 0 0 0
          0 0 0 0 0 0
          0 0 0 0 0 0
          0 0 0 0 0 0
          0 0 0 0 0 0
          0 0 0 0 0 0
          0 0 0 0 0 0
          0 0 0 0 0 0
          0 0 0 0 0 0
          0 0 0 0 0 0
          0 0 0 0 0 0
          0 0 0 0 0 0
          0 0 0 0 0 0
          0 0 0 0 0 0
          0 0 0 0 0 0
          0 0 0 0 0 0
          0 0 0 0 0 0
          0 0 0 0 0 0
          0 0 0 0 0 0
          0 0 0 0 0 0
          0 0 0 0 0 0
          0 0 0 0 0 0
          0 0 0 0 0 0
          0 0 0 0 0 0
          0 0 0 0 0 0
          0 0 0 0 0 0
          0 0 0 0 0 0
          0 0 0 0 0 0
          0 0 0 0 0 0
          0 0 0 0 0 0
          0 0 0 0 0 0
          0 0 0 0 0 0
          0 0 0 0 0 0
          0 0 0 0 0 0
          0 0 0 0 0 0
          0 0 0 0 0 0
          0 0 0 0 0 0
          0 0 0 0 0 0
        </DataArray>
        <DataArray type="Float64" Name="initial_marker" format="ascii" RangeMin="0.25" RangeMax="2">
          2 2 2 2 2 2
          2 2 2 2 2 2
          2 2 2 2 2 2
          2 2 2 2 2 2
          2 2 2 2 2 2
          2 2 2 2 2 2
          2 2 2 2 2 2
          2 2 2 2 2 2
          2 2 2 2 2 2
          2 2 2 2 2 2
          2 2 2 2 2 2
          2 2 2 2 2 2
          2 2 2 2 2 2
          2 2 2 2 2 2
          2 2 2 2 2 2
          2 2 2 2 2 2
          2 2 2 2 2 2
          2 2 2 2 2 2
          2 2 2 2 2 2
          2 2 2 2 2 2
          2 2 2 2 2 2
          2 2 2 2 2 2
          2 2 2 2 2 2
          2 2 2 2 2 2
          2 2 2 2 2 2
          2 2 2 2 2 2
          2 2 2 2 2 2
          2 2 2 2 2 2
          2 2 2 2 2 2
          2 2 2 2 2 2
          2 2 2 2 2 2
          2 2 2 2 2 2
          2 2 2 2 2 2
          2 2 2 2 2 2
          2 2 2 2 2 2
          2 2 2 2 2 2
          2 2 2 2 2 1.25
          1.5 0.5 0.25 1.5 1 0.5
          1.5 0.5 2 1 2 2
          2 2 2 2 2 2
          2 2 2 2 2 1.5
          1.5 2 1 1 2 2
          2 2 2 2 2 2
          2 2 2 2 2 2
          2 2 2 2 2 2
          1.5 1.5 2 1 1 1.5
          2 2 2 2 2 2
          2 2 2 2 2 2
          2 2 2 2 2 2
          2 2 2 2 2 2
          2 2 2 2 2 2
          2 2 2 2 2 2
          2 2 2 2 2 2
        </DataArray>
        <DataArray type="Float64" Name="markers_norefine" format="ascii" RangeMin="0" RangeMax="2">
          2 0 0 0 1 1
          0 2 1 0 0 0
          0 2 1.25 2 1.75 0
          0 2 2 2 0 0
          0 0 0 0 0 0
          1 0 0 0 0 0
          2 2 2 2 0.5 0.5
          2 2 2 1 0 0
          0 0 0 0 0 0
          0 0 0 0 0 0
          0 0 0 0 0.5 0
          1 0.5 0.25 1 0.75 0
          0.5 1.5 1.25 1.75 1 1
          1 1 1 1 1 2
          2 2 2 0.5 1 0
          0.5 0 1 1 0 2
          2 2 2 1.75 2 2
          2 2 2 2 2 2
          2 2 2 2 2 2
          2 0.75 1 0 0 1
          1 0 1.25 1.5 0.5 1
          1.5 2 1 1 0.5 1
          0 2 1 1 0 0
          0 0 0 0 0 0
          0 1.5 1.25 2 1.5 1
          1 2 2 2 2 2
          1.5 2 1.5 1 1 2
          2 2 2 0.5 0.5 0
          0 1.25 1.5 0.5 0.5 0.5
          0 0 1.5 1.5 1 2
          2 2 2 2 2 2
          2 2 2 2 2 2
          2 2 2 2 2 2
          2 1.75 2 1.5 2 2
          2 2 2 2 2 2
          2 2 2 0.5 0 1.5
          1 2 2 2 2 0
          0 0 0 0 0 0
          0 0 0 0 0 0
          0 0 0 0 0 0
          0 0 0 0 0 0
          0 0 0 0 0 0.5
          0 0 0 0 0 0
          0 0 0 0 0 0
          0 0 1 0 0 0
          0 0 0 0 0 0
          0 0 0 0 0.5 0
          1 0 1 1.3333333333333333 2 2
          1.6666666666666667 2 2 1.5 2 1
          2 1.5 0 1 2 2
          2 0 1 0.5 0 2
          1.5 2 2 2 2 2
          2 2 2 2 2 2
        </DataArray>
        <DataArray type="Float64" Name="markers_mustrefine" format="ascii" RangeMin="0.25" RangeMax="2">
          2 2 2 2 2 2
          2 2 2 2 2 2
          2 2 2 2 2 2
          2 2 2 2 2 2
          2 2 2 2 2 2
          2 2 2 2 2 2
          2 2 2 2 2 2
          2 2 2 2 2 2
          2 2 2 2 2 2
          2 2 2 2 2 2
          2 2 2 2 2 2
          2 2 2 2 2 2
          2 2 2 2 2 2
          2 2 2 2 2 2
          2 2 2 2 2 2
          2 2 2 2 2 2
          2 2 2 2 2 2
          2 2 2 2 2 2
          2 2 2 2 2 2
          2 2 2 2 2 2
          2 2 2 2 2 2
          2 2 2 2 2 2
          2 2 2 2 2 2
          2 2 2 2 2 2
          2 2 2 2 2 2
          2 2 2 2 2 2
          2 2 2 2 2 2
          2 2 2 2 2 2
          2 2 2 2 2 2
          2 2 2 2 2 2
          2 2 2 2 2 2
          2 2 2 2 2 2
          2 2 2 2 2 2
          2 2 2 2 2 2
          2 2 2 2 2 2
          2 2 2 2 2 2
          2 2 2 2 2 1.25
          1.5 0.5 0.25 1.5 1 0.5
          1.5 0.5 2 1 2 2
          2 2 2 2 2 2
          2 2 2 2 2 1.5
          1.5 2 1 1 2 2
          2 2 2 2 2 2
          2 2 2 2 2 2
          2 2 2 2 2 2
          1.5 1.5 2 1 1 1.5
          2 2 2 2 2 2
          2 2 2 2 2 2
          2 2 2 2 2 2
          2 2 2 2 2 2
          2 2 2 2 2 2
          2 2 2 2 2 2
          2 2 2 2 2 2
        </DataArray>
        <DataArray type="Float64" Name="gradient_marker" format="ascii" RangeMin="0" RangeMax="1">
          0 1 0.5 0.875 0.5 0.5
          0.75 0 0.5 0.5 0.75 0.625
          0.75 0 0.25 0 0.125 0.75
          0.625 0 0 0 0.5 1
          1 1 1 1 1 1
          0.5 0.5 0.5 0.75 0.75 0.5
          0 0 0 0 0.5 0.5
          0 0 0 0.5 1 1
          1 1 0 0 0 0
          0 0 0 0 0 0
          0 0 0 0 0 0
          0 0 0 0 0 0
          0 0 0 0 0 0
          0 0 0 0 0 0
          0 0 0 0 0 0
          0 0 0 0 0 0
          0 0 0 0 0 0
          0 0 0 0 0 0
          0 0 0 0 0 0
          0 0 0 0 0 0
          0 0 0 0 0 0
          0 0 0 0 0 0
          0 0 0 0 0 0
          0 0 0 0 0 0
          0 0 0 0 0 0
          0 0 0 0 0 0
          0 0 0 0 0 0
          0 0 0 0 0 0
          0 0 0 0 0 0
          0 0 0 0 0 0
          0 0 0 0 0 0
          0 0 0 0 0 0
          0 0 0 0 0 0
          0 0 0 0 0 0
          0 0 0 0 0 0
          0 0 0 0 0 0
          0 0 0 0 0 0.75
          0.75 0.75 1 1 0.75 1
          0.75 0.5 1 0.5 1 1
          1 1 0.75 0.875 1 1
          0.75 0.75 1 1 0.75 0.25
          0.25 0.75 0 0 0.5 0.5
          0.875 0.75 1 1 0.75 1
          1 1 1 0.875 0.75 0.625
          0.75 0.625 0.5 0.5 0.5 0.75
          0.25 0.25 0.75 0 0 0.25
          0.75 1 1 1 0.5 1
          0.5 1 0.25 0 0 0
          0 0 0 0.25 0 0
          0 0 0 0 0 0
          0 0 0 0 0 0
          0 0 0 0 0 0
          0 0 0 0 0 0
        </DataArray>
        <DataArray type="Float64" Name="gradient_matprop_marker" format="ascii" RangeMin="0" RangeMax="0">
          0 0 0 0 0 0
          0 0 0 0 0 0
          0 0 0 0 0 0
          0 0 0 0 0 0
          0 0 0 0 0 0
          0 0 0 0 0 0
          0 0 0 0 0 0
          0 0 0 0 0 0
          0 0 0 0 0 0
          0 0 0 0 0 0
          0 0 0 0 0 0
          0 0 0 0 0 0
          0 0 0 0 0 0
          0 0 0 0 0 0
          0 0 0 0 0 0
          0 0 0 0 0 0
          0 0 0 0 0 0
          0 0 0 0 0 0
          0 0 0 0 0 0
          0 0 0 0 0 0
          0 0 0 0 0 0
          0 0 0 0 0 0
          0 0 0 0 0 0
          0 0 0 0 0 0
          0 0 0 0 0 0
          0 0 0 0 0 0
          0 0 0 0 0 0
          0 0 0 0 0 0
          0 0 0 0 0 0
          0 0 0 0 0 0
          0 0 0 0 0 0
          0 0 0 0 0 0
          0 0 0 0 0 0
          0 0 0 0 0 0
          0 0 0 0 0 0
          0 0 0 0 0 0
          0 0 0 0 0 0
          0 0 0 0 0 0
          0 0 0 0 0 0
          0 0 0 0 0 0
          0 0 0 0 0 0
          0 0 0 0 0 0
          0 0 0 0 0 0
          0 0 0 0 0 0
          0 0 0 0 0 0
          0 0 0 0 0 0
          0 0 0 0 0 0
          0 0 0 0 0 0
          0 0 0 0 0 0
          0 0 0 0 0 0
          0 0 0 0 0 0
          0 0 0 0 0 0
          0 0 0 0 0 0
        </DataArray>
        <DataArray type="Float64" Name="combo" format="ascii" RangeMin="0" RangeMax="2">
          2 1 0.5 0.875 1.5 1.5
          0.75 2 1.5 0.5 0.75 0.625
          0.75 2 1.5 2 1.875 0.75
          0.625 2 2 2 0.5 1
          1 1 1 1 1 1
          1.5 0.5 0.5 0.75 0.75 0.5
          2 2 2 2 1 1
          2 2 2 1.5 1 1
          1 1 0 0 0 0
          0 0 0 0 0 0
          0 0 0 0 0.5 0
          1 0.5 0.25 1 0.75 0
          0.5 1.5 1.25 1.75 1 1
          1 1 1 1 1 2
          2 2 2 0.5 1 0
          0.5 0 1 1 0 2
          2 2 2 1.75 2 2
          2 2 2 2 2 2
          2 2 2 2 2 2
          2 0.75 1 0 0 1
          1 0 1.25 1.5 0.5 1
          1.5 2 1 1 0.5 1
          0 2 1 1 0 0
          0 0 0 0 0 0
          0 1.5 1.25 2 1.5 1
          1 2 2 2 2 2
          1.5 2 1.5 1 1 2
          2 2 2 0.5 0.5 0
          0 1.25 1.5 0.5 0.5 0.5
          0 0 1.5 1.5 1 2
          2 2 2 2 2 2
          2 2 2 2 2 2
          2 2 2 2 2 2
          2 1.75 2 1.5 2 2
          2 2 2 2 2 2
          2 2 2 0.5 0 1.5
          1 2 2 2 2 0.75
          0.75 0.75 1 1 0.75 1
          0.75 0.5 1 0.5 1 1
          1 1 0.75 0.875 1 1
          0.75 0.75 1 1 0.75 0.25
          0.25 0.75 0 0 0.5 1
          0.875 0.75 1 1 0.75 1
          1 1 1 0.875 0.75 0.625
          0.75 0.625 1.5 0.5 0.5 0.75
          0.25 0.25 0.75 0 0 0.25
          0.75 1 1 1 1 1
          1.5 1 1.25 1.3333333333333333 2 2
          1.6666666666666667 2 2 1.75 2 1
          2 1.5 0 1 2 2
          2 0 1 0.5 0 2
          1.5 2 2 2 2 2
          2 2 2 2 2 2
        </DataArray>
        <DataArray type="Float64" Name="dHdT" format="ascii" RangeMin="27.016377166398996" RangeMax="122.29017398122465">
          45.86133508092934 32.51725496985851 44.064596598749056 37.26228948847232 51.054761878074714 47.14831125526609
          35.514381358265354 46.268216630500284 49.6012520028013 40.231415494782524 39.0024710833535 40.50052893242791
          34.28590579167815 78.69533464423874 64.23481189345566 60.82472866641011 63.40182448905118 40.53384616941574
          43.3268432328394 47.81388845808262 79.76275955239821 60.54224177156381 45.178148078742836 36.7631000896251
          37.09583756156526 35.34497558197059 34.86115045474709 37.623728489502895 38.68134452775568 35.88828301264293
          47.64590142481708 41.55895002676107 41.62315559472441 35.950140378428756 33.66458163508206 32.00867526192858
          53.971808359717826 59.901026783306115 50.45281519688084 56.383461930416416 44.18092154807545 44.142953390713046
          46.1894388514672 52.404573942410764 50.218725379254295 51.200474019398214 36.89662311630318 34.21102982306527
          38.81597303349945 34.9428361680969 37.283835733133785 38.06527479006227 37.668208073449236 41.12285643767074
          37.2711413568362 49.02723580003311 45.604468128386145 48.19355787029308 42.18170045673918 37.853164318784735
          46.94995242871846 45.00901869219098 43.068084955663494 44.93114541141665 48.78220383768172 38.234564672027204
          52.633262263946776 50.1758598119814 47.75695212513335 57.36223447081194 53.72934252098563 45.3380444382853
          50.09645057115932 80.92890851874408 74.54364842141725 76.31769455296715 64.66728806109121 61.7531365876219
          57.94949215012779 61.953471345660795 59.24454318964724 54.14584771263369 53.43037685117875 68.0421280180442
          70.58852284445605 64.09965414531823 71.64562528852424 48.37115939429551 54.15871851974404 39.057231253498244
          43.24314454052195 39.26638859477505 57.72915843191422 56.08781026405177 46.7912763399915 88.95502508736578
          90.41081938364213 66.90297928675352 75.64769772368813 78.24530407693334 77.98359752401186 78.33867797114397
          89.58003810126723 64.99583494574247 86.19214982209704 53.603517900879595 61.043734497842365 47.02913548973124
          52.07433865128427 70.78004854226913 64.27602433238026 45.60181714088147 51.204939478642096 46.24489752093352
          67.14665663601599 53.1155567852447 59.16557422550125 41.60711909654121 46.7563695636015 57.85995417619388
          64.17242993125846 44.157006939584186 62.21980515651499 63.575956005747955 51.36346432329685 55.7194051595727
          66.71045188111573 67.33675899654783 55.9356523066022 53.4388487857652 50.83616016032197 53.005034901341844
          44.33594146319787 56.5195247578787 53.56151515307871 52.935887558165824 46.26041694311628 38.72469381237124
          39.60396100334716 37.01097623322548 39.62519505976127 39.60555993422663 37.33306178156867 39.492653135418905
          37.45519296699102 61.432188702278694 59.37197755482039 59.240570940537474 58.260569822798274 53.07920678786878
          53.87679558620313 57.620904831741896 59.43505194327787 55.755336817536346 61.77922259148288 56.483759049221796
          56.69894794458307 55.08424478066876 55.478063535680775 53.521164764867976 52.637538010185764 51.27946685311239
          53.25301820619883 52.0970255755626 58.014474719931464 44.181045391605686 45.163784340173436 39.5154436148359
          39.85454621299969 55.09339648172995 55.521407488933576 47.877546835307975 45.16203341871388 44.91113683296863
          40.19587414763614 40.419079936258534 55.133226288525634 54.15992716770299 49.464072696473615 45.93821442581093
          48.4576375491309 46.093161778119004 47.04884307661427 58.97996385499873 55.10181861450139 46.06014780693024
          45.95296616102488 46.10311726241055 56.2239546395714 46.17894232764539 46.42749487722922 46.22284653476447
          46.200139863594615 53.03396067485524 51.90889553927879 46.24694428963089 46.18533407814819 46.226468089259754
          50.82088449646722 62.104387061321255 59.78565123827424 57.225907085095905 57.37218962265525 63.659378130022745
          59.25209517568103 60.7166314960222 58.29373299586854 56.9041654336847 57.19559206883965 56.16797298123659
          57.019885192352326 55.70519026367404 58.52172525843569 44.31148220978547 40.01502625366831 52.90874890464402
          48.24514773812521 55.58822373326172 54.8076638635879 54.48926094138742 55.69989179127098 31.63359986661622
          30.71095333588249 27.562274859758247 28.0845848639168 33.37803519794867 28.08426229116666 28.717387074470846
          29.430416928208615 27.016377166398996 31.308169250510716 27.380259914512923 35.99104666495071 35.737862854213674
          35.3334600079441 35.64305288460033 39.20312994230675 38.87202335105016 35.73215811224193 35.09512875501589
          34.04406351515612 34.44700303039341 38.07006608346322 37.54618082198385 33.53630333591893 31.285583212052885
          31.831726425570185 34.77359339006036 29.956659150057767 30.504382982502644 33.383594616018826 51.29741325047942
          39.26162096505991 35.154131093981476 36.56253776204588 35.735390205522656 40.11059993646508 36.91756421813176
          35.907823257336226 34.874587273274365 35.43226617990231 34.24637282753808 32.90185591624994 32.114252150561995
          33.857590967198135 33.0051149868493 45.128187258464415 40.35901464464047 31.183123250112985 34.80981779463414
          30.661413437440654 29.955596719264662 32.84107976655629 29.360466331593923 28.7431686125792 29.17040401066066
          31.812224196049645 36.15126345088659 33.310786549164604 38.11294187601959 42.19483054061804 34.898535016501974
          47.24121606983692 36.643671652622544 71.77426349088458 71.40041368192009 107.59062746761867 95.37862583689417
          75.22103047189184 122.29017398122465 110.0237319765323 77.05252517925865 54.33107345055865 51.97902682262908
          54.053006599862485 54.35007960118858 45.57854674927315 51.627545384208645 49.992829148512755 51.50337336861786
          55.2931338299429 39.33346596565281 50.58790806006571 43.636464514903665 39.46568922213294 54.64523763182962
          51.48715188295411 46.24531901925952 46.26661856005871 51.328350851896715 46.279919490659864 46.24762276262977
          49.74697806305177 51.19318309978469 54.209236693985275 53.04708458389227 49.383054785934725 53.38363268621687
        </DataArray>
        <DataArray type="Float64" Name="dk/dtemperature" format="ascii" RangeMin="0.005746375000000015" RangeMax="0.12268923286604375">
          0.008214624999999982 0.009675569195898393 0.007875888642974956 0.007722266254161257 0.013531715020194245 0.04680225920508093
          0.008184953968439759 0.0062303750000000145 0.010693057738158946 0.007859582387485553 0.007798162770874237 0.007856396830058378
          0.00869213758198508 0.05568385099794247 0.03892939933099396 0.03240276169793687 0.037402328947621445 0.0086007663669419
          0.008490607368499032 0.00902825 0.05268116960079544 0.03168656250000002 0.009016608099739937 0.007956944831782872
          0.008092785285838523 0.007677480212910353 0.008102938899784787 0.00802471276886214 0.008239732349238183 0.006809831360028317
          0.012995738832151337 0.008017169805033237 0.00833600702058789 0.0079085981566798 0.008975905819706722 0.010316653044392214
          0.010842374999999991 0.030951352403898416 0.007718937500000007 0.02482023544381886 0.009452555474486826 0.021425997219661454
          0.00720675 0.008219000000000004 0.007594624999999997 0.045437282303179324 0.008117841404883282 0.008757103068344659
          0.008236960495234355 0.008015259108969493 0.008959008460424644 0.008919760912166716 0.008941147013314405 0.008906995903965275
          0.008962533114462096 0.008830340786761204 0.008865179254947207 0.008830911760317247 0.00890001772313321 0.009155259350487173
          0.008845439095537417 0.008866946848967472 0.008888454602397525 0.008842170517445607 0.009176868263140356 0.008902148828868587
          0.009511566008835105 0.011748989173875068 0.010315141266933545 0.03368236311548008 0.02453271829417578 0.00888129335999202
          0.015383073472871489 0.05972815085446179 0.051983017379009046 0.05599649425108473 0.032699426292462454 0.032717988488464606
          0.03146612470805449 0.03247876709191521 0.03293775723960425 0.03021426092764438 0.026058701403320922 0.032791380595084005
          0.04048684827939288 0.03418248885944563 0.05002185959940266 0.009265853484920204 0.02145122370699584 0.008909195899565667
          0.010255725330458099 0.009128841225540005 0.031267214821408304 0.028815260868968545 0.008833482772012145 0.06228640856969195
          0.0764959140852436 0.03095631250000001 0.04752530515889158 0.05867119752116436 0.05754570535467138 0.019694732866043736
          0.06071492893302179 0.023216062500000006 0.07269328240639603 0.008818250000000005 0.017853719448812 0.008429312499999994
          0.009862562500000002 0.045521979376592664 0.0359131612384941 0.00865937500000001 0.008800812500000008 0.008404749999999996