<?xml version="1.0"?>
<VTKFile type="UnstructuredGrid" version="0.1" byte_order="LittleEndian" header_type="UInt32" compressor="vtkZLibDataCompressor">
  <UnstructuredGrid>
    <Piece NumberOfPoints="379" NumberOfCells="170">
      <PointData>
        <DataArray type="Int32" Name="libmesh_node_id" format="ascii" RangeMin="231" RangeMax="1946">
          304 305 306 307 310 314
          315 455 456 459 460 461
          462 463 464 467 468 469
          470 476 483 484 485 486
          489 490 491 493 494 496
          497 498 499 703 704 705
          706 707 709 710 711 712
          713 714 718 719 904 905
          906 909 914 915 916 917
          918 919 920 921 922 923
          924 925 926 927 930 931
          934 936 938 939 940 941
          942 943 944 945 946 947
          958 959 960 961 962 963
          964 965 966 967 969 971
          973 975 976 977 978 979
          980 981 982 983 984 985
          986 989 990 992 993 995
          1010 1011 1012 1014 1017 1020
          1022 1024 1030 1031 1034 1036
          1037 1039 1050 1054 1064 1068
          1070 1072 1078 1080 1082 1214
          1215 1216 1217 1218 1221 1222
          1245 1246 1247 1248 1249 1250
          1251 1252 1253 1254 1255 1256
          1257 1258 1259 1260 1261 1283
          1284 1285 1286 1287 1288 1289
          1290 1291 1292 1293 1294 1295
          1296 1297 1298 1299 1300 1301
          1302 1303 1307 1308 1310 1311
          1312 1313 1314 1315 1316 1317
          1318 1321 1322 1323 1504 1505
          1506 1507 1508 1509 1510 1511
          1513 1515 1516 1517 1586 1587
          1588 1589 1590 1591 1592 1593
          1594 1595 1596 1597 1598 1599
          1600 1601 1602 1603 1604 1605
          1607 1609 1611 1613 1614 1615
          1616 1617 1618 1619 1620 1621
          1622 1623 1624 1625 1626 1627
          1628 1629 1630 1631 1632 1633
          1634 1635 1636 1637 1638 1639
          1641 1643 1645 1647 1648 1649
          1650 1651 1652 1653 1654 1655
          1656 1657 1658 1659 1660 1661
          1662 1666 1667 1669 1670 1672
          1673 1674 1675 1676 1677 1678
          1681 1682 1684 1686 1687 1688
          1689 1690 1691 1692 1693 1694
          1695 1698 1700 1701 1703 1704
          1705 1706 1707 1709 1711 1713
          1796 1797 1798 1799 1800 1801
          1804 1805 1807 1809 1810 1811
          1812 1813 1815 1817 1819 1888
          1889 1890 1891 1892 1893 1894
          1895 1896 1897 1910 1911 1912
          1920 1921 1922 1923 1924 1925
          1926 1927 1928 1929 1940 1941
          1942 1943 1944 1945 1946 312
          495 313 591 594 595 592
          231 308 598 597 232 311
          715 716 717 720 1219 1220
          1223 1304 1305 1306 1309 1319
          1320
        </DataArray>
        <DataArray type="Float64" Name="bounds" format="ascii" RangeMin="0" RangeMax="0">
          0 0 0 0 0 0
          0 0 0 0 0 0
          0 0 0 0 0 0
          0 0 0 0 0 0
          0 0 0 0 0 0
          0 0 0 0 0 0
          0 0 0 0 0 0
          0 0 0 0 0 0
          0 0 0 0 0 0
          0 0 0 0 0 0
          0 0 0 0 0 0
          0 0 0 0 0 0
          0 0 0 0 0 0
          0 0 0 0 0 0
          0 0 0 0 0 0
          0 0 0 0 0 0
          0 0 0 0 0 0
          0 0 0 0 0 0
          0 0 0 0 0 0
          0 0 0 0 0 0
          0 0 0 0 0 0
          0 0 0 0 0 0
          0 0 0 0 0 0
          0 0 0 0 0 0
          0 0 0 0 0 0
          0 0 0 0 0 0
          0 0 0 0 0 0
          0 0 0 0 0 0
          0 0 0 0 0 0
          0 0 0 0 0 0
          0 0 0 0 0 0
          0 0 0 0 0 0
          0 0 0 0 0 0
          0 0 0 0 0 0
          0 0 0 0 0 0
          0 0 0 0 0 0
          0 0 0 0 0 0
          0 0 0 0 0 0
          0 0 0 0 0 0
          0 0 0 0 0 0
          0 0 0 0 0 0
          0 0 0 0 0 0
          0 0 0 0 0 0
          0 0 0 0 0 0
          0 0 0 0 0 0
          0 0 0 0 0 0
          0 0 0 0 0 0
          0 0 0 0 0 0
          0 0 0 0 0 0
          0 0 0 0 0 0
          0 0 0 0 0 0
          0 0 0 0 0 0
          0 0 0 0 0 0
          0 0 0 0 0 0
          0 0 0 0 0 0
          0 0 0 0 0 0
          0 0 0 0 0 0
          0 0 0 0 0 0
          0 0 0 0 0 0
          0 0 0 0 0 0
          0 0 0 0 0 0
          0 0 0 0 0 0
          0 0 0 0 0 0
          0
        </DataArray>
        <DataArray type="Float64" Name="gradient_error" format="ascii" RangeMin="6.527891787394246e-10" RangeMax="2.2906397653116185e-7">
          1.4508503166303211e-8 3.902944630142391e-8 8.295403412554963e-8 7.206113999860847e-8 2.4841339965325675e-9 1.93043803695221e-8
          1.281939590805151e-7 1.5110599498425033e-7 1.1963126266021522e-7 6.340311158357224e-8 1.1767930699907241e-7 1.3911656125027678e-7
          1.1908982937249497e-7 1.719744061387452e-7 9.18013679992751e-8 1.3453681110419795e-7 2.2906397653116185e-7 7.399026457225153e-9
          5.191656195561839e-9 8.58043775334065e-9 1.174536079491715e-7 1.5787600765952572e-7 4.174725911323806e-8 7.487746151472303e-8
          3.27522493280516e-8 1.982984073698799e-7 9.552991598750271e-8 9.653373158273511e-9 1.0417834979809459e-8 3.341605506580575e-9
          1.0511335656212685e-8 1.561241095989839e-8 5.487624573438484e-9 1.1622011090526233e-7 9.830559820455972e-8 1.5769492350483882e-8
          5.283691055385198e-8 4.469979637581213e-8 8.039108550385714e-8 2.9757537784731883e-8 7.220016748033621e-9 7.661219059196286e-9
          5.535530183855037e-9 5.315677527743185e-9 7.724532271124173e-9 8.098192855514024e-9 8.819418365456398e-8 1.4944721754982557e-7
          1.376817835191074e-7 1.066871860750519e-7 8.430108865211797e-8 7.782821569240106e-8 1.4514638676192087e-7 1.3184351792419648e-7
          4.9504160387056274e-8 1.311330738267083e-7 1.1760018889740186e-7 6.101667117889963e-8 9.836488365845266e-8 8.50532916240751e-8
          1.2376246089495417e-7 1.1216445462742611e-7 1.3461086095207131e-7 1.2089881544566892e-7 4.971717607576817e-8 7.029249045065404e-8
          5.312695823959356e-8 1.1757877733576265e-7 4.152204337340528e-8 6.14494534303312e-8 2.5700018341819558e-8 5.1016409434502147e-8
          3.236608712169548e-8 4.470978863022914e-8 2.937668019956738e-8 1.0915800571817242e-7 9.491265211440298e-8 7.448924427447598e-8
          3.2490291271512347e-8 3.7540941978537786e-8 3.6824286143470214e-8 7.1162901289253e-8 1.2488719183080155e-7 1.4695747987599676e-7
          1.6626752566531986e-8 3.516533022059304e-8 3.960751045562138e-8 1.3991656294465929e-7 1.617902542716873e-7 1.1427879367122258e-7
          1.792907586973892e-7 1.5642279901805915e-7 1.4021621180451627e-7 1.0282564769885582e-7 6.858862340238353e-8 1.7590645008703058e-7
          1.5963428170528121e-7 1.1372629698752252e-7 2.5987151496874664e-8 2.3902032746857267e-8 6.751045829580193e-8 5.998920951496147e-8
          6.765217639426698e-9 1.8639792702491483e-8 4.258926067493859e-8 7.093722590192819e-8 9.253443942161989e-8 8.954124016870783e-8
          1.3806497337004268e-8 2.636213112126272e-8 5.697098655834937e-9 1.1237118394412833e-8 4.773953569247741e-8 2.9150088701785788e-9
          1.4099345385291052e-9 3.3141692322909264e-9 3.8684638374927556e-8 7.175245725156554e-8 9.945789651770562e-8 2.549099096853634e-8
          4.1831144528312586e-8 8.0928053361248e-8 7.17998979619549e-8 8.252809795673882e-8 1.9765426231679266e-8 1.3619835361020526e-8
          5.440748481937542e-9 1.1309086577703496e-8 3.1775691247772443e-9 2.1070775672439846e-9 2.4547499821091132e-9 8.711013633667153e-9
          1.2860559812753084e-8 8.981744545825012e-9 5.6190334385006894e-9 8.509694817322054e-9 3.891423705111983e-9 5.892811149727806e-9
          9.406732335170405e-9 1.2947235857857015e-8 9.751510294910875e-9 7.238744337343479e-9 1.0107443573698844e-8 3.837763858349628e-9
          5.454338492536652e-9 5.220710624878237e-9 7.184476894238536e-9 3.4381701424216024e-9 2.0268763593304526e-9 2.746381211018559e-9
          1.0341143810792088e-9 1.3613192192815697e-9 1.4390138647853687e-9 1.7461224585422842e-9 9.036093307394473e-10 1.1965449876006205e-8
          1.651861449017397e-8 1.5216882036880114e-8 1.2414407137906028e-8 6.513995531068472e-9 8.801368734313917e-9 6.689072776402041e-9
          9.107180330309917e-9 8.406410832135862e-9 1.3182820219080423e-8 1.2179082751557987e-8 3.606542807841937e-9 7.636947725568632e-9
          7.0692056596926275e-9 6.7472233822021065e-9 9.855175374860798e-9 5.612072809045439e-9 1.943702605474108e-9 1.8298607265889634e-9
          4.078102022034104e-9 3.755811432125102e-9 1.5341642569219567e-9 2.949957676510338e-9 4.787441639220018e-9 6.926861536340764e-9
          2.307711539218644e-9 3.856771782514992e-9 3.78607784799763e-9 5.318717606995487e-9 2.9908615407557287e-9 1.225918798341999e-9
          2.036641205566399e-9 1.0995279305439034e-9 1.6068879003282221e-9 8.410540256222983e-10 3.9005359297319976e-8 3.871388957306827e-8
          4.101790209204877e-8 3.6900410371137635e-8 4.3313629834848865e-8 4.2613103388672366e-8 4.281100947381217e-8 3.9325111544393087e-8
          3.332669147524284e-8 3.337853082708e-8 3.320310095387778e-8 3.001941550786971e-8 3.5350998913413334e-8 3.57972392379613e-8
          3.799649196312859e-8 3.8418609305175124e-8 3.625306593271511e-8 3.8487557252866646e-8 2.9766898049393275e-8 3.146007410155644e-8
          3.439269080303189e-8 3.443860175387277e-8 4.0077190076099005e-8 4.049658250441578e-8 4.140020903394426e-8 4.170239032840367e-8
          4.0085254431334905e-8 4.118736302912742e-8 3.4876395205019426e-8 3.693883392852524e-8 3.900988778046084e-8 4.014576865120201e-8
          3.600816856490868e-8 3.388194927130571e-8 3.9270613473432404e-8 3.659288337586999e-8 3.665881922568451e-8 3.393123282180272e-8
          3.376469260971293e-8 4.112674823038389e-8 4.263233542484168e-8 4.096323181039483e-8 2.226511288001012e-8 2.664026700612147e-8
          2.3573794050742035e-8 2.8844655024005222e-8 3.26794689648349e-8 3.587109438539782e-8 1.6693068190740383e-8 2.3240974711984384e-8
          2.472324496024812e-8 3.2087455916216836e-8 2.4951165096943337e-8 3.088223538618475e-8 2.6933239983562843e-8 3.292310973024343e-8
          3.855476788214078e-8 4.0669132185282416e-8 1.699029010119696e-8 2.6266864535478198e-8 2.8420215082560352e-8 3.7663395780154284e-8
          3.974015209364559e-8 4.185363141376396e-8 3.96287228950009e-8 4.2392380583670296e-8 4.4041321124438176e-8 4.448853107848518e-8
          4.5657357355235554e-8 4.233850063123279e-8 4.4191407860359465e-8 4.489364867191644e-8 5.917812259162876e-9 7.1399216751297706e-9
          6.93165872934125e-9 6.437992580637942e-9 1.2750433519556144e-8 5.002983523158416e-9 4.858042841170939e-9 6.4039670512199814e-9
          6.209913088262245e-9 4.4703124012732725e-9 5.7104061460404915e-9 1.179115967361096e-8 1.1311170681205503e-8 1.0169340143032792e-8
          4.732675140623353e-9 5.644965531373855e-9 4.652336130083504e-9 9.77289777549223e-9 3.881197710709173e-9 4.954048198549676e-9
          3.184685958785602e-9 4.049636372739136e-9 8.597231383392501e-9 6.805125229924913e-9 2.12865414645964e-8 2.0207993674620462e-8
          1.806730127042059e-8 4.247889486818019e-8 4.1325626769894314e-8 3.336176894873039e-8 4.017235867160843e-8 1.9360473330300757e-8
          1.8482693111413372e-8 1.646015372895503e-8 2.958628152837054e-8 2.843644572607251e-8 2.5347263308719392e-8 1.5316498040715606e-8
          1.1956730926908638e-8 2.262184583166109e-8 1.3762145404560005e-8 1.0675209057015563e-8 2.079602716506934e-8 1.5636807879506812e-8
          3.0400017483503305e-9 3.654308111499827e-9 3.1412856478572017e-9 5.933475271201133e-9 2.5195323001228105e-9 3.1513958695237045e-9
          2.204565460729679e-9 2.7066622238920144e-9 5.145966342269783e-9 4.122790064293918e-9 9.049359764017768e-9 6.417424545151056e-9
          1.2620556368401386e-8 7.936911947250605e-9 5.573586588922207e-9 1.1302030791411583e-8 7.789577487898718e-9 4.1749099498885353e-8
          4.162547651136484e-8 4.1005726857718746e-8 4.058936684525348e-8 4.1501853523844316e-8 3.8673812885238864e-8 3.818608224322375e-8
          4.013235495453042e-8 4.0400937046052714e-8 4.280476502874592e-8 4.365245177830125e-8 4.041571503873753e-8 4.304786380203892e-8
          2.8977948089054625e-8 3.441636958243255e-8 3.034196795184136e-8 3.499173647281887e-8 4.194634915086925e-8 4.2438197036204245e-8
          2.2603035821252267e-8 3.0493355508639617e-8 3.174799187576782e-8 4.110122494665972e-8 4.43002251638089e-8 4.347708572020238e-8
          4.456254310168978e-8 3.657762947540225e-8 4.494799854931656e-8 4.450299665406191e-8 4.607722240134064e-8 5.192350799943267e-8
          3.1331976228469402e-9 6.796660275561684e-9 8.40793376297631e-9 2.555388075954234e-9 2.1175705240971418e-9 5.943328540887607e-9
          3.892156717446912e-9 2.8432610257785195e-9 1.6797529722400497e-9 3.4787233187989036e-9 5.326090483508665e-9 4.5288746344195624e-8
          2.8837975782069825e-9 2.0945613095712596e-9 1.8442286328300345e-9 2.5477135447812435e-9 1.642340187437872e-9 2.6726705007933268e-9
          1.8437811450752644e-9 9.565014731290374e-10 2.0004581119893656e-9 1.8428255610268591e-9 1.4477621511134193e-9 6.527891787394246e-10
          1.025692658892392e-9
        </DataArray>
        <DataArray type="Float64" Name="gradient_matprop_error" format="ascii" RangeMin="0" RangeMax="0">
          0 0 0 0 0 0
          0 0 0 0 0 0
          0 0 0 0 0 0
          0 0 0 0 0 0
          0 0 0 0 0 0
          0 0 0 0 0 0
          0 0 0 0 0 0
          0 0 0 0 0 0
          0 0 0 0 0 0
          0 0 0 0 0 0
          0 0 0 0 0 0
          0 0 0 0 0 0
          0 0 0 0 0 0
          0 0 0 0 0 0
          0 0 0 0 0 0
          0 0 0 0 0 0
          0 0 0 0 0 0
          0 0 0 0 0 0
          0 0 0 0 0 0
          0 0 0 0 0 0
          0 0 0 0 0 0
          0 0 0 0 0 0
          0 0 0 0 0 0
          0 0 0 0 0 0
          0 0 0 0 0 0
          0 0 0 0 0 0
          0 0 0 0 0 0
          0 0 0 0 0 0
          0 0 0 0 0 0
          0 0 0 0 0 0
          0 0 0 0 0 0
          0 0 0 0 0 0
          0 0 0 0 0 0
          0 0 0 0 0 0
          0 0 0 0 0 0
          0 0 0 0 0 0
          0 0 0 0 0 0
          0 0 0 0 0 0
          0 0 0 0 0 0
          0 0 0 0 0 0
          0 0 0 0 0 0
          0 0 0 0 0 0
          0 0 0 0 0 0
          0 0 0 0 0 0
          0 0 0 0 0 0
          0 0 0 0 0 0
          0 0 0 0 0 0
          0 0 0 0 0 0
          0 0 0 0 0 0
          0 0 0 0 0 0
          0 0 0 0 0 0
          0 0 0 0 0 0
          0 0 0 0 0 0
          0 0 0 0 0 0
          0 0 0 0 0 0
          0 0 0 0 0 0
          0 0 0 0 0 0
          0 0 0 0 0 0
          0 0 0 0 0 0
          0 0 0 0 0 0
          0 0 0 0 0 0
          0 0 0 0 0 0
          0 0 0 0 0 0
          0
        </DataArray>
        <DataArray type="Float64" Name="initial_marker" format="ascii" RangeMin="0" RangeMax="2">
          0 0 1 0 0 2
          2 1 1 1 2 2
          0 1.5 1.5 2 2 1
          0.5 0 0 0.5 0 0.25
          0 1 0.5 0 0 0
          0 0 0 0 0 0
          0 0 0 0 0 0
          0 0 0 0 2 2
          2 2 2 2 2 2
          1.3333333333333333 2 2 2 2 2
          2 2 2 2 1 1.5
          1 2 1 1.5 0.6666666666666666 1.5
          0 1 0.6666666666666666 2 2 2
          2 2 2 2 2 2
          2 2 2 2 2 2
          2 2 2 2 2 2
          2 2 1 1 2 2
          1 0.75 2 2 2 2
          0.25 1.5 0 0 2 0
          0 0 2 2 2 2
          2 2 2 2 0.5 0.25
          0 0 0 0 0 0
          0 0 0 0 0 0
          0 0 0 0 0 0
          0 0 0 0 0 0
          0 0 0 0 0 0
          0 0 0 0 0 0
          0 0 0 0 0 0
          0 0 0 0 0 0
          0 0 0 0 0 0
          0 0 0 0 0 0
          0 0 0 0 2 2
          2 2 2 2 2 2
          2 2 2 2 2 2
          2 2 2 2 2 2
          2 2 2 2 2 2
          2 2 2 2 2 2
          2 2 2 2 2 2
          2 2 2 2 2 2
          2 2 2 2 2 2
          2 2 2 2 2 2
          2 2 2 2 2 2
          2 2 2 2 2 2
          2 2 2 2 2 2
          2 2 2 2 2 2
          2 2 2 2 2 2
          2 2 1.5 2 2 2
          1 1.5 2 2 2 2
          2 2 2 2 2 2
          2 2 2 2 2 2
          2 2 2 2 2 2
          0 1 1 2 0 1
          0 1 2 2 2 2
          2 2 2 2 2 2
          2 2 2 2 2 2
          2 2 2 2 2 2
          2 2 2 2 2 2
          2 2 2 2 2 2
          2 2 2 2 2 0
          0 0 0 0 0 0
          0 0 0 0 0 0
          0 0 0 0 0 0
          0 0 0 0 0 0
          0
        </DataArray>
        <DataArray type="Float64" Name="markers_norefine" format="ascii" RangeMin="0" RangeMax="2">
          0 0 0 0 0 2
          0 0 0 0 0 0
          0 0 0 0.5 0 0
          0 0 0 0 0 0
          0 0 0 0 0 0
          0 0 0 0 0 0
          0 0 0 0 0 0
          0 0 0 0 0 0
          0 0 0 0 0 0
          0 0 0 0 0 0
          1 0 0 0 0 0
          0 0 0 0 0 0
          0 0 0 0 0 0
          2 2 2 1.75 0.5 0
          2 2 2 1 0 0
          0 0 0 0 0 0
          0 0 0 0 0 0
          0 0 0 0 0 0
          0 0 0 0 0 0
          0 0 2 1.5 0 2
          2 0 0 0 0 0
          0 0 0 0 0 0
          0 0 0 0 0 0
          0 0 0 0 0 0
          0 0 0 0 0 0
          0 0 0 0 0 0
          0 0 0 0 0 0
          0 0 0 0 0 0
          0 0 0 0 0 0
          0 0 0 0 0 0
          0 0 0 0 0 0
          0 0 0 0 2 1
          1 0 1 0.5 0 0
          0 0 0 0 2 1.5
          2 1.5 1 1 2 2
          2 2 1.5 1.25 1 1
          1 1 2 2 2 2
          0.5 0 1.5 0.5 0.5 0
          0 1.25 1 0.5 2 2
          2 2 2 2 2 2
          2 2 2 2 2 2
          2 2 2 2 2 2
          2 2 2 1.75 1.25 1.5
          0.5 2 1.5 2 0 0
          0 0 0 0 0 0
          0 0 0 0 0 0
          0 0 0 0 0 0
          0 0 0 0 0 0
          0 0 0 0 0 0
          0 0 0 0 0 0
          0 0 0 0 0 0
          0 0 0 0 0 0
          0 0 0 0 0 0
          0 0 0 0 0 1
          1 1 1 1 0.6666666666666666 2
          2 2 2 1 0.6666666666666666 0
          2 2 2 2 2 2
          2 2 2 2 1 1
          0 0 1 1 0 0
          0 0 0 0 0 0
          0 0 0 0 0 0
          0 0 0 0 0 0
          0 0 0 0 0 0
          0
        </DataArray>
        <DataArray type="Float64" Name="markers_mustrefine" format="ascii" RangeMin="0" RangeMax="2">
          0 0 1 0 0 2
          2 1 1 1 2 2
          0 1.5 1.5 2 2 1
          0.5 0 0 0.5 0 0.25
          0 1 0.5 0 0 0
          0 0 0 0 0 0
          0 0 0 0 0 0
          0 0 0 0 2 2
          2 2 2 2 2 2
          1.3333333333333333 2 2 2 2 2
          2 2 2 2 1 1.5
          1 2 1 1.5 0.6666666666666666 1.5
          0 1 0.6666666666666666 2 2 2
          2 2 2 2 2 2
          2 2 2 2 2 2
          2 2 2 2 2 2
          2 2 1 1 2 2
          1 0.75 2 2 2 2
          0.25 1.5 0 0 2 0
          0 0 2 2 2 2
          2 2 2 2 0.5 0.25
          0 0 0 0 0 0
          0 0 0 0 0 0
          0 0 0 0 0 0
          0 0 0 0 0 0
          0 0 0 0 0 0
          0 0 0 0 0 0
          0 0 0 0 0 0
          0 0 0 0 0 0
          0 0 0 0 0 0
          0 0 0 0 0 0
          0 0 0 0 2 2
          2 2 2 2 2 2
          2 2 2 2 2 2
          2 2 2 2 2 2
          2 2 2 2 2 2
          2 2 2 2 2 2
          2 2 2 2 2 2
          2 2 2 2 2 2
          2 2 2 2 2 2
          2 2 2 2 2 2
          2 2 2 2 2 2
          2 2 2 2 2 2
          2 2 2 2 2 2
          2 2 2 2 2 2
          2 2 2 2 2 2
          2 2 1.5 2 2 2
          1 1.5 2 2 2 2
          2 2 2 2 2 2
          2 2 2 2 2 2
          2 2 2 2 2 2
          0 1 1 2 0 1
          0 1 2 2 2 2
          2 2 2 2 2 2
          2 2 2 2 2 2
          2 2 2 2 2 2
          2 2 2 2 2 2
          2 2 2 2 2 2
          2 2 2 2 2 0
          0 0 0 0 0 0
          0 0 0 0 0 0
          0 0 0 0 0 0
          0 0 0 0 0 0
          0
        </DataArray>
        <DataArray type="Float64" Name="gradient_marker" format="ascii" RangeMin="0" RangeMax="1">
          0.75 0.875 0.25 0.5 1 0
          0.75 1 0.625 0.25 0.5 0.875
          0.6666666666666666 0.75 0.375 0.5 1 1
          1 1 0.5 0.5 0.6666666666666666 0.5
          0.5 0.5 0.5 1 1 1
          1 1 1 0.5 0.5 0.5
          0.5 0.5 0.5 0.6666666666666666 1 1
          1 1 1 1 0.75 1
          0.875 0.625 0.5 0.25 0.75 0.625
          0 0.5 0.5 0 0.5 0.5
          0.5 0.5 0.625 0.75 0 0.25
          0 0.75 0 0.25 0 0.25
          0 0 0 0.75 0.625 0.5
          0 0 0 0.125 0.5 0.625
          0 0 0 0.5 1 1
          1 1 0.875 1 0.5 1
          1 1 0.5 0.5 0.75 0.75
          1 0.5 0.75 0.75 0.875 1
          0.5 0.625 1 0.5 0.75 1
          1 1 0.5 0.625 0.875 0.5
          0.5 0.75 0.875 1 0 0.5
          1 0.5 1 1 1 1
          1 1 1 1 1 1
          0 0 0 0.5 0.5 1
          1 0.5 0.5 1 1 1
          1 1 1 1 1 0
          0 0 0 0 0 0
          0.5 0.5 0.5 0.5 1 1
          1 0.5 0.5 1 1 1
          1 1 1 1 0.5 0.5
          1 1 0.5 0.5 1 1
          1 1 1 1 0 0
          0 0 0 0 0 0
          0 0 0 0 0 0
          0 0 0 0 0 0
          0 0 0 0 0 0
          0 0 0 0 0 0
          0 0 0 0 0 0
          0 0 0 0 0 0
          0 0 0 0 0 0
          0 0 0 0 0 0
          0 0 0 0 0 0
          0 0 0 0 0 0
          0 0 0 0 1 1
          1 1 1 1 1 1
          1 1 1 1 1 1
          1 1 1 1 1 1
          1 1 1 1 1 1
          1 0 0 0.6666666666666666 0 1
          1 1 1 1 1 1
          1 1 1 1 1 1
          1 1 1 1 1 1
          1 1 1 1 1 1
          1 1 1 1 1 0
          0 0.5 0.5 0 0.6666666666666666 0
          0 0.5 0 0 0.6666666666666666 0
          0 0 0.5 0.5 0 0.5
          0 0 0.5 0 0 0.5
          0 0.6666666666666666 0 0.5 0 0.875
          1 1 1 1 1 1
          1 1 1 1 1 1
          1 1 1 1 1 1
          1 1 1 1 1 1
          1
        </DataArray>
        <DataArray type="Float64" Name="gradient_matprop_marker" format="ascii" RangeMin="0" RangeMax="0">
          0 0 0 0 0 0
          0 0 0 0 0 0
          0 0 0 0 0 0
          0 0 0 0 0 0
          0 0 0 0 0 0
          0 0 0 0 0 0
          0 0 0 0 0 0
          0 0 0 0 0 0
          0 0 0 0 0 0
          0 0 0 0 0 0
          0 0 0 0 0 0
          0 0 0 0 0 0
          0 0 0 0 0 0
          0 0 0 0 0 0
          0 0 0 0 0 0
          0 0 0 0 0 0
          0 0 0 0 0 0
          0 0 0 0 0 0
          0 0 0 0 0 0
          0 0 0 0 0 0
          0 0 0 0 0 0
          0 0 0 0 0 0
          0 0 0 0 0 0
          0 0 0 0 0 0
          0 0 0 0 0 0
          0 0 0 0 0 0
          0 0 0 0 0 0
          0 0 0 0 0 0
          0 0 0 0 0 0
          0 0 0 0 0 0
          0 0 0 0 0 0
          0 0 0 0 0 0
          0 0 0 0 0 0
          0 0 0 0 0 0
          0 0 0 0 0 0
          0 0 0 0 0 0
          0 0 0 0 0 0
          0 0 0 0 0 0
          0 0 0 0 0 0
          0 0 0 0 0 0
          0 0 0 0 0 0
          0 0 0 0 0 0
          0 0 0 0 0 0
          0 0 0 0 0 0
          0 0 0 0 0 0
          0 0 0 0 0 0
          0 0 0 0 0 0
          0 0 0 0 0 0
          0 0 0 0 0 0
          0 0 0 0 0 0
          0 0 0 0 0 0
          0 0 0 0 0 0
          0 0 0 0 0 0
          0 0 0 0 0 0
          0 0 0 0 0 0
          0 0 0 0 0 0
          0 0 0 0 0 0
          0 0 0 0 0 0
          0 0 0 0 0 0
          0 0 0 0 0 0
          0 0 0 0 0 0
          0 0 0 0 0 0
          0 0 0 0 0 0
          0
        </DataArray>
        <DataArray type="Float64" Name="combo" format="ascii" RangeMin="0" RangeMax="2">
          0.75 0.875 0.25 0.5 1 2
          0.75 1 0.625 0.25 0.5 0.875
          0.6666666666666666 0.75 0.375 1 1 1
          1 1 0.5 0.5 0.6666666666666666 0.5
          0.5 0.5 0.5 1 1 1
          1 1 1 0.5 0.5 0.5
          0.5 0.5 0.5 0.6666666666666666 1 1
          1 1 1 1 0.75 1
          0.875 0.625 0.5 0.25 0.75 0.625
          0 0.5 0.5 0 0.5 0.5
          1.5 0.5 0.625 0.75 0 0.25
          0 0.75 0 0.25 0 0.25
          0 0 0 0.75 0.625 0.5
          2 2 2 1.875 1 0.625
          2 2 2 1.5 1 1
          1 1 0.875 1 0.5 1
          1 1 0.5 0.5 0.75 0.75
          1 0.5 0.75 0.75 0.875 1
          0.5 0.625 1 0.5 0.75 1
          1 1 2 1.75 0.875 2
          2 0.75 0.875 1 0 0.5
          1 0.5 1 1 1 1
          1 1 1 1 1 1
          0 0 0 0.5 0.5 1
          1 0.5 0.5 1 1 1
          1 1 1 1 1 0
          0 0 0 0 0 0
          0.5 0.5 0.5 0.5 1 1
          1 0.5 0.5 1 1 1
          1 1 1 1 0.5 0.5
          1 1 0.5 0.5 1 1
          1 1 1 1 2 1
          1 0 1 0.5 0 0
          0 0 0 0 2 1.5
          2 1.5 1 1 2 2
          2 2 1.5 1.25 1 1
          1 1 2 2 2 2
          0.5 0 1.5 0.5 0.5 0
          0 1.25 1 0.5 2 2
          2 2 2 2 2 2
          2 2 2 2 2 2
          2 2 2 2 2 2
          2 2 2 1.75 1.25 1.5
          0.5 2 1.5 2 1 1
          1 1 1 1 1 1
          1 1 1 1 1 1
          1 1 1 1 1 1
          1 1 1 1 1 1
          1 0 0 0.6666666666666666 0 1
          1 1 1 1 1 1
          1 1 1 1 1 1
          1 1 1 1 1 1
          1 1 1 1 1 1
          1 1 1 1 1 1
          1 1.25 1.25 1 1.1666666666666667 2
          2 2 2 1 1.1666666666666667 0
          2 2 2 2 2 2
          2 2 2 2 1 1.25
          0 0.6666666666666666 1 1.25 0 0.875
          1 1 1 1 1 1
          1 1 1 1 1 1
          1 1 1 1 1 1
          1 1 1 1 1 1
          1
        </DataArray>
        <DataArray type="Float64" Name="dHdT" format="ascii" RangeMin="25.816533468146787" RangeMax="55.2931338299429">
          25.880463535792376 25.88709681535677 28.201114646211167 26.50662715652247 25.882246893054244 46.28495802020126
          29.5849216618384 29.69148637299811 28.484106237374256 27.462455051091755 41.62128469576875 34.27339716544808
          27.231690082209855 29.430416928208615 28.079511837705198 44.35503507824323 31.308169250510716 26.563329733056186
          26.321390018136864 26.069504791433495 26.652494418285073 27.016377166398996 26.161053751661296 26.47477543248189
          26.06502405683711 27.380259914512923 26.680546453385652 25.92446897975445 26.000611611881773 25.87268676777626
          25.894055531835033 25.934439976737913 25.861257128936515 26.700189877847706 26.553161523099007 25.930123101996667
          26.284785572287667 26.208532560058373 26.406133168350305 26.069053855190504 25.873296992559368 25.870210430390927
          25.932597331879514 25.915889818102922 25.862734857122806 25.899673598689972 31.35365232446932 35.43226617990231
          34.24637282753808 32.114252150561995 30.704579862164984 30.18085295452447 33.857590967198135 33.0051149868493
          28.31574519594047 32.229274444642876 31.680915267659874 29.019059205836232 31.183123250112985 30.145486898370564
          45.128187258464415 40.35901464464047 38.15886810735375 34.80981779463414 28.418618931170336 29.955596719264662
          28.7431686125792 32.84107976655629 27.86975800960345 29.17040401066066 27.02628765056333 28.343632667547944
          27.358523654418384 28.127200527595818 27.217259570565858 31.812224196049645 30.656900723985622 30.034332299825643
          49.65878465534692 54.64523763182962 51.376239071592124 52.08844399962331 42.19483054061804 39.740307480936096
          46.28735018019421 49.383054785934725 51.004426035468384 47.24121606983692 36.15126345088659 33.310786549164604
          38.11294187601959 34.898535016501974 33.144987932774725 32.101794213040776 29.56271576909006 36.643671652622544
          34.32487623178547 33.03080122720352 27.403824579215105 27.25413604518065 30.917702567126987 30.285382558078528
          26.49037714201343 26.902474338968887 28.868502572279255 38.48343843824354 36.377058286799105 33.168252235874284
          26.527575669536212 27.4735162393876 26.17019022551213 26.33614017081527 29.284550672758225 25.997080165843396
          25.902309172562205 25.970915707056147 53.43026919870131 49.79055715180866 37.124832952389575 46.20525077356458
          53.222499737392596 39.787635022013696 31.384826503168973 32.38600279014297 26.727925466890845 26.51233517472245
          26.153830641284987 26.278191542311426 25.991570895855702 25.91355252234455 25.948420243787353 25.86548293278785
          25.909491026191034 25.87626721275744 25.849740929822467 25.878924501572477 25.841136013621806 25.857940551578277
          26.27129479116752 26.42034368546779 26.24660391730127 26.17303192712935 26.286904095757897 26.016154276223872
          26.074221367207123 26.088053644287193 26.149925367602858 25.999339099260865 25.92400199290539 25.951371985260515
          25.87115128433676 25.884144789435705 25.899986936769075 25.915531251543754 25.8683157403646 26.223882065614333
          26.57565528442059 26.52227490066302 26.39936106947924 26.114218963839228 26.25797743687599 26.18612725169895
          26.145299938124943 26.12678318941802 26.411258297189086 26.369606354088223 25.983003632913853 26.14945266065906
          26.125783795369497 26.085867077262627 26.27138091530073 26.06799933782968 25.913263928788083 25.908272716875906
          25.993507969770064 25.980313366323912 25.89604633163752 25.94870424522653 26.045519149757443 26.160844400404905
          25.94039122020291 26.006536251643432 26.027570585700726 26.106881381195723 25.97918875770744 25.883573349743838
          25.91686000569695 25.878335541176355 25.9034302838186 25.860310646668495 54.33107345055865 51.97902682262908
          50.88351604073891 45.57854674927315 51.70126227614927 49.069715397482895 46.111988405440165 43.40519185508601
          39.33346596565281 38.81605039664778 38.37804668316045 37.25988560194007 54.053006599862485 54.35007960118858
          53.17114669669503 53.26986150457603 51.627545384208645 50.58790806006571 49.992829148512755 51.50337336861786
          51.33467070718544 55.2931338299429 53.073636569927615 52.33307956155727 52.4013294107047 51.00748958924845
          48.95798007191047 48.1509727564408 50.32837799708321 51.68198590666601 52.56117854410919 53.77343455584888
          43.636464514903665 39.46568922213294 51.48715188295411 42.75450636603421 42.152218855665076 39.185575141434406
          39.078818977592164 49.8367642286977 49.33000053977412 45.16225316194644 46.24531901925952 46.26661856005871
          46.25419927109776 46.63458833329442 51.328350851896715 51.19318309978469 46.279919490659864 46.24762276262977
          46.2560422206311 49.74697806305177 46.25007294551164 47.009469869633044 46.22809627557342 47.723649847891046