<?xml version="1.0"?>
<VTKFile type="UnstructuredGrid" version="0.1" byte_order="LittleEndian" header_type="UInt32" compressor="vtkZLibDataCompressor">
  <UnstructuredGrid>
    <Piece NumberOfPoints="445" NumberOfCells="249">
      <PointData>
        <DataArray type="Int32" Name="libmesh_node_id" format="ascii" RangeMin="395" RangeMax="3784">
          396 481 482 484 486 578
          580 584 585 757 770 775
          778 779 782 784 1082 1083
          1086 1087 1088 1089 1091 1524
          1526 1527 1556 1557 1558 1560
          1561 1592 1593 1594 1595 1596
          1597 1598 1599 1630 1631 1632
          1633 1634 1635 1636 1654 1655
          1656 1657 1658 1659 1660 1661
          1662 1663 1773 1778 1815 1816
          1817 1818 1819 1820 1821 1911
          1912 1913 1914 1915 1916 1917
          1918 1919 1920 1921 1922 1923
          1924 1925 1926 1927 1928 1929
          1930 1931 1932 1933 1934 1935
          1936 1937 3038 3039 3042 3051
          3053 3054 3055 3056 3057 3058
          3059 3060 3061 3062 3264 3265
          3268 3270 3272 3274 3276 3277
          3278 3279 3280 3281 3282 3292
          3293 3296 3298 3300 3302 3304
          3305 3306 3307 3308 3309 3310
          3438 3439 3440 3443 3444 3445
          3446 3447 3448 3449 3450 3451
          3452 3453 3454 3455 3456 3457
          3458 3459 3460 3461 3462 3463
          3464 3465 3466 3467 3468 3469
          3470 3471 3473 3612 3613 3616
          3617 3618 3619 3620 3621 3622
          3623 3624 3625 3626 3627 3628
          3629 3630 3631 3632 3633 3634
          3635 3636 3637 3638 3639 3640
          3643 3644 3647 3648 3649 3650
          3651 3652 3653 3654 3655 3656
          3657 3658 3659 3660 3661 3662
          3663 3664 3665 3666 3667 3668
          3669 3671 3673 3675 3686 3687
          3688 3689 3690 3691 3692 3693
          3694 3695 3696 3698 3700 3702
          3710 3711 3712 3713 3714 3715
          3716 3751 3752 3753 3754 3755
          3756 3757 3758 3759 3760 3761
          3762 3763 3764 3765 3766 3767
          3768 3769 3770 3771 3772 3773
          3774 3775 3776 3777 3778 3779
          3780 3781 3782 3783 3784 468
          570 395 575 776 780 777
          781 783 785 769 479 1084
          771 1085 1090 1518 1520 476
          1522 1519 1521 1523 1569 763
          1590 1570 1571 1591 1583 1600
          1584 1601 1604 1605 1607 1609
          1646 1647 1650 1652 1070 1071
          1771 755 1080 1810 1514 1811
          1814 756 1639 1640 1643 485
          3017 3026 3028 3030 3036 3032
          3027 3037 3034 3040 1525 3041
          3031 3046 3044 3035 3050 3049
          3048 3052 3045 3256 3262 3258
          3263 3260 3266 1555 3267 3257
          3269 3271 3261 3273 3275 3284
          3290 3286 3291 3288 3294 1559
          3295 3285 3297 3299 3289 3301
          3303 3434 3435 3436 3437 3441
          3442 3380 3372 3381 3382 1575
          3385 765 3418 3419 3420 3423
          1589 3472 3610 3611 3614 3615
          3497 3503 3504 1614 3507 1615
          3641 3642 3645 3646 3531 3537
          3538 1619 3541 773 3564 3565
          3670 3672 3568 1624 3674 1637
          3598 3599 3697 3699 3602 1629
          3701 1641 3729 3223 3730 3733
          1551 3735 3251 3745 3747 761
          3749
        </DataArray>
        <DataArray type="Float64" Name="bounds" format="ascii" RangeMin="0" RangeMax="0">
          0 0 0 0 0 0
          0 0 0 0 0 0
          0 0 0 0 0 0
          0 0 0 0 0 0
          0 0 0 0 0 0
          0 0 0 0 0 0
          0 0 0 0 0 0
          0 0 0 0 0 0
          0 0 0 0 0 0
          0 0 0 0 0 0
          0 0 0 0 0 0
          0 0 0 0 0 0
          0 0 0 0 0 0
          0 0 0 0 0 0
          0 0 0 0 0 0
          0 0 0 0 0 0
          0 0 0 0 0 0
          0 0 0 0 0 0
          0 0 0 0 0 0
          0 0 0 0 0 0
          0 0 0 0 0 0
          0 0 0 0 0 0
          0 0 0 0 0 0
          0 0 0 0 0 0
          0 0 0 0 0 0
          0 0 0 0 0 0
          0 0 0 0 0 0
          0 0 0 0 0 0
          0 0 0 0 0 0
          0 0 0 0 0 0
          0 0 0 0 0 0
          0 0 0 0 0 0
          0 0 0 0 0 0
          0 0 0 0 0 0
          0 0 0 0 0 0
          0 0 0 0 0 0
          0 0 0 0 0 0
          0 0 0 0 0 0
          0 0 0 0 0 0
          0 0 0 0 0 0
          0 0 0 0 0 0
          0 0 0 0 0 0
          0 0 0 0 0 0
          0 0 0 0 0 0
          0 0 0 0 0 0
          0 0 0 0 0 0
          0 0 0 0 0 0
          0 0 0 0 0 0
          0 0 0 0 0 0
          0 0 0 0 0 0
          0 0 0 0 0 0
          0 0 0 0 0 0
          0 0 0 0 0 0
          0 0 0 0 0 0
          0 0 0 0 0 0
          0 0 0 0 0 0
          0 0 0 0 0 0
          0 0 0 0 0 0
          0 0 0 0 0 0
          0 0 0 0 0 0
          0 0 0 0 0 0
          0 0 0 0 0 0
          0 0 0 0 0 0
          0 0 0 0 0 0
          0 0 0 0 0 0
          0 0 0 0 0 0
          0 0 0 0 0 0
          0 0 0 0 0 0
          0 0 0 0 0 0
          0 0 0 0 0 0
          0 0 0 0 0 0
          0 0 0 0 0 0
          0 0 0 0 0 0
          0 0 0 0 0 0
          0
        </DataArray>
        <DataArray type="Float64" Name="gradient_error" format="ascii" RangeMin="3.953489822985114e-12" RangeMax="3.487026356309317e-9">
          9.141647466402704e-11 3.506637045888549e-10 6.894420827330913e-11 1.5477033389977644e-10 5.075128739340476e-10 3.321925449062457e-10
          7.988505025398209e-11 4.279892554216813e-10 1.027487643383813e-10 8.330479601398151e-11 3.394367623190216e-11 3.832048467406891e-11
          1.207266263242179e-10 1.39389554182026e-10 2.2504748720569362e-10 1.7899045342068084e-10 3.620088965942712e-11 4.02914576251008e-11
          3.908182392117803e-11 6.009300419772662e-11 2.0981914666855007e-11 4.450209945038341e-11 7.158641391488114e-11 8.322977468373813e-11
          1.5362044378608208e-10 1.6628456423441103e-10 3.939750385529114e-10 2.147199527613328e-10 1.2234199857595174e-10 5.518012017936855e-10
          2.785096660096268e-10 2.8265827565203244e-11 3.000118582076324e-11 3.4873464167045675e-11 4.145746426786509e-11 3.084317782603641e-11
          6.25185320432804e-11 2.8833223106767935e-11 5.731950325509882e-11 1.406453104454555e-10 4.4286442788507125e-11 8.593994290214523e-11
          3.1340032935012696e-11 1.9698603604260375e-10 6.171582872938617e-11 1.0531909121238018e-10 1.537347633145113e-10 1.2328778780932144e-10
          8.064132562720218e-11 9.167183136396012e-11 1.2861426825468766e-10 1.862716234349085e-10 7.363725671016111e-11 1.4307121354788442e-10
          1.0750461570790766e-10 2.1187958695972892e-10 9.776310307824301e-11 2.7663695169968302e-11 9.374821435493823e-11 1.4935909568555976e-10
          4.270048652778198e-11 6.421559170116469e-11 6.063130582984183e-11 7.859809121456456e-11 3.5956959458621883e-11 1.7763669890826102e-11
          2.579217292499154e-11 1.1194941792654829e-11 1.5358193312160314e-11 1.3043323974664415e-11 1.6159346470167324e-11 1.1751897290319003e-11
          4.965509087742579e-11 2.433384367890762e-11 2.2840875551950794e-11 7.969463102462986e-11 3.2504692012634517e-11 2.9010451598431863e-11
          1.5795321553653998e-11 9.389975625356513e-11 3.82693409227405e-11 3.161452105863237e-11 9.427175817879342e-12 1.11339626163013e-11
          5.232580478752452e-12 5.480654304991769e-12 6.262504775255962e-12 6.9333763820397776e-12 4.22824766227814e-12 1.2840749414723255e-11
          5.728728131231087e-12 7.604247988823594e-12 1.3093137695976924e-10 8.187948528687705e-11 2.453985173864605e-10 2.021104963335573e-10
          5.090853955665342e-11 7.304047331123216e-11 3.2050637917250785e-11 4.5776459156537514e-11 3.737924983967859e-11 5.1241966122149916e-11
          3.2296452884872584e-11 1.301633774508644e-10 8.149566848826919e-11 7.512560962236972e-11 4.1831082256964165e-10 2.6227829216459604e-10
          6.275387731700233e-10 3.2544517232971014e-10 1.5572305375474563e-10 4.653488521916995e-10 2.1034942498928287e-10 1.317796003546161e-10
          9.968116773305372e-11 7.315617635565958e-11 3.017035801190174e-10 1.8926159651521685e-10 1.3757245801685908e-10 8.061906464000096e-10
          5.069446406525021e-10 8.768835677649588e-10 5.811319662677574e-10 2.6082849957027125e-10 6.263804844754838e-10 3.7745235005854826e-10
          2.370747097804409e-10 1.6728623405625514e-10 1.234666925446626e-10 4.0704204202170925e-10 2.556963706589662e-10 1.786538143136556e-10
          3.351468680099703e-11 4.947857729618482e-11 3.339723104063004e-11 9.336774163957268e-11 1.8180073403289393e-11 2.783151972540153e-11
          1.025443138364448e-11 1.556220400097423e-11 1.4484524065237488e-11 2.098806447909274e-11 1.1855259732740856e-11 5.5613430069948705e-11
          3.0814426125911084e-11 3.606954803320047e-11 1.9770188388580628e-11 2.7706714600460947e-11 1.5535395085523315e-11 2.0850059719700318e-11
          1.486590093227175e-11 1.9990141226364764e-11 1.574183801705304e-11 4.921232587207658e-11 3.3165154863676985e-11 3.367442230439593e-11
          5.787446686300214e-12 8.510735700994104e-12 4.379456231728926e-12 6.081014844503353e-12 4.739227264135652e-12 6.56722172598336e-12
          4.893720016607589e-12 1.664821201420965e-11 1.0883336035918858e-11 1.5956038730441525e-10 9.38791366095347e-11 2.392450279194714e-10
          1.0040124163587335e-10 5.5365065054206315e-11 5.3404384918228895e-11 2.958793535050396e-11 1.5683335839818634e-10 8.619539973643764e-11
          8.015310422938795e-11 7.962053430470864e-11 4.6629197907076973e-11 5.19531188428143e-11 3.0454215778455415e-11 1.14016135729528e-10
          6.666388923479364e-11 7.200681166097451e-11 2.1028372060988855e-11 2.6733033733773404e-11 1.197453648114764e-11 1.5044164169829263e-11
          1.4995365413528235e-11 1.777812003116672e-11 1.0212071067312408e-11 3.8092112358228994e-11 2.124673195508387e-11 2.371786370944311e-11
          3.080051593738934e-10 1.8094352148131317e-10 3.3534802202990174e-10 2.0635267316194129e-10 1.1320949696911818e-10 1.0293271548780567e-10
          5.676069973311491e-11 2.2609721870687279e-10 1.239994489402555e-10 1.120094727499665e-10 1.4280263455235293e-10 8.328417921897545e-11
          8.861396506604156e-11 5.083103841478526e-11 1.5403265532325528e-10 8.983360566394075e-11 9.488608140742863e-11 4.745150365746056e-11
          2.6410953368941326e-11 2.8926885691069593e-11 1.637302577093474e-11 5.115647800502107e-11 2.84422346862258e-11 3.0978918612058176e-11
          2.9729182677259603e-11 1.5937802757968452e-11 4.5973425981188605e-11 2.3750041751363732e-11 6.366637830989494e-12 8.050840810644846e-12
          4.515204150507515e-12 5.597272080236616e-12 4.5708076661130715e-12 5.5151236909071825e-12 3.953489822985114e-12 1.1413262296473862e-11
          7.860818930224424e-12 7.475098755584283e-12 6.024575550881853e-11 3.036752448467573e-11 6.594062509704776e-11 3.298317502259815e-11
          1.4155448009346225e-11 9.749855674766887e-12 9.118500558994179e-12 6.7139221998301576e-12 1.521941521604493e-11 1.0457413499050645e-11
          9.746243322521087e-12 9.254838921102153e-11 1.1146871657584622e-10 6.128713415958482e-11 7.352768733235301e-11 6.64973783358406e-11
          7.363081145860288e-11 4.911095541921235e-11 1.471353431684639e-10 9.68831609707268e-11 9.02464022934032e-11 3.8902605025639427e-11
          4.662359128122653e-11 3.072393229196242e-11 3.603950519025393e-11 2.8746845325625767e-11 3.2388697386199456e-11 2.6485389561777165e-11
          6.129647893587454e-11 4.662579162916764e-11 4.040476178876626e-11 1.7407853855095598e-10 1.1473810310743652e-10 1.0534035433038975e-10
          7.049213649033933e-11 1.842754347056551e-10 1.2147812477854062e-10 1.1095214865533822e-10 7.259538324908183e-11 5.525763868031514e-11
          4.7517998460083623e-11 3.9234983805256324e-11 7.69423861632282e-11 5.861877219084046e-11 5.0257022789407884e-11 1.8535681232677747e-9
          1.1377190975204242e-9 3.487026356309317e-9 1.6527961088100822e-9 4.951642808325017e-10 5.041040182042716e-10 6.067631844959598e-10
          9.300829912737222e-10 8.119795516942105e-10 1.151586879752342e-9 4.0940803653013277e-11 1.6272736251176594e-11 1.9359424782899765e-11
          1.2784051951574482e-11 1.8477570650602364e-11 1.6807161325269952e-11 1.4746288426079708e-10 9.460256902091235e-11 1.1429338589293334e-10
          1.720528162635843e-10 1.6387094205474756e-10 8.21116335978254e-11 2.0081271178609276e-10 6.443538135510739e-11 5.170275018205318e-11
          7.486698723601756e-11 6.474464104091092e-11 3.2910064277437583e-11 5.644704989903445e-11 1.7392017877639695e-11 1.0455657881953814e-11
          1.3152298814390844e-11 1.2572943404066127e-11 7.547866218730557e-12 1.259263600493756e-11 1.283717331902111e-11 1.3755537399831162e-11
          3.404177523855342e-10 2.7425056713678825e-10 4.1453171423077477e-10 3.1849100910293954e-10 3.6953231156357124e-10 1.0199851945736296e-10
          3.7235352745911795e-10 4.958618743984064e-10 3.929151858397273e-11 2.0584293336771302e-10 4.449622443795198e-10 3.29342545377071e-10
          1.7203938089870086e-10 3.71697420036057e-10 1.5300303418408913e-11 1.3039433703197344e-11 1.8648846055154168e-11 1.49655080511789e-11
          1.60426365901374e-10 1.026898612705728e-10 7.501738641232876e-11 3.3977864434712785e-10 2.1937748303369882e-10 2.0350193996201135e-10
          7.538950719091718e-11 1.373621928172439e-10 6.719627282898986e-10 4.349592883531194e-10 3.804665136466428e-10 2.7280195478849845e-10
          3.0783589861863803e-10 1.1396830974259148e-10 1.7269072059409665e-10 5.725557179434099e-10 3.0569643413319064e-10 8.02423382892205e-11
          1.2155156719916138e-10 1.7783421949600751e-10 7.979171515412065e-11 1.2045473723372315e-9 7.845286619736092e-10 6.462882663767197e-10
          4.933779476833492e-10 1.866011533393329e-9 1.2238933477940599e-9 9.659628268718608e-10 7.726861346966433e-10 9.665055979817989e-10
          4.901538964837127e-10 2.360753338621977e-10 1.4357496515011771e-9 6.980642572774125e-10 3.2500833804283985e-10 2.4256236714163063e-9
          1.600389789207938e-9 1.23716807229173e-9 1.0143708250949266e-9 2.6425353117630067e-9 1.7476475680545702e-9 1.3440291577912172e-9
          1.1095837977736911e-9 1.8303612752325385e-9 8.694246365532544e-10 3.9415254954540683e-10 1.984999118324134e-9 9.362336199781417e-10
          4.206637424353533e-10 5.40021575151739e-11 8.328773539589249e-11 3.185012131773233e-11 4.8926611835259486e-11 1.660629055263907e-10
          9.776984429740243e-11 2.6941818604796286e-11 7.61693847971054e-11 4.341037711154293e-11 2.4082054493632466e-11 1.6007540398182947e-10
          9.127335468394437e-11 5.0464973540197544e-11 8.280410287287776e-12 1.3050498267104322e-11 7.864458869253034e-12 2.7106663973747217e-11
          1.5810941673594223e-11 1.0227483000617724e-11 3.0005675257284044e-10 1.7652698871627632e-10 4.702096987579041e-10 2.7620765814342986e-10
          3.0439390706921417e-10 1.7278737074795217e-10 9.490152105092511e-11 4.927871866715545e-10 2.793805849798911e-10 1.528546051268971e-10
          6.186524627499823e-10 3.6366825270254713e-10 6.77446535353667e-10 3.9843858030876916e-10 6.552603486375591e-10 3.72032276347637e-10
          2.035106523784613e-10 7.181902899793218e-10 4.0821035048179707e-10 2.2341990195220555e-10 5.052568578157426e-11 2.5995746232870866e-11
          1.5363666201543424e-11 9.78591862318055e-12 8.0765069613986e-11 4.126863345194379e-11 2.3643331412637077e-11 1.713368275851689e-11
          1.0737603196770351e-10 5.471093597200822e-11 3.089639804189255e-11 1.8563763032893105e-11 1.1788055457000996e-10 6.003669509361929e-11
          3.3783527889310096e-11 2.2936471968117176e-11 1.3802679742585834e-10 3.486017604039184e-10 1.656935819859641e-10 1.0961493825930333e-10
          4.780081623180793e-10 2.1803515453179125e-10 5.784234771604808e-10 2.5768336642405603e-10 1.5630712404030259e-10 6.168262049432229e-10
          2.726567903305994e-10
        </DataArray>
        <DataArray type="Float64" Name="gradient_matprop_error" format="ascii" RangeMin="0" RangeMax="0">
          0 0 0 0 0 0
          0 0 0 0 0 0
          0 0 0 0 0 0
          0 0 0 0 0 0
          0 0 0 0 0 0
          0 0 0 0 0 0
          0 0 0 0 0 0
          0 0 0 0 0 0
          0 0 0 0 0 0
          0 0 0 0 0 0
          0 0 0 0 0 0
          0 0 0 0 0 0
          0 0 0 0 0 0
          0 0 0 0 0 0
          0 0 0 0 0 0
          0 0 0 0 0 0
          0 0 0 0 0 0
          0 0 0 0 0 0
          0 0 0 0 0 0
          0 0 0 0 0 0
          0 0 0 0 0 0
          0 0 0 0 0 0
          0 0 0 0 0 0
          0 0 0 0 0 0
          0 0 0 0 0 0
          0 0 0 0 0 0
          0 0 0 0 0 0
          0 0 0 0 0 0
          0 0 0 0 0 0
          0 0 0 0 0 0
          0 0 0 0 0 0
          0 0 0 0 0 0
          0 0 0 0 0 0
          0 0 0 0 0 0
          0 0 0 0 0 0
          0 0 0 0 0 0
          0 0 0 0 0 0
          0 0 0 0 0 0
          0 0 0 0 0 0
          0 0 0 0 0 0
          0 0 0 0 0 0
          0 0 0 0 0 0
          0 0 0 0 0 0
          0 0 0 0 0 0
          0 0 0 0 0 0
          0 0 0 0 0 0
          0 0 0 0 0 0
          0 0 0 0 0 0
          0 0 0 0 0 0
          0 0 0 0 0 0
          0 0 0 0 0 0
          0 0 0 0 0 0
          0 0 0 0 0 0
          0 0 0 0 0 0
          0 0 0 0 0 0
          0 0 0 0 0 0
          0 0 0 0 0 0
          0 0 0 0 0 0
          0 0 0 0 0 0
          0 0 0 0 0 0
          0 0 0 0 0 0
          0 0 0 0 0 0
          0 0 0 0 0 0
          0 0 0 0 0 0
          0 0 0 0 0 0
          0 0 0 0 0 0
          0 0 0 0 0 0
          0 0 0 0 0 0
          0 0 0 0 0 0
          0 0 0 0 0 0
          0 0 0 0 0 0
          0 0 0 0 0 0
          0 0 0 0 0 0
          0 0 0 0 0 0
          0
        </DataArray>
        <DataArray type="Float64" Name="initial_marker" format="ascii" RangeMin="0" RangeMax="2">
          0 0 0 1.5 0 0
          0 0 0 0.5 0 0.5
          0 0 0 0 0 0
          0 0 0 0 0 0
          2 0.75 2 2 1.25 2
          2 0 0 0 0 0
          1.75 1 0 2 2 1
          0.25 2 2 1 0 0
          0 0 0 0 0 0
          0 0 0 0 0 0
          0 0 0 0 0 0
          0 0 0 0 0 0
          0 0 0 0 0 0
          0 0 0 0 0 0
          0 0 0 0 0 0
          0 0 1.5 1.5 2 1.75
          0 0.5 0 0.5 0 0
          0 1.5 1.5 0.6666666666666666 2 2
          2 2 1.5 2 2 2
          1.25 1.3333333333333333 2 2 1.75 2
          2 2 2 2 2 2
          2 2 2 2 2 2
          0.5 1.25 1 2 0.5 1.25
          0 0.75 0 1 0.5 2
          1.75 2 0 0.5 0 0.5
          0 0 0 1.25 1 0.5
          0 0.5 0 0.5 0 0
          0 1.5 0.6666666666666666 2 2 2
          2 2 2 1.75 2 2
          2 1.75 1.5 1.5 1 2
          2 2 1 1.25 0.5 0.75
          0 0.5 0 1.75 1.25 1.5
          2 2 2 2 2 2
          2 2 2 2 2 2
          2 2 2 2 2 2
          1.5 2 1 2 1.5 2
          2 1.25 2 1.75 0 0.25
          0 0 0 0 0 0.75
          0.5 0 2 2 2 2
          1 1 0 0 1 1
          0 0 0.5 0 0.5 0
          0 0 1 1 0 0
          0.25 0 0 0 0 0
          0.75 0.5 0 1 1 0
          0 1 1 0 1 1
          0 0 1 1 0 0
          0 0 0 0 0 0
          0 0 0 0 0 0
          0 0 0 0 0 0
          0 0.75 0.5 0 0 0
          0 1 0.5 0 0 0
          0 0 0 0 0.25 0
          0 0 0 0 0 0
          0 0 0 0 0 0
          0 1.25 0 0 0 0
          1.5 1.25 0.6666666666666666 2 2 1.75
          1.3333333333333333 2 2 2 2 2
          2 1 1.5 2 2 0.5
          1 1.3333333333333333 0.5 2 2 2
          2 2 2 2 2 2
          2 1.5 2 2 2 2
          2 2 2 2 2 2
          2 2 2 2 2 2
          2 1.5 1.75 1 1.5 2
          2 1.5 2 1.75 1.5 2
          2 2 0.5 1.25 1 2
          1.75 1.3333333333333333 2 2 2 2
          2 2 2 2 2 2
          2 2 2 2 2 2
          2 2 2 2 2 2
          1.75 1 2 2 2 1.25
          2 2 2 2 2 2
          2 1.5 0.5 1.75 0.75 0
          2 1 2 1 0 2
          1
        </DataArray>
        <DataArray type="Float64" Name="markers_norefine" format="ascii" RangeMin="0" RangeMax="0">
          0 0 0 0 0 0
          0 0 0 0 0 0
          0 0 0 0 0 0
          0 0 0 0 0 0
          0 0 0 0 0 0
          0 0 0 0 0 0
          0 0 0 0 0 0
          0 0 0 0 0 0
          0 0 0 0 0 0
          0 0 0 0 0 0
          0 0 0 0 0 0
          0 0 0 0 0 0
          0 0 0 0 0 0
          0 0 0 0 0 0
          0 0 0 0 0 0
          0 0 0 0 0 0
          0 0 0 0 0 0
          0 0 0 0 0 0
          0 0 0 0 0 0
          0 0 0 0 0 0
          0 0 0 0 0 0
          0 0 0 0 0 0
          0 0 0 0 0 0
          0 0 0 0 0 0
          0 0 0 0 0 0
          0 0 0 0 0 0
          0 0 0 0 0 0
          0 0 0 0 0 0
          0 0 0 0 0 0
          0 0 0 0 0 0
          0 0 0 0 0 0
          0 0 0 0 0 0
          0 0 0 0 0 0
          0 0 0 0 0 0
          0 0 0 0 0 0
          0 0 0 0 0 0
          0 0 0 0 0 0
          0 0 0 0 0 0
          0 0 0 0 0 0
          0 0 0 0 0 0
          0 0 0 0 0 0
          0 0 0 0 0 0
          0 0 0 0 0 0
          0 0 0 0 0 0
          0 0 0 0 0 0
          0 0 0 0 0 0
          0 0 0 0 0 0
          0 0 0 0 0 0
          0 0 0 0 0 0
          0 0 0 0 0 0
          0 0 0 0 0 0
          0 0 0 0 0 0
          0 0 0 0 0 0
          0 0 0 0 0 0
          0 0 0 0 0 0
          0 0 0 0 0 0
          0 0 0 0 0 0
          0 0 0 0 0 0
          0 0 0 0 0 0
          0 0 0 0 0 0
          0 0 0 0 0 0
          0 0 0 0 0 0
          0 0 0 0 0 0
          0 0 0 0 0 0
          0 0 0 0 0 0
          0 0 0 0 0 0
          0 0 0 0 0 0
          0 0 0 0 0 0
          0 0 0 0 0 0
          0 0 0 0 0 0
          0 0 0 0 0 0
          0 0 0 0 0 0
          0 0 0 0 0 0
          0 0 0 0 0 0
          0
        </DataArray>
        <DataArray type="Float64" Name="markers_mustrefine" format="ascii" RangeMin="0" RangeMax="2">
          0 0 0 1.5 0 0
          0 0 0 0.5 0 0.5
          0 0 0 0 0 0
          0 0 0 0 0 0
          2 0.75 2 2 1.25 2
          2 0 0 0 0 0
          1.75 1 0 2 2 1
          0.25 2 2 1 0 0
          0 0 0 0 0 0
          0 0 0 0 0 0
          0 0 0 0 0 0
          0 0 0 0 0 0
          0 0 0 0 0 0
          0 0 0 0 0 0
          0 0 0 0 0 0
          0 0 1.5 1.5 2 1.75
          0 0.5 0 0.5 0 0
          0 1.5 1.5 0.6666666666666666 2 2
          2 2 1.5 2 2 2
          1.25 1.3333333333333333 2 2 1.75 2
          2 2 2 2 2 2
          2 2 2 2 2 2
          0.5 1.25 1 2 0.5 1.25
          0 0.75 0 1 0.5 2
          1.75 2 0 0.5 0 0.5
          0 0 0 1.25 1 0.5
          0 0.5 0 0.5 0 0
          0 1.5 0.6666666666666666 2 2 2
          2 2 2 1.75 2 2
          2 1.75 1.5 1.5 1 2
          2 2 1 1.25 0.5 0.75
          0 0.5 0 1.75 1.25 1.5
          2 2 2 2 2 2
          2 2 2 2 2 2
          2 2 2 2 2 2
          1.5 2 1 2 1.5 2
          2 1.25 2 1.75 0 0.25
          0 0 0 0 0 0.75
          0.5 0 2 2 2 2
          1 1 0 0 1 1
          0 0 0.5 0 0.5 0
          0 0 1 1 0 0
          0.25 0 0 0 0 0
          0.75 0.5 0 1 1 0
          0 1 1 0 1 1
          0 0 1 1 0 0
          0 0 0 0 0 0
          0 0 0 0 0 0
          0 0 0 0 0 0
          0 0.75 0.5 0 0 0
          0 1 0.5 0 0 0
          0 0 0 0 0.25 0
          0 0 0 0 0 0
          0 0 0 0 0 0
          0 1.25 0 0 0 0
          1.5 1.25 0.6666666666666666 2 2 1.75
          1.3333333333333333 2 2 2 2 2
          2 1 1.5 2 2 0.5
          1 1.3333333333333333 0.5 2 2 2
          2 2 2 2 2 2
          2 1.5 2 2 2 2
          2 2 2 2 2 2
          2 2 2 2 2 2
          2 1.5 1.75 1 1.5 2
          2 1.5 2 1.75 1.5 2
          2 2 0.5 1.25 1 2
          1.75 1.3333333333333333 2 2 2 2
          2 2 2 2 2 2
          2 2 2 2 2 2
          2 2 2 2 2 2
          1.75 1 2 2 2 1.25
          2 2 2 2 2 2
          2 1.5 0.5 1.75 0.75 0
          2 1 2 1 0 2
          1
        </DataArray>
        <DataArray type="Float64" Name="gradient_marker" format="ascii" RangeMin="1" RangeMax="1">
          1 1 1 1 1 1
          1 1 1 1 1 1
          1 1 1 1 1 1
          1 1 1 1 1 1
          1 1 1 1 1 1
          1 1 1 1 1 1
          1 1 1 1 1 1
          1 1 1 1 1 1
          1 1 1 1 1 1
          1 1 1 1 1 1
          1 1 1 1 1 1
          1 1 1 1 1 1
          1 1 1 1 1 1
          1 1 1 1 1 1
          1 1 1 1 1 1
          1 1 1 1 1 1
          1 1 1 1 1 1
          1 1 1 1 1 1
          1 1 1 1 1 1
          1 1 1 1 1 1
          1 1 1 1 1 1
          1 1 1 1 1 1
          1 1 1 1 1 1
          1 1 1 1 1 1
          1 1 1 1 1 1
          1 1 1 1 1 1
          1 1 1 1 1 1
          1 1 1 1 1 1
          1 1 1 1 1 1
          1 1 1 1 1 1
          1 1 1 1 1 1
          1 1 1 1 1 1
          1 1 1 1 1 1
          1 1 1 1 1 1
          1 1 1 1 1 1
          1 1 1 1 1 1
          1 1 1 1 1 1
          1 1 1 1 1 1
          1 1 1 1 1 1
          1 1 1 1 1 1
          1 1 1 1 1 1
          1 1 1 1 1 1
          1 1 1 1 1 1
          1 1 1 1 1 1
          1 1 1 1 1 1
          1 1 1 1 1 1
          1 1 1 1 1 1
          1 1 1 1 1 1
          1 1 1 1 1 1
          1 1 1 1 1 1
          1 1 1 1 1 1
          1 1 1 1 1 1
          1 1 1 1 1 1
          1 1 1 1 1 1
          1 1 1 1 1 1
          1 1 1 1 1 1
          1 1 1 1 1 1
          1 1 1 1 1 1
          1 1 1 1 1 1
          1 1 1 1 1 1
          1 1 1 1 1 1
          1 1 1 1 1 1
          1 1 1 1 1 1
          1 1 1 1 1 1
          1 1 1 1 1 1
          1 1 1 1 1 1
          1 1 1 1 1 1
          1 1 1 1 1 1
          1 1 1 1 1 1
          1 1 1 1 1 1
          1 1 1 1 1 1
          1 1 1 1 1 1
          1 1 1 1 1 1
          1 1 1 1 1 1
          1
        </DataArray>
        <DataArray type="Float64" Name="gradient_matprop_marker" format="ascii" RangeMin="0" RangeMax="0">
          0 0 0 0 0 0
          0 0 0 0 0 0
          0 0 0 0 0 0
          0 0 0 0 0 0
          0 0 0 0 0 0
          0 0 0 0 0 0
          0 0 0 0 0 0
          0 0 0 0 0 0
          0 0 0 0 0 0
          0 0 0 0 0 0
          0 0 0 0 0 0
          0 0 0 0 0 0
          0 0 0 0 0 0
          0 0 0 0 0 0
          0 0 0 0 0 0
          0 0 0 0 0 0
          0 0 0 0 0 0
          0 0 0 0 0 0
          0 0 0 0 0 0
          0 0 0 0 0 0
          0 0 0 0 0 0
          0 0 0 0 0 0
          0 0 0 0 0 0
          0 0 0 0 0 0
          0 0 0 0 0 0
          0 0 0 0 0 0
          0 0 0 0 0 0
          0 0 0 0 0 0
          0 0 0 0 0 0
          0 0 0 0 0 0
          0 0 0 0 0 0
          0 0 0 0 0 0
          0 0 0 0 0 0
          0 0 0 0 0 0
          0 0 0 0 0 0
          0 0 0 0 0 0
          0 0 0 0 0 0
          0 0 0 0 0 0
          0 0 0 0 0 0
          0 0 0 0 0 0
          0 0 0 0 0 0
          0 0 0 0 0 0
          0 0 0 0 0 0
          0 0 0 0 0 0
          0 0 0 0 0 0
          0 0 0 0 0 0
          0 0 0 0 0 0
          0 0 0 0 0 0
          0 0 0 0 0 0
          0 0 0 0 0 0
          0 0 0 0 0 0
          0 0 0 0 0 0
          0 0 0 0 0 0
          0 0 0 0 0 0
          0 0 0 0 0 0
          0 0 0 0 0 0
          0 0 0 0 0 0
          0 0 0 0 0 0
          0 0 0 0 0 0
          0 0 0 0 0 0
          0 0 0 0 0 0
          0 0 0 0 0 0
          0 0 0 0 0 0
          0 0 0 0 0 0
          0 0 0 0 0 0
          0 0 0 0 0 0
          0 0 0 0 0 0
          0 0 0 0 0 0
          0 0 0 0 0 0
          0 0 0 0 0 0
          0 0 0 0 0 0
          0 0 0 0 0 0
          0 0 0 0 0 0
          0 0 0 0 0 0
          0
        </DataArray>
        <DataArray type="Float64" Name="combo" format="ascii" RangeMin="1" RangeMax="1">
          1 1 1 1 1 1
          1 1 1 1 1 1
          1 1 1 1 1 1
          1 1 1 1 1 1
          1 1 1 1 1 1
          1 1 1 1 1 1
          1 1 1 1 1 1
          1 1 1 1 1 1
          1 1 1 1 1 1
          1 1 1 1 1 1
          1 1 1 1 1 1
          1 1 1 1 1 1
          1 1 1 1 1 1
          1 1 1 1 1 1
          1 1 1 1 1 1
          1 1 1 1 1 1
          1 1 1 1 1 1
          1 1 1 1 1 1
          1 1 1 1 1 1
          1 1 1 1 1 1
          1 1 1 1 1 1
          1 1 1 1 1 1
          1 1 1 1 1 1
          1 1 1 1 1 1
          1 1 1 1 1 1
          1 1 1 1 1 1
          1 1 1 1 1 1
          1 1 1 1 1 1
          1 1 1 1 1 1
          1 1 1 1 1 1
          1 1 1 1 1 1
          1 1 1 1 1 1
          1 1 1 1 1 1
          1 1 1 1 1 1
          1 1 1 1 1 1
          1 1 1 1 1 1
          1 1 1 1 1 1
          1 1 1 1 1 1
          1 1 1 1 1 1
          1 1 1 1 1 1
          1 1 1 1 1 1
          1 1 1 1 1 1
          1 1 1 1 1 1
          1 1 1 1 1 1
          1 1 1 1 1 1
          1 1 1 1 1 1
          1 1 1 1 1 1
          1 1 1 1 1 1
          1 1 1 1 1 1
          1 1 1 1 1 1
          1 1 1 1 1 1
          1 1 1 1 1 1
          1 1 1 1 1 1
          1 1 1 1 1 1
          1 1 1 1 1 1
          1 1 1 1 1 1
          1 1 1 1 1 1
          1 1 1 1 1 1
          1 1 1 1 1 1
          1 1 1 1 1 1
          1 1 1 1 1 1
          1 1 1 1 1 1
          1 1 1 1 1 1
          1 1 1 1 1 1
          1 1 1 1 1 1
          1 1 1 1 1 1
          1 1 1 1 1 1
          1 1 1 1 1 1
          1 1 1 1 1 1
          1 1 1 1 1 1
          1 1 1 1 1 1
          1 1 1 1 1 1
          1 1 1 1 1 1
          1 1 1 1 1 1
          1
        </DataArray>
        <DataArray type="Float64" Name="dHdT" format="ascii" RangeMin="25.811642087856093" RangeMax="26.74406084324659">
          25.81184404520937 25.813160343910372 25.811728743349537 25.846684161387095 25.814261554492067 25.812176754327538
          25.811642087856093 25.812388813211818 25.811688469882682 25.825733369870868 25.813828608205228 25.816243857045787
          25.81379620268339 25.81533864427097 25.8147500223433 25.816637366339734 25.812138811706834 25.81246630464045
          25.812163143905195 25.81248768538594 25.81179909842946 25.812759957215214 25.812675827576243 25.818558809997146
          25.86100247054879 25.847440566019007 25.938221067614172 25.883947676514406 25.838855541284595 25.99277239930108
          25.905122969945786 25.81324506167709 25.813890397219136 25.813869678822723 25.814555116593624 25.813351860440804
          25.828773715513158 25.817260106819138 25.81723689363131 25.856018114718054 25.825428003052977 25.822129752457453
          25.815327627783436 25.874820592144857 25.83106255318261 25.8249101201013 25.82500846327943 25.829696389975325