<?xml version="1.0"?>
<VTKFile type="UnstructuredGrid" version="0.1" byte_order="LittleEndian" header_type="UInt32" compressor="vtkZLibDataCompressor">
  <UnstructuredGrid>
    <Piece NumberOfPoints="428" NumberOfCells="250">
      <PointData>
        <DataArray type="Int32" Name="libmesh_node_id" format="ascii" RangeMin="386" RangeMax="3303">
          386 463 473 474 748 749
          750 751 755 756 758 759
          761 923 924 930 931 1056
          1057 1058 1061 1062 1063 1064
          1065 1066 1067 1068 1069 1070
          1071 1480 1481 1482 1483 1484
          1485 1486 1487 1488 1489 1490
          1491 1492 1493 1494 1495 1496
          1497 1501 1502 1504 1505 1507
          1508 1509 1510 1511 1512 1513
          1514 1515 1516 1518 1519 1522
          1523 1525 1528 1529 1530 1531
          1532 1533 1534 1535 1536 1537
          1538 1539 1542 1544 1545 1547
          1548 1549 1551 1552 1553 1555
          1559 1867 1868 1869 1870 1871
          1872 1873 1874 1875 1876 1877
          1878 1879 1880 1881 1882 1883
          1884 1885 1886 1887 1888 1889
          1890 1891 1892 1893 1894 1895
          1896 1897 1898 1899 1900 2795
          2796 2797 2800 2803 2805 2806
          2807 2808 2809 2810 2811 2812
          2813 2814 2815 2816 2817 2818
          2821 2822 2825 2827 2829 2830
          2831 2832 2833 2834 2835 2836
          2837 2838 2841 2842 2844 2847
          2849 2850 2851 2852 2853 2854
          2855 2856 2857 2858 2860 2862
          2864 2866 2867 2868 2869 2870
          2871 2872 2873 2874 2875 2876
          2877 2878 2879 2880 2881 2882
          2883 2884 2885 2886 2901 2902
          2903 2904 2905 2906 2907 2908
          2909 2910 2921 2922 2924 2925
          2926 2927 2928 2929 2930 2941
          2942 2943 2944 2945 2946 2947
          2957 2958 2961 2963 2965 2966
          2967 2968 2969 2970 2971 2972
          2973 2974 2976 2978 2980 2982
          2983 2984 2985 2986 2987 2988
          2991 2992 2995 2997 2999 3000
          3001 3002 3003 3004 3005 3006
          3007 3008 3009 3010 3011 3012
          3013 3014 3015 3016 3017 3018
          3029 3030 3031 3032 3033 3034
          3035 3043 3044 3045 3046 3047
          3048 3049 3050 3052 3065 3066
          3068 3071 3073 3074 3075 3076
          3077 3078 3079 3080 3081 3082
          3084 3086 3088 3090 3091 3092
          3093 3094 3095 3096 3099 3100
          3102 3105 3107 3108 3109 3110
          3111 3112 3113 3114 3115 3116
          3118 3120 3122 3124 3125 3126
          3127 3128 3129 3130 3131 3132
          3133 3134 3135 3136 3137 3138
          3139 3140 3151 3152 3153 3154
          3155 3156 3157 3165 3166 3167
          3168 3169 3170 3171 3172 3173
          3174 3185 3186 3187 3188 3189
          3190 3191 3200 3202 3204 3206
          3207 3208 3209 3210 3211 3212
          3214 3218 3220 3221 3222 3223
          3224 3225 3226 3228 3230 3232
          3234 3235 3236 3237 3238 3239
          3240 3242 3246 3248 3249 3250
          3251 3252 3253 3254 3255 3256
          3257 3258 3259 3260 3261 3269
          3271 3273 3275 3283 3284 3285
          3286 3287 3288 3289 3297 3299
          3301 3303
        </DataArray>
        <DataArray type="Float64" Name="bounds" format="ascii" RangeMin="0" RangeMax="0">
          0 0 0 0 0 0
          0 0 0 0 0 0
          0 0 0 0 0 0
          0 0 0 0 0 0
          0 0 0 0 0 0
          0 0 0 0 0 0
          0 0 0 0 0 0
          0 0 0 0 0 0
          0 0 0 0 0 0
          0 0 0 0 0 0
          0 0 0 0 0 0
          0 0 0 0 0 0
          0 0 0 0 0 0
          0 0 0 0 0 0
          0 0 0 0 0 0
          0 0 0 0 0 0
          0 0 0 0 0 0
          0 0 0 0 0 0
          0 0 0 0 0 0
          0 0 0 0 0 0
          0 0 0 0 0 0
          0 0 0 0 0 0
          0 0 0 0 0 0
          0 0 0 0 0 0
          0 0 0 0 0 0
          0 0 0 0 0 0
          0 0 0 0 0 0
          0 0 0 0 0 0
          0 0 0 0 0 0
          0 0 0 0 0 0
          0 0 0 0 0 0
          0 0 0 0 0 0
          0 0 0 0 0 0
          0 0 0 0 0 0
          0 0 0 0 0 0
          0 0 0 0 0 0
          0 0 0 0 0 0
          0 0 0 0 0 0
          0 0 0 0 0 0
          0 0 0 0 0 0
          0 0 0 0 0 0
          0 0 0 0 0 0
          0 0 0 0 0 0
          0 0 0 0 0 0
          0 0 0 0 0 0
          0 0 0 0 0 0
          0 0 0 0 0 0
          0 0 0 0 0 0
          0 0 0 0 0 0
          0 0 0 0 0 0
          0 0 0 0 0 0
          0 0 0 0 0 0
          0 0 0 0 0 0
          0 0 0 0 0 0
          0 0 0 0 0 0
          0 0 0 0 0 0
          0 0 0 0 0 0
          0 0 0 0 0 0
          0 0 0 0 0 0
          0 0 0 0 0 0
          0 0 0 0 0 0
          0 0 0 0 0 0
          0 0 0 0 0 0
          0 0 0 0 0 0
          0 0 0 0 0 0
          0 0 0 0 0 0
          0 0 0 0 0 0
          0 0 0 0 0 0
          0 0 0 0 0 0
          0 0 0 0 0 0
          0 0 0 0 0 0
          0 0
        </DataArray>
        <DataArray type="Float64" Name="gradient_error" format="ascii" RangeMin="3.1407618194906893e-11" RangeMax="2.191228832080853e-8">
          1.185219236055572e-9 1.0427272755995475e-9 1.434602653057411e-10 1.2435121567027326e-10 4.659058413813221e-10 2.9757318809370193e-10
          5.477286154536488e-9 2.329207040407735e-9 4.958618743984064e-10 3.71697420036057e-10 1.3579764549993545e-8 8.656271720212342e-9
          6.168262049432229e-10 7.669108045943475e-10 6.810341493144173e-10 1.121354965614999e-10 1.1698119009971933e-10 1.0658581810564826e-9
          9.410270197692947e-10 8.409510781824087e-10 1.3052232429595335e-9 4.837960621218677e-10 4.1107916583017247e-10 3.2686678905748487e-10
          2.695544638815025e-10 9.485624646003752e-11 7.209955349956417e-11 7.525535733163494e-11 2.7390514276249994e-10 3.6953231156357124e-10
          1.0199851945736296e-10 9.65938687984687e-10 8.639508789363662e-10 2.0691100558595023e-9 1.7458334187606426e-9 4.1601217930662297e-10
          1.0619488800315381e-9 8.894587531745513e-10 6.219351482947555e-10 1.0564507867314998e-9 5.284210249167476e-10 9.425304066092318e-9
          7.755873117174808e-9 4.427447008864143e-9 4.287498861808269e-9 2.0884587018833022e-10 1.8628874715798516e-10 4.825635211964003e-10
          4.027302373229733e-10 1.3284326079656198e-10 2.371074638854229e-10 2.7098566507732168e-9 2.157107357991685e-9 1.095933258790743e-9
          6.810371355194654e-10 7.488657042578315e-10 3.295893040215072e-10 3.660332402232417e-10 7.79852635205973e-10 9.139393009126187e-10
          4.449622443795198e-10 1.6296467515951374e-9 8.361123353635328e-10 1.4746288426079708e-10 1.6387094205474756e-10 1.720528162635843e-10
          2.0081271178609276e-10 3.804665136466428e-10 2.191228832080853e-8 1.9101353847964392e-8 1.3909287804317115e-8 1.1821266802140065e-8
          1.0807841697382278e-8 6.4115573066026625e-9 1.6392168035678986e-8 2.0660785443176767e-8 1.3697298223679525e-8 1.418985635208444e-8
          7.753039228028566e-9 6.420463464326011e-9 3.2327781911706517e-9 8.134284509110359e-9 7.885937099770184e-9 4.532608654214091e-9
          3.80929746102152e-9 2.059662365150728e-9 4.780081623180793e-10 5.102380515951846e-9 2.823079316484566e-9 9.659628268718608e-10
          1.3440291577912172e-9 3.56169901251069e-10 3.323371208067651e-10 8.861753583194826e-10 8.061733509347997e-10 1.5846346189163795e-10
          4.263797463882733e-10 3.873252643882803e-10 2.6981534832423757e-10 6.086608035377993e-10 2.905723098912816e-10 7.934270814282847e-11
          7.405056966167519e-11 1.9381903235090162e-10 1.7587185828246782e-10 3.427874827510829e-11 8.296743397937626e-11 7.453630794185946e-11
          6.003093898304269e-11 1.3131283219563392e-10 6.474209546512366e-11 2.0881080458221418e-10 3.900782687225858e-10 1.0041160053489527e-10
          1.8777673994741187e-10 1.864952528784144e-10 2.890062739196897e-10 1.4267964250054767e-10 4.627813776235648e-11 8.399150887060724e-11
          3.1407618194906893e-11 5.229789750534414e-11 4.125282873914951e-11 6.328203756398067e-11 4.2579872424002624e-11 4.980812716379027e-10
          8.800500130267264e-10 8.471718719120784e-10 7.555804687163424e-10 1.9828383804946126e-9 3.6220068731699297e-10 3.4969125018515005e-10
          6.260091063585139e-10 6.022745353606574e-10 2.403339635585272e-10 4.3419287169911024e-10 4.1756740899945446e-10 3.1414744036071285e-10
          5.363050085663867e-10 3.714416685967661e-10 1.5052148262570725e-9 1.4409308151597922e-9 1.015738265179995e-9 1.2647784462442811e-9
          3.760910244606884e-10 6.255610040262403e-10 4.821200549293919e-10 1.414283340875352e-9 2.63440174364983e-10 4.429227155627991e-10
          1.810062336738375e-10 3.0630409360701364e-10 2.0708720250775048e-10 3.4020037252695464e-10 2.3466602330840593e-10 1.019717539772375e-9
          7.1460848277221e-10 7.573159104670671e-10 4.6338805488081795e-9 4.423244395644207e-9 3.846400759481143e-9 8.978401301057701e-9
          3.476085467150163e-9 3.3116915073051114e-9 2.515417732409664e-9 2.3928937669778903e-9 2.86455442656743e-9 2.0609601341291754e-9
          7.315304499203456e-9 6.955703656102326e-9 5.194990516786034e-9 5.9709576087840955e-9 3.048794152036356e-9 2.20885541114827e-9
          6.063718319981499e-9 2.2527141334023905e-9 1.6101625592721354e-9 1.6162400486569124e-9 1.1460988753336696e-9 4.616064030042813e-9
          3.3859088317023872e-9 3.2166297645520825e-9 1.6677652535429722e-10 1.609709574606292e-10 2.932884036045007e-10 2.8198565524801926e-10
          1.0555515386224433e-10 1.9318454527255744e-10 1.8569311554683267e-10 1.4455968338144343e-10 2.506678878864086e-10 1.650312783424862e-10
          7.266851435789351e-10 6.946612465808053e-10 4.6112806224464386e-10 6.073235912108399e-10 1.2123757378828945e-10 2.064969457553014e-10
          7.994280139799363e-11 1.359822880109579e-10 9.513814264276343e-11 1.5799796838341257e-10 1.0399757510964887e-10 4.867701327635422e-10
          3.223017400851278e-10 3.588850299780328e-10 1.755802689401511e-9 1.668259114972108e-9 1.1222866731162172e-9 1.4318960112303393e-9
          9.608977450521455e-10 3.93549429059921e-9 3.7240652153792675e-9 2.559790139039449e-9 3.153758857244959e-9 1.113017307182286e-9
          7.444102671928826e-10 7.875926403129155e-10 5.247942090285086e-10 2.38991029828007e-9 1.6229531797780225e-9 1.6267560934094191e-9
          2.280435230373286e-10 3.452878745550154e-10 2.8059044066847314e-10 7.269924670960179e-10 1.5844355640956983e-10 2.4229362366145526e-10
          1.083238113548699e-10 1.6668127174167222e-10 1.3847998886548594e-10 1.9596188062462674e-10 1.3469729318682633e-10 5.17607235905947e-10
          3.595313254022582e-10 3.8078322658070394e-10 1.4727671656281967e-9 9.075730583745122e-10 2.7557764047772773e-9 1.0661258532286208e-9
          7.49730493691262e-10 6.500400276440283e-10 4.534741210104355e-10 2.035025943769359e-9 1.453998933751786e-9 1.1849061241088746e-9
          3.719191918692582e-10 5.218072528204597e-10 3.7368692544240957e-10 8.992363976864277e-10 2.6115868232077005e-10 3.6967589798198944e-10
          1.7982478255239637e-10 2.559476308337654e-10 1.9418296889234544e-10 2.6266031094931873e-10 1.809849081938811e-10 6.447075297116193e-10
          4.5014688243204304e-10 3.8034865521328536e-10 7.2590506965296e-11 1.1201552195046983e-10 4.8406229027996624e-11 7.392170987943678e-11
          6.342589902571839e-11 9.03761297634379e-11 5.995197469762707e-11 2.4324528787887696e-10 1.60426365901374e-10 1.7763924446881443e-10
          5.120345357137385e-10 3.3977864434712785e-10 3.0783589861863803e-10 2.0350193996201135e-10 1.00487168070532e-9 6.719627282898986e-10
          5.725557179434099e-10 1.2078350446277938e-10 1.7269072059409665e-10 7.979171515412065e-11 1.1396830974259148e-10 8.915117249865229e-11
          1.2155156719916138e-10 8.02423382892205e-11 3.0569643413319064e-10 1.7783421949600751e-10 1.6443143515142227e-8 1.566679518248231e-8
          1.3521892921328913e-8 2.1290590776777325e-8 1.2967307472969862e-8 1.2351708707336877e-8 9.960972431558558e-9 9.475851375409066e-9
          1.0642203824269475e-8 8.121552123811644e-9 1.7943556659300462e-8 1.7300265523900675e-8 1.3397603375347443e-8 1.5286029263234515e-8
          1.0534245623983118e-8 7.380130625247374e-9 1.5283052485594862e-8 8.233869706207073e-9 6.210259304097897e-9 5.680964502820552e-9
          4.2104259017206674e-9 1.2105101742706806e-8 9.309816920662396e-9 8.474455630285206e-9 1.9903560663913453e-8 2.0719351482637412e-8
          2.103352504436678e-8 1.8311383677054833e-8 1.7999484169487663e-8 1.8139858361289208e-8 1.4452316931204179e-8 1.4378319980959574e-8
          1.7374473755884896e-8 1.3540786395345096e-8 1.6247419775093434e-8 1.7067574982072976e-8 1.3872266786506495e-8 1.747739595368988e-8
          1.8247627095269917e-8 1.3323795449558305e-8 1.901425643326715e-8 1.4570349517993499e-8 1.1296034099670362e-8 1.053336433963061e-8
          8.077146190839412e-9 1.5254505346922558e-8 1.1843845409346989e-8 1.1237648714153593e-8 7.39624404379478e-9 7.0158155234724275e-9
          5.253308045637041e-9 4.9667905443523674e-9 5.960605685531109e-9 4.182299890530961e-9 1.054672525551183e-8 1.014222653824165e-8
          7.421183962265405e-9 8.890703228222962e-9 4.495112213397592e-9 3.1153441396595324e-9 2.998155640132024e-9 2.050134204820641e-9
          6.901337863845165e-9 4.891168516414846e-9 4.6537373051699835e-9 1.1075601971017294e-8 1.1007640748279218e-8 8.43854959312952e-9
          8.323366815614739e-9 1.0332211193679208e-8 7.662482869306523e-9 1.0457288310901923e-8 1.0664525126079473e-8 8.20651481629907e-9
          1.0502630519915162e-8 8.5179928800954e-9 6.154882899659729e-9 5.9487487258628285e-9 4.184743150087514e-9 8.987964529295315e-9
          6.548449515092216e-9 6.411094949624728e-9 4.643475047320063e-9 2.6515775975244615e-9 6.788524971935492e-9 3.500777499002386e-9
          2.545521311826827e-9 1.957762689852738e-9 1.3986058921284392e-9 5.21135812988516e-9 3.851005373660166e-9 2.8508554620659765e-9
          1.4057110392581406e-9 1.9580986578325514e-9 1.0187393162658615e-9 7.171537896538481e-10 5.008323417168752e-10 3.486017604039184e-10
          1.432384863593463e-9 1.0156624241896936e-9 6.839419390773912e-10 8.465673655527182e-9 4.744301353726348e-9 9.08377627540601e-9
          6.578669316370177e-9 4.917586624857243e-9 3.5831866818052166e-9 2.6092009204375934e-9 7.089306408994775e-9 5.321644327250717e-9
          3.866002672575092e-9 2.4022043901607536e-9 2.572856061571491e-9 1.7684281392347722e-9 1.260244939493586e-9 8.249833199658108e-10
          5.784234771604808e-10 1.8983432380343122e-9 1.3552493241665293e-9 8.787932888938078e-10 1.7837293352042435e-9 1.2045473723372315e-9
          9.665055979817989e-10 6.462882663767197e-10 2.734920349306888e-9 1.866011533393329e-9 1.4357496515011771e-9 4.901538964837127e-10
          2.360753338621977e-10 6.980642572774125e-10 3.2500833804283985e-10 3.5268081035149915e-9 2.4256236714163063e-9 1.8303612752325385e-9
          1.23716807229173e-9 3.830509850019422e-9 2.6425353117630067e-9 1.984999118324134e-9 8.694246365532544e-10 3.9415254954540683e-10
          9.362336199781417e-10 4.206637424353533e-10
        </DataArray>
        <DataArray type="Float64" Name="gradient_matprop_error" format="ascii" RangeMin="0" RangeMax="0">
          0 0 0 0 0 0
          0 0 0 0 0 0
          0 0 0 0 0 0
          0 0 0 0 0 0
          0 0 0 0 0 0
          0 0 0 0 0 0
          0 0 0 0 0 0
          0 0 0 0 0 0
          0 0 0 0 0 0
          0 0 0 0 0 0
          0 0 0 0 0 0
          0 0 0 0 0 0
          0 0 0 0 0 0
          0 0 0 0 0 0
          0 0 0 0 0 0
          0 0 0 0 0 0
          0 0 0 0 0 0
          0 0 0 0 0 0
          0 0 0 0 0 0
          0 0 0 0 0 0
          0 0 0 0 0 0
          0 0 0 0 0 0
          0 0 0 0 0 0
          0 0 0 0 0 0
          0 0 0 0 0 0
          0 0 0 0 0 0
          0 0 0 0 0 0
          0 0 0 0 0 0
          0 0 0 0 0 0
          0 0 0 0 0 0
          0 0 0 0 0 0
          0 0 0 0 0 0
          0 0 0 0 0 0
          0 0 0 0 0 0
          0 0 0 0 0 0
          0 0 0 0 0 0
          0 0 0 0 0 0
          0 0 0 0 0 0
          0 0 0 0 0 0
          0 0 0 0 0 0
          0 0 0 0 0 0
          0 0 0 0 0 0
          0 0 0 0 0 0
          0 0 0 0 0 0
          0 0 0 0 0 0
          0 0 0 0 0 0
          0 0 0 0 0 0
          0 0 0 0 0 0
          0 0 0 0 0 0
          0 0 0 0 0 0
          0 0 0 0 0 0
          0 0 0 0 0 0
          0 0 0 0 0 0
          0 0 0 0 0 0
          0 0 0 0 0 0
          0 0 0 0 0 0
          0 0 0 0 0 0
          0 0 0 0 0 0
          0 0 0 0 0 0
          0 0 0 0 0 0
          0 0 0 0 0 0
          0 0 0 0 0 0
          0 0 0 0 0 0
          0 0 0 0 0 0
          0 0 0 0 0 0
          0 0 0 0 0 0
          0 0 0 0 0 0
          0 0 0 0 0 0
          0 0 0 0 0 0
          0 0 0 0 0 0
          0 0 0 0 0 0
          0 0
        </DataArray>
        <DataArray type="Float64" Name="initial_marker" format="ascii" RangeMin="0" RangeMax="2">
          0 0 0 0 1 0
          2 2 0 1.25 2 2
          2 0 0 0 0 0
          0 0 0 0 0 0
          0 0 0 0 0 0
          0 1 1 2 2 1
          2 2 0.5 2 2 2
          2 2 2 0.5 0.25 2
          2 0 2 2 2 2
          0 1.5 0 1.25 0 0
          0 2 2 0 0.75 0
          0 2 2 2 2 2
          2 2 2 2 2 2
          2 2 2 2 2 2
          2 2 2 2 2 2
          2 0 0 0 0 0
          0 0 0 0 0 0
          0 0 0 0 0 0
          0 0 0 0 0 0
          0 0 0 0 0 0
          0 0 0 0 0 2
          2 2 2 2 2 2
          2 2 2 2 2 2
          2 2 2 2 2 2
          2 2 1.5 2 1.5 1.75
          1 1.5 0.5 1.25 1 2
          2 2 2 2 2 2
          2 2 2 2 2 2
          2 2 2 2 2 2
          2 2 2 2 2 2
          2 2 2 2 2 2
          1 1.5 1.5 1.5 1.75 1.25
          2 2 2 2 0.5 1.25
          0 1 0 1 1 2
          2 2 2 2 2 2
          2 2 2 2 2 2
          2 2 2 2 2 2
          0 1 1 2 0 1
          0 0.75 0 1 0.5 2
          1.75 2 2 2 2 2
          2 2 2 2 2 2
          1 1.5 1 2 1 1.5
          1 1.5 0 1 1 2
          2 2 0 0.5 0 0.5
          0 0 0 1.5 1.5 1.3333333333333333
          2 2 2 1.75 2 2
          2 1 1.5 0.5 1 0
          1 0.5 2 1.3333333333333333 2 2
          2 2 2 2 2 2
          2 2 2 2 2 2
          2 2 2 2 2 2
          2 2 2 2 2 2
          2 2 2 2 2 2
          2 2 2 2 2 2
          2 2 2 2 2 2
          2 2 2 2 2 2
          2 2 2 2 2 2
          2 2 2 2 2 2
          2 2 2 2 2 2
          2 2 2 2 2 2
          2 2 2 2 2 2
          2 2 2 2 2 2
          2 2 2 2 2 2
          2 2 2 2 2 1.75
          2 2 2 2 2 2
          2 2 2 2 2 2
          2 2 2 2 2 2
          2 2 2 2 2 2
          2 2 2 2 2 2
          1.5 2 2 2 2 2
          2 2 2 2 2 2
          2 2
        </DataArray>
        <DataArray type="Float64" Name="markers_norefine" format="ascii" RangeMin="0" RangeMax="1">
          0 0 0 0 0 0
          0 0 0 0 0 0
          0 0 0 0 0 0
          0 0 0 0 0 0
          0 0 0 0 0 0
          0 0 0 0 0 0
          0 0 0 0 0 0
          0 0 0 0 0 0
          0 0 0 0 0 0
          0 0 0 0 0 0
          0 0 0 0 0 0
          0 0 0 0 0 0
          0 0 1 0 0 0
          0 0 0 0 0 0
          0 0 0 0 0 0
          0 0 0 0 0 0
          0 0 0 0 0 0
          0 0 0 0 0 0
          0 0 0 0 0 0
          0 0 0 0 0 0
          0 0 0 0 0 0
          0 0 0 0 0 0
          0 0 0 0 0 0
          0 0 0 0 0 0
          0 0 0 0 0 0
          0 0 0 0 0 0
          0 0 0 0 0 0
          0 0 0 0 0 0
          0 0 0 0 0 0
          0 0 0 0 0 0
          0 0 0 0 0 0
          0 0 0 0 0 0
          0 0 0 0 0 0
          0 0 0 0 0 0
          0 0 0 0 0 0
          0 0 0 0 0 0
          0 0 0 0 0 0
          0 0 0 0 0 0
          0 0 0 0 0 0
          0 0 0 0 0 0
          0 0 0 0 0 0
          0 0 0 0 0 0
          0 0 0 0 0 0
          0 0 0 0 0 0
          0 0 0 0 0 0
          0 0 0 0 0 0
          0 0 0 0 0 0
          0 0 0 0 0 0
          0 0 0 0 0 0
          0 0 0 0 0 0
          0 0 0 0 0 0
          0 0 0 0 0.5 0.25
          0 0.5 0 0 0 0
          0 0 0 0 0 0
          0 0 0 0 0 0
          0 0 0 0 0 0
          0 0 0 0 0 0
          0 0 0 0 0 0
          0 0 0 0 0 0
          0 0 0 0 0 0
          0 0 0 0 0 0
          0 0 0 0 0 0
          0 0 0 0 0 0
          0 0 0 0 0 0
          0 0 0 0 0 0
          0 0 0 0 0 0
          0 0 0 0 0 0
          0 0 0 0 0 0
          0 0 0 0 0 0
          0 0 0 0 0 0
          0 0 0 0 0 0
          0 0
        </DataArray>
        <DataArray type="Float64" Name="markers_mustrefine" format="ascii" RangeMin="0" RangeMax="2">
          0 0 0 0 1 0
          2 2 0 1.25 2 2
          2 0 0 0 0 0
          0 0 0 0 0 0
          0 0 0 0 0 0
          0 1 1 2 2 1
          2 2 0.5 2 2 2
          2 2 2 0.5 0.25 2
          2 0 2 2 2 2
          0 1.5 0 1.25 0 0
          0 2 2 0 0.75 0
          0 2 2 2 2 2
          2 2 2 2 2 2
          2 2 2 2 2 2
          2 2 2 2 2 2
          2 0 0 0 0 0
          0 0 0 0 0 0
          0 0 0 0 0 0
          0 0 0 0 0 0
          0 0 0 0 0 0
          0 0 0 0 0 2
          2 2 2 2 2 2
          2 2 2 2 2 2
          2 2 2 2 2 2
          2 2 1.5 2 1.5 1.75
          1 1.5 0.5 1.25 1 2
          2 2 2 2 2 2
          2 2 2 2 2 2
          2 2 2 2 2 2
          2 2 2 2 2 2
          2 2 2 2 2 2
          1 1.5 1.5 1.5 1.75 1.25
          2 2 2 2 0.5 1.25
          0 1 0 1 1 2
          2 2 2 2 2 2
          2 2 2 2 2 2
          2 2 2 2 2 2
          0 1 1 2 0 1
          0 0.75 0 1 0.5 2
          1.75 2 2 2 2 2
          2 2 2 2 2 2
          1 1.5 1 2 1 1.5
          1 1.5 0 1 1 2
          2 2 0 0.5 0 0.5
          0 0 0 1.5 1.5 1.3333333333333333
          2 2 2 1.75 2 2
          2 1 1.5 0.5 1 0
          1 0.5 2 1.3333333333333333 2 2
          2 2 2 2 2 2
          2 2 2 2 2 2
          2 2 2 2 2 2
          2 2 2 2 2 2
          2 2 2 2 2 2
          2 2 2 2 2 2
          2 2 2 2 2 2
          2 2 2 2 2 2
          2 2 2 2 2 2
          2 2 2 2 2 2
          2 2 2 2 2 2
          2 2 2 2 2 2
          2 2 2 2 2 2
          2 2 2 2 2 2
          2 2 2 2 2 2
          2 2 2 2 2 1.75
          2 2 2 2 2 2
          2 2 2 2 2 2
          2 2 2 2 2 2
          2 2 2 2 2 2
          2 2 2 2 2 2
          1.5 2 2 2 2 2
          2 2 2 2 2 2
          2 2
        </DataArray>
        <DataArray type="Float64" Name="gradient_marker" format="ascii" RangeMin="1" RangeMax="1">
          1 1 1 1 1 1
          1 1 1 1 1 1
          1 1 1 1 1 1
          1 1 1 1 1 1
          1 1 1 1 1 1
          1 1 1 1 1 1
          1 1 1 1 1 1
          1 1 1 1 1 1
          1 1 1 1 1 1
          1 1 1 1 1 1
          1 1 1 1 1 1
          1 1 1 1 1 1
          1 1 1 1 1 1
          1 1 1 1 1 1
          1 1 1 1 1 1
          1 1 1 1 1 1
          1 1 1 1 1 1
          1 1 1 1 1 1
          1 1 1 1 1 1
          1 1 1 1 1 1
          1 1 1 1 1 1
          1 1 1 1 1 1
          1 1 1 1 1 1
          1 1 1 1 1 1
          1 1 1 1 1 1
          1 1 1 1 1 1
          1 1 1 1 1 1
          1 1 1 1 1 1
          1 1 1 1 1 1
          1 1 1 1 1 1
          1 1 1 1 1 1
          1 1 1 1 1 1
          1 1 1 1 1 1
          1 1 1 1 1 1
          1 1 1 1 1 1
          1 1 1 1 1 1
          1 1 1 1 1 1
          1 1 1 1 1 1
          1 1 1 1 1 1
          1 1 1 1 1 1
          1 1 1 1 1 1
          1 1 1 1 1 1
          1 1 1 1 1 1
          1 1 1 1 1 1
          1 1 1 1 1 1
          1 1 1 1 1 1
          1 1 1 1 1 1
          1 1 1 1 1 1
          1 1 1 1 1 1
          1 1 1 1 1 1
          1 1 1 1 1 1
          1 1 1 1 1 1
          1 1 1 1 1 1
          1 1 1 1 1 1
          1 1 1 1 1 1
          1 1 1 1 1 1
          1 1 1 1 1 1
          1 1 1 1 1 1
          1 1 1 1 1 1
          1 1 1 1 1 1
          1 1 1 1 1 1
          1 1 1 1 1 1
          1 1 1 1 1 1
          1 1 1 1 1 1
          1 1 1 1 1 1
          1 1 1 1 1 1
          1 1 1 1 1 1
          1 1 1 1 1 1
          1 1 1 1 1 1
          1 1 1 1 1 1
          1 1 1 1 1 1
          1 1
        </DataArray>
        <DataArray type="Float64" Name="gradient_matprop_marker" format="ascii" RangeMin="0" RangeMax="0">
          0 0 0 0 0 0
          0 0 0 0 0 0
          0 0 0 0 0 0
          0 0 0 0 0 0
          0 0 0 0 0 0
          0 0 0 0 0 0
          0 0 0 0 0 0
          0 0 0 0 0 0
          0 0 0 0 0 0
          0 0 0 0 0 0
          0 0 0 0 0 0
          0 0 0 0 0 0
          0 0 0 0 0 0
          0 0 0 0 0 0
          0 0 0 0 0 0
          0 0 0 0 0 0
          0 0 0 0 0 0
          0 0 0 0 0 0
          0 0 0 0 0 0
          0 0 0 0 0 0
          0 0 0 0 0 0
          0 0 0 0 0 0
          0 0 0 0 0 0
          0 0 0 0 0 0
          0 0 0 0 0 0
          0 0 0 0 0 0
          0 0 0 0 0 0
          0 0 0 0 0 0
          0 0 0 0 0 0
          0 0 0 0 0 0
          0 0 0 0 0 0
          0 0 0 0 0 0
          0 0 0 0 0 0
          0 0 0 0 0 0
          0 0 0 0 0 0
          0 0 0 0 0 0
          0 0 0 0 0 0
          0 0 0 0 0 0
          0 0 0 0 0 0
          0 0 0 0 0 0
          0 0 0 0 0 0
          0 0 0 0 0 0
          0 0 0 0 0 0
          0 0 0 0 0 0
          0 0 0 0 0 0
          0 0 0 0 0 0
          0 0 0 0 0 0
          0 0 0 0 0 0
          0 0 0 0 0 0
          0 0 0 0 0 0
          0 0 0 0 0 0
          0 0 0 0 0 0
          0 0 0 0 0 0
          0 0 0 0 0 0
          0 0 0 0 0 0
          0 0 0 0 0 0
          0 0 0 0 0 0
          0 0 0 0 0 0
          0 0 0 0 0 0
          0 0 0 0 0 0
          0 0 0 0 0 0
          0 0 0 0 0 0
          0 0 0 0 0 0
          0 0 0 0 0 0
          0 0 0 0 0 0
          0 0 0 0 0 0
          0 0 0 0 0 0
          0 0 0 0 0 0
          0 0 0 0 0 0
          0 0 0 0 0 0
          0 0 0 0 0 0
          0 0
        </DataArray>
        <DataArray type="Float64" Name="combo" format="ascii" RangeMin="1" RangeMax="1.5">
          1 1 1 1 1 1
          1 1 1 1 1 1
          1 1 1 1 1 1
          1 1 1 1 1 1
          1 1 1 1 1 1
          1 1 1 1 1 1
          1 1 1 1 1 1
          1 1 1 1 1 1
          1 1 1 1 1 1
          1 1 1 1 1 1
          1 1 1 1 1 1
          1 1 1 1 1 1
          1 1 1.5 1 1 1
          1 1 1 1 1 1
          1 1 1 1 1 1
          1 1 1 1 1 1
          1 1 1 1 1 1
          1 1 1 1 1 1
          1 1 1 1 1 1
          1 1 1 1 1 1
          1 1 1 1 1 1
          1 1 1 1 1 1
          1 1 1 1 1 1
          1 1 1 1 1 1
          1 1 1 1 1 1
          1 1 1 1 1 1
          1 1 1 1 1 1
          1 1 1 1 1 1
          1 1 1 1 1 1
          1 1 1 1 1 1
          1 1 1 1 1 1
          1 1 1 1 1 1
          1 1 1 1 1 1
          1 1 1 1 1 1
          1 1 1 1 1 1
          1 1 1 1 1 1
          1 1 1 1 1 1
          1 1 1 1 1 1
          1 1 1 1 1 1
          1 1 1 1 1 1
          1 1 1 1 1 1
          1 1 1 1 1 1
          1 1 1 1 1 1
          1 1 1 1 1 1
          1 1 1 1 1 1
          1 1 1 1 1 1
          1 1 1 1 1 1
          1 1 1 1 1 1
          1 1 1 1 1 1
          1 1 1 1 1 1
          1 1 1 1 1 1
          1 1 1 1 1.25 1.125
          1 1.25 1 1 1 1
          1 1 1 1 1 1
          1 1 1 1 1 1
          1 1 1 1 1 1
          1 1 1 1 1 1
          1 1 1 1 1 1
          1 1 1 1 1 1
          1 1 1 1 1 1
          1 1 1 1 1 1
          1 1 1 1 1 1
          1 1 1 1 1 1
          1 1 1 1 1 1
          1 1 1 1 1 1
          1 1 1 1 1 1
          1 1 1 1 1 1
          1 1 1 1 1 1
          1 1 1 1 1 1
          1 1 1 1 1 1
          1 1 1 1 1 1
          1 1
        </DataArray>
        <DataArray type="Float64" Name="dHdT" format="ascii" RangeMin="25.811605952157343" RangeMax="50.78169514402332">
          25.817613957081775 25.815777085725628 25.81230216764295 25.81214700798933 25.878775034769426 25.852550461496445
          27.825652448857745 26.601680636694915 25.831380844036705 25.893396132849528 37.5538834441564 29.808854832906885
          26.025670858554406 25.811796978154483 25.81167154522989 25.811605952157343 25.81162078717317 25.822127389766194
          25.842356990524138 25.836368509206746 25.830368208819248 25.816236628995526 25.81562971939917 25.82003663687444
          25.818330557477694 25.812684775753187 25.813499614159312 25.81320042620903 25.8145692193924 25.817053519836065
          25.81303727288218 25.954200349379803 25.937173252814205 26.559252275485278 26.44047313598806 25.870645901266748
          26.181811120461916 26.120687541065557 25.899041478824238 26.19223685935885 25.995150057533273 29.92245708995862
          28.945553394639674 27.381772534472923 27.357035805873323 25.841065352777207 25.83746811654313 25.97476436389719
          25.94721574269271 25.82948481642328 25.891390378619548 26.735630931572345 26.53495911632277 26.17091278515279
          25.86977086027109 25.983311884129613 25.839185035356476 25.89309025008794 25.860404460181346 25.888741384094104
          25.848476078806428 26.386337465763745 26.09555039847976 25.8238284262314 25.847108900022786 25.82219538669726
          25.828099427037916 25.936706626156308 38.5764863761482 35.870459700823105 34.16808101923178 32.10483434106685
          30.78247339886661 28.295612820361278 50.78169514402332 40.63324245374332 35.87668730549307 33.40025837308285
          29.67236671169414 28.5739068185571 26.94946473806635 32.9015565310945 30.606475637019784 27.587751688053604
          27.183006231323805 26.5142915363922 25.977582004178267 27.726895501233876 26.798996628821612 26.13064961334176
          26.26520715925276 25.83690508665188 25.835191697214274 25.866045884782128 25.861118664115814 25.82299782059725
          25.83750260099469 25.835126578737945 25.831061700866712 25.849418865963543 25.82955913299706 25.81730384264349
          25.81691730978886 25.823327102458386 25.822233499818772 25.8140369768655 25.816606510577905 25.816154222100543
          25.816042913953293 25.819733832034373 25.815699333150935 25.827076596255317 25.83810863654987 25.819253669766663
          25.82434227619414 25.825508098553883 25.83357098462215 25.822316842875363 25.81527171289634 25.817454449879484
          25.81402078048241 25.815251036674614 25.814988374820324 25.816581132869384 25.814807941142767 26.006244955175333