<?xml version="1.0"?>
<VTKFile type="UnstructuredGrid" version="0.1" byte_order="LittleEndian" header_type="UInt32" compressor="vtkZLibDataCompressor">
  <UnstructuredGrid>
    <Piece NumberOfPoints="413" NumberOfCells="245">
      <PointData>
        <DataArray type="Int32" Name="libmesh_node_id" format="ascii" RangeMin="386" RangeMax="3233">
          394 461 464 704 714 715
          718 719 720 726 1047 1048
          1052 1053 1054 1055 1374 1375
          1376 1377 1378 1379 1380 1381
          1382 1383 1388 1389 1390 1391
          1392 1393 1394 1395 1396 1397
          1398 1399 1400 1401 1412 1414
          1415 1420 1432 1433 1434 1435
          1436 1437 1438 1439 1440 1441
          1450 1454 1843 1844 1845 1846
          1847 1848 1849 1850 1851 1852
          1853 1854 1855 1856 1860 1861
          1862 1863 2371 2372 2373 2374
          2375 2376 2377 2378 2379 2384
          2385 2386 2394 2395 2399 2400
          2401 2402 2403 2404 2405 2406
          2407 2408 2409 2410 2411 2412
          2413 2414 2415 2416 2417 2418
          2419 2420 2421 2422 2423 2424
          2425 2426 2427 2428 2429 2430
          2431 2432 2433 2434 2435 2436
          2437 2438 2439 2440 2441 2442
          2443 2444 2445 2446 2447 2448
          2449 2450 2451 2452 2453 2454
          2455 2456 2457 2458 2459 2460
          2461 2462 2463 2464 2465 2466
          2467 2468 2469 2470 2471 2472
          2473 2474 2475 2476 2477 2478
          2479 2480 2494 2495 2500 2502
          2503 2504 2505 2508 2509 2510
          2512 2513 2516 2517 2519 2520
          2522 2523 2524 2614 2615 2616
          2617 2618 2619 2620 2621 2622
          2623 2624 2625 2626 2627 2628
          2629 2630 2631 2632 2633 2634
          2635 2636 2637 2638 2639 2640
          2641 2642 2643 2644 2645 2646
          2647 2648 2649 2650 2651 2652
          2653 2654 2655 2656 2657 2658
          2659 2660 2661 2662 2663 2664
          2665 2666 2667 2668 2669 2670
          2671 2672 2673 2674 2675 2676
          2677 2678 2679 2680 2681 2694
          2695 2698 2699 2701 2702 2704
          2705 2706 2722 2723 2726 2727
          2729 2730 2732 2733 2734 2791
          2792 2793 2794 2798 2799 2801
          2802 2804 2819 2820 2823 2824
          2826 2828 2839 2840 2843 2845
          2846 2848 2859 2861 2863 2865
          2955 2956 2959 2960 2962 2964
          2975 2977 2979 2981 3063 3064
          3067 3069 3070 3072 3083 3085
          3087 3089 3097 3098 3101 3103
          3104 3106 3117 3119 3121 3123
          3199 3201 3203 3205 3227 3229
          3231 3233 386 1056 1057 1058
          1867 1868 1869 1870 1874 1875
          1480 1481 1487 1887 1888 1508
          2795 2796 2797 2800 1482 2803
          1483 2821 2822 2825 2827 1488
          2841 2842 2844 1490 2847 1491
          2860 2862 2864 1493 2957 2958
          2961 2963 1509 2976 2978 2980
          1515 3065 3066 3068 1528 3071
          1529 3084 3086 3088 1532 3099
          3100 3102 1534 3105 1535 3118
          3120 3122 1537 3200 3202 3204
          1548 3228 3230 3232 1552
        </DataArray>
        <DataArray type="Float64" Name="bounds" format="ascii" RangeMin="0" RangeMax="0">
          0 0 0 0 0 0
          0 0 0 0 0 0
          0 0 0 0 0 0
          0 0 0 0 0 0
          0 0 0 0 0 0
          0 0 0 0 0 0
          0 0 0 0 0 0
          0 0 0 0 0 0
          0 0 0 0 0 0
          0 0 0 0 0 0
          0 0 0 0 0 0
          0 0 0 0 0 0
          0 0 0 0 0 0
          0 0 0 0 0 0
          0 0 0 0 0 0
          0 0 0 0 0 0
          0 0 0 0 0 0
          0 0 0 0 0 0
          0 0 0 0 0 0
          0 0 0 0 0 0
          0 0 0 0 0 0
          0 0 0 0 0 0
          0 0 0 0 0 0
          0 0 0 0 0 0
          0 0 0 0 0 0
          0 0 0 0 0 0
          0 0 0 0 0 0
          0 0 0 0 0 0
          0 0 0 0 0 0
          0 0 0 0 0 0
          0 0 0 0 0 0
          0 0 0 0 0 0
          0 0 0 0 0 0
          0 0 0 0 0 0
          0 0 0 0 0 0
          0 0 0 0 0 0
          0 0 0 0 0 0
          0 0 0 0 0 0
          0 0 0 0 0 0
          0 0 0 0 0 0
          0 0 0 0 0 0
          0 0 0 0 0 0
          0 0 0 0 0 0
          0 0 0 0 0 0
          0 0 0 0 0 0
          0 0 0 0 0 0
          0 0 0 0 0 0
          0 0 0 0 0 0
          0 0 0 0 0 0
          0 0 0 0 0 0
          0 0 0 0 0 0
          0 0 0 0 0 0
          0 0 0 0 0 0
          0 0 0 0 0 0
          0 0 0 0 0 0
          0 0 0 0 0 0
          0 0 0 0 0 0
          0 0 0 0 0 0
          0 0 0 0 0 0
          0 0 0 0 0 0
          0 0 0 0 0 0
          0 0 0 0 0 0
          0 0 0 0 0 0
          0 0 0 0 0 0
          0 0 0 0 0 0
          0 0 0 0 0 0
          0 0 0 0 0 0
          0 0 0 0 0 0
          0 0 0 0 0
        </DataArray>
        <DataArray type="Float64" Name="gradient_error" format="ascii" RangeMin="2.0881080458221418e-10" RangeMax="8.6081097208932e-8">
          1.6998339935478344e-8 6.555392533713379e-8 1.8863432991371122e-9 4.9491964037420466e-8 2.5820876425861988e-8 1.9154400351919134e-8
          1.2361685872425206e-9 1.4359343868417803e-8 6.896618157682095e-9 2.0691443159172263e-8 4.1641826536370135e-8 3.412612741106365e-8
          1.8039325630912451e-9 2.4641366271194773e-9 1.6404353986146908e-8 1.3335069233096614e-8 4.1042546575747974e-8 3.749491249154113e-8
          8.6081097208932e-8 7.717893444836095e-8 1.3649562794543464e-8 4.3472176794688055e-8 3.8707398690134644e-8 2.829396145948705e-8
          5.52327725569375e-8 2.7186297735466484e-8 3.2596405460207446e-9 2.9401141923724784e-9 5.672951794872327e-9 4.90907685553952e-9
          1.6957300042063552e-9 3.5821810327714053e-9 3.055319791395194e-9 2.2190627729751537e-9 3.1842342683835787e-9 1.9038908849348784e-9
          1.9704065742743657e-8 1.651156698580498e-8 1.1930239998786075e-8 9.937027793553405e-9 2.6029139248106886e-9 1.3555762281846826e-9
          1.4336458138130758e-9 2.8298981265188493e-9 3.149975217761096e-8 3.093732649804807e-8 2.758079445807523e-8 2.6049931788536908e-8
          2.1470740956285034e-8 1.611647046047592e-8 1.9214277494090718e-8 2.6684683276801194e-8 2.4008653502007833e-8 2.6404526424335758e-8
          6.159968996642151e-9 8.015925104057572e-9 3.3390198459220747e-9 4.788720409508883e-9 4.33342838683203e-9 3.3987363653548365e-9
          2.4475962033432884e-9 2.216590655763187e-9 3.614096452238954e-9 3.280080483604953e-9 7.71328771478504e-10 1.8144397355841046e-9
          1.6545903038912975e-9 1.7159566935468041e-9 2.547369883951579e-9 1.2578586934342723e-9 1.1707563054947315e-9 1.7071929119582766e-9
          4.580272520056377e-10 8.063787375424315e-10 3.1759386250034114e-9 3.897776284896595e-9 3.793504766923608e-9 3.5192966825779586e-9
          7.958072292547625e-9 2.5294694660871986e-9 3.0654221683845637e-9 2.5037935462340733e-9 6.041543062421895e-9 1.4006312935212765e-8
          1.3379082672562467e-8 1.2017277567621835e-8 1.0093377921478462e-8 7.766228691352409e-9 2.6273936202913636e-9 2.559241828973289e-9
          3.5244259386855845e-9 3.4228769919430192e-9 1.6878222636590146e-9 2.7764063831171416e-9 2.6857945666197996e-9 2.355042006661606e-9
          3.1430147899983278e-9 2.4278777438662736e-9 7.294910214843848e-9 7.018069753971932e-9 5.471878366844933e-9 6.320654006182965e-9
          1.3043529365374404e-9 1.2612977313500917e-9 2.1225611701517965e-9 2.0488160307446125e-9 9.458919016918574e-10 1.615757498058482e-9
          1.5580324054693314e-9 1.1402694840400103e-9 1.8426625289032719e-9 1.3966739940748558e-9 4.537366153719305e-9 4.36821583236943e-9
          3.442366035772921e-9 3.897540521597201e-9 2.026629030582411e-9 2.7060454850009163e-9 1.313318087313921e-9 2.0525002077812613e-9
          1.6381179525379294e-9 2.1855633088047316e-9 1.6268158888321943e-9 5.3111091193452444e-9 4.097506704657621e-9 4.152318374960172e-9
          9.681212927510976e-10 1.5470185345667152e-9 7.212949856152736e-10 1.1658891497449791e-9 7.747850187207296e-10 1.2147269455650166e-9
          9.080506266167242e-10 3.2240386282164454e-9 2.5068326078277898e-9 2.4753972942052494e-9 1.2855277251759148e-8 1.2318910768658921e-8
          1.081261491939953e-8 1.0391516120388693e-8 1.1019169764698817e-8 9.22787517089098e-9 2.181154457069149e-8 2.0912185204857937e-8
          1.8852345836453423e-8 1.8476126587661175e-8 9.075724062010785e-9 8.70820126237188e-9 7.45153583372518e-9 7.1406123527517236e-9
          7.698254953257707e-9 6.2842817886175455e-9 1.7038988016297116e-8 1.6281165547092577e-8 1.3709543496500639e-8 1.4216406989952113e-8
          9.189280838686743e-9 7.596599477254818e-9 7.08049769041178e-9 5.817841154563386e-9 1.509089481145561e-8 1.3299523479610005e-8
          1.1513330262780935e-8 6.279803889376399e-9 5.078464089175647e-9 4.731551680285116e-9 3.770567136204242e-9 1.1372044821657099e-8
          9.479274413738926e-9 8.375482942774488e-9 8.318115585234367e-10 1.202203386750367e-9 2.297577985643693e-9 6.048687179851566e-10
          8.878722489435117e-10 4.429890192353013e-10 6.579799025705339e-10 5.385961761280478e-10 1.7571935302540812e-9 1.3354533855205723e-9
          5.218602828289654e-9 4.154793505904837e-9 8.378545496248078e-9 6.926198860621598e-9 3.3033990266774645e-9 2.585601968484987e-9
          1.6402802375248344e-9 5.701698374444735e-9 4.6008175804779915e-9 3.1061479070141203e-8 3.0432746664932984e-8 2.940869917354818e-8
          2.8621512587054742e-8 2.8112249173619477e-8 2.593811058697251e-8 3.2536857514201905e-8 3.256210302998956e-8 3.15385211113381e-8
          3.2195608430330046e-8 2.6913124272505594e-8 2.5982581831692377e-8 2.3702700353672017e-8 2.2749996309637732e-8 2.3108447163397444e-8
          1.995763124224133e-8 2.981031466886861e-8 2.979323398308522e-8 2.7428419549859276e-8 2.883063576820852e-8 2.3475556637160095e-8
          2.1214942805517788e-8 1.7649094402667087e-8 1.5584103749922766e-8 2.9604642530058856e-8 2.778261926843116e-8 2.340624108817476e-8
          1.8566364707400372e-8 1.5805124220515768e-8 1.3447554852066739e-8 1.1311408905127174e-8 2.5152985072638292e-8 2.205106331375535e-8
          1.8873259076701688e-8 2.4832639432832392e-8 2.6813881650093647e-8 2.435553018166089e-8 2.605414976698673e-8 2.9703954778007165e-8
          2.887477751271252e-8 1.86336251670708e-8 2.2432874344644993e-8 2.2092633189168007e-8 2.7616956957637604e-8 2.3288633669450713e-8
          2.479072933422473e-8 2.1740643948913284e-8 2.3249433818440024e-8 2.7573438684909957e-8 2.5828035390842667e-8 1.872239573393029e-8
          2.0914128461622642e-8 1.9289599706640105e-8 2.5416170617381082e-8 3.0702725522611945e-8 2.9586387920441278e-8 2.6965449073056206e-8
          2.5295176672868523e-8 3.010729501461757e-8 2.9228243829278796e-8 2.797931154550993e-8 2.7672580632991716e-8 2.5052805897632108e-8
          2.260880876497642e-8 1.9559006296193305e-8 2.7665277190895645e-8 2.5408931057877613e-8 2.3782220839703e-8 1.2576182092215406e-8
          1.0554446392477133e-8 1.6550141772461246e-8 1.4441385550359314e-8 8.927454869985972e-9 7.3888960582178135e-9 4.429151914398306e-9
          1.242360242166018e-8 1.0433284194999928e-8 1.981517988078001e-8 1.743280368700179e-8 2.1245579434855904e-8 1.852635759249561e-8
          1.512352840655447e-8 1.2790643181873524e-8 7.509289796514252e-9 1.6114651733619683e-8 1.3664142881061429e-8 7.174442423431725e-10
          6.932974337095147e-10 1.2063167787640269e-9 1.162142046991592e-9 6.243904816581855e-10 1.0388069749454608e-9 2.760876472771332e-9
          2.6490789663154305e-9 2.3410202827737437e-9 5.25604080048341e-10 8.630482493184583e-10 4.153411458420232e-10 6.681765808100873e-10
          1.9075892779233686e-9 1.4356990501305707e-9 5.9663868809284555e-9 5.707435871073856e-9 4.994065453780596e-9 1.1789915380802324e-8
          1.1243943588793448e-8 9.75312055977515e-9 3.995463542156386e-9 2.927840175623214e-9 7.696265469408705e-9 5.52399361413674e-9
          3.195429506395854e-10 4.803147256846398e-10 2.799814314512923e-10 3.9072615371425707e-10 9.962480229044382e-10 7.421087554293908e-10
          1.977688415146842e-9 1.2347421532018762e-9 3.6144901651955742e-9 2.1769546630227778e-9 2.0132058846726824e-8 1.9234659091178157e-8
          1.6698107903219693e-8 2.503215877096465e-8 2.4645514812689786e-8 2.2785120514118698e-8 1.3086599017959634e-8 9.269010452195752e-9
          1.8689230455344425e-8 1.3380835839144567e-8 2.0531117112410988e-8 2.1950070201338306e-8 2.375172247349567e-8 1.5788413746240796e-8
          1.8338242251856968e-8 2.2582492415889473e-8 2.186698222022682e-8 1.6393778702356576e-8 2.2512411573921254e-8 1.7421213669305483e-8
          5.950747006655378e-9 3.47839538536752e-9 8.541652415019944e-9 4.9207884355466254e-9 1.054510636911855e-8 6.0652619088894826e-9
          1.1283388876331324e-8 6.498885002623477e-9 1.185219236055572e-9 1.0658581810564826e-9 9.410270197692947e-10 8.409510781824087e-10
          3.56169901251069e-10 3.323371208067651e-10 8.861753583194826e-10 8.061733509347997e-10 2.6981534832423757e-10 6.086608035377993e-10
          9.65938687984687e-10 8.639508789363662e-10 6.219351482947555e-10 2.0881080458221418e-10 3.900782687225858e-10 6.810371355194654e-10
          4.980812716379027e-10 8.800500130267264e-10 8.471718719120784e-10 7.555804687163424e-10 2.0691100558595023e-9 1.9828383804946126e-9
          1.7458334187606426e-9 3.760910244606884e-10 6.255610040262403e-10 4.821200549293919e-10 1.414283340875352e-9 1.0564507867314998e-9
          4.6338805488081795e-9 4.423244395644207e-9 3.846400759481143e-9 9.425304066092318e-9 8.978401301057701e-9 7.755873117174808e-9
          3.048794152036356e-9 2.20885541114827e-9 6.063718319981499e-9 4.287498861808269e-9 2.280435230373286e-10 3.452878745550154e-10
          2.8059044066847314e-10 7.269924670960179e-10 7.488657042578315e-10 1.4727671656281967e-9 9.075730583745122e-10 2.7557764047772773e-9
          1.6296467515951374e-9 1.6443143515142227e-8 1.566679518248231e-8 1.3521892921328913e-8 2.191228832080853e-8 2.1290590776777325e-8
          1.9101353847964392e-8 1.0534245623983118e-8 7.380130625247374e-9 1.5283052485594862e-8 1.0807841697382278e-8 1.9903560663913453e-8
          2.0719351482637412e-8 2.103352504436678e-8 1.6392168035678986e-8 1.8311383677054833e-8 2.0660785443176767e-8 1.8247627095269917e-8
          1.3323795449558305e-8 1.901425643326715e-8 1.418985635208444e-8 4.643475047320063e-9 2.6515775975244615e-9 6.788524971935492e-9
          3.80929746102152e-9 8.465673655527182e-9 4.744301353726348e-9 9.08377627540601e-9 5.102380515951846e-9
        </DataArray>
        <DataArray type="Float64" Name="gradient_matprop_error" format="ascii" RangeMin="0" RangeMax="0">
          0 0 0 0 0 0
          0 0 0 0 0 0
          0 0 0 0 0 0
          0 0 0 0 0 0
          0 0 0 0 0 0
          0 0 0 0 0 0
          0 0 0 0 0 0
          0 0 0 0 0 0
          0 0 0 0 0 0
          0 0 0 0 0 0
          0 0 0 0 0 0
          0 0 0 0 0 0
          0 0 0 0 0 0
          0 0 0 0 0 0
          0 0 0 0 0 0
          0 0 0 0 0 0
          0 0 0 0 0 0
          0 0 0 0 0 0
          0 0 0 0 0 0
          0 0 0 0 0 0
          0 0 0 0 0 0
          0 0 0 0 0 0
          0 0 0 0 0 0
          0 0 0 0 0 0
          0 0 0 0 0 0
          0 0 0 0 0 0
          0 0 0 0 0 0
          0 0 0 0 0 0
          0 0 0 0 0 0
          0 0 0 0 0 0
          0 0 0 0 0 0
          0 0 0 0 0 0
          0 0 0 0 0 0
          0 0 0 0 0 0
          0 0 0 0 0 0
          0 0 0 0 0 0
          0 0 0 0 0 0
          0 0 0 0 0 0
          0 0 0 0 0 0
          0 0 0 0 0 0
          0 0 0 0 0 0
          0 0 0 0 0 0
          0 0 0 0 0 0
          0 0 0 0 0 0
          0 0 0 0 0 0
          0 0 0 0 0 0
          0 0 0 0 0 0
          0 0 0 0 0 0
          0 0 0 0 0 0
          0 0 0 0 0 0
          0 0 0 0 0 0
          0 0 0 0 0 0
          0 0 0 0 0 0
          0 0 0 0 0 0
          0 0 0 0 0 0
          0 0 0 0 0 0
          0 0 0 0 0 0
          0 0 0 0 0 0
          0 0 0 0 0 0
          0 0 0 0 0 0
          0 0 0 0 0 0
          0 0 0 0 0 0
          0 0 0 0 0 0
          0 0 0 0 0 0
          0 0 0 0 0 0
          0 0 0 0 0 0
          0 0 0 0 0 0
          0 0 0 0 0 0
          0 0 0 0 0
        </DataArray>
        <DataArray type="Float64" Name="initial_marker" format="ascii" RangeMin="0" RangeMax="2">
          2 1 1 1 1 0.75
          0.5 2 2 2 0 0
          0 0 0 0 2 2
          2 2 1.3333333333333333 2 2 2
          2 2 1 1 2 2
          1 2 2 0.5 2 2
          2 2 2 2 0 0
          1.5 2 2 2 2 2
          2 2 2 2 2 2
          2 2 0 0 0 0
          0 0 0 0 0 0
          0 0 0 0 0 0
          0 0 2 2 2 2
          2 2 2 1.5 2 2
          2 2 2 2 2 2
          2 2 2 2 2 2
          2 2 2 2 2 2
          2 2 2 2 2 2
          2 2 2 2 2 2
          2 2 2 2 2 2
          1 1.5 1.5 2 2 2
          2 2 2 2 1 1.5
          1.5 2 2 2 2 2
          2 2 2 2 2 2
          2 2 2 2 2 2
          2 2 2 2 2 2
          2 2 2 2 2 2
          2 2 2 2 2 2
          2 2 0 1 2 0
          1 0 1 1 2 2
          2 2 2 2 2 2
          2 2 2 2 2 2
          2 2 2 2 2 2
          2 2 2 2 2 2
          2 2 2 2 2 2
          2 2 2 2 2 2
          2 2 2 2 2 2
          2 2 2 2 2 2
          2 2 2 2 2 2
          2 2 2 2 2 2
          2 2 2 2 2 2
          2 2 2 2 2 2
          2 2 2 2 2 2
          2 2 2 2 2 2
          2 2 2 2 2 2
          2 2 2 2 2 2
          2 2 2 2 2 2
          2 2 2 2 1 1.5
          2 2 2 2 2 2
          2 2 2 2 2 2
          0 1 0 1 2 2
          2 2 2 2 2 2
          2 2 2 2 2 2
          2 2 2 2 2 2
          2 2 2 2 2 2
          2 2 2 2 2 2
          2 2 0 0 0 0
          0 0 0 0 0 0
          1 1 0.5 0 0 0
          2 2 2 2 2 2
          2 2 2 1.5 2 2
          2 2 2 2 2 2
          2 2 2 2 0 1
          1 2 1.5 2 2 2
          2 2 2 2 2 2
          2 2 2 2 2 2
          2 2 2 2 2 2
          2 2 2 2 2 2
          2 2 2 2 2
        </DataArray>
        <DataArray type="Float64" Name="markers_norefine" format="ascii" RangeMin="0" RangeMax="2">
          2 0 0 0 0 0
          0 0 0 0 0 0
          0 0 0 0 0 0
          0 0 0 0 0 0
          0 0 0 0 0 0
          0 0 0 0 0 0
          0 0 0 0 0 0
          0 0 2 1.25 1 0.25
          0 0 2 2 1.5 0.5
          0 0 0 0 0 0
          0 0 0 0 0 0
          0 0 0 0 0 0
          0 0 0 0 0 0
          0 0 0 0 0 0
          0 0 0 0 0 0
          0 0 0 0 0 0
          0 0 0 0 0 0
          0 0 0 0 0 0
          0 0 0 0 0 0
          0 0 0 0 0 0
          0 0 0 0 0 0
          0 0 0 0 0 0
          0 0 0 0 0 0
          0 0 0 0 0 0
          0 0 0 0 0 0
          0 0 0 0 0 0
          0 0 0 0 0 0
          0 0 0 0 0 0
          0 0 0 0 0 0
          0 0 0 0 0 0
          0 0 0 0 0 0
          0 0 0 1 1 1
          0.75 0.5 0.25 2 2 1.75
          1.5 0.5 0.25 0 0 0
          0 1.5 1.25 0.75 0.75 0
          0 0 0 0.5 0.5 0
          0 0 0 0 0.25 0
          0 2 2 2 2 2
          2 2 2 2 2 2
          2 2 1.75 1.75 1 2
          2 2 2 1.5 1.25 0.5
          0.25 2 1.5 1 0.75 0.25
          0 0 1 0.5 0 0
          0 0 0 0 0 0
          0 0 0 0 0 0
          0 0 0 0 0 0
          0 0 0 0 0 0
          0 0 0 0 0 0
          0 0 0 0 0 0
          0 0 0 0 0 0
          0 0 0 0 0 0
          0 0 0 0 0 0
          0 0.5 0.25 0 0 0
          0 0 1.5 1 0.25 2
          1.5 0.5 0 0 0 0
          0 0 0 0 0 0
          0 0 0 0 0 0
          0 0 0 0 0 0
          0 0 0 0 0 0
          0 0 0 0 0 0
          0 0 0 0 0 0
          0 0 0 0 0 0
          0 0 0 0 0 0
          0 0 0 0 0 0
          0 0 0 0 0 0
          0 0 0 0 0 0.5
          0.25 0 1 0.5 0 0
          0 0 0 0 0 0
          0 0 0 0 0
        </DataArray>
        <DataArray type="Float64" Name="markers_mustrefine" format="ascii" RangeMin="0" RangeMax="2">
          2 1 1 1 1 0.75
          0.5 2 2 2 0 0
          0 0 0 0 2 2
          2 2 1.3333333333333333 2 2 2
          2 2 1 1 2 2
          1 2 2 0.5 2 2
          2 2 2 2 0 0
          1.5 2 2 2 2 2
          2 2 2 2 2 2
          2 2 0 0 0 0
          0 0 0 0 0 0
          0 0 0 0 0 0
          0 0 2 2 2 2
          2 2 2 1.5 2 2
          2 2 2 2 2 2
          2 2 2 2 2 2
          2 2 2 2 2 2
          2 2 2 2 2 2
          2 2 2 2 2 2
          2 2 2 2 2 2
          1 1.5 1.5 2 2 2
          2 2 2 2 1 1.5
          1.5 2 2 2 2 2
          2 2 2 2 2 2
          2 2 2 2 2 2
          2 2 2 2 2 2
          2 2 2 2 2 2
          2 2 2 2 2 2
          2 2 0 1 2 0
          1 0 1 1 2 2
          2 2 2 2 2 2
          2 2 2 2 2 2
          2 2 2 2 2 2
          2 2 2 2 2 2
          2 2 2 2 2 2
          2 2 2 2 2 2
          2 2 2 2 2 2
          2 2 2 2 2 2
          2 2 2 2 2 2
          2 2 2 2 2 2
          2 2 2 2 2 2
          2 2 2 2 2 2
          2 2 2 2 2 2
          2 2 2 2 2 2
          2 2 2 2 2 2
          2 2 2 2 2 2
          2 2 2 2 2 2
          2 2 2 2 1 1.5
          2 2 2 2 2 2
          2 2 2 2 2 2
          0 1 0 1 2 2
          2 2 2 2 2 2
          2 2 2 2 2 2
          2 2 2 2 2 2
          2 2 2 2 2 2
          2 2 2 2 2 2
          2 2 0 0 0 0
          0 0 0 0 0 0
          1 1 0.5 0 0 0
          2 2 2 2 2 2
          2 2 2 1.5 2 2
          2 2 2 2 2 2
          2 2 2 2 0 1
          1 2 1.5 2 2 2
          2 2 2 2 2 2
          2 2 2 2 2 2
          2 2 2 2 2 2
          2 2 2 2 2 2
          2 2 2 2 2
        </DataArray>
        <DataArray type="Float64" Name="gradient_marker" format="ascii" RangeMin="0" RangeMax="1">
          1 0.25 1 0.25 0.25 0.25
          1 1 1 1 0.25 0.25
          0.5 0.5 0.5 0.5 0 0
          0.5 0.5 0.3333333333333333 0.25 0.25 0
          0.375 0.125 1 1 1 1
          1 1 1 1 1 1
          1 1 1 1 1 1
          1 1 1 1 1 1
          1 1 1 1 1 1
          1 1 1 1 1 1
          1 1 1 1 1 1
          1 1 1 1 1 1
          1 1 0 0 0 0
          0 0 0 0 0 0
          0 0 0 0 0.5 0.5
          0.5 0.5 1 1 1 0.5
          0.5 1 0.5 0.5 1 0.5
          1 1 1 1 1 1
          1 1 1 1 1 1
          1 1 0.5 0.5 1 1
          0.5 0.5 1 0.5 1 0.5
          1 1 1 1 1 1
          1 1 1 1 0.5 0.5
          1 1 0.5 1 0.5 0.5
          1 0.5 1 1 1 1
          1 1 1 1 1 1
          0.5 1 0.5 1 0.5 1
          0.5 1 1 1 1 1
          1 1 1 1 1 1
          1 1 1 1 1 1
          0.5 1 0.5 1 1 1
          1 1 1 0.5 0.5 1
          1 0.5 1 0.5 0.5 1
          0.5 1 1 1 1 1
          1 1 1 1 1 0.5
          1 0.5 1 0.5 1 0.5
          1 1 1 1 1 1
          1 0.5 0.5 1 1 0.5
          1 0.5 0.5 1 0.5 1
          1 1 1 1 1 1
          1 1 1 0.5 1 0.5
          1 0.5 1 0.5 1 1
          1 1 1 1 1 0.5
          1 0.5 1 1 1 1
          1 1 0.5 1 0.5 1
          1 1 1 1 1 1
          1 1 1 1 1 1
          1 1 1 1 1 1
          1 1 1 1 1 1
          1 1 1 1 1 1
          1 1 1 1 1 1
          1 1 1 1 1 1
          1 1 1 1 1 1
          1 1 1 1 1 1
          1 1 1 1 1 1
          1 1 1 1 1 1
          1 1 1 1 1 1
          1 1 1 1 1 1
          1 1 1 1 1 1
          1 1 1 1 1 1
          1 1 1 1 1 1
          1 1 1 1 1 1
          1 1 1 1 1 1
          1 1 1 1 1 1
          1 1 1 1 1 1
          1 1 1 1 1 1
          1 1 1 1 1 1
          1 1 1 1 1 1
          1 1 1 1 1
        </DataArray>
        <DataArray type="Float64" Name="gradient_matprop_marker" format="ascii" RangeMin="0" RangeMax="0">
          0 0 0 0 0 0
          0 0 0 0 0 0
          0 0 0 0 0 0
          0 0 0 0 0 0
          0 0 0 0 0 0
          0 0 0 0 0 0
          0 0 0 0 0 0
          0 0 0 0 0 0
          0 0 0 0 0 0
          0 0 0 0 0 0
          0 0 0 0 0 0
          0 0 0 0 0 0
          0 0 0 0 0 0
          0 0 0 0 0 0
          0 0 0 0 0 0
          0 0 0 0 0 0
          0 0 0 0 0 0
          0 0 0 0 0 0
          0 0 0 0 0 0
          0 0 0 0 0 0
          0 0 0 0 0 0
          0 0 0 0 0 0
          0 0 0 0 0 0
          0 0 0 0 0 0
          0 0 0 0 0 0
          0 0 0 0 0 0
          0 0 0 0 0 0
          0 0 0 0 0 0
          0 0 0 0 0 0
          0 0 0 0 0 0
          0 0 0 0 0 0
          0 0 0 0 0 0
          0 0 0 0 0 0
          0 0 0 0 0 0
          0 0 0 0 0 0
          0 0 0 0 0 0
          0 0 0 0 0 0
          0 0 0 0 0 0
          0 0 0 0 0 0
          0 0 0 0 0 0
          0 0 0 0 0 0
          0 0 0 0 0 0
          0 0 0 0 0 0
          0 0 0 0 0 0
          0 0 0 0 0 0
          0 0 0 0 0 0
          0 0 0 0 0 0
          0 0 0 0 0 0
          0 0 0 0 0 0
          0 0 0 0 0 0
          0 0 0 0 0 0
          0 0 0 0 0 0
          0 0 0 0 0 0
          0 0 0 0 0 0
          0 0 0 0 0 0
          0 0 0 0 0 0
          0 0 0 0 0 0
          0 0 0 0 0 0
          0 0 0 0 0 0
          0 0 0 0 0 0
          0 0 0 0 0 0
          0 0 0 0 0 0
          0 0 0 0 0 0
          0 0 0 0 0 0
          0 0 0 0 0 0
          0 0 0 0 0 0
          0 0 0 0 0 0
          0 0 0 0 0 0
          0 0 0 0 0
        </DataArray>
        <DataArray type="Float64" Name="combo" format="ascii" RangeMin="0" RangeMax="2">
          2 0.25 1 0.25 0.25 0.25
          1 1 1 1 0.25 0.25
          0.5 0.5 0.5 0.5 0 0
          0.5 0.5 0.3333333333333333 0.25 0.25 0
          0.375 0.125 1 1 1 1
          1 1 1 1 1 1
          1 1 1 1 1 1
          1 1 2 1.625 1.5 1.125
          1 1 2 2 1.75 1.25
          1 1 1 1 1 1
          1 1 1 1 1 1
          1 1 1 1 1 1
          1 1 0 0 0 0
          0 0 0 0 0 0
          0 0 0 0 0.5 0.5
          0.5 0.5 1 1 1 0.5
          0.5 1 0.5 0.5 1 0.5
          1 1 1 1 1 1
          1 1 1 1 1 1
          1 1 0.5 0.5 1 1
          0.5 0.5 1 0.5 1 0.5
          1 1 1 1 1 1
          1 1 1 1 0.5 0.5
          1 1 0.5 1 0.5 0.5
          1 0.5 1 1 1 1
          1 1 1 1 1 1
          0.5 1 0.5 1 0.5 1
          0.5 1 1 1 1 1
          1 1 1 1 1 1
          1 1 1 1 1 1
          0.5 1 0.5 1 1 1
          1 1 1 1.25 1.25 1.5
          1.375 0.875 1.125 2 2 1.875
          1.625 1.25 1.125 1 1 1
          1 1.75 1.625 1.375 1.375 0.5
          1 0.5 1 0.875 1.25 0.5
          1 1 1 1 1.125 1
          1 2 2 2 2 2
          2 2 2 2 2 2
          2 2 1.875 1.875 1.5 2
          2 2 2 1.625 1.625 0.875
          1.125 2 1.75 1.25 1.375 1.125
          1 1 1.5 1.25 1 0.5
          1 0.5 1 1 1 1
          1 1 0.5 1 0.5 1
          1 1 1 1 1 1
          1 1 1 1 1 1
          1 1 1 1 1 1
          1 1 1 1 1 1
          1 1 1 1 1 1
          1 1 1 1 1 1
          1 1 1 1 1 1
          1 1.25 1.125 1 1 1
          1 1 1.75 1.5 1.125 2
          1.75 1.25 1 1 1 1
          1 1 1 1 1 1
          1 1 1 1 1 1
          1 1 1 1 1 1
          1 1 1 1 1 1
          1 1 1 1 1 1
          1 1 1 1 1 1
          1 1 1 1 1 1
          1 1 1 1 1 1
          1 1 1 1 1 1
          1 1 1 1 1 1
          1 1 1 1 1 1.25
          1.125 1 1.5 1.25 1 1
          1 1 1 1 1 1
          1 1 1 1 1
        </DataArray>
        <DataArray type="Float64" Name="dHdT" format="ascii" RangeMin="25.817613957081775" RangeMax="61.928531114157934">
          56.64390597941518 28.115451925645495 26.097062084617352 27.343626359578142 26.94106328730784 26.565626237869587
          25.989305692860583 32.65901417056166 28.602016569569315 36.51304428415648 26.22626402141926 26.144511181309557
          25.833610682894886 25.83478878115311 26.00168096884634 25.96241747249366 28.597475356770524 28.299720333548954
          31.762236487511124 31.15372604141844 26.987848124310442 30.2854638520076 29.746233817590138 27.611071894518034
          29.635113617119373 28.47658521820428 26.35211016353414 26.29283774315658 28.196298410844534 27.833167966430434
          26.064200646669818 27.182113437819588 26.970766412713566 26.16001283023391 27.086394319767837 26.528778863929528
          35.24750248781656 33.914708917330415 31.434707154277508 30.554796824376865 26.045234493821585 25.929513425242117
          26.14712663471658 26.863403258368557 51.39340988499424 48.15721698410835 47.62756155957044 41.65892509210895
          36.99369221015069 33.76247820798017 46.24063991570033 51.94413799871056 53.638778551965196 41.91925784234617
          28.256527217798002 29.245408321334395 25.95546697954381 26.116382366126764 26.089765742388252 26.029409575042894
          25.92215994406782 25.9145631624709 26.0380654483114 26.018314084224304 25.85844656774844 25.922375305909075
          25.912626033318883 25.896773827158157 25.972589868446903 25.889209020759147 25.876773056542074 25.92280551068656
          25.842537472419288 25.865523874103477 26.948215551299967 27.529620075801937 27.47202479909486 27.323166285693805
          29.363822241181907 26.7186949581762 27.11370299783014 26.873069844705036 28.369734408064392 33.51633977441132
          33.24531943659887 32.39208100016461 30.977402875422758 29.489410722070748 26.823255338183603 26.789041262025233
          27.31539581125903 27.26469662681877 26.52668198628463 26.94205065541683 26.903135884077734 26.703722700056634
          27.13048847184528 26.797023194526865 29.02898135399987 28.887631151393112 28.098484782357254 28.522685085090533
          26.359528068228972 26.342003363902705 26.659669786167377 26.629786351014836 26.197748998785485 26.440712032773703
          26.41800605088239 26.294106884146412 26.54796469345629 26.35566488904717 27.623688642485646 27.54891359918217
          27.125277716712965 27.346434786290992 26.58831962387036 26.941280534878345 26.37395574376919 26.64668503491185
          26.455744574611916 26.72658465499717 26.478944597072427 28.034331477254497 27.470392088285653 27.52412016218792
          26.224662979372056 26.431561809957024 26.109440777505277 26.26714990507424 26.145638719327657 26.30235715323333
          26.169603890670125 27.067743759758077 26.75688846864019 26.770853491013742 32.7166716221407 32.443109652698126
          31.257631711811186 30.981011781203875 31.603118453394156 30.213364947696796 37.849494713919306 36.991271367846224
          34.86525498406925 35.36912545633997 29.989573787870874 29.754094684718062 28.93032101115428 28.764483418286215
          29.149807846757845 28.333122598817923 33.86253893747559 33.57526551754804 32.360193202448656 32.70159730770029
          30.32129590571153 29.204508512545143 29.032777899467916 28.252641821176454 33.75239490277454 32.46892353446326