<?xml version="1.0"?>
<VTKFile type="UnstructuredGrid" version="0.1" byte_order="LittleEndian" header_type="UInt32" compressor="vtkZLibDataCompressor">
  <UnstructuredGrid>
    <Piece NumberOfPoints="1603" NumberOfCells="955">
      <PointData>
        <DataArray type="Int32" Name="libmesh_node_id" format="ascii" RangeMin="68" RangeMax="15143">
          72 73 74 75 76 77
          78 79 80 81 82 83
          84 85 86 87 88 89
          90 91 92 93 94 95
          96 97 98 99 100 101
          102 103 104 105 106 107
          144 145 146 147 148 149
          150 151 152 153 154 155
          156 157 158 159 160 161
          198 199 200 201 202 203
          204 205 206 207 208 209
          210 211 212 213 214 215
          252 253 254 255 256 257
          258 259 260 261 262 263
          264 265 266 267 268 269
          288 289 290 291 292 293
          294 295 296 315 316 317
          318 319 320 321 322 323
          358 359 360 361 362 363
          364 365 366 367 368 369
          370 371 372 373 374 375
          376 377 395 396 397 398
          399 400 401 402 403 404
          422 423 424 425 426 427
          428 429 430 431 466 467
          468 469 470 471 472 473
          474 475 476 477 478 479
          480 481 482 483 484 485
          503 504 505 506 507 508
          509 510 511 512 530 531
          532 533 534 535 536 537
          538 539 574 575 576 577
          578 579 580 581 582 583
          584 585 586 587 588 589
          590 591 592 593 611 612
          613 614 615 616 617 618
          619 620 638 639 640 641
          642 643 644 645 646 647
          680 681 682 683 684 685
          686 687 688 689 690 691
          692 693 694 695 696 697
          698 699 700 701 718 719
          720 721 722 723 724 725
          726 727 728 745 746 747
          748 749 750 751 752 753
          754 755 786 787 788 789
          790 791 792 793 794 795
          796 797 798 799 800 801
          802 803 804 805 806 807
          808 809 825 826 827 828
          829 830 831 832 833 834
          835 836 852 853 854 855
          856 857 858 859 860 861
          862 863 894 895 896 897
          898 899 900 901 902 903
          904 905 906 907 908 909
          910 911 912 913 914 915
          916 917 933 934 935 936
          937 938 939 940 941 942
          943 944 960 961 962 963
          964 965 966 967 968 969
          970 971 1002 1003 1004 1005
          1006 1007 1008 1009 1010 1011
          1012 1013 1014 1015 1016 1017
          1018 1019 1020 1021 1022 1023
          1024 1025 1041 1042 1043 1044
          1045 1046 1047 1048 1049 1050
          1051 1052 1068 1069 1070 1071
          1072 1073 1074 1075 1076 1077
          1078 1079 1110 1111 1112 1113
          1114 1115 1116 1117 1118 1119
          1120 1121 1122 1123 1124 1125
          1126 1127 1128 1129 1130 1131
          1132 1133 1149 1150 1151 1152
          1153 1154 1155 1156 1157 1158
          1159 1160 1176 1177 1178 1179
          1180 1181 1182 1183 1184 1185
          1186 1187 1218 1219 1220 1221
          1222 1223 1224 1225 1226 1227
          1228 1229 1230 1231 1232 1233
          1234 1235 1236 1237 1238 1239
          1240 1241 1257 1258 1259 1260
          1261 1262 1263 1264 1265 1266
          1267 1268 1284 1285 1286 1287
          1288 1289 1290 1291 1292 1293
          1294 1295 1322 1323 1324 1325
          1326 1327 1328 1329 1330 1331
          1332 1333 1334 1335 1336 1337
          1338 1339 1340 1341 1342 1343
          1344 1345 1346 1347 1348 1349
          1363 1364 1365 1366 1367 1368
          1369 1370 1371 1372 1373 1374
          1375 1376 1390 1391 1392 1393
          1394 1395 1396 1397 1398 1399
          1400 1401 1402 1403 1430 1431
          1432 1433 1434 1435 1436 1437
          1438 1439 1440 1441 1442 1443
          1444 1445 1446 1447 1448 1449
          1450 1451 1452 1453 1454 1455
          1456 1457 1471 1472 1473 1474
          1475 1476 1477 1478 1479 1480
          1481 1482 1483 1484 1498 1499
          1500 1501 1502 1503 1504 1505
          1506 1507 1508 1509 1510 1511
          1538 1539 1540 1541 1542 1543
          1544 1545 1546 1547 1548 1549
          1550 1551 1552 1553 1554 1555
          1556 1557 1558 1559 1560 1561
          1562 1563 1564 1565 1579 1580
          1581 1582 1583 1584 1585 1586
          1587 1588 1589 1590 1591 1592
          1606 1607 1608 1609 1610 1611
          1612 1613 1614 1615 1616 1617
          1618 1619 1644 1645 1646 1647
          1648 1649 1650 1651 1652 1653
          1654 1655 1656 1657 1658 1659
          1660 1661 1662 1663 1664 1665
          1666 1667 1668 1669 1670 1671
          1672 1673 1686 1687 1688 1689
          1690 1691 1692 1693 1694 1695
          1696 1697 1698 1699 1700 1713
          1714 1715 1716 1717 1718 1719
          1720 1721 1722 1723 1724 1725
          1726 1727 1752 1753 1754 1755
          1756 1757 1758 1759 1767 1770
          1771 1772 1773 1774 1775 1776
          1777 1778 1779 1780 1781 1794
          1795 1796 1797 1798 1799 1800
          1801 1802 1803 1804 1805 1806
          1807 1808 1821 1822 1823 1824
          1825 1826 1827 1828 1829 1830
          1831 1832 1833 1834 1835 1858
          1860 1861 1862 1863 1864 1865
          1866 1867 1879 1880 1881 1882
          1883 1884 1885 1886 1887 1888
          1889 1902 1903 1904 1905 1906
          1909 1910 1911 1912 1913 1914
          1915 1916 1929 1930 1931 1932
          1933 1934 1935 1936 1937 1938
          1939 1940 1941 1942 1943 1944
          1945 1946 1947 1949 1950 1954
          1955 1956 1960 1962 2023 2028
          2039 2040 2041 2046 2051 2059
          2060 2061 2063 2065 2067 2069
          2071 2072 2073 2076 2272 2273
          2274 2279 2282 2286 2287 2290
          2293 2296 2297 2300 2301 2302
          2303 2305 2306 2307 2310 2313
          2314 2315 3084 3085 3086 3087
          3088 3089 3090 3091 3092 3093
          3094 3095 3097 3098 3099 3100
          3102 3103 3169 3171 3175 3176
          3179 3182 5155 5156 5157 5158
          5159 5160 5161 5162 5163 5164
          5165 5166 5167 5168 5169 5170
          5171 5172 5173 5174 5175 5176
          5177 5178 5179 5180 5181 5182
          5185 5186 5188 5189 5190 5191
          5192 5195 5196 5197 5198 5201
          5202 14497 14498 14499 14500 14501
          14502 14503 14504 14505 14506 14613
          14619 14621 14622 14623 14624 14625
          14626 14627 14628 14629 14630 14631
          14632 14633 14634 14635 14636 14637
          14638 14639 14640 14641 14642 14643
          14644 14645 14646 14647 14648 14649
          14650 14651 14652 14653 14654 14655
          14656 14657 14772 14773 14774 14775
          14776 14777 14778 14779 14780 14781
          14782 14783 14784 14785 14786 14787
          14788 14789 14790 14791 14792 14793
          14794 14795 14796 14797 14798 14799
          14800 14801 14802 14803 14804 14805
          14806 14807 14808 14809 14810 14811
          14812 14813 14814 14815 14816 14817
          14818 14819 14820 14821 14822 14823
          14824 14825 14826 14827 14828 14829
          14830 14831 14832 14833 14834 14835
          14836 14837 14838 14839 14840 14841
          14842 14843 14844 14845 14846 14847
          14848 14849 14850 14851 14852 14853
          14854 14855 14856 14857 14858 14859
          14860 14861 14862 14863 14864 14865
          14866 14867 14868 14869 14870 14871
          14872 14873 14874 14875 14876 14877
          14878 14879 14880 14881 14882 14883
          14884 14885 14886 14887 14888 14889
          14890 14891 14892 14893 14894 14895
          14896 14897 14898 14899 14900 14901
          14902 14903 14904 14905 14906 14907
          14908 14909 14910 14911 14912 14913
          14914 14915 14935 14936 14937 14938
          14939 14940 14941 14942 14943 14944
          14945 14946 14947 14948 14949 14950
          14951 14952 14953 14954 14955 14956
          14957 14958 14959 14960 14961 14962
          14963 14964 14965 14966 14967 14968
          14969 14970 14971 14972 14973 14974
          14975 14976 14977 14978 14979 14980
          14981 14982 14983 14984 14985 14986
          14987 14988 14989 14990 14991 14992
          14993 14994 14995 14996 14997 14998
          14999 15000 15001 15002 15003 15004
          15005 15006 15007 15008 15009 15010
          15011 15012 15013 15014 15015 15016
          15017 15018 15019 15020 15021 15022
          15023 15024 15025 15026 15027 15028
          15029 15030 15031 15032 15033 15034
          15035 15036 15037 15038 15039 15040
          15041 15042 15043 15044 15045 15046
          15047 15048 15049 15050 15051 15052
          15053 15054 15055 15056 15057 15058
          15059 15060 15061 15062 15063 15064
          15065 15066 15067 15068 15069 15070
          15071 15072 15073 15074 15075 15076
          15077 15078 15079 15080 15081 15082
          15083 15084 15085 15086 15087 15088
          15089 15090 15091 15092 15093 15094
          15095 15096 15097 15098 15099 15100
          15101 15102 15103 15104 15105 15106
          15107 15108 15109 15110 15111 15112
          15113 15114 15115 15116 15117 15118
          15119 15120 15121 15122 15123 15124
          15125 15126 15127 15128 15129 15130
          15131 15132 15133 15134 15135 15136
          15137 15138 15139 15140 15141 15142
          15143 68 69 70 71 142
          143 196 197 250 251 287
          314 248 249 356 357 286
          394 313 421 464 465 502
          529 572 573 610 637 570
          571 678 679 609 717 636
          744 676 677 784 785 716
          824 743 851 892 893 932
          959 1000 1001 1040 1067 1108
          1109 1148 1175 1216 1217 1256
          1283 1212 1214 1215 1213 1320
          1321 1255 1254 1362 1282 1281
          1389 1428 1429 1470 1497 1536
          1537 1578 1605 1534 1535 1642
          1643 1577 1685 1604 1712 1768
          1769 1751 1793 1761 1763 1765
          1820 1878 1877 1901 1928 1907
          1908 1951 1953 1957 2019 2020
          2021 2024 2025 2022 2026 2027
          2030 2031 2032 2034 2033 2036
          2035 2037 2038 2042 2044 2043
          2045 1984 2049 2047 1985 1986
          2050 2048 2052 2053 2054 2055
          2056 2057 2058 2062 2012 2013
          2014 2070 2068 2074 2075 2079
          2078 2087 2083 2082 2088 2089
          2275 2276 2277 2278 2280 2281
          2283 2284 2285 2288 2289 2291
          2292 2294 2295 2298 2299 2304
          2308 2309 2311 2312 2006 2009
          1869 3096 2331 2090 2333 2336
          1959 2095 3101 2338 2180 3170
          2172 2181 3172 3173 2182 3174
          3177 3178 1990 2185 3180 1873
          3181 1760 5183 5184 3106 3107
          3110 5187 3113 1948 2077 5193
          5194 2080 5199 5200 2093 14493
          1750 14495 14494 14611 14614 14612
          14616 14615 14618 1859 14620 14764
          14765 14768 14770 14923 14924 14925
          14929 14617 14933 14487 14488 14489
          14492
        </DataArray>
        <DataArray type="Float64" Name="bounds" format="ascii" RangeMin="0" RangeMax="0">
          0 0 0 0 0 0
          0 0 0 0 0 0
          0 0 0 0 0 0
          0 0 0 0 0 0
          0 0 0 0 0 0
          0 0 0 0 0 0
          0 0 0 0 0 0
          0 0 0 0 0 0
          0 0 0 0 0 0
          0 0 0 0 0 0
          0 0 0 0 0 0
          0 0 0 0 0 0
          0 0 0 0 0 0
          0 0 0 0 0 0
          0 0 0 0 0 0
          0 0 0 0 0 0
          0 0 0 0 0 0
          0 0 0 0 0 0
          0 0 0 0 0 0
          0 0 0 0 0 0
          0 0 0 0 0 0
          0 0 0 0 0 0
          0 0 0 0 0 0
          0 0 0 0 0 0
          0 0 0 0 0 0
          0 0 0 0 0 0
          0 0 0 0 0 0
          0 0 0 0 0 0
          0 0 0 0 0 0
          0 0 0 0 0 0
          0 0 0 0 0 0
          0 0 0 0 0 0
          0 0 0 0 0 0
          0 0 0 0 0 0
          0 0 0 0 0 0
          0 0 0 0 0 0
          0 0 0 0 0 0
          0 0 0 0 0 0
          0 0 0 0 0 0
          0 0 0 0 0 0
          0 0 0 0 0 0
          0 0 0 0 0 0
          0 0 0 0 0 0
          0 0 0 0 0 0
          0 0 0 0 0 0
          0 0 0 0 0 0
          0 0 0 0 0 0
          0 0 0 0 0 0
          0 0 0 0 0 0
          0 0 0 0 0 0
          0 0 0 0 0 0
          0 0 0 0 0 0
          0 0 0 0 0 0
          0 0 0 0 0 0
          0 0 0 0 0 0
          0 0 0 0 0 0
          0 0 0 0 0 0
          0 0 0 0 0 0
          0 0 0 0 0 0
          0 0 0 0 0 0
          0 0 0 0 0 0
          0 0 0 0 0 0
          0 0 0 0 0 0
          0 0 0 0 0 0
          0 0 0 0 0 0
          0 0 0 0 0 0
          0 0 0 0 0 0
          0 0 0 0 0 0
          0 0 0 0 0 0
          0 0 0 0 0 0
          0 0 0 0 0 0
          0 0 0 0 0 0
          0 0 0 0 0 0
          0 0 0 0 0 0
          0 0 0 0 0 0
          0 0 0 0 0 0
          0 0 0 0 0 0
          0 0 0 0 0 0
          0 0 0 0 0 0
          0 0 0 0 0 0
          0 0 0 0 0 0
          0 0 0 0 0 0
          0 0 0 0 0 0
          0 0 0 0 0 0
          0 0 0 0 0 0
          0 0 0 0 0 0
          0 0 0 0 0 0
          0 0 0 0 0 0
          0 0 0 0 0 0
          0 0 0 0 0 0
          0 0 0 0 0 0
          0 0 0 0 0 0
          0 0 0 0 0 0
          0 0 0 0 0 0
          0 0 0 0 0 0
          0 0 0 0 0 0
          0 0 0 0 0 0
          0 0 0 0 0 0
          0 0 0 0 0 0
          0 0 0 0 0 0
          0 0 0 0 0 0
          0 0 0 0 0 0
          0 0 0 0 0 0
          0 0 0 0 0 0
          0 0 0 0 0 0
          0 0 0 0 0 0
          0 0 0 0 0 0
          0 0 0 0 0 0
          0 0 0 0 0 0
          0 0 0 0 0 0
          0 0 0 0 0 0
          0 0 0 0 0 0
          0 0 0 0 0 0
          0 0 0 0 0 0
          0 0 0 0 0 0
          0 0 0 0 0 0
          0 0 0 0 0 0
          0 0 0 0 0 0
          0 0 0 0 0 0
          0 0 0 0 0 0
          0 0 0 0 0 0
          0 0 0 0 0 0
          0 0 0 0 0 0
          0 0 0 0 0 0
          0 0 0 0 0 0
          0 0 0 0 0 0
          0 0 0 0 0 0
          0 0 0 0 0 0
          0 0 0 0 0 0
          0 0 0 0 0 0
          0 0 0 0 0 0
          0 0 0 0 0 0
          0 0 0 0 0 0
          0 0 0 0 0 0
          0 0 0 0 0 0
          0 0 0 0 0 0
          0 0 0 0 0 0
          0 0 0 0 0 0
          0 0 0 0 0 0
          0 0 0 0 0 0
          0 0 0 0 0 0
          0 0 0 0 0 0
          0 0 0 0 0 0
          0 0 0 0 0 0
          0 0 0 0 0 0
          0 0 0 0 0 0
          0 0 0 0 0 0
          0 0 0 0 0 0
          0 0 0 0 0 0
          0 0 0 0 0 0
          0 0 0 0 0 0
          0 0 0 0 0 0
          0 0 0 0 0 0
          0 0 0 0 0 0
          0 0 0 0 0 0
          0 0 0 0 0 0
          0 0 0 0 0 0
          0 0 0 0 0 0
          0 0 0 0 0 0
          0 0 0 0 0 0
          0 0 0 0 0 0
          0 0 0 0 0 0
          0 0 0 0 0 0
          0 0 0 0 0 0
          0 0 0 0 0 0
          0 0 0 0 0 0
          0 0 0 0 0 0
          0 0 0 0 0 0
          0 0 0 0 0 0
          0 0 0 0 0 0
          0 0 0 0 0 0
          0 0 0 0 0 0
          0 0 0 0 0 0
          0 0 0 0 0 0
          0 0 0 0 0 0
          0 0 0 0 0 0
          0 0 0 0 0 0
          0 0 0 0 0 0
          0 0 0 0 0 0
          0 0 0 0 0 0
          0 0 0 0 0 0
          0 0 0 0 0 0
          0 0 0 0 0 0
          0 0 0 0 0 0
          0 0 0 0 0 0
          0 0 0 0 0 0
          0 0 0 0 0 0
          0 0 0 0 0 0
          0 0 0 0 0 0
          0 0 0 0 0 0
          0 0 0 0 0 0
          0 0 0 0 0 0
          0 0 0 0 0 0
          0 0 0 0 0 0
          0 0 0 0 0 0
          0 0 0 0 0 0
          0 0 0 0 0 0
          0 0 0 0 0 0
          0 0 0 0 0 0
          0 0 0 0 0 0
          0 0 0 0 0 0
          0 0 0 0 0 0
          0 0 0 0 0 0
          0 0 0 0 0 0
          0 0 0 0 0 0
          0 0 0 0 0 0
          0 0 0 0 0 0
          0 0 0 0 0 0
          0 0 0 0 0 0
          0 0 0 0 0 0
          0 0 0 0 0 0
          0 0 0 0 0 0
          0 0 0 0 0 0
          0 0 0 0 0 0
          0 0 0 0 0 0
          0 0 0 0 0 0
          0 0 0 0 0 0
          0 0 0 0 0 0
          0 0 0 0 0 0
          0 0 0 0 0 0
          0 0 0 0 0 0
          0 0 0 0 0 0
          0 0 0 0 0 0
          0 0 0 0 0 0
          0 0 0 0 0 0
          0 0 0 0 0 0
          0 0 0 0 0 0
          0 0 0 0 0 0
          0 0 0 0 0 0
          0 0 0 0 0 0
          0 0 0 0 0 0
          0 0 0 0 0 0
          0 0 0 0 0 0
          0 0 0 0 0 0
          0 0 0 0 0 0
          0 0 0 0 0 0
          0 0 0 0 0 0
          0 0 0 0 0 0
          0 0 0 0 0 0
          0 0 0 0 0 0
          0 0 0 0 0 0
          0 0 0 0 0 0
          0 0 0 0 0 0
          0 0 0 0 0 0
          0 0 0 0 0 0
          0 0 0 0 0 0
          0 0 0 0 0 0
          0 0 0 0 0 0
          0 0 0 0 0 0
          0 0 0 0 0 0
          0 0 0 0 0 0
          0 0 0 0 0 0
          0 0 0 0 0 0
          0 0 0 0 0 0
          0 0 0 0 0 0
          0 0 0 0 0 0
          0 0 0 0 0 0
          0 0 0 0 0 0
          0 0 0 0 0 0
          0 0 0 0 0 0
          0 0 0 0 0 0
          0 0 0 0 0 0
          0 0 0 0 0 0
          0 0 0 0 0 0
          0 0 0 0 0 0
          0 0 0 0 0 0
          0 0 0 0 0 0
          0
        </DataArray>
        <DataArray type="Float64" Name="gradient_error" format="ascii" RangeMin="4.092820877660715e-16" RangeMax="2.848587561429655e-7">
          6.898984140773677e-16 6.898978597091318e-16 6.89757787957446e-16 6.89753985803165e-16 6.898660080439762e-16 6.898558978899514e-16
          6.898159710996815e-16 6.898367866550718e-16 6.89848366794856e-16 6.898494063109352e-16 6.898534157146454e-16 6.898519112893265e-16
          6.898491339314675e-16 6.898492871128989e-16 6.898527474567299e-16 6.898526846155772e-16 6.898502546367371e-16 6.898502271427704e-16
          6.898508896192172e-16 6.898508352859635e-16 6.898503384280561e-16 6.898502952231694e-16 6.898503868698866e-16 6.898503731228868e-16
          6.898502572552369e-16 6.89850257255237e-16 6.898503056970481e-16 6.898503639581989e-16 6.898504326932832e-16 6.898503646128558e-16
          6.898503816329254e-16 6.898504569141763e-16 6.898506343161312e-16 6.898504929183204e-16 6.898504876813454e-16 6.898505505248247e-16
          6.898676042702789e-16 6.898128222367773e-16 6.898471374867464e-16 6.898557642940285e-16 6.898502049084049e-16 6.898502194850251e-16
          6.898497898590254e-16 6.898512575307764e-16 6.898502664199208e-16 6.898505479071941e-16 6.898501931025373e-16 6.898503750867486e-16
          6.898501512068678e-16 6.898504222193443e-16 6.898503606851122e-16 6.898505727818372e-16 6.898504929182892e-16 6.898506866856769e-16
          6.898379031996618e-16 6.898754608246708e-16 6.898484872375661e-16 6.898539263775949e-16 6.898499639897954e-16 6.898500321060426e-16
          6.898501394237205e-16 6.8984989328712815e-16 6.898503331910382e-16 6.898503148616785e-16 6.898501341867917e-16 6.8985039079761005e-16
          6.898500451584986e-16 6.898504222193386e-16 6.898504248377962e-16 6.898506133682472e-16 6.898506343160691e-16 6.898507600030497e-16
          6.901703056540564e-16 6.902051842976033e-16 6.899871725985661e-16 6.899130047519522e-16 6.898439297990296e-16 6.898484446743446e-16
          6.898415760372983e-16 6.898422405068564e-16 6.898484701660827e-16 6.898487280883195e-16 6.898504549505403e-16 6.898504457859006e-16
          6.8985069585028135e-16 6.898506460992109e-16 6.898507076334316e-16 6.89850729235886e-16 6.898507181073653e-16 6.898507927340152e-16
          6.899988260687457e-16 6.898359180447389e-16 6.898514163376641e-16 6.898473535674536e-16 6.898499836374577e-16 6.898505871835862e-16
          6.898506716294234e-16 6.898507423283581e-16 6.898508032079782e-16 6.897575891963411e-16 6.898329991841394e-16 6.898498731256688e-16
          6.898518021584926e-16 6.89850981264359e-16 6.898507377459111e-16 6.898507469107061e-16 6.89850733818376e-16 6.898507390552914e-16
          6.965889097930242e-16 6.935590885155697e-16 6.888886334573321e-16 6.886221527861482e-16 6.892846290698318e-16 6.895610092404618e-16
          6.898533827599456e-16 6.89841991229681e-16 6.898828088403036e-16 6.898812890735266e-16 6.898592101821348e-16 6.898585222094886e-16
          6.8985120253283095e-16 6.898512110428378e-16 6.898501865563872e-16 6.898503102795879e-16 6.898502624922316e-16 6.898503953801012e-16
          6.898503358096269e-16 6.898504785167314e-16 6.900367224603554e-16 6.892837103834457e-16 6.898853218938449e-16 6.898449028891592e-16
          6.898637839151516e-16 6.898539868316397e-16 6.898510172719973e-16 6.898506847219624e-16 6.898507148344727e-16 6.898507456015029e-16
          6.895441776825955e-16 6.90211748651927e-16 6.899332543765979e-16 6.898592060789022e-16 6.898477985235536e-16 6.89850139426437e-16
          6.8985081499115e-16 6.898509354411359e-16 6.89850901400975e-16 6.898508699791697e-16 6.739337616812153e-16 6.867051423619482e-16
          6.955192120368894e-16 6.962099708574637e-16 6.92248796882695e-16 6.912081547110214e-16 6.899366124797279e-16 6.899634078878096e-16
          6.897360393690528e-16 6.89740388827486e-16 6.898107809865242e-16 6.89814704803183e-16 6.898431233609295e-16 6.898445962897714e-16
          6.898488511344102e-16 6.898496857766517e-16 6.898491653512442e-16 6.898499508957102e-16 6.898491313111065e-16 6.898498959076306e-16
          6.963830353979935e-16 6.927087868583552e-16 6.898265345741264e-16 6.898942830431172e-16 6.8980192868907325e-16 6.898367721240195e-16
          6.898494430207528e-16 6.898513373810433e-16 6.898513229777047e-16 6.898512758449823e-16 6.932895477533058e-16 6.885168440386723e-16
          6.894855566089051e-16 6.897983627903433e-16 6.898591190922274e-16 6.898549156281972e-16 6.898528168228922e-16 6.898521543431936e-16
          6.898519095152332e-16 6.8985189118581e-16 8.678902347929625e-16 8.299295709958394e-16 7.023316648899486e-16 6.900535246936798e-16
          6.805672135269954e-16 6.841467894169103e-16 6.891403803075113e-16 6.891006979371532e-16 6.902061126247983e-16 6.902066876375525e-16
          6.900001277463066e-16 6.899914022384809e-16 6.898760354716272e-16 6.89875106661104e-16 6.898473220279219e-16 6.898496786521111e-16
          6.898434413721367e-16 6.898464644317459e-16 6.898432633145896e-16 6.898463466032886e-16 7.50352791597661e-16 6.86398810244039e-16
          6.896077792623585e-16 6.896099432927573e-16 6.900308867191623e-16 6.8991610619158e-16 6.898638554554659e-16 6.898536515034426e-16
          6.898526833203578e-16 6.898527815162939e-16 7.087366759966058e-16 6.950222359906669e-16 6.914891932178919e-16 6.901588710187201e-16
          6.898545107880179e-16 6.898495356525048e-16 6.898535330603513e-16 6.898552677305849e-16 6.898558791493605e-16 6.898561331406e-16
          3.878268430932205e-15 3.2210400974560115e-15 1.689160017730059e-15 1.6538163158060042e-15 9.637781772904734e-16 9.114326830366181e-16
          7.344291459830634e-16 7.203606040500821e-16 6.954678609579129e-16 6.954470194475755e-16 6.888624657197873e-16 6.888349074099903e-16
          6.892412935794162e-16 6.892897090193371e-16 6.896805801135428e-16 6.897076126641172e-16 6.898060602204787e-16 6.898206372778842e-16
          6.898297103225021e-16 6.898411508546055e-16 6.898326168389105e-16 6.898435558467518e-16 1.9830649750929825e-15 1.2790278240574122e-15
          7.663287680691785e-16 6.949628830014971e-16 6.919342534688756e-16 6.892872081744356e-16 6.896051083081984e-16 6.8980656223322005e-16
          6.898557669240577e-16 6.89863720149887e-16 6.898644970864622e-16 1.4023181862061476e-15 9.395830342328748e-16 6.735703473555943e-16
          6.836337038858935e-16 6.88442329000513e-16 6.897670672486775e-16 6.898720921571387e-16 6.898784792517487e-16 6.898763195128255e-16
          6.898748489130647e-16 6.898744993183312e-16 3.179720094708205e-14 2.3126673839168623e-14 1.6323432340171035e-14 1.3370082032169562e-14
          5.960836811734692e-15 5.557599440243864e-15 1.9460496870342256e-15 1.6656081098253778e-15 6.895694314628565e-16 6.868869082340413e-16
          6.827852167302594e-16 6.834758872210946e-16 6.912070863767448e-16 6.915997212020974e-16 6.917417871721091e-16 6.916957948460073e-16
          6.903652133111925e-16 6.903564832450915e-16 6.898701026597233e-16 6.899042673165869e-16 6.89753955916698e-16 6.898014953148883e-16
          6.897357189775842e-16 6.897856865001117e-16 1.096125898308266e-14 7.814377777116279e-15 3.770360932871988e-15 1.0684200930372664e-15
          7.019518848895637e-16 6.909098765655796e-16 6.914056899465218e-16 6.908644873848685e-16 6.901541009728138e-16 6.899402947858963e-16
          6.898947573849361e-16 6.898881034074574e-16 7.466371234910125e-15 5.212023830064469e-15 2.3863597969909398e-15 7.516736534580032e-16
          7.196993847739018e-16 6.976531954192292e-16 6.908190238655933e-16 6.900791722498312e-16 6.899604487666368e-16 6.899421575983421e-16
          6.899404800567935e-16 6.899405527922756e-16 1.458330619369974e-13 1.0844873862551823e-13 7.137485021040082e-14 5.917055733789423e-14
          2.350613376713965e-14 2.2276074588218767e-14 6.695095641013909e-15 5.440742895148462e-15 1.7202241049146476e-15 1.5439558605658926e-15
          9.475241448228283e-16 9.455904734737728e-16 6.972675199823239e-16 6.955831209025122e-16 6.841147070279015e-16 6.844227627201907e-16
          6.87272597361934e-16 6.876439174915024e-16 6.889469046347143e-16 6.891928738699822e-16 6.894258105123756e-16 6.89622026327367e-16
          6.89513455996519e-16 6.896991652714949e-16 5.267952124420869e-14 3.487767845196996e-14 1.504133074464376e-14 2.5365974428314363e-15
          1.0023575510670466e-15 8.082315408771422e-16 6.897291100143896e-16 6.869969124827384e-16 6.890286459665793e-16 6.898281815088311e-16
          6.900365002215518e-16 6.900726435556323e-16 3.42946271743783e-14 2.2789092438552263e-14 9.036646079989636e-15 8.868047363798567e-16
          6.370274859169561e-16 6.728062796295671e-16 6.85559498206079e-16 6.892630065529971e-16 6.900420543120873e-16 6.902175199124117e-16
          6.902547583007451e-16 6.90260412564794e-16 6.779853714066513e-13 5.145905505733488e-13 3.190981125218555e-13 2.6793640180417125e-13
          9.554223105710267e-14 9.223168840094663e-14 2.3335809117901174e-14 1.822142323725703e-14 5.6762972477931175e-15 4.881265279593778e-15
          2.001357031277623e-15 2.0184566636898206e-15 6.94249066737149e-16 7.053476868573353e-16 6.951552076988263e-16 6.968111902310194e-16
          6.945265989631036e-16 6.949208137618434e-16 6.902545081992971e-16 6.908549166928809e-16 6.886632033231112e-16 6.894066978722557e-16
          6.883295542610202e-16 6.891086428170535e-16 2.537198384660589e-13 1.5872202072157167e-13 6.429664199463623e-14 8.342906648311539e-15
          2.6032759046750985e-15 1.4430105247636597e-15 7.151383704770343e-16 6.975388095802648e-16 6.939669661295141e-16 6.915315059948892e-16
          6.907529008692622e-16 6.905984480001792e-16 1.5624394719207135e-13 1.0066935035665636e-13 3.967213824448189e-14 3.578775940010193e-15
          1.1203184979557552e-15 8.504647534253004e-16 7.138304339765471e-16 6.966104463973172e-16 6.926189036984448e-16 6.916076868033139e-16
          6.91355609317124e-16 6.913091646272718e-16 3.183152329178282e-12 2.4635662373336378e-12 1.4569394852349642e-12 1.2368615166435253e-12
          4.0064128099943115e-13 3.9274167541919625e-13 7.756494634252174e-14 5.849212876576242e-14 2.1449169522063923e-14 1.844613679596321e-14
          7.956408682432785e-15 7.958486865118224e-15 1.5807703507293005e-15 1.562731805690193e-15 7.461334654282842e-16 7.416896423600092e-16
          6.765594312477315e-16 6.794345930485404e-16 6.782080965078336e-16 6.818216478436848e-16 6.81332481912225e-16 6.847726688142284e-16
          6.821851830171368e-16 6.855515446031727e-16 1.223061863316699e-12 7.295252398649472e-13 2.81047630205496e-13 2.978805236997231e-14
          9.221904546137736e-15 4.509263939951834e-15 1.0905180326372225e-15 7.0704672653874155e-16 6.866784098819206e-16 6.902513133702119e-16
          6.921957615225365e-16 6.9265914934616e-16 7.021435811444039e-13 4.4226693167780766e-13 1.7725319057203073e-13 2.0156793550941506e-14
          3.0007050224129728e-15 1.0579628321000095e-15 6.363428046233598e-16 6.768476337857488e-16 6.910470649144918e-16 6.950674275608877e-16
          6.961786673288415e-16 6.964003925031116e-16 1.5080206936751455e-11 1.1899997760136978e-11 6.797845589678098e-12 5.822549886731479e-12
          1.7889699612040511e-12 1.7656306685167375e-12 2.6737548443122403e-13 2.0142418912331548e-13 7.882417068328547e-14 6.73444707538197e-14
          3.148190343455012e-14 3.143734793376787e-14 5.9867126097041836e-15 5.866538774749481e-15 1.0916997186710972e-15 1.0982016907937667e-15
          6.21803452828273e-16 6.483444207039696e-16 6.681773621117601e-16 6.817561984678877e-16 6.749856718756021e-16 6.866833259883198e-16
          6.751364379139704e-16 6.86640803099816e-16 5.907723086231182e-12 3.384280772012884e-12 1.2627879885494658e-12 1.2263070559926554e-13
          3.534615147747088e-14 1.7020724351304495e-14 3.427678703505271e-15 9.468219121926802e-16 7.03354387742639e-16 7.077549716230462e-16
          7.076797557728323e-16 7.072273867902392e-16 3.0956575889398613e-12 1.9213073602409073e-12 7.83284601269508e-13 1.0978851738312411e-13
          1.4827532130587862e-14 2.6486562696233562e-15 1.1089924672157638e-15 7.889401614689236e-16 7.318233869056116e-16 7.20174908422077e-16
          7.169785314446273e-16 7.163096052948167e-16 1.6114987797868555e-10 1.4931351367700561e-10 1.1811825192978454e-10 9.989940041831701e-11
          7.203879862380559e-11 5.8046264202220836e-11 3.2322683966645567e-11 2.791677431802952e-11 8.625584282637859e-12 8.543872448737427e-12
          1.1817245340690062e-12 1.0305402405706272e-12 3.0130340351956897e-13 2.6838776941419216e-13 1.110463307167751e-13 1.110410830615805e-13
          2.631454760371885e-14 2.5685277880844075e-14 5.381647892934137e-15 5.187592513572444e-15 1.3752499253013352e-15 1.3610679155499836e-15
          6.97327314827667e-16 7.360152941960553e-16 5.686107143213633e-16 6.310626726405572e-16 5.496682058805665e-16 6.170604072506219e-16