<?xml version="1.0"?>
<VTKFile type="UnstructuredGrid" version="0.1" byte_order="LittleEndian" header_type="UInt32" compressor="vtkZLibDataCompressor">
  <UnstructuredGrid>
    <Piece NumberOfPoints="898" NumberOfCells="534">
      <PointData>
        <DataArray type="Int32" Name="libmesh_node_id" format="ascii" RangeMin="636" RangeMax="4788">
          636 756 764 1001 1002 1004
          1005 1009 1010 1011 1015 1016
          1023 1024 1027 1028 1029 1030
          1033 1034 1035 1037 1038 1039
          1040 1043 1044 1045 1734 1736
          1737 1738 1739 1740 1741 1742
          1743 1750 1751 1753 1756 1758
          1759 1760 1761 1762 1763 1764
          1765 1766 1767 1769 1770 1771
          1772 1773 1775 1776 1777 1778
          1779 1780 1781 1782 1783 1784
          1785 1786 1787 1792 1793 1800
          1802 1803 1804 1805 1809 1810
          1812 1813 1814 1815 1816 1817
          1818 1819 1820 1821 1822 1823
          1824 1825 1828 1829 1830 1831
          1832 1833 1834 1835 1836 1837
          1838 1839 1840 1841 1842 1843
          1844 1845 1846 1847 1848 1849
          1850 1851 1852 1853 1854 1855
          1859 1860 1862 1863 1865 1869
          1870 2534 2539 2541 2546 2548
          2674 2676 2677 2678 2679 2680
          2681 2682 2683 2691 2692 2693
          2694 2696 2697 2698 2699 2700
          2701 2712 2713 2714 2715 2716
          2717 2718 2719 2720 2721 2722
          2723 2724 2725 2726 2727 2728
          2729 2730 2731 2732 2733 2734
          2735 2736 2737 2738 2739 2740
          2741 2742 2743 2744 2745 2746
          2747 2748 2749 2750 2751 2752
          2753 2754 2755 2756 2757 2758
          2759 2760 2761 2762 2763 2764
          2765 2766 2767 2768 2769 2770
          2771 2772 2773 2774 2775 2776
          2777 2778 2779 2780 2781 2782
          2783 2784 2785 2786 2787 2788
          2789 2790 2791 2792 2793 2794
          2795 2796 2797 2798 2799 2800
          2802 2803 2804 2805 2806 2807
          2808 2809 2810 2811 2812 2813
          2814 2815 2816 2817 2818 2819
          2820 2821 2822 2823 2824 2825
          2826 2827 2828 2829 2830 2831
          2832 2833 2834 2835 2836 2837
          2838 2839 2840 2841 2842 2843
          2844 2845 2846 2847 2848 2849
          2850 2851 2852 2853 2854 2855
          2856 2857 2858 2859 2860 2861
          2862 2863 2864 2865 2866 2867
          2868 2869 2870 2871 2872 2873
          2874 2875 2876 2877 2878 2879
          2880 2881 2882 2883 2884 2887
          2888 2889 2890 2891 2892 2893
          2894 2895 2896 2897 2898 2899
          2900 2901 2902 2903 2904 2905
          2906 2907 2908 2909 2910 2911
          2912 2913 2914 2915 2916 2917
          2918 2919 2920 2921 2922 2923
          4204 4206 4207 4208 4209 4243
          4244 4246 4249 4251 4252 4253
          4254 4255 4256 4257 4258 4259
          4260 4263 4264 4266 4269 4271
          4272 4273 4274 4275 4276 4277
          4278 4279 4280 4281 4282 4283
          4284 4285 4286 4287 4288 4289
          4290 4291 4292 4293 4294 4295
          4296 4297 4298 4299 4300 4301
          4302 4303 4304 4305 4306 4307
          4308 4309 4310 4311 4312 4313
          4314 4315 4316 4317 4318 4319
          4320 4321 4322 4323 4324 4325
          4326 4327 4328 4329 4330 4331
          4332 4333 4334 4335 4336 4337
          4338 4339 4340 4341 4342 4343
          4344 4345 4346 4347 4348 4349
          4350 4351 4352 4353 4354 4355
          4356 4357 4358 4359 4360 4361
          4362 4363 4364 4365 4366 4367
          4368 4369 4370 4371 4372 4373
          4374 4375 4376 4377 4378 4379
          4380 4381 4382 4383 4384 4385
          4386 4387 4388 4389 4390 4391
          4392 4393 4394 4395 4396 4397
          4398 4399 4400 4401 4402 4403
          4404 4405 4406 4407 4408 4409
          4410 4411 4412 4413 4414 4415
          4416 4417 4418 4419 4420 4421
          4422 4423 4424 4425 4426 4427
          4428 4429 4430 4431 4432 4433
          4434 4435 4436 4437 4438 4439
          4440 4441 4442 4443 4444 4445
          4446 4447 4448 4449 4450 4451
          4452 4453 4454 4455 4456 4457
          4458 4459 4460 4461 4462 4463
          4464 4465 4466 4467 4468 4469
          4470 4471 4472 4473 4474 4475
          4476 4477 4478 4479 4480 4481
          4482 4483 4484 4485 4486 4487
          4488 4489 4490 4491 4492 4493
          4494 4495 4496 4497 4498 4499
          4500 4501 4502 4503 4504 4505
          4506 4507 4508 4509 4510 4511
          4512 4513 4514 4515 4516 4517
          4518 4519 4520 4521 4522 4523
          4524 4525 4526 4527 4528 4529
          4530 4531 4532 4533 4534 4535
          4536 4537 4538 4539 4540 4541
          4542 4543 4544 4545 4546 4547
          4548 4549 4550 4551 4552 4553
          4554 4555 4556 4557 4558 4559
          4560 4561 4562 4563 4564 4565
          4566 4567 4568 4569 4570 4571
          4572 4573 4574 4575 4576 4577
          4578 4579 4580 4581 4582 4583
          4584 4585 4586 4587 4588 4589
          4590 4591 4592 4593 4594 4595
          4596 4597 4598 4599 4600 4601
          4602 4603 4604 4605 4606 4607
          4608 4609 4610 4611 4612 4613
          4614 4615 4616 4617 4618 4619
          4620 4621 4622 4623 4625 4626
          4627 4628 4629 4630 4631 4632
          4633 4634 4635 4636 4637 4638
          4639 4640 4641 4642 4643 4644
          4645 4646 4647 4650 4651 4652
          4653 4654 4655 4656 4657 4658
          4659 4660 4661 4662 4663 4664
          4665 4666 4667 4668 4669 4670
          4671 4672 4673 4674 4675 4676
          4677 4678 4679 4680 4681 4682
          4683 4684 4685 4686 4687 4688
          4689 4690 4691 4692 4693 4694
          4695 4696 4697 4698 4699 4700
          4701 4702 4703 4704 4705 4706
          4707 4708 4709 4710 4711 4712
          4713 4714 4715 4716 4717 4718
          4719 4720 4721 4722 4723 4724
          4725 4726 4727 4728 4729 4730
          4731 4732 4733 4734 4735 4736
          4737 4738 4739 4740 4741 4742
          4743 4744 4745 4746 4747 4748
          4749 4750 4751 4752 4753 4754
          4755 4756 4757 4758 4759 4760
          4761 4762 4763 4764 4765 4766
          4767 4768 4769 4770 4771 4772
          4773 4774 4775 4776 4777 4778
          4779 4780 4781 4782 4783 4784
          4785 4786 4787 4788
        </DataArray>
        <DataArray type="Float64" Name="bounds" format="ascii" RangeMin="0" RangeMax="0">
          0 0 0 0 0 0
          0 0 0 0 0 0
          0 0 0 0 0 0
          0 0 0 0 0 0
          0 0 0 0 0 0
          0 0 0 0 0 0
          0 0 0 0 0 0
          0 0 0 0 0 0
          0 0 0 0 0 0
          0 0 0 0 0 0
          0 0 0 0 0 0
          0 0 0 0 0 0
          0 0 0 0 0 0
          0 0 0 0 0 0
          0 0 0 0 0 0
          0 0 0 0 0 0
          0 0 0 0 0 0
          0 0 0 0 0 0
          0 0 0 0 0 0
          0 0 0 0 0 0
          0 0 0 0 0 0
          0 0 0 0 0 0
          0 0 0 0 0 0
          0 0 0 0 0 0
          0 0 0 0 0 0
          0 0 0 0 0 0
          0 0 0 0 0 0
          0 0 0 0 0 0
          0 0 0 0 0 0
          0 0 0 0 0 0
          0 0 0 0 0 0
          0 0 0 0 0 0
          0 0 0 0 0 0
          0 0 0 0 0 0
          0 0 0 0 0 0
          0 0 0 0 0 0
          0 0 0 0 0 0
          0 0 0 0 0 0
          0 0 0 0 0 0
          0 0 0 0 0 0
          0 0 0 0 0 0
          0 0 0 0 0 0
          0 0 0 0 0 0
          0 0 0 0 0 0
          0 0 0 0 0 0
          0 0 0 0 0 0
          0 0 0 0 0 0
          0 0 0 0 0 0
          0 0 0 0 0 0
          0 0 0 0 0 0
          0 0 0 0 0 0
          0 0 0 0 0 0
          0 0 0 0 0 0
          0 0 0 0 0 0
          0 0 0 0 0 0
          0 0 0 0 0 0
          0 0 0 0 0 0
          0 0 0 0 0 0
          0 0 0 0 0 0
          0 0 0 0 0 0
          0 0 0 0 0 0
          0 0 0 0 0 0
          0 0 0 0 0 0
          0 0 0 0 0 0
          0 0 0 0 0 0
          0 0 0 0 0 0
          0 0 0 0 0 0
          0 0 0 0 0 0
          0 0 0 0 0 0
          0 0 0 0 0 0
          0 0 0 0 0 0
          0 0 0 0 0 0
          0 0 0 0 0 0
          0 0 0 0 0 0
          0 0 0 0 0 0
          0 0 0 0 0 0
          0 0 0 0 0 0
          0 0 0 0 0 0
          0 0 0 0 0 0
          0 0 0 0 0 0
          0 0 0 0 0 0
          0 0 0 0 0 0
          0 0 0 0 0 0
          0 0 0 0 0 0
          0 0 0 0 0 0
          0 0 0 0 0 0
          0 0 0 0 0 0
          0 0 0 0 0 0
          0 0 0 0 0 0
          0 0 0 0 0 0
          0 0 0 0 0 0
          0 0 0 0 0 0
          0 0 0 0 0 0
          0 0 0 0 0 0
          0 0 0 0 0 0
          0 0 0 0 0 0
          0 0 0 0 0 0
          0 0 0 0 0 0
          0 0 0 0 0 0
          0 0 0 0 0 0
          0 0 0 0 0 0
          0 0 0 0 0 0
          0 0 0 0 0 0
          0 0 0 0 0 0
          0 0 0 0 0 0
          0 0 0 0 0 0
          0 0 0 0 0 0
          0 0 0 0 0 0
          0 0 0 0 0 0
          0 0 0 0 0 0
          0 0 0 0 0 0
          0 0 0 0 0 0
          0 0 0 0 0 0
          0 0 0 0 0 0
          0 0 0 0 0 0
          0 0 0 0 0 0
          0 0 0 0 0 0
          0 0 0 0 0 0
          0 0 0 0 0 0
          0 0 0 0 0 0
          0 0 0 0 0 0
          0 0 0 0 0 0
          0 0 0 0 0 0
          0 0 0 0 0 0
          0 0 0 0 0 0
          0 0 0 0 0 0
          0 0 0 0 0 0
          0 0 0 0 0 0
          0 0 0 0 0 0
          0 0 0 0 0 0
          0 0 0 0 0 0
          0 0 0 0 0 0
          0 0 0 0 0 0
          0 0 0 0 0 0
          0 0 0 0 0 0
          0 0 0 0 0 0
          0 0 0 0 0 0
          0 0 0 0 0 0
          0 0 0 0 0 0
          0 0 0 0 0 0
          0 0 0 0 0 0
          0 0 0 0 0 0
          0 0 0 0 0 0
          0 0 0 0 0 0
          0 0 0 0 0 0
          0 0 0 0 0 0
          0 0 0 0 0 0
          0 0 0 0 0 0
          0 0 0 0 0 0
          0 0 0 0
        </DataArray>
        <DataArray type="Float64" Name="gradient_error" format="ascii" RangeMin="8.750409866136198e-10" RangeMax="7.721373261832988e-7">
          1.940986971182256e-9 3.925222393164309e-7 1.0266849831186164e-9 2.598155312759565e-7 1.7709258317438217e-7 2.144151623405892e-7
          1.4189835706856138e-7 4.3753898471972597e-7 2.7802928902488643e-7 2.3717325145579715e-7 1.6753647671828294e-7 1.0601149239628068e-7
          3.4308387315029106e-7 1.9449794734394685e-7 4.0647098301255724e-7 5.917981495035075e-7 4.4352363633614423e-7 6.163343513213691e-7
          1.5597096863587537e-9 6.004248873916301e-7 4.3295102335701414e-7 4.87049596687543e-7 6.39595255343836e-7 5.39599563235633e-7
          5.238800926954382e-7 8.927353582868375e-10 4.537841370332432e-7 4.68937712890338e-7 3.5810846932304113e-7 4.0423800921850666e-7
          3.5510072826936086e-7 3.504637671505704e-7 2.283255348464464e-7 3.973774807684155e-7 3.439792893753861e-7 3.3524950435840806e-7
          2.1153010427061302e-7 5.579114372824847e-7 5.087111897622506e-7 3.586855889392552e-7 5.633143873331286e-7 5.725170922103574e-7
          5.18829534901692e-7 5.874851575652398e-7 5.286806995930543e-7 3.5750371736582845e-7 3.549383028843941e-7 4.2441348213588595e-7
          5.847576430878501e-7 6.091936491973658e-7 6.037065402590959e-7 5.40103128156075e-7 5.145050792192854e-8 3.817470186325138e-7
          7.272972208513124e-7 6.501505022481951e-7 4.749333419604308e-7 2.954628386239195e-7 7.721373261832988e-7 5.450363257362969e-8
          2.9891477905127804e-7 5.675857100686911e-8 3.025905116909509e-7 5.700880275055893e-7 5.869838587884661e-7 1.1922066502427355e-9
          6.525222597708409e-8 6.93824984175512e-8 4.2158819895469997e-7 3.231118286738889e-7 4.492924193442964e-7 4.982460450172183e-7
          3.167599465669493e-7 4.4736644047966456e-7 3.0855715016740335e-7 4.433898799483566e-7 4.986422789895566e-7 4.971315978325147e-7
          6.02725954318497e-7 5.380651057051035e-7 6.181681260739385e-7 5.469213121203401e-7 3.5067860522167475e-7 3.445239305347651e-7
          4.642230814282861e-7 6.358584112991966e-7 6.645343647674952e-7 6.286294743468243e-7 6.33496602553634e-7 5.549358464681459e-7
          6.48289852789624e-7 5.616012849092771e-7 5.124877515869235e-7 6.95558210800035e-7 5.996884834827321e-7 6.487375756260015e-7
          5.85556220603858e-8 3.076937272214456e-7 3.483948942632558e-8 3.253997351976474e-7 6.044950558196251e-7 6.215313106405727e-7
          9.134943856994686e-10 7.348747931239519e-8 7.777167633289657e-8 4.43848433762298e-7 8.401694759267536e-9 3.448896407501617e-7
          7.327457339039631e-9 2.244813670678217e-7 6.378190616725611e-7 5.246184349439072e-7 1.3658469555147224e-9 8.257574739319514e-8
          8.818039649345373e-8 4.6232548106213193e-7 2.983875711008696e-7 4.3721256610247624e-7 2.859562321691854e-7 4.282436485651089e-7
          4.934895551818405e-7 4.869929002569888e-7 2.709944398892913e-7 4.160353213769841e-7 4.0031278533342134e-7 4.770927639252827e-7
          4.631836573168734e-7 1.7779570925233592e-7 1.7027349450980242e-7 1.619519027240863e-7 1.528387599388844e-7 1.4299739022730847e-7
          1.0221130223380315e-7 1.051200493368277e-7 1.0526875260606254e-7 1.0807322533013571e-7 1.0541745587529736e-7 1.1094853640514178e-7
          1.1102761563704349e-7 1.1414089051469671e-7 1.1110669486894518e-7 9.543632490427192e-8 9.646619145194805e-8 9.73178829980388e-8
          1.0005088802586176e-7 1.0278389305368473e-7 5.1271722996845807e-8 7.35197299961018e-8 7.562112507813759e-8 9.540830854319995e-8
          1.1209040432619062e-7 6.543077627882853e-9 5.065794336716336e-8 5.852863736395594e-9 5.168747131977129e-8 9.249461772082953e-8
          1.0122291516938544e-7 1.9226294361384595e-9 4.956445806456934e-8 4.99806732856933e-8 9.224915278086215e-8 1.143756838825572e-7
          1.148072275665239e-7 1.166609634389238e-7 1.003739269199742e-7 1.0332452021201825e-7 1.0329895195115671e-7 1.0643038253163677e-7
          1.0627511350406231e-7 1.0956181311211682e-7 5.30189537652508e-8 7.794905537165852e-8 8.01538506642402e-8 1.0664261818362687e-7
          1.060431601350473e-7 1.0943125646239084e-7 1.0875295700415215e-7 1.1241386370626936e-7 1.1281935278973439e-7 1.1607477040838656e-7
          5.571345965816065e-8 8.216850520170485e-8 7.257300778392682e-8 1.1298324678595009e-7 1.148054239235393e-7 1.1940200365860436e-7
          1.150594936467454e-7 1.2304840998825198e-7 1.2662811603788803e-7 1.2377567921306466e-7 5.092153264191518e-9 4.1901808419440536e-8
          4.380734668144371e-9 3.178072095952576e-8 9.540648421596018e-8 8.73022727902283e-8 1.3239151278038005e-9 2.904910888253892e-8
          7.493965344037663e-9 8.443248168805909e-8 3.787677247939794e-9 3.1946388449659085e-8 3.2807482587413053e-9 2.0480212250791712e-8
          8.969454877546136e-8 8.06946867726336e-8 1.096941710954401e-9 6.892682229216534e-9 6.308707424763731e-9 6.727610065449068e-8
          1.1636376258730807e-7 1.202235090999365e-7 1.1755930483807625e-7 1.2224835426092306e-7 1.1792210125107686e-7 1.2104501454126865e-7
          1.2005911602940713e-7 1.2392961482107414e-7 1.276321327261076e-7 1.259811422202228e-7 1.2963381371337987e-7 1.2481081965389628e-7
          1.2863614941432722e-7 1.2818660522738097e-7 1.1704448822150856e-7 1.1737445349373808e-7 1.2078151970306512e-7 1.177044187659676e-7
          1.2395794283754227e-7 1.244286333223435e-7 1.285452458609417e-7 1.2489932380714473e-7 1.3288026321459856e-7 1.333010275962196e-7
          1.3847594292012975e-7 1.3372179197784064e-7 1.43678418952897e-7 1.4384733072294115e-7 1.4945054698420935e-7 1.4401624249298526e-7
          1.11510975402227e-7 1.1546491630847375e-7 1.1431516438372178e-7 1.1861049361499667e-7 1.1941885721472047e-7 1.229058228462716e-7
          5.771803581122191e-8 6.285016905068161e-8 6.430163843948876e-8 8.827592903920781e-8 1.1716977500292789e-7 1.2188810754748128e-7
          9.55511743205947e-8 1.1297540403029548e-7 1.266064400920347e-7 1.304741762401344e-7 5.924284166120068e-8 6.570536603996253e-8
          5.4602794200618916e-8 9.37448286672231e-8 1.303764013702828e-7 1.3435764989641517e-7 1.3114813148584053e-7 1.3850113631675532e-7
          1.4279150631926989e-7 1.3906641777157244e-7 2.84450710461189e-9 8.402628001336965e-9 2.4831792220830744e-9 7.863238459069238e-9
          7.174153351518858e-8 7.390404997352382e-8 9.702919166185422e-10 5.787490473822182e-9 5.327776326341009e-9 7.14377096209323e-8
          2.2092320211046254e-9 7.348979520162576e-9 2.0410562868258224e-9 6.847492798580299e-9 7.612563565774703e-8 7.843075706780355e-8
          8.77370058825159e-10 4.9171254534097706e-9 4.558778368160293e-9 7.558208624094228e-8 1.3143634791683037e-7 1.3539929720022845e-7
          1.334067331115394e-7 1.3732060471315575e-7 1.3249629446337793e-7 1.3644094450404173e-7 1.3566533473723827e-7 1.395259023094638e-7
          1.4384698315125546e-7 1.4140407458496052e-7 1.456946992976755e-7 1.4055066830217232e-7 1.4490245998324107e-7 1.4374173139834863e-7
          7.416922419305641e-8 1.0434254058412073e-7 7.710772190349408e-8 1.080880990559784e-7 1.3457819545372545e-7 1.3915628273917378e-7
          9.188684800131638e-9 4.3232973688116e-8 4.4055024436008966e-8 9.942525396468348e-8 8.003780912883059e-8 1.12068145687211e-7
          8.293860450748737e-8 9.96177934826363e-8 1.441433393903455e-7 1.2861436886042618e-7 7.758641031141332e-9 4.4964648063234635e-8
          2.9162065150043573e-8 1.0618492872692967e-7 1.4731584294638446e-7 1.5212556509737584e-7 1.4775626763897212e-7 1.5722219448802935e-7
          1.6045794415501855e-7 1.5721081185708492e-7 2.0347051222358345e-9 6.3941029047452545e-9 2.233293274663692e-9 6.061624120483844e-9
          8.087343321269966e-8 8.348268241973444e-8 1.0406370772371711e-9 4.308209921371544e-9 4.270141729085299e-9 8.009389618961748e-8
          2.644744423498929e-9 5.917775814242119e-9 3.1396205584052867e-9 6.015614332754483e-9 8.630068944070514e-8 8.945555570277796e-8
          1.6730033607162598e-9 4.511501743575618e-9 4.972212837855205e-9 8.526326471135106e-8 1.484353260083387e-7 1.5334651846139394e-7
          1.502141315085412e-7 1.549808757777027e-7 1.4955480907029295e-7 1.54567471825412e-7 1.5267199537811025e-7 1.5861980406034128e-7
          1.643487605048029e-7 1.5998788496840588e-7 1.6513120698394998e-7 1.600174136326532e-7 1.6594663072576452e-7 1.6276495807972687e-7
          1.033351780960334e-8 1.0158607380130686e-8 1.0365432490001086e-8 1.0430650332950161e-8 1.0572257599871489e-8 9.28535429926996e-9
          9.843655706893594e-9 1.0401957114517226e-8 7.682173320690022e-9 9.24879346060734e-9 9.768364128234808e-9 9.12506239206914e-9
          9.698149423965177e-9 1.0287934795862272e-8 1.0271236455861218e-8 6.198467746884055e-9 7.437740856872765e-9 7.182751860577642e-9
          8.677013966861477e-9 3.2060827254048803e-9 5.2058747147018435e-9 7.205666703998807e-9 4.401196392207491e-9 2.8949202931726856e-9
          4.940315566946834e-9 2.6268930920493872e-9 4.669221795106534e-9 6.985710840720982e-9 6.71155049816368e-9 1.7318846336612575e-9
          4.176445186616662e-9 3.938588384037979e-9 6.621005739572067e-9 1.0331512427107575e-8 1.0516041266648678e-8 1.0601009830173421e-8
          1.0700570106189779e-8 1.0450846097292331e-8 1.0652352145508747e-8 1.0663263629521562e-8 1.0853858193725164e-8 1.0387842919363664e-8
          1.0646619176389761e-8 1.0598386399412039e-8 1.0905395433415861e-8 1.0138079795935625e-8 1.051916171640912e-8 1.041895557081418e-8
          1.0900243636882614e-8 1.3170811661935614e-8 8.969225857059617e-9 9.627148443747947e-9 8.780991704686668e-9 9.542776718163695e-9
          1.0285071030436276e-8 1.0304561731640723e-8 5.4787720754389925e-9 6.9442270850230435e-9 6.68841320490652e-9 8.409682094607095e-9
          8.567574980313199e-9 9.422589768558482e-9 8.335970403122625e-9 9.273295449193223e-9 1.0277604556803767e-8 1.0210620495263818e-8
          4.722077060187231e-9 6.38591689241302e-9 6.0809975835796865e-9 9.209472921535196e-9 1.1863592262784494e-8 1.194274756235667e-8
          1.2032116815391623e-8 1.2356589809385366e-8 2.386467047249773e-9 4.414963572845737e-9 2.1781706370972037e-9 4.149718625623172e-9
          6.4434600984417005e-9 7.889394171916355e-9 1.4223292306332205e-9 3.679728596492604e-9 3.4071544475872754e-9 5.937127962351988e-9
          2.005704853232121e-9 3.863756254602173e-9 1.8609427473978826e-9 3.603690722330668e-9 8.457216483892182e-9 8.105501058508202e-9
          1.2515594494238447e-9 3.148506115986525e-9 2.9287135463668455e-9 7.950899045422751e-9 1.1787480142403933e-8 1.2149310997357077e-8
          1.1711368022023372e-8 1.1795898289065168e-8 1.179826139635601e-8 1.2399171266318202e-8 1.273195937295907e-8 1.1649049015773669e-8
          1.1564405977320396e-8 1.2441752723251037e-8 8.097038722539876e-9 9.108917159155789e-9 7.848297061737188e-9 8.929636449368559e-9
          1.0120795595771704e-8 1.0010975836999931e-8 4.069792347470005e-9 5.792212942261884e-9 5.509796090418526e-9 8.784341139935976e-9
          7.580500138082546e-9 8.735159072565537e-9 7.301824177513977e-9 8.502024745846782e-9 9.889818007048528e-9 1.0783463667991466e-8
          3.5259206542126943e-9 5.235298423121705e-9 4.95181631575514e-9 8.330246158470309e-9 1.2054789845732513e-8 1.207528321153085e-8
          1.2785823345764625e-8 1.3161980900254813e-8 1.3378021424894397e-8 1.2088659688987285e-8 1.2423226080549507e-8 1.3075933286625076e-8
          1.7371045360840938e-9 3.3779170122819105e-9 1.632418767364051e-9 3.167957164230869e-9 7.847721287578392e-9 7.590003761659442e-9
          1.1408589029442677e-9 2.742623281961871e-9 2.577208646949765e-9 7.187028744316593e-9 1.544027699879986e-9 2.973707460801869e-9
          1.4651138933542822e-9 2.8047423891583794e-9 7.32597140923344e-9 7.0457461399747885e-9 1.0591345715640518e-9 2.4279745040822824e-9
          2.290946067685862e-9 6.596269769368635e-9 1.1779905590777959e-8 1.1748905631779839e-8 1.288309809487886e-8 1.3021299301338482e-8
          1.1505021335823404e-8 1.142252805202883e-8 1.2980372843993095e-8 1.1705486130192942e-8 1.163567868063964e-8 1.3162416663642756e-8
          1.3324235966292176e-8 1.1322312571398598e-8 1.1213093309742025e-8 1.324890004066044e-8 9.716981475866466e-9 1.0286834298112738e-8
          1.012061028923713e-8 1.2064163222980152e-8 9.172474694410524e-9 9.924732401251728e-9 9.692848382027633e-9 1.2173108666717426e-8
          1.342824752726362e-8 1.3798563308378334e-8 1.358485572892595e-8 1.3996405980134821e-8 1.4161891730049071e-8 1.4323584734927724e-8
          1.454021634009693e-8 8.496530723061141e-9 9.42314113656788e-9 9.118427298608158e-9 1.2124876608385909e-8 1.4215626417979773e-8
          1.4227547186946625e-8 1.4239467955913473e-8 7.673362996626668e-9 8.783084331849304e-9 1.0205288190723155e-8 1.1984037726626046e-8
          1.4323904542832804e-8 1.4489298467144878e-8 1.4747807418968408e-8 1.4657080062510078e-8 1.4823652762262531e-8 1.5238890338840002e-8
          7.020230335858544e-9 8.214709558981623e-9 6.729083759462367e-9 7.92150734221382e-9 1.1115531415029744e-8 1.091032529018582e-8
          3.053674631829048e-9 4.65100381385742e-9 4.359361402062611e-9 8.811141192265526e-9 6.4291235120046775e-9 7.64523022110144e-9
          6.126867640013441e-9 7.366981423098696e-9 1.079215354206659e-8 1.0665705022459409e-8 2.653633186721495e-9 4.0961566701074846e-9
          3.85875580779667e-9 8.12318348857598e-9 1.3266883137106635e-8 1.3442542909588505e-8 1.3711892226258484e-8 1.4178366163770641e-8
          1.2534221662593074e-8 1.2474072305708213e-8 1.3694493936540893e-8 1.3564941225193801e-8 1.3662645492503485e-8 1.4406912296452617e-8
          1.4600976146272095e-8 1.245037235138421e-8 1.2411127392187364e-8 1.4193057879109933e-8 1.3913595167326297e-9 2.662231663222637e-9
          1.3298738232079865e-9 2.526260689017934e-9 6.747529668409539e-9 6.458527437139137e-9 9.988489656577864e-10 2.1650405185809407e-9
          2.0562029691011547e-9 6.039676559367364e-9 1.2809996168995078e-9 2.395249063208448e-9 1.239383945580204e-9 2.2798805070723334e-9
          6.192707714536373e-9 5.943326275804954e-9 9.405051899548562e-10 1.963912827153077e-9 1.8833638627210874e-9 5.550246869336539e-9
          1.1533649521137904e-8 1.1426069044910773e-8 1.3505343515169375e-8 1.3657730770371154e-8 1.1104374464039307e-8 1.0990515989203801e-8
          1.3460627880847982e-8 1.1319885167738222e-8 1.1205967336398868e-8 1.3763853415921086e-8 1.3845659189752289e-8 1.08725021029608e-8
          1.0753079143380897e-8 1.3631830931599818e-8 5.823320437205963e-9 7.081797741605612e-9 5.518801215844071e-9 6.789718697896313e-9
          1.0520030641953873e-8 1.035657562545494e-8 2.334764861463527e-9 3.6438660386876067e-9 3.4502577226373357e-9 7.605569976219488e-9
          5.212049309151233e-9 6.4929874268147535e-9 4.861319934742234e-9 6.163081459473492e-9 1.0179192590047426e-8 9.984186455148348e-9
          2.1085396797442776e-9 3.2790258842614747e-9 3.1360677598611406e-9 7.095211121670198e-9 1.3751615939077625e-8 1.3834332738742599e-8
          1.480344564025276e-8 1.5016150406523876e-8 1.236285250665738e-8 1.2305108448841028e-8 1.4467532276787471e-8 1.3910672883088406e-8
          1.3979923045771899e-8 1.5236886130560235e-8 1.545631616545185e-8 1.2238194300761507e-8 1.2163076747517879e-8 1.4735478446961285e-8
          1.2054522786723702e-9 2.180811476426883e-9 1.181153911717046e-9 2.0988309484640263e-9 5.706629234630491e-9 5.482541775065488e-9
          8.914849857684718e-10 1.8143452221218976e-9 1.758156548837848e-9 5.117303192343846e-9 1.170692362213188e-9 2.0365380469270413e-9
          1.1779153615345501e-9 1.9983904341010194e-9 5.272699851446339e-9 5.080624474283166e-9 8.750409866136198e-10 1.7179148471113341e-9
          1.7003149982401677e-9 4.729324913021084e-9 1.1087923785430567e-8 1.0965393729635258e-8 1.3918759775781548e-8 1.3982211894350545e-8
          1.0629469892868814e-8 1.049993757192878e-8 1.376153885952526e-8 1.0837111330749255e-8 1.0703791216422613e-8 1.4031206690246725e-8
          1.406519899094638e-8 1.0362099763642233e-8 1.0217622267090735e-8 1.3826338408851345e-8 1.498466323852432e-8 1.4886821926221745e-8
          1.5395846692973905e-8 1.4788980613919171e-8 1.577691713834251e-8 1.5692937658748227e-8 1.5948449984272272e-8 1.5608958179153944e-8
          1.4120042371213316e-8 1.4299411026342531e-8 1.4006762438824294e-8 1.4404169087853778e-8 1.4478779681471748e-8 1.480157573688326e-8
          9.829870889134342e-9 1.076830858423996e-8 1.03903137378e-8 1.2552913984423892e-8 1.395496700952189e-8 1.4446172158291794e-8
          1.3869124037906028e-8 1.4449608289960666e-8 1.49373773070617e-8 1.5030092542015307e-8 8.775612718344878e-9 1.0098025743849473e-8
          9.799406035425685e-9 1.2386679294678842e-8 1.498849123612747e-8 1.5139577591280163e-8 1.573173307767442e-8 1.52626346657975e-8
          1.5372921475138324e-8 1.620610898626661e-8 1.6243685487924927e-8 1.6168668607625537e-8 1.6352342160010075e-8 1.6093651727326145e-8
          1.651211795933031e-8 1.6513512974057146e-8 1.668015212436567e-8 1.6514907988783983e-8 1.3750489297853479e-8 1.4423533908027213e-8
          1.3607800911590345e-8 1.437354700639836e-8 1.509657851820095e-8 1.5139293101206373e-8 8.057860839590178e-9 9.507752950749467e-9
          9.232867658913611e-9 1.2051476289572978e-8 1.3451856364207194e-8 1.4307863266532435e-8 1.3301230534316326e-8 1.4224471680159481e-8
          1.5163870168857677e-8 1.628233830571514e-8 7.514316545747065e-9 8.982003480722088e-9 8.76925979389383e-9 1.1661026921886079e-8
          1.5489175984858082e-8 1.5612370082985224e-8 1.6739213224814747e-8 1.5742973671615632e-8 1.6755826882421268e-8 1.7402247408967255e-8
          4.478543594101815e-9 5.808063079259159e-9 4.1756038254741196e-9 5.508418649142484e-9 9.778930306583144e-9 9.581004639414944e-9
          2.0161844239436313e-9 3.029663336570589e-9 2.965643124813912e-9 6.610974979681997e-9 3.979351072278103e-9 5.2743180548876955e-9
          3.8556469787905315e-9 5.0819630073280495e-9 9.379041350943646e-9 9.171807659654321e-9 2.1034537948986173e-9 2.954434408060012e-9
          3.00749482626499e-9 6.208121802576786e-9 1.404291968102294e-8 1.4094946016836763e-8 1.5665561313296098e-8 1.586911622765449e-8
          1.2080434426273325e-8 1.1990985299680781e-8 1.49820611423802e-8 1.4129535370743943e-8 1.4155109667389081e-8 1.6070273077097884e-8
          1.6274883051335084e-8 1.1895409626302019e-8 1.1797377778742554e-8 1.5179990668671874e-8 1.2113268791630048e-9 1.992159021730852e-9
          1.2904347824447795e-9 2.0320812824267153e-9 4.911731792958042e-9 4.774116366896268e-9 9.430518242760078e-10 1.7165004868222466e-9
          1.7815776206442239e-9 4.414292637594698e-9 1.4288536723725843e-9 2.1325097532186367e-9 1.611268752483697e-9 2.293442730286298e-9
          4.680319447438425e-9 4.64505962124057e-9 1.191293343515655e-9 1.9081419702290536e-9 2.0877763474964048e-9 4.255357267077029e-9
          1.0566504512354054e-8 1.0426845902346872e-8 1.4082536603090723e-8 1.407918685330986e-8 1.0069488298079866e-8 9.92203564772555e-9
          1.3800340470338819e-8 1.0287510002171121e-8 1.015436018580297e-8 1.4050546943530078e-8 1.3994217837213699e-8 9.780636827428585e-9
          9.651262673760672e-9 1.3675549717645566e-8 3.806874373336234e-9 4.945075792429607e-9 3.838001488143208e-9 4.872365395093678e-9
          8.976845885523173e-9 8.799258914207065e-9 2.419511074517149e-9 3.126678250134815e-9 3.3053493250102543e-9 5.9619975837065734e-9
          3.944650220269544e-9 4.8674775373109955e-9 4.109418282395732e-9 4.946416514992396e-9 8.64431159295113e-9 8.503104550280394e-9
          2.8892598013852975e-9 3.530335236585097e-9 3.7819914366851815e-9 5.934212244041151e-9 1.4180966189173475e-8 1.4206575968931503e-8
          1.649151781882358e-8 1.6721363411493024e-8 1.1700946976237738e-8 1.1609626565548145e-8 1.531174421081481e-8 1.4231810657274324e-8
          1.4217310733672867e-8 1.6965302982998832e-8 1.721182711437401e-8 1.1529173910853982e-8 1.147583186522199e-8 1.5361334005410557e-8
          1.8056928710753153e-9 2.497704664370126e-9 1.9926843876469132e-9 2.723799870907956e-9 4.677514413818026e-9 4.7785314663418675e-9