<?xml version="1.0"?>
<VTKFile type="UnstructuredGrid" version="0.1" byte_order="LittleEndian" header_type="UInt32" compressor="vtkZLibDataCompressor">
  <UnstructuredGrid>
    <Piece NumberOfPoints="385" NumberOfCells="189">
      <PointData>
        <DataArray type="Int32" Name="libmesh_node_id" format="ascii" RangeMin="252" RangeMax="2288">
          252 255 262 353 359 363
          366 584 585 586 587 588
          591 592 593 594 595 597
          600 601 602 603 604 606
          607 608 609 610 611 612
          613 614 615 616 617 856
          857 860 863 872 873 876
          879 882 883 884 885 886
          887 888 889 890 891 1203
          1225 1226 1227 1228 1229 1230
          1231 1232 1233 1234 1235 1236
          1237 1238 1239 1240 1241 1242
          1246 1247 1249 1250 1252 1253
          1254 1255 1256 1257 1258 1259
          1260 1261 1262 1263 1264 1265
          1266 1267 1268 1269 1270 1272
          1273 1274 1275 1276 1277 1278
          1279 1280 1281 1282 1287 1292
          1293 1294 1295 1296 1297 1298
          1299 1300 1302 1304 1306 1307
          1308 1309 1310 1311 1312 1313
          1314 1315 1316 1317 1318 1319
          1320 2014 2070 2071 2072 2073
          2074 2075 2076 2077 2078 2079
          2080 2081 2082 2083 2089 2090
          2091 2092 2100 2101 2102 2117
          2118 2119 2120 2121 2122 2123
          2124 2125 2126 2127 2128 2129
          2130 2131 2132 2133 2134 2135
          2136 2137 2138 2139 2140 2141
          2142 2143 2144 2145 2146 2147
          2148 2149 2150 2151 2152 2153
          2154 2155 2156 2157 2158 2159
          2160 2161 2162 2163 2164 2165
          2166 2167 2168 2169 2170 2171
          2172 2173 2174 2175 2176 2177
          2178 2179 2180 2181 2182 2183
          2184 2185 2186 2187 2188 2189
          2190 2191 2192 2194 2205 2206
          2207 2208 2209 2210 2211 2219
          2220 2223 2225 2226 2228 2239
          2240 2241 2242 2243 2244 2245
          2253 2254 2255 2256 2257 2258
          2259 2260 2261 2262 2263 2264
          2265 2266 2267 2268 2269 2270
          2271 2272 2273 2274 2275 2282
          2283 2284 2285 2286 2287 2288
          343 354 360 253 345 356
          361 348 357 256 362 434
          424 261 440 431 436 441
          577 598 578 579 599 560
          561 565 583 364 605 568
          750 753 754 751 339 340
          760 761 763 764 850 851
          858 859 852 861 862 864
          855 865 874 875 877 878
          880 881 355 574 1161 1162
          1163 1166 575 1169 576 1183
          1184 1187 1189 1206 1219 1221
          1223 1978 1980 1981 1979 1984
          1986 1985 2012 2015 2013 2018
          2020 2019 1892 1983 1204 1898
          1996 1998 2000 2017 1209 2030
          2032 2034 582 2054 2064 2066
          2068
        </DataArray>
        <DataArray type="Float64" Name="bounds" format="ascii" RangeMin="0" RangeMax="0">
          0 0 0 0 0 0
          0 0 0 0 0 0
          0 0 0 0 0 0
          0 0 0 0 0 0
          0 0 0 0 0 0
          0 0 0 0 0 0
          0 0 0 0 0 0
          0 0 0 0 0 0
          0 0 0 0 0 0
          0 0 0 0 0 0
          0 0 0 0 0 0
          0 0 0 0 0 0
          0 0 0 0 0 0
          0 0 0 0 0 0
          0 0 0 0 0 0
          0 0 0 0 0 0
          0 0 0 0 0 0
          0 0 0 0 0 0
          0 0 0 0 0 0
          0 0 0 0 0 0
          0 0 0 0 0 0
          0 0 0 0 0 0
          0 0 0 0 0 0
          0 0 0 0 0 0
          0 0 0 0 0 0
          0 0 0 0 0 0
          0 0 0 0 0 0
          0 0 0 0 0 0
          0 0 0 0 0 0
          0 0 0 0 0 0
          0 0 0 0 0 0
          0 0 0 0 0 0
          0 0 0 0 0 0
          0 0 0 0 0 0
          0 0 0 0 0 0
          0 0 0 0 0 0
          0 0 0 0 0 0
          0 0 0 0 0 0
          0 0 0 0 0 0
          0 0 0 0 0 0
          0 0 0 0 0 0
          0 0 0 0 0 0
          0 0 0 0 0 0
          0 0 0 0 0 0
          0 0 0 0 0 0
          0 0 0 0 0 0
          0 0 0 0 0 0
          0 0 0 0 0 0
          0 0 0 0 0 0
          0 0 0 0 0 0
          0 0 0 0 0 0
          0 0 0 0 0 0
          0 0 0 0 0 0
          0 0 0 0 0 0
          0 0 0 0 0 0
          0 0 0 0 0 0
          0 0 0 0 0 0
          0 0 0 0 0 0
          0 0 0 0 0 0
          0 0 0 0 0 0
          0 0 0 0 0 0
          0 0 0 0 0 0
          0 0 0 0 0 0
          0 0 0 0 0 0
          0
        </DataArray>
        <DataArray type="Float64" Name="gradient_error" format="ascii" RangeMin="4.6043052028822206e-10" RangeMax="2.9989893414415064e-7">
          9.244101517798635e-9 5.145041024424164e-10 6.666277057682216e-9 3.428686334479792e-9 1.1020959763168672e-8 1.894638983250647e-8
          2.3193952797576825e-8 2.5256537942282216e-8 1.939106268564145e-8 1.009570143193241e-7 1.06743210592618e-7 7.614250242658452e-9
          3.2539401486199363e-8 8.56131669435023e-8 1.980304269140341e-8 2.0930573580050594e-8 5.052750081365485e-8 1.453438594813295e-7
          7.042945056269479e-8 1.2524427235768082e-7 2.9279699756315012e-8 3.985788870173561e-8 2.3088364603609368e-8 1.8005909415266687e-7
          5.043607764715622e-8 4.076796107478618e-8 6.029935749580651e-8 9.867429535507535e-9 1.0579592827432931e-8 8.929369986816679e-9
          1.1985339646523366e-8 5.7994323332183144e-9 8.184847729271254e-8 6.991356915719958e-9 1.504130930623005e-8 4.252058880041606e-9
          1.1983735925467672e-8 8.118166991643083e-9 1.9715412970893735e-8 2.3824846560818157e-9 5.2271846436374355e-9 2.801027188627271e-9
          8.071884631193054e-9 5.882822933163323e-10 1.234407886489505e-9 1.168076451452515e-8 9.89381459175744e-9 4.989627598163975e-10
          3.7883515694476905e-9 3.5218810205589605e-9 1.880533479662678e-9 8.106864668989726e-9 2.398924179120772e-9 3.347394374580882e-8
          3.82897668434788e-8 3.531356769842412e-8 1.0562275370484128e-7 9.589884725561035e-8 2.563424280933517e-8 9.027874510319405e-8
          8.119524559766941e-8 2.7869145569180623e-8 7.072782800101335e-8 5.8111177117248455e-8 1.1000272536471133e-7 9.966509016322633e-8
          8.986656622944306e-8 1.1973375460128766e-7 1.87215510911839e-8 1.7324269934588086e-8 7.160824171305024e-8 6.387848133294181e-8
          1.3689770027445965e-8 4.440814464759406e-8 8.505626288997271e-8 7.45720053893314e-8 8.838994040916814e-8 1.928862151066962e-8
          4.204423729556926e-8 1.3803804058100415e-8 3.309007034465671e-8 1.5176320436347427e-8 2.8807759395491216e-8 2.2069532546961293e-8
          1.1313624976778025e-7 9.882424333480188e-8 7.386416575237275e-8 9.235019845564807e-9 2.4335446383531366e-8 5.689398085291721e-9
          1.1650816266094999e-8 7.01748841422995e-9 1.6003324424707963e-8 6.1360899127136444e-9 8.086663578894605e-8 3.794578158894413e-8
          4.257842918864174e-8 4.414572766435938e-8 5.144351228182562e-8 5.203500302835932e-8 8.749466122513419e-8 8.638624393131009e-8
          2.065835969216019e-8 3.9056777226674396e-8 4.6635820418381274e-8 4.422693948870779e-8 1.0928362809728074e-7 1.1185495288819718e-7
          1.295885144459849e-7 1.1518923761720848e-7 1.3228668888503847e-7 8.405592856752786e-8 9.946852457227582e-8 8.716577656026888e-8
          1.5928424461996644e-7 1.272479493869325e-7 5.6802929485058244e-8 1.3404845099934567e-7 6.91817668042933e-8 1.8346354057681774e-8
          2.361680329858741e-8 1.83704035916867e-8 2.8887252539493045e-8 1.5269489936974293e-8 1.9477238431498468e-8 5.88727124457839e-9
          9.048152250448622e-9 1.0593020650031871e-8 1.304361978321803e-8 5.717993780469764e-9 2.368498692602264e-8 1.0845730856173055e-8
          1.5494218916404188e-8 2.5547057463179346e-8 4.476113347252846e-8 4.3977668459168526e-8 4.601729075275911e-8 4.155833609662864e-8
          4.86506830831345e-8 4.735233910965854e-8 4.7548890865887526e-8 4.339528756662024e-8 3.692656300372119e-8 3.740653673219934e-8
          3.3930657259993674e-8 3.714792201831266e-8 3.6073953588979355e-8 3.355926403956739e-8 4.806686354449756e-8 4.6344147264977084e-8
          4.381820394841815e-8 4.143532029692652e-8 3.421423933902561e-8 3.150898626952832e-8 3.017926906965479e-8 4.190765671131463e-8
          4.168498867981804e-8 4.5211843838959977e-8 4.486549526204842e-8 4.1115287024539355e-8 4.3711828520656395e-8 3.796046230439164e-8
          3.8617916453432045e-8 4.323649248662177e-8 3.981807353922648e-8 4.812168748344383e-8 4.7644545484436974e-8 5.039051237070669e-8
          4.972402577122964e-8 4.5877576845652184e-8 4.732761696103971e-8 4.714669638864538e-8 4.777115574229075e-8 5.197022990482092e-8
          4.8324857596464893e-8 3.9308114506799744e-8 4.0918450464319924e-8 3.784797561284223e-8 3.893239057246393e-8 4.099728329473235e-8
          4.446943904672664e-8 4.149307647209783e-8 4.200219500958051e-8 4.2336331799577164e-8 3.941663981328676e-8 3.907496884882749e-8
          4.771005740670301e-8 5.038961557508955e-8 4.627804553468076e-8 2.8527459953797373e-8 3.1806446443806907e-8 3.122062027737132e-8
          3.5227863755996694e-8 3.696864952177158e-8 4.138531451386823e-8 2.0188175248912253e-8 2.5769368881217267e-8 2.76964423100876e-8
          3.497338991754028e-8 3.3772694551248456e-8 3.848430694538312e-8 3.606647049168951e-8 4.15080071172268e-8 4.562043439209454e-8
          4.951373831295148e-8 2.084468820895933e-8 2.9363054265400152e-8 3.0974715101383514e-8 4.295101971594341e-8 3.936528189233789e-8
          4.3624076343991546e-8 4.095094431804154e-8 4.425435518808439e-8 3.842566320508939e-8 4.27396387909703e-8 4.054492091078173e-8
          4.7703084470091104e-8 5.1462903604942164e-8 4.725261745178002e-8 4.9463800992664594e-8 4.6842522127624536e-8 5.0745286069880206e-8
          4.772517439504195e-8 5.175265706075071e-8 5.0824969207033706e-8 5.170920722593962e-8 5.059510570341608e-8 4.776538280919047e-8
          4.699508304326195e-8 5.5121879100438275e-8 5.5465945494104806e-8 5.4905306931207296e-8 4.170467062136421e-8 3.992381250358024e-8
          3.777585697766417e-8 3.533846310152912e-8 5.2237610372089374e-8 5.281150409274471e-8 4.748691790793073e-8 3.8286043655018916e-8
          4.432532489660611e-8 5.281192415364265e-8 2.176677968616515e-8 3.302454995409293e-8 4.990867976632512e-8 5.499784684450285e-8
          5.752276955958717e-8 5.026230241516433e-8 5.307640758049268e-8 5.4715574848529755e-8 5.776116967131705e-8 5.1980450411269334e-8
          3.8579774115663354e-8 3.9681524147790644e-8 3.594789904200163e-8 4.007570469202304e-8 3.950211026009774e-8 3.564930221282854e-8
          3.975692537443238e-8 4.134237093524382e-8 3.749065978773074e-8 3.788866238918758e-8 4.09340766332014e-8 4.3003217722696985e-8
          3.903342053345985e-8 4.2327683758918494e-8 4.240057896372492e-8 3.751135210978786e-8 3.672143026886612e-8 4.457966282581393e-8
          4.5299047667352086e-8 3.937340200674718e-8 3.7513259076907216e-8 3.607440244062017e-8 3.351500196909322e-8 4.11383799294757e-8
          4.010261112463903e-8 3.6488606548536436e-8 3.665849697569006e-8 4.4763500782044175e-8 4.4130819808657886e-8 3.946221112797966e-8
          4.033548510200088e-8 1.4285035171213555e-8 1.8089896833270186e-8 3.658681440327458e-8 1.1307997660889355e-7 5.39710119674675e-8
          2.099562631983179e-8 5.552277921873084e-8 2.7009512890685123e-9 3.2098787279133964e-9 5.314689292096281e-9 6.191328395936004e-9
          1.5190359071029544e-8 6.491986411672864e-8 8.936447942366816e-9 2.4090360485253692e-8 2.3136573657630094e-9 3.013317470881423e-9
          8.551078309761313e-8 1.0252378344576733e-7 1.9922418460061668e-7 1.5617222704584704e-7 1.7031158416706038e-7 1.3255524099945466e-7
          1.5122299173879902e-7 6.452014693032691e-8 2.9989893414415064e-7 2.520657879833884e-7 2.3809938488835347e-7 1.7389417410798966e-7
          1.692845485236445e-8 9.340325392263612e-9 8.954958371814184e-9 1.6361369332247766e-8 1.828262761229589e-8 7.820359050650307e-8
          3.2215360629983575e-9 3.0636517542384007e-9 4.872880921399999e-10 4.6043052028822206e-10 1.7725585929597245e-8 9.748448878391856e-8
          7.968479466448555e-8 7.011515341551027e-8 8.61351912420216e-8 6.023167611343575e-8 5.235895074226863e-8 6.0545512166535e-8
          7.478589370012464e-8 4.448622537110152e-8 4.0686255546218874e-8 3.500576715533051e-8 2.366578461034803e-8 2.0227443644272806e-8
          2.9325278764442145e-8 1.6789102678197584e-8 4.7648170234541715e-8 3.685948994749428e-8 4.557125266036427e-8 1.1609267123889906e-7
          1.0647718260457615e-7 8.101964277094356e-8 1.1242501275880964e-7 1.0354062642566019e-7 1.261658697402997e-7 2.5296684379231285e-8
          5.041290757789939e-8 3.564822358416491e-8 1.2232844975471048e-7 8.388469025230449e-8 1.3658612514349933e-7 1.4587141518928563e-7
          1.0533801220220114e-7 3.501913368334877e-8 3.8441461549124734e-8 3.8359108450044064e-8 3.508438771011525e-8 2.9262157538324568e-8
          3.4140580092742716e-8 2.9955784755765204e-8 2.239373034088575e-8 2.8193626129048713e-8 2.4552340889793933e-8 1.70478513644539e-8
          2.3321593735163507e-8 2.0535831946535895e-8 4.1502715237536615e-8 3.829084231379081e-8 3.5590739295222796e-8 3.585643922613761e-8
          3.7329540342570316e-8 3.6354151408522397e-8 3.746492757558006e-8 3.2545807021677115e-8 3.079367977795788e-8 3.5102836004862215e-8
          3.7605071109785017e-8 3.407845831756731e-8 3.691321923546629e-8 3.703874275616551e-8 3.7837605227999214e-8 3.6419320997716674e-8
          3.863646769983292e-8
        </DataArray>
        <DataArray type="Float64" Name="gradient_matprop_error" format="ascii" RangeMin="0" RangeMax="0">
          0 0 0 0 0 0
          0 0 0 0 0 0
          0 0 0 0 0 0
          0 0 0 0 0 0
          0 0 0 0 0 0
          0 0 0 0 0 0
          0 0 0 0 0 0
          0 0 0 0 0 0
          0 0 0 0 0 0
          0 0 0 0 0 0
          0 0 0 0 0 0
          0 0 0 0 0 0
          0 0 0 0 0 0
          0 0 0 0 0 0
          0 0 0 0 0 0
          0 0 0 0 0 0
          0 0 0 0 0 0
          0 0 0 0 0 0
          0 0 0 0 0 0
          0 0 0 0 0 0
          0 0 0 0 0 0
          0 0 0 0 0 0
          0 0 0 0 0 0
          0 0 0 0 0 0
          0 0 0 0 0 0
          0 0 0 0 0 0
          0 0 0 0 0 0
          0 0 0 0 0 0
          0 0 0 0 0 0
          0 0 0 0 0 0
          0 0 0 0 0 0
          0 0 0 0 0 0
          0 0 0 0 0 0
          0 0 0 0 0 0
          0 0 0 0 0 0
          0 0 0 0 0 0
          0 0 0 0 0 0
          0 0 0 0 0 0
          0 0 0 0 0 0
          0 0 0 0 0 0
          0 0 0 0 0 0
          0 0 0 0 0 0
          0 0 0 0 0 0
          0 0 0 0 0 0
          0 0 0 0 0 0
          0 0 0 0 0 0
          0 0 0 0 0 0
          0 0 0 0 0 0
          0 0 0 0 0 0
          0 0 0 0 0 0
          0 0 0 0 0 0
          0 0 0 0 0 0
          0 0 0 0 0 0
          0 0 0 0 0 0
          0 0 0 0 0 0
          0 0 0 0 0 0
          0 0 0 0 0 0
          0 0 0 0 0 0
          0 0 0 0 0 0
          0 0 0 0 0 0
          0 0 0 0 0 0
          0 0 0 0 0 0
          0 0 0 0 0 0
          0 0 0 0 0 0
          0
        </DataArray>
        <DataArray type="Float64" Name="initial_marker" format="ascii" RangeMin="0" RangeMax="2">
          0 0 0 0 0 2
          0 1 0 2 2 0
          0 1.5 1 2 2 2
          0 0.5 0 0 0 1
          0 0 0.25 0 0 0
          0 0 0.5 0 0 0
          0 0 0 0 0 0
          0 0 0 0 0 0
          0 0 0 0 0 2
          2 1 2 1.5 1 2
          1.5 0 1 1 2 2
          2 2 2 1 2 1.5
          0 1 2 2 2 0
          1 0 1 0 1 1
          2 2 2 0 1 0
          0.5 0 1 0.3333333333333333 2 2
          2 2 2 2 2 2
          2 2 2 2 2 2
          2 2 2 2 2 2
          2 2 2 2 2 1
          1 0 1 1 1 0.3333333333333333
          0.5 0 0 0 1 0.5
          0 2 2 2 2 2
          2 2 2 2 2 2
          2 2 2 2 2 2
          2 2 2 2 2 2
          2 2 2 2 2 2
          2 2 2 2 2 2
          2 2 2 2 2 2
          2 2 2 2 2 2
          2 2 2 2 2 2
          2 2 2 2 2 2
          2 2 2 2 2 2
          2 2 2 2 2 2
          2 2 2 2 2 2
          2 2 2 2 2 2
          2 2 2 2 2 2
          2 2 2 2 2 2
          2 2 2 2 2 2
          2 2 2 2 2 2
          2 2 2 2 2 2
          2 2 2 2 2 2
          2 2 2 2 2 2
          2 2 2 2 2 2
          2 2 2 2 2 2
          2 2 2 2 2 2
          2 2 2 2 2 2
          0 0 0 0 0 0
          0 0 0 0 0 0
          0 0 0 0 0 0
          0 0 1.5 1.5 0.5 0
          0.25 0 2 2 1 0.5
          0 0 0 0 0 0
          0 0 0 0 0 0
          0 0 0 0 0 0
          0 0 0 0 0 0
          0 0 1 0 1 2
          1.5 1 2 2 2 0
          1 1 2 2 2 2
          2 2 2 2 2 2
          2 2 2 2 2 2
          2 2 2 2 2 2
          2 2 2 2 2 2
          2 2 2 2 2 2
          2
        </DataArray>
        <DataArray type="Float64" Name="markers_norefine" format="ascii" RangeMin="0" RangeMax="2">
          0 0 0 0 0 2
          0 0 0 0 0 0
          0 0 0 2 2 0
          0 0 0 0 0 0
          0 0 0 0 0 0
          0 0 0 0 0 0
          0 0 0 0 0 0
          0 0 0 0 0 0
          0 0 0 0 0 2
          0 0 0 0 0 0
          0 0 0 0 0 0
          0 0 0 0 0 0
          0 0 0 0 0 0
          0 0 0 0 0 0
          0 0 0 0 0 0
          0 0 0 0 0 0
          2 2 2 2 0.75 0.5
          2 2 2 2 0.5 1
          0 0 0 0 0 0
          0 0 0 0 0 0
          0 0 0 0 0 0
          0 0 0 0 0 0
          0 2 1 0.5 0 0
          0 0 0 0 0 0
          0 0 0 0 0 0
          0 0 0 0 0 1.5
          1.25 1 1 1 1 2
          2 2 2 1 1 1
          1 1 1 2 2 2
          2 1 0.75 1 0.5 2
          1.75 1.3333333333333333 0.5 0.5 0 0
          1.5 1.5 0.6666666666666666 2 2 2
          2 2 2 2 2 2
          2 2 2 2 2 2
          2 2 2 2 2 2
          2 1.5 1.5 2 2 2
          2 2 1.5 1.5 2 2
          2 1 1 1 1 1
          1 2 2 2 0.5 0.5
          0 0 1.5 1.5 0.6666666666666666 2
          2 2 2 2 2 2
          2 1.25 1.3333333333333333 2 2 1.5
          0 0 0 0 0 0
          0.5 0.5 0 0 1 1
          0 0.5 0.5 0 0 1
          1 0 0 0 0 0.25
          0 0 0 0.5 0 0
          0 0 0 0 0 0
          0 0 0 0 0 0
          0 0 0 0 0 0
          0 0 0 0 0 0
          0 0 0 0 0 0
          0 0 0 0 0 0
          0 0 0 0 0 0
          0 0 0 0 0 0
          0 0 0 0 0 0
          0 0 0 0 0 0
          0 0 1 0 0 0
          0 0 0 1 0 0
          0 2 2 1.5 1.5 2
          2 2 2 2 2 2
          2 2 1 1 2 0
          1 1 2 2 2 2
          1.5 2 2 0 0.5 0
          1
        </DataArray>
        <DataArray type="Float64" Name="markers_mustrefine" format="ascii" RangeMin="0" RangeMax="2">
          0 0 0 0 0 2
          0 1 0 2 2 0
          0 1.5 1 2 2 2
          0 0.5 0 0 0 1
          0 0 0.25 0 0 0
          0 0 0.5 0 0 0
          0 0 0 0 0 0
          0 0 0 0 0 0
          0 0 0 0 0 2
          2 1 2 1.5 1 2
          1.5 0 1 1 2 2
          2 2 2 1 2 1.5
          0 1 2 2 2 0
          1 0 1 0 1 1
          2 2 2 0 1 0
          0.5 0 1 0.3333333333333333 2 2
          2 2 2 2 2 2
          2 2 2 2 2 2
          2 2 2 2 2 2
          2 2 2 2 2 1
          1 0 1 1 1 0.3333333333333333
          0.5 0 0 0 1 0.5
          0 2 2 2 2 2
          2 2 2 2 2 2
          2 2 2 2 2 2
          2 2 2 2 2 2
          2 2 2 2 2 2
          2 2 2 2 2 2
          2 2 2 2 2 2
          2 2 2 2 2 2
          2 2 2 2 2 2
          2 2 2 2 2 2
          2 2 2 2 2 2
          2 2 2 2 2 2
          2 2 2 2 2 2
          2 2 2 2 2 2
          2 2 2 2 2 2
          2 2 2 2 2 2
          2 2 2 2 2 2
          2 2 2 2 2 2
          2 2 2 2 2 2
          2 2 2 2 2 2
          2 2 2 2 2 2
          2 2 2 2 2 2
          2 2 2 2 2 2
          2 2 2 2 2 2
          2 2 2 2 2 2
          0 0 0 0 0 0
          0 0 0 0 0 0
          0 0 0 0 0 0
          0 0 1.5 1.5 0.5 0
          0.25 0 2 2 1 0.5
          0 0 0 0 0 0
          0 0 0 0 0 0
          0 0 0 0 0 0
          0 0 0 0 0 0
          0 0 1 0 1 2
          1.5 1 2 2 2 0
          1 1 2 2 2 2
          2 2 2 2 2 2
          2 2 2 2 2 2
          2 2 2 2 2 2
          2 2 2 2 2 2
          2 2 2 2 2 2
          2
        </DataArray>
        <DataArray type="Float64" Name="gradient_marker" format="ascii" RangeMin="0" RangeMax="1">
          0.5 0.75 0.75 0.5 0.625 0
          0.5 0 0 0.5 0.5 0.5
          0.16666666666666666 0.375 0.5 0 0 0.75
          0.5 0.5 0 0 0 0.5
          0 0.25 0.25 0.6666666666666666 0.5 0
          0 0.5 0.25 0.5 0 0
          0 0 0 0 0 0
          0 0 0 0 0 0.5
          0.5 0.5 0 0 0.6666666666666666 0
          0 0 0.5 0.5 0 0.5
          0.5 0 0.375 0.25 0.5 0.5
          0.5 0.625 0 0 0.5 0.375
          0 0.125 0.5 0.375 0.375 0
          0.125 0 0 0 0 0
          0.625 0.375 0.5 0 0 0.5
          0.5 0 0 0.6666666666666666 0.25 0
          0 0 0 0 0.25 0.25
          0 0 0 0 0.375 0.25
          0.75 0.625 1 0.5 0.5 0.5
          1 0.625 0.25 0.75 0.5 0
          0 0 0 0 0 0.6666666666666666
          0.5 0 0 0.5 0 0.5
          0 0 0 0 0 0
          0 0 0 0 0 0
          0 0 0 0 0 0
          0 0 0 0 0 0
          0 0 0 0 0 0
          0 0 0 0 0 0
          0 0 0 0 0 0
          0 0 0 0 0 0
          0 0 0 0 0 0
          0 0 0 0 0 0
          0 0 0 0 0 0
          0 0 0 0 0 0
          0 0 0 0 0 0
          0 0 0 0 0 0
          0 0 0 0 0 0
          0 0 0 0 0 0
          0 0 0 0 0 0
          0 0 0 0 0 0
          0 0 0 0 0 0
          0 0 0 0 0 0
          0 0 0 0 0 0
          0 0 0 0 0 0
          0 0 0 0 0 0
          0 0 0 0 0 0
          0 0 0 0 0 0
          0.75 0.75 1 1 0.625 0.5
          0.75 0.75 0.875 1 0.875 1
          1 0.75 1 1 1 1
          0.3333333333333333 0.5 0.75 0.75 0.5 0.5
          0.5 0.25 1 1 0.5 0.5
          1 1 1 1 0.5 0.75
          1 1 1 1 0 0.5
          0.5 0.5 0.5 0.5 0.375 0.5
          0.5 0.25 0.25 0.125 0 0
          0 0 0 0 0 0.5
          0.5 0.5 0.5 0.5 0.75 0
          0.25 0 0.75 0.25 0.75 1
          0.5 0 0 0 0 0
          0 0 0 0 0 0
          0 0 0 0 0 0
          0 0 0 0 0 0
          0 0 0 0 0 0
          0
        </DataArray>
        <DataArray type="Float64" Name="gradient_matprop_marker" format="ascii" RangeMin="0" RangeMax="0">
          0 0 0 0 0 0
          0 0 0 0 0 0
          0 0 0 0 0 0
          0 0 0 0 0 0
          0 0 0 0 0 0
          0 0 0 0 0 0
          0 0 0 0 0 0
          0 0 0 0 0 0
          0 0 0 0 0 0
          0 0 0 0 0 0
          0 0 0 0 0 0
          0 0 0 0 0 0
          0 0 0 0 0 0
          0 0 0 0 0 0
          0 0 0 0 0 0
          0 0 0 0 0 0
          0 0 0 0 0 0
          0 0 0 0 0 0
          0 0 0 0 0 0
          0 0 0 0 0 0
          0 0 0 0 0 0
          0 0 0 0 0 0
          0 0 0 0 0 0
          0 0 0 0 0 0
          0 0 0 0 0 0
          0 0 0 0 0 0
          0 0 0 0 0 0
          0 0 0 0 0 0
          0 0 0 0 0 0
          0 0 0 0 0 0
          0 0 0 0 0 0
          0 0 0 0 0 0
          0 0 0 0 0 0
          0 0 0 0 0 0
          0 0 0 0 0 0
          0 0 0 0 0 0
          0 0 0 0 0 0
          0 0 0 0 0 0
          0 0 0 0 0 0
          0 0 0 0 0 0
          0 0 0 0 0 0
          0 0 0 0 0 0
          0 0 0 0 0 0
          0 0 0 0 0 0
          0 0 0 0 0 0
          0 0 0 0 0 0
          0 0 0 0 0 0
          0 0 0 0 0 0
          0 0 0 0 0 0
          0 0 0 0 0 0
          0 0 0 0 0 0
          0 0 0 0 0 0
          0 0 0 0 0 0
          0 0 0 0 0 0
          0 0 0 0 0 0
          0 0 0 0 0 0
          0 0 0 0 0 0
          0 0 0 0 0 0
          0 0 0 0 0 0
          0 0 0 0 0 0
          0 0 0 0 0 0
          0 0 0 0 0 0
          0 0 0 0 0 0
          0 0 0 0 0 0
          0
        </DataArray>
        <DataArray type="Float64" Name="combo" format="ascii" RangeMin="0" RangeMax="2">
          0.5 0.75 0.75 0.5 0.625 2
          0.5 0 0 0.5 0.5 0.5
          0.16666666666666666 0.375 0.5 2 2 0.75
          0.5 0.5 0 0 0 0.5
          0 0.25 0.25 0.6666666666666666 0.5 0
          0 0.5 0.25 0.5 0 0
          0 0 0 0 0 0
          0 0 0 0 0 0.5
          0.5 0.5 0 0 0.6666666666666666 2
          0 0 0.5 0.5 0 0.5
          0.5 0 0.375 0.25 0.5 0.5
          0.5 0.625 0 0 0.5 0.375
          0 0.125 0.5 0.375 0.375 0
          0.125 0 0 0 0 0
          0.625 0.375 0.5 0 0 0.5
          0.5 0 0 0.6666666666666666 0.25 0
          2 2 2 2 1 0.75
          2 2 2 2 0.875 1.25
          0.75 0.625 1 0.5 0.5 0.5
          1 0.625 0.25 0.75 0.5 0
          0 0 0 0 0 0.6666666666666666
          0.5 0 0 0.5 0 0.5
          0 2 1 0.5 0 0
          0 0 0 0 0 0
          0 0 0 0 0 0
          0 0 0 0 0 1.5
          1.25 1 1 1 1 2
          2 2 2 1 1 1
          1 1 1 2 2 2
          2 1 0.75 1 0.5 2
          1.75 1.3333333333333333 0.5 0.5 0 0
          1.5 1.5 0.6666666666666666 2 2 2
          2 2 2 2 2 2
          2 2 2 2 2 2
          2 2 2 2 2 2
          2 1.5 1.5 2 2 2
          2 2 1.5 1.5 2 2
          2 1 1 1 1 1
          1 2 2 2 0.5 0.5
          0 0 1.5 1.5 0.6666666666666666 2
          2 2 2 2 2 2
          2 1.25 1.3333333333333333 2 2 1.5
          0 0 0 0 0 0
          0.5 0.5 0 0 1 1
          0 0.5 0.5 0 0 1
          1 0 0 0 0 0.25
          0 0 0 0.5 0 0
          0.75 0.75 1 1 0.625 0.5
          0.75 0.75 0.875 1 0.875 1
          1 0.75 1 1 1 1
          0.3333333333333333 0.5 0.75 0.75 0.5 0.5
          0.5 0.25 1 1 0.5 0.5
          1 1 1 1 0.5 0.75
          1 1 1 1 0 0.5
          0.5 0.5 0.5 0.5 0.375 0.5
          0.5 0.25 0.25 0.125 0 0
          0 0 0 0 0 0.5
          0.5 0.5 1.5 0.5 0.75 0
          0.25 0 0.75 1.25 0.75 1
          0.5 2 2 1.5 1.5 2
          2 2 2 2 2 2
          2 2 1 1 2 0
          1 1 2 2 2 2
          1.5 2 2 0 0.5 0
          1
        </DataArray>
        <DataArray type="Float64" Name="dHdT" format="ascii" RangeMin="25.79792293526642" RangeMax="53.90745520322985">
          25.801401701235754 25.811266802824615 25.84079425626413 25.806257507766816 25.90149374282628 46.307474592207654
          25.920522079348437 26.432790718476404 26.25655052058541 38.225274589791084 32.66851146274052 25.99476986824858
          26.10280358801533 27.52926456996467 26.512839181397013 46.324220805303646 51.51844439079006 29.836701515531203
          26.202112488764353 26.621427007558992 26.00164450536888 26.077901343693004 25.96602449214221 27.040741526353628
          26.154158182017124 26.028414293578713 26.21248091326915 25.87058141309166 25.916970398739235 25.871795248457914
          25.89298627760521 25.85112200729855 26.43735887315927 25.951093268766627 25.9141773067525 25.816684601843164
          25.841516749456265 25.82037880992775 25.866348897069365 25.79792293526642 25.812233269070155 25.811514711516146
          25.826543602873897 25.808930712615407 25.812653329362796 25.885474722000534 25.871694787893322 25.81289985384445
          25.839227618672954 25.835007626854924 25.816375946110185 25.857914853786113 25.826423457138702 49.04156533725963
          27.364390908864358 27.232973032107324 30.493193463465456 30.102929561803258 26.814145982112798 29.807999859195164
          29.386248424764496 26.905207611123494 28.983602415117904 28.273290612150646 41.236494088590234 38.05150481633234
          36.46776157218936 33.773933983142264 26.540742633692478 26.480347412163614 28.980900390531314 28.546320536861018
          26.321980722802138 27.560386486925708 36.461087646486945 34.033607586588175 31.287009523740963 26.55192168207739
          27.648418026055644 26.33196199735996 27.145746498824547 26.39498329725808 27.042296882016547 26.70940876368163
          31.099927175401838 30.062372368552722 29.172999540805925 26.151423013060622 26.71519057006221 26.012947167144986
          26.320829257653422 26.078836771151725 26.421348849463726 26.075792183814627 28.939235296726828 27.292871076841873
          48.36540028696908 51.516629943643004 49.32286082878022 50.40450402060473 45.927047562127804 44.02926989180896
          46.32191328272358 46.26082359614614 46.48766410110575 52.738958864311854 40.35561899705109 46.76683765646964
          34.232566717066696 33.12945119084262 31.93168189452836 29.628485990812752 36.47131589437985 34.406800310847714
          33.206975174219885 32.11196097684066 28.226956718106763 33.74299851285886 28.89653728483858 26.563317813728773
          26.753381505903718 26.31438206242821 26.943445198078663 26.417459450199637 26.56296212785597 26.074941783516195
          26.22446509687273 26.139579475240282 26.195154376258674 26.014993025171588 26.708464805512317 26.303888146534632
          26.250729277277067 46.28038246010899 50.25514074699072 47.912852011130404 46.60078993419974 44.523190134621025
          46.13262018526973 44.805472596606606 43.35447537691679 41.88794560771726 40.244279254604706 39.31395476034355
          37.01274151523744 38.32629381655885 37.46317318594251 36.35502142562665 42.845313586642504 42.25726058677101
          40.255475332027515 39.406580614958926 36.29683751107323 35.335425521230526 35.44972137912812 50.651069137123045
          50.636484040099575 49.651262798748576 49.5584669451583 49.54346555937746 48.30119037991237 48.65843657587163
          49.798697294402345 49.381702928240394 51.77737469856381 48.62906454440199 48.5312537562153 48.05326892507998
          47.820930150547696 47.12471037237721 46.14034595658361 48.70371938101828 49.251868562463514 49.41718581709236
          50.97289399825618 45.40823158771283 44.53128281335969 42.35143099974681 41.92585595846265 51.82368499116247
          51.40471661363701 49.92258362432699 43.648955253483685 42.68597781184123 41.48193273024155 40.67985508653064
          50.74651788714744 49.753376024165206 48.42077259855126 46.29348397531466 46.27290393871249 46.300590209139244
          46.28088188482519 47.62151225256335 47.91091313238644 46.31709232614142 46.308529357689025 46.31450186928647
          46.25201609213296 46.30282686115949 46.2820446983484 46.300758389731556 46.43264994326286 47.92254889362441
          47.99657625305527 46.32372386381667 46.31738718759376 46.3183131765196 46.2607849277736 51.66042884624786
          51.70558146922671 52.08154472383104 51.449788715287156 50.24567163099173 50.35034057755522 53.1242742532997
          51.450097909031555 50.91050211414642 50.816572769671055 49.73358149849259 50.37877673417674 50.22303461770237