<?xml version="1.0"?>
<VTKFile type="UnstructuredGrid" version="0.1" byte_order="LittleEndian" header_type="UInt32" compressor="vtkZLibDataCompressor">
  <UnstructuredGrid>
    <Piece NumberOfPoints="484" NumberOfCells="256">
      <PointData>
        <DataArray type="Int32" Name="libmesh_node_id" format="ascii" RangeMin="423" RangeMax="2292">
          423 471 560 568 569 786
          793 809 811 813 814 815
          818 819 820 821 822 830
          831 833 834 836 857 858
          859 867 1159 1160 1163 1164
          1239 1240 1241 1242 1244 1245
          1246 1247 1252 1253 1254 1255
          1256 1257 1258 1259 1260 1261
          1262 1263 1264 1265 1266 1267
          1268 1269 1270 1271 1272 1273
          1274 1275 1279 1280 1281 1283
          1284 1285 1286 1287 1288 1289
          1290 1291 1292 1293 1294 1295
          1296 1307 1308 1309 1310 1311
          1312 1313 1314 1315 1316 1317
          1318 1319 1320 1321 1322 1323
          1324 1325 1326 1327 1328 1329
          1330 1331 1332 1333 1334 1335
          1336 1337 1338 1339 1340 1341
          1342 1343 1344 1345 1346 1347
          1348 1349 1350 1351 1352 1353
          1354 1358 1359 1361 1362 1364
          1379 1380 1381 1382 1383 1384
          1385 1386 1388 1389 1390 1393
          1394 1398 1399 1400 1401 1403
          1405 1406 1407 1408 1419 1421
          1422 1423 1424 1425 1428 1432
          2024 2025 2026 2027 2028 2029
          2030 2031 2032 2033 2034 2035
          2036 2037 2038 2039 2040 2041
          2042 2043 2044 2045 2046 2047
          2048 2049 2050 2051 2052 2053
          2054 2055 2056 2057 2058 2059
          2060 2061 2062 2063 2064 2065
          2066 2067 2068 2069 2070 2071
          2072 2073 2074 2075 2076 2077
          2078 2079 2080 2081 2082 2083
          2084 2085 2086 2087 2088 2089
          2090 2091 2092 2093 2094 2095
          2096 2097 2098 2099 2100 2101
          2102 2103 2104 2105 2106 2107
          2108 2109 2110 2111 2112 2113
          2114 2115 2116 2117 2118 2119
          2120 2121 2122 2123 2124 2125
          2126 2127 2128 2129 2130 2131
          2132 2133 2134 2135 2136 2137
          2138 2139 2140 2141 2143 2144
          2145 2146 2147 2149 2164 2165
          2166 2167 2168 2169 2170 2171
          2172 2173 2174 2175 2178 2180
          2181 2182 2183 2184 2185 2186
          2187 2188 2189 2190 2191 2193
          2195 2197 2198 2199 2200 2201
          2202 2203 2204 2205 2206 2207
          2208 2209 2210 2211 2212 2213
          2214 2215 2216 2217 2218 2219
          2220 2221 2222 2223 2224 2225
          2226 2227 2228 2229 2230 2231
          679 680 681 682 572 573
          562 781 549 785 782 783
          787 784 790 789 792 556
          794 816 561 839 837 817
          840 838 800 844 807 845
          847 848 564 849 832 850
          854 570 855 860 861 862
          863 864 865 866 868 869
          870 1047 1048 558 559 1138
          1151 1152 1139 810 1154 1155
          1158 1157 1153 1161 1162 823
          824 827 791 1276 1277 1243
          1278 1282 812 1299 1300 1303
          1305 1304 1251 1306 1355 1356
          1357 1360 825 1363 826 1387
          1372 1373 1391 1374 1392 1395
          1378 1396 829 1397 1404 1420
          1426 1427 1429 1413 1418 1430
          1431 2142 2176 2177 2179 1402
          2148 2192 2194 2196 2232 2233
          2238 2239 2236 2241 2266 2267
          2270 2272 2273 2275 2256 2286
          2258 2288 2290 2292
        </DataArray>
        <DataArray type="Float64" Name="bounds" format="ascii" RangeMin="0" RangeMax="0">
          0 0 0 0 0 0
          0 0 0 0 0 0
          0 0 0 0 0 0
          0 0 0 0 0 0
          0 0 0 0 0 0
          0 0 0 0 0 0
          0 0 0 0 0 0
          0 0 0 0 0 0
          0 0 0 0 0 0
          0 0 0 0 0 0
          0 0 0 0 0 0
          0 0 0 0 0 0
          0 0 0 0 0 0
          0 0 0 0 0 0
          0 0 0 0 0 0
          0 0 0 0 0 0
          0 0 0 0 0 0
          0 0 0 0 0 0
          0 0 0 0 0 0
          0 0 0 0 0 0
          0 0 0 0 0 0
          0 0 0 0 0 0
          0 0 0 0 0 0
          0 0 0 0 0 0
          0 0 0 0 0 0
          0 0 0 0 0 0
          0 0 0 0 0 0
          0 0 0 0 0 0
          0 0 0 0 0 0
          0 0 0 0 0 0
          0 0 0 0 0 0
          0 0 0 0 0 0
          0 0 0 0 0 0
          0 0 0 0 0 0
          0 0 0 0 0 0
          0 0 0 0 0 0
          0 0 0 0 0 0
          0 0 0 0 0 0
          0 0 0 0 0 0
          0 0 0 0 0 0
          0 0 0 0 0 0
          0 0 0 0 0 0
          0 0 0 0 0 0
          0 0 0 0 0 0
          0 0 0 0 0 0
          0 0 0 0 0 0
          0 0 0 0 0 0
          0 0 0 0 0 0
          0 0 0 0 0 0
          0 0 0 0 0 0
          0 0 0 0 0 0
          0 0 0 0 0 0
          0 0 0 0 0 0
          0 0 0 0 0 0
          0 0 0 0 0 0
          0 0 0 0 0 0
          0 0 0 0 0 0
          0 0 0 0 0 0
          0 0 0 0 0 0
          0 0 0 0 0 0
          0 0 0 0 0 0
          0 0 0 0 0 0
          0 0 0 0 0 0
          0 0 0 0 0 0
          0 0 0 0 0 0
          0 0 0 0 0 0
          0 0 0 0 0 0
          0 0 0 0 0 0
          0 0 0 0 0 0
          0 0 0 0 0 0
          0 0 0 0 0 0
          0 0 0 0 0 0
          0 0 0 0 0 0
          0 0 0 0 0 0
          0 0 0 0 0 0
          0 0 0 0 0 0
          0 0 0 0 0 0
          0 0 0 0 0 0
          0 0 0 0 0 0
          0 0 0 0 0 0
          0 0 0 0
        </DataArray>
        <DataArray type="Float64" Name="gradient_error" format="ascii" RangeMin="1.2810855679831942e-9" RangeMax="2.619241525708259e-7">
          1.5527570892867872e-8 1.3190985029106534e-8 1.1810763868787984e-7 2.4726497595025815e-9 1.480524840902625e-7 1.2035843043062975e-7
          1.1846987682835431e-7 1.210888799734658e-7 4.585491118246705e-8 9.772569168507711e-8 4.2315566317988325e-8 5.993145028446421e-8
          1.198560070973852e-7 1.5064980268969662e-9 4.439578747845042e-8 4.216816774763826e-8 1.4433364090778984e-7 8.652139429548117e-8
          1.1276722870176928e-7 4.66990527698384e-9 5.293454709828859e-8 1.444941650923804e-7 8.178474061999297e-9 9.40177289807955e-9
          1.5557860628245774e-8 1.0625071734159802e-8 2.3005331817364268e-8 2.366157567608447e-8 2.4317819534804677e-8 6.22500512030364e-8
          3.430986305100368e-8 4.5170670230095344e-8 4.938542309396855e-8 4.752450583107295e-8 3.9185875002148334e-8 3.8982479945059873e-8
          4.807717837579902e-8 3.877908488797142e-8 3.204429652677951e-8 3.294836789166587e-8 3.385243925655223e-8 3.158687273232807e-8
          3.35652389160765e-8 3.590627169282919e-8 3.1221018532293475e-8 3.8592339774274364e-8 3.824730446958188e-8 4.7307268198244866e-8
          2.7944602830004662e-8 3.28300634405985e-8 3.009397346179905e-8 3.771552405119234e-8 4.792154910597736e-8 4.60531206835291e-8
          4.993609857436239e-8 4.811631911197874e-8 4.6101824028741676e-8 5.129275398925283e-8 4.9653810450752515e-8 4.817762744699077e-8
          5.54567227497815e-8 5.38371879426341e-8 5.3375340919330553e-8 5.3241105975206665e-8 5.254598433151779e-8 5.2888736909904504e-8
          5.03772935032114e-8 6.016446386190826e-8 5.804453309828514e-8 5.229886793545695e-8 6.504005347719561e-8 6.232377850273921e-8
          4.379618620358463e-8 5.1657972047916074e-8 5.449364043840925e-8 3.8017711391054426e-8 5.164898145210156e-8 4.859335070624275e-8
          6.269457193445871e-8 3.5639101058073235e-8 4.1901639528740314e-8 3.603068792703717e-8 4.319440911478676e-8 3.15516798054955e-8
          3.6411937296310513e-8 3.7009040881037836e-8 5.34069275683152e-8 5.6899753206548995e-8 4.680286396455791e-8 2.8653494761091834e-8
          4.030129535336964e-8 1.7706340360885225e-8 3.1396150573093996e-8 5.23503413365096e-8 5.190567533313451e-8 2.5507058656629715e-9
          2.7076603463474916e-8 1.6435036344946666e-8 5.1541749761057973e-8 5.210735139929485e-9 2.166348031977463e-8 5.216584740471684e-9
          1.504091812929037e-8 5.171800599158244e-8 4.906208077577584e-8 1.3814637580539589e-9 4.117391752536114e-9 4.0746947567155894e-9
          3.759308201784849e-8 5.0417560078884404e-8 5.546441427264602e-8 4.7996821833409364e-8 5.1802078541312526e-8 5.200902971675022e-8
          5.6903644667033956e-8 5.038799142553828e-8 6.074289727841805e-8 6.631270181246873e-8 5.5462600129122705e-8 5.903809427390915e-8
          6.28361174196131e-8 6.918402751437579e-8 5.859166711625512e-8 5.6944094568989e-8 5.3664948160016655e-8 6.975219251741162e-8
          6.643534939128015e-8 4.528866094238063e-8 5.699885852676147e-8 4.682644874563566e-8 4.513836813924602e-8 5.670609344797534e-8
          3.54373271507474e-8 4.3760913161097454e-8 3.4028977803501915e-8 4.355942425921473e-8 3.068313416777786e-8 3.664261553382061e-8
          3.548346123554253e-8 6.021889321773723e-8 5.01986946365906e-8 3.1983441763886957e-8 4.2540637599365957e-8 2.6567894773907385e-8
          3.369294855779488e-8 5.067576458829025e-8 6.174705391568211e-9 7.879955074292999e-9 7.767366098153836e-9 4.622776851641898e-8
          3.5413965804850255e-9 5.035193694225469e-9 6.714411913263098e-9 4.718015522662493e-8 7.212433073975445e-8 6.234422019823484e-8
          6.497967652708337e-8 7.589537421548194e-8 8.29667008812853e-8 6.689314802315184e-8 6.653311202620748e-8 7.253269721751683e-8
          4.432864668035404e-9 4.525950060057869e-9 4.463045608070964e-9 4.40014115608406e-9 4.493226548106524e-9 7.55864445440897e-9
          7.989997010982361e-9 7.889641959585899e-9 8.497330784500594e-9 7.78928690818944e-9 9.179021417782639e-9 9.067137190330677e-9
          9.682314847452795e-9 8.955252962878716e-9 9.571504421253318e-9 4.852373249369327e-9 4.757627283408107e-9 5.112208147037134e-9
          4.662881317446886e-9 7.512496193513992e-9 7.46801247028079e-9 7.42352874704759e-9 4.876649322892807e-9 5.095958491714214e-9
          5.72434225552627e-9 5.315267660535621e-9 7.006124256235662e-9 4.269296979717599e-9 4.473620706303038e-9 3.7881012078562154e-9
          4.368724393133315e-9 4.677944432888478e-9 4.949347578410415e-9 3.6862207100658706e-9 4.18961412919797e-9 3.6252406392294963e-9
          4.693007548330069e-9 3.3949322571633885e-9 4.132826087281689e-9 2.9997655378868367e-9 3.803123403097736e-9 4.870719917399989e-9
          5.344751122942351e-9 1.91321519143397e-9 3.1696936828491644e-9 2.708423665982373e-9 4.426172174264359e-9 7.007120439036236e-9
          7.192950045862689e-9 7.00811662183681e-9 7.623677804060291e-9 7.651126884675456e-9 7.857807679122646e-9 7.996085850607014e-9
          7.67857596529062e-9 8.134364022091382e-9 5.555612064461221e-9 5.938814822042889e-9 5.754370993356149e-9 6.580630276716158e-9
          8.086430451238257e-9 8.30830235782964e-9 8.328206098104577e-9 8.618748624273901e-9 8.530174264421023e-9 9.223575797082378e-9
          5.087024614141719e-9 5.69048524869658e-9 5.7862134329097544e-9 6.654056020291282e-9 7.26608125172513e-9 7.668820527333814e-9
          7.434306832550901e-9 9.68874684743409e-9 9.525348604507492e-9 7.942672222790313e-9 8.736085862245285e-9 8.511068151209663e-9
          2.567475549883707e-9 3.338398223027112e-9 2.341275323932238e-9 2.998193037535923e-9 5.396236780131549e-9 5.061613879977051e-9
          1.2810855679831942e-9 2.211778611733455e-9 1.982485005072986e-9 4.705460656384758e-9 2.5219818572214375e-9 3.0292059597885535e-9
          3.0116727268673266e-9 3.38880604059058e-9 4.934158391384694e-9 5.000231060874195e-9 1.8637539708533146e-9 2.2269089475125527e-9
          2.7603676164566575e-9 3.939780535314129e-9 7.108416461811467e-9 7.273628655093434e-9 7.533680259530356e-9 8.079140301372373e-9
          6.950751671897804e-9 6.8784367828530545e-9 7.63305368650981e-9 7.413138183467125e-9 7.586277003409408e-9 8.494389646520533e-9
          8.938031239384261e-9 6.883604144143936e-9 6.97141985025832e-9 8.477711141831404e-9 1.0394553884695392e-8 1.0348852831260333e-8
          1.107793072712649e-8 1.028736399238974e-8 1.1885224268100227e-8 1.1879620608770433e-8 1.1870876869008598e-8 1.0000943117260369e-8
          1.0786848148980758e-8 9.73031002756653e-9 1.1506952610224174e-8 1.1146168431871792e-8 8.683726846145613e-9 8.989056197419921e-9
          9.196368810027406e-9 9.48389802690205e-9 9.686205470643913e-9 1.0190115244938745e-8 5.60626450542098e-9 6.085079247191681e-9
          6.57967757364125e-9 7.578551898397035e-9 9.836100163791898e-9 1.0106802006561348e-8 1.081207994810932e-8 6.881649884002448e-9
          7.251066059424457e-9 8.098996588708403e-9 8.419720968321643e-9 1.0011226491039247e-8 1.066126856810249e-8 9.944427589484897e-9
          1.0713733890104179e-8 9.238927185989222e-9 9.663178072217802e-9 9.88464456414676e-9 1.133822937371685e-8 1.1429802700545862e-8
          1.0214172119722383e-8 1.1209384537647944e-8 3.624523880777612e-9 3.951697325972782e-9 4.295338384501863e-9 4.64079822106336e-9
          5.256983957361e-9 5.7429295044411885e-9 3.009418558309095e-9 3.362495721141708e-9 4.012106621521835e-9 4.441911066826014e-9
          5.036361948259983e-9 5.4278398063086725e-9 5.8575925377168165e-9 6.303754210123982e-9 6.451771625302694e-9 7.319658356997601e-9
          4.096400187998636e-9 4.687530898120698e-9 5.3835183921161556e-9 5.817384341172146e-9 7.813652536301251e-9 8.157903771438223e-9
          9.392207929048451e-9 9.816206591618926e-9 7.1709605654421766e-9 7.52514038566506e-9 9.173671881206646e-9 8.657889348744817e-9
          9.312959739493592e-9 1.0231553111241606e-8 1.0736518647523128e-8 8.056940595254394e-9 8.761135337066486e-9 9.757774116407256e-9
          6.771871168125758e-9 2.4534593084902874e-9 1.85629128017896e-9 4.745999898705735e-9 4.366502101516467e-9 1.3564091638364699e-8
          3.8822126410391025e-8 2.5178398949620197e-7 1.9257096011615453e-7 1.72391996215168e-7 2.307284991949422e-7 2.1545362710645776e-7
          1.4943185407944463e-7 2.534276371938769e-7 1.8548268996795183e-7 2.4006033257428334e-7 2.1287289799222985e-7 2.0878353352396682e-7
          2.619241525708259e-7 9.600340054243808e-8 1.018155417028443e-7 7.677646155878291e-8 7.484860027448638e-8 1.2080095931747383e-7
          1.2041249615342303e-7 1.2925969012341322e-7 1.3346389491147394e-7 1.5232310986550836e-7 1.5430965015560764e-7 1.44801411729342e-7
          8.178690497382332e-8 1.0603680069410536e-7 8.231188966779183e-8 6.448600955310552e-8 9.85503089609405e-8 8.676251629098917e-8
          1.3028669641438738e-7 1.314361748947178e-7 1.0903902302887282e-7 7.028449999111756e-8 4.902521754993049e-8 4.039843829735019e-8
          5.855055130973975e-8 5.085999515446183e-9 2.137469015356297e-8 1.7600874940142534e-8 3.177165904476989e-8 4.681660262836192e-8
          1.0888371624233132e-8 1.3849213196774863e-8 9.538709170784805e-9 2.9567429128077778e-8 4.028268799293165e-8 1.250776082620744e-7
          1.186979680304995e-7 1.0282285093656521e-7 1.1000263602655893e-7 1.0295612395869798e-7 1.0735428439855462e-7 9.170028148317284e-8
          6.330036891313605e-8 6.478178692887657e-8 3.2815272388974596e-8 9.067286201265341e-8 7.646145660784491e-8 1.0801074213934456e-7
          8.706431505736723e-8 7.124160416708378e-8 1.150220783537579e-7 4.1143340378835005e-8 4.55317550463048e-8 4.393219725739927e-8
          4.8659232845588995e-8 5.153955131286793e-8 5.7212053150356173e-8 3.478165569028875e-8 4.021966705900322e-8 3.533852156231514e-8
          4.984143115298789e-8 4.604713862089178e-8 4.4055294885206433e-8 4.21220456471305e-8 5.410831557610388e-8 7.40532790731321e-8
          7.007300441782311e-8 5.8864058522700527e-8 5.157184839810186e-8 4.937881383565562e-8 6.101429027453522e-8 6.310132832483296e-8
          4.34719321631299e-8 5.972292115677168e-8 2.9230181664177975e-8 5.919354602300429e-8 4.052247966878214e-8 3.1180518206701084e-8
          6.480457629472136e-8 6.518486517617765e-8 6.750517694986576e-8 6.598060770890382e-8 5.1504474083999326e-8 7.803974340801184e-8
          8.361108031243356e-8 8.809027556876352e-8 6.651804620785475e-8 5.708186053134546e-8 5.947826410432431e-8 8.995026370735677e-8
          9.60341133931057e-8 1.2729408037163516e-8 1.0603841559271978e-8 1.0851705593224255e-8 1.1533702896222877e-8 9.136188090704472e-9
          1.2256845445667648e-8 1.2071474142475635e-8 1.2175112119682054e-8 1.0875443490602162e-8 1.1513778793410403e-8 1.172667326946332e-8
          8.841214312442098e-9 9.118290542300611e-9 1.2361183804916968e-8 1.0021243310276883e-8 6.726566384153838e-9 7.247049316052053e-9
          8.312960981057048e-9 5.2513689995373185e-9 6.112483065828026e-9 7.68688153435039e-9 1.1655784883174069e-8 1.0127512833355552e-8
          1.2664449917953492e-8 1.1396635952547278e-8 9.607546751023505e-9 1.0814927565464961e-8
        </DataArray>
        <DataArray type="Float64" Name="gradient_matprop_error" format="ascii" RangeMin="0" RangeMax="0">
          0 0 0 0 0 0
          0 0 0 0 0 0
          0 0 0 0 0 0
          0 0 0 0 0 0
          0 0 0 0 0 0
          0 0 0 0 0 0
          0 0 0 0 0 0
          0 0 0 0 0 0
          0 0 0 0 0 0
          0 0 0 0 0 0
          0 0 0 0 0 0
          0 0 0 0 0 0
          0 0 0 0 0 0
          0 0 0 0 0 0
          0 0 0 0 0 0
          0 0 0 0 0 0
          0 0 0 0 0 0
          0 0 0 0 0 0
          0 0 0 0 0 0
          0 0 0 0 0 0
          0 0 0 0 0 0
          0 0 0 0 0 0
          0 0 0 0 0 0
          0 0 0 0 0 0
          0 0 0 0 0 0
          0 0 0 0 0 0
          0 0 0 0 0 0
          0 0 0 0 0 0
          0 0 0 0 0 0
          0 0 0 0 0 0
          0 0 0 0 0 0
          0 0 0 0 0 0
          0 0 0 0 0 0
          0 0 0 0 0 0
          0 0 0 0 0 0
          0 0 0 0 0 0
          0 0 0 0 0 0
          0 0 0 0 0 0
          0 0 0 0 0 0
          0 0 0 0 0 0
          0 0 0 0 0 0
          0 0 0 0 0 0
          0 0 0 0 0 0
          0 0 0 0 0 0
          0 0 0 0 0 0
          0 0 0 0 0 0
          0 0 0 0 0 0
          0 0 0 0 0 0
          0 0 0 0 0 0
          0 0 0 0 0 0
          0 0 0 0 0 0
          0 0 0 0 0 0
          0 0 0 0 0 0
          0 0 0 0 0 0
          0 0 0 0 0 0
          0 0 0 0 0 0
          0 0 0 0 0 0
          0 0 0 0 0 0
          0 0 0 0 0 0
          0 0 0 0 0 0
          0 0 0 0 0 0
          0 0 0 0 0 0
          0 0 0 0 0 0
          0 0 0 0 0 0
          0 0 0 0 0 0
          0 0 0 0 0 0
          0 0 0 0 0 0
          0 0 0 0 0 0
          0 0 0 0 0 0
          0 0 0 0 0 0
          0 0 0 0 0 0
          0 0 0 0 0 0
          0 0 0 0 0 0
          0 0 0 0 0 0
          0 0 0 0 0 0
          0 0 0 0 0 0
          0 0 0 0 0 0
          0 0 0 0 0 0
          0 0 0 0 0 0
          0 0 0 0 0 0
          0 0 0 0
        </DataArray>
        <DataArray type="Float64" Name="initial_marker" format="ascii" RangeMin="0" RangeMax="2">
          2 0 1 2 2 2
          2 1 2 1 2 2
          1.75 2 2 2 2 1
          2 2 2 2 0 0
          0 0 0 0 0 0
          2 2 2 2 2 2
          2 2 2 2 2 2
          2 2 2 2 2 2
          2 2 2 2 2 2
          2 2 2 2 2 2
          2 2 2 2 2 2
          2 2 2 2 2 2
          2 2 2 2 2 2
          2 1 1.5 1 1.5 0
          1 1 2 2 2 2
          2 2 2 2 2 2
          2 2 2 2 2 2
          2 2 2 2 2 2
          2 2 2 2 2 2
          2 2 2 2 2 2
          2 2 2 2 2 2
          2 2 2 2 2 2
          1 1.5 1.5 1.75 0 1
          1.5 2 2 2 2 2
          2 2 2 2 2 2
          2 2 2 2 2 2
          2 2 2 2 2 2
          2 2 2 2 2 2
          2 2 2 2 2 2
          2 2 2 2 2 2
          2 2 2 2 2 2
          2 2 2 2 2 2
          2 2 2 2 2 2
          2 2 2 2 2 2
          2 2 2 2 2 2
          2 2 2 2 2 2
          2 2 2 2 2 2
          2 2 2 2 2 2
          2 2 2 2 2 2
          2 2 2 2 2 2
          2 2 2 2 2 2
          2 2 2 2 2 2
          2 2 2 2 2 2
          2 2 2 2 2 2
          2 2 2 2 2 2
          2 2 2 2 2 2
          2 2 2 2 2 2
          2 2 2 2 2 2
          2 2 2 2 2 2
          2 2 2 2 2 2
          2 2 2 2 2 2
          2 2 2 2 2 2
          2 2 2 2 2 2
          2 2 2 2 2 2
          2 2 2 2 2 2
          2 2 2 2 2 2
          2 2 2 2 2 2
          2 2 2 2 2 2
          0 0 0 0 0 0
          0 1 1 1 1 2
          2 2 1.5 1.25 2 2
          1.5 0 0.25 0.3333333333333333 0 1.5
          0.75 0.5 0.5 1 1 1
          1 1 1 1 2 1
          1 2 1 0.5 1 0.5
          0.25 0 0.5 0.25 0 0
          0 0 0 0 0 0
          0 0 0 1 0 0
          0 0 0 0 0 1
          1 1.25 2 2 2 2
          2 2 2 1 1.5 1
          2 2 2 2 2 2
          2 2 2 2 2 2
          2 2 2 2 2 2
          2 2 2 2 2 2
          2 2 2 2 2 2
          2 2 2 2 2 2
          2 2 2 2 2 2
          2 2 2 2 2 2
          2 2 2 2 2 2
          2 2 2 2
        </DataArray>
        <DataArray type="Float64" Name="markers_norefine" format="ascii" RangeMin="0" RangeMax="2">
          0 0 0 2 0 0
          0 0 0 0 0 0
          0 2 0 0.5 0 0
          0 2 1 0 0 0
          0 0 0 0 0 0
          0 0 0 0 0 0
          0 0 0 0 0 0
          0 0 0 0 0 0
          0 0 0 0 0 0
          0 0 0 0 0 0
          0 0 0 0 0 0
          0 0 0 0 0 0
          0 0 0 0 0 0
          0 0 0 0 0 0
          0 0 0 0 0 0.5
          0 1 0.5 0 0 2
          0.5 1.5 0 2 1 2
          1.5 0 0 2 2 2
          0 0 0 0 0 0
          0 0 0 0 0 0
          0 0 0 0 0 0
          0 0 0 0 0 0
          0 0 0 0 0 0
          0 0 0 0 0 0
          0 0 2 2 2 0.25
          2 2 2 1 0 0
          0 0 0 0 0 0
          0 0 0 0 0 0
          0 0 0 0 0 0
          0 0 0 0 0 0.5
          0 0 0 0 2 1.5
          1.3333333333333333 1 0 0.5 0.25 1.5
          1 0 0.5 1 0.5 1.5
          0 2 1.75 2 2 1.5
          1.6666666666666667 2 2 2 2 0.5
          0 1 0.5 0.25 1 0.75
          0 0.5 1.5 1.25 1.75 0.6666666666666666
          1 1 1 1 1 0.6666666666666666
          2 2 2 2 0 0.5
          0 0 0 1 0.6666666666666666 0
          2 2 2 2 1.5 1.75
          2 2 2 2 2 2
          2 2 2 2 2 2
          2 2 0.5 0.75 0 0
          1 1 0 1 1.25 0
          0.5 1 1.5 0 0 0
          0 0 1 0.5 0 0
          0 0 0 0 1 1
          1 1 0.75 1 2 2
          2 1.75 1.5 1.25 1 2
          2 2 2 0.25 0.5 0
          0 0.75 1.25 0 0.5 0
          1.5 1 2 2 2 2
          2 2 2 2 2 2
          2 2 2 2 2 2
          2 2 2 2 1.5 1.75
          1 1.5 2 2 2 2
          2 2 2 2 2 2
          0 0 0 0 0 0
          0 0 0 0 0 0
          0 0 0 0 0 0
          0 0 0 0 0 0
          0 0 0 0 0 0
          0 0 0 0 0 0
          0 0 0 0 0 0
          0 0 0 0 0 0
          0 0 0 0 0 0
          0 0 0 0 0 0
          0 0 0 0 0 0
          0 0 0 0 0 0
          0 0 0 0 0 0
          0 0 0 0 0 0
          0 0 1 0 0 0
          0 0 0 0 0 0
          0 0 0 0 0.5 0
          0 0 0 0.5 1 0
          0 1 2 1.5 1 2
          0 0.5 0 1.5 2 1.75
          2 2 1.25 2 2 2
          2 2 2 2 1.5 2
          1 2 2 2
        </DataArray>
        <DataArray type="Float64" Name="markers_mustrefine" format="ascii" RangeMin="0" RangeMax="2">
          2 0 1 2 2 2
          2 1 2 1 2 2
          1.75 2 2 2 2 1
          2 2 2 2 0 0
          0 0 0 0 0 0
          2 2 2 2 2 2
          2 2 2 2 2 2
          2 2 2 2 2 2
          2 2 2 2 2 2
          2 2 2 2 2 2
          2 2 2 2 2 2
          2 2 2 2 2 2
          2 2 2 2 2 2
          2 1 1.5 1 1.5 0
          1 1 2 2 2 2
          2 2 2 2 2 2
          2 2 2 2 2 2
          2 2 2 2 2 2
          2 2 2 2 2 2
          2 2 2 2 2 2
          2 2 2 2 2 2
          2 2 2 2 2 2
          1 1.5 1.5 1.75 0 1
          1.5 2 2 2 2 2
          2 2 2 2 2 2
          2 2 2 2 2 2
          2 2 2 2 2 2
          2 2 2 2 2 2
          2 2 2 2 2 2
          2 2 2 2 2 2
          2 2 2 2 2 2
          2 2 2 2 2 2
          2 2 2 2 2 2
          2 2 2 2 2 2
          2 2 2 2 2 2
          2 2 2 2 2 2
          2 2 2 2 2 2
          2 2 2 2 2 2
          2 2 2 2 2 2
          2 2 2 2 2 2
          2 2 2 2 2 2
          2 2 2 2 2 2
          2 2 2 2 2 2
          2 2 2 2 2 2
          2 2 2 2 2 2
          2 2 2 2 2 2
          2 2 2 2 2 2
          2 2 2 2 2 2
          2 2 2 2 2 2
          2 2 2 2 2 2
          2 2 2 2 2 2
          2 2 2 2 2 2
          2 2 2 2 2 2
          2 2 2 2 2 2
          2 2 2 2 2 2
          2 2 2 2 2 2
          2 2 2 2 2 2
          2 2 2 2 2 2
          0 0 0 0 0 0
          0 1 1 1 1 2
          2 2 1.5 1.25 2 2
          1.5 0 0.25 0.3333333333333333 0 1.5
          0.75 0.5 0.5 1 1 1
          1 1 1 1 2 1
          1 2 1 0.5 1 0.5
          0.25 0 0.5 0.25 0 0
          0 0 0 0 0 0
          0 0 0 1 0 0
          0 0 0 0 0 1
          1 1.25 2 2 2 2
          2 2 2 1 1.5 1
          2 2 2 2 2 2
          2 2 2 2 2 2
          2 2 2 2 2 2
          2 2 2 2 2 2
          2 2 2 2 2 2
          2 2 2 2 2 2
          2 2 2 2 2 2
          2 2 2 2 2 2
          2 2 2 2 2 2
          2 2 2 2
        </DataArray>
        <DataArray type="Float64" Name="gradient_marker" format="ascii" RangeMin="0" RangeMax="1">
          0 0.5 1 0 1 0.75
          0.5 1 0.75 0.75 0.5 0.875
          0.75 0 0.75 0.5 1 0.6666666666666666
          0.75 0 0.5 1 0 0
          0 0 0 0 0 0.5
          0 0 0.5 0.25 0 0
          0.5 0 0 0 0 0
          0 0 0.25 0.25 0 0.3333333333333333
          0 0 0 0 0.5 0.5
          1 0.5 0.25 0.75 0.5 0.5
          1 0.75 1 0.875 0.875 1
          0.75 1 0.875 1 1 1
          0.25 0.625 0.75 0.5 0.75 0.625
          1 0 0.25 0 0.25 0
          0 0 0.75 0.75 0.5 0.5
          0.625 0.25 0.5 0.75 0.875 0
          0.25 0.25 0.75 0 0.25 0
          0.125 0.75 0.625 0 0 0
          0.5 0.625 0.875 0.5 0.75 1
          1 1 1 1 1 1
          1 1 1 1 1 1
          1 0.5 0.75 0.5 0.5 0.75
          0 0.25 0 0.25 0 0
          0 0.75 0.5 0 0.25 0
          0 0.5 0 0 0 0.5
          0 0 0 0.5 1 1
          1 1 1 1 1 1
          0 0 0 0 0 0
          0 0 0 0 0 0
          0 0 0 0 0 0
          0 0 0 0 0 0
          0 0 0 0 0 0
          0 0 0 0 0 0
          0 0 0 0 0 0
          0 0 0 0 0 0
          0 0 0 0 0 0
          0 0 0 0 0 0
          0 0 0 0 0 0
          0 0 0 0 0 0
          0 0 0 0 0 0
          0 0 0 0 0 0
          0 0 0 0 0 0
          0 0 0 0 0 0
          0 0 0 0 0 0
          0 0 0 0 0 0
          0 0 0 0 0 0
          0 0 0 0 0 0
          0 0 0 0 0 0
          0 0 0 0 0 0
          0 0 0 0 0 0
          0 0 0 0 0 0
          0 0 0 0 0 0
          0 0 0 0 0 0
          0 0 0 0 0 0
          0 0 0 0 0 0
          0 0 0 0 0 0
          0 0 0 0 0 0
          0 0 0 0 0 0
          1 1 1 1 0.75 0.875
          0.75 1 0.75 0.75 1 0.75
          0.5 0.875 0.75 1 0.75 1
          1 0.75 0.75 0.5 0.625 0.625
          0.75 0.875 1 1 1 1
          0.5 0.625 0.75 0.5 0.75 0.5
          0.75 1 0.5 0.5 0.5 0.375
          0.5 0.5 0.5 0.375 0.25 0.5
          0.5 1 1 0.5 0.625 1
          0.75 0.625 0.875 0.5 0.5 0.5
          0.5 0.5 0 0.5 0.5 1
          0.75 0.625 0.5 0 0.25 0
          0.5 0.625 1 0 0.25 0
          0.625 0.25 0 0 1 1
          1 0.75 0.5 0.5 0.75 0.75
          0.5 0.75 0 0.625 0.25 0
          0.75 0.75 0.75 0.75 0.5 1
          1 1 1 0.5 0.5 1
          1 0 0 0 0 0
          0 0 0 0 0 0
          0 0 0 0 0 0
          0 0 0 0 0 0
          0 0 0 0
        </DataArray>
        <DataArray type="Float64" Name="gradient_matprop_marker" format="ascii" RangeMin="0" RangeMax="0">
          0 0 0 0 0 0
          0 0 0 0 0 0
          0 0 0 0 0 0
          0 0 0 0 0 0
          0 0 0 0 0 0
          0 0 0 0 0 0
          0 0 0 0 0 0
          0 0 0 0 0 0
          0 0 0 0 0 0
          0 0 0 0 0 0
          0 0 0 0 0 0
          0 0 0 0 0 0
          0 0 0 0 0 0
          0 0 0 0 0 0
          0 0 0 0 0 0
          0 0 0 0 0 0
          0 0 0 0 0 0
          0 0 0 0 0 0
          0 0 0 0 0 0
          0 0 0 0 0 0
          0 0 0 0 0 0
          0 0 0 0 0 0
          0 0 0 0 0 0
          0 0 0 0 0 0
          0 0 0 0 0 0
          0 0 0 0 0 0
          0 0 0 0 0 0
          0 0 0 0 0 0
          0 0 0 0 0 0
          0 0 0 0 0 0
          0 0 0 0 0 0
          0 0 0 0 0 0
          0 0 0 0 0 0
          0 0 0 0 0 0
          0 0 0 0 0 0
          0 0 0 0 0 0
          0 0 0 0 0 0
          0 0 0 0 0 0
          0 0 0 0 0 0
          0 0 0 0 0 0
          0 0 0 0 0 0
          0 0 0 0 0 0
          0 0 0 0 0 0
          0 0 0 0 0 0
          0 0 0 0 0 0
          0 0 0 0 0 0
          0 0 0 0 0 0
          0 0 0 0 0 0
          0 0 0 0 0 0
          0 0 0 0 0 0
          0 0 0 0 0 0
          0 0 0 0 0 0
          0 0 0 0 0 0
          0 0 0 0 0 0
          0 0 0 0 0 0
          0 0 0 0 0 0
          0 0 0 0 0 0
          0 0 0 0 0 0
          0 0 0 0 0 0
          0 0 0 0 0 0
          0 0 0 0 0 0
          0 0 0 0 0 0
          0 0 0 0 0 0
          0 0 0 0 0 0
          0 0 0 0 0 0
          0 0 0 0 0 0
          0 0 0 0 0 0
          0 0 0 0 0 0
          0 0 0 0 0 0
          0 0 0 0 0 0
          0 0 0 0 0 0
          0 0 0 0 0 0
          0 0 0 0 0 0
          0 0 0 0 0 0
          0 0 0 0 0 0
          0 0 0 0 0 0
          0 0 0 0 0 0
          0 0 0 0 0 0
          0 0 0 0 0 0
          0 0 0 0 0 0
          0 0 0 0
        </DataArray>
        <DataArray type="Float64" Name="combo" format="ascii" RangeMin="0" RangeMax="2">
          0 0.5 1 2 1 0.75
          0.5 1 0.75 0.75 0.5 0.875
          0.75 2 0.75 1 1 0.6666666666666666
          0.75 2 1.5 1 0 0
          0 0 0 0 0 0.5
          0 0 0.5 0.25 0 0
          0.5 0 0 0 0 0
          0 0 0.25 0.25 0 0.3333333333333333
          0 0 0 0 0.5 0.5
          1 0.5 0.25 0.75 0.5 0.5
          1 0.75 1 0.875 0.875 1
          0.75 1 0.875 1 1 1
          0.25 0.625 0.75 0.5 0.75 0.625
          1 0 0.25 0 0.25 0
          0 0 0.75 0.75 0.5 1
          0.625 1.25 1 0.75 0.875 2
          0.75 1.75 0.75 2 1.25 2
          1.625 0.75 0.625 2 2 2
          0.5 0.625 0.875 0.5 0.75 1
          1 1 1 1 1 1
          1 1 1 1 1 1
          1 0.5 0.75 0.5 0.5 0.75
          0 0.25 0 0.25 0 0
          0 0.75 0.5 0 0.25 0
          0 0.5 2 2 2 0.75
          2 2 2 1.5 1 1
          1 1 1 1 1 1
          0 0 0 0 0 0
          0 0 0 0 0 0
          0 0 0 0 0 0.5
          0 0 0 0 2 1.5
          1.3333333333333333 1 0 0.5 0.25 1.5
          1 0 0.5 1 0.5 1.5
          0 2 1.75 2 2 1.5
          1.6666666666666667 2 2 2 2 0.5
          0 1 0.5 0.25 1 0.75