<?xml version="1.0"?>
<VTKFile type="UnstructuredGrid" version="0.1" byte_order="LittleEndian" header_type="UInt32" compressor="vtkZLibDataCompressor">
  <UnstructuredGrid>
    <Piece NumberOfPoints="470" NumberOfCells="270">
      <PointData>
        <DataArray type="Int32" Name="libmesh_node_id" format="ascii" RangeMin="474" RangeMax="2958">
          474 572 573 574 576 680
          681 684 685 864 865 866
          873 875 876 877 878 879
          880 881 882 885 886 891
          892 897 899 900 905 906
          1437 1438 1439 1440 1443 1445
          1446 1447 1448 1449 1450 1451
          1452 1453 1454 1455 1456 1457
          1458 1459 1460 1461 1462 1463
          1464 1465 1466 1467 1468 1469
          1470 1472 1485 1486 1488 1491
          1526 1528 1531 1547 1548 1549
          1550 1551 1552 1553 1554 1555
          1556 1557 1558 1561 1563 1564
          1566 1587 1588 1589 1590 1591
          1592 1593 1594 1595 1596 1597
          1598 1601 1603 1604 1606 1932
          1935 1937 1939 1942 1944 1946
          1980 1981 1982 1983 1987 1988
          2000 2004 2300 2301 2302 2303
          2304 2305 2306 2307 2308 2309
          2310 2311 2312 2313 2314 2315
          2316 2317 2318 2319 2320 2321
          2322 2323 2324 2325 2326 2327
          2328 2329 2330 2331 2332 2353
          2359 2441 2442 2444 2457 2459
          2461 2478 2491 2493 2495 2497
          2498 2499 2500 2501 2502 2503
          2504 2505 2506 2507 2508 2509
          2510 2511 2512 2513 2514 2515
          2516 2517 2518 2519 2520 2521
          2522 2523 2524 2525 2526 2527
          2528 2529 2530 2531 2532 2533
          2534 2535 2536 2537 2538 2539
          2540 2541 2542 2543 2544 2545
          2546 2547 2548 2549 2550 2551
          2552 2553 2554 2555 2556 2557
          2558 2559 2560 2561 2562 2563
          2578 2579 2580 2581 2582 2583
          2584 2585 2586 2587 2598 2599
          2600 2601 2602 2603 2604 2605
          2606 2607 2618 2619 2620 2621
          2622 2623 2624 2632 2633 2635
          2636 2637 2638 2639 2643 2644
          2660 2662 2663 2664 2667 2668
          2680 2681 2682 2683 2687 2688
          2720 2721 2724 2748 2749 2750
          2751 2752 2753 2754 2755 2756
          2757 2758 2759 2760 2761 2762
          2763 2764 2765 2766 2767 2768
          2769 2770 2771 2772 2773 2774
          2775 2776 2777 2778 2779 2780
          2781 2782 2783 2784 2785 2786
          2787 2788 2789 2790 2791 2792
          2793 2794 2795 2796 2797 2798
          2799 2800 2801 2802 2803 2804
          2805 2806 2807 2808 2809 2810
          2811 2812 2813 2814 2815 2816
          2817 2818 2819 2820 2821 2822
          2823 2824 2825 2836 2837 2838
          2839 2840 2841 2842 2850 2851
          2852 2853 2854 2855 2856 2857
          2858 2859 2870 2871 2872 2873
          2874 2875 2876 2884 2886 2887
          2888 2891 2892 2904 2906 2907
          2908 2911 2912 2924 2928 2952
          2956 883 870 884 1178 1179
          1180 1181 1185 1186 1567 1505
          1568 1506 1574 1511 1607 1541
          1611 1545 1936 1933 1938 1940
          1934 1941 1569 1943 1945 1947
          1948 1577 1984 1985 1986 1989
          2001 2002 2003 2005 2006 2640
          2641 2634 2642 2645 1570 2665
          2661 2666 2669 1575 2684 2685
          2686 2689 1578 2722 2723 2726
          2889 2885 2890 2893 1608 2909
          2905 2910 2913 1612 2926 2930
          2954 2958
        </DataArray>
        <DataArray type="Float64" Name="bounds" format="ascii" RangeMin="0" RangeMax="0">
          0 0 0 0 0 0
          0 0 0 0 0 0
          0 0 0 0 0 0
          0 0 0 0 0 0
          0 0 0 0 0 0
          0 0 0 0 0 0
          0 0 0 0 0 0
          0 0 0 0 0 0
          0 0 0 0 0 0
          0 0 0 0 0 0
          0 0 0 0 0 0
          0 0 0 0 0 0
          0 0 0 0 0 0
          0 0 0 0 0 0
          0 0 0 0 0 0
          0 0 0 0 0 0
          0 0 0 0 0 0
          0 0 0 0 0 0
          0 0 0 0 0 0
          0 0 0 0 0 0
          0 0 0 0 0 0
          0 0 0 0 0 0
          0 0 0 0 0 0
          0 0 0 0 0 0
          0 0 0 0 0 0
          0 0 0 0 0 0
          0 0 0 0 0 0
          0 0 0 0 0 0
          0 0 0 0 0 0
          0 0 0 0 0 0
          0 0 0 0 0 0
          0 0 0 0 0 0
          0 0 0 0 0 0
          0 0 0 0 0 0
          0 0 0 0 0 0
          0 0 0 0 0 0
          0 0 0 0 0 0
          0 0 0 0 0 0
          0 0 0 0 0 0
          0 0 0 0 0 0
          0 0 0 0 0 0
          0 0 0 0 0 0
          0 0 0 0 0 0
          0 0 0 0 0 0
          0 0 0 0 0 0
          0 0 0 0 0 0
          0 0 0 0 0 0
          0 0 0 0 0 0
          0 0 0 0 0 0
          0 0 0 0 0 0
          0 0 0 0 0 0
          0 0 0 0 0 0
          0 0 0 0 0 0
          0 0 0 0 0 0
          0 0 0 0 0 0
          0 0 0 0 0 0
          0 0 0 0 0 0
          0 0 0 0 0 0
          0 0 0 0 0 0
          0 0 0 0 0 0
          0 0 0 0 0 0
          0 0 0 0 0 0
          0 0 0 0 0 0
          0 0 0 0 0 0
          0 0 0 0 0 0
          0 0 0 0 0 0
          0 0 0 0 0 0
          0 0 0 0 0 0
          0 0 0 0 0 0
          0 0 0 0 0 0
          0 0 0 0 0 0
          0 0 0 0 0 0
          0 0 0 0 0 0
          0 0 0 0 0 0
          0 0 0 0 0 0
          0 0 0 0 0 0
          0 0 0 0 0 0
          0 0 0 0 0 0
          0 0
        </DataArray>
        <DataArray type="Float64" Name="gradient_error" format="ascii" RangeMin="6.566295110685477e-11" RangeMax="8.954229939963207e-8">
          1.1206862730703605e-9 4.366502101516467e-9 1.3564091638364699e-8 3.555227705073339e-8 7.985307280925561e-10 2.4534593084902874e-9
          1.85629128017896e-9 6.417303034018463e-10 5.298735829238332e-10 5.085999515446183e-9 2.137469015356297e-8 1.7600874940142534e-8
          2.662691443476602e-8 2.268294785083621e-9 2.4092063797278537e-9 1.912410867335354e-9 1.7647107148579309e-9 9.4618611186077e-10
          7.050113276173517e-10 6.263254521539957e-10 2.4292065682817423e-9 1.1794288419001912e-9 2.1868927069097127e-9 5.4897709815537387e-8
          5.4495798128371286e-8 7.316169602172405e-8 1.2587568190430173e-8 6.787716071237762e-9 1.2045616318471166e-8 1.6783324850512747e-8
          4.88557103619371e-9 6.7777447040919285e-9 6.194945581260039e-9 4.9262116345577525e-9 2.1644254328726615e-8 3.770799929596145e-9
          3.426985127948695e-9 4.128341942192753e-9 4.318977345603596e-9 1.422373344565596e-9 9.881213884411176e-10 1.835163065113148e-9
          2.6523575489485606e-9 3.91965075692405e-9 2.265456079426792e-9 9.922543474916088e-9 9.599106813940938e-9 1.8718040914396974e-9
          7.8870732118895e-9 6.922849013205499e-10 6.571480144501777e-10 8.990322759986531e-10 1.1783854217855117e-9 3.4613160170870236e-10
          9.295404524313363e-10 8.617781188433422e-10 5.612818324050041e-10 1.2478233855411252e-9 6.773920915609317e-10 1.069674175838319e-9
          1.274727054598034e-9 1.2427253862270829e-9 5.968173631270825e-8 5.386561468716941e-8 3.937766324189127e-8 4.8999542904762506e-8
          2.199425597110639e-8 6.383701328994884e-8 1.7601467349160083e-8 3.016352291837004e-8 2.707453975596948e-8 4.173647504280411e-9
          3.6570409565342408e-9 1.952028377451246e-8 2.4712378315186845e-9 3.2621548323957194e-8 2.8635800978135517e-8 1.0736888840861246e-8
          2.916479513107327e-8 2.755066631170559e-9 2.3853720091774475e-9 1.5565970401568258e-9 9.427020084929832e-9 7.969091052241423e-9
          4.865217335542877e-9 2.2290550272563215e-8 2.2064254161815374e-8 2.1157182045980552e-8 2.0361523785120527e-8 3.802345973140548e-8
          1.3889510416095148e-8 1.2166467837964261e-8 1.7411179451294585e-8 1.6641566535787744e-8 4.443067844124308e-8 1.872366887992758e-8
          1.7093350338720133e-8 1.0638225518110352e-8 1.0812602188511541e-8 1.5706885558657807e-8 1.327574436957769e-8 2.4678401458066758e-9
          1.775259983032534e-9 8.192207479091991e-10 1.328975194469192e-9 4.386931093123759e-10 2.4004277692946654e-10 3.7683368139454926e-10
          2.1008825496745807e-10 1.9911757335948235e-10 5.211610043052164e-10 4.759427308190836e-10 1.6573423953606125e-10 3.618317864990681e-10
          1.2406678788747955e-10 1.0481198845434328e-10 7.736919105941794e-10 9.408618522100487e-10 8.939252302993037e-10 8.469886083885586e-10
          1.7998846931519661e-9 6.357589733326237e-10 6.443069168778328e-10 8.235818057926787e-10 7.937787132368297e-10 4.4840696882285525e-10
          6.122132258646811e-10 5.996281181053924e-10 6.528548604230419e-10 7.639756206809804e-10 5.870430103461035e-10 1.6061842678484953e-9
          1.542485046201414e-9 1.130398750906583e-9 1.6149859283613865e-9 3.283788411220382e-10 3.4497187826451066e-10 4.4751105283786443e-10
          4.4033010966388533e-10 3.0805174204479687e-10 3.7689741332167543e-10 3.7503617929134167e-10 3.615649154069831e-10 4.331491664899063e-10
          3.731749452610079e-10 8.969413255560024e-10 8.598788014539134e-10 7.592698044338199e-10 8.807649544066409e-10 2.102786141074896e-8
          1.604605962837356e-8 2.2403062702688397e-8 2.2081919782484037e-8 2.0898537978039763e-8 1.829987611333147e-8 1.656345313286309e-8
          2.1031958776642702e-8 1.9387490600203133e-8 2.0800416360197017e-8 2.1535454158996227e-8 2.0090607765398e-8 3.115511949302314e-9
          3.0281417631517925e-9 2.8180887127112147e-9 5.656791891939432e-9 2.824633853722606e-9 2.7443249560198597e-9 2.267950156048439e-9
          2.1988247776427754e-9 2.5353002388967387e-9 2.0047003820065362e-9 5.232863483346921e-9 5.051109180464792e-9 4.03794047151769e-9
          4.5941703576003276e-9 2.0976150961184067e-9 2.480813647303503e-9 2.0526945600746492e-9 4.411730003531211e-9 1.7307858418113238e-9
          2.209323606338376e-9 1.1924792891803202e-9 1.7159215505695816e-9 1.4131025093184942e-9 1.8101812206821195e-9 1.3812463862859032e-9
          3.923789728348544e-9 3.1030348023356876e-9 3.1416546453228677e-9 9.358214732589574e-9 8.976412426706297e-9 8.145636057441895e-9
          2.0764180392385602e-8 2.0007222461620065e-8 1.5764530802549776e-8 1.780435892567797e-8 8.626523417557251e-9 8.298631152316181e-9
          7.330700714199699e-9 7.073033462126549e-9 7.503296676947482e-9 6.358110363030471e-9 1.3944719831659332e-8 1.3385389070895697e-8
          1.2096308262745602e-8 1.1936484574959947e-8 6.947497263014055e-9 5.486646624096594e-9 1.4884946234500942e-8 1.1718247081279168e-8
          1.3411439148500474e-8 6.36671039839771e-9 5.3400796979410754e-9 5.034519300314777e-9 4.198452240639075e-9 9.942117564841878e-9
          8.831375179439918e-9 7.799194285062369e-9 1.7958567227112115e-9 1.7355359138691257e-9 1.4101433277019436e-9 1.3604991490812848e-9
          1.5692971511184035e-9 1.2243897640710954e-9 3.407288596121899e-9 3.2912764609019174e-9 2.657435378748405e-9 2.9668480331022115e-9
          9.053657329806832e-10 1.3300169881432212e-9 6.925229866380081e-10 1.0316274984018384e-9 7.237212234854199e-10 1.0602898134472738e-9
          8.170933853386622e-10 2.4980249481185557e-9 1.9944902644019774e-9 1.9685040442042958e-9 6.243588706519514e-9 6.017418822702213e-9
          5.230262941285549e-9 5.033492660371531e-9 5.388572469785958e-9 4.485795813307712e-9 1.1028463093790165e-8 1.058006407375139e-8
          9.03682365146066e-9 9.351193466098667e-9 4.485728370843724e-9 3.7016186971593566e-9 3.4748858183176778e-9 2.8320678006896265e-9
          7.642920904099327e-9 6.480549359814e-9 5.801649870555368e-9 1.340333192473473e-9 1.6232452165669332e-9 2.7395914380073416e-9
          1.101236558264293e-9 1.4141400992822916e-9 7.465691221239878e-10 1.0563133984501713e-9 2.408459246227059e-9 1.8545117891995234e-9
          4.219149291080489e-9 6.3778797422080776e-9 3.814288037920356e-9 3.094251736470812e-9 5.850809511880984e-9 4.899323726971289e-9
          5.569766438058969e-10 8.022905746918078e-10 4.212435693347131e-10 6.128931558421778e-10 1.4559899503030902e-9 1.1375437521778106e-9
          2.5124457703088534e-9 2.0161788951399256e-9 4.097061378871995e-9 2.2174361553944493e-8 2.1818593277804166e-8 2.1645944035201643e-8
          2.118720995116216e-8 2.0420823388824176e-8 1.9525024327327504e-8 2.236546981121468e-8 2.2365277775050725e-8 2.23162587029141e-8
          2.2212382308097445e-8 2.0705861474714926e-8 2.0121692183087278e-8 1.9248266173856136e-8 1.860118961644748e-8 1.824627991761162e-8
          1.666006565279014e-8 2.1923862055150005e-8 2.1924322881102546e-8 2.109045216677481e-8 2.1452885783399025e-8 1.7440708494701126e-8
          1.6361690474968317e-8 1.5502595213417736e-8 1.3116917110044584e-8 2.080887103768496e-8 2.0220524530939753e-8 1.9558063198061786e-8
          1.5119441192917186e-8 1.365908876505424e-8 1.1569466405706003e-8 1.0269283006635564e-8 1.9279711235435284e-8 1.7938000702987912e-8
          1.5139610773415736e-8 1.6381102208222313e-8 1.7592718563895774e-8 1.642832258031751e-8 1.7539977326782306e-8 1.949050090709523e-8
          1.9448472215646983e-8 1.1615807509518656e-8 1.4084845671678367e-8 1.4230017826004978e-8 1.7593525049965947e-8 1.6244987702992066e-8
          1.7267175168396004e-8 1.5871362385505526e-8 1.6816445718862105e-8 1.9238119830386733e-8 1.8746215701194322e-8 1.2400158260216926e-8
          1.4000285071905571e-8 1.3419637113656364e-8 1.7093981193693924e-8 2.083263872985542e-8 2.056016441238159e-8 2.1488610565089603e-8
          1.9005122859493536e-8 2.0044006139242227e-8 1.9793063449628694e-8 2.145484601239064e-8 2.0003649221441318e-8 1.91142828419265e-8
          1.739275268653196e-8 1.6172689263024352e-8 1.9376225939126442e-8 1.8721445052275445e-8 1.8039817309549272e-8 1.7410984834235958e-8
          1.675584050752248e-8 1.5326500176284598e-8 1.4697394641638207e-8 1.4859381697333276e-8 1.2922052086749715e-8 2.0056644712154393e-8
          1.9892686927261983e-8 1.8412963323351505e-8 1.8887419795461992e-8 1.2048128614527369e-8 1.038661108910246e-8 8.961030825849834e-9
          7.66311577459241e-9 1.6241937888074106e-8 1.4308208798030528e-8 1.230155542058574e-8 1.524184369882894e-8 1.6218615395747065e-8
          1.4822046290961902e-8 1.5750567142909054e-8 1.800635285753237e-8 1.7080386089028568e-8 1.1172515733900028e-8 1.2742697094006618e-8
          1.255156808249722e-8 1.616750503939072e-8 1.783193660715888e-8 1.6152362865996924e-8 1.451108002536679e-8 1.2661178034866661e-8
          1.7720487947781728e-8 1.6285420470190138e-8 1.5147433071786915e-8 9.240087917493811e-9 1.1610185649885445e-8 8.486728224652941e-9
          7.2061352932577834e-9 1.0941098014203859e-8 9.64192628237589e-9 1.369641614268183e-8 1.4762150282970925e-8 1.293627466419645e-8
          1.1464337640609492e-8 1.3800891949215982e-8 1.2103983418359128e-8 6.181167395037578e-9 8.390385134357317e-9 1.003403342037063e-8
          1.0616024749947033e-8 2.561990964289501e-9 1.0888371624233132e-8 8.24829191777062e-10 3.1076013363946315e-10 2.7257307606763557e-10
          2.1346965951007873e-10 1.800660797220669e-10 2.0371031220777912e-10 2.2744093883070136e-10 5.095328751565269e-9 1.0875570031979285e-8
          1.149052179302968e-8 2.3530118246817808e-8 2.4832672015289384e-8 4.917485743356384e-8 4.028084982710103e-8 7.750688014682103e-8
          4.725019492098385e-8 8.954229939963207e-8 2.645084930211289e-9 3.365292600354327e-9 1.4921857533953207e-9 1.969496725340192e-9
          2.4903083900212977e-9 1.1069729481945287e-9 1.358675972126454e-9 8.248051537646531e-10 4.4536676596915737e-10 6.062366351081769e-10
          3.299651340717993e-10 7.570375928435544e-10 1.0843898640514308e-10 2.6724232804335026e-10 2.435304783550514e-10 1.8341654718621694e-10
          2.2809184603809767e-10 6.566295110685477e-11 1.1535079441581765e-10 1.6324457641101015e-10 8.3687123125954e-11 8.152915979283379e-10
          1.0420546761260527e-9 1.2021947549207432e-9 7.679027510672576e-10 1.7424268685257132e-9 1.3172254557505652e-9 2.729581365637762e-9
          3.066436941894372e-9 2.14675133647007e-9 4.06627676741137e-9 3.3158087931901504e-9 4.0601560916403467e-10 5.7446479800195e-10
          4.3350270093297147e-10 1.0147260910899836e-9 7.817104440227283e-10 1.703457167223023e-9 1.3428681762616448e-9 2.69927562106387e-9
          5.750452982362493e-9 6.318776651241472e-9 4.760195624535312e-9 7.312737731629152e-9 6.234656696169967e-9 8.575045532012434e-9
          9.258111585889637e-9 7.350533540823171e-9 9.136094779216674e-9 7.763183430198793e-9 3.970516478967368e-9 5.301106639116436e-9
          6.309662326576089e-9 6.679969229832245e-9
        </DataArray>
        <DataArray type="Float64" Name="gradient_matprop_error" format="ascii" RangeMin="0" RangeMax="0">
          0 0 0 0 0 0
          0 0 0 0 0 0
          0 0 0 0 0 0
          0 0 0 0 0 0
          0 0 0 0 0 0
          0 0 0 0 0 0
          0 0 0 0 0 0
          0 0 0 0 0 0
          0 0 0 0 0 0
          0 0 0 0 0 0
          0 0 0 0 0 0
          0 0 0 0 0 0
          0 0 0 0 0 0
          0 0 0 0 0 0
          0 0 0 0 0 0
          0 0 0 0 0 0
          0 0 0 0 0 0
          0 0 0 0 0 0
          0 0 0 0 0 0
          0 0 0 0 0 0
          0 0 0 0 0 0
          0 0 0 0 0 0
          0 0 0 0 0 0
          0 0 0 0 0 0
          0 0 0 0 0 0
          0 0 0 0 0 0
          0 0 0 0 0 0
          0 0 0 0 0 0
          0 0 0 0 0 0
          0 0 0 0 0 0
          0 0 0 0 0 0
          0 0 0 0 0 0
          0 0 0 0 0 0
          0 0 0 0 0 0
          0 0 0 0 0 0
          0 0 0 0 0 0
          0 0 0 0 0 0
          0 0 0 0 0 0
          0 0 0 0 0 0
          0 0 0 0 0 0
          0 0 0 0 0 0
          0 0 0 0 0 0
          0 0 0 0 0 0
          0 0 0 0 0 0
          0 0 0 0 0 0
          0 0 0 0 0 0
          0 0 0 0 0 0
          0 0 0 0 0 0
          0 0 0 0 0 0
          0 0 0 0 0 0
          0 0 0 0 0 0
          0 0 0 0 0 0
          0 0 0 0 0 0
          0 0 0 0 0 0
          0 0 0 0 0 0
          0 0 0 0 0 0
          0 0 0 0 0 0
          0 0 0 0 0 0
          0 0 0 0 0 0
          0 0 0 0 0 0
          0 0 0 0 0 0
          0 0 0 0 0 0
          0 0 0 0 0 0
          0 0 0 0 0 0
          0 0 0 0 0 0
          0 0 0 0 0 0
          0 0 0 0 0 0
          0 0 0 0 0 0
          0 0 0 0 0 0
          0 0 0 0 0 0
          0 0 0 0 0 0
          0 0 0 0 0 0
          0 0 0 0 0 0
          0 0 0 0 0 0
          0 0 0 0 0 0
          0 0 0 0 0 0
          0 0 0 0 0 0
          0 0 0 0 0 0
          0 0
        </DataArray>
        <DataArray type="Float64" Name="initial_marker" format="ascii" RangeMin="0" RangeMax="2">
          0 0 0 2 0 0
          0 0 0 0 0.5 0.25
          1.25 0 0 0 0 0
          0 0 0 2 1 2
          2 2 2 2 2 2
          0 1 0.5 0 1.6666666666666667 0
          0 0.5 0.25 0 0 0
          0 0 0 2 1.5 1.5
          1 0 0 0 0 0
          0 0 0 0 0 1.5
          1 1 2 2 2 2
          2 2 2 2 2 2
          2 2 2 2 2 2
          2 2 2 2 2 2
          2 2 2 2 2 2
          2 2 2 2 2 2
          2 2 2 2 2 0
          0 0 0 0 0 0
          0 0 0 0 0 0
          0 0 0 1 1 1
          2 0 0 1 1 0
          1 1 0 1 1 2
          2 2 2 0 0 1
          0.75 0 1 0.5 0 0.5
          0 2 1.75 1.6666666666666667 1.6666666666666667 2
          2 2 2 2 2 2
          2 2 2 2 2 2
          2 2 2 2 2 2
          2 2 2 2 2 2
          2 2 2 2 2 2
          2 2 2 2 2 2
          2 2 2 2 2 2
          2 2 2 2 2 2
          2 2 2 2 2 2
          2 2 2 2 2 2
          2 2 2 2 2 2
          2 2 2 2 2 2
          2 2 2 2 2 2
          2 2 2 2 2 2
          2 2 2 2 2 2
          2 2 2 2 2 2
          2 2 2 2 2 2
          2 2 2 1 1.5 2
          1 1.5 1 1.5 2 2
          2 2 2 2 2 2
          1 1.5 1 1.5 2 2
          2 2 2 2 2 2
          2 2 2 2 2 2
          2 2 2 2 2 2
          2 2 2 2 2 2
          2 2 2 2 2 2
          2 2 2 2 2 2
          2 2 2 2 2 2
          2 2 2 2 2 2
          2 2 2 2 2 2
          2 2 2 2 2 2
          2 2 2 2 2 2
          2 2 2 2 2 2
          2 2 2 2 2 2
          2 2 2 2 2 2
          2 2 2 2 2 2
          2 2 2 2 2 2
          2 2 2 2 2 2
          2 2 2 2 2 2
          2 2 2 2 2 2
          2 2 2 2 2 2
          2 0 0 0 0 0
          0 0 0 0 0.5 1.3333333333333333
          2 2 2 2 2 2
          2 2 0 0 0 0
          0 0 0 0 0 0
          0 0 0 0 0 0
          0 0 0 0 0 0
          1 1 1 2 2 2
          2 2 2 2 0 1
          1 2 2 2 2 2
          2 2 2 2 2 2
          2 2 2 2 2 2
          2 2
        </DataArray>
        <DataArray type="Float64" Name="markers_norefine" format="ascii" RangeMin="0" RangeMax="2">
          0 0 0 0 0 0
          0 0 0 0 0 0
          0 0 0 0 0 0
          0 0 0 0 0 0
          0 1 0 0 2 0
          0 0 0 0 0 0
          0 0 0 0 0 0
          0 0 0 0 0 0
          0 0 0 0 0 0
          0 0 0 0 0 0
          0 0 0 0 0 0
          2 0.5 2 0 0 0
          0 0 0 0 0 0
          0 0 0 0 0 0
          0 2 1.25 1 0.75 0
          0 2 2 2 0.5 0.5
          0 0 2 0.5 0 0
          0 0 0 0 0 0
          0 0 0 0 0 0
          0 0 0 0 0 0
          0 0 0 0 0 0
          0 0 0 0 0 0
          0 0 0 0 0 0
          0 0 0 0 0 0
          0 0 0 0 0 0
          0 1 1 1 0.5 0
          1.5 2 2 2 2 0
          0 0 0 0 0 0
          0 0 0 0 0 0
          0 0 0 0 0 0
          0 0 0 0 0 0
          0 0 0 0 0 0
          0 0 0 0 0 0
          0 0 0 0 0 0
          0 0 0 0 0 0
          0 0 0 0 0 0
          0 0 0 0 0 0
          0 0 0 0 0 0
          0 0 0 0 0 0
          0 0 0 0 0 0
          0 0 0 0 0 0
          0 0 0 0 0 0
          0 0 0 0 0 0
          0 0 0 0 0 0
          0 0 0 0 0 0
          0 0 0 0 0 0
          0 0 0 1 1 1
          0.75 0.75 0.25 2 2 1.75
          1.75 0.5 0.25 0 0 0
          0 1.5 1.25 1 1 0.25
          0 0 0 1 0.5 0.5
          0 0 0 0 0.5 0.25
          0 2 2 2 2 2
          2 2 2 2 2 2
          2 2 2 2 1.75 2
          2 2 2 1.75 1.25 1.5
          0.3333333333333333 2 1.5 2 1 0.75
          0 0 1 1 0 0
          0 0 0 0 0 1
          0.75 0.25 0.25 0 0 0
          0 0 0 0 2 1.75
          1.5 1 1 0.25 2 2
          1.5 1.5 0.25 0 0 0
          0.5 0 0 0 0 0
          0 0 0 0 0 0
          0 0 0 0 0 0
          0 0 0 0 0 0
          0 0 0 0 0 0
          0 0 0 0 0 0
          0 0 0 0 0 0
          0 0 0 0 0 0
          0 0 0 0 0 0
          0 0 0 0 0 0
          0 0 0 0 0 0
          0 0 0 0 0 0
          0 0 0 0 0 0
          0 0 0 0 0 0
          0 0 0 0 0 0
          0 0
        </DataArray>
        <DataArray type="Float64" Name="markers_mustrefine" format="ascii" RangeMin="0" RangeMax="2">
          0 0 0 2 0 0
          0 0 0 0 0.5 0.25
          1.25 0 0 0 0 0
          0 0 0 2 1 2
          2 2 2 2 2 2
          0 1 0.5 0 1.6666666666666667 0
          0 0.5 0.25 0 0 0
          0 0 0 2 1.5 1.5
          1 0 0 0 0 0
          0 0 0 0 0 1.5
          1 1 2 2 2 2
          2 2 2 2 2 2
          2 2 2 2 2 2
          2 2 2 2 2 2
          2 2 2 2 2 2
          2 2 2 2 2 2
          2 2 2 2 2 0
          0 0 0 0 0 0
          0 0 0 0 0 0
          0 0 0 1 1 1
          2 0 0 1 1 0
          1 1 0 1 1 2
          2 2 2 0 0 1
          0.75 0 1 0.5 0 0.5
          0 2 1.75 1.6666666666666667 1.6666666666666667 2
          2 2 2 2 2 2
          2 2 2 2 2 2
          2 2 2 2 2 2
          2 2 2 2 2 2
          2 2 2 2 2 2
          2 2 2 2 2 2
          2 2 2 2 2 2
          2 2 2 2 2 2
          2 2 2 2 2 2
          2 2 2 2 2 2
          2 2 2 2 2 2
          2 2 2 2 2 2
          2 2 2 2 2 2
          2 2 2 2 2 2
          2 2 2 2 2 2
          2 2 2 2 2 2
          2 2 2 2 2 2
          2 2 2 1 1.5 2
          1 1.5 1 1.5 2 2
          2 2 2 2 2 2
          1 1.5 1 1.5 2 2
          2 2 2 2 2 2
          2 2 2 2 2 2
          2 2 2 2 2 2
          2 2 2 2 2 2
          2 2 2 2 2 2
          2 2 2 2 2 2
          2 2 2 2 2 2
          2 2 2 2 2 2
          2 2 2 2 2 2
          2 2 2 2 2 2
          2 2 2 2 2 2
          2 2 2 2 2 2
          2 2 2 2 2 2
          2 2 2 2 2 2
          2 2 2 2 2 2
          2 2 2 2 2 2
          2 2 2 2 2 2
          2 2 2 2 2 2
          2 2 2 2 2 2
          2 2 2 2 2 2
          2 0 0 0 0 0
          0 0 0 0 0.5 1.3333333333333333
          2 2 2 2 2 2
          2 2 0 0 0 0
          0 0 0 0 0 0
          0 0 0 0 0 0
          0 0 0 0 0 0
          1 1 1 2 2 2
          2 2 2 2 0 1
          1 2 2 2 2 2
          2 2 2 2 2 2
          2 2 2 2 2 2
          2 2
        </DataArray>
        <DataArray type="Float64" Name="gradient_marker" format="ascii" RangeMin="0" RangeMax="1">
          1 0.75 0.875 0.25 1 1
          1 1 1 0.5 0.5 0.375
          0.125 1 1 1 1 1
          1 1 1 1 1 0.5
          0.5 0.5 1 1 1 1
          0 0 0 0 0 0.5
          0.5 0.5 0.5 1 1 1
          0.5 0.5 1 0.5 0.5 1
          0.5 1 1 1 1 1
          1 1 1 1 1 1
          1 1 0.5 0.5 0.25 0.5
          0 0.5 0 0.75 0.75 1
          1 0.625 1 0.75 0.75 1
          0.75 1 1 1 1 1
          1 0.5 0.5 1 1 0.75
          1 0.5 0.5 1 0.75 1
          1 1 1 1 1 0
          0.5 1 0.5 1 1 1
          1 1 1 1 1 1
          1 1 1 1 1 1
          1 1 1 1 1 1
          1 1 1 1 1 1
          1 1 1 1 1 1
          1 1 1 1 1 1
          1 1 1 1 1 0
          0 0 0 0 0 0
          0 0 0 0 0 1
          1 1 1 1 1 1
          1 1 1 1 1 1
          1 1 1 1 1 1
          1 1 1 1 1 1
          1 1 1 1 1 1
          0 0 0.6666666666666666 0 1 1
          1 1 1 1 1 1
          1 1 1 1 0 0.6666666666666666
          0 1 1 1 1 1
          1 1 1 1 1 1
          1 1 1 1 1 1
          1 1 1 1 1 1
          1 1 1 1 1 1
          1 1 1 1 1 1
          1 1 1 1 1 1
          1 1 1 1 1 1
          1 1 1 1 1 1
          1 1 1 1 1 1
          1 1 1 1 1 1
          1 1 1 0 0 0.5
          0.5 0 0.5 0 0 0.5
          0 1 1 1 1 1
          1 1 1 1 1 0
          0.5 0 0.6666666666666666 0 0.5 0
          1 1 1 1 1 1
          1 0 0 0.5 0.5 0
          0.5 0 0 0.5 0 1
          1 1 1 1 1 1
          1 1 1 0 0.5 0
          0.6666666666666666 0 0.5 0 1 1
          1 1 1 1 1 1
          1 1 1 1 1 1
          1 1 1 1 1 1
          1 1 1 1 1 1
          1 1 1 1 1 1
          1 1 1 1 1 1
          1 1 1 1 1 1
          1 1 1 1 1 1
          1 1 1 1 1 1
          1 1 0.5 1 1 1
          1 1 1 1 0.5 0
          0.5 0 0.625 0.25 0.875 0.75
          1 1 0.5 0 1 0.5
          0 1 1 1 1 1
          1 1 1 1 1 1
          1 1 1 1 1 1
          1 1 1 1 1 1
          1 1 1 1 1 1
          1 1 1 1 1 1
          1 1 1 1 1 1
          1 1 1 1 1 1
          1 1
        </DataArray>
        <DataArray type="Float64" Name="gradient_matprop_marker" format="ascii" RangeMin="0" RangeMax="0">
          0 0 0 0 0 0
          0 0 0 0 0 0
          0 0 0 0 0 0
          0 0 0 0 0 0
          0 0 0 0 0 0
          0 0 0 0 0 0
          0 0 0 0 0 0
          0 0 0 0 0 0
          0 0 0 0 0 0
          0 0 0 0 0 0
          0 0 0 0 0 0
          0 0 0 0 0 0
          0 0 0 0 0 0
          0 0 0 0 0 0
          0 0 0 0 0 0
          0 0 0 0 0 0
          0 0 0 0 0 0
          0 0 0 0 0 0
          0 0 0 0 0 0
          0 0 0 0 0 0
          0 0 0 0 0 0
          0 0 0 0 0 0
          0 0 0 0 0 0
          0 0 0 0 0 0
          0 0 0 0 0 0
          0 0 0 0 0 0
          0 0 0 0 0 0
          0 0 0 0 0 0
          0 0 0 0 0 0
          0 0 0 0 0 0
          0 0 0 0 0 0
          0 0 0 0 0 0
          0 0 0 0 0 0
          0 0 0 0 0 0
          0 0 0 0 0 0
          0 0 0 0 0 0
          0 0 0 0 0 0
          0 0 0 0 0 0
          0 0 0 0 0 0
          0 0 0 0 0 0
          0 0 0 0 0 0
          0 0 0 0 0 0
          0 0 0 0 0 0
          0 0 0 0 0 0
          0 0 0 0 0 0
          0 0 0 0 0 0
          0 0 0 0 0 0
          0 0 0 0 0 0
          0 0 0 0 0 0
          0 0 0 0 0 0
          0 0 0 0 0 0
          0 0 0 0 0 0
          0 0 0 0 0 0
          0 0 0 0 0 0
          0 0 0 0 0 0
          0 0 0 0 0 0
          0 0 0 0 0 0
          0 0 0 0 0 0
          0 0 0 0 0 0
          0 0 0 0 0 0
          0 0 0 0 0 0
          0 0 0 0 0 0
          0 0 0 0 0 0
          0 0 0 0 0 0
          0 0 0 0 0 0
          0 0 0 0 0 0
          0 0 0 0 0 0
          0 0 0 0 0 0
          0 0 0 0 0 0
          0 0 0 0 0 0
          0 0 0 0 0 0
          0 0 0 0 0 0
          0 0 0 0 0 0
          0 0 0 0 0 0
          0 0 0 0 0 0
          0 0 0 0 0 0
          0 0 0 0 0 0
          0 0 0 0 0 0
          0 0
        </DataArray>
        <DataArray type="Float64" Name="combo" format="ascii" RangeMin="0" RangeMax="2">
          1 0.75 0.875 0.25 1 1
          1 1 1 0.5 0.5 0.375
          0.125 1 1 1 1 1
          1 1 1 1 1 0.5
          0.5 1.5 1 1 2 1
          0 0 0 0 0 0.5
          0.5 0.5 0.5 1 1 1
          0.5 0.5 1 0.5 0.5 1
          0.5 1 1 1 1 1
          1 1 1 1 1 1
          1 1 0.5 0.5 0.25 0.5
          2 1 2 0.75 0.75 1
          1 0.625 1 0.75 0.75 1
          0.75 1 1 1 1 1
          1 2 1.5 1.5 1.375 0.75
          1 2 2 2 1.25 1.25
          1 1 2 1.25 1 0
          0.5 1 0.5 1 1 1
          1 1 1 1 1 1
          1 1 1 1 1 1
          1 1 1 1 1 1
          1 1 1 1 1 1
          1 1 1 1 1 1
          1 1 1 1 1 1
          1 1 1 1 1 0
          0 1 1 1 0.5 0
          1.5 2 2 2 2 1
          1 1 1 1 1 1
          1 1 1 1 1 1
          1 1 1 1 1 1
          1 1 1 1 1 1
          1 1 1 1 1 1
          0 0 0.6666666666666666 0 1 1
          1 1 1 1 1 1
          1 1 1 1 0 0.6666666666666666
          0 1 1 1 1 1
          1 1 1 1 1 1
          1 1 1 1 1 1
          1 1 1 1 1 1
          1 1 1 1 1 1
          1 1 1 1 1 1
          1 1 1 1 1 1
          1 1 1 1 1 1
          1 1 1 1 1 1
          1 1 1 1 1 1
          1 1 1 1 1 1
          1 1 1 1 1 1.25
          1.125 0.75 0.75 2 2 1.875
          1.75 1.25 1.125 1 1 1
          1 1.75 1.625 1.5 1.5 0.25
          0.5 0 0.6666666666666666 1 0.875 0.5
          1 1 1 1 1.25 1.125
          1 2 2 2 2 2
          2 2 2 2 2 2
          2 2 2 2 1.875 2
          2 2 2 1.75 1.5 1.5
          1 2 1.75 2 1.5 1.375
          1 1 1.5 1.5 1 1
          1 1 1 1 1 1.5
          1.375 1.125 1.125 1 1 1
          1 1 1 1 2 1.875
          1.75 1.5 1.5 1.125 2 2
          1.75 1.75 1.125 1 1 1
          1.25 1 1 1 1 1
          1 1 1 1 1 1
          1 1 1 1 1 1
          1 1 0.5 1 1 1
          1 1 1 1 0.5 0
          0.5 0 0.625 0.25 0.875 0.75