<?xml version="1.0"?>
<VTKFile type="UnstructuredGrid" version="0.1" byte_order="LittleEndian" header_type="UInt32" compressor="vtkZLibDataCompressor">
  <UnstructuredGrid>
    <Piece NumberOfPoints="485" NumberOfCells="270">
      <PointData>
        <DataArray type="Int32" Name="libmesh_node_id" format="ascii" RangeMin="494" RangeMax="4096">
          494 589 592 594 597 598
          599 935 936 938 941 944
          946 947 949 950 951 952
          954 956 957 959 960 961
          962 963 965 966 967 968
          969 970 971 972 973 974
          975 976 1186 1187 1191 1194
          1196 1197 1199 1201 1702 1703
          1704 1706 1708 1725 1738 1740
          1742 1753 1757 1765 1766 1767
          1771 1772 1773 1774 1775 1776
          1777 1778 1779 1780 1781 1782
          1783 1784 1785 1786 1787 1788
          1789 1790 1791 1793 1795 1796
          1797 1799 1800 1801 1803 1806
          1809 1811 1812 1813 1814 1815
          1816 1817 1818 1819 1820 1821
          1822 1823 1825 1828 1832 1845
          1846 1849 1851 1853 1854 1855
          1856 1857 1858 1859 1860 1861
          1862 1926 1949 1951 1952 1953
          1954 1955 1956 1957 1958 1959
          1960 1961 1962 1963 1964 1965
          1966 1967 1968 1969 1970 1971
          1972 3222 3305 3315 3317 3319
          3333 3334 3337 3339 3437 3439
          3473 3541 3543 3545 3555 3557
          3559 3569 3571 3573 3583 3585
          3587 3659 3660 3663 3666 3667
          3670 3703 3704 3705 3708 3718
          3719 3720 3721 3722 3723 3724
          3725 3726 3727 3728 3729 3730
          3731 3732 3733 3734 3735 3736
          3737 3738 3739 3740 3741 3742
          3743 3744 3745 3746 3747 3748
          3749 3750 3751 3752 3753 3754
          3755 3756 3757 3758 3778 3779
          3780 3781 3782 3784 3785 3786
          3787 3788 3789 3790 3791 3792
          3798 3807 3808 3812 3814 3815
          3816 3818 3819 3820 3821 3822
          3823 3824 3825 3826 3836 3846
          3847 3848 3849 3850 3851 3852
          3853 3854 3856 3858 3860 3865
          3866 3870 3875 3880 3881 3882
          3883 3884 3885 3886 3887 3888
          3890 3892 3894 3895 3896 3897
          3898 3899 3900 3901 3902 3903
          3904 3905 3906 3907 3908 3909
          3910 3911 3912 3913 3914 3915
          3916 3917 3918 3919 3920 3921
          3922 3923 3924 3925 3926 3927
          3928 3929 3930 3931 3932 3933
          3934 3935 3936 3937 3938 3939
          3940 3941 3942 3943 3944 3945
          3946 3947 3948 3949 3950 3951
          3952 3953 3954 3955 3956 3957
          3958 3959 3960 3961 3962 3965
          3966 3968 3970 3971 3972 3973
          3974 3975 3976 3977 3978 3979
          3980 3981 3982 3983 3984 3985
          3986 3987 3988 3990 3992 3994
          3995 3996 3997 3998 3999 4000
          4001 4002 4003 4004 4005 4006
          4007 4008 4009 4010 4011 4063
          4065 4066 4067 4068 4069 4071
          4072 4081 4082 4083 4085 4086
          4087 4088 4089 4090 4091 4092
          4093 4094 4095 4096 958 964
          1843 1847 1844 1848 1850 1852
          1696 1705 1950 1829 1709 1834
          3304 3306 3314 3316 3221 3225
          3318 3320 3331 3332 3335 3336
          3338 3340 3436 3438 3440 3441
          3442 3470 3471 3472 3474 3475
          3476 3540 3542 3544 3546 3554
          3556 3558 3560 3568 3570 3572
          3574 3582 3584 3586 3588 3783
          3768 3797 3813 3802 3817 4055
          3550 4064 4056 4059 4070 4061
          4080 4074 4076 4084 4078
        </DataArray>
        <DataArray type="Float64" Name="bounds" format="ascii" RangeMin="0" RangeMax="0">
          0 0 0 0 0 0
          0 0 0 0 0 0
          0 0 0 0 0 0
          0 0 0 0 0 0
          0 0 0 0 0 0
          0 0 0 0 0 0
          0 0 0 0 0 0
          0 0 0 0 0 0
          0 0 0 0 0 0
          0 0 0 0 0 0
          0 0 0 0 0 0
          0 0 0 0 0 0
          0 0 0 0 0 0
          0 0 0 0 0 0
          0 0 0 0 0 0
          0 0 0 0 0 0
          0 0 0 0 0 0
          0 0 0 0 0 0
          0 0 0 0 0 0
          0 0 0 0 0 0
          0 0 0 0 0 0
          0 0 0 0 0 0
          0 0 0 0 0 0
          0 0 0 0 0 0
          0 0 0 0 0 0
          0 0 0 0 0 0
          0 0 0 0 0 0
          0 0 0 0 0 0
          0 0 0 0 0 0
          0 0 0 0 0 0
          0 0 0 0 0 0
          0 0 0 0 0 0
          0 0 0 0 0 0
          0 0 0 0 0 0
          0 0 0 0 0 0
          0 0 0 0 0 0
          0 0 0 0 0 0
          0 0 0 0 0 0
          0 0 0 0 0 0
          0 0 0 0 0 0
          0 0 0 0 0 0
          0 0 0 0 0 0
          0 0 0 0 0 0
          0 0 0 0 0 0
          0 0 0 0 0 0
          0 0 0 0 0 0
          0 0 0 0 0 0
          0 0 0 0 0 0
          0 0 0 0 0 0
          0 0 0 0 0 0
          0 0 0 0 0 0
          0 0 0 0 0 0
          0 0 0 0 0 0
          0 0 0 0 0 0
          0 0 0 0 0 0
          0 0 0 0 0 0
          0 0 0 0 0 0
          0 0 0 0 0 0
          0 0 0 0 0 0
          0 0 0 0 0 0
          0 0 0 0 0 0
          0 0 0 0 0 0
          0 0 0 0 0 0
          0 0 0 0 0 0
          0 0 0 0 0 0
          0 0 0 0 0 0
          0 0 0 0 0 0
          0 0 0 0 0 0
          0 0 0 0 0 0
          0 0 0 0 0 0
          0 0 0 0 0 0
          0 0 0 0 0 0
          0 0 0 0 0 0
          0 0 0 0 0 0
          0 0 0 0 0 0
          0 0 0 0 0 0
          0 0 0 0 0 0
          0 0 0 0 0 0
          0 0 0 0 0 0
          0 0 0 0 0 0
          0 0 0 0 0
        </DataArray>
        <DataArray type="Float64" Name="gradient_error" format="ascii" RangeMin="1.4627278665339724e-12" RangeMax="1.7762353205305593e-9">
          7.782102088272114e-11 7.503806793781825e-11 1.3956777916021155e-11 3.0703963108232216e-10 5.7267513190422314e-11 5.6042213749751815e-12
          4.1201590561491883e-10 1.9924278594965073e-10 2.637814671537915e-10 4.682211949645147e-11 8.008664188341592e-10 2.96641335045214e-11
          2.692353544242736e-11 1.0397312137642046e-11 4.432716207656972e-12 3.0976199792214094e-11 2.1423269926873718e-11 9.379670917564571e-12
          1.0800640678154507e-10 2.1723968734179488e-11 2.827969590895867e-10 8.423836716183001e-11 9.193681401848856e-11 3.087105589428598e-10
          5.38375885158131e-10 1.5050981744722484e-10 1.1596316144863353e-10 6.706789932482874e-10 2.935341762724608e-11 3.047185444668524e-11
          1.6547649162177277e-11 1.5130867665246986e-11 3.313177685984859e-11 4.688298884696961e-11 1.8486454753801237e-11 3.1986903906259454e-11
          1.3751840543359054e-11 5.4665467610920423e-11 2.2744093883070136e-10 7.542820050692458e-11 3.0470543056907715e-11 1.268022887447711e-11
          3.274563382430735e-11 1.2213722753011124e-11 2.3705995371401804e-10 7.449286919109437e-11 5.957471859325239e-11 4.828480417544379e-11
          1.0180137908010417e-10 5.0308145567270054e-11 7.548965013264135e-11 5.685033706184947e-10 1.8162071361191059e-10 5.2335233764762596e-11
          2.500285262392342e-10 1.4242524746747068e-11 7.679510650252656e-11 1.1531250921833642e-11 8.824506420609947e-12 4.781286352930907e-12
          9.823663034102866e-12 4.7260877451104824e-11 3.491236890928256e-11 1.8953754328278638e-11 1.9327396043128223e-11 2.309422613272693e-11
          2.637574400655588e-11 2.0081393163690083e-11 3.3755919035003826e-11 1.7273695798746117e-11 3.356206243375057e-11 7.356147411540483e-12
          8.768408489705567e-12 3.00644530694491e-12 4.904363087773075e-12 5.759483679598946e-12 8.952469641373254e-12 3.45227530088532e-12
          8.747960357178748e-12 5.950185120761377e-12 9.464268253189617e-12 4.4597271546482614e-10 1.5440519862702495e-10 2.1910211275220176e-10
          7.569764525049601e-11 6.015113669018612e-10 2.1311483780680687e-10 3.1165578016183836e-10 4.775013332977643e-11 2.3554527276864577e-11
          6.682433412806249e-11 3.356752183691822e-11 6.990061941466696e-11 2.442197377970486e-11 3.407901769830334e-11 1.809597913139492e-11
          9.621625746023288e-11 3.34724370335772e-11 3.125593695968977e-11 8.933057039592146e-12 4.631256159781121e-12 8.135475826180392e-12
          5.964925820906835e-12 1.0586476585619799e-11 8.040212199248634e-12 1.0255257229584059e-10 8.817887518019326e-11 4.7673754777630824e-11
          3.9662929402296835e-11 4.6291165778504384e-11 3.447726688527823e-11 2.979551735091571e-11 3.130089904284758e-11 1.5107335054759023e-11
          1.8542649229725768e-11 1.4882071104063865e-11 1.9095080657739402e-11 9.01507026601427e-12 2.4681685769700238e-11 2.1165565139143083e-11
          2.1438407853882433e-11 2.6109128174247733e-11 5.414227473704773e-11 2.720270393255039e-11 3.915205598749503e-11 3.485025113087385e-11
          4.507906544919662e-11 2.282781892403539e-11 1.2298045139880193e-11 1.7024754497799785e-11 8.243671177227286e-12 1.0863104850443727e-11
          9.308961779733605e-12 1.1160675263132483e-11 8.615562424975412e-12 6.302516162940783e-12 7.422089172069173e-12 3.876686495263713e-12
          4.2222642114442944e-12 4.033232737168596e-12 4.2338149466384856e-12 2.882749019309106e-12 8.541662181197563e-12 4.567841927624877e-12
          4.4343971561083756e-12 1.0191639369313271e-10 4.040401683619068e-11 6.845845540762776e-11 4.2672801672219635e-11 1.2726878268668592e-10
          1.8242549965440548e-11 2.5006859506385003e-11 1.82051005976598e-11 4.221991335365976e-11 5.3881468651395e-10 3.618214629845702e-10
          7.384652370713617e-10 2.2026952658958808e-10 1.238113651545142e-10 3.364498214925417e-10 6.593119637071233e-11 3.846417058059045e-11
          9.242211661439145e-11 4.3537279436420035e-10 2.3071006630443648e-10 4.736709912792332e-10 1.1396394785835352e-10 5.3474900737052967e-11
          1.2227739756935866e-10 6.393098993579527e-11 3.9282560405191783e-11 1.2521054514644442e-10 2.3640363505680254e-11 1.3919692277709359e-11
          4.600850893513688e-11 5.379083825821497e-12 7.971402271445755e-12 5.0394093324794716e-12 1.541515190869044e-11 5.2410241955238674e-12
          2.9330399949246726e-11 4.2956702666272414e-11 1.802716572910904e-11 2.6292944995079233e-11 1.890478706789048e-11 2.670252967766899e-11
          1.8603536079873654e-11 8.018652551115719e-11 4.919275844869227e-11 4.75207247416534e-11 1.0828365367367766e-11 1.570447802027852e-11
          6.4689828324420565e-12 9.281215625953076e-12 8.714298858122151e-12 1.2116318578457398e-11 7.200510044514151e-12 2.935894496131378e-11
          1.719203560587311e-11 1.9832424281552775e-11 1.1596963587377512e-11 1.564362059646417e-11 9.314858664026046e-12 1.2071499195572024e-11
          8.930341322647758e-12 1.1584396004087589e-11 9.30816227285361e-12 2.6370247081834706e-11 1.8329399916195077e-11 1.8602066913613826e-11
          3.807953869620854e-12 5.364997014407469e-12 2.948161982348936e-12 3.978928830180135e-12 3.138230825671419e-12 4.224046737165851e-12
          3.275354076744584e-12 9.887409264353873e-12 6.421698241997921e-12 6.710588575428689e-12 2.662730607975377e-10 3.3892959470267814e-10
          2.0738875515734323e-10 2.273117437998811e-10 1.3910597236291443e-10 3.322452897033185e-10 3.5793930484804104e-10 1.2355000526419782e-10
          7.171755637392003e-11 8.298702540442269e-11 4.8300691495866015e-11 1.979912242454088e-10 1.1472976641803844e-10 1.3050432006290517e-10
          5.664660611247982e-10 3.4088013223423285e-10 1.9886885777752017e-10 3.6377499820417866e-10 4.31002194589967e-10 4.666933025036633e-10
          2.8636097200714994e-10 4.6501196126184663e-10 5.071447468741708e-10 2.578895374681634e-10 1.4983812384852115e-10 1.7077184829255502e-10
          9.906361273701133e-11 2.7898176724974567e-10 1.624387725748312e-10 1.860583481582452e-10 8.70468768636133e-11 2.550741539411786e-11
          4.060148108740202e-11 2.2404904961417177e-11 2.7466070940517174e-11 1.5195080050719526e-11 6.469788708723241e-11 3.553031125281777e-11
          4.2765362994076304e-11 1.2045509865590804e-11 8.167501309774177e-12 1.901754763314712e-11 1.2654858501252463e-11 1.1261395600944096e-10
          6.196467645242047e-11 1.211005931061764e-10 3.316027792870588e-11 3.5842906369752344e-11 8.462240769763229e-11 4.6494258018885924e-11
          5.594024873046661e-11 3.0770046436177224e-11 9.188964287089508e-11 5.0548757390758734e-11 6.101533025350408e-11 2.487413640972262e-11
          1.649337007090412e-11 2.7066920898855434e-11 1.798968381657944e-11 1.3848839972568622e-10 8.491404423042226e-11 7.795995388676402e-11
          4.77833536751198e-11 2.1138055089646983e-10 1.2935608179026128e-10 1.140807430702565e-10 5.072013012277086e-11 2.959950514896338e-11
          2.8512987572675138e-11 1.66899788230029e-11 7.7166354551657e-11 4.4908213270394006e-11 4.1818788718167063e-11 4.127914381627838e-11
          2.520159630260461e-11 2.805544629150837e-11 1.7180815791173765e-11 5.795328404069001e-11 3.549277183053437e-11 3.162434222732563e-11
          1.2062879775288133e-11 1.511009600264032e-11 7.234699472825712e-12 8.942445179729013e-12 8.828942940571875e-12 1.0426749230514469e-11
          6.253940205574796e-12 2.1182956998521915e-11 1.2393351570472506e-11 1.3843617621960894e-11 2.7391757763330815e-10 1.6769944054668275e-10
          1.4494780745543513e-10 8.876920139499021e-11 2.982608072860328e-10 1.8268801333735243e-10 1.5711285934802607e-10 9.997879018925599e-11
          5.808880401976081e-11 5.303325479841818e-11 3.0915629862822047e-11 1.089278322713014e-10 6.326956900437825e-11 5.7465440032919676e-11
          7.181503210718118e-11 4.4073235927008494e-11 3.346340387069432e-11 2.424265461564961e-11 7.72315672074205e-11 4.7484090787423833e-11
          3.6062899121058454e-11 2.620837118996503e-11 1.5260190916072295e-11 1.689790986491372e-11 9.775748860473166e-12 2.8208140612878725e-11
          1.6383869577831886e-11 1.8133140006362715e-11 1.6950277905277948e-11 9.393332539836001e-12 9.565451525559083e-12 6.216003701936552e-12
          2.5539427490421516e-11 1.413076051115221e-11 1.395174349823031e-11 3.787151404968707e-12 5.01813355762449e-12 2.867260374584196e-12
          3.6907953109854926e-12 7.5897495483349e-12 4.696276751228885e-12 4.067064253678798e-12 5.071502963483636e-12 2.997700536447742e-12
          3.674051857505512e-12 2.9774268093039817e-12 3.5624115997998454e-12 2.6466254636544245e-12 7.0956316160387625e-12 4.467092750631957e-12
          4.742880958641301e-12 3.2922726786758155e-11 1.819171583917552e-11 1.7607903415154924e-11 9.743396860590747e-12 3.5814376033715503e-11
          1.9780876211727402e-11 1.9032271346154504e-11 9.81017854500564e-12 5.276006632918597e-12 1.0689973703621754e-11 5.764763262687263e-12
          8.738702740976577e-12 4.9044241519372976e-12 5.653646378048519e-12 3.3078472772937104e-12 9.3620839231641e-12 5.283410767208299e-12
          5.968927229110145e-12 2.520727198282955e-12 2.7067265669638743e-12 1.9112109761590837e-12 1.9679436789430794e-12 1.893176218724632e-12
          1.9153426432197586e-12 1.4627278665339724e-12 2.892725935644794e-12 2.024676381727075e-12 1.9375090677148856e-12 2.1364919664150788e-11
          1.7202598276823036e-11 1.9854445079754036e-11 1.60679576680273e-11 1.7881134408798345e-11 1.4761350282555963e-11 2.286255732387098e-11
          2.1596110707337136e-11 2.4608492945297973e-11 2.4345064813353567e-11 1.6144568678665606e-11 2.6176295846132e-11 2.5192219361602248e-11
          1.463975530275181e-11 1.5514530939509792e-11 1.167413105691064e-11 1.2060940691815738e-11 1.1117558172411057e-11 1.0929949786026583e-11
          9.019465129665711e-12 1.638930657626778e-11 1.2447750326720835e-11 1.074234139964211e-11 3.446717085038376e-10 4.633427611536643e-10
          8.633983159154596e-11 7.365923137973213e-11 6.91416069688967e-11 1.060828833064305e-10 7.941809770756367e-11 1.2015518362091617e-10
          2.3189534332984096e-10 1.1411959551664236e-10 8.4338518996359e-11 1.6769743722859076e-10 8.862422959817588e-11 1.7785334440592118e-10
          5.408267934881729e-11 4.049550429886503e-11 1.0631884109720149e-10 6.629485918981717e-11 1.5813570989696137e-10 3.09293836274373e-10
          1.975807469660971e-10 1.1726572853482072e-10 2.8124087867157514e-11 3.874840173701241e-11 2.118452435353789e-11 2.805746817674342e-11
          6.555162816554902e-11 3.9541563995054854e-11 8.32385774484968e-10 5.60541918346361e-10 1.3134956333603663e-9 8.568138612019863e-10
          8.769488206589143e-10 1.666124034008051e-9 1.0970734921600133e-9 1.1331470983718704e-9 1.7762353205305593e-9 1.1751032364495189e-9
          1.2257768977412875e-9 3.417995151188971e-10 1.9224574865394416e-10 5.212178624439417e-10 2.81940510746163e-10 1.0226638552090264e-10
          5.1250343915451616e-11 1.4329980594289514e-10 6.938054629073655e-11 6.728129011738145e-10 3.577955508525222e-10 7.31108442032753e-10
          3.8754095935610826e-10 1.7674821309092437e-10 8.349061227766722e-11 1.8969904461363297e-10 8.887367981215675e-11 5.41629120299143e-10
          7.246141481899338e-10 9.113224575589592e-10 6.986727302693031e-10 9.620116222313458e-10 7.513412663266281e-10 3.2853388490698047e-11
          7.805875299779958e-11 2.521918256127914e-11 3.8811658875014826e-11 2.670328611989492e-11 3.268810104334014e-11 5.0143330041281034e-11
          3.847013321047908e-11 5.872811841464658e-11 3.697715884002279e-11 4.063750979268536e-11 6.19395060060627e-11
        </DataArray>
        <DataArray type="Float64" Name="gradient_matprop_error" format="ascii" RangeMin="0" RangeMax="0">
          0 0 0 0 0 0
          0 0 0 0 0 0
          0 0 0 0 0 0
          0 0 0 0 0 0
          0 0 0 0 0 0
          0 0 0 0 0 0
          0 0 0 0 0 0
          0 0 0 0 0 0
          0 0 0 0 0 0
          0 0 0 0 0 0
          0 0 0 0 0 0
          0 0 0 0 0 0
          0 0 0 0 0 0
          0 0 0 0 0 0
          0 0 0 0 0 0
          0 0 0 0 0 0
          0 0 0 0 0 0
          0 0 0 0 0 0
          0 0 0 0 0 0
          0 0 0 0 0 0
          0 0 0 0 0 0
          0 0 0 0 0 0
          0 0 0 0 0 0
          0 0 0 0 0 0
          0 0 0 0 0 0
          0 0 0 0 0 0
          0 0 0 0 0 0
          0 0 0 0 0 0
          0 0 0 0 0 0
          0 0 0 0 0 0
          0 0 0 0 0 0
          0 0 0 0 0 0
          0 0 0 0 0 0
          0 0 0 0 0 0
          0 0 0 0 0 0
          0 0 0 0 0 0
          0 0 0 0 0 0
          0 0 0 0 0 0
          0 0 0 0 0 0
          0 0 0 0 0 0
          0 0 0 0 0 0
          0 0 0 0 0 0
          0 0 0 0 0 0
          0 0 0 0 0 0
          0 0 0 0 0 0
          0 0 0 0 0 0
          0 0 0 0 0 0
          0 0 0 0 0 0
          0 0 0 0 0 0
          0 0 0 0 0 0
          0 0 0 0 0 0
          0 0 0 0 0 0
          0 0 0 0 0 0
          0 0 0 0 0 0
          0 0 0 0 0 0
          0 0 0 0 0 0
          0 0 0 0 0 0
          0 0 0 0 0 0
          0 0 0 0 0 0
          0 0 0 0 0 0
          0 0 0 0 0 0
          0 0 0 0 0 0
          0 0 0 0 0 0
          0 0 0 0 0 0
          0 0 0 0 0 0
          0 0 0 0 0 0
          0 0 0 0 0 0
          0 0 0 0 0 0
          0 0 0 0 0 0
          0 0 0 0 0 0
          0 0 0 0 0 0
          0 0 0 0 0 0
          0 0 0 0 0 0
          0 0 0 0 0 0
          0 0 0 0 0 0
          0 0 0 0 0 0
          0 0 0 0 0 0
          0 0 0 0 0 0
          0 0 0 0 0 0
          0 0 0 0 0 0
          0 0 0 0 0
        </DataArray>
        <DataArray type="Float64" Name="initial_marker" format="ascii" RangeMin="0" RangeMax="2">
          0 0 0 0 2 0
          0 2 0 0.5 2 0
          2 0 1 0 0 0
          2 1 0 0 0 0
          0 0 0 0 0 0
          0 0 0 0 0 0
          0 0 0 0 0 0
          0 0 0 0 0 0.5
          0 0 2 2 2 1.75
          2 0.75 2 0 0 0
          1.75 0 0.25 0 0 0
          0 0 1.75 1.5 0.25 0
          0 0 0 0 0 0
          0.5 0 0 2 2 2
          2 2 2 2 2 2
          2 2 2 2 1 0.25
          2 2 1 1.75 0.75 0
          0 2 0 0 0 0
          0 0 0 0 0 0
          0 0 0 0 0 0
          0 0 0 0 0 0
          0 0 0 0 0 0
          0 0 0 0 0 0
          0 0 0 0 0 0
          0 2 1.6666666666666667 2 1.5 2
          0 0.5 0 1.5 2 2
          2 2 2 2 2 1.6666666666666667
          2 2 2 2 2 2
          2 2 2 2 2 1.75
          2 0.5 1.25 1 2 2
          2 2 1.5 1.75 1 1.5
          1.3333333333333333 2 2 2 1 1.5
          0.5 1.25 0 1 1 2
          2 2 0 0.5 0 0.5
          0 0 0 1.5 1.3333333333333333 1
          0 0.75 0 0.5 0 0.5
          0 1.75 1.6666666666666667 1.3333333333333333 2 2
          2 2 2 2 2 2
          2 2 2 2 2 2
          2 2 2 2 2 2
          2 2 2 2 2 2
          2 2 2 2 2 2
          2 2 2 2 2 2
          2 2 2 2 2 2
          2 2 2 2 2 2
          2 2 2 2 2 2
          2 2 2 2 2 2
          2 2 2 2 2 2
          2 2 2 2 2 2
          1.75 2 1.5 2 2 1.6666666666666667
          1 1.25 1 1 0 0.5
          0 1.75 1.25 1.5 2 2
          2 2 2 2 2 2
          2 2 2 2 2 2
          2 2 1.5 1.3333333333333333 2 2
          1.5 2 1.75 2 1.5 2
          2 2 2 2 1.75 1.6666666666666667
          2 2 2 1.5 1.75 1
          1.5 2 1.6666666666666667 0.5 0.75 0
          0.5 0 0 0 1 1
          0 2 2 2 2 2
          2 2 2 1.5 2 1.5
          1.25 1 0.5 0 1.5 1
          1 0.5 0.5 0 0 0
          0 0 0.5 0 0 0
          0 0.5 0 0 0 1
          0 1 0 0 1 0
          0.5 0.5 0 0 0 0
          0 0.5 0 0 0 0
          0 0 0 0 0 0
          0 0 0 0 1.25 0
          1.5 1 2 1.75 2 2
          2 2 0.5 1 0 0.5
          1.75 1 2 2 2 2
          2 2 2 2 2 2
          2 2 2 2 2 2
          1.5 2 2 2 2 2
          2 2 2 2 2 2
          2 2 2 2 2 0.5
          1.75 0.5 0.75 0 1 1
          1 1 0 1 1
        </DataArray>
        <DataArray type="Float64" Name="markers_norefine" format="ascii" RangeMin="0" RangeMax="0">
          0 0 0 0 0 0
          0 0 0 0 0 0
          0 0 0 0 0 0
          0 0 0 0 0 0
          0 0 0 0 0 0
          0 0 0 0 0 0
          0 0 0 0 0 0
          0 0 0 0 0 0
          0 0 0 0 0 0
          0 0 0 0 0 0
          0 0 0 0 0 0
          0 0 0 0 0 0
          0 0 0 0 0 0
          0 0 0 0 0 0
          0 0 0 0 0 0
          0 0 0 0 0 0
          0 0 0 0 0 0
          0 0 0 0 0 0
          0 0 0 0 0 0
          0 0 0 0 0 0
          0 0 0 0 0 0
          0 0 0 0 0 0
          0 0 0 0 0 0
          0 0 0 0 0 0
          0 0 0 0 0 0
          0 0 0 0 0 0
          0 0 0 0 0 0
          0 0 0 0 0 0
          0 0 0 0 0 0
          0 0 0 0 0 0
          0 0 0 0 0 0
          0 0 0 0 0 0
          0 0 0 0 0 0
          0 0 0 0 0 0
          0 0 0 0 0 0
          0 0 0 0 0 0
          0 0 0 0 0 0
          0 0 0 0 0 0
          0 0 0 0 0 0
          0 0 0 0 0 0
          0 0 0 0 0 0
          0 0 0 0 0 0
          0 0 0 0 0 0
          0 0 0 0 0 0
          0 0 0 0 0 0
          0 0 0 0 0 0
          0 0 0 0 0 0
          0 0 0 0 0 0
          0 0 0 0 0 0
          0 0 0 0 0 0
          0 0 0 0 0 0
          0 0 0 0 0 0
          0 0 0 0 0 0
          0 0 0 0 0 0
          0 0 0 0 0 0
          0 0 0 0 0 0
          0 0 0 0 0 0
          0 0 0 0 0 0
          0 0 0 0 0 0
          0 0 0 0 0 0
          0 0 0 0 0 0
          0 0 0 0 0 0
          0 0 0 0 0 0
          0 0 0 0 0 0
          0 0 0 0 0 0
          0 0 0 0 0 0
          0 0 0 0 0 0
          0 0 0 0 0 0
          0 0 0 0 0 0
          0 0 0 0 0 0
          0 0 0 0 0 0
          0 0 0 0 0 0
          0 0 0 0 0 0
          0 0 0 0 0 0
          0 0 0 0 0 0
          0 0 0 0 0 0
          0 0 0 0 0 0
          0 0 0 0 0 0
          0 0 0 0 0 0
          0 0 0 0 0 0
          0 0 0 0 0
        </DataArray>
        <DataArray type="Float64" Name="markers_mustrefine" format="ascii" RangeMin="0" RangeMax="2">
          0 0 0 0 2 0
          0 2 0 0.5 2 0
          2 0 1 0 0 0
          2 1 0 0 0 0
          0 0 0 0 0 0
          0 0 0 0 0 0
          0 0 0 0 0 0
          0 0 0 0 0 0.5
          0 0 2 2 2 1.75
          2 0.75 2 0 0 0
          1.75 0 0.25 0 0 0
          0 0 1.75 1.5 0.25 0
          0 0 0 0 0 0
          0.5 0 0 2 2 2
          2 2 2 2 2 2
          2 2 2 2 1 0.25
          2 2 1 1.75 0.75 0
          0 2 0 0 0 0
          0 0 0 0 0 0
          0 0 0 0 0 0
          0 0 0 0 0 0
          0 0 0 0 0 0
          0 0 0 0 0 0
          0 0 0 0 0 0
          0 2 1.6666666666666667 2 1.5 2
          0 0.5 0 1.5 2 2
          2 2 2 2 2 1.6666666666666667
          2 2 2 2 2 2
          2 2 2 2 2 1.75
          2 0.5 1.25 1 2 2
          2 2 1.5 1.75 1 1.5
          1.3333333333333333 2 2 2 1 1.5
          0.5 1.25 0 1 1 2
          2 2 0 0.5 0 0.5
          0 0 0 1.5 1.3333333333333333 1
          0 0.75 0 0.5 0 0.5
          0 1.75 1.6666666666666667 1.3333333333333333 2 2
          2 2 2 2 2 2
          2 2 2 2 2 2
          2 2 2 2 2 2
          2 2 2 2 2 2
          2 2 2 2 2 2
          2 2 2 2 2 2
          2 2 2 2 2 2
          2 2 2 2 2 2
          2 2 2 2 2 2
          2 2 2 2 2 2
          2 2 2 2 2 2
          2 2 2 2 2 2
          1.75 2 1.5 2 2 1.6666666666666667
          1 1.25 1 1 0 0.5
          0 1.75 1.25 1.5 2 2
          2 2 2 2 2 2
          2 2 2 2 2 2
          2 2 1.5 1.3333333333333333 2 2
          1.5 2 1.75 2 1.5 2
          2 2 2 2 1.75 1.6666666666666667
          2 2 2 1.5 1.75 1
          1.5 2 1.6666666666666667 0.5 0.75 0
          0.5 0 0 0 1 1
          0 2 2 2 2 2
          2 2 2 1.5 2 1.5
          1.25 1 0.5 0 1.5 1
          1 0.5 0.5 0 0 0
          0 0 0.5 0 0 0
          0 0.5 0 0 0 1
          0 1 0 0 1 0
          0.5 0.5 0 0 0 0
          0 0.5 0 0 0 0
          0 0 0 0 0 0
          0 0 0 0 1.25 0
          1.5 1 2 1.75 2 2
          2 2 0.5 1 0 0.5
          1.75 1 2 2 2 2
          2 2 2 2 2 2
          2 2 2 2 2 2
          1.5 2 2 2 2 2
          2 2 2 2 2 2
          2 2 2 2 2 0.5
          1.75 0.5 0.75 0 1 1
          1 1 0 1 1
        </DataArray>
        <DataArray type="Float64" Name="gradient_marker" format="ascii" RangeMin="1" RangeMax="1">
          1 1 1 1 1 1
          1 1 1 1 1 1
          1 1 1 1 1 1
          1 1 1 1 1 1
          1 1 1 1 1 1
          1 1 1 1 1 1
          1 1 1 1 1 1
          1 1 1 1 1 1
          1 1 1 1 1 1
          1 1 1 1 1 1
          1 1 1 1 1 1
          1 1 1 1 1 1
          1 1 1 1 1 1
          1 1 1 1 1 1
          1 1 1 1 1 1
          1 1 1 1 1 1
          1 1 1 1 1 1
          1 1 1 1 1 1
          1 1 1 1 1 1
          1 1 1 1 1 1
          1 1 1 1 1 1
          1 1 1 1 1 1
          1 1 1 1 1 1
          1 1 1 1 1 1
          1 1 1 1 1 1
          1 1 1 1 1 1
          1 1 1 1 1 1
          1 1 1 1 1 1
          1 1 1 1 1 1
          1 1 1 1 1 1
          1 1 1 1 1 1
          1 1 1 1 1 1
          1 1 1 1 1 1
          1 1 1 1 1 1
          1 1 1 1 1 1
          1 1 1 1 1 1
          1 1 1 1 1 1
          1 1 1 1 1 1
          1 1 1 1 1 1
          1 1 1 1 1 1
          1 1 1 1 1 1
          1 1 1 1 1 1
          1 1 1 1 1 1
          1 1 1 1 1 1
          1 1 1 1 1 1
          1 1 1 1 1 1
          1 1 1 1 1 1
          1 1 1 1 1 1
          1 1 1 1 1 1
          1 1 1 1 1 1
          1 1 1 1 1 1
          1 1 1 1 1 1
          1 1 1 1 1 1
          1 1 1 1 1 1
          1 1 1 1 1 1
          1 1 1 1 1 1
          1 1 1 1 1 1
          1 1 1 1 1 1
          1 1 1 1 1 1
          1 1 1 1 1 1
          1 1 1 1 1 1
          1 1 1 1 1 1
          1 1 1 1 1 1
          1 1 1 1 1 1
          1 1 1 1 1 1
          1 1 1 1 1 1
          1 1 1 1 1 1
          1 1 1 1 1 1
          1 1 1 1 1 1
          1 1 1 1 1 1
          1 1 1 1 1 1
          1 1 1 1 1 1
          1 1 1 1 1 1
          1 1 1 1 1 1
          1 1 1 1 1 1
          1 1 1 1 1 1
          1 1 1 1 1 1
          1 1 1 1 1 1
          1 1 1 1 1 1
          1 1 1 1 1 1
          1 1 1 1 1
        </DataArray>
        <DataArray type="Float64" Name="gradient_matprop_marker" format="ascii" RangeMin="0" RangeMax="0">
          0 0 0 0 0 0
          0 0 0 0 0 0
          0 0 0 0 0 0
          0 0 0 0 0 0
          0 0 0 0 0 0
          0 0 0 0 0 0
          0 0 0 0 0 0
          0 0 0 0 0 0
          0 0 0 0 0 0
          0 0 0 0 0 0
          0 0 0 0 0 0
          0 0 0 0 0 0
          0 0 0 0 0 0
          0 0 0 0 0 0
          0 0 0 0 0 0
          0 0 0 0 0 0
          0 0 0 0 0 0
          0 0 0 0 0 0
          0 0 0 0 0 0
          0 0 0 0 0 0
          0 0 0 0 0 0
          0 0 0 0 0 0
          0 0 0 0 0 0
          0 0 0 0 0 0
          0 0 0 0 0 0
          0 0 0 0 0 0
          0 0 0 0 0 0
          0 0 0 0 0 0
          0 0 0 0 0 0
          0 0 0 0 0 0
          0 0 0 0 0 0
          0 0 0 0 0 0
          0 0 0 0 0 0
          0 0 0 0 0 0
          0 0 0 0 0 0
          0 0 0 0 0 0
          0 0 0 0 0 0
          0 0 0 0 0 0
          0 0 0 0 0 0
          0 0 0 0 0 0
          0 0 0 0 0 0
          0 0 0 0 0 0
          0 0 0 0 0 0
          0 0 0 0 0 0
          0 0 0 0 0 0
          0 0 0 0 0 0
          0 0 0 0 0 0
          0 0 0 0 0 0
          0 0 0 0 0 0
          0 0 0 0 0 0
          0 0 0 0 0 0
          0 0 0 0 0 0
          0 0 0 0 0 0
          0 0 0 0 0 0
          0 0 0 0 0 0
          0 0 0 0 0 0
          0 0 0 0 0 0
          0 0 0 0 0 0
          0 0 0 0 0 0
          0 0 0 0 0 0
          0 0 0 0 0 0
          0 0 0 0 0 0
          0 0 0 0 0 0
          0 0 0 0 0 0
          0 0 0 0 0 0
          0 0 0 0 0 0
          0 0 0 0 0 0
          0 0 0 0 0 0
          0 0 0 0 0 0
          0 0 0 0 0 0
          0 0 0 0 0 0
          0 0 0 0 0 0
          0 0 0 0 0 0
          0 0 0 0 0 0
          0 0 0 0 0 0
          0 0 0 0 0 0
          0 0 0 0 0 0
          0 0 0 0 0 0
          0 0 0 0 0 0
          0 0 0 0 0 0
          0 0 0 0 0
        </DataArray>
        <DataArray type="Float64" Name="combo" format="ascii" RangeMin="1" RangeMax="1">
          1 1 1 1 1 1
          1 1 1 1 1 1
          1 1 1 1 1 1
          1 1 1 1 1 1
          1 1 1 1 1 1
          1 1 1 1 1 1
          1 1 1 1 1 1
          1 1 1 1 1 1
          1 1 1 1 1 1
          1 1 1 1 1 1
          1 1 1 1 1 1
          1 1 1 1 1 1
          1 1 1 1 1 1
          1 1 1 1 1 1
          1 1 1 1 1 1
          1 1 1 1 1 1
          1 1 1 1 1 1
          1 1 1 1 1 1
          1 1 1 1 1 1
          1 1 1 1 1 1
          1 1 1 1 1 1
          1 1 1 1 1 1
          1 1 1 1 1 1
          1 1 1 1 1 1