<?xml version="1.0"?>
<VTKFile type="UnstructuredGrid" version="0.1" byte_order="LittleEndian" header_type="UInt32" compressor="vtkZLibDataCompressor">
  <UnstructuredGrid>
    <Piece NumberOfPoints="474" NumberOfCells="269">
      <PointData>
        <DataArray type="Int32" Name="libmesh_node_id" format="ascii" RangeMin="481" RangeMax="4052">
          481 575 578 580 581 583
          584 585 870 883 884 888
          894 903 904 908 911 912
          915 917 919 920 921 922
          923 924 925 926 927 928
          1169 1172 1174 1505 1506 1509
          1511 1541 1543 1545 1567 1568
          1569 1570 1571 1572 1573 1574
          1575 1576 1577 1578 1579 1580
          1581 1582 1583 1584 1586 1607
          1608 1609 1610 1611 1612 1613
          1616 1617 1620 1621 1622 1623
          1624 1625 1626 1627 1628 1629
          1630 1631 1632 1633 1634 1635
          1636 1637 1638 1639 1640 1641
          1642 1643 1644 1645 1646 1647
          1648 1649 1650 1651 1652 1653
          1654 1655 1656 1657 1658 1659
          1660 1661 1690 1691 1694 1695
          1826 1827 1830 1831 1833 1835
          1836 1838 1840 1842 1933 1934
          1936 1938 1940 1941 1943 1945
          1947 1948 2001 2005 2634 2640
          2641 2642 2645 2646 2647 2648
          2649 2650 2651 2652 2653 2654
          2655 2656 2657 2658 2659 2661
          2665 2666 2669 2670 2671 2672
          2673 2674 2675 2676 2677 2678
          2679 2684 2685 2686 2689 2694
          2695 2696 2699 2700 2701 2702
          2703 2704 2705 2706 2707 2708
          2709 2710 2711 2712 2713 2714
          2715 2716 2717 2718 2719 2722
          2723 2726 2734 2735 2736 2737
          2738 2739 2740 2741 2742 2743
          2744 2745 2746 2747 2885 2889
          2890 2893 2894 2895 2896 2897
          2898 2899 2900 2901 2902 2903
          2905 2909 2910 2913 2914 2915
          2916 2917 2918 2919 2920 2921
          2922 2923 2926 2930 2938 2939
          2940 2941 2942 2943 2944 2945
          2946 2947 2948 2949 2950 2951
          2954 2958 2966 2967 2968 2969
          2970 2971 2972 2973 2974 2975
          2976 2977 2978 2979 2980 2981
          2982 2983 2984 2985 2986 2987
          2988 2989 2990 2991 2992 2993
          2994 2995 2996 2997 2998 2999
          3000 3001 3002 3003 3004 3005
          3006 3007 3008 3009 3010 3011
          3012 3013 3014 3015 3016 3017
          3018 3019 3020 3021 3022 3023
          3024 3025 3026 3027 3028 3029
          3030 3031 3032 3033 3034 3035
          3036 3037 3038 3039 3040 3041
          3042 3043 3044 3045 3046 3047
          3048 3049 3050 3051 3052 3053
          3054 3055 3056 3057 3058 3059
          3060 3061 3230 3231 3232 3235
          3246 3247 3248 3249 3250 3251
          3252 3253 3254 3255 3258 3270
          3272 3274 3276 3491 3493 3495
          3497 3519 3521 3523 3525 4012
          4013 4014 4015 4016 4017 4018
          4019 4020 4021 4022 4023 4024
          4025 4026 4027 4028 4029 4030
          4033 4034 4036 4038 4039 4040
          4041 4042 4043 4044 4045 4046
          4048 4050 4052 957 961 958
          962 964 966 1186 1199 936
          1692 1693 1696 1828 1829 1832
          1699 937 1834 1837 1839 1841
          2003 2006 3259 3271 3273 3275
          3245 3277 3265 3278 3281 3282
          3492 3494 3496 1732 3520 3522
          3524 1736 3286 3500 4031 3501
          4032 4035 3504 1733 4037 3528
          3529 4047 4049 3532 942 4051
        </DataArray>
        <DataArray type="Float64" Name="bounds" format="ascii" RangeMin="0" RangeMax="0">
          0 0 0 0 0 0
          0 0 0 0 0 0
          0 0 0 0 0 0
          0 0 0 0 0 0
          0 0 0 0 0 0
          0 0 0 0 0 0
          0 0 0 0 0 0
          0 0 0 0 0 0
          0 0 0 0 0 0
          0 0 0 0 0 0
          0 0 0 0 0 0
          0 0 0 0 0 0
          0 0 0 0 0 0
          0 0 0 0 0 0
          0 0 0 0 0 0
          0 0 0 0 0 0
          0 0 0 0 0 0
          0 0 0 0 0 0
          0 0 0 0 0 0
          0 0 0 0 0 0
          0 0 0 0 0 0
          0 0 0 0 0 0
          0 0 0 0 0 0
          0 0 0 0 0 0
          0 0 0 0 0 0
          0 0 0 0 0 0
          0 0 0 0 0 0
          0 0 0 0 0 0
          0 0 0 0 0 0
          0 0 0 0 0 0
          0 0 0 0 0 0
          0 0 0 0 0 0
          0 0 0 0 0 0
          0 0 0 0 0 0
          0 0 0 0 0 0
          0 0 0 0 0 0
          0 0 0 0 0 0
          0 0 0 0 0 0
          0 0 0 0 0 0
          0 0 0 0 0 0
          0 0 0 0 0 0
          0 0 0 0 0 0
          0 0 0 0 0 0
          0 0 0 0 0 0
          0 0 0 0 0 0
          0 0 0 0 0 0
          0 0 0 0 0 0
          0 0 0 0 0 0
          0 0 0 0 0 0
          0 0 0 0 0 0
          0 0 0 0 0 0
          0 0 0 0 0 0
          0 0 0 0 0 0
          0 0 0 0 0 0
          0 0 0 0 0 0
          0 0 0 0 0 0
          0 0 0 0 0 0
          0 0 0 0 0 0
          0 0 0 0 0 0
          0 0 0 0 0 0
          0 0 0 0 0 0
          0 0 0 0 0 0
          0 0 0 0 0 0
          0 0 0 0 0 0
          0 0 0 0 0 0
          0 0 0 0 0 0
          0 0 0 0 0 0
          0 0 0 0 0 0
          0 0 0 0 0 0
          0 0 0 0 0 0
          0 0 0 0 0 0
          0 0 0 0 0 0
          0 0 0 0 0 0
          0 0 0 0 0 0
          0 0 0 0 0 0
          0 0 0 0 0 0
          0 0 0 0 0 0
          0 0 0 0 0 0
          0 0 0 0 0 0
        </DataArray>
        <DataArray type="Float64" Name="gradient_error" format="ascii" RangeMin="5.709151360342049e-11" RangeMax="8.954229939963207e-8">
          2.407688278630489e-9 2.7715106896819864e-8 6.887254616355087e-10 1.5077478888076468e-8 1.4311963005221344e-9 6.271902083654434e-8
          1.026549314936365e-9 8.650739684072496e-9 1.0888371624233132e-8 2.561990964289501e-9 8.24829191777062e-10 2.148177715736043e-9
          4.214722127838513e-8 1.2748135419532368e-9 4.3636268018452903e-10 2.614763636078436e-9 1.5483429684106065e-8 2.9774464943016863e-8
          8.81678240105177e-9 3.9011188152707115e-8 2.9483599576822968e-9 3.303412024981309e-9 9.884431120780189e-10 1.2122330266944594e-9
          3.0841312306748417e-9 4.396911434197157e-9 1.837482107530383e-9 4.234990624634232e-9 1.6275047476870015e-9 4.985114915855488e-9
          3.962241070215188e-9 2.625613882221307e-9 8.247715710145399e-10 1.0875570031979285e-8 2.3530118246817808e-8 1.3183740164660964e-8
          4.917485743356384e-8 7.750688014682103e-8 3.647413094828207e-8 8.954229939963207e-8 5.095328751565269e-9 1.149052179302968e-8
          1.358675972126454e-9 1.3172254557505652e-9 3.777819610536734e-9 6.070955270841929e-9 9.861494756744835e-10 2.4832672015289384e-8
          3.3158087931901504e-9 1.0767910334117147e-8 7.570375928435544e-10 7.817104440227283e-10 4.0892590406501507e-10 4.4856650783206027e-10
          6.760154496405034e-10 5.219444582439609e-10 2.8349108268399364e-10 2.1770138681462835e-9 7.578942915323493e-10 4.028084982710103e-8
          6.234656696169967e-9 1.6061182392269434e-8 2.1674897126687e-9 4.725019492098385e-8 7.763183430198793e-9 1.8407200209492002e-8
          1.3698794732520132e-9 8.191424734861017e-10 1.6913087665398095e-9 3.855915276129457e-9 5.373034961235574e-9 3.90365557145558e-9
          8.542578318103286e-9 1.1849278355106127e-8 9.330185782498888e-9 1.3503554720347374e-8 2.9267466192373592e-9 3.547863495006004e-9
          1.4776271946526177e-9 1.2447170225574375e-9 1.946624720450705e-9 2.8405305760212315e-9 1.3066362309498245e-9 5.253895595451137e-9
          1.3696339101057085e-9 4.765832603845085e-9 7.465787462181032e-10 6.241027369478691e-10 3.980625642636085e-10 3.300582816714156e-10
          4.635893397126114e-10 6.454218439270554e-10 3.3903623768662093e-10 6.982378758179697e-10 3.7311351582708757e-10 1.1044776105803677e-9
          7.3304560855518264e-9 1.96633728955871e-9 6.749826898934465e-9 3.1066384436078587e-9 8.34573265548548e-9 2.2266370883636487e-9
          7.702425021770518e-9 1.026860053119012e-9 5.582130490272084e-10 1.5776191831777506e-9 8.514599618373371e-10 1.1700126129446153e-9
          6.395179852259279e-10 1.773537493336265e-9 2.6399856040444093e-10 2.8504311237655724e-10 2.5425612205143635e-10 2.4823467334450504e-10
          1.9775882346556904e-10 2.2021881839730864e-10 1.239112550791716e-10 1.706225690203361e-10 2.4738862103906253e-10 3.026733146544713e-10
          2.9481320074922977e-10 4.480380226525027e-10 3.393673104587911e-10 5.080632989575634e-10 3.365292600354327e-9 2.4903083900212977e-9
          2.645084930211289e-9 1.4921857533953207e-9 1.969496725340192e-9 1.1069729481945287e-9 8.248051537646531e-10 4.4536676596915737e-10
          6.062366351081769e-10 3.299651340717993e-10 2.2809184603809767e-10 1.6324457641101015e-10 1.2021947549207432e-9 8.152915979283379e-10
          1.0420546761260527e-9 7.679027510672576e-10 1.7424268685257132e-9 7.176633756644434e-10 8.637885572060829e-10 7.305103637410955e-10
          1.3922226535427924e-9 5.910514869309627e-10 7.40215381058194e-10 3.9321682730191004e-10 5.291414832947074e-10 5.019734235440007e-10
          6.163019602650151e-10 4.2475322514663844e-10 1.2023328614402094e-9 8.849843404560658e-10 8.939725059330804e-10 3.066436941894372e-9
          2.729581365637762e-9 2.14675133647007e-9 4.06627676741137e-9 2.1275469007112893e-9 1.3904013507124903e-9 3.0091888455401855e-9
          1.8583135629851353e-9 1.4086831431465364e-9 1.1954615493103746e-9 8.752146309318369e-10 2.6811910539698803e-9 2.109207981538735e-9
          1.6889169458478082e-9 4.0601560916403467e-10 5.7446479800195e-10 4.3350270093297147e-10 1.0147260910899836e-9 2.2517694216628145e-10
          3.253340958497649e-10 2.4160908079923276e-10 5.966883923119492e-10 2.787504339080221e-10 3.847773998971753e-10 2.036333639092636e-10
          2.8533442667029707e-10 2.2604964757402214e-10 3.0128150535619333e-10 2.2059343160379468e-10 6.667348986700843e-10 5.057505200835424e-10
          4.704806909118433e-10 1.5360894171863906e-10 2.140077713958863e-10 1.1622572254091653e-10 1.5967209076966249e-10 1.2545488936742183e-10
          1.6621551544305714e-10 1.2541487101466871e-10 3.8143220597030906e-10 2.844103856612429e-10 2.625627549218322e-10 1.703457167223023e-9
          1.3428681762616448e-9 2.69927562106387e-9 1.091037873512708e-9 8.443031075782411e-10 6.608514859755873e-10 5.020603032594524e-10
          1.6715994918118534e-9 1.3182155033730474e-9 9.827667914330491e-10 6.46651979917893e-10 4.882046667021625e-10 3.782083485232926e-10
          2.816862558099879e-10 1.0258100308203896e-9 7.844275265463533e-10 5.793942370782205e-10 6.318776651241472e-9 5.750452982362493e-9
          4.760195624535312e-9 7.312737731629152e-9 4.0793952198847295e-9 2.5739646659519125e-9 4.970450641163912e-9 3.666137986843559e-9
          2.946226673764644e-9 2.2549166767434664e-9 1.7283984968818317e-9 4.555237714609624e-9 3.782960501327402e-9 2.768686587168865e-9
          9.258111585889637e-9 8.575045532012434e-9 7.350533540823171e-9 9.136094779216674e-9 5.639011105861936e-9 3.543530322327514e-9
          5.958095911169852e-9 5.223641459689489e-9 4.415815258161864e-9 3.1501699064879263e-9 2.4935656345651596e-9 5.508042034182368e-9
          4.652210642789188e-9 3.3102456886435837e-9 3.970516478967368e-9 5.301106639116436e-9 2.385939990045406e-9 1.9152352916134377e-9
          1.3580397264407029e-9 1.062811392019141e-9 3.1182051669665987e-9 2.5391241904784215e-9 1.7301574291277414e-9 1.5123655337607398e-9
          1.1703123518515487e-9 8.218236514708771e-10 6.249521892199646e-10 2.0295301430019343e-9 1.5866184599531622e-9 1.0691209443013187e-9
          6.309662326576089e-9 6.679969229832245e-9 3.677986067852436e-9 3.0221297492213523e-9 2.0101558939253187e-9 1.6035218088808669e-9
          3.8876531138103545e-9 3.2041913583873698e-9 2.1147814167630534e-9 2.434803483707549e-9 1.9167549920410633e-9 1.259055991390532e-9
          9.695046036978942e-10 2.58850383626023e-9 2.0427497358664406e-9 1.3307895583869236e-9 7.115813987593791e-10 8.510891279755663e-10
          7.06933338095114e-10 1.1422249353126693e-9 6.063780396777094e-10 7.298420428645317e-10 4.254133452497094e-10 5.232938146300233e-10
          4.948681749891182e-10 5.833291869897858e-10 3.9092585228738516e-10 9.943034395088375e-10 7.37473793984917e-10 7.811563039722322e-10
          3.082279423890701e-10 3.845635170161428e-10 2.2909018079410146e-10 2.8730878061307386e-10 2.382289781874384e-10 2.832661196432757e-10
          2.0995715340183617e-10 5.526932522011556e-10 4.1772812812316577e-10 3.9044360937936453e-10 1.6658983202164103e-10 2.120133732180044e-10
          1.2197337382019202e-10 1.5592740164292152e-10 1.2600613567881921e-10 1.5248993887364416e-10 1.1168415435125075e-10 3.132971950195462e-10
          2.3255253780860425e-10 2.1578553034725148e-10 1.4549210378679211e-9 1.216190710781003e-9 1.7209392055405964e-9 1.2808219407203137e-9
          9.714205864051416e-10 1.0015496168804675e-9 6.83970134316739e-10 1.5350388750281514e-9 1.1914500473333873e-9 1.1991136343833658e-9
          1.9120768509303173e-9 1.626388737465892e-9 1.998264353081699e-9 1.7193738128312869e-9 1.3532032661031653e-9 1.343065039278929e-9
          9.307987866067235e-10 1.7950129240805773e-9 1.4125743063903422e-9 1.40047963459805e-9 7.394852304651918e-10 5.656911130482546e-10
          5.1220118377773e-10 3.868385679373533e-10 9.181909095752839e-10 7.088931329528287e-10 6.256887717323717e-10 4.283660201678674e-10
          3.2048885116421555e-10 2.8846563832876404e-10 2.136949449242018e-10 5.406875096563952e-10 4.065792517943342e-10 3.571570986025198e-10
          1.0506408658340175e-9 8.157829930225299e-10 7.100788082959897e-10 5.425467626600239e-10 1.0993829606887552e-9 8.552330704216264e-10
          7.405984830230795e-10 6.250471519812165e-10 4.716300572374025e-10 4.0852861873758935e-10 3.037478133339036e-10 6.562938493606533e-10
          4.958556670630101e-10 4.270769983016334e-10 1.236601776108944e-10 1.7567256219427778e-10 1.3923118844071202e-10 3.3090189497845435e-10
          8.462626590489584e-11 1.1472084531175982e-10 7.225905375641567e-11 9.53582366506139e-11 6.852410377749153e-11 9.027638307912073e-11
          7.611730901547347e-11 2.0815133981248144e-10 1.7014578155068961e-10 1.4295803469432652e-10 5.980281979198252e-10 3.6345027610347135e-10
          2.0664144261274127e-10 5.888755299373374e-10 3.223921587847684e-10 8.862158453028416e-10 4.663685331663288e-10 1.2108819111624577e-9
          6.147129260016422e-10 1.4717612994182578e-9 7.307190107646215e-10 1.5718527045432127e-9 7.748250826634467e-10 9.003172011650858e-11
          1.1363716383965871e-10 7.791986992247353e-11 9.596307212907162e-11 6.905217182432848e-11 8.404401340715621e-11 7.419085965166554e-11
          1.69748988422403e-10 1.3449699535993509e-10 1.190590022023498e-10 2.364477004631951e-10 1.7086515078294633e-10 1.5810622912483567e-10
          1.1606833324492307e-10 3.012531543629782e-10 2.193245243475899e-10 1.9508029671415008e-10 1.0169012662325368e-10 1.2074003208924155e-10
          7.45234535399948e-11 8.242001257032363e-11 1.5590113023951833e-10 9.956111398028418e-11 3.503220086818456e-10 2.5541960382280575e-10
          2.2385705740510045e-10 1.625544701348906e-10 3.687777402821279e-10 2.6917810464425653e-10 2.346838302168564e-10 1.8191953700794185e-10
          1.1454266154395925e-10 1.9182675109207646e-10 1.2027966672800256e-10 2.827969590895867e-10 3.087105589428598e-10 3.446717085038376e-10
          5.38375885158131e-10 4.633427611536643e-10 6.706789932482874e-10 2.2744093883070136e-10 2.3705995371401804e-10 2.637814671537915e-10
          1.865395226475449e-10 1.9121117549701353e-10 2.3189534332984096e-10 1.0255257229584059e-10 1.6769743722859076e-10 8.817887518019326e-11
          2.78582114863306e-10 1.8771035195125136e-10 1.7785334440592118e-10 1.469220634766857e-10 2.24956976426714e-10 1.69631301043277e-10
          1.1535079441581765e-10 8.3687123125954e-11 4.381741015402198e-10 2.63818997333579e-10 1.6954250569380082e-10 4.320496390563839e-10
          1.9378319064028243e-10 1.3635423058664737e-10 3.127274072845772e-10 1.8573733183252876e-10 1.0362210718153107e-10 1.3612358549033316e-10
          6.55534957430104e-10 3.3996089390793195e-10 9.015035088350411e-10 4.514738729156368e-10 1.101404431660304e-9 5.385549615646041e-10
          1.1784205145114955e-9 5.717418974372462e-10 1.8904463852235515e-10 2.4218008174514696e-10 7.075958273918814e-11 1.6930371637692343e-10
          8.39978426544076e-11 5.709151360342049e-11 3.2443850375417214e-10 2.2803338008736105e-10 1.0866631162504013e-10 3.880820764713569e-10
          2.7339454299294225e-10 1.2703657043229946e-10 7.933434819030134e-11 4.123928830406982e-10 2.907265052542283e-10 1.339766201841457e-10
        </DataArray>
        <DataArray type="Float64" Name="gradient_matprop_error" format="ascii" RangeMin="0" RangeMax="0">
          0 0 0 0 0 0
          0 0 0 0 0 0
          0 0 0 0 0 0
          0 0 0 0 0 0
          0 0 0 0 0 0
          0 0 0 0 0 0
          0 0 0 0 0 0
          0 0 0 0 0 0
          0 0 0 0 0 0
          0 0 0 0 0 0
          0 0 0 0 0 0
          0 0 0 0 0 0
          0 0 0 0 0 0
          0 0 0 0 0 0
          0 0 0 0 0 0
          0 0 0 0 0 0
          0 0 0 0 0 0
          0 0 0 0 0 0
          0 0 0 0 0 0
          0 0 0 0 0 0
          0 0 0 0 0 0
          0 0 0 0 0 0
          0 0 0 0 0 0
          0 0 0 0 0 0
          0 0 0 0 0 0
          0 0 0 0 0 0
          0 0 0 0 0 0
          0 0 0 0 0 0
          0 0 0 0 0 0
          0 0 0 0 0 0
          0 0 0 0 0 0
          0 0 0 0 0 0
          0 0 0 0 0 0
          0 0 0 0 0 0
          0 0 0 0 0 0
          0 0 0 0 0 0
          0 0 0 0 0 0
          0 0 0 0 0 0
          0 0 0 0 0 0
          0 0 0 0 0 0
          0 0 0 0 0 0
          0 0 0 0 0 0
          0 0 0 0 0 0
          0 0 0 0 0 0
          0 0 0 0 0 0
          0 0 0 0 0 0
          0 0 0 0 0 0
          0 0 0 0 0 0
          0 0 0 0 0 0
          0 0 0 0 0 0
          0 0 0 0 0 0
          0 0 0 0 0 0
          0 0 0 0 0 0
          0 0 0 0 0 0
          0 0 0 0 0 0
          0 0 0 0 0 0
          0 0 0 0 0 0
          0 0 0 0 0 0
          0 0 0 0 0 0
          0 0 0 0 0 0
          0 0 0 0 0 0
          0 0 0 0 0 0
          0 0 0 0 0 0
          0 0 0 0 0 0
          0 0 0 0 0 0
          0 0 0 0 0 0
          0 0 0 0 0 0
          0 0 0 0 0 0
          0 0 0 0 0 0
          0 0 0 0 0 0
          0 0 0 0 0 0
          0 0 0 0 0 0
          0 0 0 0 0 0
          0 0 0 0 0 0
          0 0 0 0 0 0
          0 0 0 0 0 0
          0 0 0 0 0 0
          0 0 0 0 0 0
          0 0 0 0 0 0
        </DataArray>
        <DataArray type="Float64" Name="initial_marker" format="ascii" RangeMin="0" RangeMax="2">
          0 0.75 0 0 0 2
          2 0 0 0 0 0
          2 2 2 2 0.3333333333333333 0.5
          0 0.5 0 0 0 0
          0 0 0 0 0 0
          0 0 0 1.3333333333333333 2 1.6666666666666667
          2 2 2 2 0.5 2
          0 2 0.3333333333333333 1 0.5 2
          2 2 0 2 0 2
          0 0.5 0.5 2 2 2
          2 2 2 2 2 2
          2 2 2 0 0.5 0
          1 1 0 1 0 0.25
          0 0 0 0 0 0.75
          0.5 0 0 0 0 0
          0 0 0 0 0 0
          1 1 0 0 1 1
          0 1 1 0 0 1
          1 0 0 1.5 0 0.5
          0 0 0 0 0 0
          0.75 0 1 0 0 0
          0 0 0 0 0 0
          0 0 0 0 1 0
          1 1 2 0 0.5 0
          1.5 0 0.5 0 0.5 0
          0 0 1.5 1.5 0.6666666666666666 2
          2 2 2 2 1.5 2
          2 2 1.5 1.5 2 2
          2 0 1 1 2 0
          1 1 2 0 0.5 0
          0.5 0 0 0 1.5 1.5
          0.6666666666666666 0 0.5 0 0.5 0
          0 0 1.5 1.5 0.6666666666666666 2
          2 2 2 2 1.5 1.5
          2 2 2 2 2 1.5
          1.5 2 2 2 2 2
          2 2 2 2 2 2
          2 2 2 2 2 2
          2 2 2 2 2 2
          2 2 2 2 2 2
          2 2 2 2 2 2
          2 2 2 2 2 2
          2 2 2 2 2 2
          2 2 2 2 2 2
          2 2 2 2 2 2
          2 2 2 2 0 0.5
          0 1.5 0 0.5 0 0.5
          0 0 0 1.5 1.5 1
          0 0.5 0 0.5 0 0
          0 1.25 1 0.5 0 0.5
          0 0.5 0 0 0 1
          1 0 2 2 2 2
          2 2 2 2 2 2
          2 2 2 2 2 2
          2 2 2 2 1.75 1.5
          1.5 1 2 2 2 1.5
          1.5 1 1 2 2 2
          2 2 2 2 2 2
          2 2 2 2 2 2
          2 2 0 0.75 0.6666666666666666 1.75
          0 0.25 0 0 0 0
          0 1.25 1.3333333333333333 0.6666666666666666 2 2
          1.5 2 2 2 2 2
          2 2 2 2 2 0
          0.5 0 0.5 0 0 0
          1 1 0 1.5 1.25 1
          0.5 2 1.75 2 1 1
          0 0 1.5 1 2 2
          2 2 2 2 2 2
          2 2 2 0 0 0
          0 0 0 0 0 0
          0 1.5 0 0 0 0
          1.75 1.5 0 0.25 0 0.5
          0 0 2 2 1.6666666666666667 2
          2 1.5 2 1.75 1 1.5
          2 2 2 2 2 2
          2 2 2 2 1 2
          1 0 2 2 1.25 2
          2 1.5 1 2 2 1.5
        </DataArray>
        <DataArray type="Float64" Name="markers_norefine" format="ascii" RangeMin="0" RangeMax="0">
          0 0 0 0 0 0
          0 0 0 0 0 0
          0 0 0 0 0 0
          0 0 0 0 0 0
          0 0 0 0 0 0
          0 0 0 0 0 0
          0 0 0 0 0 0
          0 0 0 0 0 0
          0 0 0 0 0 0
          0 0 0 0 0 0
          0 0 0 0 0 0
          0 0 0 0 0 0
          0 0 0 0 0 0
          0 0 0 0 0 0
          0 0 0 0 0 0
          0 0 0 0 0 0
          0 0 0 0 0 0
          0 0 0 0 0 0
          0 0 0 0 0 0
          0 0 0 0 0 0
          0 0 0 0 0 0
          0 0 0 0 0 0
          0 0 0 0 0 0
          0 0 0 0 0 0
          0 0 0 0 0 0
          0 0 0 0 0 0
          0 0 0 0 0 0
          0 0 0 0 0 0
          0 0 0 0 0 0
          0 0 0 0 0 0
          0 0 0 0 0 0
          0 0 0 0 0 0
          0 0 0 0 0 0
          0 0 0 0 0 0
          0 0 0 0 0 0
          0 0 0 0 0 0
          0 0 0 0 0 0
          0 0 0 0 0 0
          0 0 0 0 0 0
          0 0 0 0 0 0
          0 0 0 0 0 0
          0 0 0 0 0 0
          0 0 0 0 0 0
          0 0 0 0 0 0
          0 0 0 0 0 0
          0 0 0 0 0 0
          0 0 0 0 0 0
          0 0 0 0 0 0
          0 0 0 0 0 0
          0 0 0 0 0 0
          0 0 0 0 0 0
          0 0 0 0 0 0
          0 0 0 0 0 0
          0 0 0 0 0 0
          0 0 0 0 0 0
          0 0 0 0 0 0
          0 0 0 0 0 0
          0 0 0 0 0 0
          0 0 0 0 0 0
          0 0 0 0 0 0
          0 0 0 0 0 0
          0 0 0 0 0 0
          0 0 0 0 0 0
          0 0 0 0 0 0
          0 0 0 0 0 0
          0 0 0 0 0 0
          0 0 0 0 0 0
          0 0 0 0 0 0
          0 0 0 0 0 0
          0 0 0 0 0 0
          0 0 0 0 0 0
          0 0 0 0 0 0
          0 0 0 0 0 0
          0 0 0 0 0 0
          0 0 0 0 0 0
          0 0 0 0 0 0
          0 0 0 0 0 0
          0 0 0 0 0 0
          0 0 0 0 0 0
        </DataArray>
        <DataArray type="Float64" Name="markers_mustrefine" format="ascii" RangeMin="0" RangeMax="2">
          0 0.75 0 0 0 2
          2 0 0 0 0 0
          2 2 2 2 0.3333333333333333 0.5
          0 0.5 0 0 0 0
          0 0 0 0 0 0
          0 0 0 1.3333333333333333 2 1.6666666666666667
          2 2 2 2 0.5 2
          0 2 0.3333333333333333 1 0.5 2
          2 2 0 2 0 2
          0 0.5 0.5 2 2 2
          2 2 2 2 2 2
          2 2 2 0 0.5 0
          1 1 0 1 0 0.25
          0 0 0 0 0 0.75
          0.5 0 0 0 0 0
          0 0 0 0 0 0
          1 1 0 0 1 1
          0 1 1 0 0 1
          1 0 0 1.5 0 0.5
          0 0 0 0 0 0
          0.75 0 1 0 0 0
          0 0 0 0 0 0
          0 0 0 0 1 0
          1 1 2 0 0.5 0
          1.5 0 0.5 0 0.5 0
          0 0 1.5 1.5 0.6666666666666666 2
          2 2 2 2 1.5 2
          2 2 1.5 1.5 2 2
          2 0 1 1 2 0
          1 1 2 0 0.5 0
          0.5 0 0 0 1.5 1.5
          0.6666666666666666 0 0.5 0 0.5 0
          0 0 1.5 1.5 0.6666666666666666 2
          2 2 2 2 1.5 1.5
          2 2 2 2 2 1.5
          1.5 2 2 2 2 2
          2 2 2 2 2 2
          2 2 2 2 2 2
          2 2 2 2 2 2
          2 2 2 2 2 2
          2 2 2 2 2 2
          2 2 2 2 2 2
          2 2 2 2 2 2
          2 2 2 2 2 2
          2 2 2 2 2 2
          2 2 2 2 0 0.5
          0 1.5 0 0.5 0 0.5
          0 0 0 1.5 1.5 1
          0 0.5 0 0.5 0 0
          0 1.25 1 0.5 0 0.5
          0 0.5 0 0 0 1
          1 0 2 2 2 2
          2 2 2 2 2 2
          2 2 2 2 2 2
          2 2 2 2 1.75 1.5
          1.5 1 2 2 2 1.5
          1.5 1 1 2 2 2
          2 2 2 2 2 2
          2 2 2 2 2 2
          2 2 0 0.75 0.6666666666666666 1.75
          0 0.25 0 0 0 0
          0 1.25 1.3333333333333333 0.6666666666666666 2 2
          1.5 2 2 2 2 2
          2 2 2 2 2 0
          0.5 0 0.5 0 0 0
          1 1 0 1.5 1.25 1
          0.5 2 1.75 2 1 1
          0 0 1.5 1 2 2
          2 2 2 2 2 2
          2 2 2 0 0 0
          0 0 0 0 0 0
          0 1.5 0 0 0 0
          1.75 1.5 0 0.25 0 0.5
          0 0 2 2 1.6666666666666667 2
          2 1.5 2 1.75 1 1.5
          2 2 2 2 2 2
          2 2 2 2 1 2
          1 0 2 2 1.25 2
          2 1.5 1 2 2 1.5
        </DataArray>
        <DataArray type="Float64" Name="gradient_marker" format="ascii" RangeMin="0" RangeMax="1">
          1 0.375 1 0.875 1 0.75
          1 0.75 0.5 1 1 1
          0.25 1 1 1 0.6666666666666666 0.5
          0.5 0.5 1 1 1 1
          1 1 1 1 1 1
          1 1 1 0 0 0
          0.25 0.75 0.3333333333333333 1 0.5 0.5
          1 1 0.5 0.5 1 0.625
          1 0.5 1 1 1 1
          1 1 1 1 1 0.875
          1 0.625 1 1 1 0.75
          1 1 1 0 0 0
          0 0 0 0 0.5 0.5
          1 1 0.5 0.5 1 0.5
          1 0.5 1 1 1 1
          1 1 1 1 1 1
          0.5 1 0.5 1 0.5 1
          0.5 1 1 1 1 1
          1 1 1 1 1 1
          1 1 1 1 1 1
          1 1 1 1 0 0
          0.5 1 0.5 1 1 1
          1 1 1 1 1 1
          1 1 1 1 1 1
          1 1 1 1 1 1
          1 1 1 1 1 1
          1 1 1 1 1 1
          1 1 1 1 1 1
          1 1 1 1 1 1
          1 1 1 1 1 1
          1 1 1 1 1 1
          1 1 1 1 1 1
          1 1 1 1 1 1
          1 1 1 1 1 1
          1 1 1 1 1 1
          1 1 1 1 1 1
          1 1 1 1 1 1
          1 1 1 1 1 1
          1 1 1 1 1 1
          1 1 1 1 1 1
          1 1 1 1 1 1
          1 1 1 1 1 1
          1 1 1 1 1 1
          1 1 1 1 1 1
          1 1 1 1 1 1
          1 1 1 1 1 1
          1 1 1 1 1 1
          1 1 1 1 1 1
          1 1 1 1 1 1
          1 1 1 1 1 1
          1 1 1 1 1 1
          1 1 1 1 1 1
          1 1 1 1 1 1
          1 1 1 1 1 1
          1 1 1 1 1 1
          1 1 1 1 1 1
          1 1 1 1 1 1
          1 1 1 1 1 1
          1 1 1 1 1 1
          1 1 1 1 1 1
          1 1 1 1 1 1
          1 1 1 1 1 1
          1 1 1 1 1 1
          1 1 1 1 1 1
          1 1 1 1 1 1
          1 1 1 1 1 1
          1 1 1 1 1 1
          1 1 1 1 1 1
          1 1 1 1 1 1
          1 1 1 1 1 1
          1 1 1 1 1 1
          1 1 1 1 1 1
          1 1 1 1 1 1
          1 1 1 1 1 1
          1 1 1 1 1 1
          1 1 1 1 1 1
          1 1 1 1 1 1
          1 1 1 1 1 1
          1 1 1 1 1 1
        </DataArray>
        <DataArray type="Float64" Name="gradient_matprop_marker" format="ascii" RangeMin="0" RangeMax="0">
          0 0 0 0 0 0
          0 0 0 0 0 0
          0 0 0 0 0 0
          0 0 0 0 0 0
          0 0 0 0 0 0
          0 0 0 0 0 0
          0 0 0 0 0 0
          0 0 0 0 0 0
          0 0 0 0 0 0
          0 0 0 0 0 0
          0 0 0 0 0 0
          0 0 0 0 0 0
          0 0 0 0 0 0
          0 0 0 0 0 0
          0 0 0 0 0 0
          0 0 0 0 0 0
          0 0 0 0 0 0
          0 0 0 0 0 0
          0 0 0 0 0 0
          0 0 0 0 0 0
          0 0 0 0 0 0
          0 0 0 0 0 0
          0 0 0 0 0 0
          0 0 0 0 0 0
          0 0 0 0 0 0
          0 0 0 0 0 0
          0 0 0 0 0 0
          0 0 0 0 0 0
          0 0 0 0 0 0
          0 0 0 0 0 0
          0 0 0 0 0 0
          0 0 0 0 0 0
          0 0 0 0 0 0
          0 0 0 0 0 0
          0 0 0 0 0 0
          0 0 0 0 0 0
          0 0 0 0 0 0
          0 0 0 0 0 0
          0 0 0 0 0 0
          0 0 0 0 0 0
          0 0 0 0 0 0
          0 0 0 0 0 0
          0 0 0 0 0 0
          0 0 0 0 0 0
          0 0 0 0 0 0
          0 0 0 0 0 0
          0 0 0 0 0 0
          0 0 0 0 0 0
          0 0 0 0 0 0
          0 0 0 0 0 0
          0 0 0 0 0 0
          0 0 0 0 0 0
          0 0 0 0 0 0
          0 0 0 0 0 0
          0 0 0 0 0 0
          0 0 0 0 0 0
          0 0 0 0 0 0
          0 0 0 0 0 0
          0 0 0 0 0 0
          0 0 0 0 0 0
          0 0 0 0 0 0
          0 0 0 0 0 0
          0 0 0 0 0 0
          0 0 0 0 0 0
          0 0 0 0 0 0
          0 0 0 0 0 0
          0 0 0 0 0 0
          0 0 0 0 0 0
          0 0 0 0 0 0
          0 0 0 0 0 0
          0 0 0 0 0 0
          0 0 0 0 0 0
          0 0 0 0 0 0
          0 0 0 0 0 0
          0 0 0 0 0 0
          0 0 0 0 0 0
          0 0 0 0 0 0
          0 0 0 0 0 0
          0 0 0 0 0 0
        </DataArray>
        <DataArray type="Float64" Name="combo" format="ascii" RangeMin="0" RangeMax="1">
          1 0.375 1 0.875 1 0.75
          1 0.75 0.5 1 1 1
          0.25 1 1 1 0.6666666666666666 0.5
          0.5 0.5 1 1 1 1
          1 1 1 1 1 1
          1 1 1 0 0 0
          0.25 0.75 0.3333333333333333 1 0.5 0.5
          1 1 0.5 0.5 1 0.625
          1 0.5 1 1 1 1
          1 1 1 1 1 0.875
          1 0.625 1 1 1 0.75
          1 1 1 0 0 0
          0 0 0 0 0.5 0.5
          1 1 0.5 0.5 1 0.5
          1 0.5 1 1 1 1
          1 1 1 1 1 1
          0.5 1 0.5 1 0.5 1
          0.5 1 1 1 1 1
          1 1 1 1 1 1
          1 1 1 1 1 1
          1 1 1 1 0 0
          0.5 1 0.5 1 1 1
          1 1 1 1 1 1
          1 1 1 1 1 1
          1 1 1 1 1 1
          1 1 1 1 1 1
          1 1 1 1 1 1
          1 1 1 1 1 1
          1 1 1 1 1 1
          1 1 1 1 1 1
          1 1 1 1 1 1
          1 1 1 1 1 1
          1 1 1 1 1 1
          1 1 1 1 1 1
          1 1 1 1 1 1
          1 1 1 1 1 1
          1 1 1 1 1 1
          1 1 1 1 1 1
          1 1 1 1 1 1
          1 1 1 1 1 1
          1 1 1 1 1 1
          1 1 1 1 1 1
          1 1 1 1 1 1
          1 1 1 1 1 1
          1 1 1 1 1 1
          1 1 1 1 1 1
          1 1 1 1 1 1
          1 1 1 1 1 1
          1 1 1 1 1 1
          1 1 1 1 1 1
          1 1 1 1 1 1