<?xml version="1.0"?>
<VTKFile type="UnstructuredGrid" version="0.1" byte_order="LittleEndian" header_type="UInt32" compressor="vtkZLibDataCompressor">
  <UnstructuredGrid>
    <Piece NumberOfPoints="371" NumberOfCells="193">
      <PointData>
        <DataArray type="Int32" Name="libmesh_node_id" format="ascii" RangeMin="214" RangeMax="1578">
          214 224 278 279 280 288
          290 291 292 293 297 298
          300 301 303 383 384 385
          386 391 393 394 396 398
          404 489 490 491 494 497
          499 500 501 502 503 504
          505 506 507 508 509 510
          511 512 513 514 515 516
          517 518 519 520 524 525
          527 528 530 531 532 533
          534 535 536 537 538 539
          540 541 542 545 547 548
          550 551 552 553 554 557
          558 559 561 562 564 745
          746 749 751 752 755 808
          809 810 811 812 813 814
          815 816 817 818 820 821
          822 823 824 825 826 827
          828 829 830 831 832 833
          834 835 836 837 838 839
          840 841 842 843 844 845
          846 847 848 849 850 851
          852 853 854 855 856 857
          858 859 860 861 862 863
          864 865 866 867 868 869
          870 871 872 873 874 875
          876 877 878 879 880 881
          882 893 894 895 896 897
          898 899 900 901 902 903
          907 908 912 913 914 915
          916 917 918 919 920 921
          922 933 934 935 936 937
          938 939 942 946 1306 1307
          1311 1312 1313 1314 1315 1426
          1427 1428 1429 1430 1431 1432
          1433 1434 1435 1436 1437 1438
          1439 1440 1441 1442 1443 1444
          1445 1446 1447 1448 1449 1450
          1451 1452 1454 1459 1461 1465
          1466 1467 1468 1469 1470 1471
          1472 1473 1474 1475 1476 1477
          1478 1479 1480 1481 1482 1483
          1484 1485 1486 1487 1488 1489
          1490 1491 1492 1493 1494 1495
          1496 1497 1498 1499 1500 1501
          1502 1503 1504 1505 1506 1507
          1508 1509 1510 1511 1512 1513
          1514 1515 1516 1517 1518 1519
          1522 1524 1525 1527 1538 1540
          1542 1544 1552 1553 1556 1558
          1559 1561 1572 1574 1576 1578
          388 389 218 294 219 299
          399 227 406 521 522 523
          526 295 529 296 555 546
          556 560 302 563 883 884
          819 885 886 887 888 889
          890 892 904 905 906 909
          910 911 927 940 941 943
          932 944 945 1453 1520 1521
          1523 923 1526 924 1460 1539
          1541 1543 1554 1555 1557 929
          1560 930 1573 1575 1577
        </DataArray>
        <DataArray type="Float64" Name="bounds" format="ascii" RangeMin="0" RangeMax="0">
          0 0 0 0 0 0
          0 0 0 0 0 0
          0 0 0 0 0 0
          0 0 0 0 0 0
          0 0 0 0 0 0
          0 0 0 0 0 0
          0 0 0 0 0 0
          0 0 0 0 0 0
          0 0 0 0 0 0
          0 0 0 0 0 0
          0 0 0 0 0 0
          0 0 0 0 0 0
          0 0 0 0 0 0
          0 0 0 0 0 0
          0 0 0 0 0 0
          0 0 0 0 0 0
          0 0 0 0 0 0
          0 0 0 0 0 0
          0 0 0 0 0 0
          0 0 0 0 0 0
          0 0 0 0 0 0
          0 0 0 0 0 0
          0 0 0 0 0 0
          0 0 0 0 0 0
          0 0 0 0 0 0
          0 0 0 0 0 0
          0 0 0 0 0 0
          0 0 0 0 0 0
          0 0 0 0 0 0
          0 0 0 0 0 0
          0 0 0 0 0 0
          0 0 0 0 0 0
          0 0 0 0 0 0
          0 0 0 0 0 0
          0 0 0 0 0 0
          0 0 0 0 0 0
          0 0 0 0 0 0
          0 0 0 0 0 0
          0 0 0 0 0 0
          0 0 0 0 0 0
          0 0 0 0 0 0
          0 0 0 0 0 0
          0 0 0 0 0 0
          0 0 0 0 0 0
          0 0 0 0 0 0
          0 0 0 0 0 0
          0 0 0 0 0 0
          0 0 0 0 0 0
          0 0 0 0 0 0
          0 0 0 0 0 0
          0 0 0 0 0 0
          0 0 0 0 0 0
          0 0 0 0 0 0
          0 0 0 0 0 0
          0 0 0 0 0 0
          0 0 0 0 0 0
          0 0 0 0 0 0
          0 0 0 0 0 0
          0 0 0 0 0 0
          0 0 0 0 0 0
          0 0 0 0 0 0
          0 0 0 0 0
        </DataArray>
        <DataArray type="Float64" Name="gradient_error" format="ascii" RangeMin="3.218900767330386e-9" RangeMax="5.63348489680826e-7">
          1.518793732509835e-7 4.589939751315588e-7 2.0696314951417527e-7 5.040994914901942e-7 4.240479229770748e-7 5.312662197135394e-7
          9.676589288347998e-8 6.382032840406296e-8 2.6450657609331656e-7 2.0628991752665257e-7 3.670995645557579e-8 8.580713794067956e-8
          5.1360317238786965e-9 2.893495618890609e-7 1.3499786508166013e-7 8.46855468697947e-8 4.593482066303805e-8 3.324744342000646e-8
          6.127882347947959e-8 2.0560066176974863e-8 9.094813572450783e-9 3.061912473536361e-8 5.0518016856197646e-8 1.313918050146093e-8
          7.041690897703167e-8 4.665891176643559e-7 5.339617534221533e-7 5.63348489680826e-7 4.858285734275456e-7 5.424063437985925e-7
          1.301800943057389e-7 1.1904690539178021e-7 1.400644753049832e-7 2.74284416536925e-7 2.7284607005528774e-7 2.4033353983052455e-7
          2.444760375353177e-7 9.459539135517261e-8 2.6366718007333544e-7 2.280598312646523e-7 9.028395679052329e-8 1.6058631671083493e-7
          1.8374547715053773e-7 1.432602122608235e-7 3.9735493657627744e-7 3.5780067333748926e-7 2.2556332838013146e-7 2.7949015794453074e-7
          7.7772473840264e-8 7.072370377626207e-8 2.412296690372436e-7 2.0452361020458397e-7 5.2452493845028325e-8 1.196539193459832e-7
          2.6473271509843144e-7 2.1832193306356078e-7 1.8182302357870467e-7 3.4250399223521843e-7 3.538967778217609e-7 1.1841141727474535e-7
          1.195292865187872e-7 3.7719121265504346e-7 2.4349715783544065e-7 2.988613375736409e-7 3.4907377383350617e-7 1.2279175332925236e-7
          4.2467403184769963e-7 9.145057540808849e-8 1.3039469471881275e-7 2.3480399723381254e-7 5.749518079532601e-9 9.461199698568497e-8
          2.88250054791557e-7 1.284651405258773e-7 1.5402078592614404e-7 2.2891903518011304e-7 2.561100054474162e-7 6.067654505197651e-8
          8.949891812563167e-8 1.1780415828539538e-7 2.737549635606333e-7 3.001878609855926e-7 1.0158857398934635e-7 1.720464249150941e-7
          2.6949002999273083e-7 3.101476083875096e-7 2.869060518375927e-8 4.4671168720011996e-8 2.9695513683670974e-8 9.962251133442424e-8
          9.538368588630346e-8 9.187203734500588e-8 1.0277465138347499e-7 8.482584783274494e-8 1.1613230139831819e-7 1.1051372037431786e-7
          1.1778176138343119e-7 9.435323558541651e-8 1.3206035206524656e-7 1.2348861060545533e-7 1.0062866629504533e-7 9.955985668125992e-8
          9.590339428966611e-8 8.908071851545263e-8 9.48870424791106e-8 1.0435790127012709e-7 1.0133896257061707e-7 1.1530552524427918e-7
          1.1248178422014888e-7 9.337504539146256e-8 1.0193291314644598e-7 1.0338635374019036e-7 1.0406538663324753e-7 1.209462903614e-7
          1.039380998536878e-7 6.999108148808287e-8 7.829810238622302e-8 7.068169963961307e-8 9.083052377071351e-8 7.049543024145517e-8
          7.983435586064825e-8 7.193666967074245e-8 8.34818733187823e-8 6.248402525560311e-8 7.123864480947844e-8 7.275596354069118e-8
          9.527346347412056e-8 1.0407793632548204e-7 8.741514676717017e-8 8.522376521198838e-8 8.796971462584962e-8 9.68981770214624e-8
          8.610009552780437e-8 7.201348179011291e-8 8.699115857385854e-8 6.188759972664907e-8 9.203835663437208e-8 1.0638340983657815e-7
          1.2379344283003283e-7 4.5973328501409295e-8 7.328141569585076e-8 6.391928546583496e-8 1.0681486291596085e-7 9.943414781459212e-8
          9.578760562597027e-8 1.0381237137212039e-7 1.0519956140097198e-7 1.1690156068251438e-7 9.972930845039177e-8 1.0777897672682147e-7
          1.0902547733354419e-7 1.206743256808868e-7 1.0462158772979696e-7 1.2863314448359523e-7 1.2458067847170912e-7 1.4375190394230808e-7
          1.3788403313364277e-7 1.1048913625934478e-7 1.1902853839538133e-7 1.0515959753944481e-7 1.2239179608973936e-7 1.0577065635118867e-7
          1.3387832452671726e-7 7.350941569675368e-8 8.739695130992567e-8 7.434009773394121e-8 9.058595091065025e-8 6.320749957299189e-8
          7.434384256098479e-8 7.513098735551532e-8 1.127160258338673e-7 1.2113356554725696e-7 9.744457311764925e-8 7.40163950292499e-8
          6.169232661407324e-8 7.469860547157586e-8 1.0313897468043432e-7 3.795387982611634e-8 7.348588321440887e-8 9.947318835657058e-9
          3.2894802644657216e-8 1.2502949755972824e-7 1.0795585929054568e-7 3.218900767330386e-9 3.9392653827000134e-8 1.0843250342663698e-8
          1.0906568755872265e-7 1.2925214732776827e-7 1.4241503941770123e-7 1.157601117295949e-7 1.2283945974494907e-7 1.343567299108996e-7
          1.493947518282478e-7 1.2211126277286902e-7 1.2782680639818006e-7 1.3708054776456998e-7 3.717750450949954e-8 6.659346322627392e-8
          3.911898438687009e-8 3.045578027548262e-8 5.1651477263822196e-8 1.9681506573168705e-8 3.1812667207602374e-8 1.0978173661992581e-8
          1.1048945117947248e-8 1.1145079896770476e-8 1.0929577118021395e-8 1.1241214675593704e-8 1.086029478572667e-8 1.0926696819557748e-8
          1.0993098853388827e-8 1.0875219977122914e-8 9.644720200715241e-9 1.0435930632394956e-8 7.719618160831678e-9 9.410901831078904e-9
          1.1227141064074673e-8 1.1102185501326131e-8 8.240495283483235e-9 9.726781368019439e-9 7.892226544136412e-9 1.1213067452555642e-8
          1.75079567288597e-8 1.867399080806977e-8 1.8491038391151334e-8 2.0199852034442373e-8 1.83080859742329e-8 2.1042022395070617e-8
          2.1452393550821934e-8 2.1684978915370637e-8 2.230127319481253e-8 2.2177689106082014e-8 2.1670396102458305e-8 1.6616569841785387e-8
          1.677174449106804e-8 1.69269191403507e-8 9.232576524522151e-9 1.0262192385369332e-8 1.1667784868093298e-8 1.1291808246216514e-8
          1.647649604225055e-8 1.7024025258565157e-8 1.6523743796560418e-8 1.7574079789188698e-8 1.7571554474879768e-8 1.964147810307281e-8
          1.049791796244299e-8 1.2056664458065467e-8 1.1738087140341734e-8 1.4835660089915676e-8 1.743215347379153e-8 2.1413253305585555e-8
          2.1150903865586646e-8 1.8075485434461093e-8 2.0061555765336274e-8 1.8874812506551036e-8 6.511477974451777e-9 8.48899769076303e-9
          5.561595761625261e-9 7.638783529252819e-9 1.0466517407074284e-8 1.2009474591071777e-8 3.790379424381402e-9 6.7158029961567274e-9
          5.793655883003882e-9 9.641226567932052e-9 5.337026558186791e-9 7.073861396259039e-9 6.386288525963204e-9 7.584618158460099e-9
          1.2526268611085691e-8 1.2318065304485154e-8 3.957218467918932e-9 5.59140600236613e-9 6.641369580171754e-9 1.1216558575061185e-8
          1.73295184090437e-8 1.8062555638632827e-8 1.7226883344295866e-8 1.7664312324412837e-8 1.839167736262324e-8 1.908678366098557e-8
          2.0930171907233158e-8 1.7253139214364574e-8 1.758326318529231e-8 1.9298754815420103e-8 1.7118528687075544e-8 1.8274860937239433e-8
          2.086814737613686e-8 1.075796214081405e-8 1.2322812396107462e-8 1.6847190547591196e-8 2.230646655724061e-8 2.2307831549610827e-8
          2.1321150045203258e-8 2.283558164662499e-8 8.154286023879295e-9 9.113837514714283e-9 1.3025759507794322e-8 7.577311589459645e-9
          8.446793196321878e-9 1.1792159477867441e-8 1.9330426976506905e-8 2.2682723942974437e-8 1.8453797871006503e-8 2.2639551589462234e-8
          2.2276477235656914e-8 1.568564540405385e-8 4.661157388105235e-8 5.7221522214422706e-8 4.641519572709717e-8 6.757281061552156e-8
          2.3655664991903178e-8 6.716314495983354e-8 3.417214948234542e-8 4.920672063756465e-8 2.0312739348213654e-7 1.688795918445774e-7
          1.0963680139012985e-7 2.455992477894064e-7 1.94427394572257e-7 1.6597767662871422e-7 1.1759131223280974e-7 2.0674593492124406e-7
          1.8713672004041213e-7 6.27859756172903e-8 2.6342883317778425e-7 2.2821233785974203e-7 1.5988989882495835e-7 1.5168369168867488e-7
          1.2636731607773448e-7 1.7598833387826818e-7 1.648546589823312e-7 1.2695554966596938e-7 1.3303547037921184e-7 1.0521647983362019e-7
          1.0207508405267533e-7 1.2607043351462747e-7 9.256611012556163e-8 7.13066600536024e-8 9.206925274246473e-8 7.178854881289994e-8
          1.2868658323402135e-7 1.3398530430914517e-7 1.0414241071305855e-7 1.5555633300289742e-7 1.6728088440712983e-7 1.2922607343858558e-7
          1.0851488588271286e-7 1.6485532475962554e-7 1.794230056272964e-7 2.3200223737338085e-8 1.8180616125092637e-8 1.933656826143841e-8
          2.2144558086093258e-8 1.232218244508444e-8 1.3643754724781093e-8 1.772183183874508e-8 2.4315553899490516e-8 2.4141743010663827e-8
          2.4486890246925322e-8 2.2738649245757365e-8 1.0171746983300463e-8 1.1179073726961546e-8 1.4455614336485152e-8 9.346847244047108e-9
          1.0543550789899639e-8 1.3485285834210403e-8 2.0662180020692103e-8 2.4599531839036527e-8 1.981499367170662e-8
        </DataArray>
        <DataArray type="Float64" Name="gradient_matprop_error" format="ascii" RangeMin="0" RangeMax="0">
          0 0 0 0 0 0
          0 0 0 0 0 0
          0 0 0 0 0 0
          0 0 0 0 0 0
          0 0 0 0 0 0
          0 0 0 0 0 0
          0 0 0 0 0 0
          0 0 0 0 0 0
          0 0 0 0 0 0
          0 0 0 0 0 0
          0 0 0 0 0 0
          0 0 0 0 0 0
          0 0 0 0 0 0
          0 0 0 0 0 0
          0 0 0 0 0 0
          0 0 0 0 0 0
          0 0 0 0 0 0
          0 0 0 0 0 0
          0 0 0 0 0 0
          0 0 0 0 0 0
          0 0 0 0 0 0
          0 0 0 0 0 0
          0 0 0 0 0 0
          0 0 0 0 0 0
          0 0 0 0 0 0
          0 0 0 0 0 0
          0 0 0 0 0 0
          0 0 0 0 0 0
          0 0 0 0 0 0
          0 0 0 0 0 0
          0 0 0 0 0 0
          0 0 0 0 0 0
          0 0 0 0 0 0
          0 0 0 0 0 0
          0 0 0 0 0 0
          0 0 0 0 0 0
          0 0 0 0 0 0
          0 0 0 0 0 0
          0 0 0 0 0 0
          0 0 0 0 0 0
          0 0 0 0 0 0
          0 0 0 0 0 0
          0 0 0 0 0 0
          0 0 0 0 0 0
          0 0 0 0 0 0
          0 0 0 0 0 0
          0 0 0 0 0 0
          0 0 0 0 0 0
          0 0 0 0 0 0
          0 0 0 0 0 0
          0 0 0 0 0 0
          0 0 0 0 0 0
          0 0 0 0 0 0
          0 0 0 0 0 0
          0 0 0 0 0 0
          0 0 0 0 0 0
          0 0 0 0 0 0
          0 0 0 0 0 0
          0 0 0 0 0 0
          0 0 0 0 0 0
          0 0 0 0 0 0
          0 0 0 0 0
        </DataArray>
        <DataArray type="Float64" Name="initial_marker" format="ascii" RangeMin="0" RangeMax="2">
          0 2 0 1 0.5 1
          0 0 2 0 0 0
          2 1.5 0 0 0 0
          0 0 0 0 0 0
          0 1 2 2 1 2
          0 0 0 0 0.5 0.25
          0 0 1 0.5 0 0
          0 0 1.5 1.25 1.5 0.25
          0 0 1 0.5 0 0
          2 1.5 0.25 2 2 2
          2 1 1.25 2 2 2
          1 2 2 1.5 2 2
          2 0 0 0.5 0.25 0
          0 0 1 0.5 0 0
          0 0 0 0 0 2
          2 2 2 2 2 2
          2 2 2 2 2 2
          2 2 2 2 2 2
          2 2 2 2 2 2
          2 1 1.5 1 2 1
          1.5 1 1.5 0 1 1
          2 2 2 2 2 2
          2 2 2 2 2 2
          2 2 2 2 2 2
          2 2 2 2 2 2
          2 2 2 2 2 2
          2 2 2 2 2 2
          2 1 1.5 1.5 1.75 0
          1 1.5 2 2 2 2
          2 2 2 2 2 2
          2 2 2 2 2 2
          2 2 2 2 2 2
          2 2 2 2 0 0
          0 0 0 0 0 2
          2 2 2 2 2 2
          2 2 2 2 2 2
          2 2 2 2 2 2
          2 2 2 2 2 2
          2 2 2 2 2 2
          2 2 2 2 2 2
          2 2 2 2 2 2
          2 2 2 2 2 2
          2 2 2 2 2 2
          2 2 2 2 2 2
          2 2 2 2 2 2
          2 2 2 2 2 2
          2 2 2 2 2 2
          2 2 2 2 2 2
          2 2 2 2 2 2
          2 2 2 2 2 2
          2 2 2 2 2 2
          0 0 0 0 0 0
          0 0 0 0 1 0.75
          0.3333333333333333 2 1.75 0.75 0 1.5
          0.5 0 2 1 2 2
          2 2 2 2 2 2
          2 2 2 2 2 2
          2 2 2 2 2 2
          2 2 2 2 2 2
          2 2 2 2 2 2
          2 2 2 2 2 2
          2 2 2 2 2
        </DataArray>
        <DataArray type="Float64" Name="markers_norefine" format="ascii" RangeMin="0" RangeMax="2">
          0 0 0 0 0 0
          0 0 0 0 0 0
          2 0 0 0 0 0
          0 0 0 0 0 0
          0 0 0 0 0 0
          0 0 0 0 0 0
          0 0 0 0 0 0
          0 0 0 0 0 0
          0 0 0 0 0 0
          0 0 0 0 0 0
          0 0 0 0 0 0
          0 0 0 0 2 0
          0 0 0 0 0 0
          0 0 0 0 0 0
          0 0 0 0 0 0
          0 0 0 0 0 0
          0 0 0 0 0 0
          0 0 0 0 0 0
          0 0 0 0 0 0
          0 0 0 0 0 0
          0 0 0 0 0 0
          0 0 0 0 0 0
          0 0 0 1 0 0
          0 0 0 1 0 0
          0 0 0 0 0 0
          0 0 0 0 0 0
          0 0 0 0 0 0
          0 0 0 0 0 0
          0 0 0 0 0 0
          0 0 0 1.5 0.5 2
          1.5 0 0 2 1.5 2
          0 0 0 0 0 0
          0 0 0 0 0 0
          0 0 0 0 0 0
          1 0.5 1 0 0 0
          0 0 1 0.75 2 1.5
          0.5 1 1 1 2 1
          0 0 0 0 0 0
          1 0.5 0 0 0 1
          0.5 0 2 1.5 1.6666666666666667 1
          1 0.75 1 1 0.5 0.6666666666666666
          2 1.75 2 1.3333333333333333 0 0
          0 0.5 0.6666666666666666 0 2 1.75
          2 2 1.5 1.6666666666666667 2 2
          2 2 2 2 2 2
          1.75 2 2 2 2 2
          0.5 0 1 0.75 1 0
          0 1 1 0 1.5 1.25
          0.75 2 2 1.75 0.25 0
          0.75 0 2 2 2 2
          2 2 1 0 1 0
          0 0 0 0 0 0
          0 0 0 0 0 0
          0 0 0 0 0 0
          0 0 0 0 0 0
          0 0 0 0 0 1
          0.25 0 0 0 0 0
          0 0 0 0 0 0
          0.5 0 0 1.5 2 1.75
          1.25 2 2 2 0 0.5
          0 1 2 2 2 2
          2 2 1.25 0.5 1.5
        </DataArray>
        <DataArray type="Float64" Name="markers_mustrefine" format="ascii" RangeMin="0" RangeMax="2">
          0 2 0 1 0.5 1
          0 0 2 0 0 0
          2 1.5 0 0 0 0
          0 0 0 0 0 0
          0 1 2 2 1 2
          0 0 0 0 0.5 0.25
          0 0 1 0.5 0 0
          0 0 1.5 1.25 1.5 0.25
          0 0 1 0.5 0 0
          2 1.5 0.25 2 2 2
          2 1 1.25 2 2 2
          1 2 2 1.5 2 2
          2 0 0 0.5 0.25 0
          0 0 1 0.5 0 0
          0 0 0 0 0 2
          2 2 2 2 2 2
          2 2 2 2 2 2
          2 2 2 2 2 2
          2 2 2 2 2 2
          2 1 1.5 1 2 1
          1.5 1 1.5 0 1 1
          2 2 2 2 2 2
          2 2 2 2 2 2
          2 2 2 2 2 2
          2 2 2 2 2 2
          2 2 2 2 2 2
          2 2 2 2 2 2
          2 1 1.5 1.5 1.75 0
          1 1.5 2 2 2 2
          2 2 2 2 2 2
          2 2 2 2 2 2
          2 2 2 2 2 2
          2 2 2 2 0 0
          0 0 0 0 0 2
          2 2 2 2 2 2
          2 2 2 2 2 2
          2 2 2 2 2 2
          2 2 2 2 2 2
          2 2 2 2 2 2
          2 2 2 2 2 2
          2 2 2 2 2 2
          2 2 2 2 2 2
          2 2 2 2 2 2
          2 2 2 2 2 2
          2 2 2 2 2 2
          2 2 2 2 2 2
          2 2 2 2 2 2
          2 2 2 2 2 2
          2 2 2 2 2 2
          2 2 2 2 2 2
          2 2 2 2 2 2
          0 0 0 0 0 0
          0 0 0 0 1 0.75
          0.3333333333333333 2 1.75 0.75 0 1.5
          0.5 0 2 1 2 2
          2 2 2 2 2 2
          2 2 2 2 2 2
          2 2 2 2 2 2
          2 2 2 2 2 2
          2 2 2 2 2 2
          2 2 2 2 2 2
          2 2 2 2 2
        </DataArray>
        <DataArray type="Float64" Name="gradient_marker" format="ascii" RangeMin="0" RangeMax="1">
          1 1 0.875 1 1 1
          0.75 0.5 1 0.75 0.6666666666666666 0.625
          0 1 1 1 1 1
          1 1 1 1 1 1
          1 1 1 1 1 1
          1 0.75 1 1 1 0.875
          1 0.25 0.75 0.625 0.25 0.625
          0.8333333333333334 0.5 0.75 0.75 0.625 0.875
          0 0 0.5 0.5 0 0.375
          1 0.75 0.625 0.75 0.5 1
          1 0.75 0.625 0.5 0.75 1
          1 0.5 0.875 0.75 0 0.5
          1 0.375 0.625 0.625 0.875 0
          0.25 0.75 0.75 1 0.5 0.75
          1 1 0 0 0 0.5
          0.25 0 0.75 0 1 1
          1 0.5 1 1 0.5 0.5
          0.25 0 0.25 0.75 0.5 1
          0.875 0.25 0.625 0.75 0.625 1
          0.5 0 0 0 0 0
          0.125 0 0.25 0 0 0
          0.25 0.625 0 0 0 0.25
          0 0.25 0.375 0.5 0.75 0.625
          1 0 0.25 0.5 0.75 0.5
          0.5 1 0.625 0.875 0.5 0.75
          1 1 1 1 1 1
          1 0.75 0.75 0.75 0.875 0.625
          1 0 0.25 0 0.25 0
          0 0 0.75 0.75 0.5 0
          0 0 0.5 0.25 0.5 0
          0.125 0.875 0.625 0 0.25 0
          0.75 1 1 1 1 1
          1 1 1 1 0 0.25
          0 0 0.125 0 0 0
          0 0 0 0 0 0
          0 0 0 0 0 0
          0 0 0 0 0 0
          0 0 0 0 0 0
          0 0 0 0 0 0
          0 0 0 0 0 0
          0 0 0 0 0 0
          0 0 0 0 0 0
          0 0 0 0 0 0
          0 0 0 0 0 0
          0 0 0 0 0 0
          0 0 0 0 0 0
          0 0 0 0 0 0
          0 0 0 0 0 0
          0 0 0 0 0 0
          0 0 0 0 0 0
          0 0 0 0 0 0
          1 1 0.5 0.625 0.875 0.625
          1 0.5 1 0 0.5 0.5
          0.3333333333333333 1 0.75 0.625 0.3333333333333333 0.75
          0.5 0 1 0.5 1 1
          1 1 1 0.75 0.75 0.5
          0.5 0.75 0.25 0 0.25 0
          0.75 0.75 0.5 1 1 1
          0.5 1 1 0 0 0
          0 0 0 0 0 0
          0 0 0 0 0 0
          0 0 0 0 0
        </DataArray>
        <DataArray type="Float64" Name="gradient_matprop_marker" format="ascii" RangeMin="0" RangeMax="0">
          0 0 0 0 0 0
          0 0 0 0 0 0
          0 0 0 0 0 0
          0 0 0 0 0 0
          0 0 0 0 0 0
          0 0 0 0 0 0
          0 0 0 0 0 0
          0 0 0 0 0 0
          0 0 0 0 0 0
          0 0 0 0 0 0
          0 0 0 0 0 0
          0 0 0 0 0 0
          0 0 0 0 0 0
          0 0 0 0 0 0
          0 0 0 0 0 0
          0 0 0 0 0 0
          0 0 0 0 0 0
          0 0 0 0 0 0
          0 0 0 0 0 0
          0 0 0 0 0 0
          0 0 0 0 0 0
          0 0 0 0 0 0
          0 0 0 0 0 0
          0 0 0 0 0 0
          0 0 0 0 0 0
          0 0 0 0 0 0
          0 0 0 0 0 0
          0 0 0 0 0 0
          0 0 0 0 0 0
          0 0 0 0 0 0
          0 0 0 0 0 0
          0 0 0 0 0 0
          0 0 0 0 0 0
          0 0 0 0 0 0
          0 0 0 0 0 0
          0 0 0 0 0 0
          0 0 0 0 0 0
          0 0 0 0 0 0
          0 0 0 0 0 0
          0 0 0 0 0 0
          0 0 0 0 0 0
          0 0 0 0 0 0
          0 0 0 0 0 0
          0 0 0 0 0 0
          0 0 0 0 0 0
          0 0 0 0 0 0
          0 0 0 0 0 0
          0 0 0 0 0 0
          0 0 0 0 0 0
          0 0 0 0 0 0
          0 0 0 0 0 0
          0 0 0 0 0 0
          0 0 0 0 0 0
          0 0 0 0 0 0
          0 0 0 0 0 0
          0 0 0 0 0 0
          0 0 0 0 0 0
          0 0 0 0 0 0
          0 0 0 0 0 0
          0 0 0 0 0 0
          0 0 0 0 0 0
          0 0 0 0 0
        </DataArray>
        <DataArray type="Float64" Name="combo" format="ascii" RangeMin="0" RangeMax="2">
          1 1 0.875 1 1 1
          0.75 0.5 1 0.75 0.6666666666666666 0.625
          2 1 1 1 1 1
          1 1 1 1 1 1
          1 1 1 1 1 1
          1 0.75 1 1 1 0.875
          1 0.25 0.75 0.625 0.25 0.625
          0.8333333333333334 0.5 0.75 0.75 0.625 0.875
          0 0 0.5 0.5 0 0.375
          1 0.75 0.625 0.75 0.5 1
          1 0.75 0.625 0.5 0.75 1
          1 0.5 0.875 0.75 2 0.5
          1 0.375 0.625 0.625 0.875 0
          0.25 0.75 0.75 1 0.5 0.75
          1 1 0 0 0 0.5
          0.25 0 0.75 0 1 1
          1 0.5 1 1 0.5 0.5
          0.25 0 0.25 0.75 0.5 1
          0.875 0.25 0.625 0.75 0.625 1
          0.5 0 0 0 0 0
          0.125 0 0.25 0 0 0
          0.25 0.625 0 0 0 0.25
          0 0.25 0.375 1.5 0.75 0.625
          1 0 0.25 1.5 0.75 0.5
          0.5 1 0.625 0.875 0.5 0.75
          1 1 1 1 1 1
          1 0.75 0.75 0.75 0.875 0.625
          1 0 0.25 0 0.25 0
          0 0 0.75 0.75 0.5 0
          0 0 0.5 1.75 1 2
          1.625 0.875 0.625 2 1.75 2
          0.75 1 1 1 1 1
          1 1 1 1 0 0.25
          0 0 0.125 0 0 0
          1 0.5 1 0 0 0
          0 0 1 0.75 2 1.5
          0.5 1 1 1 2 1
          0 0 0 0 0 0
          1 0.5 0 0 0 1
          0.5 0 2 1.5 1.6666666666666667 1
          1 0.75 1 1 0.5 0.6666666666666666
          2 1.75 2 1.3333333333333333 0 0
          0 0.5 0.6666666666666666 0 2 1.75
          2 2 1.5 1.6666666666666667 2 2
          2 2 2 2 2 2
          1.75 2 2 2 2 2
          0.5 0 1 0.75 1 0
          0 1 1 0 1.5 1.25
          0.75 2 2 1.75 0.25 0
          0.75 0 2 2 2 2
          2 2 1 0 1 0
          1 1 0.5 0.625 0.875 0.625
          1 0.5 1 0 0.5 0.5
          0.3333333333333333 1 0.75 0.625 0.3333333333333333 0.75
          0.5 0 1 0.5 1 1
          1 1 1 0.75 0.75 1.5
          0.75 0.75 0.25 0 0.25 0
          0.75 0.75 0.5 1 1 1
          1 1 1 1.5 2 1.75
          1.25 2 2 2 0 0.5
          0 1 2 2 2 2
          2 2 1.25 0.5 1.5
        </DataArray>
        <DataArray type="Float64" Name="dHdT" format="ascii" RangeMin="25.82446265909682" RangeMax="136.58004192295311">
          26.55848126407735 37.92267504748064 26.34860915779846 33.29102638170377 29.773163138559884 33.69393280256148
          26.276000719154077 26.095416756599555 33.1187975603011 28.50150763960314 25.90841684762438 26.15856252064121
          122.73006758785542 33.495724683751476 26.415692640107963 25.916860840196254 25.86636075198139 25.853333482946894
          25.891863404968813 25.840306213912402 25.82446265909682 25.851750517827195 25.874882558813255 25.83031018015926
          25.89801459979931 32.3004505314439 36.905047393920015 35.83947860774158 32.5648682998167 36.96239313916672
          26.870329406582986 26.742750673655404 26.95912462872708 28.895433288848754 28.636074570523462 28.159082118538294
          28.421730807649226 26.527445332820005 28.29985621222169 27.83915931019988 26.46784235725207 27.23429821764328
          27.605188235127688 26.96788890832439 33.27148098645541 32.06195045479665 31.63733004645773 29.25919552539418
          26.399052103729176 26.328430598691757 27.868025814852476 27.459060606165245 26.172664237308744 26.71531486245344
          32.51779307491175 30.993637465353522 27.988812201844986 37.18779874753438 36.598160400549176 41.019418464605785
          37.634696836759 32.380312835520954 31.970655599104145 39.34129564681394 37.217397964383395 41.33649218143371
          33.686522877617605 45.82415805993181 37.359355905489124 31.250666325327455 48.62852649227807 45.66811784586284
          32.80169545116904 26.784903163933755 27.06143744490752 27.677025757636436 28.122021461771133 26.23671898842106
          26.464528342502536 26.702044106442706 28.18009573888389 28.700808245550213 26.573770537225418 27.34643645407354
          28.4878994548922 29.097623590449516 25.983175583138085 26.147592543208646 25.99524176351779 36.44662164890467
          35.95878056307736 36.03252257677593 35.76842900052842 34.37257611967912 36.01155259021652 35.49990167901082
          35.16012270697543 33.80712840769074 35.32598729917956 34.739344903366316 32.876111722354345 36.94221013416165
          36.785404767476926 35.89516828972923 37.20482507432698 36.88458572040085 36.70546628883518 36.771840784563324
          36.55037446264165 35.776058402967614 35.536160918422475 38.20303211736698 37.75395864072425 39.669922133303324
          37.23959969139247 32.0309922562365 33.662518610681005 32.16330004269577 36.05517080873663 31.8899953728231
          33.52216840281839 31.58951960774055 33.226371036019174 30.505777983538014 32.018566856971056 31.70932837591339
          35.92873618408183 35.67414012631293 34.68315814946023 38.519439868023895 37.70861752509947 37.20349480464803
          38.54587185972289 40.252355234520934 38.79452811944287 60.88812967955199 45.05574329288544 37.873941800281415
          39.828675411721235 49.85199888002788 40.64383191824593 61.26371208661429 38.448224904034014 36.929969746752604
          36.350745066384206 37.04364284115748 36.84287063753213 36.6768386580251 36.24866303513092 36.01030710546602
          36.9826103397143 36.86861952772214 36.66236550174547 36.70534153121463 36.41488607140111 37.4374851453823
          36.659929913179845 35.273328282254184 34.95498358224654 40.661710158230385 39.82420528240246 40.07807258373158
          38.076248693525855 31.237084402423577 32.883654484760015 30.810101135609425 32.46640143743541 29.848162757270785
          31.345083016599226 30.905210391355105 35.3963849545119 35.061975473147044 34.05086338079206 30.297396833499867
          28.995272729844114 30.37590486000095 33.05642091670368 87.13218272063597 57.63291787862296 82.67021005183153
          71.94084550013376 39.901567791869 40.083789768068854 117.71380701713673 85.4977726241891 83.01988126854519
          40.84460584428898 36.558943150633326 36.81652876803641 35.7075046124737 35.338430281019996 36.85534095933929
          37.63180832904012 36.155285739290946 34.886142151210905 35.41597945917225 26.077721189753557 26.328680700788265
          26.100045993105816 26.010960344401923 26.203405447940224 25.93440130784069 26.02627656845158 40.83453973782026
          53.44193690911223 47.96890875600802 63.92094953747847 42.4958806029038 51.21355130417254 46.16048211094741
          41.10741291772228 51.48642448407456 68.24651731122903 58.30935934435262 99.87082041598664 81.93044804476044
          48.37220137747622 63.990075673534236 83.05109771334583 68.64980993269724 99.93994655204241 54.248522152048636
          38.659219305719326 45.26393037263881 42.54218281124122 48.35629930452017 39.82043524984362 37.109240731461554
          57.0489432371695 53.13704235987237 44.278542489372335 38.01410837665749 36.69627325714555 55.31059674545872
          51.59055753222292 47.87051831898711 99.38838547364237 82.06287495060606 87.2042448822833 64.73736442756974
          61.678735366632395 56.588828290366195 69.56496940481472 63.78051319275296 51.498921214099994 54.064488918017354
          93.80606481417337 86.65741317650792 83.49630009989272 73.95156372763773 47.90597992536436 41.648047280214044
          37.094741767758485 51.293435061597066 53.65051564830285 39.74970201796586 117.98421369829775 99.55566355689012
          116.12514303945605 106.54970535050232 81.12711341548253 86.07698282415676 136.58004192295311 117.04845216317422