<?xml version="1.0"?>
<VTKFile type="UnstructuredGrid" version="0.1" byte_order="LittleEndian" header_type="UInt32" compressor="vtkZLibDataCompressor">
  <UnstructuredGrid>
    <Piece NumberOfPoints="357" NumberOfCells="193">
      <PointData>
        <DataArray type="Int32" Name="libmesh_node_id" format="ascii" RangeMin="194" RangeMax="3009">
          194 320 321 323 324 328
          329 330 638 639 645 649
          650 652 655 657 658 659
          660 661 662 663 664 665
          666 667 668 669 670 766
          767 776 777 782 784 785
          791 1200 1201 1202 1203 1204
          1205 1206 1207 1208 1209 1210
          1211 1212 1213 1226 1227 1230
          1232 1244 1245 1246 1247 1249
          1250 1251 1252 1262 1264 1266
          1268 1269 1270 1271 1272 1273
          1274 1275 1276 1277 1278 1279
          1280 1281 1282 1283 1284 1285
          1286 1287 1288 1289 1290 1291
          1292 1293 1294 1295 1296 1297
          1298 1299 1300 1301 1325 1326
          1333 1334 1356 1357 1359 1360
          1362 1363 1378 1379 1380 1381
          1382 1383 1384 1385 1386 1387
          1388 1389 1390 1391 1392 1393
          1394 1395 1396 1397 1398 2488
          2489 2490 2493 2496 2498 2499
          2500 2501 2502 2503 2504 2505
          2506 2507 2508 2509 2510 2511
          2514 2515 2518 2520 2522 2523
          2524 2525 2526 2527 2528 2529
          2530 2531 2534 2535 2537 2540
          2542 2543 2544 2545 2546 2547
          2548 2549 2550 2551 2553 2555
          2557 2559 2560 2561 2562 2563
          2564 2565 2645 2717 2718 2720
          2723 2725 2726 2727 2728 2729
          2730 2731 2732 2733 2734 2736
          2740 2742 2743 2744 2745 2746
          2747 2748 2751 2752 2754 2757
          2759 2760 2761 2762 2763 2764
          2765 2766 2767 2768 2770 2774
          2776 2777 2778 2779 2780 2781
          2782 2847 2849 2851 2871 2873
          2875 2894 2895 2896 2897 2898
          2899 2900 2901 2902 2903 2904
          2905 2906 2907 2908 2909 2910
          2911 2912 2913 2914 2915 2916
          2917 2918 2919 2920 2921 2922
          2923 2924 2925 2926 2927 2928
          2929 2930 2931 2932 2933 2934
          2935 2936 2937 2938 2939 2940
          2941 2942 2943 2944 2945 2946
          2947 2948 2949 2950 2951 2952
          2953 2954 2955 2956 2957 2958
          2959 2960 2961 2962 2963 2964
          2965 2966 2967 2968 2969 2970
          2971 2972 2973 2974 2975 2976
          2977 2978 2979 2980 2981 2982
          2983 2984 2985 2986 2987 2988
          2989 2990 2991 2992 2993 2994
          2995 2996 2997 2998 2999 3000
          3001 3002 3003 3004 3005 3006
          3007 3008 3009
        </DataArray>
        <DataArray type="Float64" Name="bounds" format="ascii" RangeMin="0" RangeMax="0">
          0 0 0 0 0 0
          0 0 0 0 0 0
          0 0 0 0 0 0
          0 0 0 0 0 0
          0 0 0 0 0 0
          0 0 0 0 0 0
          0 0 0 0 0 0
          0 0 0 0 0 0
          0 0 0 0 0 0
          0 0 0 0 0 0
          0 0 0 0 0 0
          0 0 0 0 0 0
          0 0 0 0 0 0
          0 0 0 0 0 0
          0 0 0 0 0 0
          0 0 0 0 0 0
          0 0 0 0 0 0
          0 0 0 0 0 0
          0 0 0 0 0 0
          0 0 0 0 0 0
          0 0 0 0 0 0
          0 0 0 0 0 0
          0 0 0 0 0 0
          0 0 0 0 0 0
          0 0 0 0 0 0
          0 0 0 0 0 0
          0 0 0 0 0 0
          0 0 0 0 0 0
          0 0 0 0 0 0
          0 0 0 0 0 0
          0 0 0 0 0 0
          0 0 0 0 0 0
          0 0 0 0 0 0
          0 0 0 0 0 0
          0 0 0 0 0 0
          0 0 0 0 0 0
          0 0 0 0 0 0
          0 0 0 0 0 0
          0 0 0 0 0 0
          0 0 0 0 0 0
          0 0 0 0 0 0
          0 0 0 0 0 0
          0 0 0 0 0 0
          0 0 0 0 0 0
          0 0 0 0 0 0
          0 0 0 0 0 0
          0 0 0 0 0 0
          0 0 0 0 0 0
          0 0 0 0 0 0
          0 0 0 0 0 0
          0 0 0 0 0 0
          0 0 0 0 0 0
          0 0 0 0 0 0
          0 0 0 0 0 0
          0 0 0 0 0 0
          0 0 0 0 0 0
          0 0 0 0 0 0
          0 0 0 0 0 0
          0 0 0 0 0 0
          0 0 0
        </DataArray>
        <DataArray type="Float64" Name="gradient_error" format="ascii" RangeMin="6.802135618002373e-12" RangeMax="1.5005512511398509e-9">
          1.4191327784728406e-11 9.933136698225209e-11 2.556924673608285e-10 5.0143501629445497e-11 1.2874158202189995e-10 3.524821090874443e-10
          1.0616742529581818e-10 6.247651206390017e-11 1.710891820488299e-10 1.555484418892621e-10 8.780220520735332e-11 1.3930379464828603e-10
          6.298339291646426e-11 2.0563719864760213e-10 1.1919187118258464e-10 7.17940590798423e-11 6.621252986595609e-11 4.0011328712079765e-11
          4.078225350123602e-11 4.1634479166659164e-11 2.750958485452993e-11 3.2864100431384116e-11 7.53329192686065e-11 7.822589368313329e-11
          4.417975465849886e-11 2.4614417690327548e-11 3.823539437601314e-11 2.756874618887044e-11 8.394830648240299e-11 8.831136716860955e-11
          8.082597615528064e-11 3.3978238034870796e-10 2.8160163349825337e-10 2.273422770584087e-10 9.668761802477693e-11 1.075735757684178e-10
          1.184595335120587e-10 1.4165740528436308e-10 1.2685731387776305e-10 1.8288772559054347e-10 1.4611412028925702e-10 7.12354054371582e-11
          6.579509000994577e-11 5.467475262029277e-11 1.0954408677667261e-10 9.288011058976488e-11 6.003038762297784e-11 5.728125155345627e-10
          4.3492669129415334e-10 1.0805255873794895e-10 2.035141657008795e-10 7.104173313044767e-11 7.870922481007529e-11 7.986865550722065e-11
          8.77384283463097e-11 1.1868925689607951e-9 8.920102327916045e-10 2.789571130675034e-10 2.1166810657268525e-10 9.711591868513261e-11
          1.5005512511398509e-9 1.1382527746853427e-9 2.6717785491695144e-10 7.621208253534579e-11 1.0923988165145494e-10 5.682512681965962e-11
          6.119040065164774e-11 5.411361217587756e-11 5.103425621399464e-11 4.4542916535514795e-11 2.630179392675666e-11 4.488503038298519e-11
          3.9939300322856764e-11 3.91240887675524e-11 4.252150083322115e-11 2.93218543905236e-11 4.1365539999895096e-11 3.395028188163731e-11
          2.666768984700709e-11 3.5707391646544986e-11 5.647891255768275e-11 4.393097451816857e-11 2.0353153617781108e-11 1.6735099344048405e-11
          3.1639302269290876e-11 2.5230434738652462e-11 7.045103240688894e-11 5.442694012797771e-11 2.003719646761392e-11 3.7316457569300733e-11
          4.411329226025069e-11 4.2882802627258284e-11 3.037203786304813e-11 3.87933327319595e-11 4.2719406898115365e-11 5.3238825970338656e-11
          2.7694822254893724e-11 4.70469246832748e-11 4.225885905118282e-11 5.711006535582128e-11 1.1750882853316282e-11 1.2302884197240285e-11
          1.1854119401394329e-11 1.2418945118341027e-11 1.4781766352559616e-10 1.3761119348150513e-10 8.954078418645382e-11 8.202196211183174e-11
          1.1144831895840754e-10 6.427010501965772e-11 2.6506644727421153e-11 3.8078949462470936e-11 1.8075953167336118e-11 2.17461112403481e-11
          2.1801935619844888e-11 2.89365814156098e-11 1.9842083962377338e-11 1.548806200224037e-11 1.3558137867653137e-11 1.8062480195827336e-11
          1.5718540564769527e-11 9.280337328136193e-12 1.006629444051752e-11 9.590019824896184e-12 1.1628213733065904e-11 1.3374600933711718e-11
          9.113745209274848e-12 2.0636898389414304e-11 1.7878943261885916e-11 9.899702321656175e-12 1.5120988134357532e-11 5.921934804822782e-11
          9.357438463294192e-11 8.908282224285108e-11 7.725278375718009e-11 1.727398423244979e-10 3.4230609468265e-11 3.285864892776377e-11
          5.0013902841525495e-11 4.775432399631683e-11 2.458974386490633e-11 3.486587324936585e-11 3.3389194143474426e-11 2.915468787362684e-11
          4.17167021985387e-11 2.9239939829839834e-11 9.568949532886996e-11 9.061242048066456e-11 5.333272380704229e-11 7.720594718580263e-11
          4.311586666514674e-11 6.122515219273259e-11 5.116968879314227e-11 1.1190526833287055e-10 2.438467602665826e-11 3.336239043298668e-11
          1.8760589416210768e-11 2.426941349491233e-11 2.194666469332537e-11 2.8786121620004127e-11 2.1971462367727988e-11 5.942814883829866e-11
          3.5599775689754174e-11 4.72144427076069e-11 3.367718569318915e-10 3.1579473869152525e-10 2.6136364824445436e-10 5.344904584639631e-10
          1.7238794154186186e-10 1.620627958727957e-10 8.479119169164507e-11 7.994689330745599e-11 1.3512155375552535e-10 6.721864326886988e-11
          2.874629808938039e-10 2.6879710527783903e-10 1.306288380534578e-10 2.2031056593803935e-10 1.938890083843136e-10 1.3129329867087005e-10
          3.1238361611781547e-10 1.0148682327857667e-10 5.0810186879084465e-11 6.940804894734636e-11 4.068637938707429e-11 1.6087122787963842e-10
          7.986398814424471e-11 1.069193847792158e-10 3.836813550620504e-11 8.768479656914122e-10 8.169744047008567e-10 6.586927688695129e-10
          1.1077709539026126e-9 4.359404301778367e-10 4.0657958002922584e-10 2.0829663037771546e-10 1.9467563685072826e-10 3.2963985779328174e-10
          1.591388698608053e-10 5.883307079682768e-10 5.488155228492381e-10 2.6047132035707243e-10 4.431351583731193e-10 4.623581121718364e-10
          6.178357288662809e-10 2.3475562050128815e-10 1.152385457830262e-10 1.5107743406071375e-10 7.546710421455764e-11 3.106540298951583e-10
          1.5090004635819144e-10 1.9514179117146225e-10 1.4166129364995456e-9 1.3261834933931533e-9 1.0710185059891169e-9 1.4068490606263975e-9
          7.028536611306659e-10 6.566781204791717e-10 3.325241279021183e-10 3.106350208865336e-10 5.303350885097638e-10 2.5198651050209386e-10
          7.451948935336134e-10 6.968408946117727e-10 3.294100217688329e-10 5.631683736466699e-10 7.377108200134078e-10 7.830010922255002e-10
          3.69144756298434e-10 1.7820918345428674e-10 2.2870295583261604e-10 1.131964679516397e-10 3.91207691769722e-10 1.8847721848009818e-10
          2.412456509919273e-10 4.601120028697629e-11 3.434218731302025e-11 5.834615773448445e-11 6.722887279519729e-11 4.531163889871901e-11
          7.058529263041773e-11 2.92870119574054e-11 2.7836488303537415e-11 4.015939510859445e-11 3.801207922829795e-11 1.8911552876185816e-11
          2.5994052526306653e-11 2.4706333282261833e-11 2.391662096130661e-11 3.229887929634775e-11 2.1099921546862845e-11 6.571936412107488e-11
          6.184496619573009e-11 3.2583628573252527e-11 5.1674541294908466e-11 1.8751699852274608e-11 2.4675780042296726e-11 1.336393186665911e-11
          1.6839822657434356e-11 1.605612243160543e-11 2.0618564839899397e-11 1.4898416259360033e-11 3.8547499368988414e-11 2.0962726779842586e-11
          2.917275364675864e-11 9.640694875449366e-11 9.037366205144107e-11 4.289049569955815e-11 4.035139819307374e-11 7.45908870149134e-11
          3.367477071542456e-11 1.2737337870053951e-10 1.1919655977515123e-10 5.301185836658791e-11 9.770670421947358e-11 1.5365808816368643e-11
          1.4543251385232023e-11 1.8628600136790694e-11 1.759301522466019e-11 9.989907229690434e-12 1.176902486614262e-11 1.1149880742117604e-11
          1.2409843418588e-11 1.4898255570219026e-11 9.499886845688872e-12 2.4516640590802468e-11 2.307979653813278e-11 1.3821856603638521e-11
          1.93529937018965e-11 5.5011854562069236e-11 2.5197650206983574e-11 3.687580411310072e-11 2.036640502235276e-11 7.126428002380622e-11
          3.2460142569724455e-11 4.726137024677939e-11 9.594429085629464e-12 1.1335168073568704e-11 6.942752703219328e-12 7.635586345643765e-12
          8.089865288178332e-12 9.431255319229049e-12 6.802135618002373e-12 1.4451514499842636e-11 9.207103596419709e-12 1.183999408135537e-11
          1.5122789060810107e-10 1.4146947671204983e-10 6.665027039758936e-11 6.249533074137932e-11 1.1560375155327533e-10 5.156770206303633e-11
          1.6011597134174416e-10 1.4979089573827763e-10 6.604485512002042e-11 1.2230792373900227e-10 2.8734736158422575e-11 2.7005007924249575e-11
          1.7204428459710032e-11 1.6197959236238774e-11 2.251707589746955e-11 1.3526517111768318e-11 3.0327582592452953e-11 2.8493201836321943e-11
          1.706205951974528e-11 2.371483211299616e-11 8.360464705453284e-11 3.778906310480765e-11 5.469571149749446e-11 2.946749587593104e-11
          8.820930467993368e-11 3.9766908038474485e-11 5.745166388159029e-11 1.664581349453556e-11 1.0568577909513556e-11 1.353275488420858e-11
          9.275611608257995e-12 1.7464505050893786e-11 1.1051368614255896e-11 1.4158166955986184e-11 1.9880343622887792e-11 2.3123952213031203e-11
          1.497194157807677e-11 1.6299743323192576e-11 1.5675395142590055e-11 1.7678606642561086e-11 1.321639091874157e-11 2.890697729519657e-11
          1.931040033512955e-11 2.1426106555262552e-11 3.2909827057898885e-11 2.18283002968833e-11 2.4141084939322408e-11 1.682033930339734e-11
          3.437326032857924e-11 2.2663344991815883e-11 2.5111774910651832e-11
        </DataArray>
        <DataArray type="Float64" Name="gradient_matprop_error" format="ascii" RangeMin="0" RangeMax="0">
          0 0 0 0 0 0
          0 0 0 0 0 0
          0 0 0 0 0 0
          0 0 0 0 0 0
          0 0 0 0 0 0
          0 0 0 0 0 0
          0 0 0 0 0 0
          0 0 0 0 0 0
          0 0 0 0 0 0
          0 0 0 0 0 0
          0 0 0 0 0 0
          0 0 0 0 0 0
          0 0 0 0 0 0
          0 0 0 0 0 0
          0 0 0 0 0 0
          0 0 0 0 0 0
          0 0 0 0 0 0
          0 0 0 0 0 0
          0 0 0 0 0 0
          0 0 0 0 0 0
          0 0 0 0 0 0
          0 0 0 0 0 0
          0 0 0 0 0 0
          0 0 0 0 0 0
          0 0 0 0 0 0
          0 0 0 0 0 0
          0 0 0 0 0 0
          0 0 0 0 0 0
          0 0 0 0 0 0
          0 0 0 0 0 0
          0 0 0 0 0 0
          0 0 0 0 0 0
          0 0 0 0 0 0
          0 0 0 0 0 0
          0 0 0 0 0 0
          0 0 0 0 0 0
          0 0 0 0 0 0
          0 0 0 0 0 0
          0 0 0 0 0 0
          0 0 0 0 0 0
          0 0 0 0 0 0
          0 0 0 0 0 0
          0 0 0 0 0 0
          0 0 0 0 0 0
          0 0 0 0 0 0
          0 0 0 0 0 0
          0 0 0 0 0 0
          0 0 0 0 0 0
          0 0 0 0 0 0
          0 0 0 0 0 0
          0 0 0 0 0 0
          0 0 0 0 0 0
          0 0 0 0 0 0
          0 0 0 0 0 0
          0 0 0 0 0 0
          0 0 0 0 0 0
          0 0 0 0 0 0
          0 0 0 0 0 0
          0 0 0 0 0 0
          0 0 0
        </DataArray>
        <DataArray type="Float64" Name="initial_marker" format="ascii" RangeMin="0" RangeMax="2">
          0 0 0 0 0 2
          0 0 0 0 0 2
          1.75 0 2 0 0 0
          0 0 0 0 0 0
          0 1 0 0 0 0
          0 0 0 0 0 0
          0 0.5 0.25 2 2 0
          1.5 1.25 0 1.25 0.25 2
          2 2 2 0 0 0
          0.25 2 2 2 2 2
          2 2 2 0.75 0 1
          0 0 0 0 0 0
          0 0 0 0 1.5 1.5
          0 0.25 2 2 1 0.75
          1.5 0 2 2 1 1.5
          0 0 0 0 0 0
          0 0 0 0 0 0
          0 0 0 0 0 0
          0 0 0 0 0 0
          0 0 0 0 0 0
          0 0 0 0 0 0
          0 0 0 0 0 1
          1.5 1.5 1.25 2 0 0
          1 1 0 1 1 0
          0.75 0.5 2 2 2 1.75
          0 0.75 0.3333333333333333 1.75 0 0.25
          0 0 0 0 0 1.25
          1 1 2 2 2 2
          2 2 2 2 2 2
          2 2 2 2 2 2
          2 2 1.75 1.75 1.3333333333333333 2
          2 2 1.3333333333333333 2 2 2
          2 2 2 2 2 2
          2 2 2 2 2 2
          2 2 2 2 2 2
          2 2 2 2 2 2
          2 2 2 2 2 2
          2 2 2 2 2 2
          2 2 2 2 2 2
          2 1.5 1 1.75 2 1.3333333333333333
          2 1 1 1.5 1.5 0
          1 1 1 1.5 1 2
          2 2 2 0.5 1 0
          0.5 0 0.5 0 1.75 1.3333333333333333
          1.3333333333333333 2 2 2 2 2
          2 2 2 2 2 1
          1 1.5 1.5 0 1 1
          1 1.25 0.5 2 2 2
          1.75 2 1.75 1.75 1.3333333333333333 2
          2 2 0.5 0.75 0 0
          0 0.5 0 1.25 0.5 1
          2 2 2 2 2 2
          2 2 2 2 2 2
          2 2 2 2 2 2
          2 2 2 2 2 2
          2 2 2 1.5 1 1
          0 1.5 1 1 0.5 0.75
          0 0.5 0 0 0 1.25
          1 0.5 1.5 1 1 0
          1.5 1 1
        </DataArray>
        <DataArray type="Float64" Name="markers_norefine" format="ascii" RangeMin="0" RangeMax="0">
          0 0 0 0 0 0
          0 0 0 0 0 0
          0 0 0 0 0 0
          0 0 0 0 0 0
          0 0 0 0 0 0
          0 0 0 0 0 0
          0 0 0 0 0 0
          0 0 0 0 0 0
          0 0 0 0 0 0
          0 0 0 0 0 0
          0 0 0 0 0 0
          0 0 0 0 0 0
          0 0 0 0 0 0
          0 0 0 0 0 0
          0 0 0 0 0 0
          0 0 0 0 0 0
          0 0 0 0 0 0
          0 0 0 0 0 0
          0 0 0 0 0 0
          0 0 0 0 0 0
          0 0 0 0 0 0
          0 0 0 0 0 0
          0 0 0 0 0 0
          0 0 0 0 0 0
          0 0 0 0 0 0
          0 0 0 0 0 0
          0 0 0 0 0 0
          0 0 0 0 0 0
          0 0 0 0 0 0
          0 0 0 0 0 0
          0 0 0 0 0 0
          0 0 0 0 0 0
          0 0 0 0 0 0
          0 0 0 0 0 0
          0 0 0 0 0 0
          0 0 0 0 0 0
          0 0 0 0 0 0
          0 0 0 0 0 0
          0 0 0 0 0 0
          0 0 0 0 0 0
          0 0 0 0 0 0
          0 0 0 0 0 0
          0 0 0 0 0 0
          0 0 0 0 0 0
          0 0 0 0 0 0
          0 0 0 0 0 0
          0 0 0 0 0 0
          0 0 0 0 0 0
          0 0 0 0 0 0
          0 0 0 0 0 0
          0 0 0 0 0 0
          0 0 0 0 0 0
          0 0 0 0 0 0
          0 0 0 0 0 0
          0 0 0 0 0 0
          0 0 0 0 0 0
          0 0 0 0 0 0
          0 0 0 0 0 0
          0 0 0 0 0 0
          0 0 0
        </DataArray>
        <DataArray type="Float64" Name="markers_mustrefine" format="ascii" RangeMin="0" RangeMax="2">
          0 0 0 0 0 2
          0 0 0 0 0 2
          1.75 0 2 0 0 0
          0 0 0 0 0 0
          0 1 0 0 0 0
          0 0 0 0 0 0
          0 0.5 0.25 2 2 0
          1.5 1.25 0 1.25 0.25 2
          2 2 2 0 0 0
          0.25 2 2 2 2 2
          2 2 2 0.75 0 1
          0 0 0 0 0 0
          0 0 0 0 1.5 1.5
          0 0.25 2 2 1 0.75
          1.5 0 2 2 1 1.5
          0 0 0 0 0 0
          0 0 0 0 0 0
          0 0 0 0 0 0
          0 0 0 0 0 0
          0 0 0 0 0 0
          0 0 0 0 0 0
          0 0 0 0 0 1
          1.5 1.5 1.25 2 0 0
          1 1 0 1 1 0
          0.75 0.5 2 2 2 1.75
          0 0.75 0.3333333333333333 1.75 0 0.25
          0 0 0 0 0 1.25
          1 1 2 2 2 2
          2 2 2 2 2 2
          2 2 2 2 2 2
          2 2 1.75 1.75 1.3333333333333333 2
          2 2 1.3333333333333333 2 2 2
          2 2 2 2 2 2
          2 2 2 2 2 2
          2 2 2 2 2 2
          2 2 2 2 2 2
          2 2 2 2 2 2
          2 2 2 2 2 2
          2 2 2 2 2 2
          2 1.5 1 1.75 2 1.3333333333333333
          2 1 1 1.5 1.5 0
          1 1 1 1.5 1 2
          2 2 2 0.5 1 0
          0.5 0 0.5 0 1.75 1.3333333333333333
          1.3333333333333333 2 2 2 2 2
          2 2 2 2 2 1
          1 1.5 1.5 0 1 1
          1 1.25 0.5 2 2 2
          1.75 2 1.75 1.75 1.3333333333333333 2
          2 2 0.5 0.75 0 0
          0 0.5 0 1.25 0.5 1
          2 2 2 2 2 2
          2 2 2 2 2 2
          2 2 2 2 2 2
          2 2 2 2 2 2
          2 2 2 1.5 1 1
          0 1.5 1 1 0.5 0.75
          0 0.5 0 0 0 1.25
          1 0.5 1.5 1 1 0
          1.5 1 1
        </DataArray>
        <DataArray type="Float64" Name="gradient_marker" format="ascii" RangeMin="1" RangeMax="1">
          1 1 1 1 1 1
          1 1 1 1 1 1
          1 1 1 1 1 1
          1 1 1 1 1 1
          1 1 1 1 1 1
          1 1 1 1 1 1
          1 1 1 1 1 1
          1 1 1 1 1 1
          1 1 1 1 1 1
          1 1 1 1 1 1
          1 1 1 1 1 1
          1 1 1 1 1 1
          1 1 1 1 1 1
          1 1 1 1 1 1
          1 1 1 1 1 1
          1 1 1 1 1 1
          1 1 1 1 1 1
          1 1 1 1 1 1
          1 1 1 1 1 1
          1 1 1 1 1 1
          1 1 1 1 1 1
          1 1 1 1 1 1
          1 1 1 1 1 1
          1 1 1 1 1 1
          1 1 1 1 1 1
          1 1 1 1 1 1
          1 1 1 1 1 1
          1 1 1 1 1 1
          1 1 1 1 1 1
          1 1 1 1 1 1
          1 1 1 1 1 1
          1 1 1 1 1 1
          1 1 1 1 1 1
          1 1 1 1 1 1
          1 1 1 1 1 1
          1 1 1 1 1 1
          1 1 1 1 1 1
          1 1 1 1 1 1
          1 1 1 1 1 1
          1 1 1 1 1 1
          1 1 1 1 1 1
          1 1 1 1 1 1
          1 1 1 1 1 1
          1 1 1 1 1 1
          1 1 1 1 1 1
          1 1 1 1 1 1
          1 1 1 1 1 1
          1 1 1 1 1 1
          1 1 1 1 1 1
          1 1 1 1 1 1
          1 1 1 1 1 1
          1 1 1 1 1 1
          1 1 1 1 1 1
          1 1 1 1 1 1
          1 1 1 1 1 1
          1 1 1 1 1 1
          1 1 1 1 1 1
          1 1 1 1 1 1
          1 1 1 1 1 1
          1 1 1
        </DataArray>
        <DataArray type="Float64" Name="gradient_matprop_marker" format="ascii" RangeMin="0" RangeMax="0">
          0 0 0 0 0 0
          0 0 0 0 0 0
          0 0 0 0 0 0
          0 0 0 0 0 0
          0 0 0 0 0 0
          0 0 0 0 0 0
          0 0 0 0 0 0
          0 0 0 0 0 0
          0 0 0 0 0 0
          0 0 0 0 0 0
          0 0 0 0 0 0
          0 0 0 0 0 0
          0 0 0 0 0 0
          0 0 0 0 0 0
          0 0 0 0 0 0
          0 0 0 0 0 0
          0 0 0 0 0 0
          0 0 0 0 0 0
          0 0 0 0 0 0
          0 0 0 0 0 0
          0 0 0 0 0 0
          0 0 0 0 0 0
          0 0 0 0 0 0
          0 0 0 0 0 0
          0 0 0 0 0 0
          0 0 0 0 0 0
          0 0 0 0 0 0
          0 0 0 0 0 0
          0 0 0 0 0 0
          0 0 0 0 0 0
          0 0 0 0 0 0
          0 0 0 0 0 0
          0 0 0 0 0 0
          0 0 0 0 0 0
          0 0 0 0 0 0
          0 0 0 0 0 0
          0 0 0 0 0 0
          0 0 0 0 0 0
          0 0 0 0 0 0
          0 0 0 0 0 0
          0 0 0 0 0 0
          0 0 0 0 0 0
          0 0 0 0 0 0
          0 0 0 0 0 0
          0 0 0 0 0 0
          0 0 0 0 0 0
          0 0 0 0 0 0
          0 0 0 0 0 0
          0 0 0 0 0 0
          0 0 0 0 0 0
          0 0 0 0 0 0
          0 0 0 0 0 0
          0 0 0 0 0 0
          0 0 0 0 0 0
          0 0 0 0 0 0
          0 0 0 0 0 0
          0 0 0 0 0 0
          0 0 0 0 0 0
          0 0 0 0 0 0
          0 0 0
        </DataArray>
        <DataArray type="Float64" Name="combo" format="ascii" RangeMin="1" RangeMax="1">
          1 1 1 1 1 1
          1 1 1 1 1 1
          1 1 1 1 1 1
          1 1 1 1 1 1
          1 1 1 1 1 1
          1 1 1 1 1 1
          1 1 1 1 1 1
          1 1 1 1 1 1
          1 1 1 1 1 1
          1 1 1 1 1 1
          1 1 1 1 1 1
          1 1 1 1 1 1
          1 1 1 1 1 1
          1 1 1 1 1 1
          1 1 1 1 1 1
          1 1 1 1 1 1
          1 1 1 1 1 1
          1 1 1 1 1 1
          1 1 1 1 1 1
          1 1 1 1 1 1
          1 1 1 1 1 1
          1 1 1 1 1 1
          1 1 1 1 1 1
          1 1 1 1 1 1
          1 1 1 1 1 1
          1 1 1 1 1 1
          1 1 1 1 1 1
          1 1 1 1 1 1
          1 1 1 1 1 1
          1 1 1 1 1 1
          1 1 1 1 1 1
          1 1 1 1 1 1
          1 1 1 1 1 1
          1 1 1 1 1 1
          1 1 1 1 1 1
          1 1 1 1 1 1
          1 1 1 1 1 1
          1 1 1 1 1 1
          1 1 1 1 1 1
          1 1 1 1 1 1
          1 1 1 1 1 1
          1 1 1 1 1 1
          1 1 1 1 1 1
          1 1 1 1 1 1
          1 1 1 1 1 1
          1 1 1 1 1 1
          1 1 1 1 1 1
          1 1 1 1 1 1
          1 1 1 1 1 1
          1 1 1 1 1 1
          1 1 1 1 1 1
          1 1 1 1 1 1
          1 1 1 1 1 1
          1 1 1 1 1 1
          1 1 1 1 1 1
          1 1 1 1 1 1
          1 1 1 1 1 1
          1 1 1 1 1 1
          1 1 1 1 1 1
          1 1 1
        </DataArray>
        <DataArray type="Float64" Name="dHdT" format="ascii" RangeMin="25.813014496166815" RangeMax="26.176862171664716">
          25.813230106398763 25.816865233662718 25.815818165476752 25.8132533813481 25.813370280772055 25.89195506453236
          25.817158960516103 25.813325463758495 25.81536169512229 25.815210028899184 25.81614054190096 25.841507293373454
          25.82424160078914 25.81741959914262 25.83728912828074 25.813889591274403 25.81384034267511 25.81448255551893
          25.814067450679744 25.813329282767626 25.81326165390032 25.813281500219222 25.81393966819131 25.814010279046066
          25.813379133328166 25.815461910524924 25.81443094403283 25.813276382551038 25.81407509819499 25.81385592695125
          25.81384464235884 25.81635308033324 25.81624063234633 25.816236123165666 25.81410757681914 25.814167017895528
          25.814226458971927 25.824448564119926 25.8232275819416 25.850598676638388 25.843306073090886 25.817264233528675
          25.822629025268466 25.821056648892316 25.820607976123252 25.83003690189711 25.81834216730334 25.932772775353865
          25.90182985074815 25.834984690746516 25.85495992330018 25.816439341836457 25.817120429087552 25.816884723053967
          25.81894440546046 26.08473726218283 26.002873234721783 25.873242690966556 25.856842491400883 25.832940627902296
          26.176862171664716 26.062374815274286 25.86926030443538 25.820925433697962 25.818347660076494 25.821609169256682
          25.815436492695866 25.815226722825912 25.81586533912011 25.815538415289492 25.81427398170893 25.81476980724417
          25.814604630895964 25.814866328908813 25.81514672002027 25.81432917534606 25.818883713599813 25.817792788410287
          25.814585304199852 25.816047229609378 25.824851963708564 25.82211254462368 25.815088647157886 25.814759808281135
          25.817537735624867 25.81454591024509 25.82799477403672 25.8243014657285 25.815039678902867 25.818341086386244
          25.815297223391187 25.815596778514966 25.814405688854443 25.814652307733557 25.81513827847037 25.815418292230433
          25.814415024772515 25.81581061557649 25.814781410294664 25.81553124175332 25.813017387403217 25.813028472977912
          25.813014496166815 25.81302662265251 25.819476392363747 25.819142760713113 25.816916268339064 25.816714887462076
          25.81832372232925 25.816266568123265 25.814677838944764 25.814957400528286 25.814167200073264 25.814227686304854
          25.81463997302786 25.814805593630524 25.814236476465346 25.8137073203931 25.813657407886648 25.813763845266898
          25.81370737329376 25.813382353406446 25.813386115714483 25.813383597287004 25.813607495380197 25.813650901320628
          25.813381078859525 25.813820370140693 25.813757338700874 25.81338484116756 25.81369430726106 25.82705026950441
          25.833398928919646 25.83252602670857 25.830216766417536 25.84856277971031 25.82121696474431 25.820939641386914
          25.824092420515644 25.82364584814021 25.818691986499793 25.820729224889718 25.820430971554195 25.820209390740615
          25.82247831626859 25.81966930936189 25.832590714537563 25.831599132725717 25.824110949721007 25.829037424956784
          25.823803282050626 25.8271681493377 25.825436825818525 25.83665843428297 25.819282589139917 25.821006704769786
          25.817624088290138 25.818759054675173 25.818808714828112 25.820256052767167 25.81831220884525 25.825816647801663
          25.820910262901766 25.823794069787198 25.881895106786118 25.877438778133907 25.866194318542917 25.923852224277034
          25.847941482106435 25.845821485727736 25.830273041320876 25.829303651363134 25.8404376694459 25.82683935171243
          25.872338887738206 25.8681762366735 25.83964858581373 25.857814518015267 25.852652362886243 25.84059268827493
          25.876438050239166 25.833845075400294 25.823786788426183 25.8279217003992 25.822060595988347 25.845633985133997
          25.829389239531274 25.835129751014218 25.82208580655595 26.004071616205355 25.98827647054282 25.949898804523585
          26.060713081471945 25.905803256065333 25.898536664343258 25.85659402162681 25.85340703678259 25.88076149803817
          25.845533683990407 25.943330137197698 25.932324852618837 25.868475795498142 25.90573905595446 25.90710454657853
          25.939769364810637 25.86060582540143 25.836422507539787 25.843942528275562 25.82872305915007 25.87634418592833
          25.84371798147341 25.852829870581182 26.150953786842564 26.119926620725963 26.045724448885053 26.14302935179954
          25.97407307131139 25.959864200047505 25.886719825750422 25.880609997127564 25.925791202191515 25.86581231151743
          25.986084016306357 25.970596311094404 25.885311161645618 25.933545983294714 25.965661926906048 25.97563899070086
          25.888663294451376 25.849357227160752 25.859566772176887 25.836102010248734 25.893369573177857 25.851500220421535
          25.86210334918482 25.823400334217443 25.821352249171863 25.825595163236144 25.827168673803108 25.823058056589304
          25.827743240886385 25.819479757120835 25.81918121141893 25.821420734772197 25.820988190491114 25.817222900587495
          25.818494394748274 25.818228542047137 25.818446131175513 25.819904414864368 25.81757951992911 25.826303443220958
          25.825507630051757 25.81972631115343 25.82350506700413 25.817559987058676 25.818603361974425 25.816252452570016
          25.816847877416212 25.817110377483353 25.817953540430157 25.81649940432019 25.821105149850105 25.81757986780357
          25.819524633326296 25.832902788486695 25.83156418547277 25.821923301713184 25.82138132347843 25.828225685503483
          25.820024971718254 25.84003437664782 25.83805989333842 25.824068749175215 25.83318474855233 25.816453452459346
          25.81627767405707 25.81700678865021 25.816793284947273 25.815134120784805 25.815495017848093 25.815376324608483
          25.81585295870182 25.81626166821466 25.81508280692791 25.818095202790445 25.81780097364241 25.81588134239326
          25.81705742758671 25.824273941016873 25.818384612547177 25.820867610666248 25.817481175593418 25.82752540533749
          25.81977063244703 25.822733490922094 25.815343861986296 25.815626752673893 25.81460968951864 25.814749481845926
          25.815083702223745 25.815309950162796 25.8145909812049 25.81617329034561 25.815038692746203 25.815738470012175
          25.845690596119585 25.84318271605265 25.82712360235055 25.82613930995301 25.83703667758803 25.823698748050447