<?xml version="1.0"?>
<VTKFile type="UnstructuredGrid" version="0.1" byte_order="LittleEndian" header_type="UInt32" compressor="vtkZLibDataCompressor">
  <UnstructuredGrid>
    <Piece NumberOfPoints="335" NumberOfCells="181">
      <PointData>
        <DataArray type="Int32" Name="libmesh_node_id" format="ascii" RangeMin="192" RangeMax="1693">
          192 295 296 300 302 503
          504 506 507 521 522 523
          524 525 526 527 528 529
          530 761 762 763 764 765
          823 824 825 826 827 828
          829 830 831 832 833 834
          835 836 837 838 839 840
          841 842 843 844 845 846
          847 848 849 850 851 852
          853 854 855 856 857 858
          859 860 861 862 863 864
          865 866 867 868 869 870
          871 872 873 874 875 876
          877 878 879 880 881 882
          883 884 885 886 887 888
          889 890 891 892 893 894
          895 896 897 898 899 940
          941 944 946 947 949 967
          980 981 984 986 987 989
          1000 1004 1405 1406 1407 1408
          1409 1410 1411 1412 1413 1414
          1415 1416 1417 1418 1419 1420
          1421 1422 1423 1424 1425 1426
          1427 1428 1429 1430 1431 1432
          1433 1434 1435 1436 1437 1438
          1439 1440 1441 1442 1443 1444
          1445 1446 1447 1448 1449 1450
          1451 1452 1453 1454 1455 1456
          1457 1458 1459 1460 1461 1462
          1463 1464 1465 1466 1467 1468
          1469 1470 1471 1472 1473 1474
          1475 1476 1477 1478 1479 1480
          1481 1482 1483 1484 1485 1486
          1487 1488 1489 1490 1491 1492
          1493 1494 1495 1496 1497 1498
          1499 1500 1501 1502 1503 1504
          1505 1506 1507 1508 1509 1510
          1511 1512 1513 1514 1515 1516
          1517 1518 1519 1520 1521 1522
          1523 1524 1525 1526 1527 1528
          1529 1530 1531 1532 1533 1605
          1606 1607 1608 1613 1614 1615
          1633 1634 1635 1636 1637 1638
          1639 1640 1641 1642 1653 1654
          1655 1656 1657 1658 1659 1667
          1668 1669 1670 1671 1672 1673
          1674 1675 1676 1687 1688 1689
          1690 1691 1692 1693 492 493
          494 495 292 505 497 498
          500 501 293 502 531 532
          516 533 534 535 536 301
          541 542 543 803 805 806
          804 809 811 810 775 776
          777 780 512 783 513 791
          792 795 797 808 519 817
          819 821 1259 1253 1261
        </DataArray>
        <DataArray type="Float64" Name="bounds" format="ascii" RangeMin="0" RangeMax="0">
          0 0 0 0 0 0
          0 0 0 0 0 0
          0 0 0 0 0 0
          0 0 0 0 0 0
          0 0 0 0 0 0
          0 0 0 0 0 0
          0 0 0 0 0 0
          0 0 0 0 0 0
          0 0 0 0 0 0
          0 0 0 0 0 0
          0 0 0 0 0 0
          0 0 0 0 0 0
          0 0 0 0 0 0
          0 0 0 0 0 0
          0 0 0 0 0 0
          0 0 0 0 0 0
          0 0 0 0 0 0
          0 0 0 0 0 0
          0 0 0 0 0 0
          0 0 0 0 0 0
          0 0 0 0 0 0
          0 0 0 0 0 0
          0 0 0 0 0 0
          0 0 0 0 0 0
          0 0 0 0 0 0
          0 0 0 0 0 0
          0 0 0 0 0 0
          0 0 0 0 0 0
          0 0 0 0 0 0
          0 0 0 0 0 0
          0 0 0 0 0 0
          0 0 0 0 0 0
          0 0 0 0 0 0
          0 0 0 0 0 0
          0 0 0 0 0 0
          0 0 0 0 0 0
          0 0 0 0 0 0
          0 0 0 0 0 0
          0 0 0 0 0 0
          0 0 0 0 0 0
          0 0 0 0 0 0
          0 0 0 0 0 0
          0 0 0 0 0 0
          0 0 0 0 0 0
          0 0 0 0 0 0
          0 0 0 0 0 0
          0 0 0 0 0 0
          0 0 0 0 0 0
          0 0 0 0 0 0
          0 0 0 0 0 0
          0 0 0 0 0 0
          0 0 0 0 0 0
          0 0 0 0 0 0
          0 0 0 0 0 0
          0 0 0 0 0 0
          0 0 0 0 0
        </DataArray>
        <DataArray type="Float64" Name="gradient_error" format="ascii" RangeMin="4.112857968969182e-9" RangeMax="3.0118314450826897e-7">
          1.1446734450258834e-8 2.1026078300687374e-7 1.6511893842963758e-7 3.7322400806979436e-8 2.67018929424634e-7 2.268439064516282e-7
          1.909126204331278e-7 1.7048937348544495e-7 1.7449956866887534e-7 1.053181465229562e-7 1.3060386827844058e-7 1.0518020633665708e-7
          1.207420709872168e-7 2.3017496634770564e-7 2.1002312240356098e-7 4.117422019256118e-9 8.251591508686799e-8 1.1048372492164305e-7
          2.813861982754048e-7 1.1083294248952781e-7 1.0440950617235204e-7 9.960347594689295e-8 1.0675310533962194e-7 8.749628743502196e-8
          9.757693122565907e-8 9.340523186616064e-8 1.0920986307245556e-7 1.0603964659919383e-7 1.2183463676402537e-7 1.1730895051750793e-7
          8.149640203737219e-8 9.52565059601913e-8 1.0294571068383318e-7 1.1840784655074222e-7 1.1950647682733916e-7 1.216198452074019e-7
          1.1569667460460742e-7 1.3573740902568976e-7 1.2925891221023972e-7 1.4943620496650095e-7 1.4056895368768433e-7 1.1015744811619406e-7
          1.1582350524565702e-7 9.126394067786078e-8 1.0470572771455772e-7 1.0020889858573533e-7 1.2678833278681623e-7 6.566755575323694e-8
          7.743145679153858e-8 6.694836581797365e-8 8.09135336060536e-8 5.757583993839174e-8 6.721933178862665e-8 6.871891011543131e-8
          9.908146558273766e-8 1.0757295874888782e-7 8.737468906019658e-8 6.728669029080997e-8 8.338991111280808e-8 6.542212252103983e-8
          8.372811262649692e-8 5.7566875566752304e-8 6.924534138801766e-8 6.751091717054753e-8 1.154287445431685e-7 1.2157772437752244e-7
          9.52056258907097e-8 6.33833076618026e-8 7.861303551545143e-8 3.9780084690492586e-8 6.12625388303407e-8 1.0795281554849301e-7
          1.1141820443438719e-7 5.469502086111974e-9 3.628941226768804e-8 1.1501475329362191e-8 9.368412658669854e-8 1.2133872979889681e-8
          3.46122003824845e-8 1.5543209875622936e-8 2.036962307331704e-8 1.0846423701032996e-7 1.0453978199281251e-7 7.712018951348174e-9
          1.2211982229935248e-8 1.6264663914499187e-8 9.585438839736553e-8 1.1307167868356492e-7 1.2627696502307844e-7 1.0333181198642199e-7
          1.1138409657439635e-7 1.1717578403149474e-7 1.322867139425148e-7 1.0877706949131238e-7 1.3969873173934572e-7 1.5216866105161668e-7
          1.1795665829723048e-7 1.216529989080752e-7 1.4803310632716068e-7 1.6321597608014257e-7 1.2642587202232457e-7 1.6094504222928736e-7
          1.4937746048146896e-7 1.184170745602013e-7 1.1895715243099925e-7 1.12090557216498e-7 1.2938893580100385e-7 1.2442087557370798e-7
          2.123924373774917e-8 2.548049320942221e-8 1.1713731458041908e-7 1.4786984152163004e-8 2.2884203588424475e-8 1.252987930790868e-7
          1.6187225900081998e-7 1.7605551286919337e-7 1.0955444507139365e-8 1.0935481348375085e-8 1.0963441267828715e-8 1.0991401187282344e-8
          1.0971438028518064e-8 1.833817687481663e-8 1.9833937195812343e-8 1.953505326951084e-8 2.172267267085099e-8 1.9236169343209338e-8
          2.3788346629806893e-8 2.376625650789093e-8 2.5922202146422076e-8 2.365958666548252e-8 2.1592301900210045e-8 2.278149023982616e-8
          2.503663091090437e-8 2.1987973534662244e-8 1.1237758008826054e-8 1.1327710254391649e-8 1.1513233908827695e-8 1.1417662499957246e-8
          1.769365028356427e-8 1.7759454030302924e-8 1.7825257777041578e-8 9.8706491254778e-9 1.0971834925833009e-8 1.2554324813601394e-8
          1.4106980095989356e-8 1.5614743214289342e-8 1.6343184329283094e-8 1.7673137419506172e-8 1.6545429192775694e-8 9.8775947618361e-9
          1.066746472372703e-8 8.131609613742406e-9 9.889969740678707e-9 1.145733468561796e-8 1.298101115202062e-8 8.517431514846148e-9
          1.0007219193062412e-8 8.26670557252972e-9 1.1497006871278675e-8 6.991753547223491e-9 8.871716492235973e-9 6.452073204889554e-9
          8.13614448131865e-9 1.3260806189338216e-8 1.2936038159962082e-8 4.112857968969182e-9 6.771598058638938e-9 6.031167335129817e-9
          1.2414632282687076e-8 1.5756632398110288e-8 1.5866891075388732e-8 1.5898521581931234e-8 1.628411453187036e-8 1.727596358192156e-8
          1.6798296122312746e-8 1.8500066601666708e-8 1.622504473445763e-8 1.687878974433695e-8 1.7051163051849796e-8 1.78290056386485e-8
          1.8242953113628356e-8 1.8458020591733146e-8 1.9298066472079704e-8 1.8656900588608202e-8 2.0992399885041256e-8 1.201969812361235e-8
          1.3375748067895477e-8 1.368891858514226e-8 1.577972497011057e-8 1.9681411072700095e-8 2.0591429740328776e-8 2.1382810332375503e-8
          2.2287195788109887e-8 2.2518988833944337e-8 2.430973774440064e-8 1.3516273277448695e-8 1.490694271411169e-8 1.680151029729397e-8
          1.8843159509957165e-8 2.219864286850729e-8 2.1696310786743336e-8 1.8895321429751924e-8 2.106891136400161e-8 1.991506397352933e-8
          2.321476638686615e-8 2.5299938092824837e-8 2.2893003513801083e-8 2.5171981940692665e-8 2.266192077948443e-8 2.4537338109067954e-8
          2.3935134689829213e-8 6.925911015569793e-9 8.286857847841631e-9 8.474864760765533e-9 9.548070921601946e-9 1.3002521677615376e-8
          1.3693090990279891e-8 5.6364998653995525e-9 6.773072517638173e-9 8.591764946227794e-9 1.137427181706843e-8 1.0536738896334814e-8
          1.159351206474034e-8 1.276881616547591e-8 1.4055056768067077e-8 1.5097919403213608e-8 1.7208714854027977e-8 9.615406753365533e-9
          1.0789741674023923e-8 1.3159282371343922e-8 1.3887910788919037e-8 1.8231609673778114e-8 1.93556599841744e-8 2.010598067243893e-8
          2.1946415070227383e-8 1.7567897917804303e-8 1.8510444840748652e-8 2.0296897371348538e-8 2.080694047891449e-8 2.2703474389082497e-8
          2.406832738454762e-8 2.6330816440767292e-8 1.9938081932766246e-8 2.1895517834774396e-8 2.4064418882376734e-8 2.7725090330367388e-8
          2.8105534936009967e-8 3.039185525531075e-8 2.846874182907111e-8 2.7165395366181573e-8 2.9301745474753117e-8 2.5879286615873472e-8
          2.3573209535765143e-8 2.445403456859988e-8 2.6245519957780164e-8 2.7049298125863466e-8 2.6500804515079833e-8 2.9014813547613043e-8
          1.8174444636826333e-8 1.9382471427789274e-8 2.2447572042850688e-8 2.264566572995798e-8 2.750245675495917e-8 2.9844331353255874e-8
          2.733816408119329e-8 2.9512111905232428e-8 2.68190475731313e-8 2.944639812892292e-8 2.8937261905098856e-8 1.506782715216893e-8
          1.679237833670186e-8 1.728483630468514e-8 1.962886917179683e-8 2.004492412271202e-8 2.3404190106896944e-8 1.3208093771848086e-8
          1.562234801901496e-8 1.8069335254308476e-8 1.9331383986596636e-8 2.5085022013573713e-8 2.7948133246562168e-8 2.8597125302958173e-8
          3.106078831823897e-8 2.4371467024621587e-8 2.7390387467037116e-8 2.8116768342231743e-8 2.2943630672878288e-7 2.1042529396987235e-7
          1.8169983365296142e-7 2.0173311010451243e-7 2.2636103254237498e-7 1.96461759631269e-7 1.774016091414961e-7 1.505925218555896e-7
          1.1314806106120232e-7 1.3398399371093256e-7 1.9420049767571133e-7 1.0327778202483258e-7 1.338747904300342e-7 1.5616095239065467e-7
          2.3148815107608006e-7 2.377306628434056e-7 2.5778478206527215e-7 1.260928647012061e-7 2.0134784763011854e-7 2.73407674835849e-7
          2.8376416646957783e-7 3.0118314450826897e-7 2.456162159281038e-7 7.293951943290028e-8 6.767212332783768e-8 8.482228651869577e-8
          7.828150492782656e-8 6.508989305539476e-8 6.791882496986616e-8 7.313885984647616e-8 8.683092841922328e-8 9.788850208061629e-8
          9.559131052595681e-8 8.744856692680002e-8 1.0166565074818574e-7 1.031198387090002e-7 1.0177695182420489e-7 6.376223526168772e-8
          7.332959950703894e-8 6.505618413177516e-8 9.045173373120967e-8 1.045730371844637e-7 1.0334533734644622e-7 1.0088304322841815e-7
          9.47367201751759e-8 1.0375958274680709e-7 5.4251568877679575e-8 6.834643736784311e-8 4.749190816809447e-8
        </DataArray>
        <DataArray type="Float64" Name="gradient_matprop_error" format="ascii" RangeMin="0" RangeMax="0">
          0 0 0 0 0 0
          0 0 0 0 0 0
          0 0 0 0 0 0
          0 0 0 0 0 0
          0 0 0 0 0 0
          0 0 0 0 0 0
          0 0 0 0 0 0
          0 0 0 0 0 0
          0 0 0 0 0 0
          0 0 0 0 0 0
          0 0 0 0 0 0
          0 0 0 0 0 0
          0 0 0 0 0 0
          0 0 0 0 0 0
          0 0 0 0 0 0
          0 0 0 0 0 0
          0 0 0 0 0 0
          0 0 0 0 0 0
          0 0 0 0 0 0
          0 0 0 0 0 0
          0 0 0 0 0 0
          0 0 0 0 0 0
          0 0 0 0 0 0
          0 0 0 0 0 0
          0 0 0 0 0 0
          0 0 0 0 0 0
          0 0 0 0 0 0
          0 0 0 0 0 0
          0 0 0 0 0 0
          0 0 0 0 0 0
          0 0 0 0 0 0
          0 0 0 0 0 0
          0 0 0 0 0 0
          0 0 0 0 0 0
          0 0 0 0 0 0
          0 0 0 0 0 0
          0 0 0 0 0 0
          0 0 0 0 0 0
          0 0 0 0 0 0
          0 0 0 0 0 0
          0 0 0 0 0 0
          0 0 0 0 0 0
          0 0 0 0 0 0
          0 0 0 0 0 0
          0 0 0 0 0 0
          0 0 0 0 0 0
          0 0 0 0 0 0
          0 0 0 0 0 0
          0 0 0 0 0 0
          0 0 0 0 0 0
          0 0 0 0 0 0
          0 0 0 0 0 0
          0 0 0 0 0 0
          0 0 0 0 0 0
          0 0 0 0 0 0
          0 0 0 0 0
        </DataArray>
        <DataArray type="Float64" Name="initial_marker" format="ascii" RangeMin="0" RangeMax="2">
          2 2 0 2 2 1.5
          1.25 1.5 0 2 2 2
          2 1.25 1.5 2 2 2
          1.5 2 2 2 2 2
          2 2 2 2 2 2
          2 2 2 2 2 2
          2 2 2 2 2 2
          2 2 2 2 2 1
          1.5 1 1.5 0 1 1
          2 2 2 1 1.5 1
          1.5 0 1 1 2 2
          2 2 2 2 2 2
          2 2 2 2 2 2
          2 2 2 2 2 2
          2 2 2 2 2 2
          2 2 2 2 2 2
          2 2 2 2 2 2
          2 2 2 2 2 2
          2 2 2 2 2 2
          2 2 2 2 2 2
          2 2 2 2 2 2
          2 2 2 2 2 2
          2 2 2 2 2 2
          2 2 2 2 2 2
          2 2 2 2 2 2
          2 2 2 2 2 2
          2 2 2 2 2 2
          2 2 2 2 2 2
          2 2 2 2 2 2
          2 2 2 2 2 2
          2 2 2 2 2 2
          2 2 2 2 2 2
          2 2 2 2 2 2
          2 2 2 2 2 2
          2 2 2 2 2 2
          2 2 2 2 2 2
          2 2 2 2 2 2
          2 2 2 2 2 2
          2 2 2 2 2 2
          2 2 2 2 2 2
          2 2 2 2 2 2
          2 2 2 2 2 2
          2 2 2 2 2 2
          2 2 2 2 2 2
          2 2 2 2 2 2
          2 2 2 2 2 2
          2 2 2 2 2 2
          2 2 2 2 0 0.5
          0.25 0 1 1 1 0.5
          0 0 0 0 0 0
          1 0.25 0 0 0.5 1
          0.5 0 1 2 2 2
          2 2 2 2 2 2
          2 2 2 2 2 1
          1.5 1 2 2 2 2
          2 2 0 0 0
        </DataArray>
        <DataArray type="Float64" Name="markers_norefine" format="ascii" RangeMin="0" RangeMax="2">
          2 0 0 0 0 0
          0 0 0 0 0 0.5
          0 0 0 2 0 1
          0 0 0 0 0 0
          0 0 0 0 0 0
          0 0 0 0 0 0
          0 0 0 0 0 0
          0 0 0 0 0 0
          0 0 0 0 0 0
          0 0 0 0 0 0
          0 0 0 0 0 0
          0 0.5 0.25 1.5 0.75 0
          0 2 1 2 0 2
          1.5 2 2 0 0.25 2
          2 2 0 0 0 0
          0 0 0 0 0 0
          0 0 0 0 0 0
          0 0 1 0.5 0 0
          2 2 0.5 2 2 1
          0 0 0 0 0 0
          0 0 0 0 0 0
          0 0 0.5 0 0 0
          0 0 0 0 1 0
          1 0.5 0 2 2 1.6666666666666667
          1 0 0 0.5 0 0.5
          0.5 1.5 1.5 0.5 1 1
          1 2 1 2 2 2
          2 1.25 1.75 2 2 2
          1.5 0 0 0 0.25 0.75
          0 0 0.5 1 0 1
          0.75 1 1 0.5 0.6666666666666666 2
          1.75 2 1.6666666666666667 1 1 1.5
          1.25 0.75 1 2 2 2
          1.75 0 0 1 0.6666666666666666 0
          0.25 0.5 0 0 0.75 1.25
          0 2 2 2 2 2
          2 2 2 2 2 2
          2 2 2 2 2 2
          2 2 2 1 1 0
          0 1 1 0 1.25 1.75
          0.5 1.5 1.5 2 1 2
          1.5 2 0.5 0 0 0
          2 1.75 2 2 1.25 1.5
          2 2 2 2 0.5 0.5
          0 0 1.5 1.5 1 2
          2 2 2 2 2 2
          2 2 2 2 2 2
          2 2 2 2 0 0
          0 0 0 0 0 0
          0 0 0 0 0 0
          0 0 0 0 0 0
          0 0 0 0 0 0
          0 0 0 0 0 0
          0 0 0 0 0 0
          0 0 0 0 0 0
          0 0 0 0 0
        </DataArray>
        <DataArray type="Float64" Name="markers_mustrefine" format="ascii" RangeMin="0" RangeMax="2">
          2 2 0 2 2 1.5
          1.25 1.5 0 2 2 2
          2 1.25 1.5 2 2 2
          1.5 2 2 2 2 2
          2 2 2 2 2 2
          2 2 2 2 2 2
          2 2 2 2 2 2
          2 2 2 2 2 1
          1.5 1 1.5 0 1 1
          2 2 2 1 1.5 1
          1.5 0 1 1 2 2
          2 2 2 2 2 2
          2 2 2 2 2 2
          2 2 2 2 2 2
          2 2 2 2 2 2
          2 2 2 2 2 2
          2 2 2 2 2 2
          2 2 2 2 2 2
          2 2 2 2 2 2
          2 2 2 2 2 2
          2 2 2 2 2 2
          2 2 2 2 2 2
          2 2 2 2 2 2
          2 2 2 2 2 2
          2 2 2 2 2 2
          2 2 2 2 2 2
          2 2 2 2 2 2
          2 2 2 2 2 2
          2 2 2 2 2 2
          2 2 2 2 2 2
          2 2 2 2 2 2
          2 2 2 2 2 2
          2 2 2 2 2 2
          2 2 2 2 2 2
          2 2 2 2 2 2
          2 2 2 2 2 2
          2 2 2 2 2 2
          2 2 2 2 2 2
          2 2 2 2 2 2
          2 2 2 2 2 2
          2 2 2 2 2 2
          2 2 2 2 2 2
          2 2 2 2 2 2
          2 2 2 2 2 2
          2 2 2 2 2 2
          2 2 2 2 2 2
          2 2 2 2 2 2
          2 2 2 2 0 0.5
          0.25 0 1 1 1 0.5
          0 0 0 0 0 0
          1 0.25 0 0 0.5 1
          0.5 0 1 2 2 2
          2 2 2 2 2 2
          2 2 2 2 2 1
          1.5 1 2 2 2 2
          2 2 0 0 0
        </DataArray>
        <DataArray type="Float64" Name="gradient_marker" format="ascii" RangeMin="0" RangeMax="1">
          0 1 0.625 0 1 1
          0.75 0.75 0.625 0.75 1 0.5
          0.75 0.75 0.75 0 0.5 0.5
          1 1 1 1 1 0.5
          1 0.75 1 0.875 1 1
          0.25 0.625 0.75 1 1 0.875
          1 1 1 1 1 0.75
          0.75 0.5 0.625 0.5 0.875 0
          0.25 0 0.25 0 0 0
          0.75 0.75 0.5 0 0.25 0
          0.25 0 0 0 0.75 0.75
          0.5 0.5 0.625 0.25 0.375 0.875
          0.75 0 0.25 0 0.75 0
          0.125 0 0 0.625 0.5 0
          0 0 0.5 1 1 1
          1 1 1 1 1 1
          1 1 1 1 1 1
          1 0.75 0.5 0.5 0.75 0.75
          0 0 0.5 0 0 0.5
          1 1 0 0 0 0
          0 0 0 0 0 0
          0 0 0 0 0 0
          0 0 0 0 0 0
          0 0 0 0 0 0
          0 0 0 0 0 0
          0 0 0 0 0 0
          0 0 0 0 0 0
          0 0 0 0 0 0
          0 0 0 0 0 0
          0 0 0 0 0 0
          0 0 0 0 0 0
          0 0 0 0 0 0
          0 0 0 0 0 0
          0 0 0 0 0 0
          0 0 0 0 0 0
          0 0 0 0 0 0
          0 0 0 0 0 0
          0 0 0 0 0 0
          0 0 0 0 0 0
          0 0 0 0 0 0
          0 0 0 0 0 0
          0 0 0 0 0 0
          0 0 0 0 0 0
          0 0 0 0 0 0
          0 0 0 0 0 0
          0 0 0 0 0 0
          0 0 0 0 0 0
          0 0 0 0 0.75 0.5
          0.5 0.75 0.75 0.5 0.5 0.5
          0.375 0.625 0.75 0.3333333333333333 0.5 0.75
          0.625 0.875 1 0.3333333333333333 0.625 1
          1 1 0.75 0.25 0.5 0.75
          0.375 0 0.5 0.25 0.25 0.75
          0.625 0.5 1 1 1 0
          0.25 0 0.625 1 1 0.875
          0.75 1 0.125 0.25 0
        </DataArray>
        <DataArray type="Float64" Name="gradient_matprop_marker" format="ascii" RangeMin="0" RangeMax="0">
          0 0 0 0 0 0
          0 0 0 0 0 0
          0 0 0 0 0 0
          0 0 0 0 0 0
          0 0 0 0 0 0
          0 0 0 0 0 0
          0 0 0 0 0 0
          0 0 0 0 0 0
          0 0 0 0 0 0
          0 0 0 0 0 0
          0 0 0 0 0 0
          0 0 0 0 0 0
          0 0 0 0 0 0
          0 0 0 0 0 0
          0 0 0 0 0 0
          0 0 0 0 0 0
          0 0 0 0 0 0
          0 0 0 0 0 0
          0 0 0 0 0 0
          0 0 0 0 0 0
          0 0 0 0 0 0
          0 0 0 0 0 0
          0 0 0 0 0 0
          0 0 0 0 0 0
          0 0 0 0 0 0
          0 0 0 0 0 0
          0 0 0 0 0 0
          0 0 0 0 0 0
          0 0 0 0 0 0
          0 0 0 0 0 0
          0 0 0 0 0 0
          0 0 0 0 0 0
          0 0 0 0 0 0
          0 0 0 0 0 0
          0 0 0 0 0 0
          0 0 0 0 0 0
          0 0 0 0 0 0
          0 0 0 0 0 0
          0 0 0 0 0 0
          0 0 0 0 0 0
          0 0 0 0 0 0
          0 0 0 0 0 0
          0 0 0 0 0 0
          0 0 0 0 0 0
          0 0 0 0 0 0
          0 0 0 0 0 0
          0 0 0 0 0 0
          0 0 0 0 0 0
          0 0 0 0 0 0
          0 0 0 0 0 0
          0 0 0 0 0 0
          0 0 0 0 0 0
          0 0 0 0 0 0
          0 0 0 0 0 0
          0 0 0 0 0 0
          0 0 0 0 0
        </DataArray>
        <DataArray type="Float64" Name="combo" format="ascii" RangeMin="0" RangeMax="2">
          2 1 0.625 0 1 1
          0.75 0.75 0.625 0.75 1 1
          0.75 0.75 0.75 2 0.5 1.5
          1 1 1 1 1 0.5
          1 0.75 1 0.875 1 1
          0.25 0.625 0.75 1 1 0.875
          1 1 1 1 1 0.75
          0.75 0.5 0.625 0.5 0.875 0
          0.25 0 0.25 0 0 0
          0.75 0.75 0.5 0 0.25 0
          0.25 0 0 0 0.75 0.75
          0.5 1 0.875 1.75 1.125 0.875
          0.75 2 1.25 2 0.75 2
          1.625 2 2 0.625 0.75 2
          2 2 0.5 1 1 1
          1 1 1 1 1 1
          1 1 1 1 1 1
          1 0.75 1.5 1 0.75 0.75
          2 2 1 2 2 1.5
          1 1 0 0 0 0
          0 0 0 0 0 0
          0 0 0.5 0 0 0
          0 0 0 0 1 0
          1 0.5 0 2 2 1.6666666666666667
          1 0 0 0.5 0 0.5
          0.5 1.5 1.5 0.5 1 1
          1 2 1 2 2 2
          2 1.25 1.75 2 2 2
          1.5 0 0 0 0.25 0.75
          0 0 0.5 1 0 1
          0.75 1 1 0.5 0.6666666666666666 2
          1.75 2 1.6666666666666667 1 1 1.5
          1.25 0.75 1 2 2 2
          1.75 0 0 1 0.6666666666666666 0
          0.25 0.5 0 0 0.75 1.25
          0 2 2 2 2 2
          2 2 2 2 2 2
          2 2 2 2 2 2
          2 2 2 1 1 0
          0 1 1 0 1.25 1.75
          0.5 1.5 1.5 2 1 2
          1.5 2 0.5 0 0 0
          2 1.75 2 2 1.25 1.5
          2 2 2 2 0.5 0.5
          0 0 1.5 1.5 1 2
          2 2 2 2 2 2
          2 2 2 2 2 2
          2 2 2 2 0.75 0.5
          0.5 0.75 0.75 0.5 0.5 0.5
          0.375 0.625 0.75 0.3333333333333333 0.5 0.75
          0.625 0.875 1 0.3333333333333333 0.625 1
          1 1 0.75 0.25 0.5 0.75
          0.375 0 0.5 0.25 0.25 0.75
          0.625 0.5 1 1 1 0
          0.25 0 0.625 1 1 0.875
          0.75 1 0.125 0.25 0
        </DataArray>
        <DataArray type="Float64" Name="dHdT" format="ascii" RangeMin="26.203226808734392" RangeMax="132.07023395449846">
          45.952920651987895 31.36118970638693 27.499279888945026 48.217736432944236 32.33428601908225 32.195250238197595
          30.732143390408183 29.874442792018336 28.101217366628667 40.134342005848715 37.91207095409849 48.82912094413474
          36.31721398496378 31.56629860368146 30.60996060798584 95.9982526261471 39.883811937342394 51.86593890313921
          33.2202479859896 34.93005965997361 34.32412756689399 34.75660896648926 33.74614547556226 32.53395112948627
          35.63950227458508 35.0747012351451 36.47568281591503 36.17810450830604 36.31147510377842 35.96375759880539
          33.39123943713039 35.05909190132703 34.74656234113304 40.59889221693397 39.37915164906587 39.571231303705744
          37.46741838143831 36.52445663114697 35.90365342238883 37.137687155694415 35.98938358141294 34.34907358250718
          33.84294873437412 44.15748755940462 39.47501061355671 42.14077386964817 37.186956349729165 31.0952192397129
          32.83868094837894 30.70658835699829 32.462268451187064 29.91785980087016 31.43970429480089 31.047452313940383
          35.50676132806835 35.19898021968939 34.23809697445786 30.230872690614408 31.98677360759977 29.693933768175448
          31.416436704134803 29.11203859607066 30.55825026381587 29.988055946652853 34.80706530510409 34.31588651065373
          33.36323581873913 58.97879729713675 44.06674237379471 80.81330169331227 58.28809187412568 38.2587559793207
          38.72541186090651 122.27229254333315 62.15717006298756 89.03427676823446 38.42138720593723 73.25763036040527
          68.28795702743705 58.85847376849496 64.42623810756535 40.69012634820033 43.68729792558551 45.43642989662493
          72.78714372290835 58.67045997043394 46.90809139426375 36.65995033684321 36.63766381188633 35.98571468676754
          35.655108845887554 36.8885206745947 37.095315729769695 36.45678421335097 36.908023706811605 37.15189160568492
          35.24818219247598 34.73819685217369 37.944591328000165 38.81094983015655 35.77435467903479 37.562490725455106
          35.905600831302536 33.2096179704238 50.5952254425862 43.92380106723084 36.088747427763586 33.712877533354145
          51.90670017999453 59.2423551736284 45.26636969066695 46.22086079912012 51.514078202407795 51.2572035342238
          36.87894107109277 38.74858548064322 40.11085411785005 49.55311553145237 45.128424913504446 40.70373429555653
          50.145995709158846 38.07361875350294 43.76588500511653 41.49068335386003 46.698243539402256 39.215481702603526
          53.21161219103313 50.4079515173609 54.22422203109143 43.17245105357948 37.00145470660887 37.739342991005906
          39.15116945183736 36.738074718541526 51.67505787617199 46.93536151233588 63.02084131218767 42.195665148499764
          53.406426467435935 50.347081402947815 47.287736338459695 94.12534250023144 80.89219978072846 83.25499423267453
          56.82561111019861 39.217585829491476 41.674904344576596 47.15434030072594 37.357643529981445 66.59788794089299
          57.286402278658684 98.17198303049183 81.47550175697607 47.97491661642439 58.73431769181763 81.520718005614
          67.6374430449815 99.93016220176446 53.75416808434901 113.09778822736494 98.28669780161232 99.92988984386523
          97.99153162419427 67.55590653560999 79.37744499389606 132.07023395449846 115.68119582249619 102.41084392557309
          78.28620196102136 42.02082292946764 37.39673375040296 44.8240600294438 44.63612278399731 51.318332515509056
          37.63603987263436 39.934948447749285 47.59734122341803 55.48232473029216 37.91443621528729 58.57369976161053
          54.48853516392785 64.58080917455489 60.19436387180248 50.40337056624518 52.64188497880682 83.73269548015939
          79.8705333216893 75.30515545949056 72.34722382928267 65.75591735648882 62.45671708399594 64.88391642312953
          62.63348641852979 53.37710742555671 55.34479871362443 63.74951549822334 67.77621019402324 61.56133962556426
          67.731899252799 41.74617406772995 37.18253033713961 53.13077094320323 53.9802824836789 41.23661272499689
          42.90438082907073 44.940525682590895 38.212063618531126 39.574510351862976 54.232664082877506 56.198640112236006
          44.804434549980165 75.07150598665218 83.82958404209649 56.49309689240731 66.34116326925448 81.98722662821667
          75.40093750638432 56.05913553109008 75.40448841481003 55.762499823730565 86.24924722745278 47.4661861689572
          54.18103868474104 45.83737790546862 48.958390624081815 67.66017803346787 61.44113240517427 45.73356386341222
          47.31513963206659 45.83685280300327 63.43832135887173 58.197899113342864 62.15925663218202 45.00900706779316
          49.70586789769707 63.265027283482496 66.59353625327122 48.781401410589424 64.27621730964259 64.10056138159158
          54.12796975287429 57.39826129552962 68.15652512066573 66.53372445205557 58.33312292430898 60.43786508993564
          56.551007130164116 56.96327950081595 47.750404964386036 39.92597027064354 40.52121601374839 37.0152797829076
          61.56758137446256 61.01756338779002 58.746427527238964 59.1669918116727 56.16144066816442 55.84492180629283
          54.31540641140455 56.665824963948225 53.85635866495868 61.73970475539515 45.99100690766926 46.59033008865154
          40.12667788012716 41.078372660823874 56.891395833042736 56.7495748457538 49.31962567178706 46.02899575637807
          46.93725933460158 46.15005389718004 46.24389403224484 56.53370009341326 53.67006759958857 46.12447634893651
          46.02698838672263 46.145774857101785 54.160467047979026 61.67389634218786 59.604795747214055 58.12591541037429
          58.2071904625606 61.62104456298523 58.369885966475216 60.85065545452118 28.12192594169548 27.729157689251096
          27.394770881783842 27.74839803475726 32.725868744120575 31.306654475189656 27.270423152317584 27.005084011187947
          26.754275718913576 27.00252244905562 28.589089529779674 26.614598226986505 26.93300424806022 27.219234024416043
          32.196089395092415 27.968890066339753 28.403813841374646 26.785989167084182 27.45316313360634 33.84749606933565
          28.556273390449846 29.049391569913652 27.924180565986696 37.36589695638267 39.47426313666976 38.45278764670467
          37.1323964003001 37.99787623872582 40.04502309847069 37.39658838401809 35.29420764370431 36.63436731284504
          36.36656382806072 35.3051573623834 38.054649155983 37.67080705749737 37.13804230825213 31.3997583268902
          33.12825488532046 31.74495538915053 35.75336358976801 37.80067650626974 38.277937999448525 36.837835609666044
          36.25133218231791 37.0256954835468 26.2640983099779 26.39855739801239 26.203226808734392
        </DataArray>
        <DataArray type="Float64" Name="dk/dtemperature" format="ascii" RangeMin="0.006626162491348051" RangeMax="0.15082748286604392">
          0.007998874999999997 0.010914961126383928 0.013849696912477848 0.008783564033432419 0.009887668999045609 0.010257144724126784
          0.011345759720606469 0.011959922382812068 0.013218618227728105 0.0077107271598268615 0.007664488932677655 0.010571907426426117
          0.00802841037378818 0.010750851478569688 0.011405328225474803 0.046940357866043794 0.009059324954704021 0.021440585672035415
          0.00919538956962325 0.008388886876079367 0.008882652062141165 0.008604001594985873 0.009265590147910154 0.010029072884253094
          0.007890968121122804 0.008392910345858727 0.007161990884286646 0.0074722976620693205 0.007320111045392247 0.0077888737641789545
          0.009535557150121058 0.008230290541605168 0.00853171326541514 0.007672746566933366 0.007794413793663114 0.007981541039472826