<?xml version="1.0"?>
<VTKFile type="UnstructuredGrid" version="0.1" byte_order="LittleEndian" header_type="UInt32" compressor="vtkZLibDataCompressor">
  <UnstructuredGrid>
    <Piece NumberOfPoints="299" NumberOfCells="179">
      <PointData>
        <DataArray type="Int32" Name="libmesh_node_id" format="ascii" RangeMin="239" RangeMax="2684">
          239 583 584 585 586 589
          590 591 1022 1030 1031 1032
          1033 1056 1057 1059 1062 1064
          1065 1066 1067 1068 1069 1070
          1071 1072 1073 1122 1123 1125
          1160 1161 1164 1166 1167 1169
          1806 1807 1808 1809 1819 1820
          1865 1866 1867 1868 1869 1870
          1871 1872 1873 1874 1875 1876
          1877 1878 1883 1884 1885 1886
          1887 1890 1891 1892 2005 2006
          2007 2008 2009 2010 2011 2012
          2013 2014 2022 2023 2025 2026
          2027 2039 2040 2041 2042 2043
          2044 2045 2046 2047 2048 2056
          2057 2059 2060 2061 2063 2064
          2065 2066 2067 2068 2069 2070
          2071 2072 2073 2074 2075 2076
          2077 2078 2079 2080 2081 2082
          2083 2084 2085 2086 2087 2088
          2089 2090 2091 2092 2093 2094
          2095 2096 2097 2098 2099 2100
          2101 2102 2103 2104 2105 2106
          2107 2108 2109 2110 2111 2112
          2113 2114 2115 2116 2117 2118
          2119 2120 2121 2122 2123 2124
          2125 2126 2127 2128 2129 2130
          2333 2334 2335 2336 2337 2338
          2339 2340 2341 2342 2353 2354
          2357 2358 2359 2516 2517 2518
          2519 2520 2521 2522 2523 2524
          2525 2536 2537 2538 2539 2540
          2541 2542 2550 2551 2552 2553
          2554 2555 2556 2557 2558 2559
          2570 2571 2572 2573 2574 2575
          2576 2657 1800 1802 1803 1801
          1805 1804 1816 1815 1859 1860
          1861 1862 1863 1864 1024 1838
          1839 1830 1026 1840 1841 1025
          1027 1879 1880 1881 1818 1882
          1856 1847 1857 1858 1028 1888
          1029 1889 1961 1925 1965 1929
          1962 1966 1968 1972 1969 1973
          2171 2135 2172 2175 2139 2176
          2178 2179 2182 2183 2199 2155
          2200 2203 2159 2204 2206 2207
          2210 2211 2295 2296 1114 2297
          2298 1115 2320 2321 2322 2355
          1120 2356 2462 2466 2463 2467
          2652 2653 2656 2680 2684
        </DataArray>
        <DataArray type="Float64" Name="bounds" format="ascii" RangeMin="0" RangeMax="0">
          0 0 0 0 0 0
          0 0 0 0 0 0
          0 0 0 0 0 0
          0 0 0 0 0 0
          0 0 0 0 0 0
          0 0 0 0 0 0
          0 0 0 0 0 0
          0 0 0 0 0 0
          0 0 0 0 0 0
          0 0 0 0 0 0
          0 0 0 0 0 0
          0 0 0 0 0 0
          0 0 0 0 0 0
          0 0 0 0 0 0
          0 0 0 0 0 0
          0 0 0 0 0 0
          0 0 0 0 0 0
          0 0 0 0 0 0
          0 0 0 0 0 0
          0 0 0 0 0 0
          0 0 0 0 0 0
          0 0 0 0 0 0
          0 0 0 0 0 0
          0 0 0 0 0 0
          0 0 0 0 0 0
          0 0 0 0 0 0
          0 0 0 0 0 0
          0 0 0 0 0 0
          0 0 0 0 0 0
          0 0 0 0 0 0
          0 0 0 0 0 0
          0 0 0 0 0 0
          0 0 0 0 0 0
          0 0 0 0 0 0
          0 0 0 0 0 0
          0 0 0 0 0 0
          0 0 0 0 0 0
          0 0 0 0 0 0
          0 0 0 0 0 0
          0 0 0 0 0 0
          0 0 0 0 0 0
          0 0 0 0 0 0
          0 0 0 0 0 0
          0 0 0 0 0 0
          0 0 0 0 0 0
          0 0 0 0 0 0
          0 0 0 0 0 0
          0 0 0 0 0 0
          0 0 0 0 0 0
          0 0 0 0 0
        </DataArray>
        <DataArray type="Float64" Name="gradient_error" format="ascii" RangeMin="6.662890506949624e-10" RangeMax="4.4292324507619217e-8">
          2.1871041361317644e-8 2.866680864638921e-8 1.3413945266719913e-8 1.0900221058816793e-8 4.353492942217828e-9 2.7590073303346408e-8
          2.9087188197582784e-8 1.0727437901242433e-8 2.3829470283479625e-8 1.917440151533418e-8 1.5683198283759494e-8 8.69424542546239e-9
          8.326189595405335e-9 3.76732083908144e-8 4.0394344947371333e-8 2.377399352041675e-8 4.23042376344064e-8 3.2254330397588515e-8
          2.9522339190468577e-8 1.988249664671894e-8 1.7219337706696795e-8 1.5519665899154903e-8 8.544020185932053e-9 2.999174106434754e-8
          3.469000487869395e-8 2.0871365190080195e-8 1.9153229063377377e-8 4.979406631097041e-9 3.8865193092072474e-9 1.8921252368301935e-9
          1.0174453280428288e-8 8.279966479232823e-9 3.810764331257846e-9 1.2019485874318187e-8 1.0430007568410072e-8 4.854168388567701e-9
          3.2505717534355684e-8 3.115110802097618e-8 2.7450724268692612e-8 2.737657335253635e-8 2.1902606217740024e-8 1.8632755361438028e-8
          2.394425627817163e-8 2.285861962672552e-8 1.8274102766603494e-8 1.971114533145628e-8 8.881179641645872e-9 8.418558336232973e-9
          6.367638897176335e-9 6.020825312090603e-9 7.1627420082116484e-9 5.089204344261897e-9 1.478933948490151e-8 1.40604336285368e-8
          1.0320450310605814e-8 1.1971483404384273e-8 1.5261784294789616e-8 1.2017157178951636e-8 1.0774544869114457e-8 5.491469084452291e-9
          3.867962022166969e-9 9.047691200137597e-9 6.482103689181097e-9 6.160366627742125e-9 4.0566930187251594e-8 4.0424694954954733e-8
          3.766048045752519e-8 3.704785531511377e-8 3.7746436057396315e-8 3.360084054435171e-8 3.85816489409232e-8 4.1107157226222164e-8
          3.964256960006933e-8 4.3625581626694894e-8 3.0575182973834804e-8 2.651773555161535e-8 1.8600880954769917e-8 3.8400509402633703e-8
          3.3981606551727007e-8 3.1619640601895795e-8 3.643511091894313e-8 3.1089241413600486e-8 3.588050644623112e-8 4.4292324507619217e-8
          4.234601336728913e-8 2.8270294015642067e-8 3.3956732061849504e-8 3.340906716754994e-8 4.382323123260799e-8 4.2917750704922425e-8
          3.8846676819239956e-8 2.7650088828832023e-8 4.4208420953825825e-8 4.0430297920983705e-8 3.3107091078833025e-8 3.216757267419579e-8
          2.729432655763625e-8 2.6302788645638343e-8 2.8437824131947126e-8 2.2912947983351503e-8 3.5923069470095135e-8 3.686904109366428e-8
          3.21725984104887e-8 3.56056135076149e-8 2.1276698636274982e-8 2.0437664408766857e-8 1.599080352989372e-8 1.530110293394506e-8
          1.7698814919314496e-8 1.3109666665237855e-8 2.6219170586367782e-8 2.5725557839852632e-8 1.9409541558349126e-8 2.3030342354212524e-8
          2.19986585086612e-8 1.7534499379156108e-8 1.520179530969144e-8 1.1950159580369291e-8 2.8618956405165934e-8 2.2982169670190283e-8
          1.957946416903403e-8 1.3417936187724498e-8 9.781010454363461e-9 8.984618399082443e-9 6.4312949522853325e-9 1.7706570068992047e-8
          1.307434269472243e-8 1.180226994907068e-8 3.132923335486769e-8 3.524896891744051e-8 3.1620310397407266e-8 3.351913484068519e-8
          3.887610025990906e-8 3.352978686221936e-8 2.7951411406410112e-8 3.3309683077993675e-8 3.302833345701206e-8 3.9475983033695705e-8
          2.7990436129539526e-8 2.8381636828456266e-8 2.1584775329149875e-8 2.1601963387698377e-8 2.661633856172885e-8 1.9950273765208116e-8
          2.7974938945222665e-8 2.8917704475112056e-8 2.2169806669484423e-8 2.7820569115701636e-8 3.330388077884186e-8 2.69871417036378e-8
          2.2866334887969982e-8 1.816972800742537e-8 3.493727968811102e-8 2.8443157644101733e-8 2.409119979188759e-8 2.083300775719496e-8
          1.5476392721021e-8 1.3893549350917125e-8 1.0135560656279014e-8 2.1975222024602172e-8 1.6348152321243827e-8 1.46652872252042e-8
          4.333885286045429e-9 4.090593995931878e-9 2.8014336836491066e-9 2.641424117317791e-9 3.4423526724350335e-9 2.2180529087453086e-9
          7.590024538797299e-9 7.15898990042254e-9 4.684087523843301e-9 5.976430055585536e-9 2.602580013159277e-9 1.6745309507620115e-9
          4.410715067768721e-9 2.8513929953867605e-9 2.9365349134675553e-9 1.146634516301104e-8 1.0901230683613271e-8 7.710787094685507e-9
          7.288067836110219e-9 9.198946615312494e-9 6.071721766049876e-9 1.4632322255658638e-8 1.4159754317520844e-8 9.738526957719662e-9
          1.2316712630686366e-8 6.748697714610327e-9 4.400300704784738e-9 4.375379627709625e-9 2.8301666206869787e-9 9.147441870627502e-9
          6.0250838977219575e-9 5.862173190746797e-9 1.6167899408877726e-8 1.5996378975226538e-8 1.1613585237935063e-8 1.1297341214005056e-8
          1.4443094832991445e-8 9.867130679438725e-9 1.6496827554453923e-8 1.650301429500301e-8 1.1786526540428315e-8 1.5167918477967627e-8
          1.0937373803915076e-8 7.265304263149876e-9 6.998843488269148e-9 4.56817330505737e-9 1.159481186189741e-8 7.727941695854033e-9
          7.4254860236462405e-9 2.2073745592058248e-9 2.213122083763353e-8 1.827283679447896e-8 1.7466853457988368e-8 2.100749515281748e-8
          1.522387042897001e-8 1.8441337769444476e-8 1.2154523332976102e-8 1.5099539041772682e-8 1.4927923954435446e-8 1.4234333097509917e-8
          1.177358085785365e-8 1.1195791512582034e-8 1.2321161590200835e-8 9.607108678247652e-9 6.497714571823652e-9 4.760745898733875e-9
          4.5299414768488254e-9 6.194743091553325e-9 3.3386869649117723e-9 3.1721959833513174e-9 3.909608707508414e-9 5.376270089196449e-9
          2.72701659110624e-9 9.695460801104278e-9 7.453227005008058e-9 7.02926419336821e-9 9.017735280900752e-9 5.3069625394387255e-9
          3.0826977700194866e-9 4.275282450049598e-9 2.138780164049481e-9 2.250645637973891e-9 3.1533958147991824e-9 3.856840317573971e-9
          1.5525003377690941e-9 2.691486601543296e-9 4.804525197325401e-9 6.332348561516296e-9 7.115624184749056e-9 9.127273153455069e-9
          3.5496426784392203e-9 5.369857720094401e-9 2.5416835288615642e-9 3.90183202521492e-9 1.758335619340502e-9 2.723238075548298e-9
          9.782775658737374e-9 1.2292664983541611e-8 7.504708991302308e-9 1.234008798845323e-8 1.5315176208825757e-8 9.580950540772499e-9
          5.522486906527851e-9 3.888650544598335e-9 7.121528184565953e-9 5.052642886739523e-9 1.4207079502596869e-8 1.754278285417079e-8
          1.1107230775003021e-8 1.4894569987948141e-8 1.8365661506116372e-8 1.1669222305714792e-8 8.311084615509942e-9 5.927038608247955e-9
          8.75218146021095e-9 6.253094347444516e-9 2.2392145426031843e-9 2.125808499331822e-9 1.4373600850696426e-9 1.3644539302813582e-9
          1.8239642647112818e-9 1.170907865692786e-9 1.427599816688609e-9 9.175203864498653e-10 1.0347507077346712e-9 1.8026840599070736e-9
          6.662890506949624e-10 1.1600253072841042e-9 1.1732598368424217e-9 1.8249452711965753e-9 7.560033687614962e-10 1.175490340619645e-9
          2.6185228898912568e-9 1.6880018902113328e-9 3.418620763084561e-9 4.0243341803199e-9 4.251171236489329e-9
        </DataArray>
        <DataArray type="Float64" Name="gradient_matprop_error" format="ascii" RangeMin="0" RangeMax="0">
          0 0 0 0 0 0
          0 0 0 0 0 0
          0 0 0 0 0 0
          0 0 0 0 0 0
          0 0 0 0 0 0
          0 0 0 0 0 0
          0 0 0 0 0 0
          0 0 0 0 0 0
          0 0 0 0 0 0
          0 0 0 0 0 0
          0 0 0 0 0 0
          0 0 0 0 0 0
          0 0 0 0 0 0
          0 0 0 0 0 0
          0 0 0 0 0 0
          0 0 0 0 0 0
          0 0 0 0 0 0
          0 0 0 0 0 0
          0 0 0 0 0 0
          0 0 0 0 0 0
          0 0 0 0 0 0
          0 0 0 0 0 0
          0 0 0 0 0 0
          0 0 0 0 0 0
          0 0 0 0 0 0
          0 0 0 0 0 0
          0 0 0 0 0 0
          0 0 0 0 0 0
          0 0 0 0 0 0
          0 0 0 0 0 0
          0 0 0 0 0 0
          0 0 0 0 0 0
          0 0 0 0 0 0
          0 0 0 0 0 0
          0 0 0 0 0 0
          0 0 0 0 0 0
          0 0 0 0 0 0
          0 0 0 0 0 0
          0 0 0 0 0 0
          0 0 0 0 0 0
          0 0 0 0 0 0
          0 0 0 0 0 0
          0 0 0 0 0 0
          0 0 0 0 0 0
          0 0 0 0 0 0
          0 0 0 0 0 0
          0 0 0 0 0 0
          0 0 0 0 0 0
          0 0 0 0 0 0
          0 0 0 0 0
        </DataArray>
        <DataArray type="Float64" Name="initial_marker" format="ascii" RangeMin="2" RangeMax="2">
          2 2 2 2 2 2
          2 2 2 2 2 2
          2 2 2 2 2 2
          2 2 2 2 2 2
          2 2 2 2 2 2
          2 2 2 2 2 2
          2 2 2 2 2 2
          2 2 2 2 2 2
          2 2 2 2 2 2
          2 2 2 2 2 2
          2 2 2 2 2 2
          2 2 2 2 2 2
          2 2 2 2 2 2
          2 2 2 2 2 2
          2 2 2 2 2 2
          2 2 2 2 2 2
          2 2 2 2 2 2
          2 2 2 2 2 2
          2 2 2 2 2 2
          2 2 2 2 2 2
          2 2 2 2 2 2
          2 2 2 2 2 2
          2 2 2 2 2 2
          2 2 2 2 2 2
          2 2 2 2 2 2
          2 2 2 2 2 2
          2 2 2 2 2 2
          2 2 2 2 2 2
          2 2 2 2 2 2
          2 2 2 2 2 2
          2 2 2 2 2 2
          2 2 2 2 2 2
          2 2 2 2 2 2
          2 2 2 2 2 2
          2 2 2 2 2 2
          2 2 2 2 2 2
          2 2 2 2 2 2
          2 2 2 2 2 2
          2 2 2 2 2 2
          2 2 2 2 2 2
          2 2 2 2 2 2
          2 2 2 2 2 2
          2 2 2 2 2 2
          2 2 2 2 2 2
          2 2 2 2 2 2
          2 2 2 2 2 2
          2 2 2 2 2 2
          2 2 2 2 2 2
          2 2 2 2 2 2
          2 2 2 2 2
        </DataArray>
        <DataArray type="Float64" Name="markers_norefine" format="ascii" RangeMin="0" RangeMax="2">
          0 0 0 0 0 2
          0 0 0 0 0 0
          0 1.5 0.25 0 1 0
          0 0 0 0 0 1
          0 0 0 0 0 0
          0 0 0 0 0 0
          0 0 0 0 0 0
          0 0 0 0 0 0
          0 0 0 0 0 0
          0 0 0 0 0 0
          0 0 0 0 1 0.75
          0.5 0.25 0.25 0 2 1.75
          1 1 0 0 0 0.25
          0 2 2 2 1.75 1.5
          0.75 2 2 2 1.5 0.5
          0 0 0.5 0 0 0
          0 0 0 0 0.5 0.25
          0 0 0 0 0 0
          0 0 0 0 0 0
          0 0 0 0 0 0
          0 0 0 0 0 0
          0 0 1.5 1 0.5 0.25
          0.25 0 2 1.5 0.5 0.5
          0 0 0 0 0 0
          0 0 0 0 0 0
          0 0 0 0 0 0
          0 0 0 0 0 0
          0 0 0 0 0 0
          0 0 0 0 0 0
          0 0 0 0 0 0
          0 0 0 0 0 0
          0 0 0 0 0 0
          0 0 0 0 0 0
          0 0 0 0 0 0
          0 0 0 0 0 0
          0 0 0 0 0 0
          0 0 0 0 0 0
          0 0 0 0 0 0
          0 0 0 0 0 0
          0 0 0 0 0 0
          0 0 0 0 0 0
          0 0 0 0 0 0
          0 0 0 0 0 0
          0 0 0 0 0 0
          0 0 0 0 0 0
          0 0 0 0 0 0
          0 0 0 0 0 0
          0 0 0 0 0 0
          0 0 0 0 0 0
          0 0 0 0 0
        </DataArray>
        <DataArray type="Float64" Name="markers_mustrefine" format="ascii" RangeMin="2" RangeMax="2">
          2 2 2 2 2 2
          2 2 2 2 2 2
          2 2 2 2 2 2
          2 2 2 2 2 2
          2 2 2 2 2 2
          2 2 2 2 2 2
          2 2 2 2 2 2
          2 2 2 2 2 2
          2 2 2 2 2 2
          2 2 2 2 2 2
          2 2 2 2 2 2
          2 2 2 2 2 2
          2 2 2 2 2 2
          2 2 2 2 2 2
          2 2 2 2 2 2
          2 2 2 2 2 2
          2 2 2 2 2 2
          2 2 2 2 2 2
          2 2 2 2 2 2
          2 2 2 2 2 2
          2 2 2 2 2 2
          2 2 2 2 2 2
          2 2 2 2 2 2
          2 2 2 2 2 2
          2 2 2 2 2 2
          2 2 2 2 2 2
          2 2 2 2 2 2
          2 2 2 2 2 2
          2 2 2 2 2 2
          2 2 2 2 2 2
          2 2 2 2 2 2
          2 2 2 2 2 2
          2 2 2 2 2 2
          2 2 2 2 2 2
          2 2 2 2 2 2
          2 2 2 2 2 2
          2 2 2 2 2 2
          2 2 2 2 2 2
          2 2 2 2 2 2
          2 2 2 2 2 2
          2 2 2 2 2 2
          2 2 2 2 2 2
          2 2 2 2 2 2
          2 2 2 2 2 2
          2 2 2 2 2 2
          2 2 2 2 2 2
          2 2 2 2 2 2
          2 2 2 2 2 2
          2 2 2 2 2 2
          2 2 2 2 2
        </DataArray>
        <DataArray type="Float64" Name="gradient_marker" format="ascii" RangeMin="1" RangeMax="1">
          1 1 1 1 1 1
          1 1 1 1 1 1
          1 1 1 1 1 1
          1 1 1 1 1 1
          1 1 1 1 1 1
          1 1 1 1 1 1
          1 1 1 1 1 1
          1 1 1 1 1 1
          1 1 1 1 1 1
          1 1 1 1 1 1
          1 1 1 1 1 1
          1 1 1 1 1 1
          1 1 1 1 1 1
          1 1 1 1 1 1
          1 1 1 1 1 1
          1 1 1 1 1 1
          1 1 1 1 1 1
          1 1 1 1 1 1
          1 1 1 1 1 1
          1 1 1 1 1 1
          1 1 1 1 1 1
          1 1 1 1 1 1
          1 1 1 1 1 1
          1 1 1 1 1 1
          1 1 1 1 1 1
          1 1 1 1 1 1
          1 1 1 1 1 1
          1 1 1 1 1 1
          1 1 1 1 1 1
          1 1 1 1 1 1
          1 1 1 1 1 1
          1 1 1 1 1 1
          1 1 1 1 1 1
          1 1 1 1 1 1
          1 1 1 1 1 1
          1 1 1 1 1 1
          1 1 1 1 1 1
          1 1 1 1 1 1
          1 1 1 1 1 1
          1 1 1 1 1 1
          1 1 1 1 1 1
          1 1 1 1 1 1
          1 1 1 1 1 1
          1 1 1 1 1 1
          1 1 1 1 1 1
          1 1 1 1 1 1
          1 1 1 1 1 1
          1 1 1 1 1 1
          1 1 1 1 1 1
          1 1 1 1 1
        </DataArray>
        <DataArray type="Float64" Name="gradient_matprop_marker" format="ascii" RangeMin="0" RangeMax="0">
          0 0 0 0 0 0
          0 0 0 0 0 0
          0 0 0 0 0 0
          0 0 0 0 0 0
          0 0 0 0 0 0
          0 0 0 0 0 0
          0 0 0 0 0 0
          0 0 0 0 0 0
          0 0 0 0 0 0
          0 0 0 0 0 0
          0 0 0 0 0 0
          0 0 0 0 0 0
          0 0 0 0 0 0
          0 0 0 0 0 0
          0 0 0 0 0 0
          0 0 0 0 0 0
          0 0 0 0 0 0
          0 0 0 0 0 0
          0 0 0 0 0 0
          0 0 0 0 0 0
          0 0 0 0 0 0
          0 0 0 0 0 0
          0 0 0 0 0 0
          0 0 0 0 0 0
          0 0 0 0 0 0
          0 0 0 0 0 0
          0 0 0 0 0 0
          0 0 0 0 0 0
          0 0 0 0 0 0
          0 0 0 0 0 0
          0 0 0 0 0 0
          0 0 0 0 0 0
          0 0 0 0 0 0
          0 0 0 0 0 0
          0 0 0 0 0 0
          0 0 0 0 0 0
          0 0 0 0 0 0
          0 0 0 0 0 0
          0 0 0 0 0 0
          0 0 0 0 0 0
          0 0 0 0 0 0
          0 0 0 0 0 0
          0 0 0 0 0 0
          0 0 0 0 0 0
          0 0 0 0 0 0
          0 0 0 0 0 0
          0 0 0 0 0 0
          0 0 0 0 0 0
          0 0 0 0 0 0
          0 0 0 0 0
        </DataArray>
        <DataArray type="Float64" Name="combo" format="ascii" RangeMin="1" RangeMax="2">
          1 1 1 1 1 2
          1 1 1 1 1 1
          1 1.75 1.125 1 1.5 1
          1 1 1 1 1 1.5
          1 1 1 1 1 1
          1 1 1 1 1 1
          1 1 1 1 1 1
          1 1 1 1 1 1
          1 1 1 1 1 1
          1 1 1 1 1 1
          1 1 1 1 1.5 1.375
          1.25 1.125 1.125 1 2 1.875
          1.5 1.5 1 1 1 1.125
          1 2 2 2 1.875 1.75
          1.375 2 2 2 1.75 1.25
          1 1 1.25 1 1 1
          1 1 1 1 1.25 1.125
          1 1 1 1 1 1
          1 1 1 1 1 1
          1 1 1 1 1 1
          1 1 1 1 1 1
          1 1 1.75 1.5 1.25 1.125
          1.125 1 2 1.75 1.25 1.25
          1 1 1 1 1 1
          1 1 1 1 1 1
          1 1 1 1 1 1
          1 1 1 1 1 1
          1 1 1 1 1 1
          1 1 1 1 1 1
          1 1 1 1 1 1
          1 1 1 1 1 1
          1 1 1 1 1 1
          1 1 1 1 1 1
          1 1 1 1 1 1
          1 1 1 1 1 1
          1 1 1 1 1 1
          1 1 1 1 1 1
          1 1 1 1 1 1
          1 1 1 1 1 1
          1 1 1 1 1 1
          1 1 1 1 1 1
          1 1 1 1 1 1
          1 1 1 1 1 1
          1 1 1 1 1 1
          1 1 1 1 1 1
          1 1 1 1 1 1
          1 1 1 1 1 1
          1 1 1 1 1 1
          1 1 1 1 1 1
          1 1 1 1 1
        </DataArray>
        <DataArray type="Float64" Name="dHdT" format="ascii" RangeMin="25.974520972790327" RangeMax="59.571842799204916">
          36.79368207651734 35.72414433194961 29.971617683563125 28.800081293138803 26.849813619911473 57.813454147830754
          35.42659410317158 28.57754424473388 34.125325851094004 32.39439750421551 30.636651790429532 28.00660445737088
          27.97319688098904 52.26109952657001 42.636054856436196 33.98903838532562 50.41471022598742 38.81823480253124
          36.16620873195854 34.21038054529007 31.562217192312218 30.455990650682427 27.926404367034607 46.45443066783409
          38.52407119243872 33.83340959625487 31.95837454669833 27.012799527758403 26.714890594700773 26.248496285942316
          28.9268139605905 27.964048761021637 26.687776675831465 30.32927071863429 28.805083331777986 26.938440884295915
          37.863987626102926 37.2222033433963 35.33853557568546 35.780427107276594 33.83657266946413 32.11888032435613
          34.24553926255029 33.77857214304365 31.90768549317313 32.41288558908785 28.12456571114132 27.976129366430953
          27.37839314015101 27.281014025012716 27.60504969642779 27.034337991599855 30.408290875500587 30.025811916271177
          28.567811421501013 29.111180123867918 30.5139215280838 29.15203195114075 28.82933025375378 27.161620581264692
          26.734623446927248 28.120672551376234 27.376691171812492 27.330202392641514 45.99067857127889 44.25074019411893
          41.67543202457206 40.410068462619066 40.12017501584286 37.59559935841385 54.62379063597761 52.915928551720626
          49.22050473386046 47.02485477111843 36.53599399846362 34.85708153823376 32.09591566657117 39.78265924782278
          37.39802495716383 52.87975646023101 54.24494940356369 57.99133116770119 55.64697368690395 52.06643731401026
          48.18140128377655 48.904239175146444 52.50034912361447 56.894008598247865 53.24964533484233 43.25891300292692
          39.79128130541415 35.084924755793864 44.65267362790349 40.784120201455366 38.086293771351585 37.378511573094826
          35.769167503301176 35.25930184077445 35.62520045135266 33.6689450425331 45.08860553804861 42.85938059679176
          38.02790863265703 38.738962711382705 33.78814705578956 33.166730341372904 31.28059746710464 30.77097580029315
          31.52045291570724 29.56447049313863 36.44775583006548 35.89102047824153 33.468038276554275 34.075470351171205
          33.15912374809629 31.285476627365874 30.474201184679774 29.114174102087105 35.442411275018884 33.471096205047154
          32.231520708408624 29.582044641993363 28.303764375808022 28.09533869680649 27.36101712991124 31.346403844701157
          29.447353111375588 28.977474915551028 54.90692932302852 50.523219982019036 43.533056728892184 41.414391577011415
          42.30299035287081 37.81910810643905 59.571842799204916 54.282877384673974 43.42362342624064 44.100327075101255
          37.46125944851242 37.10860341755137 36.188501295721395 35.42008275925568 35.64556302399054 33.22294457921267
          37.66132418970642 37.379890693735135 36.05003333959756 36.09878795773382 36.93603640761073 34.85167706767782
          33.43854114021175 31.549756038733324 37.49510851679338 35.28302376551497 33.83868448396634 32.74555081458938
          30.465448315441247 29.739740310912445 28.393420265527343 33.25069882330071 30.8769935252784 30.04907867989583
          26.841351113183872 26.77879020222167 26.464260669178223 26.42491630144922 26.618339587039202 26.324020409942364
          27.730191734448997 27.589301119097428 26.92738613854785 27.24231758845895 26.42127974077948 26.19949088516815
          26.841505529758187 26.46535416692204 26.4978228729685 29.17711214957113 28.880549425311948 27.855829699900045
          27.68804149794554 28.18078329011283 27.282686626221505 31.174873721718427 30.628730041116093 28.640344194628597
          29.375536515416243 27.428221777290112 26.83040539281517 26.832430832025295 26.460541171211982 28.112503223775516
          27.24380471425357 27.194708234745654 33.04884033686113 32.27430665321398 29.91403359465796 29.506023766313557
          30.479108343486196 28.561425944228205 33.80743373685815 32.952161428412175 29.866706411859397 30.94043089301168
          28.70381472823627 27.589246147152696 27.48682234591909 26.86869352134933 28.943946923170003 27.72652096917608
          27.600271378289552 26.324238015332234 33.93379865060584 32.236735959130115 31.84206534824677 33.57866099357587
          30.784010639672225 32.491442787825974 29.484288339671487 30.87215465498865 30.566912888616415 30.233261240070032
          29.150835382092154 28.926314191328693 29.412820024965626 28.373801192432104 27.486631659684242 26.99181562716144
          26.931824002141106 27.40155536558133 26.6179706012455 26.577057533246172 26.775714392627076 27.180706173083152
          26.470174585928554 28.478606298548193 27.729468548698293 27.682693215595222 28.37164020212171 27.16031036758834
          26.57562624053343 26.898570210573222 26.332744386179503 26.37968335029006 26.623009116182487 26.761164015716396
          26.198105432795188 26.460564466780866 27.081300166509465 27.556032563878347 27.714811267515046 28.41891465311455
          26.722873405179723 27.182305058430387 26.450421128886283 26.776264004370365 26.24677877703991 26.471081732602194
          28.515785774960534 29.546443459398215 27.752479891737348 29.3943017458874 30.7980474558761 28.355719735879575
          27.176541824502245 26.745362447427137 27.59187978270756 27.02694585536835 30.12505979151591 31.780507546564507
          28.840286250519487 30.415440675659937 32.140725124703 29.029790238580247 27.917695228860424 27.244540039365255
          28.04263059614517 27.326843870715695 26.343841793722397 26.316936399353118 26.150087696404114 26.13308868637308
          26.24642247188622 26.088470503196707 26.155480241960714 26.030820192002658 26.06646698376209 26.240224758342237
          25.974520972790327 26.084589230758876 26.098657139725944 26.24745905514389 25.994979642910394 26.089527183919152
          26.429366029829506 26.20570401899558 26.61546305466443 26.758272340542103 26.81197117698329
        </DataArray>
        <DataArray type="Float64" Name="dk/dtemperature" format="ascii" RangeMin="0.007347400440707164" RangeMax="0.04379101320699648">
          0.007541274485241804 0.007910682894533269 0.011574594849171338 0.012475135014333673 0.014524808351009246 0.04285500000000005
          0.007893544555539374 0.01268383650439202 0.008729272180215745 0.009984413673032873 0.011189143523156992 0.013201063105142616
          0.013259369983894606 0.027837714274772118 0.01307669136104397 0.008899533018838232 0.017113625273180732 0.007953831949455738
          0.007683360871903429 0.008698199934692917 0.01058051948117931 0.011306829442451791 0.01329673360911772 0.009550299078784477
          0.007677075317625048 0.008951688133590686 0.010293129407759826 0.014347676870707638 0.014675202113803474 0.015381261347213652
          0.012324801606300565 0.013246478816956992 0.014727348157449626 0.011245566787032646 0.012427956397165235 0.014380385025404127
          0.007783300522991626 0.007704644212348636 0.00802137588417067 0.007893787046519028 0.009009660407237035 0.010112856617829125
          0.008685744601159168 0.008946327473047171 0.010319799133896973 0.009922995694453932 0.013063121904227796 0.01322465071670258
          0.013883343480563989 0.014001345287173447 0.013644825552469597 0.014300312946695226 0.011324313490815613 0.011578178780301287
          0.01267358290738849 0.012258379740659815 0.011253804491664993 0.012252593761802566 0.012446701534330341 0.014164636156490166
          0.014673378853688294 0.013143321480555937 0.013893410073699288 0.013969016231286172 0.018359536162381215 0.01680564967048178
          0.009082328600006847 0.008431563080049912 0.01130451784692631 0.0075668356118502094 0.02735095068864726 0.030445475898665142
          0.023224719350676066 0.024004308476205233 0.0076452663879811875 0.008227838383487476 0.010136130265216682 0.010770820502406742
          0.00758109963372862 0.01689256249999997 0.021729948140538902 0.04368627159917182 0.03523059626995362 0.025419367704424406
          0.01775070824138157 0.007523875000000001 0.008441921420159083 0.034020854214686994 0.018403524226573015 0.01595839492664253
          0.007837788292173124 0.008159793905908656 0.01774852383990012 0.007888266084619091 0.007870462276366069 0.007808458526831648
          0.008068021924035631 0.008254275010335306 0.008055012027347987 0.009164918797244084 0.0176641409956328 0.012947070631887313
          0.007682318071980738 0.007598087088651552 0.009126350954283812 0.0095139310176103 0.010749785567560805 0.01108290438337584
          0.01058001681611441 0.011911864547305894 0.007403326832760136 0.007718591814465303 0.00927362608376017 0.008912142975867083
          0.009402257192133853 0.010728902357595976 0.011258772766654832 0.012261084453452026 0.007944477105921466 0.009189876887625952
          0.010067127564236493 0.011924885757399119 0.012941034972329783 0.013145522990968205 0.013905234481115896 0.010700596686408954
          0.01200036388005172 0.012367889158595557 0.03526931385102738 0.025908496316681268 0.00900158114496614 0.00851085022248765
          0.012019660238130076 0.007473981834845014 0.04379101320699648 0.03410667707208383 0.009038783304674483 0.01626443373409732
          0.007504339729231382 0.007347400440707164 0.007556954020696259 0.007990453254529217 0.007846597171417398 0.009431253691963192
          0.00808070958580408 0.007611425678325394 0.00767696671368327 0.007551400636165929 0.007641154965447914 0.008225473630449126
          0.009195690049736319 0.010575425942909516 0.007782714118423873 0.007993336938791007 0.008921995136944572 0.009706268557517737
          0.011276259049357952 0.011772855201042893 0.012843978964785575 0.0093098708827153 0.011001637736329603 0.011534652085633047
          0.014572989130376949 0.014632178310318093 0.015079465719841065 0.015107707953415532 0.01482704512897642 0.015253385042409886
          0.013510847918808981 0.013645453706932405 0.014431586716075756 0.014021411330585919 0.015106512847763157 0.015483285629747698
          0.01451990127929265 0.015032163847614018 0.014982346811999366 0.012162268934602264 0.012401791570432294 0.013367054444690921
          0.01354198186904389 0.013037396531065183 0.013994364202663825 0.010798974674830628 0.011142849752714085 0.012568414458491913
          0.012033324173253233 0.013811448440529214 0.014542921939663053 0.014536002906938792 0.015050656535077029 0.01310973187318242