<?xml version="1.0"?>
<VTKFile type="UnstructuredGrid" version="0.1" byte_order="LittleEndian" header_type="UInt32" compressor="vtkZLibDataCompressor">
  <UnstructuredGrid>
    <Piece NumberOfPoints="340" NumberOfCells="181">
      <PointData>
        <DataArray type="Int32" Name="libmesh_node_id" format="ascii" RangeMin="314" RangeMax="2250">
          314 315 575 576 581 958
          978 992 993 995 998 1008
          1010 1012 1020 1021 1023 1041
          1054 1055 1058 1060 1061 1063
          1074 1076 1078 1080 1089 1090
          1091 1093 1097 1099 1101 1623
          1624 1625 1626 1630 1631 1632
          1711 1712 1713 1714 1715 1716
          1717 1718 1719 1720 1728 1729
          1730 1731 1732 1733 1734 1745
          1746 1747 1748 1749 1750 1751
          1752 1753 1754 1762 1763 1764
          1765 1766 1767 1768 1793 1794
          1795 1796 1797 1798 1799 1810
          1811 1812 1813 1814 1821 1921
          1922 1923 1926 1928 1930 1931
          1932 1933 1934 1936 1938 1940
          1995 1996 1997 1998 1999 2000
          2001 2002 2003 2004 2015 2016
          2017 2018 2019 2020 2021 2024
          2028 2029 2030 2031 2032 2033
          2034 2035 2036 2037 2038 2049
          2050 2051 2052 2053 2054 2055
          2058 2062 2131 2132 2133 2134
          2136 2138 2140 2141 2142 2143
          2144 2146 2148 2150 2151 2152
          2153 2154 2156 2158 2160 2161
          2162 2163 2164 2166 2168 2170
          2227 2228 2229 2230 2231 2232
          2235 2236 2238 2240 2241 2242
          2243 2244 2246 2248 2250 577
          578 596 594 582 601 600
          604 608 599 610 612 317
          950 952 953 951 956 957
          955 954 959 973 971 977
          976 975 979 994 1007 1009
          999 1011 1013 1014 1015 1018
          1035 1039 1043 1092 1088 1096
          1094 1095 1098 1100 1040 1319
          1317 587 1621 1703 1704 1706
          990 1709 991 1628 1722 1724
          1726 1737 1738 1740 996 1743
          997 1756 1758 1760 1779 1780
          1772 1800 1801 1782 1804 1806
          1807 1809 1790 1785 1815 1792
          1817 1819 1816 1818 1820 584
          1904 1896 1924 1906 1905 1037
          1925 1927 1929 1042 1918 1910
          1919 1935 1920 1937 1939 2005
          2006 2009 2011 2012 2014 2022
          2023 2025 2026 2027 1059 2039
          2040 2043 2045 2046 2048 2056
          2057 2059 2060 2061 590 2135
          2137 2139 1075 2145 2147 2149
          1077 2155 2157 2159 1079 2165
          2167 2169 592 2233 2234 2237
          2239 2245 2247 2249
        </DataArray>
        <DataArray type="Float64" Name="bounds" format="ascii" RangeMin="0" RangeMax="0">
          0 0 0 0 0 0
          0 0 0 0 0 0
          0 0 0 0 0 0
          0 0 0 0 0 0
          0 0 0 0 0 0
          0 0 0 0 0 0
          0 0 0 0 0 0
          0 0 0 0 0 0
          0 0 0 0 0 0
          0 0 0 0 0 0
          0 0 0 0 0 0
          0 0 0 0 0 0
          0 0 0 0 0 0
          0 0 0 0 0 0
          0 0 0 0 0 0
          0 0 0 0 0 0
          0 0 0 0 0 0
          0 0 0 0 0 0
          0 0 0 0 0 0
          0 0 0 0 0 0
          0 0 0 0 0 0
          0 0 0 0 0 0
          0 0 0 0 0 0
          0 0 0 0 0 0
          0 0 0 0 0 0
          0 0 0 0 0 0
          0 0 0 0 0 0
          0 0 0 0 0 0
          0 0 0 0 0 0
          0 0 0 0 0 0
          0 0 0 0 0 0
          0 0 0 0 0 0
          0 0 0 0 0 0
          0 0 0 0 0 0
          0 0 0 0 0 0
          0 0 0 0 0 0
          0 0 0 0 0 0
          0 0 0 0 0 0
          0 0 0 0 0 0
          0 0 0 0 0 0
          0 0 0 0 0 0
          0 0 0 0 0 0
          0 0 0 0 0 0
          0 0 0 0 0 0
          0 0 0 0 0 0
          0 0 0 0 0 0
          0 0 0 0 0 0
          0 0 0 0 0 0
          0 0 0 0 0 0
          0 0 0 0 0 0
          0 0 0 0 0 0
          0 0 0 0 0 0
          0 0 0 0 0 0
          0 0 0 0 0 0
          0 0 0 0 0 0
          0 0 0 0 0 0
          0 0 0 0
        </DataArray>
        <DataArray type="Float64" Name="gradient_error" format="ascii" RangeMin="1.3562595898544785e-9" RangeMax="2.2314980792204896e-7">
          2.007251212921456e-8 1.233223232588165e-7 1.3065139103308816e-7 1.1561360449193496e-7 1.3616806645554984e-7 1.1602793861211341e-7
          9.757223467919677e-8 3.706738863954007e-8 4.373252249236577e-8 1.1943994998097537e-7 4.2029329162917974e-8 1.412482459255905e-7
          6.689244193929912e-8 1.5947205505955425e-7 7.902340714664831e-8 6.866493231717754e-8 6.164655957763304e-8 4.869687640017255e-8
          3.883537345331619e-8 4.5144549695865105e-8 6.991953863522745e-8 2.6811813353636327e-8 4.423652074645698e-8 8.152596194956727e-8
          7.184687515171499e-8 2.942176166762011e-8 8.185668517179013e-8 3.27071501874696e-8 2.473612597761353e-8 1.9800867443015887e-8
          2.753895263761882e-8 1.5309781796257464e-8 1.4350355154143426e-8 1.7017729962083722e-8 1.595974276017404e-8 4.340608347178832e-8
          4.3310985855348e-8 4.4354762676622894e-8 4.1043237646486944e-8 3.5213700209551085e-8 3.401957417398698e-8 3.155681336503595e-8
          4.062409279134714e-8 4.12770962287267e-8 4.211661789728649e-8 4.276546831713353e-8 4.156839895934923e-8 4.2477922643210813e-8
          3.540956207818124e-8 3.779072200233703e-8 3.9650878771819025e-8 4.15564508394173e-8 3.835185128945646e-8 3.790262378801886e-8
          3.549700432632072e-8 3.4263721026596665e-8 4.262997858755088e-8 4.3558527422123195e-8 4.231893742276001e-8 2.5246727176637938e-8
          3.202902530578293e-8 2.7478106173281107e-8 3.411004371301794e-8 4.04699345401413e-8 4.2657300364226264e-8 1.7516432307819358e-8
          2.7719813208997203e-8 3.009450384004201e-8 3.992052767365951e-8 4.395255530843048e-8 4.565211207403042e-8 4.5776564971506285e-8
          4.67316046723631e-8 4.413515581112101e-8 4.5972842705865186e-8 4.635245038509805e-8 2.4275399263994685e-8 2.2886269999918424e-8
          2.016616208485169e-8 4.466686421460398e-8 4.358124916149325e-8 3.597183131511958e-8 3.9057763178468365e-8 1.676739053938004e-8
          1.2618959587757888e-8 3.1752149392116866e-8 2.5764787583263067e-8 2.7884406535679508e-8 1.607451817058397e-8 9.302180093174872e-9
          6.635483629923442e-9 1.2714283481069487e-8 5.7677392084488264e-9 1.1456679286619551e-8 7.842890464402958e-9 4.489564933620869e-9
          3.774201263127685e-9 5.886512332952726e-9 3.857741980540898e-9 3.152965485897837e-9 5.130597602628928e-9 3.655131006052094e-9
          4.26591797483755e-8 4.31708288231242e-8 4.211561386340704e-8 4.2377388168053204e-8 4.217596047351571e-8 4.058847459070973e-8
          3.830439720807607e-8 4.092960728604796e-8 4.1472308578524126e-8 4.505625338301862e-8 3.629821827209473e-8 3.379759475993899e-8
          3.1926993495030956e-8 2.5755711768328985e-8 4.321923420602244e-8 4.1496183875590046e-8 3.988077901002747e-8 2.1857857968417567e-8
          2.7477326803118365e-8 2.979786407442518e-8 3.572733931076659e-8 3.1304816601019635e-8 3.64665120570338e-8 4.420844808007706e-8
          4.48357083935628e-8 2.3638429014845236e-8 3.235587253419242e-8 3.36993017365804e-8 4.359854716267994e-8 4.6139659189308445e-8
          4.526968731444952e-8 4.551923676557077e-8 3.701911726239366e-8 4.668513711864464e-8 4.6141113788463996e-8 4.7246495965469005e-8
          3.1678545248110614e-8 3.331120511116625e-8 1.692237694490966e-8 1.1565618910073278e-8 2.0497277487663282e-8 1.5260305802650588e-8
          1.022089244356627e-8 1.8673238491336715e-8 1.2323594650801375e-8 7.40091162273575e-9 4.831770510391024e-9 8.621627685481638e-9
          6.498778432648268e-9 4.121620367251172e-9 7.658055317524707e-9 4.8637431605289245e-9 2.3273208791460392e-8 1.5550027554200213e-8
          2.4635398151945412e-8 2.1269878299805848e-8 1.3847291116056598e-8 2.239758985045073e-8 1.4488986366106123e-8 9.414790792519885e-9
          6.209403012343157e-9 9.76217829832376e-9 8.442593221699513e-9 5.3348371622896205e-9 8.756014977530774e-9 5.519161727272168e-9
          2.56158301461899e-9 2.8881786861769263e-9 2.4758259840448698e-9 3.3798255671041724e-9 2.243545736252806e-9 2.4950474009401106e-9
          1.89829994740358e-9 2.0474752695427667e-9 2.9055851727999785e-9 2.3269497978242094e-9 3.6657243737840323e-9 3.123565704903713e-9
          3.7865719710945824e-9 3.166499518404129e-9 2.5380286575022177e-9 3.268377756835716e-9 2.6188083110379695e-9 1.6899897311405203e-7
          8.938139907160295e-8 7.113535616060243e-8 1.5177059370759231e-7 2.2314980792204896e-7 8.9807190351352e-8 1.8915406571143208e-7
          9.550999188763457e-9 1.4208773764408164e-8 2.9779325765930346e-8 1.1552025530636281e-8 1.6061888954068113e-8 3.550869476564328e-8
          1.6369140244910093e-7 1.4906980057203943e-7 1.3297312571843335e-7 1.4783158092582489e-7 1.3575058834479074e-7 1.2350725215332753e-7
          9.374732622673472e-8 1.0796451190852946e-7 1.2916425038221661e-7 5.3800086349827856e-8 6.509888803744216e-8 1.1292597748171194e-7
          2.9903234024524444e-8 4.624051166037421e-8 7.509754198461868e-8 1.2841936554539256e-7 1.5873316162657677e-7 1.0194867628770805e-7
          1.4279615530054223e-7 1.772996068466649e-7 1.1223935990006315e-7 7.714922057598503e-8 6.806272884523461e-8 4.68710266498607e-8
          2.6245296275936923e-8 1.5170267819857015e-8 2.286033272657399e-8 1.3043747231365519e-8 1.8955851862071312e-8 1.0763745787421641e-8
          5.178092793107892e-9 3.967726235915291e-9 6.4304320138127705e-9 4.368495484658917e-9 5.127022462743713e-9 5.273700859860456e-9
          9.84180126985739e-9 4.331549658881411e-9 4.108839449375598e-8 3.834978348839153e-8 3.8941540506859054e-8 3.973263720673103e-8
          3.32903174611113e-8 3.5348821501409776e-8 3.876925147673269e-8 3.533279479742977e-8 3.778141811458232e-8 3.563085934102915e-8
          4.072613076854837e-8 2.3882109265832794e-8 2.997605389715142e-8 3.771622551534957e-8 1.7084081480657252e-8 2.60491513114454e-8
          3.7303713756984794e-8 4.13175258475694e-8 4.3272599192909703e-8 4.1412831589776955e-8 1.3726407866123635e-8 1.309945053099989e-8
          1.4649706981718196e-8 2.213122083763353e-8 2.100749515281748e-8 1.1636558706152977e-8 1.8441337769444476e-8 3.2505717534355684e-8
          3.115110802097618e-8 2.737657335253635e-8 9.669088046273744e-9 1.0924444004203502e-8 1.5099539041772682e-8 7.467234125534093e-9
          1.1349297786554014e-8 2.1902606217740024e-8 1.2154523332976102e-8 9.017735280900752e-9 1.8632755361438028e-8 1.3413945266719913e-8
          5.5775089196829754e-9 6.4086423243787065e-9 8.23569175108195e-9 3.959138246205178e-9 4.119044793898022e-9 3.5099863348158784e-9
          6.332348561516296e-9 4.255755555227819e-9 9.127273153455069e-9 5.975214295931465e-9 2.6906406364299084e-9 3.1676670679702986e-9
          2.0879915565386427e-9 2.750307790772434e-9 2.221106244864906e-9 2.14050696183028e-9 3.786151484009526e-9 4.0566930187251594e-8
          4.0424694954954733e-8 3.7746436057396315e-8 3.85816489409232e-8 4.1107157226222164e-8 4.3625581626694894e-8 3.0575182973834804e-8
          2.651773555161535e-8 1.8600880954769917e-8 3.8400509402633703e-8 3.3981606551727007e-8 2.377399352041675e-8 3.1619640601895795e-8
          3.643511091894313e-8 4.4292324507619217e-8 2.8270294015642067e-8 3.3956732061849504e-8 4.382323123260799e-8 4.2917750704922425e-8
          3.8846676819239956e-8 2.7650088828832023e-8 4.4208420953825825e-8 4.0430297920983705e-8 2.9087188197582784e-8 1.2292664983541611e-8
          7.86901677414678e-9 1.5315176208825757e-8 9.6186218923724e-9 4.882238155551835e-9 2.9334894513354833e-9 5.872596603208071e-9
          3.5023533274178215e-9 1.754278285417079e-8 1.086941269824955e-8 1.8365661506116372e-8 1.1325075097781855e-8 6.571661944972893e-9
          3.877521943805947e-9 6.823678207581625e-9 4.0105498158650685e-9 1.606974696721047e-9 1.7721037424711605e-9 1.3562595898544785e-9
          2.066479148164235e-9 2.2682612671207773e-9 1.6444635735172852e-9 2.34079702613436e-9
        </DataArray>
        <DataArray type="Float64" Name="gradient_matprop_error" format="ascii" RangeMin="0" RangeMax="0">
          0 0 0 0 0 0
          0 0 0 0 0 0
          0 0 0 0 0 0
          0 0 0 0 0 0
          0 0 0 0 0 0
          0 0 0 0 0 0
          0 0 0 0 0 0
          0 0 0 0 0 0
          0 0 0 0 0 0
          0 0 0 0 0 0
          0 0 0 0 0 0
          0 0 0 0 0 0
          0 0 0 0 0 0
          0 0 0 0 0 0
          0 0 0 0 0 0
          0 0 0 0 0 0
          0 0 0 0 0 0
          0 0 0 0 0 0
          0 0 0 0 0 0
          0 0 0 0 0 0
          0 0 0 0 0 0
          0 0 0 0 0 0
          0 0 0 0 0 0
          0 0 0 0 0 0
          0 0 0 0 0 0
          0 0 0 0 0 0
          0 0 0 0 0 0
          0 0 0 0 0 0
          0 0 0 0 0 0
          0 0 0 0 0 0
          0 0 0 0 0 0
          0 0 0 0 0 0
          0 0 0 0 0 0
          0 0 0 0 0 0
          0 0 0 0 0 0
          0 0 0 0 0 0
          0 0 0 0 0 0
          0 0 0 0 0 0
          0 0 0 0 0 0
          0 0 0 0 0 0
          0 0 0 0 0 0
          0 0 0 0 0 0
          0 0 0 0 0 0
          0 0 0 0 0 0
          0 0 0 0 0 0
          0 0 0 0 0 0
          0 0 0 0 0 0
          0 0 0 0 0 0
          0 0 0 0 0 0
          0 0 0 0 0 0
          0 0 0 0 0 0
          0 0 0 0 0 0
          0 0 0 0 0 0
          0 0 0 0 0 0
          0 0 0 0 0 0
          0 0 0 0 0 0
          0 0 0 0
        </DataArray>
        <DataArray type="Float64" Name="initial_marker" format="ascii" RangeMin="0" RangeMax="2">
          2 2 2 2 2 2
          2 2 2 2 2 2
          2 2 2 2 2 2
          2 2 2 2 2 2
          2 2 2 2 1 0
          1 0.5 0 0.5 0 2
          2 2 2 2 2 2
          2 2 2 2 2 2
          2 2 2 2 2 2
          2 2 2 2 2 2
          2 2 2 2 2 2
          2 2 2 2 2 2
          2 2 2 2 2 2
          2 2 2 2 2 2
          2 2 2 2 2 2
          2 2 2 2 2 1.5
          1 2 1.5 1 2 1.3333333333333333
          2 2 2 2 2 2
          2 2 2 2 2 2
          2 2 2 2 2 2
          2 2 2 2 2 2
          2 2 2 2 2 2
          2 2 2 2 2 2
          2 2 2 2 2 2
          2 2 2 2 1.5 2
          2 1.5 2 2 2 2
          2 2 2 2 2 2
          2 2 2 2 2 2
          0 0.5 0 1 0 0.5
          0 0 1 0 1 0
          1 1 0 1 0 1.5
          1.5 0.25 0.5 2 0.5 1
          0 0 0 0 0 0
          2 2 2 2 2 2
          2 2 2 2 1.75 2
          1.3333333333333333 1.5 2 2 2 2
          2 2 2 2 2 2
          2 0.5 1.25 0.25 0.5 0
          0 0 0 0 0 0
          0 1 2 2 2 2
          2 2 2 2 2 2
          2 2 2 2 2 2
          2 2 2 2 2 2
          2 2 2 2 2 2
          2 2 2 2 2 2
          2 2 2 2 2 2
          2 2 2 1.75 2 1.5
          2 2 2 2 0.75 1
          0.6666666666666666 1.5 0 1 2 2
          2 2 2 2 2 2
          2 2 2 2 2 2
          2 2 2 2 2 2
          2 2 2 2 2 2
          2 2 2 2 1.5 2
          2 2 2 2 2 2
          2 2 2 0 0.5 0
          1 1 0 1
        </DataArray>
        <DataArray type="Float64" Name="markers_norefine" format="ascii" RangeMin="0" RangeMax="2">
          2 0 1 0 0.5 0
          0 2 2 0 2 0
          0 0 0 0 0 0
          2 1.5 0 2 2 0
          0 0 0 0 0 0
          0 0 0 0 0 2
          1.5 1 0.5 0 0 0
          2 1.75 2 1.5 1.25 1
          2 2 2 2 0.5 0.5
          0 0 1.25 1 0.5 2
          2 2 2 2 2 2
          2 2 2 1.75 1.25 1.5
          0.5 2 1.5 2 0 0
          0 1 0.5 0 0 0
          0 0 0 0 0 0
          0 0 0 0 0 0
          0 0 0 0 0 0
          1.5 1.25 1 1 0.75 0.5
          2 2 2 1.75 0.25 0
          0 0 0.75 0.5 0 0
          0 2 2 2 2 2
          2 2 2 2 2 1
          1 0 0 1 1 0
          0 0 0 0 0 0
          0 0 0 0 0 0
          0 0 0 0 0 0
          0 0 0 0 0 0
          0 0 0 0 0 0
          0 0 0 0 0 0
          0 0 0 0 0 0
          0 0 0 0 0 0
          0 0 0 0 0 0
          0 0 0 0 0 0
          0 0 0 0 1 0.5
          0 0 0 0 0 0
          0 0 0 0.5 0 0
          1 0 0 0 0 0
          0 0 0 0 0 0
          0 0 0 0 0 0
          0 0 2 2 2 1.5
          2 2 2 0 0.5 0
          1.5 2 2 2 2 2
          2 2 2 2 0 0
          0 0 0 0 0 0
          0 0 0 0 0 0
          0 0 0 0 0 0
          0 0 0 0 0 0
          0 0 0 0 0 0
          0 0 0 0 0 1
          0.75 0.25 2 1.75 1 0
          0 0 0.25 0 0 2
          2 1.5 2 2 1.5 0.5
          0 0 0.5 0 0 0
          0 0 0 0 0 0
          0 0 0 0 0 0
          0 0 0 0 0 0
          0 0 0 0
        </DataArray>
        <DataArray type="Float64" Name="markers_mustrefine" format="ascii" RangeMin="0" RangeMax="2">
          2 2 2 2 2 2
          2 2 2 2 2 2
          2 2 2 2 2 2
          2 2 2 2 2 2
          2 2 2 2 1 0
          1 0.5 0 0.5 0 2
          2 2 2 2 2 2
          2 2 2 2 2 2
          2 2 2 2 2 2
          2 2 2 2 2 2
          2 2 2 2 2 2
          2 2 2 2 2 2
          2 2 2 2 2 2
          2 2 2 2 2 2
          2 2 2 2 2 2
          2 2 2 2 2 1.5
          1 2 1.5 1 2 1.3333333333333333
          2 2 2 2 2 2
          2 2 2 2 2 2
          2 2 2 2 2 2
          2 2 2 2 2 2
          2 2 2 2 2 2
          2 2 2 2 2 2
          2 2 2 2 2 2
          2 2 2 2 1.5 2
          2 1.5 2 2 2 2
          2 2 2 2 2 2
          2 2 2 2 2 2
          0 0.5 0 1 0 0.5
          0 0 1 0 1 0
          1 1 0 1 0 1.5
          1.5 0.25 0.5 2 0.5 1
          0 0 0 0 0 0
          2 2 2 2 2 2
          2 2 2 2 1.75 2
          1.3333333333333333 1.5 2 2 2 2
          2 2 2 2 2 2
          2 0.5 1.25 0.25 0.5 0
          0 0 0 0 0 0
          0 1 2 2 2 2
          2 2 2 2 2 2
          2 2 2 2 2 2
          2 2 2 2 2 2
          2 2 2 2 2 2
          2 2 2 2 2 2
          2 2 2 2 2 2
          2 2 2 1.75 2 1.5
          2 2 2 2 0.75 1
          0.6666666666666666 1.5 0 1 2 2
          2 2 2 2 2 2
          2 2 2 2 2 2
          2 2 2 2 2 2
          2 2 2 2 2 2
          2 2 2 2 1.5 2
          2 2 2 2 2 2
          2 2 2 0 0.5 0
          1 1 0 1
        </DataArray>
        <DataArray type="Float64" Name="gradient_marker" format="ascii" RangeMin="0" RangeMax="1">
          0 0.5 0.5 0.625 0.5 0.5
          0.375 0 0 0.5 0 0.625
          0.16666666666666666 0.75 0.75 0.75 0.75 0.625
          0.5 0.5 0.75 0.5 0.5 0.75
          0.75 0.5 0.75 0.5 0 0
          0 0.5 0.5 0.5 0.5 0
          0 0 0 0 0 0
          0 0 0 0 0 0
          0 0 0 0 0 0
          0 0 0 0 0 0
          0 0 0 0 0 0
          0 0 0 0 0 0
          0 0 0 0 1 1
          1 0 0 0.6666666666666666 0 1
          1 0 0.6666666666666666 0 1 1
          1 1 1 1 1 1
          1 1 1 1 1 1
          0 0 0.5 0.5 0 0.5
          0 0 0.5 0 0 0.5
          0 0.6666666666666666 0 0.5 0 1
          1 0 0 0.5 0.5 0
          0.5 0 0 0.5 0 0
          0.5 0 0.6666666666666666 0 0.5 0
          1 1 1 1 1 1
          1 1 1 1 1 1
          1 1 1 1 1 1
          1 1 1 1 1 1
          1 1 1 1 1 1
          1 1 1 1 1 1
          1 1 1 1 1 1
          1 1 1 1 1 0.75
          0.25 0.5 0.5 1 0.5 0.5
          1 1 0.5 1 1 0.75
          1 0.75 0.625 0.75 0.5 0.5
          0.375 0.5 0.75 0.125 0.25 0.625
          0 0 0.25 0.5 0.875 0.75
          0.5 1 1 0.75 0.75 0.625
          0.5 0.5 0.5 0.5 0 0.5
          1 1 1 1 1 1
          0.5 1 0 0 0 0
          0 0 0 0 0 0
          0 0 0 0 0 0
          0 0 0 0 1 1
          1 1 1 1 1 1
          1 1 1 1 1 1
          1 1 1 1 1 1
          1 1 1 1 1 1
          1 1 1 1 1 1
          1 1 1 1 1 1
          1 1 1 1 1 1
          1 1 1 1 1 1
          1 1 1 1 1 1
          1 1 1 1 1 1
          1 1 1 1 1 1
          1 1 1 1 1 1
          1 1 1 1 1 1
          1 1 1 1
        </DataArray>
        <DataArray type="Float64" Name="gradient_matprop_marker" format="ascii" RangeMin="0" RangeMax="0">
          0 0 0 0 0 0
          0 0 0 0 0 0
          0 0 0 0 0 0
          0 0 0 0 0 0
          0 0 0 0 0 0
          0 0 0 0 0 0
          0 0 0 0 0 0
          0 0 0 0 0 0
          0 0 0 0 0 0
          0 0 0 0 0 0
          0 0 0 0 0 0
          0 0 0 0 0 0
          0 0 0 0 0 0
          0 0 0 0 0 0
          0 0 0 0 0 0
          0 0 0 0 0 0
          0 0 0 0 0 0
          0 0 0 0 0 0
          0 0 0 0 0 0
          0 0 0 0 0 0
          0 0 0 0 0 0
          0 0 0 0 0 0
          0 0 0 0 0 0
          0 0 0 0 0 0
          0 0 0 0 0 0
          0 0 0 0 0 0
          0 0 0 0 0 0
          0 0 0 0 0 0
          0 0 0 0 0 0
          0 0 0 0 0 0
          0 0 0 0 0 0
          0 0 0 0 0 0
          0 0 0 0 0 0
          0 0 0 0 0 0
          0 0 0 0 0 0
          0 0 0 0 0 0
          0 0 0 0 0 0
          0 0 0 0 0 0
          0 0 0 0 0 0
          0 0 0 0 0 0
          0 0 0 0 0 0
          0 0 0 0 0 0
          0 0 0 0 0 0
          0 0 0 0 0 0
          0 0 0 0 0 0
          0 0 0 0 0 0
          0 0 0 0 0 0
          0 0 0 0 0 0
          0 0 0 0 0 0
          0 0 0 0 0 0
          0 0 0 0 0 0
          0 0 0 0 0 0
          0 0 0 0 0 0
          0 0 0 0 0 0
          0 0 0 0 0 0
          0 0 0 0 0 0
          0 0 0 0
        </DataArray>
        <DataArray type="Float64" Name="combo" format="ascii" RangeMin="0" RangeMax="2">
          2 0.5 1.5 0.625 1 0.5
          0.375 2 2 0.5 2 0.625
          0.16666666666666666 0.75 0.75 0.75 0.75 0.625
          2 1.625 0.75 2 2 0.75
          0.75 0.5 0.75 0.5 0 0
          0 0.5 0.5 0.5 0.5 2
          1.5 1 0.5 0 0 0
          2 1.75 2 1.5 1.25 1
          2 2 2 2 0.5 0.5
          0 0 1.25 1 0.5 2
          2 2 2 2 2 2
          2 2 2 1.75 1.25 1.5
          0.5 2 1.5 2 1 1
          1 1 0.5 0.6666666666666666 0 1
          1 0 0.6666666666666666 0 1 1
          1 1 1 1 1 1
          1 1 1 1 1 1
          1.5 1.25 1.25 1.25 0.75 0.875
          2 2 2 1.75 0.25 0.5
          0 0.6666666666666666 0.75 0.875 0 1
          1 2 2 2 2 2
          2 2 2 2 2 1
          1.25 0 0.6666666666666666 1 1.25 0
          1 1 1 1 1 1
          1 1 1 1 1 1
          1 1 1 1 1 1
          1 1 1 1 1 1
          1 1 1 1 1 1
          1 1 1 1 1 1
          1 1 1 1 1 1
          1 1 1 1 1 0.75
          0.25 0.5 0.5 1 0.5 0.5
          1 1 0.5 1 1 0.75
          1 0.75 0.625 0.75 1.5 1
          0.375 0.5 0.75 0.125 0.25 0.625
          0 0 0.25 1 0.875 0.75
          1.5 1 1 0.75 0.75 0.625
          0.5 0.5 0.5 0.5 0 0.5
          1 1 1 1 1 1
          0.5 1 2 2 2 1.5
          2 2 2 0 0.5 0
          1.5 2 2 2 2 2
          2 2 2 2 1 1
          1 1 1 1 1 1
          1 1 1 1 1 1
          1 1 1 1 1 1
          1 1 1 1 1 1
          1 1 1 1 1 1
          1 1 1 1 1 1.5
          1.375 1.125 2 1.875 1.5 1
          1 1 1.125 1 1 2
          2 1.75 2 2 1.75 1.25
          1 1 1.25 1 1 1
          1 1 1 1 1 1
          1 1 1 1 1 1
          1 1 1 1 1 1
          1 1 1 1
        </DataArray>
        <DataArray type="Float64" Name="dHdT" format="ascii" RangeMin="25.920041979046367" RangeMax="54.62379063597761">
          46.29088057571463 29.317992188954626 44.13547461969125 33.94804246377148 43.90339232806894 39.275058446077054
          30.62514065234722 50.25992374587503 53.169534696820186 39.37204744415536 50.769953311751166 32.87386580663185
          29.32671137817802 33.90411177934568 39.74000741755675 36.7078296715606 32.775660976436136 29.240664083283864
          53.01956338423219 50.549901749415255 36.52297114515402 46.222747312851986 52.899278051248636 39.28665639908905
          31.100064822752408 27.934915044990653 31.9398554001152 28.23114776114666 26.922641653907487 26.501092469897493
          27.039860975379025 26.663067048241405 26.34391593046778 26.752231453048815 26.39110111590996 53.493211201988515
          51.30477725300217 49.277317813747786 45.192042624170504 39.2928397295761 38.54263242283713 37.31793751482703
          53.08634995716196 53.10989265445846 53.050268291547766 52.204223457893555 50.227148793821584 48.33038205954885
          49.46218853633765 51.026468286509704 51.85936105409319 53.831029842419866 43.304662503462026 41.891257887243846
          39.28846277103583 38.47993027962931 50.24120309947433 48.097302977342174 45.41109455079069 46.27022802362674
          46.6991201665835 46.25317478454256 47.412356077988086 51.06001604642147 51.91158732782006 46.2955676869136
          46.26031181606234 46.23711914982909 49.720227371475886 53.03843318066281 52.072449296897666 51.08484657802291
          48.893261309588816 52.9109454397249 53.19017599076155 52.60649208170909 34.78288661362976 34.46530590234336
          33.426573096437096 48.069241087588495 45.76525552114995 40.12331611398162 40.79286719893112 31.680380398788127
          29.882119406443962 37.42277493611855 35.44377900820581 36.72108542908627 31.441131931831972 28.59158766663485
          27.708395570360082 29.963562747312494 27.440328670972104 29.392540944145207 28.095635770817804 27.099302766723042
          26.856090708866713 27.528644531062497 26.9124056503759 26.701315588783114 27.28572920886029 26.870728061121056
          52.24895861220119 50.56281156295261 49.64710824208329 47.80931022902362 45.78373395747363 43.097074313478046
          51.44378120791259 52.82762628772657 53.459678419696175 52.27201349753258 40.02173814477988 38.35112702076248
          37.35267288831653 35.445987109153414 45.47909611681206 42.67730820123471 40.62563660609948 33.838000494540594
          35.58746628510225 46.36814361881405 48.719185058348096 48.31320071749855 51.24214709035747 52.72590431228301
          53.20460191123884 46.277400958616816 47.14348514599833 49.293600812843515 51.682382345517 49.86540663167603
          46.624085444697826 45.34923113666817 39.512906449685005 51.39332238316918 48.0931016891193 47.4314494086842
          36.82663848973059 37.43916748873801 31.826804097931813 29.378463903067995 33.59260652275926 30.984620033024534
          28.876307182617847 32.597128706740826 29.675520331805355 27.995333164343883 27.199072348955553 28.42537383204789
          27.69015785330758 26.999042499852024 28.06518281947749 27.19632568821411 34.5992677240573 31.062684078988333
          34.893741707558036 33.64171396904537 30.295380693447093 33.973074001315034 30.53529805318504 28.732554218865737
          27.590873980669635 28.84945960123901 28.334527971016083 27.335563991117372 28.43541544609773 27.38687213464604
          26.638241539398074 26.70835439122479 26.527184736559246 26.834882434142717 26.51993130462848 26.57729956446892
          26.379108597446184 26.419894329781634 26.68302132144206 26.495716505949677 26.924142392093664 26.68621426193115
          26.95698715895341 26.759264514149272 26.55094028456101 26.787154209723795 26.571127619339755 29.314343097096582
          27.974681997904693 26.42258754243413 26.930972164729482 31.084450897195673 26.601010654455774 27.253154876342155
          25.981825321871906 25.920041979046367 26.035548413175817 26.029846742630234 25.936774282711625 25.965210164567793
          35.38837839113421 33.262838597439085 32.3593470988767 33.958415654629604 47.04859185085819 42.08144233658798
          30.37806820176292 31.46285833271041 34.932359683535566 28.410063196288593 29.258128751442996 31.79718257351045
          27.200978926752054 28.118993755590175 29.906087687058093 42.57559530865864 34.712398187833514 31.819750309910624
          47.05617538549643 36.37760752390619 32.68068952378042 31.524512294927593 30.734594953212376 29.057542771691942
          27.550673692158274 26.650178838519807 27.259480161272695 26.462970305252572 26.66592302034065 26.239134105129796
          26.127011323643735 26.193420997136464 26.098774856470698 26.231135609680997 26.198400268174694 26.0585929809378
          26.26319210330225 26.475309521015326 53.15490007672521 54.04614250739194 54.19893185376391 51.53410716072691
          49.76179353886676 50.78040646756173 54.025559478503205 40.035634915839395 44.44552785473397 40.174562588149996
          51.8991220561553 46.2724742684461 46.291583219184076 50.66343989305004 46.2937988653838 46.26531713404731
          49.27978219666045 54.06155021873378 53.10691282128954 53.180277118785504 30.216329509542334 29.980454900290972
          30.664227587839612 33.93379865060584 33.57866099357587 29.39092428699619 32.491442787825974 37.863987626102926
          37.2222033433963 35.780427107276594 28.65856020161084 29.11449732426495 30.87215465498865 27.959516890775973
          29.32352380750202 33.83657266946413 29.484288339671487 28.37164020212171 32.11888032435613 29.971617683563125
          27.380599335297596 27.638907343040362 28.20963108705416 26.928734703574264 26.941018924409743 26.588323628509844
          27.556032563878347 26.983553980317804 28.41891465311455 27.468136558884634 26.599997443088313 26.736146580351196
          26.428803557907397 26.595535628875908 26.464542488340264 26.440698157991427 26.86987599219179 45.99067857127889
          44.25074019411893 40.12017501584286 54.62379063597761 52.915928551720626 47.02485477111843 36.53599399846362
          34.85708153823376 32.09591566657117 39.78265924782278 37.39802495716383 33.98903838532562 52.87975646023101
          54.24494940356369 52.06643731401026 48.904239175146444 52.50034912361447 53.24964533484233 43.25891300292692
          39.79128130541415 35.084924755793864 44.65267362790349 40.784120201455366 35.42659410317158 29.546443459398215
          28.02800842445354 30.7980474558761 28.587791848047626 27.167198467297766 26.657002588216663 27.44497118633045
          26.799165258228328 31.780507546564507 29.01775949203136 32.140725124703 29.181256383658614 27.645704565367573
          26.900963586843034 27.719324474579295 26.937906054158585 26.314456397792934 26.35254818124536 26.23819611770579
          26.42508534699305 26.479111089800465 26.325726983510503 26.498691450312617
        </DataArray>
        <DataArray type="Float64" Name="dk/dtemperature" format="ascii" RangeMin="0.00508074999999998" RangeMax="0.06053832214835635">
          0.0052766249999999905 0.012294988562313008 0.022795905237077866 0.008588421083784591 0.018447526695947764 0.008631493289598488
          0.011129322031271508 0.0073893750000000044 0.01888454881721892 0.008527246121184696 0.016417875 0.009759981848826548
          0.012237121419968723 0.009410757531417872 0.00815112067892125 0.007981673725380854 0.009552966842242725 0.012168180176739454