<?xml version="1.0"?>
<VTKFile type="UnstructuredGrid" version="0.1" byte_order="LittleEndian" header_type="UInt32" compressor="vtkZLibDataCompressor">
  <UnstructuredGrid>
    <Piece NumberOfPoints="762" NumberOfCells="486">
      <PointData>
        <DataArray type="Int32" Name="libmesh_node_id" format="ascii" RangeMin="296" RangeMax="6836">
          296 441 453 455 971 991
          1001 1002 1003 1004 1005 1030
          1031 1032 1060 1061 1062 1064
          1065 1066 1359 1360 1362 1363
          1364 1370 1742 1881 1883 1884
          1885 1886 1887 1888 1889 1890
          1891 1892 2045 2049 2054 2055
          2056 2151 2152 2155 2212 2216
          2226 2227 2230 2231 2232 2233
          2234 2235 2236 2237 2238 2239
          2240 2241 2242 2243 2244 2245
          2246 2247 2248 2249 2250 2251
          2252 2253 2254 2255 2256 2257
          2258 2259 2260 2261 2262 2263
          2264 2265 2266 2267 2268 2269
          2270 2271 2272 2273 2274 2275
          2276 2277 2278 2279 2280 2281
          2282 2283 2284 2285 2310 2312
          2314 2316 2324 2326 2328 2330
          2535 2536 2557 2559 2560 2563
          5108 5109 5110 5111 5113 5115
          5117 5128 5129 5130 5131 5132
          5133 5134 5135 5136 5137 5168
          5169 5172 5175 5176 5179 5180
          5181 5182 5183 5184 5185 5186
          5187 5188 5189 5190 5191 5192
          5193 5278 5282 5290 5292 5294
          5296 5784 5802 5808 5809 5812
          6217 6241 6242 6245 6319 6320
          6321 6322 6323 6324 6325 6326
          6327 6328 6339 6340 6341 6342
          6343 6344 6345 6346 6347 6348
          6351 6352 6355 6358 6359 6362
          6363 6364 6365 6366 6367 6368
          6369 6370 6371 6372 6373 6374
          6375 6376 6379 6380 6383 6386
          6387 6390 6391 6392 6393 6394
          6395 6396 6397 6398 6399 6400
          6401 6402 6403 6404 6405 6406
          6407 6408 6409 6410 6411 6412
          6413 6414 6415 6416 6417 6418
          6419 6420 6421 6422 6423 6424
          6425 6426 6427 6428 6429 6430
          6431 6432 6433 6434 6435 6436
          6437 6438 6439 6440 6441 6442
          6443 6444 6445 6446 6447 6448
          6449 6450 6451 6452 6453 6454
          6455 6456 6457 6458 6459 6460
          6461 6462 6463 6464 6465 6466
          6467 6468 6469 6470 6471 6472
          6473 6474 6475 6476 6477 6478
          6479 6480 6481 6482 6483 6484
          6485 6486 6487 6488 6489 6490
          6491 6492 6493 6494 6495 6496
          6497 6498 6499 6500 6501 6502
          6503 6504 6505 6506 6507 6508
          6509 6510 6511 6512 6513 6514
          6515 6516 6517 6518 6519 6520
          6521 6522 6523 6524 6525 6526
          6527 6528 6529 6530 6531 6532
          6533 6534 6535 6536 6537 6538
          6539 6540 6541 6542 6543 6544
          6545 6546 6547 6548 6549 6550
          6551 6552 6553 6554 6555 6556
          6557 6558 6559 6560 6561 6562
          6563 6564 6565 6566 6567 6568
          6569 6570 6571 6572 6573 6574
          6575 6576 6577 6578 6579 6580
          6581 6582 6583 6584 6585 6586
          6587 6588 6589 6590 6591 6592
          6593 6594 6595 6596 6597 6598
          6599 6600 6601 6602 6603 6604
          6605 6606 6609 6613 6621 6623
          6625 6627 6637 6641 6649 6651
          6653 6655 6705 6706 6707 6708
          6709 6710 6711 6712 6713 6714
          6715 6716 6717 6718 6719 6720
          6721 6729 6730 6731 6732 6733
          6734 6735 6743 6744 6745 6746
          6747 6748 6749 6757 6758 6759
          6760 6761 6762 6763 6823 6824
          6825 6826 6827 6828 6829 6830
          6831 6832 6833 6834 6835 6836
          965 966 968 967 969 970
          999 1000 986 987 444 450
          1365 1063 1366 1371 1069 1374
          1073 1380 1740 2033 2035 1741
          2043 1743 2047 1880 2224 1882
          2228 2114 1876 2144 2148 2080
          2300 2288 2301 2304 2305 2307
          2309 2292 1067 2308 2313 2325
          2327 1071 2329 1028 2508 2505
          1029 2510 2544 2534 1026 2545
          2046 2558 2546 2554 2556 2561
          2555 2562 2564 2052 2053 2076
          2575 2577 5035 5047 5039 5099
          5103 2034 5048 5104 5112 5049
          5114 5107 2044 5116 5119 5123
          5124 5127 2048 5106 5142 5144
          5122 5166 5143 2050 5167 5126
          5170 5171 5149 5151 5173 5150
          2051 5174 5177 5178 5156 5157
          5158 5163 5164 5165 5249 5251
          5276 5250 2074 5277 5279 5280
          5281 2078 5263 5264 5291 5265
          5293 5295 5771 5772 5774 5773
          5775 5776 5777 5778 5780 5782
          5779 5781 5783 5799 5800 5801
          5803 5804 5805 5806 5807 5810
          5811 6211 6213 6215 6212 6214
          6216 6218 6220 6222 6224 6239
          6240 6243 6244 6246 6248 6250
          6252 6310 6314 6315 6318 2225
          6330 6334 6335 6338 2229 6313
          6349 6350 6317 6353 6354 6356
          6357 6360 6361 6333 6377 6378
          6337 6381 6382 6384 6385 6388
          6389 5518 6336 6331 5724 5728
          1044 5729 5732 2145 5748 5752
          5753 5756 1049 5567 2121 5574
          1045 6607 6608 6610 6611 6612
          2286 6622 6624 6626 6635 6636
          6638 6639 6640 2290 6650 6652
          6654 5997 2182 6004 6646 6722
          6648 6724 6726 6728 6660 6736
          6662 6738 6740 6742 6750 6752
          6754 6756 6764 6766 6768 6770
        </DataArray>
        <DataArray type="Float64" Name="bounds" format="ascii" RangeMin="0" RangeMax="0">
          0 0 0 0 0 0
          0 0 0 0 0 0
          0 0 0 0 0 0
          0 0 0 0 0 0
          0 0 0 0 0 0
          0 0 0 0 0 0
          0 0 0 0 0 0
          0 0 0 0 0 0
          0 0 0 0 0 0
          0 0 0 0 0 0
          0 0 0 0 0 0
          0 0 0 0 0 0
          0 0 0 0 0 0
          0 0 0 0 0 0
          0 0 0 0 0 0
          0 0 0 0 0 0
          0 0 0 0 0 0
          0 0 0 0 0 0
          0 0 0 0 0 0
          0 0 0 0 0 0
          0 0 0 0 0 0
          0 0 0 0 0 0
          0 0 0 0 0 0
          0 0 0 0 0 0
          0 0 0 0 0 0
          0 0 0 0 0 0
          0 0 0 0 0 0
          0 0 0 0 0 0
          0 0 0 0 0 0
          0 0 0 0 0 0
          0 0 0 0 0 0
          0 0 0 0 0 0
          0 0 0 0 0 0
          0 0 0 0 0 0
          0 0 0 0 0 0
          0 0 0 0 0 0
          0 0 0 0 0 0
          0 0 0 0 0 0
          0 0 0 0 0 0
          0 0 0 0 0 0
          0 0 0 0 0 0
          0 0 0 0 0 0
          0 0 0 0 0 0
          0 0 0 0 0 0
          0 0 0 0 0 0
          0 0 0 0 0 0
          0 0 0 0 0 0
          0 0 0 0 0 0
          0 0 0 0 0 0
          0 0 0 0 0 0
          0 0 0 0 0 0
          0 0 0 0 0 0
          0 0 0 0 0 0
          0 0 0 0 0 0
          0 0 0 0 0 0
          0 0 0 0 0 0
          0 0 0 0 0 0
          0 0 0 0 0 0
          0 0 0 0 0 0
          0 0 0 0 0 0
          0 0 0 0 0 0
          0 0 0 0 0 0
          0 0 0 0 0 0
          0 0 0 0 0 0
          0 0 0 0 0 0
          0 0 0 0 0 0
          0 0 0 0 0 0
          0 0 0 0 0 0
          0 0 0 0 0 0
          0 0 0 0 0 0
          0 0 0 0 0 0
          0 0 0 0 0 0
          0 0 0 0 0 0
          0 0 0 0 0 0
          0 0 0 0 0 0
          0 0 0 0 0 0
          0 0 0 0 0 0
          0 0 0 0 0 0
          0 0 0 0 0 0
          0 0 0 0 0 0
          0 0 0 0 0 0
          0 0 0 0 0 0
          0 0 0 0 0 0
          0 0 0 0 0 0
          0 0 0 0 0 0
          0 0 0 0 0 0
          0 0 0 0 0 0
          0 0 0 0 0 0
          0 0 0 0 0 0
          0 0 0 0 0 0
          0 0 0 0 0 0
          0 0 0 0 0 0
          0 0 0 0 0 0
          0 0 0 0 0 0
          0 0 0 0 0 0
          0 0 0 0 0 0
          0 0 0 0 0 0
          0 0 0 0 0 0
          0 0 0 0 0 0
          0 0 0 0 0 0
          0 0 0 0 0 0
          0 0 0 0 0 0
          0 0 0 0 0 0
          0 0 0 0 0 0
          0 0 0 0 0 0
          0 0 0 0 0 0
          0 0 0 0 0 0
          0 0 0 0 0 0
          0 0 0 0 0 0
          0 0 0 0 0 0
          0 0 0 0 0 0
          0 0 0 0 0 0
          0 0 0 0 0 0
          0 0 0 0 0 0
          0 0 0 0 0 0
          0 0 0 0 0 0
          0 0 0 0 0 0
          0 0 0 0 0 0
          0 0 0 0 0 0
          0 0 0 0 0 0
          0 0 0 0 0 0
          0 0 0 0 0 0
          0 0 0 0 0 0
          0 0 0 0 0 0
          0 0 0 0 0 0
          0 0 0 0 0 0
          0 0 0 0 0 0
        </DataArray>
        <DataArray type="Float64" Name="gradient_error" format="ascii" RangeMin="1.1249936923471445e-10" RangeMax="4.3547788270203846e-7">
          1.2280338366045497e-7 8.79190230689212e-8 3.4822899000700704e-9 3.7016969313488453e-9 1.2973334344578925e-7 4.3052860451059527e-7
          1.805718823099233e-7 6.11546910918269e-8 4.3547788270203846e-7 2.13677935153355e-7 2.0045724627476886e-7 2.1736242394764853e-9
          6.005957688394619e-10 7.307943823648928e-9 1.7598191152940802e-9 4.335970257147935e-10 9.86385812197455e-9 2.0912265005059154e-9
          5.245272936386734e-10 1.1062612086517649e-8 1.3599009293861539e-8 1.782811671992061e-8 1.993400745538895e-8 9.213873714617989e-9
          1.2118170493049801e-8 1.3496370040586275e-8 1.4886096765261289e-8 2.69552588228824e-8 9.930684641403014e-9 1.25819004431259e-8
          1.0064505623482869e-8 1.484113795061733e-8 6.360330923394163e-8 3.6405387878637594e-8 6.65794122618959e-8 1.630580899142317e-8
          1.3211204250044573e-8 1.6877105621137952e-8 9.343676938388389e-9 1.1949491999031515e-8 1.1757813945208043e-9 5.984779076089291e-10
          1.0305100716784168e-9 5.921112712372952e-9 3.2944786474408434e-9 6.237603936876316e-9 1.6006995421032276e-9 1.6944964500244694e-9
          1.474281527030629e-8 1.417955226827793e-9 1.781136497608556e-8 1.6611513487388875e-9 8.55470750107481e-10 6.98185419711044e-10
          4.403057118100849e-10 2.1279845167890563e-9 1.1064044524968747e-9 8.770140151525472e-10 6.983481594234124e-9 7.885376276442095e-9
          2.919046228874124e-9 2.180416718207401e-9 5.864107719327909e-9 7.490230185109177e-9 3.6137304580973333e-9 9.322916271756323e-9
          2.5968536486023974e-9 8.903181683325533e-9 1.4182454856057272e-9 1.070617714913221e-9 8.044656971095317e-10 6.40146682859995e-10
          1.4428534337785577e-9 1.7841017894697487e-9 8.914063198827935e-10 1.269790702396286e-9 6.308393888046081e-10 2.102945389784218e-9
          3.5207017339891373e-8 4.41127185791965e-9 1.99461659060676e-8 2.0021823230561852e-9 3.684275015259324e-8 4.619042689013288e-9
          2.082603232672221e-8 2.4701452840579337e-9 1.29201138132567e-9 1.0065295282672674e-9 5.001815011050627e-10 2.596120884019496e-9
          1.3606581663178556e-9 1.0540754025847332e-9 1.0268120679329877e-8 2.8896030801928043e-9 9.8337115540614e-9 4.7539671523299504e-9
          1.0630621514676728e-8 2.995714840924813e-9 1.017295534682018e-8 1.4158341545596368e-9 7.024316859582817e-10 2.336936302230642e-9
          1.1722875228895549e-9 1.4711009561777758e-9 7.282127340379964e-10 2.42554000318427e-9 6.131310668093834e-10 3.754928461922243e-10
          6.460277073617386e-10 3.933078353564416e-10 4.822654878537248e-10 5.38807981958644e-10 5.009747740440051e-10 5.569149446733643e-10
          7.466509453617213e-9 5.868830625099659e-9 5.972097165933446e-9 4.3638291315259115e-9 2.1576918618691885e-9 1.1321400124256158e-9
          1.4286600922037207e-9 1.2190247747950615e-9 1.7603678626418066e-9 1.2039768402556273e-9 1.017349959760439e-9 1.4885560131243628e-9
          1.256055963043909e-9 2.1368769435083834e-9 1.8362354085325443e-9 2.5500518962338616e-9 1.8154204054073045e-9 1.262269576013252e-9
          1.53536968794491e-9 1.0271779868617592e-9 2.1734397766347664e-9 1.5269404318955592e-9 1.6669955871994985e-9 1.3203556367997337e-9
          9.55382243706354e-10 1.6154546992145919e-9 6.849857548882112e-10 4.833475052198686e-10 8.461815850927468e-10 8.860752265877118e-10
          6.307151348876364e-10 7.082327181021026e-10 5.00536425799793e-10 1.0804107707826623e-9 7.719085612974813e-10 7.768946467971042e-10
          4.455294986738083e-10 3.121779315134186e-10 3.4981497459133864e-10 2.447484766433716e-10 5.486076835358926e-10 3.8452949385071313e-10
          3.8382604428943135e-10 3.348733276599895e-10 4.1489764115723965e-10 2.138114941886571e-10 1.6546263296086273e-10 2.626560236268712e-10
          2.0220470067395862e-10 4.490163984005054e-9 6.157051013028103e-9 4.675935547907263e-9 3.434369895581757e-9 4.739501750528479e-9
          2.3359718970256967e-9 2.4369061406902803e-9 1.6705428783379715e-9 2.471507256012919e-9 3.0059897954285212e-9 2.17419408561575e-9
          3.444606925779896e-9 2.5593125294050824e-9 1.8056863032551063e-9 1.8155603988124884e-9 1.2253275719593205e-9 2.9405921662017666e-9
          2.089010763010847e-9 2.1009469175977527e-9 3.858472483017271e-9 2.8266069728491715e-9 4.230390015716691e-9 3.304331846734038e-9
          2.3631242662229144e-9 2.35430812960531e-9 1.5978367354657785e-9 3.632499813755604e-9 2.6126026348634677e-9 2.5800208488245468e-9
          1.9330633681012452e-9 1.414528420501765e-9 2.2595885662955486e-9 1.0215923266662864e-9 7.243178391003411e-10 1.203683395127268e-9
          1.2878933846749704e-9 9.237825027217163e-10 8.493913596560256e-10 5.981705063337248e-10 1.4986251235745427e-9 1.0791531103049467e-9
          9.90838687581894e-10 6.608632457929804e-10 4.638967543289105e-10 4.203039129626583e-10 3.2917501925067987e-10 7.739701215619135e-10
          5.449601474546142e-10 4.927310381209017e-10 2.5789116479054458e-9 1.903358409208431e-9 2.873604635126693e-9 1.3832817174566678e-9
          9.853115990387234e-10 1.5503780146401042e-9 1.703423817493252e-9 1.2303937216563646e-9 1.1202435993404523e-9 7.916603117796738e-10
          1.890964344319543e-9 1.369531982847503e-9 1.238259507622209e-9 8.817495994673134e-10 6.221928343704919e-10 5.585676462640892e-10
          3.8739814607753586e-10 9.822331661854983e-10 6.943443586056868e-10 6.195961017915963e-10 1.338350954415225e-9 1.4831827033027393e-9
          1.2718214546389446e-9 1.7284394915608124e-9 1.1472287471342133e-9 1.2463456225907802e-9 7.754173149983094e-10 8.322868823699874e-10
          9.844675047489072e-10 1.0477550732201087e-9 6.752970595987518e-10 1.4324067075891362e-9 9.486012579614777e-10 1.1827378809109875e-9
          1.923969774094589e-9 1.6307651092787867e-9 2.0962974943124355e-9 1.5990754007791144e-9 1.0627844644329924e-9 1.3200240285480107e-9
          8.336417181560399e-10 1.7458251071497748e-9 1.1656271736133258e-9 1.4411720522102917e-9 5.21730085519062e-10 5.651789844507431e-10
          3.6745658626115743e-10 3.9540213622554904e-10 4.406520980875565e-10 4.605836305421832e-10 3.231600492572004e-10 6.489958225180502e-10
          4.524149175272317e-10 5.108504314064119e-10 2.489910392486811e-10 2.6935419611973323e-10 2.1180098686975412e-10 2.2319686582870077e-10
          2.092329514948928e-10 2.1885822459734224e-10 1.8565818436841936e-10 3.1052475908257423e-10 2.2798486759354375e-10 2.431441986863146e-10
          7.278783728088407e-10 5.085241236140636e-10 5.700500040694327e-10 3.987005254094353e-10 8.004008413964366e-10 5.598374985816103e-10
          6.245365326117649e-10 3.506304125128064e-10 2.408353695812967e-10 2.7062056465971323e-10 1.8856448141982432e-10 3.8681964456094306e-10
          2.6854768222312035e-10 2.952961204268162e-10 8.739204564084123e-9 6.449407018935182e-9 9.244157979862795e-9 7.816472302575938e-9
          6.126157443791048e-9 5.599317253949602e-9 4.163771779541327e-9 8.272998138678196e-9 6.496898579000769e-9 5.9182748082580885e-9
          4.54177585966916e-9 3.3143373257609664e-9 4.781669043510461e-9 3.909318869676316e-9 2.825290528872853e-9 2.7708902126572417e-9
          1.897124877809466e-9 4.121949813076246e-9 2.988206894520152e-9 2.917745305734452e-9 9.528184551357846e-9 7.026111702203431e-9
          9.629606458581409e-9 8.544099350655295e-9 6.73085200404795e-9 6.112512009337185e-9 4.566519557549718e-9 8.638718357600485e-9
          6.810603526179143e-9 6.181554778305545e-9 4.932763892125693e-9 3.5960537230834727e-9 4.991808739065857e-9 4.25588067242402e-9
          3.090750505570124e-9 3.0106900366052696e-9 2.068572357142562e-9 4.305160496641133e-9 3.1255789394842294e-9 3.04487827077705e-9
          4.736304729081542e-9 3.6015648311704018e-9 3.126049643615658e-9 2.3212625299587582e-9 5.0367258306613835e-9 3.83929565240646e-9
          3.319963967599688e-9 2.674220312369627e-9 1.9326190904722517e-9 1.6946218668399328e-9 1.211071810660108e-9 2.856167345693523e-9
          2.0668319787479547e-9 1.806027745431148e-9 2.0513389603666838e-9 1.4891908127845199e-9 1.338792289185149e-9 9.5023814517152e-10
          2.1744822709008445e-9 1.581311111772697e-9 1.415873486825316e-9 1.070127421694562e-9 7.576836576452435e-10 6.727055845153895e-10
          4.713849047105001e-10 1.1377504237162478e-9 8.062106505774762e-10 7.133292597036032e-10 5.225744063492882e-9 3.989137969098404e-9
          3.4420633524289884e-9 2.5640412397115463e-9 5.290298044362724e-9 4.04030702366264e-9 3.483770070782475e-9 2.9711939435242044e-9
          2.1518276120335626e-9 1.876372859531552e-9 1.3431610563366748e-9 3.0105390691595705e-9 2.1809269166166768e-9 1.900422316993942e-9
          2.251978673861483e-9 1.6393590708796634e-9 1.4643860101602068e-9 1.0419726024146348e-9 2.278433781315199e-9 1.6591868098512973e-9
          1.4809593438861112e-9 1.1803810941009132e-9 8.368076708803768e-10 7.389352815850538e-10 5.183258064973023e-10 1.1949483353183186e-9
          8.472662697444498e-10 7.476795236038227e-10 2.2424355667968687e-9 1.9073087119679056e-9 2.3552873555437103e-9 1.8698777341836403e-9
          1.2521489847026178e-9 1.5431043213091893e-9 9.76337775998533e-10 1.9650473066792807e-9 1.3179235625008409e-9 1.6208120795780492e-9
          2.426749023133544e-9 2.06644896477149e-9 2.4542744974063403e-9 2.025334110555842e-9 1.3595381367158448e-9 1.6701037306251874e-9
          1.0562140808934014e-9 2.0474787462481574e-9 1.3737956332932855e-9 1.6880627772574281e-9 8.618392168009102e-10 6.039190087471144e-10
          6.705409561887655e-10 4.694925182289038e-10 9.086697648791882e-10 6.377672824863275e-10 7.053356899923347e-10 4.1784744442926565e-10
          2.9007026374469123e-10 3.1770219636641346e-10 2.200353422908131e-10 4.4195380077425416e-10 3.070078995229399e-10 3.3557550936478505e-10
          9.383133125438526e-10 6.592352412558764e-10 7.275613655146597e-10 5.109307105974303e-10 9.485568301022815e-10 6.666650362337102e-10
          7.353745065215026e-10 4.5710373133259823e-10 3.1757036773872805e-10 3.4672860921093816e-10 2.4026510751588265e-10 4.6228412070458317e-10
          3.211599096408197e-10 3.5055458121808965e-10 5.026906096773387e-10 5.9457335296733e-10 3.1704377951323653e-10 2.440804446077069e-10
          3.746212332411771e-10 2.5293586585406966e-10 6.857751437583326e-10 7.710198315489528e-10 4.314917090370943e-10 2.6582782520673537e-10
          4.838749245293901e-10 2.999894847794896e-10 1.5447253968893837e-10 1.6517331813744084e-10 1.3175594827982533e-10 1.3725731912511064e-10
          1.2899734314044802e-10 1.329514843912005e-10 1.1471360408732817e-10 1.841842900308078e-10 1.5013756312737548e-10 1.4325239245727977e-10
          1.357223296130846e-9 9.258932358599403e-10 8.447448660730325e-10 5.743026201677114e-10 1.4526370822801543e-9 9.913118844730299e-10
          9.01715295865812e-10 5.285270711982657e-10 3.578313702252254e-10 3.2630671142388954e-10 2.4825376484397964e-10 5.625904958909038e-10
          3.809164015751848e-10 3.4621638860253684e-10 1.5131141619331137e-9 1.0327732856368153e-9 9.377194543646057e-10 6.376454778013019e-10
          1.5338282463888702e-9 1.046972032079648e-9 9.500375840131988e-10 5.840846332828586e-10 3.955004266300075e-10 3.588055035270722e-10
          2.7306686229742823e-10 5.914269232564846e-10 4.004721332052207e-10 3.6311888061646406e-10 1.9915018407395003e-10 1.6271707778981781e-10
          1.5455103491312381e-10 1.3275703255057848e-10 2.1050573944422446e-10 1.7166837898996874e-10 1.629918423968264e-10 2.1771313812680535e-10
          1.7749207056375442e-10 1.6837652363358598e-10 1.4427169518382358e-10 2.2022068203738958e-10 1.7956510244285186e-10 1.7027227302716028e-10
          1.4621156414057017e-7 6.674303407313827e-8 2.522084959032616e-8 7.485894162039421e-8 2.690386304561467e-7 1.276828312382641e-7
          3.8653422899704406e-7 1.8805298488900302e-7 3.771431933862644e-7 2.19872157619592e-7 2.566916463902658e-7 2.4558396340581475e-9
          3.15536289118318e-9 3.3305243977576473e-9 4.154357997784991e-9 4.56650065436659e-9 9.031621565343664e-10 1.2580973593006242e-9
          9.919642164193419e-10 1.3697130809774066e-9 1.642059816055121e-8 9.00466797153432e-9 6.200549879208261e-9 2.5323816272014897e-8
          1.3897079163055703e-8 3.548637865290707e-8 1.9542346854236163e-8 4.6955092341234266e-8 2.5899272079328957e-8 5.674015576943203e-8
          3.1361177439486445e-8 5.421852502145334e-8 1.3106124192039057e-7 6.190528894177562e-8 6.524783794059427e-8 3.9257463009788506e-10
          4.958038087809687e-10 3.7268629431799416e-10 4.762681698866213e-10 3.423714599025927e-10 4.105918276711036e-10 4.3052788755583046e-10
          4.857377882035213e-10 3.278452468400899e-10 2.8478327773263115e-10 3.52470483565855e-10 3.2389941807730396e-10 3.9399817333580253e-10
          2.6077127033690306e-10 3.385948733390301e-10 4.10257136078039e-10 4.641992600586662e-9 6.070202243003949e-9 8.982338259190766e-9
          1.5469464120167543e-9 2.0677340487612783e-9 4.140926799561949e-9 5.236967016612343e-9 1.7691048166819978e-9 2.2734321435955106e-9
          2.65571101556557e-9 3.3173762591411105e-9 3.0736051043871027e-9 1.133638375403034e-9 8.285167374211857e-10 1.6223012754151488e-9
          5.64590270741901e-10 7.96067931865967e-10 5.820221528488509e-10 1.2582247205511148e-9 6.033300212775613e-10 2.8640944275105407e-10
          3.827942208287207e-10 2.8486275932635603e-10 1.3298658285590188e-9 9.561965631045007e-10 1.1378180996784345e-9 1.99845064984903e-9
          1.6823940473220155e-9 9.119415135390631e-10 6.485496342474391e-10 1.168410187369257e-9 8.220365275888216e-10 8.106457466941307e-10
          6.749616350290649e-10 2.0915710410823502e-9 1.4714066962082677e-9 1.0245102149615132e-9 3.0135596655932466e-9 2.5621512939080624e-9
          1.8208610927981435e-9 3.076303876025316e-9 2.2109370389997896e-9 2.099749810821187e-9 1.5480654302005354e-9 1.0575686659412445e-9
          2.6184524897897823e-9 1.949036895485484e-9 1.1350775312628636e-9 7.604973191815257e-10 1.439074199113594e-9 3.19836788305891e-9
          2.400473751536548e-9 1.7836910384475205e-9 8.209549259890985e-10 5.430644285911355e-10 1.0457824636473382e-9 5.830268864064952e-10
          3.823753002088496e-10 7.448807993940719e-10 1.302015892651612e-9 9.30032881621772e-10 7.146694610285673e-10 5.064159153243334e-10
          5.730523267368171e-10 3.561365323480007e-10 2.4937488917587975e-10 2.807179798305314e-10 4.053325639667721e-10 2.6465181938900154e-10
          5.187016294728079e-10 2.75557140394611e-10 1.7969819808667035e-10 3.527715973492982e-10 2.2732719884103667e-10 6.486119481275302e-10
          4.412309196492451e-10 2.8148283672100423e-10 1.713744068554395e-10 1.1681345098041592e-10 1.4506306038294373e-10 1.3408843642489624e-10
          1.1249936923471445e-10 1.7728608870874332e-10 1.0580911323672325e-8 8.447643055774358e-9 5.546712152038065e-9 7.120509527468254e-9
          1.127239113447097e-8 9.029111546797924e-9 7.577860398939125e-9 6.522912506766991e-9 4.196478068284445e-9 6.988891173218339e-9
          4.854358064647583e-9 3.073810948769956e-9 5.211778769801922e-9 1.1705017564418416e-8 9.395817510632e-9 7.86368321457741e-9
          1.1852051085208802e-8 9.521042635198342e-9 7.960770322020754e-9 7.283759254488058e-9 5.438393628473994e-9 7.384667832307215e-9
          5.5160244776376245e-9 3.475325205227386e-9 2.1770003821848564e-9 3.737273096574942e-9 2.3929567622534646e-9 1.4907915614889347e-9
          2.576188652659111e-9 1.5861802888042871e-9 9.879397255008572e-10 1.708666858886667e-9 1.0609703169316915e-9 3.9037129568060024e-9
          2.6928039704611223e-9 3.960787579411862e-9 2.7328285387388466e-9 1.7867100558255133e-9 1.1073720060727327e-9 1.8135117292672596e-9
          1.1232818490647413e-9 4.225917654573163e-9 3.626011250169094e-9 2.627373996625707e-9 4.173897578043991e-9 3.051738729629914e-9
          5.4411483645892614e-9 4.703033443682733e-9 3.4628153589064203e-9 5.1849044639947105e-9 3.840623218873985e-9 3.818859040676241e-9
          2.8884012172523005e-9 2.1587371060322918e-9 4.454353965388176e-9 3.392396320821608e-9 2.548823714493888e-9 1.5823904498239163e-9
          1.1334093362098058e-9 1.875542102556252e-9 1.3469126054166302e-9 5.072995691278187e-9 3.887229323145082e-9 2.9343061109145026e-9
          5.641613789620856e-9 4.344655175619518e-9 3.2928595814841307e-9 2.166711998612423e-9 1.5597781290021308e-9 2.438864365936822e-9
          1.7594315035570372e-9 1.026129244837303e-8 7.222920569752452e-9 8.085903614053087e-9 1.231883986295988e-8 1.109771275619041e-8
          8.20842679926687e-9 8.919741353383924e-9 1.1740787356338314e-8 9.460842494908454e-9 1.3479323972108813e-8 1.2155924004388379e-8
          9.802029810567299e-9 1.231420962458458e-8 9.91849825491332e-9 6.5217474780450815e-9 5.0605116347773774e-9 3.816951234280398e-9
          2.789542213676084e-9 7.916667839447118e-10 5.388290482691531e-10 3.410067011267538e-10 9.422525793205752e-10 6.417203258748215e-10
          4.0353783046591743e-10 2.136392392696101e-10 1.6353893796982226e-10 2.5253309702854236e-10 1.0927790864232234e-9 7.446997268532986e-10
          4.657905932917838e-10 1.2342704455700171e-9 8.416137610663077e-10 5.239996829259739e-10 2.9141592714703704e-10 2.030381857529636e-10
          3.2743981746776345e-10 1.9726582733442367e-9 1.3497022290519739e-9 8.94220022184511e-10 5.580614901365088e-10 6.139168064319278e-10
          3.473135190841125e-10 3.80562338299009e-10 6.572159534692963e-10 4.061723876866043e-10 2.1417566044126917e-10 2.3390565218975587e-10
          1.6227747864109066e-10 1.7692182610728528e-10 2.4895594188495084e-10 1.8799102907793384e-10 6.846062649359267e-10 4.222868249401224e-10
          6.939736859519093e-10 4.277814162919185e-10 2.5842793350709725e-10 1.950008292988074e-10 2.6164407247012517e-10 1.973714486702804e-10
        </DataArray>
        <DataArray type="Float64" Name="gradient_matprop_error" format="ascii" RangeMin="0" RangeMax="0">
          0 0 0 0 0 0
          0 0 0 0 0 0
          0 0 0 0 0 0
          0 0 0 0 0 0
          0 0 0 0 0 0
          0 0 0 0 0 0
          0 0 0 0 0 0
          0 0 0 0 0 0
          0 0 0 0 0 0
          0 0 0 0 0 0
          0 0 0 0 0 0
          0 0 0 0 0 0
          0 0 0 0 0 0
          0 0 0 0 0 0
          0 0 0 0 0 0
          0 0 0 0 0 0
          0 0 0 0 0 0
          0 0 0 0 0 0
          0 0 0 0 0 0
          0 0 0 0 0 0
          0 0 0 0 0 0
          0 0 0 0 0 0
          0 0 0 0 0 0
          0 0 0 0 0 0
          0 0 0 0 0 0
          0 0 0 0 0 0
          0 0 0 0 0 0
          0 0 0 0 0 0
          0 0 0 0 0 0
          0 0 0 0 0 0
          0 0 0 0 0 0
          0 0 0 0 0 0
          0 0 0 0 0 0
          0 0 0 0 0 0
          0 0 0 0 0 0
          0 0 0 0 0 0
          0 0 0 0 0 0
          0 0 0 0 0 0
          0 0 0 0 0 0
          0 0 0 0 0 0
          0 0 0 0 0 0
          0 0 0 0 0 0
          0 0 0 0 0 0
          0 0 0 0 0 0
          0 0 0 0 0 0
          0 0 0 0 0 0
          0 0 0 0 0 0
          0 0 0 0 0 0
          0 0 0 0 0 0
          0 0 0 0 0 0
          0 0 0 0 0 0
          0 0 0 0 0 0
          0 0 0 0 0 0
          0 0 0 0 0 0
          0 0 0 0 0 0
          0 0 0 0 0 0
          0 0 0 0 0 0
          0 0 0 0 0 0
          0 0 0 0 0 0
          0 0 0 0 0 0
          0 0 0 0 0 0
          0 0 0 0 0 0
          0 0 0 0 0 0
          0 0 0 0 0 0
          0 0 0 0 0 0
          0 0 0 0 0 0
          0 0 0 0 0 0
          0 0 0 0 0 0
          0 0 0 0 0 0
          0 0 0 0 0 0
          0 0 0 0 0 0
          0 0 0 0 0 0
          0 0 0 0 0 0
          0 0 0 0 0 0
          0 0 0 0 0 0
          0 0 0 0 0 0
          0 0 0 0 0 0
          0 0 0 0 0 0
          0 0 0 0 0 0
          0 0 0 0 0 0
          0 0 0 0 0 0
          0 0 0 0 0 0
          0 0 0 0 0 0
          0 0 0 0 0 0
          0 0 0 0 0 0
          0 0 0 0 0 0
          0 0 0 0 0 0
          0 0 0 0 0 0
          0 0 0 0 0 0
          0 0 0 0 0 0
          0 0 0 0 0 0
          0 0 0 0 0 0
          0 0 0 0 0 0
          0 0 0 0 0 0
          0 0 0 0 0 0
          0 0 0 0 0 0
          0 0 0 0 0 0
          0 0 0 0 0 0
          0 0 0 0 0 0
          0 0 0 0 0 0
          0 0 0 0 0 0
          0 0 0 0 0 0
          0 0 0 0 0 0
          0 0 0 0 0 0
          0 0 0 0 0 0
          0 0 0 0 0 0
          0 0 0 0 0 0
          0 0 0 0 0 0
          0 0 0 0 0 0
          0 0 0 0 0 0
          0 0 0 0 0 0
          0 0 0 0 0 0
          0 0 0 0 0 0
          0 0 0 0 0 0
          0 0 0 0 0 0
          0 0 0 0 0 0
          0 0 0 0 0 0
          0 0 0 0 0 0
          0 0 0 0 0 0
          0 0 0 0 0 0
          0 0 0 0 0 0
          0 0 0 0 0 0
          0 0 0 0 0 0
          0 0 0 0 0 0
          0 0 0 0 0 0
          0 0 0 0 0 0
          0 0 0 0 0 0
        </DataArray>
        <DataArray type="Float64" Name="initial_marker" format="ascii" RangeMin="0" RangeMax="2">
          0.5 0.25 2 0 1 2
          2 0.6666666666666666 2 2 2 1.5
          1 0 2 2 0 2
          2 0 0 0 0 0
          0 0 1 2 0.5 1
          0 1 2 2 2 1
          0 1 1 1.5 2 2
          1.25 2 2 2 2 2
          2 2 2 2 2 2
          1.25 2 2 2 0.25 0.5
          0 0 0 0 0 0.5
          0 0 0 0 0 0
          0 0 0 0 0 0
          2 2 2 2 2 2
          2 2 2 2 2 2
          2 2 0.5 0 0 0
          0.5 0 0 0 0 0
          0 0 0 0 2 1.5
          2 1.5 0 0 0 0
          0 0 0 0 0 0
          2 2 2 2 2 2
          2 2 2 2 2 2
          2 2 2 2 2 2
          2 2 2 2 2 2
          2 2 2 2 2 2
          2 2 2 2 2 2