<?xml version="1.0"?>
<VTKFile type="UnstructuredGrid" version="0.1" byte_order="LittleEndian" header_type="UInt32" compressor="vtkZLibDataCompressor">
  <UnstructuredGrid>
    <Piece NumberOfPoints="947" NumberOfCells="493">
      <PointData>
        <DataArray type="Int32" Name="libmesh_node_id" format="ascii" RangeMin="20" RangeMax="3647">
          24 25 26 27 28 29
          30 31 32 33 34 35
          48 49 50 51 52 53
          66 67 68 69 70 71
          84 85 86 87 88 89
          96 97 98 105 106 107
          118 119 120 121 122 123
          124 125 131 132 133 134
          140 141 142 143 154 155
          156 157 158 159 160 161
          167 168 169 170 176 177
          178 179 190 191 193 195
          196 197 203 204 205 206
          212 213 214 215 226 227
          232 233 239 240 241 242
          248 249 250 251 275 276
          277 280 281 283 292 293
          298 306 313 314 320 321
          322 323 326 327 328 329
          330 331 332 333 334 335
          336 374 375 376 377 378
          379 380 381 382 383 384
          385 386 387 390 398 399
          400 401 402 403 404 405
          406 407 408 409 410 411
          415 416 418 419 421 440
          445 480 481 482 483 484
          485 486 487 488 489 494
          495 496 497 499 502 503
          504 505 506 508 509 510
          511 513 514 516 517 518
          519 520 522 523 548 549
          550 551 552 553 554 555
          556 557 558 559 560 561
          562 564 565 566 567 568
          570 571 573 575 576 577
          581 582 583 584 585 586
          587 667 668 669 670 671
          672 673 674 675 676 677
          678 679 680 681 682 683
          684 685 686 687 688 689
          690 691 692 693 694 716
          744 745 750 772 773 774
          775 776 777 778 779 780
          781 782 783 784 785 786
          787 788 789 790 791 792
          793 794 795 796 797 798
          799 800 801 802 803 804
          805 806 807 808 809 810
          811 812 813 814 815 816
          817 818 819 820 821 822
          823 824 825 826 827 828
          829 830 831 832 833 834
          835 836 837 838 839 840
          841 842 843 844 845 846
          847 848 849 850 851 852
          853 854 855 856 857 858
          859 874 875 876 877 878
          879 938 939 942 943 944
          945 947 958 959 960 961
          962 963 964 973 976 981
          992 993 994 995 996 997
          998 1122 1123 1126 1127 1128
          1129 1130 1131 1134 1135 1180
          1181 1182 1183 1198 1199 1200
          1201 1202 1203 1204 1205 1206
          1207 1208 1209 1210 1211 1212
          1213 1214 1215 1216 1217 1218
          1219 1220 1221 1222 1223 1226
          1229 1230 1231 1276 1277 1278
          1279 1280 1281 1282 1290 1291
          1292 1293 1294 1295 1301 1302
          1345 1346 1347 1348 1349 1350
          1351 1352 1353 1354 1355 1356
          1357 1358 1361 1367 1368 1372
          1393 1394 1395 1396 1397 1398
          1399 1400 1401 1402 1403 1404
          1405 1406 1407 1408 1409 1410
          1411 1412 1413 1414 1415 1416
          1417 1418 1419 1420 1421 1422
          1423 1424 1425 1426 1427 1428
          1429 1430 1431 1432 1433 1434
          1435 1436 1437 1438 1439 1440
          1441 1442 1443 1444 1445 1446
          1447 1448 1449 1450 1451 1452
          1453 1454 1455 1456 1663 1664
          1665 1666 1677 1678 1679 1744
          1745 1746 1747 1748 1749 1750
          1751 1753 1764 1765 1766 1767
          1768 1769 1770 1778 1779 1782
          1784 1785 1787 1798 1799 1800
          1801 1802 1803 1804 2498 2499
          2500 2501 2502 2503 2506 2511
          2512 2678 2679 2680 2681 2682
          2683 2684 2685 2686 2687 2688
          2689 2690 2691 2692 2693 2694
          2695 2696 2697 2698 2699 2700
          2701 2702 2703 2704 2705 2706
          2707 2708 2709 2710 2711 2712
          2713 2714 2715 2716 2717 2718
          2719 2720 2721 2722 2723 2724
          2725 2726 2727 2728 2729 2730
          2731 2732 2733 2734 2735 2736
          2737 2738 2739 2740 2741 2742
          2743 2744 2745 2746 2747 2748
          2749 2750 2751 2752 2753 2754
          2755 2756 2757 2758 2759 2760
          2761 2762 2763 2764 2765 2766
          2767 2768 2769 2770 2771 2772
          2773 2774 2775 2776 2777 2778
          2779 2780 2781 2782 2783 2784
          2785 2786 3482 3483 3484 3485
          3486 3487 3488 3489 3490 3491
          3492 3493 3494 3495 3496 3497
          3498 3499 3500 3501 3502 3503
          3504 3505 3506 3507 3508 3509
          3510 3511 3513 3514 3515 3516
          3517 3518 3519 3520 3521 3522
          3523 3525 3587 3588 3589 3590
          3591 3592 3593 3594 3595 3596
          3607 3608 3609 3610 3611 3612
          3613 3621 3622 3623 3624 3625
          3626 3627 3628 3629 3630 3641
          3642 3643 3644 3645 3646 3647
          20 21 22 23 46 47
          64 65 82 83 95 104
          80 81 116 117 94 130
          103 139 152 153 166 175
          194 189 202 211 231 238
          247 289 300 291 302 307
          294 303 305 308 315 316
          317 318 319 324 325 272
          278 286 271 363 364 365
          369 412 414 417 192 299
          490 279 492 491 493 498
          284 500 501 507 229 512
          515 312 521 274 538 393
          539 543 546 563 288 569
          429 430 572 431 574 578
          580 579 441 296 588 590
          592 594 655 656 657 661
          273 665 372 708 710 711
          709 714 715 713 712 391
          717 742 743 747 746 748
          749 396 751 722 723 727
          730 766 768 770 282 860
          861 862 863 867 868 870
          871 873 880 881 884 885
          887 889 952 965 967 969
          971 999 1001 1003 1005 304
          1124 1125 1132 1133 311 1174
          1175 1179 285 1224 1225 1227
          1228 422 423 426 1270 1271
          1275 1296 1297 1298 1299 1300
          1303 864 1359 1363 1360 1364
          1365 1366 1369 1362 1370 1371
          2488 2489 2493 2496 2504 2507
          2505 2508 2509 2510 2513
        </DataArray>
        <DataArray type="Float64" Name="bounds" format="ascii" RangeMin="0" RangeMax="0">
          0 0 0 0 0 0
          0 0 0 0 0 0
          0 0 0 0 0 0
          0 0 0 0 0 0
          0 0 0 0 0 0
          0 0 0 0 0 0
          0 0 0 0 0 0
          0 0 0 0 0 0
          0 0 0 0 0 0
          0 0 0 0 0 0
          0 0 0 0 0 0
          0 0 0 0 0 0
          0 0 0 0 0 0
          0 0 0 0 0 0
          0 0 0 0 0 0
          0 0 0 0 0 0
          0 0 0 0 0 0
          0 0 0 0 0 0
          0 0 0 0 0 0
          0 0 0 0 0 0
          0 0 0 0 0 0
          0 0 0 0 0 0
          0 0 0 0 0 0
          0 0 0 0 0 0
          0 0 0 0 0 0
          0 0 0 0 0 0
          0 0 0 0 0 0
          0 0 0 0 0 0
          0 0 0 0 0 0
          0 0 0 0 0 0
          0 0 0 0 0 0
          0 0 0 0 0 0
          0 0 0 0 0 0
          0 0 0 0 0 0
          0 0 0 0 0 0
          0 0 0 0 0 0
          0 0 0 0 0 0
          0 0 0 0 0 0
          0 0 0 0 0 0
          0 0 0 0 0 0
          0 0 0 0 0 0
          0 0 0 0 0 0
          0 0 0 0 0 0
          0 0 0 0 0 0
          0 0 0 0 0 0
          0 0 0 0 0 0
          0 0 0 0 0 0
          0 0 0 0 0 0
          0 0 0 0 0 0
          0 0 0 0 0 0
          0 0 0 0 0 0
          0 0 0 0 0 0
          0 0 0 0 0 0
          0 0 0 0 0 0
          0 0 0 0 0 0
          0 0 0 0 0 0
          0 0 0 0 0 0
          0 0 0 0 0 0
          0 0 0 0 0 0
          0 0 0 0 0 0
          0 0 0 0 0 0
          0 0 0 0 0 0
          0 0 0 0 0 0
          0 0 0 0 0 0
          0 0 0 0 0 0
          0 0 0 0 0 0
          0 0 0 0 0 0
          0 0 0 0 0 0
          0 0 0 0 0 0
          0 0 0 0 0 0
          0 0 0 0 0 0
          0 0 0 0 0 0
          0 0 0 0 0 0
          0 0 0 0 0 0
          0 0 0 0 0 0
          0 0 0 0 0 0
          0 0 0 0 0 0
          0 0 0 0 0 0
          0 0 0 0 0 0
          0 0 0 0 0 0
          0 0 0 0 0 0
          0 0 0 0 0 0
          0 0 0 0 0 0
          0 0 0 0 0 0
          0 0 0 0 0 0
          0 0 0 0 0 0
          0 0 0 0 0 0
          0 0 0 0 0 0
          0 0 0 0 0 0
          0 0 0 0 0 0
          0 0 0 0 0 0
          0 0 0 0 0 0
          0 0 0 0 0 0
          0 0 0 0 0 0
          0 0 0 0 0 0
          0 0 0 0 0 0
          0 0 0 0 0 0
          0 0 0 0 0 0
          0 0 0 0 0 0
          0 0 0 0 0 0
          0 0 0 0 0 0
          0 0 0 0 0 0
          0 0 0 0 0 0
          0 0 0 0 0 0
          0 0 0 0 0 0
          0 0 0 0 0 0
          0 0 0 0 0 0
          0 0 0 0 0 0
          0 0 0 0 0 0
          0 0 0 0 0 0
          0 0 0 0 0 0
          0 0 0 0 0 0
          0 0 0 0 0 0
          0 0 0 0 0 0
          0 0 0 0 0 0
          0 0 0 0 0 0
          0 0 0 0 0 0
          0 0 0 0 0 0
          0 0 0 0 0 0
          0 0 0 0 0 0
          0 0 0 0 0 0
          0 0 0 0 0 0
          0 0 0 0 0 0
          0 0 0 0 0 0
          0 0 0 0 0 0
          0 0 0 0 0 0
          0 0 0 0 0 0
          0 0 0 0 0 0
          0 0 0 0 0 0
          0 0 0 0 0 0
          0 0 0 0 0 0
          0 0 0 0 0 0
          0 0 0 0 0 0
          0 0 0 0 0 0
          0 0 0 0 0 0
          0 0 0 0 0 0
          0 0 0 0 0 0
          0 0 0 0 0 0
          0 0 0 0 0 0
          0 0 0 0 0 0
          0 0 0 0 0 0
          0 0 0 0 0 0
          0 0 0 0 0 0
          0 0 0 0 0 0
          0 0 0 0 0 0
          0 0 0 0 0 0
          0 0 0 0 0 0
          0 0 0 0 0 0
          0 0 0 0 0 0
          0 0 0 0 0 0
          0 0 0 0 0 0
          0 0 0 0 0 0
          0 0 0 0 0 0
          0 0 0 0 0 0
          0 0 0 0 0 0
          0 0 0 0 0 0
          0 0 0 0 0 0
          0 0 0 0 0
        </DataArray>
        <DataArray type="Float64" Name="gradient_error" format="ascii" RangeMin="4.797685014691338e-11" RangeMax="5.556874157771643e-7">
          2.184233776715406e-9 2.1824124513394007e-9 2.194901196599001e-9 2.1946137773210023e-9 2.186953865553877e-9 2.185825125948229e-9
          2.189238362526734e-9 2.187911438783763e-9 2.187378169006272e-9 2.186406779808214e-9 2.1882187245830064e-9 2.1865902966934374e-9
          2.1821159148192524e-9 2.187718087256459e-9 2.184041066965092e-9 2.1838388995241857e-9 2.1843992233187585e-9 2.1830028716528303e-9
          2.1836407036751092e-9 2.1811098164699147e-9 2.183385747587603e-9 2.1810932840075793e-9 2.1833630560273607e-9 2.1810438745017917e-9
          2.180014635902893e-9 2.1697093998714894e-9 2.192915527907027e-9 2.1846264337906054e-9 2.1958751423554e-9 2.1885527037823473e-9
          2.1654055743291124e-9 2.1753465209379746e-9 2.1781579500936406e-9 2.1714069848181395e-9 2.174355702201764e-9 2.175085634977986e-9
          3.917067792018956e-9 3.740740288714654e-9 2.254915038955379e-9 2.234071242402168e-9 2.268596010037337e-9 2.2500832872386607e-9
          2.271498796888874e-9 2.250169747462873e-9 3.0337708188875995e-9 2.1891283610500404e-9 2.1859559955535404e-9 2.1819314444518455e-9
          2.5031288523648464e-9 2.1650292762511228e-9 2.140341426667097e-9 2.135022190866819e-9 3.4998635782160797e-9 9.53917370053719e-9
          1.337617613250893e-9 2.4953625705096355e-9 1.7849199141101811e-9 2.0496339263087628e-9 2.2565671514829948e-9 2.2067250434353304e-9
          9.231066141286874e-9 2.7289329576309398e-9 2.0839583291326165e-9 2.004121056516035e-9 3.237872449957046e-9 1.890862324584389e-9
          1.8607348716361711e-9 1.8513591776444038e-9 5.1535648858434844e-8 1.7648029826764302e-8 2.244252441251047e-9 1.1390808076715336e-9
          1.1535514327544324e-9 1.3982659663077232e-9 8.907167287246958e-9 1.9702987559755355e-9 1.357421718106111e-9 1.4239510205466868e-9
          3.808879979454147e-9 1.2744966994354326e-9 1.1938410952074278e-9 1.2005313963489954e-9 1.6601188586777972e-9 5.20902783555662e-8
          4.797685014691338e-11 6.745647453276752e-10 2.678455369616473e-9 8.291995492407116e-10 7.688451099817642e-10 1.0288134367646161e-9
          4.03035972727306e-9 9.330922618327742e-10 7.769847165007351e-10 7.969422421630715e-10 2.1448443402835787e-8 3.068116216053064e-7
          2.6990796462125037e-7 3.2596558052326223e-8 2.1574558334215285e-7 3.4236842668387637e-7 4.237875560978173e-9 9.80559908639781e-9
          1.4211853847616349e-8 6.490895283938499e-10 8.033568796528582e-9 7.372230717595111e-9 1.9946376315246134e-9 1.613068504517202e-9
          5.475993643395364e-9 6.7108926386616395e-9 9.273193812252059e-9 4.6251936923677426e-10 6.424462853619065e-10 3.7356679304414894e-10
          1.5141645792004e-9 4.0596974100510646e-10 3.4207927543378406e-10 6.120199827068769e-10 8.223732014870385e-10 2.574557734051538e-9
          8.661852692295263e-10 8.178874444411269e-8 6.350245418729863e-8 1.2167448492619762e-7 1.5848266961094768e-7 3.761203549850402e-8
          8.153302968989831e-8 1.681155885647672e-7 4.2006306431031076e-8 1.481586933627493e-7 1.6028298201061223e-7 2.888989281532362e-7
          2.6808651805163326e-7 2.978793407203588e-7 2.9643451212158313e-7 3.6387177714560976e-7 4.862332826485468e-7 4.773323142826575e-7
          3.8314946283553537e-7 4.98611619901925e-7 3.0808255799774383e-7 2.9976548941533645e-7 1.6745474698283244e-7 5.556874157771643e-7
          3.982903833610478e-7 2.6646287135481385e-7 2.0684760188370895e-8 1.6091482284067265e-8 3.949042186025505e-8 7.718747744850971e-8
          1.229540656780621e-8 7.408813604015476e-8 3.057466607374642e-7 2.1102504079735686e-7 1.427058063548737e-7 2.4656994602025894e-7
          3.3624328811161037e-7 2.8645355626523747e-10 3.1261914463717947e-10 3.7994946216358017e-10 3.9701077823504697e-10 2.954165989375701e-10
          2.98307339790044e-10 3.163096728181952e-10 3.387847330091215e-10 4.1407209430651393e-10 3.343120058463464e-10 1.202749494728951e-8
          1.767192482019981e-8 6.8895478603920295e-9 6.494419773936445e-9 1.760493419295101e-9 2.3316354693110112e-8 6.0992916874808605e-9
          3.8403789729325e-9 5.882305701680644e-9 1.225633280345828e-9 8.917016319876192e-10 9.322835958344697e-10 6.196047172326499e-10
          7.924232430428788e-9 9.728655596813202e-10 4.2494471401951107e-10 2.4212521197964523e-10 2.7063972599840635e-10 2.591759333146334e-10
          3.110068474576544e-10 2.266010741186997e-10 2.9915424001716753e-10 3.6283776160067546e-10 2.0969602992394412e-7 2.0864706080802105e-7
          1.3992038130695138e-7 1.949493759498258e-7 5.654063441809199e-8 1.0219620598462437e-7 4.93576081765035e-8 1.0569629249966318e-7
          1.8013466051739864e-7 1.2979067333856106e-7 8.090381307004472e-9 1.4468484602190136e-8 2.244372615265667e-8 4.117212945352279e-8
          3.6479514106791383e-9 3.2630530160778214e-9 7.980601381085381e-9 1.5048133811941146e-8 3.8520652255355466e-9 8.042171116118771e-8
          1.6748155869434075e-8 1.339304072588246e-9 7.620125460419413e-10 7.797009622092838e-10 1.6247142241342587e-9 8.444689721871166e-10
          1.6865603679200722e-7 6.394446904303201e-8 2.154225868243272e-8 1.2499773387982025e-8 2.1326572225994792e-7 8.21705323473842e-8
          2.2286355372090227e-8 9.888222956987147e-8 9.587437419391129e-8 1.531472032838384e-7 1.4284315967970355e-7 8.926375994721816e-8
          1.483354879447881e-7 1.3698231792768016e-7 8.399857335909906e-8 1.1541451995649854e-7 1.1518742483248641e-7 2.7643225662252774e-7
          2.606318069027341e-7 2.6970181872127107e-7 2.1333257621548173e-7 7.869223900218542e-8 7.969923839008717e-8 1.4057291456471922e-7
          1.2853444679446487e-7 6.757429460474798e-8 1.295324456493713e-7 1.1724645043483443e-7 8.07062377779889e-8 1.1649597902421056e-7
          1.0496045522029759e-7 2.9962541762028216e-7 2.7623130731201105e-7 2.786784959178179e-7 2.4808837110558246e-7 3.8188291299973325e-7
          2.7753034132054765e-7 3.4009877655551014e-7 3.0415201985846334e-7 3.9216667421347533e-7 3.830258799441499e-7 4.3473779048247967e-7
          4.220779418114312e-7 3.369261912994648e-7 3.6051736257687355e-7 4.178248013943053e-7 4.358975114698574e-7 5.030414642604294e-7
          4.275732036164795e-7 4.856152615207933e-7 4.65924291333034e-7 5.466520269336234e-7 5.150533190972905e-7 3.8191097445406524e-7
          3.99188324277158e-7 4.3642185700027206e-7 5.177548077019726e-7 4.45443558690033e-7 5.332634519042782e-7 1.510219138167734e-7
          2.4932697052846326e-7 1.6300776035753234e-7 2.5189836015001515e-7 1.2021003238552382e-7 1.9868664413282143e-7 1.9218008828666617e-7
          3.387357586616175e-7 3.5566339857248055e-7 2.3336999542590446e-7 1.8719527823919676e-7 2.4866371237773966e-7 1.7150597328011476e-7
          2.3777209145755836e-7 1.3579983716912596e-7 1.7973879699262356e-7 1.6062214562175862e-7 3.68601010868656e-7 3.724348496544968e-7
          2.1683475579548504e-7 3.289451437970832e-7 4.002815082264923e-7 3.2152781897988183e-7 4.410248075799151e-7 4.689019499370917e-7
          5.403515969327845e-7 2.611216969852563e-7 3.633680847615975e-7 3.6622296540127293e-7 4.766751893630885e-7 1.67352765156578e-7
          3.462533037338906e-7 2.7333725539699053e-8 1.5742593519963455e-7 5.419419030497312e-7 4.4551726129097096e-7 4.37609824077405e-9
          1.969993818877953e-7 5.8913111318726784e-8 4.860735041222417e-7 3.983246155463545e-7 4.2984236736995583e-7 2.495265182790459e-7
          2.459805191734825e-7 4.177595203467688e-7 4.554597184959932e-7 2.6872173843314294e-7 4.6044883500949707e-7 4.826681157808879e-7
          2.3425409048097385e-7 2.5809333032479215e-7 4.938277947979647e-7 5.245047418877842e-7 2.550949256767807e-7 5.2511564661318744e-8
          5.4106217821870405e-8 1.1481078319822628e-7 1.028007233117071e-7 2.8999811418128895e-8 9.642761588841351e-8 8.557793658652243e-8
          5.5700870982422054e-8 9.079066342518796e-8 6.352000245896483e-8 3.098408132709901e-7 2.7600740682591595e-7 2.655010411331444e-7
          2.2941157942718569e-7 2.2657139448579874e-8 3.207104179844609e-8 2.3038590789260328e-8 1.5016556397786957e-7 9.59953513142052e-8
          9.644439043586572e-8 4.287035068475301e-7 4.7078848215886277e-7 4.074712225189305e-7 3.159688097067668e-7 2.6989676759607696e-7
          3.320370380294933e-7 4.439868285409579e-7 2.1768790083137495e-7 1.8701159062619518e-7 1.3519360413918618e-7 1.0533476289412486e-7
          3.601394824005802e-7 3.262636485633854e-7 2.2104085790720321e-7 7.322728701093597e-8 3.980291409116667e-7 4.365445682785535e-7
          4.837082970849689e-7 4.534759757719791e-7 2.9805755716874753e-7 2.4280750330229154e-7 5.323478670536575e-7 5.051972807724262e-7
          3.279762163655953e-7 1.3697861756229365e-10 1.3432328398263675e-10 1.298850068861998e-10 9.112600095823867e-11 9.904793080212572e-11
          1.3166795040297982e-10 1.1400861691257289e-10 1.0696986064601277e-10 6.821085471805164e-11 9.634928342216596e-11 2.3933013828168876e-8
          6.645258347570077e-8 1.2279436224213685e-8 2.537948321485499e-8 4.85037225932443e-9 4.465830265022123e-9 6.598694802676439e-9
          9.666707357675169e-9 7.355655003038509e-9 6.8368301655279965e-9 8.609989724442086e-9 1.6514483377728557e-9 3.8684738980281784e-9
          3.895887992794097e-9 4.081288270719817e-9 6.318005328017485e-9 7.553272091209003e-9 3.923302087560017e-9 6.295794939593697e-10
          7.238522141347593e-10 2.0049311113143807e-9 2.050600742057923e-9 3.648188481566373e-10 9.550998051743467e-10 9.24468193411694e-10
          8.181249343101489e-10 2.0962703728014656e-9 8.938365816490414e-10 1.434053275944944e-10 1.9032009995224177e-10 1.2877598368282388e-10
          2.372348723099892e-10 3.0022330171168085e-10 2.4144857543414403e-10 6.23723189318768e-8 8.217200604289589e-8 6.279865096333587e-8
          7.921602661897888e-8 4.9614009963506585e-8 6.605408824836346e-8 6.412807456164294e-8 3.817499117603185e-9 6.333952027889641e-9
          5.131595484668086e-9 3.929238941446531e-9 3.149965108167708e-9 2.6621464188634887e-9 2.1743277295592698e-9 3.2023115274944487e-9
          9.274930469316228e-8 1.0851314235632367e-7 1.0123494503677194e-7 1.1763817267123475e-7 8.385010172399347e-8 9.193082309657688e-8
          7.547163617317704e-8 7.754522505003706e-8 8.277983405248864e-8 7.632509275114402e-8 1.097205853803816e-7 1.267632029861459e-7
          1.000115444691603e-7 7.961881392689709e-8 1.3525005284313044e-8 6.670263665459087e-9 8.790947273032126e-9 9.792070790766618e-9
          7.751475146769773e-8 8.305877922663811e-8 8.296079122275411e-8 9.421197631572756e-8 8.286280321887009e-8 9.699324389384635e-8
          5.130018377208202e-8 4.937195626049016e-8 5.117803668743195e-8 5.298411711437375e-8 5.105588960278189e-8 7.947107807244797e-8
          7.905235693259716e-8 7.863363579274635e-8 5.64056934386981e-8 5.762538164132363e-8 6.285816067455208e-8 5.884506984394918e-8
          8.247026720469283e-8 8.371809336243795e-8 7.05898540240307e-8 8.346258316078706e-8 8.496591952018306e-8 9.949574516260433e-8
          4.5441942977720826e-8 5.5798258525038233e-8 4.142867909355034e-8 7.573484270124913e-8 9.02375079946664e-8 1.0248811578874827e-7
          9.93556121348938e-8 9.60849078772733e-8 1.0764258973067358e-7 9.63844406038488e-8 4.187156609003659e-8 5.1068143432305467e-8
          2.0805642513409605e-8 3.876147888975952e-8 6.040654327099614e-8 6.790304357520393e-8 2.762796601356383e-8 4.4693493923685714e-8
          2.353097389909322e-8 6.19680166980431e-8 4.563632856817775e-9 1.711252248645802e-8 2.838738932867006e-9 6.787173727957484e-9
          6.21067985417336e-8 5.925960340117026e-8 2.0620530082773706e-9 6.600871402571901e-9 4.9298907858835525e-9 5.395092495716613e-8
          9.170458625102174e-8 9.19452902743858e-8 9.317166450737708e-8 9.7257998139165e-8 1.0831705808605656e-7 9.81237477712937e-8
          1.0984661019785395e-7 9.843108840105666e-8 1.0916172541792787e-7 9.986305493873862e-8 1.0713087662720604e-7 1.0730073895629398e-7
          1.1708457390302951e-7 1.0691129678680057e-7 1.0217970571460082e-7 1.1236583008656438e-7 9.800741914098244e-8 5.983923018980421e-8
          7.138434888340099e-8 6.605582019081618e-8 6.751211508365842e-8 9.713206239269791e-8 9.654770221678698e-8 6.939242151668654e-9
          2.1922884447811956e-8 7.671327290755745e-8 1.0788919791507565e-7 1.1905020052387856e-7 1.0441110154925841e-7 1.1395333842925589e-7
          1.1631124677079721e-7 1.2907512413089082e-7 1.1507318987762809e-7 2.8889134055884607e-9 5.590834785273987e-9 6.526560815559382e-8
          2.610135700495655e-9 4.4171046151021055e-9 6.451194657448503e-8 1.1979800520289644e-7 1.1797814576547558e-7 1.2119401693706572e-7
          1.3413979092110681e-7 1.205722069797489e-7 1.0359211067871181e-7 1.230564380764096e-7 1.2067321323342888e-7 9.382710346051483e-8
          1.3008466694885938e-7 9.1579501214054e-8 1.3949612066428988e-7 8.933189896759318e-8 6.590434480427016e-9 3.2528731404209887e-9
          4.401788358020763e-9 9.402331783398366e-9 1.1477357835400146e-8 9.089488933645391e-9 9.480886815654824e-9 9.373212746847831e-9
          9.872284697664257e-9 1.1336991593509552e-8 1.1301964858806218e-8 1.1266938124102884e-8 8.501122750159177e-9 8.940895069109749e-9
          9.172335152155697e-9 1.02048474126208e-8 1.0593053652823054e-8 1.1038083629458834e-8 1.1733428874739376e-8 1.1047139821736387e-8
          6.8698837463947315e-9 8.772441534165445e-9 9.197643887175314e-9 9.622846240185182e-9 7.194934131952988e-9 7.102271228509031e-9
          7.660582136786397e-9 7.009608325065075e-9 1.0418928864649174e-8 7.444056011427047e-9 7.197736082887507e-9 6.951416154347967e-9
          7.525588419380283e-9 6.938848790875225e-9 7.13364719658174e-9 5.458213889043544e-9 6.463438329980186e-9 7.3284456022882555e-9
          8.322587644798617e-9 6.682763449797461e-9 7.165023164654449e-9 5.932481450256908e-9 7.647282879511436e-9 1.0164292168068348e-8
          1.0298146943574501e-8 9.909655471487521e-9 8.394101217237282e-9 8.974810194762034e-9 7.4919213891531e-9 8.303409862934645e-9
          9.555519172286785e-9 9.640890686695994e-9 6.210734046829759e-9 7.147684294313729e-9 5.861959394610541e-9 8.767001026262194e-9
          6.517490135411825e-9 7.40112096392347e-9 5.536128209300686e-9 6.459580969249789e-9 9.46449246442098e-9 8.945012175824175e-9
          3.490566470323419e-9 4.7252327647536735e-9 3.855102574774374e-9 7.748879223298801e-9 1.0716027833979677e-8 1.0739180281303753e-8
          1.043090497833953e-8 1.050573446008303e-8 1.0730075961487872e-8 1.0944043950105955e-8 1.1281345218892454e-8 1.1243854763805068e-8
          1.2055699815335455e-8 1.0440198851253755e-8 1.0217291033657297e-8 1.1342538315093837e-8 3.714284075924928e-9 5.097540744653001e-9
          2.6038033581504024e-9 3.892559062864045e-9 8.141815649541579e-9 7.179097983289748e-9 2.7058135590195117e-9 4.3684464745477864e-9
          3.2948063155284658e-9 7.752506583144522e-9 2.0928957759106807e-9 3.1393573376241598e-9 1.8943254180436e-9 2.678700434990947e-9
          6.221409797238302e-9 5.382798100995619e-9 1.7385161318389962e-9 2.6895960044781613e-9 2.3711408718053243e-9 5.669198664100158e-9
          1.0173077272597415e-8 1.0063778149608647e-8 1.0543320659492746e-8 1.0950675100215486e-8 9.915249566855301e-9 9.788455616660901e-9
          1.0356565357497619e-8 9.72779777174006e-9 9.27989681222431e-9 1.119859484834116e-8 1.1257272874395677e-8 9.425202111725689e-9
          8.95447312017956e-9 1.1152682772368388e-8 1.2039193329488143e-8 1.190174334774875e-8 1.2543196741606316e-8 1.1764293366009357e-8
          1.263373654037943e-8 1.275141770723191e-8 1.2692692571090492e-8 1.3587659339650391e-8 1.3870431189214114e-8 1.4373580348007135e-8
          1.5297923864173338e-8 1.4440940890797877e-8 1.1204098516554351e-8 1.1365261281996437e-8 1.0822848835962347e-8 1.1317908750837721e-8
          1.1526424047438522e-8 1.2464839693409716e-8 8.19658938426569e-9 8.926929018756901e-9 8.009883675574097e-9 1.0290252387964511e-8
          1.0272948778844018e-8 1.0947656763976138e-8 9.726728633730018e-9 1.0489216054169246e-8 1.2730716093907997e-8 1.2672782088604903e-8
          6.1656248572848746e-9 7.253544849132325e-9 1.016592393551636e-8 1.38712756347756e-8 1.3973969520748236e-8 1.2119165403499545e-8
          1.2811745089990136e-8 1.2682110949601787e-8 1.4196689678335652e-8 1.4844256834562995e-8 1.4554311917963568e-8 1.5594652966524663e-8
          1.311876897087992e-8 1.4247154911706895e-8 4.5172461937291156e-9 5.501906216982679e-9 3.921440231612228e-9 4.8274091238915525e-9
          8.360798543569184e-9 7.73837900155601e-9 2.5879884868777766e-9 3.375398062222577e-9 3.418250962027441e-9 6.054666544909809e-9
          1.14102943796992e-8 1.1382000011987163e-8 1.2585557912496273e-8 1.3020620037033176e-8 9.956257946531956e-9 9.681651947271026e-9
          1.1965990440811673e-8 2.0264491676605885e-9 2.58508823048107e-9 2.662726216131562e-9 3.0395195562548057e-9 4.818423090710579e-9
          4.6568080681238225e-9 1.887238684113035e-9 2.3981139492126607e-9 2.9702088451587665e-9 4.458008961226987e-9 8.87207509173882e-9
          8.550391859258233e-9 1.1251031295358035e-8 1.1203480478646872e-8 8.533057646312585e-9 8.219922253132079e-9 1.1059086584483482e-8
          2.1846093953561156e-9 2.1847713028572015e-9 2.1996562413740335e-9 2.192483276207986e-9 2.183119507938952e-9 2.186987840274474e-9
          2.1813058055196163e-9 2.188665369507008e-9 2.34476257814036e-9 2.3429979592607093e-9 2.2491011626768386e-9 2.1569689849726184e-9
          3.046696543155113e-9 3.016341425180264e-9 9.624170235488504e-9 8.933729836722881e-9 2.5695720603912646e-9 5.812973808555354e-9
          2.153157813577114e-9 3.3826581791534494e-9 1.7700868963533894e-8 3.192822459193059e-8 2.8852309942527443e-8 7.516009010988984e-9
          7.06845510085208e-10 2.744802903686884e-7 3.096892158079045e-8 1.1583707846849474e-8 4.93975414466211e-10 1.425190970774084e-8
          1.2837768830314498e-8 9.282127261523577e-10 4.970842435174276e-10 7.341014885735889e-10 3.511647260333556e-10 6.647082370835176e-10
          2.0495827283070142e-9 2.351774719353298e-10 1.4988234190818791e-10 2.3410451229864867e-10 1.5942979104993985e-8 1.164249523849992e-7
          4.122910955318022e-8 2.815929101361159e-8 7.038450913787768e-8 1.5494531997889148e-8 2.434406589075618e-8 7.423843744767388e-8
          2.7238211232444187e-8 5.342295899488795e-9 1.458510570342692e-7 1.206835791549462e-7 1.6055726735089948e-7 1.3087291777206963e-7
          1.2563926887357308e-7 3.546442098489421e-9 7.862267778853438e-9 1.1684826196159577e-8 2.792433573722714e-10 2.976477965239949e-10
          2.078441540174621e-8 8.54494652024583e-8 4.1297487907569534e-8 3.566050914328792e-8 8.632005071881955e-8 1.429743259327804e-8
          1.601413532993477e-7 6.181056041339286e-8 1.3697959229435118e-7 1.680820786631598e-9 2.8074980540736745e-9 2.1360082929173676e-9
          5.452695762741353e-10 6.100194746198501e-10 6.655944385287595e-10 2.978123641783934e-7 2.823179180099838e-7 3.458362370130081e-7
          2.80006649682159e-7 1.647104146158401e-7 1.5173243753420065e-7 9.910707377416224e-9 3.5190814597835696e-8 3.088857075584075e-8
          2.063867023710749e-9 3.6866345355728984e-9 3.2918379809935272e-9 9.20286770109217e-10 1.278888053689935e-9 4.197787493244229e-9
          3.7979396582607725e-9 1.195137844824561e-9 8.79190230689212e-8 1.2280338366045497e-7 4.091899304319686e-9 6.060376178357858e-9
          4.9688916504452505e-9 6.994600526253405e-9 1.0130971205457723e-7 1.556480920115321e-7 1.4644915228802e-7 1.2120170162286092e-7
          2.634191310989717e-7 2.503334241825861e-7 2.114404704282054e-7 3.227574314504779e-7 3.550327488087776e-7 3.483992742953096e-7
          3.186771372417809e-7 3.204368822789438e-7 3.37751290087477e-7 3.1380066588523683e-7 2.930406107705767e-7 3.8435345063071915e-7
          3.469984049172677e-7 2.3826692786877723e-7 2.9332636086249016e-7 4.101261767601366e-7 3.617691178966864e-7 1.821960764903482e-7
          2.5910073975447873e-7 4.1263813728379594e-7 3.607249042675127e-7 1.5571024514537168e-7 2.4309766805681183e-7 2.0035980412499168e-7