<?xml version="1.0"?>
<VTKFile type="UnstructuredGrid" version="0.1" byte_order="LittleEndian" header_type="UInt32" compressor="vtkZLibDataCompressor">
  <UnstructuredGrid>
    <Piece NumberOfPoints="591" NumberOfCells="356">
      <PointData>
        <DataArray type="Int32" Name="libmesh_node_id" format="ascii" RangeMin="271" RangeMax="4053">
          273 368 378 380 394 724
          725 726 727 728 729 730
          731 732 733 734 735 736
          737 741 743 744 745 746
          747 748 749 750 751 752
          753 754 772 773 778 834
          835 840 841 1152 1153 1154
          1155 1156 1157 1158 1159 1160
          1161 1162 1163 1164 1165 1166
          1167 1168 1169 1170 1171 1172
          1173 1174 1178 1179 1181 1182
          1184 1205 1206 1207 1208 1209
          1210 1211 1212 1213 1215 1226
          1227 1228 1229 1230 1231 1234
          1239 1242 1428 1429 1430 1431
          1432 1433 1434 1435 1436 1437
          1438 1439 1442 1444 1445 1447
          1448 1449 1450 1451 1455 1456
          1458 1459 1465 1468 1469 1470
          1471 1472 1473 1474 1475 1476
          1477 1478 1479 1482 1488 1489
          1492 1493 1495 2027 2028 2029
          2030 2031 2032 2033 2034 2035
          2036 2037 2038 2041 2042 2187
          2188 2189 2190 2191 2192 2193
          2194 2195 2196 2197 2198 2199
          2200 2201 2202 2203 2204 2205
          2206 2207 2208 2209 2210 2211
          2212 2213 2214 2215 2216 2217
          2218 2219 2220 2221 2222 2223
          2224 2225 2226 2227 2228 2229
          2230 2231 2232 2233 2248 2249
          2250 2251 2252 2253 2254 2255
          2256 2257 2786 2787 2788 2789
          2790 2791 2792 2793 2794 2795
          2796 2797 2798 2799 2800 2801
          2802 2803 2804 2805 2806 2807
          2808 2809 2810 2811 2812 2813
          2814 2815 2816 2817 2818 2819
          2820 2821 2822 2823 2824 2825
          2826 2827 2828 2829 2830 2831
          2832 2833 2834 2835 2836 2837
          2838 2839 2840 2841 2842 2843
          2854 2855 2856 2857 2858 2859
          2860 2871 2872 2873 2874 2875
          2876 2877 2878 2879 2880 2891
          2892 2893 2894 2895 2896 2897
          2905 2906 2907 2908 2909 2910
          2911 2912 2913 2914 2915 2916
          2917 2918 2919 2920 2921 2922
          2923 2924 2925 2926 2927 2928
          2929 2930 2931 2933 2934 2935
          2936 2937 2938 2939 2940 2941
          2942 2943 2945 2946 2947 2950
          2951 2953 2954 2955 2956 2957
          2958 2959 2960 2961 2962 2973
          2974 2975 2976 2977 2978 2979
          2980 2981 2993 2994 2995 2996
          2997 2998 2999 3007 3008 3011
          3012 3021 3022 3023 3024 3025
          3026 3027 3028 3029 3030 3031
          3032 3033 3034 3035 3036 3037
          3038 3039 3040 3041 3042 3043
          3044 3045 3046 3047 3048 3049
          3050 3051 3052 3053 3054 3055
          3056 3057 3058 3059 3060 3061
          3062 3063 3064 3065 3066 3067
          3068 3069 3070 3071 3072 3073
          3074 3075 3076 3077 3078 3089
          3090 3091 3092 3093 3094 3095
          3107 3112 3123 3125 3127 3129
          3137 3138 3139 3140 3141 3142
          3143 3144 3145 3146 3147 3149
          3150 3151 3154 3155 3157 3158
          3159 3160 3161 3162 3163 3164
          3165 3166 3167 3169 3170 3171
          3174 3175 3177 3178 3179 3180
          3181 3182 3183 3191 3192 3195
          3196 3205 3207 3209 3211 3219
          3223 3864 3865 3866 3871 3872
          3873 3874 3875 3876 3881 3882
          3886 3887 3888 3889 3931 3947
          3949 3995 3996 3998 3999 4000
          4001 4005 4008 4009 4037 4039
          4051 360 271 367 361 364
          369 365 379 381 374 738
          739 740 742 375 376 770
          771 762 774 765 775 777
          395 779 1031 1018 1032 1019
          1033 1034 756 858 792 389
          860 1203 1218 1219 1221 776
          1232 1233 1224 1235 1452 1453
          1214 1457 1490 1240 1494 1462
          2932 1454 2948 2944 2949 2952
          838 2982 1463 3009 3010 3013
          1467 3152 3148 3153 3156 1491
          3172 3168 3173 3176 843 3193
          3194 3197 1497 3221 3225 4010
          4006 4011 4053
        </DataArray>
        <DataArray type="Float64" Name="bounds" format="ascii" RangeMin="0" RangeMax="0">
          0 0 0 0 0 0
          0 0 0 0 0 0
          0 0 0 0 0 0
          0 0 0 0 0 0
          0 0 0 0 0 0
          0 0 0 0 0 0
          0 0 0 0 0 0
          0 0 0 0 0 0
          0 0 0 0 0 0
          0 0 0 0 0 0
          0 0 0 0 0 0
          0 0 0 0 0 0
          0 0 0 0 0 0
          0 0 0 0 0 0
          0 0 0 0 0 0
          0 0 0 0 0 0
          0 0 0 0 0 0
          0 0 0 0 0 0
          0 0 0 0 0 0
          0 0 0 0 0 0
          0 0 0 0 0 0
          0 0 0 0 0 0
          0 0 0 0 0 0
          0 0 0 0 0 0
          0 0 0 0 0 0
          0 0 0 0 0 0
          0 0 0 0 0 0
          0 0 0 0 0 0
          0 0 0 0 0 0
          0 0 0 0 0 0
          0 0 0 0 0 0
          0 0 0 0 0 0
          0 0 0 0 0 0
          0 0 0 0 0 0
          0 0 0 0 0 0
          0 0 0 0 0 0
          0 0 0 0 0 0
          0 0 0 0 0 0
          0 0 0 0 0 0
          0 0 0 0 0 0
          0 0 0 0 0 0
          0 0 0 0 0 0
          0 0 0 0 0 0
          0 0 0 0 0 0
          0 0 0 0 0 0
          0 0 0 0 0 0
          0 0 0 0 0 0
          0 0 0 0 0 0
          0 0 0 0 0 0
          0 0 0 0 0 0
          0 0 0 0 0 0
          0 0 0 0 0 0
          0 0 0 0 0 0
          0 0 0 0 0 0
          0 0 0 0 0 0
          0 0 0 0 0 0
          0 0 0 0 0 0
          0 0 0 0 0 0
          0 0 0 0 0 0
          0 0 0 0 0 0
          0 0 0 0 0 0
          0 0 0 0 0 0
          0 0 0 0 0 0
          0 0 0 0 0 0
          0 0 0 0 0 0
          0 0 0 0 0 0
          0 0 0 0 0 0
          0 0 0 0 0 0
          0 0 0 0 0 0
          0 0 0 0 0 0
          0 0 0 0 0 0
          0 0 0 0 0 0
          0 0 0 0 0 0
          0 0 0 0 0 0
          0 0 0 0 0 0
          0 0 0 0 0 0
          0 0 0 0 0 0
          0 0 0 0 0 0
          0 0 0 0 0 0
          0 0 0 0 0 0
          0 0 0 0 0 0
          0 0 0 0 0 0
          0 0 0 0 0 0
          0 0 0 0 0 0
          0 0 0 0 0 0
          0 0 0 0 0 0
          0 0 0 0 0 0
          0 0 0 0 0 0
          0 0 0 0 0 0
          0 0 0 0 0 0
          0 0 0 0 0 0
          0 0 0 0 0 0
          0 0 0 0 0 0
          0 0 0 0 0 0
          0 0 0 0 0 0
          0 0 0 0 0 0
          0 0 0 0 0 0
          0 0 0 0 0 0
          0 0 0
        </DataArray>
        <DataArray type="Float64" Name="gradient_error" format="ascii" RangeMin="8.143404076901221e-11" RangeMax="3.365858919360374e-7">
          5.634061713038881e-8 4.760030365909041e-9 2.2735441578806255e-9 1.4921275491449603e-9 1.65806900130646e-7 1.7258598026962025e-8
          1.637660624119863e-8 2.3674350756539342e-8 3.4011605672600524e-8 2.6252675273481937e-8 2.385291362260552e-8 3.009597172502832e-8
          6.3298028166134026e-9 1.0520606253506579e-8 1.0200517612384505e-8 1.5494614455435236e-8 2.1453151971729106e-8 2.6180337777456114e-8
          8.537933514608429e-9 4.7381892719394544e-8 2.0846166917234152e-9 2.3436919738044233e-9 1.389955112365228e-9 1.4806293789817037e-9
          6.973246059398439e-10 4.2934664819549426e-10 4.218374342722709e-10 2.6368302868237523e-9 2.8120020975407197e-9 8.064942196683476e-10
          4.058927228941673e-10 6.450879480578867e-10 8.10771152791841e-8 1.2013021299692104e-7 1.7329937827019516e-7 3.2661463339130895e-9
          2.2254629748163618e-9 1.7007070707764363e-8 1.1144064113221844e-8 2.0853848508227572e-9 2.6257702386839804e-9 2.6563188235385727e-9
          2.5736900866450227e-9 8.517105465799114e-9 1.4948557792367734e-9 1.497642804886342e-9 1.640627853515169e-9 1.6450189297960168e-9
          6.734978660465068e-10 4.338907122692549e-10 4.1984953234259274e-10 1.4152898196160472e-9 1.8033075454718883e-9 7.392256494330168e-10
          4.958933558626458e-9 4.614031311376041e-9 3.8000331140702666e-10 4.114072066656726e-9 3.332983526817408e-10 3.203881350349273e-10
          2.0675707898242577e-10 2.567597171316705e-10 3.0201619897030436e-10 3.989715010206859e-10 1.9490720345518862e-10 2.3138442801203838e-10
          3.4578299904374514e-10 1.906218382710259e-8 1.744292688850434e-8 1.4303027317154134e-8 6.771935080311426e-8 6.708552828114203e-8
          4.7011663262337585e-8 6.64517057591698e-8 5.7538207203834075e-9 1.139165247506739e-8 2.6089045133302436e-8 9.660920493501587e-8
          9.061360685088604e-8 9.217467258226854e-8 8.583906607924863e-8 8.46180087667562e-8 7.223018582265333e-8 1.5613500511825166e-7
          4.92754330542936e-8 9.210360617446671e-8 1.046338146055525e-8 9.595171712014826e-9 1.1536117580805114e-9 1.0645942443755875e-9
          7.871595498378217e-9 8.496258518052238e-10 2.2492473238968954e-8 2.1303972780044362e-8 2.9532304026434664e-9 1.8366343072808147e-8
          6.266572046232203e-10 5.6876319475071e-10 4.354964434853854e-10 1.9735474346904983e-9 1.7488445937066901e-9 1.2500888982412356e-9
          3.47958067417057e-9 6.23945021722111e-9 8.111394418729251e-10 6.076687734397993e-10 1.4268161232268758e-8 1.4874693282636298e-9
          3.771946850960331e-10 2.952206708359442e-10 7.808151874037778e-10 4.96866059855554e-8 4.611878501734234e-8 8.257185873344142e-9
          7.4287258222937775e-9 3.7195730865619435e-8 5.3564922812579905e-9 9.266419721150009e-8 8.66824646539218e-8 1.561428483409891e-8
          6.774091357245169e-8 5.538860780429562e-9 4.868674169342997e-9 3.2963405020268832e-9 2.7114369233372303e-8 3.3257122366854945e-9
          4.5200657033335725e-8 6.5916225541522945e-9 1.8912884628992442e-9 1.6352015016993375e-9 2.0938758068285796e-9 1.7272388487602792e-9
          1.225691605418026e-9 1.7121697855713776e-9 6.086585274925064e-10 9.72037796797115e-10 1.1212334021398686e-9 1.4625392247916026e-9
          8.76734758347711e-10 3.1051101764188156e-10 4.66269176647197e-10 3.2446755473126823e-10 4.4104176551894516e-10 3.7219605622427887e-10
          4.512004839920544e-10 4.4551355481522435e-10 4.28447576135449e-10 7.426937874034858e-10 2.9376667131866906e-10 2.899742496087853e-10
          3.702309138423393e-10 3.654205865360559e-10 1.7074097580037487e-10 2.3889150600829333e-10 2.357100453153366e-10 2.794194019298901e-10
          3.510494884970651e-10 2.2658539350376673e-10 6.176525500660986e-10 6.082382380521907e-10 3.994146867535321e-10 5.808832142296305e-10
          3.3368804712122826e-10 3.9156316478004066e-10 3.6605780292757747e-10 6.465426152175532e-10 2.6918599348048433e-10 3.27433445113511e-10
          1.6696353268056637e-10 2.146765048162461e-10 2.6571501100009e-10 3.133781724626644e-10 2.0871080724733864e-10 5.323454567953299e-10
          3.4926760729613267e-10 5.2365636510283e-10 1.1553695107728222e-10 1.1521354567220935e-10 1.5966910327226193e-10 1.5734131390902183e-10
          8.143404076901221e-11 1.0989365009383653e-10 1.0740913826586492e-10 1.132017505977564e-10 1.508057927129067e-10 1.0922329292058475e-10
          2.800455791722597e-10 2.7533182553898415e-10 1.9007834114621593e-10 2.6169412606403367e-10 1.1231832654763385e-10 1.4116065474033457e-10
          9.539352757387534e-11 1.1627202529515839e-10 1.131232921668914e-10 1.3572324860063752e-10 1.1472342470434916e-10 2.3847260486643e-10
          1.8845481856861808e-10 2.3276865575577822e-10 1.1329461620071928e-9 1.113898739043293e-9 1.0655672834827438e-9 1.8304911837846518e-9
          9.672662585709735e-10 9.509020903840702e-10 6.854383164058829e-10 6.732448625914913e-10 9.064437493244023e-10 6.375741418630411e-10
          1.593335066529896e-9 1.564021975410777e-9 1.130615744588661e-9 1.4866133504006304e-9 9.815599438267358e-10 8.750799806341943e-10
          1.6120007319746803e-9 8.344035223716132e-10 5.842410625071414e-10 7.451465707957248e-10 5.196222121928669e-10 1.365194657441742e-9
          9.663449323117262e-10 1.2148358286751254e-9 2.7968420317082187e-9 2.7455591505871662e-9 2.626613817245558e-9 4.513921622828643e-9
          2.505298188179103e-9 2.4563151092277495e-9 1.957250316390096e-9 1.91295540849693e-9 2.3291204480904793e-9 1.7865985785688352e-9
          4.126299273544455e-9 4.031495986052694e-9 3.185343934659812e-9 3.78675639171801e-9 2.4316024582931305e-9 2.176696420015076e-9
          3.880297740661264e-9 2.131771903191459e-9 1.6014100471860457e-9 1.887431996393635e-9 1.386652109185288e-9 3.4123147621571103e-9
          2.613487748210844e-9 2.961311610503184e-9 4.888870748072925e-10 4.79919882680849e-10 3.496498373065055e-10 3.428993837681538e-10
          4.5365325714321556e-10 3.230073675810721e-10 8.55878914233728e-10 8.365223978440316e-10 6.114223155638235e-10 7.821672036897204e-10
          4.1262294859081984e-10 2.916891823957322e-10 3.620769680134448e-10 2.537651491695731e-10 7.023998808546504e-10 5.067980641397952e-10
          6.093982873660535e-10 1.494542934022806e-9 1.45636790700526e-9 1.1195692035096037e-9 1.0888965909762968e-9 1.3496337735204295e-9
          1.0034047573045982e-9 2.5762541161724837e-9 2.504209035877876e-9 1.9143627660545455e-9 2.30207532058304e-9 1.1950427921777133e-9
          8.807457052418967e-10 1.0189515137222497e-9 7.428621132632613e-10 2.009920637529236e-9 1.5120777079457006e-9 1.6820468289448014e-9
          6.507292065799937e-10 7.731557015894011e-10 6.751855900269449e-10 1.2646146702937055e-9 5.293433428485489e-10 6.541044452922474e-10
          3.3867529912739855e-10 4.486933112316618e-10 4.5707015441759477e-10 5.647805363303233e-10 3.7856152362591404e-10 1.0585764949190948e-9
          7.270108647214753e-10 9.025726692368429e-10 4.839138141093254e-10 5.696190086907343e-10 5.1185491600537e-10 9.059111653798235e-10
          3.949939747956921e-10 4.780962219575502e-10 2.4665237689389216e-10 3.151995800514615e-10 3.670620534841659e-10 4.350045885390872e-10
          2.85803560993985e-10 7.503600221686075e-10 4.966118201098743e-10 1.9068305973748144e-9 1.6252850656173924e-9 2.918519500893048e-9
          1.6315371966122525e-9 1.167412108877474e-9 1.375958078420347e-9 9.613224712515615e-10 2.5138698753181366e-9 1.8390401040467126e-9
          2.0855105771412256e-9 1.361447921459772e-9 2.0234971056020615e-9 1.139948834036533e-9 7.76865809047845e-10 1.702632138948346e-9
          1.1806298646710673e-9 2.304180259041795e-10 3.085448637253448e-10 1.5954232559490495e-10 2.148702497288537e-10 1.9206176405218503e-10
          2.5635151285644486e-10 1.7705216437376707e-10 5.137227867760321e-10 3.6321573418616655e-10 4.222726705489473e-10 1.5843012700669713e-10
          2.0635802086942123e-10 1.0902646804787238e-10 1.4176214510428005e-10 1.4361686947105107e-10 1.818408808993666e-10 1.2514272243870953e-10
          3.3780126218139355e-10 2.3393675945091096e-10 8.434679824613315e-10 6.075480005925996e-10 6.81808561093943e-10 4.848998907928249e-10
          1.3639071345336697e-9 9.998863616455012e-10 1.0802269210896982e-9 5.410362963460665e-10 3.7983387469876276e-10 8.396081162597153e-10
          5.980304680532979e-10 6.898399504160273e-9 6.729525185795929e-9 6.36101614568676e-9 1.0246480735922622e-8 6.370078344047784e-9
          6.2150035154601835e-9 5.318207510674954e-9 5.18053386794456e-9 5.820113929091964e-9 4.7784793289634285e-9 9.751704454294859e-9
          9.492071736630355e-9 8.05293871902458e-9 8.849735739703556e-9 5.7570248604931686e-9 4.965338667759617e-9 8.626455580970924e-9
          5.204995511020227e-9 4.183021877771209e-9 4.450534513977071e-9 3.5055920560498335e-9 7.861489533752025e-9 6.466884973108522e-9
          6.630672470298002e-9 1.4846674701076388e-8 1.4386017563451822e-8 1.3527992096043615e-8 1.986087061634817e-8 1.3917696661096897e-8
          1.3562202277078477e-8 1.2137430655922687e-8 1.1880602875352099e-8 1.2696232214382904e-8 1.102203995176488e-8 1.9307519750912904e-8
          1.884569747979156e-8 1.671986089427882e-8 1.7692171174749973e-8 1.2214439691755467e-8 1.0326028617124746e-8 1.684072982429936e-8
          1.1308041332545068e-8 9.594810312843582e-9 9.484763953432747e-9 7.888599284148166e-9 1.5725065658995972e-8 1.3612163926658227e-8
          1.305493044514761e-8 4.309327860931457e-9 4.184141626830932e-9 3.380548751588727e-9 3.274533553240521e-9 3.82711938612002e-9
          2.9738404467378076e-9 6.887345870373538e-9 6.693280386573256e-9 5.36815611940894e-9 6.120121369001867e-9 3.3039120987620484e-9
          2.5390342100590297e-9 2.7180747646254637e-9 2.0602881498573903e-9 5.249934712501532e-9 4.1241476614775935e-9 4.261926009949692e-9
          9.31556286294477e-9 1.343735910455518e-8 7.98818372095248e-9 6.430773370546921e-9 1.1579572492547694e-8 9.28782550558061e-9
          4.224464359079801e-9 3.5115720088245575e-9 6.104718287858543e-9 3.7227499245933123e-9 2.8416961312551603e-9 3.046760616630688e-9
          2.2530884321530386e-9 5.44444635161269e-9 4.2717960159424294e-9 4.360451333944336e-9 2.873438381358999e-9 3.975071083812525e-9
          2.453315831640716e-9 1.7552026290581995e-9 3.44456832077971e-9 2.543506782559985e-9 8.52136618500583e-9 6.7733887789296794e-9
          1.1453615367603373e-8 7.699533120583784e-9 6.211377133035831e-9 6.055893231429461e-9 4.763629508260092e-9 1.0490854345906452e-8
          8.694482209651437e-9 8.164602602240624e-9 5.3286931136705905e-9 6.980637447480801e-9 4.6965796764637575e-9 3.5849995018601226e-9
          6.242074850602468e-9 4.899324063733057e-9 2.1598013819698693e-9 1.612255649119463e-9 1.6749047288464049e-9 1.2309274291127908e-9
          3.327223939497789e-9 2.529648957948604e-9 2.530854279506839e-9 1.2758471456970278e-9 9.229291626795985e-10 1.8910104436362557e-9
          1.3890366243941206e-9 4.951933087406016e-9 3.7061661244121027e-9 7.082077205344245e-9 5.234093406064651e-9 2.7226820913809135e-9
          3.792671321121749e-9 2.662569363746141e-8 2.5946565931086086e-8 2.4878944963210424e-8 2.53405745803878e-8 2.4938976135738093e-8
          2.282412940448769e-8 2.263124000660163e-8 2.3793937487032375e-8 2.1379506966356055e-8 2.2630122567163816e-8 1.854945562624976e-8
          2.12440315296632e-8 1.8618588569518865e-8 1.739515091082224e-8 1.510984192777846e-8 1.8568707468166097e-8 1.6041893955361322e-8
          1.2822189496293705e-8 1.4928521944039637e-8 1.1710126138744749e-8 1.3804050720643858e-8 1.1684447265212713e-8 1.0681596565963324e-8
          8.78106013775906e-9 8.978760667075345e-9 8.090377580128203e-9 6.466742918438009e-9 9.708068672584254e-9 7.106512809760774e-9
          5.095150386554519e-9 5.3223780012741205e-9 3.5904720995081974e-9 3.71712376246013e-9 6.3174236459536895e-9 9.984448660056385e-8
          1.717011601177402e-8 9.077540555128891e-8 1.9194581861387245e-9 1.290910936203094e-9 2.1856642511903757e-7 1.1725084285577777e-7
          1.0097695671398546e-7 1.515388480157849e-7 8.404072123186422e-8 1.624578280929802e-7 4.2385335206930205e-8 1.3565930869557916e-7
          2.275222920285276e-7 3.288341043347647e-7 2.41958167481599e-7 2.8053747833486966e-7 1.175682177409795e-7 2.291068373822531e-7
          1.788498774274606e-7 3.365858919360374e-7 2.235447172842381e-9 3.4850175827728323e-9 3.2706443798449085e-9 4.884685898713161e-9
          6.489315278425481e-10 1.0664669494984372e-9 2.1397053803531295e-9 4.987634520126366e-9 2.1622413589828176e-8 6.557057913763759e-10
          1.5298431872099656e-9 7.171023738712333e-8 9.729976437284945e-8 9.221108289633467e-8 8.712240141981992e-8 1.5229069516916386e-7
          1.629301243712308e-7 1.5477854250594074e-7 1.4600631914623998e-7 1.4422985189032547e-7 3.3364284959361842e-9 4.939906646100663e-9
          8.612019233255846e-9 9.788566771028107e-9 1.7787663507356293e-8 3.243139697925047e-8 2.8016701140985553e-8 4.985154956042747e-10
          6.740761751144116e-10 7.960515844293354e-10 9.228895311308763e-10 1.1112175528577556e-9 6.153208515753663e-10 1.3625208421333418e-9
          9.209109335196269e-10 2.938622166020819e-10 3.6151221734228507e-10 4.2078562770620565e-10 2.916336888433689e-10 6.418864064383093e-10
          4.499571369169852e-10 1.9380718977744353e-9 2.2990390122985747e-9 1.3473723539133137e-9 2.6840016881749456e-9 1.9195619709003756e-9
          3.6163894668160425e-9 4.18045026563512e-9 2.6612269360837944e-9 4.743622184458681e-9 3.5872462786016904e-9 9.576962864978725e-10
          6.815965514413543e-10 1.393752631741384e-9 1.0063391904014493e-9 1.972826966500594e-9 2.70875978363652e-9 6.0750645085441575e-9
          6.86650538116023e-9 4.686305385367672e-9 3.5980386757583266e-9
        </DataArray>
        <DataArray type="Float64" Name="gradient_matprop_error" format="ascii" RangeMin="0" RangeMax="0">
          0 0 0 0 0 0
          0 0 0 0 0 0
          0 0 0 0 0 0
          0 0 0 0 0 0
          0 0 0 0 0 0
          0 0 0 0 0 0
          0 0 0 0 0 0
          0 0 0 0 0 0
          0 0 0 0 0 0
          0 0 0 0 0 0
          0 0 0 0 0 0
          0 0 0 0 0 0
          0 0 0 0 0 0
          0 0 0 0 0 0
          0 0 0 0 0 0
          0 0 0 0 0 0
          0 0 0 0 0 0
          0 0 0 0 0 0
          0 0 0 0 0 0
          0 0 0 0 0 0
          0 0 0 0 0 0
          0 0 0 0 0 0
          0 0 0 0 0 0
          0 0 0 0 0 0
          0 0 0 0 0 0
          0 0 0 0 0 0
          0 0 0 0 0 0
          0 0 0 0 0 0
          0 0 0 0 0 0
          0 0 0 0 0 0
          0 0 0 0 0 0
          0 0 0 0 0 0
          0 0 0 0 0 0
          0 0 0 0 0 0
          0 0 0 0 0 0
          0 0 0 0 0 0
          0 0 0 0 0 0
          0 0 0 0 0 0
          0 0 0 0 0 0
          0 0 0 0 0 0
          0 0 0 0 0 0
          0 0 0 0 0 0
          0 0 0 0 0 0
          0 0 0 0 0 0
          0 0 0 0 0 0
          0 0 0 0 0 0
          0 0 0 0 0 0
          0 0 0 0 0 0
          0 0 0 0 0 0
          0 0 0 0 0 0
          0 0 0 0 0 0
          0 0 0 0 0 0
          0 0 0 0 0 0
          0 0 0 0 0 0
          0 0 0 0 0 0
          0 0 0 0 0 0
          0 0 0 0 0 0
          0 0 0 0 0 0
          0 0 0 0 0 0
          0 0 0 0 0 0
          0 0 0 0 0 0
          0 0 0 0 0 0
          0 0 0 0 0 0
          0 0 0 0 0 0
          0 0 0 0 0 0
          0 0 0 0 0 0
          0 0 0 0 0 0
          0 0 0 0 0 0
          0 0 0 0 0 0
          0 0 0 0 0 0
          0 0 0 0 0 0
          0 0 0 0 0 0
          0 0 0 0 0 0
          0 0 0 0 0 0
          0 0 0 0 0 0
          0 0 0 0 0 0
          0 0 0 0 0 0
          0 0 0 0 0 0
          0 0 0 0 0 0
          0 0 0 0 0 0
          0 0 0 0 0 0
          0 0 0 0 0 0
          0 0 0 0 0 0
          0 0 0 0 0 0
          0 0 0 0 0 0
          0 0 0 0 0 0
          0 0 0 0 0 0
          0 0 0 0 0 0
          0 0 0 0 0 0
          0 0 0 0 0 0
          0 0 0 0 0 0
          0 0 0 0 0 0
          0 0 0 0 0 0
          0 0 0 0 0 0
          0 0 0 0 0 0
          0 0 0 0 0 0
          0 0 0 0 0 0
          0 0 0 0 0 0
          0 0 0
        </DataArray>
        <DataArray type="Float64" Name="initial_marker" format="ascii" RangeMin="0" RangeMax="2">
          2 0 0 0 2 0
          0 0 1 1 0.5 0.5
          0 0.5 0.25 0 0 0
          0 1.5 0 0 0 0
          0 0 0 0 0 0
          2 1 2 2 2 2
          2 2 2 0 1 1
          0.5 2 0 0 0.5 0.5
          0 0 0 0 0.25 0
          2 2 2 1.25 0 0
          0 0 0 0 2 1.75
          1 2 2 2 2 2
          2 2 1 2 2 2
          2 2 2 2 2 2
          2 2 2 2 2 2
          2 2 2 2 2 2
          2 2 2 2 2 2
          0.75 2 0.25 2 2 2
          0 2 2 2 2 2
          2 2 2 2 2 2
          2 2 2 2 2 2
          2 2 2 0 0 0
          0 0 0 0 0 0
          0 0 0 0 0 0
          1 1 1 2 0 0
          1 1 0 1 1 0
          1 1 2 2 2 2
          0 0.5 0 1.5 0 0.5
          0 0.5 0 0 0 1.5
          1.5 1.3333333333333333 0 0 1 1
          0 1 1 0 1 1
          2 2 2 2 0 0.5
          0 0.5 0 0 0 1.5
          1.6666666666666667 1.3333333333333333 2 2 2 2
          2 2 2 2 2 2
          2 2 2 2 2 2
          2 2 2 2 2 2
          2 2 2 2 2 2
          2 2 2 2 2 2
          2 2 2 2 2 2
          2 2 2 2 2 2
          2 2 2 2 2 2
          2 2 2 2 2 2
          2 2 2 2 2 2
          2 2 2 2 2 2
          2 2 2 2 2 2
          2 2 2 2 2 2
          2 2 1.5 2 2 2
          1.5 1.75 1 1.5 1.25 2
          2 2 0 0.5 0 1.5
          0 0.5 0 0.5 0 0
          0 1.5 1.5 2 2 2
          2 2 2 2 2 2
          2 2 2 2 2 2
          2 1 1.5 1 1.5 0
          1 1 2 2 2 0
          0.5 0 0.5 0 0 0
          1.5 1.5 2 2 2 2
          2 2 2 2 2 2
          2 2 2 2 2 2
          2 2 2 2 2 2
          2 2 2 2 2 2
          2 2 2 2 2 2
          2 2 2 2 2 2
          2 2 2 2 2 2
          2 2 2 2 2 2
          2 2 2 2 2 2
          2 2 2 2 2 2
          2 2 2 2 2 2
          2 2 2 2 2 2
          2 2 2 2 2 2
          2 2 2 2 2 2
          2 2 2 2 2 2
          2 2 2 2 2 2
          2 2 2 2 2 2
          2 2 2 2 2 2
          2 2 2 2 2 2
          2 2 2 2 2 2
          2 2 2 2 2 2
          2 2 2 2 2 2
          2 2 2 2 2 2
          2 2 2 2 2 2
          2 2 2 2 2 2
          2 2 2 2 2 2
          2 0 0 0 0 0
          0 0 0 0 1.5 2
          1.5 1.6666666666666667 1.3333333333333333 1 0.75 2
          2 2 2 2 2 2
          2 2 0 0 0 0
          0 0 0 0 0.3333333333333333 0
          0 2 2 2 2 2
          2 2 2 2 0.3333333333333333 1
          1.5 2 2 2 2 0
          0.6666666666666666 0.5 1.5 1.5 1.5 2
          2 0.6666666666666666 0.5 1.5 1.5 2
          2 2 2 2 2 2
          2 2 2 2 2 2
          2 2 2 2 2 2
          2 2 2
        </DataArray>
        <DataArray type="Float64" Name="markers_norefine" format="ascii" RangeMin="0" RangeMax="0">
          0 0 0 0 0 0
          0 0 0 0 0 0
          0 0 0 0 0 0
          0 0 0 0 0 0
          0 0 0 0 0 0
          0 0 0 0 0 0
          0 0 0 0 0 0
          0 0 0 0 0 0
          0 0 0 0 0 0
          0 0 0 0 0 0
          0 0 0 0 0 0
          0 0 0 0 0 0
          0 0 0 0 0 0
          0 0 0 0 0 0
          0 0 0 0 0 0
          0 0 0 0 0 0
          0 0 0 0 0 0
          0 0 0 0 0 0
          0 0 0 0 0 0
          0 0 0 0 0 0
          0 0 0 0 0 0
          0 0 0 0 0 0
          0 0 0 0 0 0
          0 0 0 0 0 0
          0 0 0 0 0 0
          0 0 0 0 0 0
          0 0 0 0 0 0
          0 0 0 0 0 0
          0 0 0 0 0 0
          0 0 0 0 0 0
          0 0 0 0 0 0
          0 0 0 0 0 0
          0 0 0 0 0 0
          0 0 0 0 0 0
          0 0 0 0 0 0
          0 0 0 0 0 0
          0 0 0 0 0 0
          0 0 0 0 0 0
          0 0 0 0 0 0
          0 0 0 0 0 0
          0 0 0 0 0 0
          0 0 0 0 0 0
          0 0 0 0 0 0
          0 0 0 0 0 0
          0 0 0 0 0 0
          0 0 0 0 0 0
          0 0 0 0 0 0
          0 0 0 0 0 0
          0 0 0 0 0 0
          0 0 0 0 0 0
          0 0 0 0 0 0
          0 0 0 0 0 0
          0 0 0 0 0 0
          0 0 0 0 0 0
          0 0 0 0 0 0
          0 0 0 0 0 0
          0 0 0 0 0 0
          0 0 0 0 0 0
          0 0 0 0 0 0
          0 0 0 0 0 0
          0 0 0 0 0 0
          0 0 0 0 0 0
          0 0 0 0 0 0
          0 0 0 0 0 0
          0 0 0 0 0 0
          0 0 0 0 0 0
          0 0 0 0 0 0
          0 0 0 0 0 0
          0 0 0 0 0 0
          0 0 0 0 0 0
          0 0 0 0 0 0
          0 0 0 0 0 0
          0 0 0 0 0 0
          0 0 0 0 0 0
          0 0 0 0 0 0
          0 0 0 0 0 0
          0 0 0 0 0 0
          0 0 0 0 0 0
          0 0 0 0 0 0
          0 0 0 0 0 0
          0 0 0 0 0 0
          0 0 0 0 0 0
          0 0 0 0 0 0
          0 0 0 0 0 0
          0 0 0 0 0 0
          0 0 0 0 0 0
          0 0 0 0 0 0
          0 0 0 0 0 0
          0 0 0 0 0 0
          0 0 0 0 0 0
          0 0 0 0 0 0
          0 0 0 0 0 0
          0 0 0 0 0 0
          0 0 0 0 0 0
          0 0 0 0 0 0
          0 0 0 0 0 0
          0 0 0 0 0 0
          0 0 0 0 0 0
          0 0 0
        </DataArray>
        <DataArray type="Float64" Name="markers_mustrefine" format="ascii" RangeMin="0" RangeMax="2">
          2 0 0 0 2 0
          0 0 1 1 0.5 0.5
          0 0.5 0.25 0 0 0
          0 1.5 0 0 0 0
          0 0 0 0 0 0
          2 1 2 2 2 2
          2 2 2 0 1 1
          0.5 2 0 0 0.5 0.5
          0 0 0 0 0.25 0
          2 2 2 1.25 0 0
          0 0 0 0 2 1.75
          1 2 2 2 2 2
          2 2 1 2 2 2
          2 2 2 2 2 2
          2 2 2 2 2 2
          2 2 2 2 2 2
          2 2 2 2 2 2
          0.75 2 0.25 2 2 2
          0 2 2 2 2 2
          2 2 2 2 2 2
          2 2 2 2 2 2
          2 2 2 0 0 0
          0 0 0 0 0 0
          0 0 0 0 0 0
          1 1 1 2 0 0
          1 1 0 1 1 0
          1 1 2 2 2 2
          0 0.5 0 1.5 0 0.5
          0 0.5 0 0 0 1.5
          1.5 1.3333333333333333 0 0 1 1
          0 1 1 0 1 1
          2 2 2 2 0 0.5
          0 0.5 0 0 0 1.5
          1.6666666666666667 1.3333333333333333 2 2 2 2
          2 2 2 2 2 2
          2 2 2 2 2 2
          2 2 2 2 2 2
          2 2 2 2 2 2
          2 2 2 2 2 2
          2 2 2 2 2 2
          2 2 2 2 2 2
          2 2 2 2 2 2
          2 2 2 2 2 2
          2 2 2 2 2 2
          2 2 2 2 2 2
          2 2 2 2 2 2
          2 2 2 2 2 2
          2 2 1.5 2 2 2
          1.5 1.75 1 1.5 1.25 2
          2 2 0 0.5 0 1.5
          0 0.5 0 0.5 0 0
          0 1.5 1.5 2 2 2
          2 2 2 2 2 2
          2 2 2 2 2 2
          2 1 1.5 1 1.5 0
          1 1 2 2 2 0
          0.5 0 0.5 0 0 0
          1.5 1.5 2 2 2 2
          2 2 2 2 2 2
          2 2 2 2 2 2
          2 2 2 2 2 2
          2 2 2 2 2 2
          2 2 2 2 2 2
          2 2 2 2 2 2
          2 2 2 2 2 2
          2 2 2 2 2 2
          2 2 2 2 2 2
          2 2 2 2 2 2
          2 2 2 2 2 2
          2 2 2 2 2 2
          2 2 2 2 2 2
          2 2 2 2 2 2
          2 2 2 2 2 2
          2 2 2 2 2 2
          2 2 2 2 2 2
          2 2 2 2 2 2
          2 2 2 2 2 2
          2 2 2 2 2 2
          2 2 2 2 2 2
          2 2 2 2 2 2
          2 2 2 2 2 2
          2 2 2 2 2 2
          2 2 2 2 2 2
          2 2 2 2 2 2
          2 0 0 0 0 0
          0 0 0 0 1.5 2
          1.5 1.6666666666666667 1.3333333333333333 1 0.75 2
          2 2 2 2 2 2
          2 2 0 0 0 0
          0 0 0 0 0.3333333333333333 0
          0 2 2 2 2 2
          2 2 2 2 0.3333333333333333 1
          1.5 2 2 2 2 0