<?xml version="1.0"?>
<VTKFile type="UnstructuredGrid" version="0.1" byte_order="LittleEndian" header_type="UInt32" compressor="vtkZLibDataCompressor">
  <UnstructuredGrid>
    <Piece NumberOfPoints="582" NumberOfCells="375">
      <PointData>
        <DataArray type="Int32" Name="libmesh_node_id" format="ascii" RangeMin="228" RangeMax="5620">
          228 408 880 881 886 888
          889 890 891 894 895 896
          1566 1567 1569 1654 1655 1656
          1682 1683 1684 1685 1687 1688
          1689 1690 1712 1713 1714 1715
          1716 1717 1718 1719 1720 1721
          1722 1723 1724 1725 1740 1741
          1742 1743 1744 1745 1746 1747
          1748 1749 1750 1751 1752 1753
          1754 1755 1756 1757 1758 1759
          1898 1899 1902 1904 1905 1907
          1915 1916 1919 1921 1922 1924
          3537 3545 3546 3548 3554 3560
          3562 3651 3657 3969 3977 3978
          3979 3980 3992 3993 3994 4163
          4164 4166 4169 4171 4172 4173
          4174 4175 4176 4177 4178 4179
          4180 4188 4189 4190 4191 4192
          4193 4194 4197 4198 4200 4203
          4205 4206 4207 4208 4209 4210
          4211 4212 4213 4214 4222 4223
          4224 4225 4226 4227 4228 4373
          4374 4375 4376 4383 4384 4385
          4386 4391 4392 4393 4398 4399
          4400 4403 4404 4406 4407 4408
          4409 4410 4411 4412 4413 4414
          4415 4416 4417 4418 4419 4420
          4422 4424 4425 4426 4427 4428
          4429 4430 4431 4432 4433 4434
          4435 4436 4437 4438 4439 4440
          4441 4442 4443 4444 4445 4446
          4447 4448 4449 4450 4451 4452
          4453 4454 4455 4456 4457 4458
          4459 4460 4461 4462 4463 4464
          4465 4466 4467 4468 4509 4526
          4529 4530 4532 4533 4536 4537
          4553 4554 4557 4558 4560 4561
          4564 4565 4581 4582 4583 4584
          4585 4586 4587 4588 4589 4590
          4591 4592 4593 4594 4595 4596
          4597 4598 4599 4600 4601 4602
          4603 4604 4605 4606 4607 4608
          4609 4610 4611 4612 4613 4614
          4615 4616 4617 4618 4619 4620
          4621 4622 4623 4624 4625 4626
          4627 4628 4629 4630 4631 4632
          4633 4634 4635 4636 4637 4638
          4639 4640 4641 4642 4643 4644
          4645 4646 4647 4648 4649 4650
          4651 4652 4653 4654 4655 4656
          4657 4658 4659 4660 4661 4662
          4663 4664 4665 4666 4667 4668
          4669 4670 4671 4672 4673 4674
          4675 4676 4677 4678 4679 4680
          4681 4682 4683 4684 4685 4686
          4687 4688 4689 4690 4691 4692
          4693 4694 4695 4696 4697 4698
          4699 4700 4701 4702 4703 4704
          4705 4706 4707 4708 4709 4710
          4711 4712 4713 4714 4715 4716
          4725 4729 4753 4757 4773 4774
          4777 4778 4780 4781 4784 4785
          4801 4802 4805 4806 4808 4809
          4812 4813 5375 5376 5377 5378
          5397 5398 5399 5410 5411 5412
          5413 5414 5415 5416 5417 5418
          5419 5430 5431 5432 5433 5434
          5435 5436 5448 5449 5471 5472
          5475 5476 5492 5493 5494 5495
          5496 5497 5498 5499 5500 5501
          5512 5513 5514 5515 5516 5517
          5518 5526 5527 5528 5529 5530
          5531 5532 5533 5534 5535 5546
          5547 5548 5549 5550 5551 5552
          5584 5585 5588 5589 5615 5616
          5619 5620 3961 3963 3964 3962
          3967 3968 3966 3965 3970 3971
          3972 3973 3974 3975 3976 3982
          3981 3986 3985 3988 3989 3990
          3984 1657 3991 4072 4066 4076
          4070 4073 4077 4161 4162 4165
          4167 4168 4170 4182 4181 4186
          4185 4184 1686 4195 4196 4199
          4201 4202 4204 4216 4215 4220
          4219 4218 1691 4284 4278 4285
          4288 4282 4289 4312 4306 4313
          4316 4310 4317 4367 4368 4369
          4370 4371 4372 4377 4378 4379
          4380 4381 4382 4387 4388 4389
          4390 4394 4395 4396 4397 3535
          3536 4401 4402 3538 4405 4345
          4346 1708 4351 4348 1709 3553
          4421 3555 4423 4361 4365 4363
          1711 4497 4501 4498 4502 4504
          4508 4505 3650 4525 4477 4481
          4717 4718 4721 4722 4724 4728
          4745 4746 4749 4750 4752 4756
        </DataArray>
        <DataArray type="Float64" Name="bounds" format="ascii" RangeMin="0" RangeMax="0">
          0 0 0 0 0 0
          0 0 0 0 0 0
          0 0 0 0 0 0
          0 0 0 0 0 0
          0 0 0 0 0 0
          0 0 0 0 0 0
          0 0 0 0 0 0
          0 0 0 0 0 0
          0 0 0 0 0 0
          0 0 0 0 0 0
          0 0 0 0 0 0
          0 0 0 0 0 0
          0 0 0 0 0 0
          0 0 0 0 0 0
          0 0 0 0 0 0
          0 0 0 0 0 0
          0 0 0 0 0 0
          0 0 0 0 0 0
          0 0 0 0 0 0
          0 0 0 0 0 0
          0 0 0 0 0 0
          0 0 0 0 0 0
          0 0 0 0 0 0
          0 0 0 0 0 0
          0 0 0 0 0 0
          0 0 0 0 0 0
          0 0 0 0 0 0
          0 0 0 0 0 0
          0 0 0 0 0 0
          0 0 0 0 0 0
          0 0 0 0 0 0
          0 0 0 0 0 0
          0 0 0 0 0 0
          0 0 0 0 0 0
          0 0 0 0 0 0
          0 0 0 0 0 0
          0 0 0 0 0 0
          0 0 0 0 0 0
          0 0 0 0 0 0
          0 0 0 0 0 0
          0 0 0 0 0 0
          0 0 0 0 0 0
          0 0 0 0 0 0
          0 0 0 0 0 0
          0 0 0 0 0 0
          0 0 0 0 0 0
          0 0 0 0 0 0
          0 0 0 0 0 0
          0 0 0 0 0 0
          0 0 0 0 0 0
          0 0 0 0 0 0
          0 0 0 0 0 0
          0 0 0 0 0 0
          0 0 0 0 0 0
          0 0 0 0 0 0
          0 0 0 0 0 0
          0 0 0 0 0 0
          0 0 0 0 0 0
          0 0 0 0 0 0
          0 0 0 0 0 0
          0 0 0 0 0 0
          0 0 0 0 0 0
          0 0 0 0 0 0
          0 0 0 0 0 0
          0 0 0 0 0 0
          0 0 0 0 0 0
          0 0 0 0 0 0
          0 0 0 0 0 0
          0 0 0 0 0 0
          0 0 0 0 0 0
          0 0 0 0 0 0
          0 0 0 0 0 0
          0 0 0 0 0 0
          0 0 0 0 0 0
          0 0 0 0 0 0
          0 0 0 0 0 0
          0 0 0 0 0 0
          0 0 0 0 0 0
          0 0 0 0 0 0
          0 0 0 0 0 0
          0 0 0 0 0 0
          0 0 0 0 0 0
          0 0 0 0 0 0
          0 0 0 0 0 0
          0 0 0 0 0 0
          0 0 0 0 0 0
          0 0 0 0 0 0
          0 0 0 0 0 0
          0 0 0 0 0 0
          0 0 0 0 0 0
          0 0 0 0 0 0
          0 0 0 0 0 0
          0 0 0 0 0 0
          0 0 0 0 0 0
          0 0 0 0 0 0
          0 0 0 0 0 0
          0 0 0 0 0 0
        </DataArray>
        <DataArray type="Float64" Name="gradient_error" format="ascii" RangeMin="2.3528769752322637e-11" RangeMax="4.21531780466326e-8">
          6.572573094939829e-10 2.7619645673531107e-8 2.186810961989368e-8 1.3604956958575703e-8 1.9905550908724642e-8 5.3600429444453665e-9
          2.6580195106059197e-9 4.208632185759103e-10 2.1544160672428226e-10 8.062951184857531e-9 4.103471777586987e-9 3.2634120512919483e-10
          4.4747924981668453e-10 3.7876942093403294e-10 2.388260651429247e-10 2.9233839954287644e-8 3.1643442366005116e-8 2.083376149082203e-8
          2.744405460950925e-8 3.662625034393736e-8 2.6922683682742672e-8 2.746809243046145e-8 1.8087293875803946e-8 2.7021467126263834e-8
          3.744815853724331e-8 2.9786338081606573e-8 1.2342539886568662e-8 1.1168242273985895e-8 4.588415309559091e-9 6.809429335761357e-9
          9.695960107321535e-10 8.122607354878164e-10 2.4344989573041953e-10 2.0615687688955574e-10 4.870830500681924e-10 1.3021057033031058e-10
          1.698902378258908e-9 1.4222174180947137e-9 3.534626513866429e-10 8.270620415732375e-10 1.580103548028783e-8 1.4845417422880872e-8
          7.299670342231207e-9 6.354065366116731e-9 9.264011330114287e-9 3.680886985827231e-9 1.712071712275262e-8 1.6287732091779025e-8
          7.070557477630556e-9 1.0251797989241783e-8 2.3759953267968652e-9 1.9967670384385808e-9 5.876725319330553e-10 4.920978481177474e-10
          1.144460052708664e-9 2.9385243892942577e-10 2.6549399608813255e-9 2.236218788037473e-9 5.500611381167049e-10 1.2766542014938227e-9
          5.278456800550632e-11 4.568600898455025e-11 3.075829390196456e-11 8.811994566085224e-11 7.553084243843614e-11 4.929102903820765e-11
          1.2050935896443798e-10 1.0287609013150845e-10 6.592355517411678e-11 1.340220306684386e-10 1.14218669303111e-10 7.270958251272615e-11
          4.291023365111783e-10 2.3235371868182566e-10 2.231394803498152e-10 1.9800464836777188e-10 3.0989607108654517e-10 1.6361772550314002e-10
          1.2778375471748217e-10 1.7678309384474324e-10 9.61745332615627e-11 3.06283032826503e-8 2.6782118861398857e-8 2.7226006688007736e-8
          2.1880685636001592e-8 2.660515687800727e-8 2.3000111286330657e-8 1.7773668985791533e-8 1.7736867485509752e-8 2.8652277484036574e-8
          3.1362709989074064e-8 3.4957220712739954e-8 3.098646890192651e-8 2.8609442176471314e-8 2.9957989664012106e-8 2.5049202620725047e-8
          2.535619601125058e-8 3.069388663907227e-8 2.454091132517574e-8 2.8402720273051135e-8 3.078531630894611e-8 2.7690341993902393e-8
          3.33229806707782e-8 2.7157519267168174e-8 2.1022549293170776e-8 2.0927136416859307e-8 1.6059417275844183e-8 3.044765126772275e-8
          2.3742717773636648e-8 2.3602828956411213e-8 2.7002727504437064e-8 3.077329821676097e-8 3.728617298116463e-8 3.078997444582434e-8
          2.758190789908659e-8 3.062610283118138e-8 2.754844932844687e-8 2.8770100776010308e-8 3.456633232102051e-8 2.9222268110829435e-8
          2.7243995665650047e-8 3.046951644643287e-8 2.9035582818707016e-8 3.490013099122928e-8 3.2496502709978705e-8 2.552713018660899e-8
          2.5390112937665407e-8 1.943344090615523e-8 3.3186412207263505e-8 2.6141865182618613e-8 2.6018092410368257e-8 1.6713434135199744e-8
          1.66038206466656e-8 1.213605181632459e-8 1.561956596131722e-8 8.490049959256557e-9 8.25949463808828e-9 5.176004648711157e-9
          7.434292451232695e-9 1.3169411626032362e-8 9.20772193324854e-9 9.921374054827761e-9 6.009629275900037e-9 3.6625428544121732e-9
          4.3874718565930775e-9 6.753019392439378e-10 6.467267251486429e-10 5.678807254860076e-10 1.795646244641527e-9 1.7203263569766723e-9
          9.28079305171029e-10 1.5059057010023499e-9 3.4781411434467525e-10 3.3343356511598857e-10 1.720666554572676e-10 1.6526177277379915e-10
          2.9406355680115666e-10 1.466944084581622e-10 4.967719990255151e-10 4.756939386759637e-10 2.3346769257588444e-10 4.1762948893000485e-10
          4.5950640338088283e-10 3.4834734637893283e-10 1.2024346744263864e-9 6.516030014209265e-10 8.895359601686129e-10 2.402355486491027e-10
          1.2128637385161516e-10 1.847350442793595e-10 9.479609744952661e-11 3.3795360685500297e-10 1.6880182975852955e-10 2.562641060445832e-10
          2.438701556437597e-9 2.3391025575943253e-9 1.3196777243548844e-9 1.2633776418952185e-9 2.048950087933952e-9 1.1040738789067578e-9
          3.1270035072303972e-9 3.004403388561888e-9 1.6275244559416277e-9 2.6374614844369713e-9 6.743948086688064e-10 6.454279439381611e-10
          3.284150889647455e-10 3.14627160841653e-10 5.649532756484301e-10 2.7673093733718234e-10 8.677479687334939e-10 8.304152669429684e-10
          4.029592467890247e-10 7.256631994479885e-10 1.6291413055671234e-9 8.801926961393934e-10 1.1928429121593105e-9 6.504548415910901e-10
          2.0929376638265594e-9 1.1291814298151723e-9 1.5209368413405635e-9 4.5377344499561394e-10 2.2477845732933566e-10 3.400256306111471e-10
          1.713836170766026e-10 5.796591554640218e-10 2.8531480660409017e-10 4.3022225359611786e-10 1.8108684834526174e-9 2.5296983059735915e-10
          6.262475478143519e-10 3.476921108689713e-10 1.3643795533078357e-10 7.118647312087126e-11 1.860745556888368e-10 9.641544021790922e-11
          8.278301722453375e-10 4.5756722302879846e-10 1.0435406320776054e-9 5.748840871556146e-10 2.434174979784808e-10 1.2524011163079896e-10
          3.0433387847363044e-10 1.556219787351187e-10 1.9269208249265457e-8 1.927091511255518e-8 1.4287545653050791e-8 1.4152590582676146e-8
          1.8339946727560313e-8 1.3207036085526345e-8 2.141411018977176e-8 2.1519124261786715e-8 1.5741182214141993e-8 2.0614886211618383e-8
          1.0033277374194725e-8 9.810772855729697e-9 6.42923681003237e-9 6.228312696269302e-9 8.913440038660777e-9 5.552482266795009e-9
          1.1239760988849094e-8 1.1042248676729357e-8 7.0914473336482464e-9 1.0120263622361592e-8 1.5586923199817386e-8 1.0996444536683864e-8
          1.1785321764607952e-8 8.153591080960973e-9 1.7571835993508307e-8 1.245727448461522e-8 1.330939293324167e-8 7.244210593881017e-9
          4.441892726868916e-9 5.285341500640926e-9 3.2134755119926194e-9 8.269352088841832e-9 5.0959422190546765e-9 6.035078320424366e-9
          2.2859466959044746e-8 2.3061391512288173e-8 1.6778959727851737e-8 1.677124621107443e-8 2.217174640115337e-8 1.5914715571297083e-8
          2.335872818837986e-8 2.3608690180703597e-8 1.7130556595574796e-8 2.2730684019982485e-8 1.1998274076929439e-8 1.182632568180735e-8
          7.866479328295562e-9 7.656905469897025e-9 1.090631490006189e-8 6.884856758746865e-9 1.2255905823729992e-8 1.2094619162076003e-8
          7.853559558023824e-9 1.1178637131890076e-8 1.8890154190289653e-8 1.3415760163233592e-8 1.4309587360686191e-8 9.996204546245593e-9
          1.935423703077938e-8 1.3750288293495664e-8 1.4658390957117612e-8 8.947606793497486e-9 5.532198357019685e-9 6.533874273515515e-9
          3.993494880227692e-9 9.184695822059315e-9 5.685435601673688e-9 6.708919959339608e-9 3.78612844820082e-9 3.6446413547615498e-9
          2.066774055739613e-9 1.9818112391456667e-9 3.208866070851978e-9 1.733263716530222e-9 4.333537611274201e-9 4.1788471272405744e-9
          2.2804659102212996e-9 3.689717113983847e-9 1.056472665906912e-9 1.01125903762992e-9 5.111610576463991e-10 4.892924920791657e-10
          8.830873139514431e-10 4.284625195123609e-10 1.2161032630631011e-9 1.1644704295576208e-9 5.624999991531984e-10 1.0167756801698062e-9
          2.545298809421227e-9 1.3728239286011064e-9 1.8401932278987362e-9 9.990018704230818e-10 2.927830950176552e-9 1.579580140638698e-9
          2.1099622666092175e-9 7.027447830054536e-10 3.4427815480694527e-10 5.178047074404975e-10 2.580079893019083e-10 8.072082706787295e-10
          3.941994889813853e-10 5.917899925873886e-10 4.695629116789985e-9 4.533491841884732e-9 2.5824176208406786e-9 2.4802982091188106e-9
          4.011072553446042e-9 2.1737949586404037e-9 4.822231462243654e-9 4.657736872884601e-9 2.5505995992904678e-9 4.1240633793638295e-9
          1.3232205137491687e-9 1.2674133257707008e-9 6.391097929638355e-10 6.117479790135191e-10 1.1067854378040005e-9 5.349355313365399e-10
          1.3609689918344469e-9 1.3037165609966014e-9 6.291295538791926e-10 1.1385648048424143e-9 3.1845178750486256e-9 1.7187213412199938e-9
          2.2909931317672195e-9 1.242183977278754e-9 3.2749773027444117e-9 1.7678368079999718e-9 2.3548052287970384e-9 8.77542724135857e-10
          4.2776491817595743e-10 6.414646766684754e-10 3.178763809999561e-10 9.023789870446602e-10 4.3961041528471715e-10 6.589829269709398e-10
          2.1733555815517377e-9 2.4774500760000386e-9 2.6805487088119627e-9 2.7519710867962584e-9 1.2518086674095097e-9 6.880119087300112e-10
          1.4268853193947092e-9 7.830705915105684e-10 3.628625494951301e-10 1.846322724016247e-10 4.1193503143285034e-10 2.0888120412966542e-10
          1.5440096492102506e-9 8.466649445240242e-10 1.5852356002265131e-9 8.690515739790603e-10 4.447295942081846e-10 2.2507170406976432e-10
          4.5626919640625584e-10 2.3076553242321031e-10 1.1497493707891182e-10 1.1051677162988622e-10 5.0883776985065744e-11 9.834639826466438e-11
          8.164286373928888e-11 3.8487948267015775e-11 6.41167051500097e-11 1.5378502070493654e-10 1.476315847392549e-10 6.987674929167911e-11
          6.726615731327624e-11 1.3079982806039342e-10 6.012554670079755e-11 1.957209438392452e-10 1.8772613161513922e-10 8.475766577006311e-11
          1.6578656581314491e-10 1.0771960394342518e-10 5.0268137511222197e-11 8.368584357113307e-11 3.978416718333112e-11 1.35663550280643e-10
          6.277622261080789e-11 1.0443835981940834e-10 4.862640099972491e-11 2.3528769752322637e-11 6.268118169554476e-11 3.009911437863825e-11
          7.730524377107607e-11 3.7025118657655646e-11 2.3653109783149334e-10 2.2674929675913035e-10 1.0569010527187739e-10 1.0161424827168559e-10
          1.998045081818584e-10 9.037998368223392e-11 2.7106085854359674e-10 2.597724530753653e-10 1.158255642895506e-10 2.28573750279155e-10
          1.6271727745477775e-10 7.47942364024984e-11 1.2437561567681528e-10 5.836501599552266e-11 1.855247304086733e-10 8.486754754489298e-11
          1.4108131769866724e-10 2.942781346942391e-10 2.8197858743898825e-10 1.3049415361092245e-10 1.253907390540273e-10 2.4790969087506397e-10
          1.1126202141738757e-10 3.024729253353218e-10 2.8981674021026755e-10 1.2876853389712583e-10 2.547328384729049e-10 2.0081976491319243e-10
          9.15995864181136e-11 1.522387663716889e-10 7.094725960800202e-11 2.062106976436852e-10 9.396779731307529e-11 1.561647013626257e-10
          9.109385508852487e-11 4.363671963361225e-11 1.0261686058284976e-10 4.9080099660638187e-11 1.1034321269419173e-10 5.265464590748578e-11
          1.1305028223615967e-10 5.390145643213963e-11 2.9359402492373027e-8 2.7020330465113592e-8 2.733163818700528e-8 3.030205324216629e-8
          2.942184715801819e-8 3.177474267725596e-8 2.6589558653073248e-8 3.0650905323094736e-8 3.4904502040312496e-8 2.2862445566883933e-8
          2.2830772184457235e-8 1.8126840434190395e-8 1.7989394053896518e-8 2.1702861564551722e-8 1.6927235212652156e-8 2.309620151506642e-8
          2.7454671821259152e-8 2.8428899058360177e-8 3.313420145882964e-8 1.8583736089763137e-8 1.436640776790224e-8 1.4390082796958546e-8
          1.803164831648989e-8 2.222191284224491e-8 1.0978308449976631e-8 1.0385788183143104e-8 1.3203725703158575e-8 1.274334327322225e-8
          1.61061365771269e-8 7.782708946517507e-9 9.630397444226146e-9 2.8253803159015116e-8 3.147952906286762e-8 3.708670116316288e-8
          2.7997005908381142e-8 3.145367430239271e-8 3.8086314441564246e-8 3.3048967745035754e-8 3.755281987537914e-8 3.633499540856799e-8
          4.035775564795705e-8 2.621458553405369e-8 2.9477071129669712e-8 2.795777976702679e-8 3.1753760422462795e-8 3.864630679666555e-8
          2.7860448036595972e-8 3.189454159113127e-8 3.8860581518597505e-8 3.816928648800238e-8 4.175056379803625e-8 3.874061098335803e-8
          4.21531780466326e-8 3.160810781905488e-8 3.2355070892189594e-8 1.4935861766981936e-8 1.8858468495632686e-8 1.135093672564123e-8
          1.674327301316256e-8 2.1169165344696106e-8 1.275483855776647e-8 1.7947037859961162e-8 2.2710662549550244e-8 1.3675442800458106e-8
          1.8371145084050745e-8 2.324959544488603e-8 1.3996469436715236e-8 1.389200933186486e-8 1.3685832691153382e-8 1.0091291334308513e-8
          9.847179942688927e-9 1.2673428326386552e-8 8.932904811059468e-9 6.783479758179483e-9 6.567831145889061e-9 4.219109173723957e-9
          4.061836284194228e-9 5.86063362908778e-9 3.5824217640964996e-9 1.0564216693855847e-8 7.297601483274358e-9 7.928584020487822e-9
          5.393001053604989e-9 4.716880562093795e-9 2.857039389028353e-9 3.452429151347496e-9 2.084694728848003e-9 8.25269637259117e-10
          7.908653145357375e-10 1.2499806749023758e-9 1.1971389491823944e-9 6.958870846530769e-10 1.049393936006248e-9 2.190457994408507e-9
          2.1005112122541507e-9 3.130744956283583e-9 3.006684891788275e-9 1.8438966207166098e-9 2.642472104270175e-9 5.651242423631744e-10
          8.437884114613498e-10 4.3055251036629454e-10 6.325554749326432e-10 1.4792266157561884e-9 2.110397876321957e-9 1.1010822719019526e-9
          1.5527232870950235e-9 5.5313045488216576e-9 6.9000783629026e-9 3.721300795814593e-9 4.672090577122327e-9 2.371073517614446e-9
          2.988868680328558e-9 1.4347352015444319e-9 3.1445410308232327e-10 4.5302995523728497e-10 7.806451577267418e-10 1.0828834203891997e-9
          8.188067688794661e-9 5.575880805427319e-9 9.246273071690582e-9 6.324926266316938e-9 3.581183811247373e-9 4.075642197311257e-9
          9.94199064175538e-9 6.8206429867567795e-9 1.0184551197014554e-8 6.994111942870346e-9 4.404550485385516e-9 4.5199480957704064e-9
        </DataArray>
        <DataArray type="Float64" Name="gradient_matprop_error" format="ascii" RangeMin="0" RangeMax="0">
          0 0 0 0 0 0
          0 0 0 0 0 0
          0 0 0 0 0 0
          0 0 0 0 0 0
          0 0 0 0 0 0
          0 0 0 0 0 0
          0 0 0 0 0 0
          0 0 0 0 0 0
          0 0 0 0 0 0
          0 0 0 0 0 0
          0 0 0 0 0 0
          0 0 0 0 0 0
          0 0 0 0 0 0
          0 0 0 0 0 0
          0 0 0 0 0 0
          0 0 0 0 0 0
          0 0 0 0 0 0
          0 0 0 0 0 0
          0 0 0 0 0 0
          0 0 0 0 0 0
          0 0 0 0 0 0
          0 0 0 0 0 0
          0 0 0 0 0 0
          0 0 0 0 0 0
          0 0 0 0 0 0
          0 0 0 0 0 0
          0 0 0 0 0 0
          0 0 0 0 0 0
          0 0 0 0 0 0
          0 0 0 0 0 0
          0 0 0 0 0 0
          0 0 0 0 0 0
          0 0 0 0 0 0
          0 0 0 0 0 0
          0 0 0 0 0 0
          0 0 0 0 0 0
          0 0 0 0 0 0
          0 0 0 0 0 0
          0 0 0 0 0 0
          0 0 0 0 0 0
          0 0 0 0 0 0
          0 0 0 0 0 0
          0 0 0 0 0 0
          0 0 0 0 0 0
          0 0 0 0 0 0
          0 0 0 0 0 0
          0 0 0 0 0 0
          0 0 0 0 0 0
          0 0 0 0 0 0
          0 0 0 0 0 0
          0 0 0 0 0 0
          0 0 0 0 0 0
          0 0 0 0 0 0
          0 0 0 0 0 0
          0 0 0 0 0 0
          0 0 0 0 0 0
          0 0 0 0 0 0
          0 0 0 0 0 0
          0 0 0 0 0 0
          0 0 0 0 0 0
          0 0 0 0 0 0
          0 0 0 0 0 0
          0 0 0 0 0 0
          0 0 0 0 0 0
          0 0 0 0 0 0
          0 0 0 0 0 0
          0 0 0 0 0 0
          0 0 0 0 0 0
          0 0 0 0 0 0
          0 0 0 0 0 0
          0 0 0 0 0 0
          0 0 0 0 0 0
          0 0 0 0 0 0
          0 0 0 0 0 0
          0 0 0 0 0 0
          0 0 0 0 0 0
          0 0 0 0 0 0
          0 0 0 0 0 0
          0 0 0 0 0 0
          0 0 0 0 0 0
          0 0 0 0 0 0
          0 0 0 0 0 0
          0 0 0 0 0 0
          0 0 0 0 0 0
          0 0 0 0 0 0
          0 0 0 0 0 0
          0 0 0 0 0 0
          0 0 0 0 0 0
          0 0 0 0 0 0
          0 0 0 0 0 0
          0 0 0 0 0 0
          0 0 0 0 0 0
          0 0 0 0 0 0
          0 0 0 0 0 0
          0 0 0 0 0 0
          0 0 0 0 0 0
          0 0 0 0 0 0
        </DataArray>
        <DataArray type="Float64" Name="initial_marker" format="ascii" RangeMin="1.5" RangeMax="2">
          2 2 2 2 2 2
          2 2 2 2 2 2
          2 2 2 2 2 2
          2 2 2 2 2 2
          2 2 2 2 2 2
          2 2 2 2 2 2
          2 2 2 2 2 2
          2 2 2 2 2 2
          2 2 2 2 2 2
          2 2 2 2 2 2
          2 2 2 2 2 2
          2 2 2 2 2 2
          2 2 2 2 2 2
          2 2 2 2 2 2
          2 2 2 2 2 2
          2 2 2 2 2 2
          2 2 2 2 2 2
          2 2 2 2 2 2
          2 2 2 2 2 2
          2 2 2 2 2 2
          2 2 2 2 2 2
          2 2 2 2 2 2
          2 2 2 2 2 2
          2 2 2 2 2 2
          2 2 2 2 2 2
          2 2 2 2 2 2
          2 2 2 2 2 2
          2 2 2 2 2 2
          2 2 2 2 2 2
          2 2 2 2 2 2
          2 2 2 2 2 2
          2 2 2 2 2 2
          2 2 2 2 2 2
          2 2 2 2 2 2
          2 2 2 2 2 2
          2 2 2 2 2 2
          2 2 2 2 2 2
          2 2 2 2 2 2
          2 2 2 2 2 2
          2 2 2 2 2 2
          2 2 2 2 2 2
          2 2 2 2 2 2
          2 2 2 2 2 2
          2 2 2 2 2 2
          2 2 2 2 2 2
          2 2 2 2 2 2
          2 2 2 2 2 2
          2 2 2 2 2 2
          2 2 2 2 2 2
          2 2 2 2 2 2
          2 2 2 2 2 2
          2 2 2 2 2 2
          2 2 2 2 2 2
          2 2 2 2 2 2
          2 2 2 2 2 2
          2 2 2 2 2 2
          2 2 2 2 2 2
          2 2 2 2 2 2
          2 2 2 2 2 2
          2 2 2 2 2 2
          2 2 2 2 2 2
          2 2 2 2 2 2
          2 2 2 2 2 2
          2 2 2 2 2 2
          2 2 2 2 2 2
          2 2 2 2 2 2
          2 2 2 2 2 2
          2 2 2 1.5 2 1.75
          2 2 2 2 2 2
          2 2 2 2 2 2
          2 2 2 2 2 2
          2 2 2 2 2 2
          2 2 2 2 2 2
          2 2 2 2 2 2
          2 2 2 2 2 2
          2 2 2 2 2 2
          2 2 2 2 2 2
          2 2 2 2 2 2
          2 2 2 2 2 2
          2 2 2 2 2 2
          2 2 2 2 2 2
          2 2 2 2 2 2
          2 2 2 2 2 2
          2 2 2 2 2 2
          2 2 2 2 2 2
          2 2 2 2 2 2
          2 2 2 2 2 2
          2 2 2 2 2 2
          2 2 2 2 2 2
          2 2 2 2 2 2
          2 2 2 2 2 2
          2 2 2 2 2 2
          2 2 2 2 2 2
          2 2 2 2 2 2
          2 2 2 2 2 2
          2 2 2 2 2 2
          2 2 2 2 2 2
        </DataArray>
        <DataArray type="Float64" Name="markers_norefine" format="ascii" RangeMin="0" RangeMax="2">
          0 0 0 0 0 0
          0 0 0 0 0 0
          0 0 0 0.5 0 0
          2 1 0 0 0 2
          1.5 0 0 0 0 0
          0 0 0 0 0 0
          0 0 0 0 0 0
          0 0 0 0 0 0
          0 0 0 0 0 0
          0 0 0 0 0 0
          0 0 0 0 0 0
          0 0 0 0 0 0
          0 0 0 0 0 0
          0 0 0 0.25 0 0
          0 0 0 0 0 1.5
          1 0.25 1.75 0.5 0.25 0
          0 0 0 1 0.75 0
          0.25 0 0 0 0 0
          0 0 2 2 1.5 2
          1 1 0 0 0.5 0
          1 1 0 0.5 0 0
          0 0 0 0 0 0
          0 0 0 0 0 0
          0 0 0 0 0 0
          0 0 0 0 0 0
          0 0 0 0 0 0
          0 0 0 0 0 0
          0 0 0 0 0 0
          0 0 0 0 0 0
          0 0 0 0 0 0
          0 0 0 0 0 0
          0 0 0 0 0 0
          0 0 0 0 0 0
          0 0 0 0 0 0
          0 0 0 0 0 0
          0 0 0 0 0 0
          0 0 0 0 0 0
          0 0 0 0 0 0
          0 0 0 0 0 0
          0 0 0 0 0 0
          0 0 0 0 0 0
          0 0 0 0 0 0
          0 0 0 0 0 0
          0 0 0 0 0 0
          0 0 0 0 0 0
          0 0 0 0 0 0
          0 0 0 0 0 0
          0 0 0 0 0 0
          0 0 0 0 0 0
          0 0 0 0 0 0
          0 0 0 0 0 0
          0 0 0 0 0 0
          0 0 0 0 0 0
          0 0 0 0 0 0
          0 0 0 0 0 0
          0 0 0 0 0 0
          0 0 0 0 0 0
          0 0 0 0 0 0
          0 0 0 0 0 0
          0 0 0 0 0 0
          0 0 0 0 0 0
          0 0 0 0 0 0
          0 0 0 0 0 0
          0 0 0 0 0 0
          0 0 0 0 0 0
          0 0 0 0 0 0
          0 0 0 0 0 0
          0 0 0 0 0 0
          0 0 0 0 0 0
          0 0 0 0 0 0
          0 0 0 0 0 0
          0 0 0 0 0 0
          0 0 0 0 0 0
          0 0 0 0 0 0
          0 0 0 0 0 0
          0 0 0.5 0 0 0.25
          1.5 1 0 0 0.25 0
          0 0 0 0 0 0
          0 0 0 0 0 0
          0 0 0 0 0 0
          0 0 0 2 1.75 1
          2 2 1.75 0 0.25 0.25
          0.75 0 0 2 2 2
          2 2 2 0.5 1 0.5
          1 0 0 0 0 0
          0 0 0 0 0 0
          0 0 0 0 0 0
          0 0 0 0 0 0
          0 0 0 0 0 0
          0 0 0 0 0 0
          0 0 0 0 0 0
          0 0 0 0 0 0
          0 0 0 0 0 0
          0 0 0 0 0 0
          0 0 0 0 0 0
          0 0 0 0 0 0
          0 0 0 0 0 0
        </DataArray>
        <DataArray type="Float64" Name="markers_mustrefine" format="ascii" RangeMin="1.5" RangeMax="2">
          2 2 2 2 2 2
          2 2 2 2 2 2
          2 2 2 2 2 2
          2 2 2 2 2 2
          2 2 2 2 2 2
          2 2 2 2 2 2
          2 2 2 2 2 2
          2 2 2 2 2 2
          2 2 2 2 2 2
          2 2 2 2 2 2
          2 2 2 2 2 2
          2 2 2 2 2 2
          2 2 2 2 2 2
          2 2 2 2 2 2
          2 2 2 2 2 2
          2 2 2 2 2 2
          2 2 2 2 2 2
          2 2 2 2 2 2
          2 2 2 2 2 2
          2 2 2 2 2 2
          2 2 2 2 2 2
          2 2 2 2 2 2
          2 2 2 2 2 2
          2 2 2 2 2 2
          2 2 2 2 2 2
          2 2 2 2 2 2
          2 2 2 2 2 2
          2 2 2 2 2 2
          2 2 2 2 2 2
          2 2 2 2 2 2
          2 2 2 2 2 2
          2 2 2 2 2 2
          2 2 2 2 2 2
          2 2 2 2 2 2
          2 2 2 2 2 2
          2 2 2 2 2 2
          2 2 2 2 2 2
          2 2 2 2 2 2
          2 2 2 2 2 2
          2 2 2 2 2 2
          2 2 2 2 2 2
          2 2 2 2 2 2
          2 2 2 2 2 2
          2 2 2 2 2 2
          2 2 2 2 2 2
          2 2 2 2 2 2
          2 2 2 2 2 2
          2 2 2 2 2 2
          2 2 2 2 2 2
          2 2 2 2 2 2
          2 2 2 2 2 2
          2 2 2 2 2 2
          2 2 2 2 2 2
          2 2 2 2 2 2
          2 2 2 2 2 2
          2 2 2 2 2 2
          2 2 2 2 2 2
          2 2 2 2 2 2
          2 2 2 2 2 2
          2 2 2 2 2 2
          2 2 2 2 2 2
          2 2 2 2 2 2
          2 2 2 2 2 2
          2 2 2 2 2 2
          2 2 2 2 2 2
          2 2 2 2 2 2
          2 2 2 2 2 2
          2 2 2 1.5 2 1.75
          2 2 2 2 2 2
          2 2 2 2 2 2
          2 2 2 2 2 2
          2 2 2 2 2 2
          2 2 2 2 2 2
          2 2 2 2 2 2
          2 2 2 2 2 2
          2 2 2 2 2 2
          2 2 2 2 2 2
          2 2 2 2 2 2
          2 2 2 2 2 2
          2 2 2 2 2 2
          2 2 2 2 2 2
          2 2 2 2 2 2
          2 2 2 2 2 2
          2 2 2 2 2 2
          2 2 2 2 2 2
          2 2 2 2 2 2
          2 2 2 2 2 2
          2 2 2 2 2 2
          2 2 2 2 2 2
          2 2 2 2 2 2
          2 2 2 2 2 2
          2 2 2 2 2 2
          2 2 2 2 2 2
          2 2 2 2 2 2
          2 2 2 2 2 2
          2 2 2 2 2 2
          2 2 2 2 2 2
        </DataArray>
        <DataArray type="Float64" Name="gradient_marker" format="ascii" RangeMin="1" RangeMax="1">
          1 1 1 1 1 1
          1 1 1 1 1 1
          1 1 1 1 1 1
          1 1 1 1 1 1
          1 1 1 1 1 1
          1 1 1 1 1 1
          1 1 1 1 1 1
          1 1 1 1 1 1
          1 1 1 1 1 1
          1 1 1 1 1 1
          1 1 1 1 1 1
          1 1 1 1 1 1
          1 1 1 1 1 1
          1 1 1 1 1 1
          1 1 1 1 1 1
          1 1 1 1 1 1
          1 1 1 1 1 1
          1 1 1 1 1 1
          1 1 1 1 1 1
          1 1 1 1 1 1
          1 1 1 1 1 1
          1 1 1 1 1 1