<?xml version="1.0"?>
<VTKFile type="UnstructuredGrid" version="0.1" byte_order="LittleEndian" header_type="UInt32" compressor="vtkZLibDataCompressor">
  <UnstructuredGrid>
    <Piece NumberOfPoints="687" NumberOfCells="369">
      <PointData>
        <DataArray type="Int32" Name="libmesh_node_id" format="ascii" RangeMin="192" RangeMax="5628">
          230 287 288 295 296 404
          407 412 413 414 415 416
          417 418 419 420 421 422
          423 424 425 544 545 546
          547 548 549 550 551 552
          553 554 555 556 557 558
          559 560 561 562 563 849
          850 856 912 913 914 915
          916 917 918 919 920 921
          922 923 924 925 926 927
          928 929 931 932 933 934
          936 938 940 977 978 979
          980 981 982 983 984 985
          986 987 988 989 990 1038
          1039 1040 1041 1042 1043 1044
          1045 1046 1047 1048 1049 1050
          1051 1052 1053 1054 1055 1056
          1057 1058 1520 1521 1522 1528
          1560 1561 1562 1563 1564 1565
          1568 1578 1581 1582 1874 1875
          1876 1877 1878 1879 1880 1881
          1882 1883 1884 1885 1886 1887
          1888 1889 1890 1891 1895 1896
          1900 1901 1903 1906 1908 1909
          1912 1913 1917 1918 1920 1923
          1925 1926 1927 1928 1929 1930
          1931 1932 1933 1934 1935 1936
          1937 1938 1939 1940 1943 1944
          2017 2018 2019 2020 2021 2022
          2023 2024 2025 2026 2099 2100
          2101 2102 2103 2104 2105 2106
          2107 2108 2109 2110 2111 2112
          2113 2114 2115 2116 2117 2118
          2119 2120 2121 2122 2123 2124
          2125 2126 2127 2128 2129 2130
          2131 2132 2133 2134 2135 3329
          3330 3331 3332 3333 3334 3335
          3336 3337 3338 3339 3340 3341
          3342 3353 3354 3355 3356 3357
          3358 3359 3360 3361 3362 3497
          3498 3500 3503 3505 3506 3507
          3508 3509 3510 3511 3512 3513
          3514 3516 3518 3520 3522 3523
          3524 3525 3526 3527 3528 3531
          3532 3534 3539 3540 3541 3542
          3543 3544 3547 3550 3552 3556
          3557 3558 3559 3561 3626 3627
          3628 3629 3630 3631 3632 3633
          3634 3635 3647 3649 3653 3654
          3655 3656 3658 3659 4534 4535
          5318 5319 5320 5321 5322 5323
          5324 5325 5326 5327 5328 5329
          5330 5331 5332 5333 5334 5335
          5336 5337 5338 5339 5340 5341
          5342 5343 5344 5345 5346 5347
          5348 5349 5350 5351 5352 5353
          5354 5355 5356 5357 5358 5359
          5360 5361 5362 5363 5364 5365
          5366 5367 5368 5369 5370 5371
          5372 5373 5374 5379 5380 5381
          5382 5383 5384 5385 5386 5387
          5388 5389 5390 5391 5392 5393
          5394 5395 5396 5400 5401 5402
          5403 5404 5405 5406 5407 5408
          5409 5420 5421 5422 5423 5424
          5425 5426 5427 5428 5429 5437
          5438 5439 5440 5441 5442 5443
          5444 5445 5446 5447 5451 5452
          5453 5454 5455 5456 5457 5458
          5459 5460 5474 5478 5479 5480
          5481 5482 5483 5484 5502 5503
          5504 5505 5506 5507 5508 5509
          5510 5511 5519 5520 5521 5522
          5523 5524 5525 5536 5537 5538
          5539 5540 5541 5542 5543 5544
          5545 5553 5554 5555 5556 5557
          5558 5559 5560 5561 5562 5563
          5564 5565 5566 5567 5568 5569
          5570 5571 5572 5573 5574 5575
          5576 5577 5578 5579 5580 5581
          5582 5583 5587 5591 5592 5593
          5594 5595 5596 5597 5618 5622
          5623 5624 5625 5626 5627 5628
          285 194 289 286 290 291
          275 292 193 277 293 280
          195 294 297 231 298 307
          438 439 308 192 471 463
          229 477 468 382 383 384
          387 390 536 537 540 542
          848 853 948 949 956 957
          870 871 874 1516 276 1517
          1518 1519 1523 1525 1524 1543
          1541 1529 1548 1547 1025 1026
          1027 1030 3319 3320 3321 3324
          1526 3327 1527 3345 3346 3349
          3351 3325 3326 3495 3496 3328
          3499 3501 3502 3504 3350 3515
          3352 3517 3519 3521 3529 3530
          3533 3535 1566 3537 3536 1567
          3538 3545 3546 3548 3549 3551
          3554 3553 1569 3555 3560 3562
          3425 3424 3620 3619 3624 3623
          3622 1577 3646 3625 3648 3651
          3650 3652 3657 4411 4413 4414
          4412 4416 4415 4429 4428 4431
          4430 4533 4532 1718 5375 5376
          4419 1898 5377 5378 1719 1899
          5397 4433 5398 5399 1721 1902
          5412 5413 5415 1904 5418 1905
          5431 5433 5435 1907 5448 4537
          5449 5472 5476 5494 5495 5497
          1915 5500 1916 5513 5515 5517
          1919 5528 5529 5531 1921 5534
          1922 5547 5549 5551 1924 5585
          5589 5616 5620
        </DataArray>
        <DataArray type="Float64" Name="bounds" format="ascii" RangeMin="0" RangeMax="0">
          0 0 0 0 0 0
          0 0 0 0 0 0
          0 0 0 0 0 0
          0 0 0 0 0 0
          0 0 0 0 0 0
          0 0 0 0 0 0
          0 0 0 0 0 0
          0 0 0 0 0 0
          0 0 0 0 0 0
          0 0 0 0 0 0
          0 0 0 0 0 0
          0 0 0 0 0 0
          0 0 0 0 0 0
          0 0 0 0 0 0
          0 0 0 0 0 0
          0 0 0 0 0 0
          0 0 0 0 0 0
          0 0 0 0 0 0
          0 0 0 0 0 0
          0 0 0 0 0 0
          0 0 0 0 0 0
          0 0 0 0 0 0
          0 0 0 0 0 0
          0 0 0 0 0 0
          0 0 0 0 0 0
          0 0 0 0 0 0
          0 0 0 0 0 0
          0 0 0 0 0 0
          0 0 0 0 0 0
          0 0 0 0 0 0
          0 0 0 0 0 0
          0 0 0 0 0 0
          0 0 0 0 0 0
          0 0 0 0 0 0
          0 0 0 0 0 0
          0 0 0 0 0 0
          0 0 0 0 0 0
          0 0 0 0 0 0
          0 0 0 0 0 0
          0 0 0 0 0 0
          0 0 0 0 0 0
          0 0 0 0 0 0
          0 0 0 0 0 0
          0 0 0 0 0 0
          0 0 0 0 0 0
          0 0 0 0 0 0
          0 0 0 0 0 0
          0 0 0 0 0 0
          0 0 0 0 0 0
          0 0 0 0 0 0
          0 0 0 0 0 0
          0 0 0 0 0 0
          0 0 0 0 0 0
          0 0 0 0 0 0
          0 0 0 0 0 0
          0 0 0 0 0 0
          0 0 0 0 0 0
          0 0 0 0 0 0
          0 0 0 0 0 0
          0 0 0 0 0 0
          0 0 0 0 0 0
          0 0 0 0 0 0
          0 0 0 0 0 0
          0 0 0 0 0 0
          0 0 0 0 0 0
          0 0 0 0 0 0
          0 0 0 0 0 0
          0 0 0 0 0 0
          0 0 0 0 0 0
          0 0 0 0 0 0
          0 0 0 0 0 0
          0 0 0 0 0 0
          0 0 0 0 0 0
          0 0 0 0 0 0
          0 0 0 0 0 0
          0 0 0 0 0 0
          0 0 0 0 0 0
          0 0 0 0 0 0
          0 0 0 0 0 0
          0 0 0 0 0 0
          0 0 0 0 0 0
          0 0 0 0 0 0
          0 0 0 0 0 0
          0 0 0 0 0 0
          0 0 0 0 0 0
          0 0 0 0 0 0
          0 0 0 0 0 0
          0 0 0 0 0 0
          0 0 0 0 0 0
          0 0 0 0 0 0
          0 0 0 0 0 0
          0 0 0 0 0 0
          0 0 0 0 0 0
          0 0 0 0 0 0
          0 0 0 0 0 0
          0 0 0 0 0 0
          0 0 0 0 0 0
          0 0 0 0 0 0
          0 0 0 0 0 0
          0 0 0 0 0 0
          0 0 0 0 0 0
          0 0 0 0 0 0
          0 0 0 0 0 0
          0 0 0 0 0 0
          0 0 0 0 0 0
          0 0 0 0 0 0
          0 0 0 0 0 0
          0 0 0 0 0 0
          0 0 0 0 0 0
          0 0 0 0 0 0
          0 0 0 0 0 0
          0 0 0 0 0 0
          0 0 0 0 0 0
          0 0 0 0 0 0
          0 0 0
        </DataArray>
        <DataArray type="Float64" Name="gradient_error" format="ascii" RangeMin="5.293919979078781e-12" RangeMax="4.228325462512273e-9">
          2.9433653451351215e-11 6.093316409540548e-11 2.7720199845452294e-10 1.2001729773821878e-11 1.4286200396856052e-10 1.1636192918102682e-10
          3.7995519475622956e-10 3.107618194536613e-11 8.833527999862408e-11 3.6437201117323665e-11 5.781519978457954e-11 6.315458121261925e-11
          2.4410873636622963e-11 4.9930083632711974e-11 1.952366391190046e-10 2.4033073329029533e-10 1.013499294535853e-10 1.6826109669336704e-11
          5.335041249077256e-11 4.5699744169755293e-11 2.8498521355283594e-10 8.466475119556781e-11 9.507847466816078e-11 5.406890003767372e-11
          1.0331210673320945e-10 5.4830049643562836e-11 3.3410789642647346e-11 6.784534297414183e-11 1.0549219814075378e-10 1.5115501191363864e-10
          1.0227989630563632e-10 2.9179009175167646e-10 3.6648325214644514e-10 1.7127434518515514e-10 1.9002758931282972e-10 2.7728961467800927e-10
          3.47325863023603e-10 2.2644127391005243e-10 4.411764125412139e-10 2.0878083344050427e-10 4.173621113691967e-10 2.5000927582528617e-11
          4.3023252350442925e-11 6.630630304026786e-11 2.701772638507089e-11 4.251239103023403e-11 3.1467943246760013e-11 4.256708046742151e-11
          2.6289511243541627e-11 4.416248013861429e-11 4.2970904625758986e-11 6.005487397446965e-11 7.196818604008523e-11 4.129733611610964e-11
          3.909897934129482e-11 3.041158593008656e-11 2.592254990128017e-11 5.5881718950500726e-11 2.4083034623403857e-11 2.333590879768002e-11
          1.4467766989800039e-11 1.2929190115495995e-11 2.823712123797497e-11 2.4331607771542136e-11 3.2265226575151035e-11 1.5443490802056015e-11
          9.114567780717514e-11 5.931350701365564e-11 1.0416567989328988e-10 1.2036083568837331e-11 1.576477039333377e-11 1.230513787203994e-11
          1.8416573113093063e-11 1.186382192164252e-11 7.742291119854832e-12 1.337590654268688e-11 1.9493457217830212e-11 2.452800835414618e-11
          1.900952196551893e-11 1.2574192175242549e-11 2.106837583285235e-11 1.4887991163731242e-11 2.956255949046215e-11 6.137835309270218e-11
          8.089582697119837e-11 4.209604498546945e-11 4.677145946366091e-11 5.792793941909895e-11 7.160053963053685e-11 5.272757580800623e-11
          1.095250132354513e-11 1.0398264036966232e-11 1.2141203959617881e-11 1.1550372911043204e-11 7.802083586249611e-12 6.743575215346869e-12
          7.645311777924615e-12 9.844026750387334e-12 1.0959541862468529e-11 8.54704834050236e-12 1.332990659569063e-11 1.2702481785120178e-11
          7.488539969599618e-12 1.2075056974549724e-11 3.213321961030312e-11 2.962421409494199e-11 2.7237526122392078e-11 2.2194704760290043e-11
          1.729204061969547e-10 1.4943525429184322e-10 4.7324771480583805e-11 4.150744906550587e-11 1.0065852580543458e-10 3.452268285671548e-11
          1.0004765172202941e-10 4.879791788656242e-11 1.275784915983949e-10 4.430627755512422e-11 2.1411481576779695e-11 2.0034697981289154e-11
          2.933619742053536e-11 2.6789896614100183e-11 1.881635955662496e-11 4.291299412871359e-11 3.954236826395618e-11 2.549027533661923e-11
          2.75748685818446e-11 3.156000416538921e-11 3.817459473551544e-11 3.401849989148682e-11 2.805619439648444e-11 2.463925134831175e-11
          3.3581455897669896e-11 3.5302711853214964e-11 1.9748610833468337e-11 2.5656498907928937e-11 2.9000080243292505e-11 2.2195626564066073e-11
          2.2592436803200282e-11 2.0384913991655358e-11 1.547354368772161e-11 2.594705351631667e-11 2.7995372139850878e-11 2.2296290571782776e-11
          3.3087924842558736e-11 2.1940863516052734e-11 2.2049102233614225e-11 2.8725577931242027e-11 2.971549099052485e-11 3.14613178690523e-11
          1.703741536288313e-11 2.0957397541357413e-11 9.135057825149419e-12 2.0313628142171515e-11 1.1288969877451529e-11 1.2582298340340735e-11
          1.2738954447915717e-11 2.1380862484701816e-11 2.644809076625394e-11 1.2259682812203821e-11 9.691126033325641e-12 2.18441512504251e-11
          1.33570522080771e-11 2.8455648722118974e-11 3.552184061420205e-11 1.7982471938798332e-11 3.884033300347416e-11 1.9386078630654856e-11
          2.5187398807244806e-11 2.713856980194216e-11 3.129993684020809e-11 3.35307321052213e-11 2.1019364154697182e-11 1.660051446153235e-11
          2.2198622070880594e-11 2.908974079663951e-11 3.57615273702345e-11 2.7796729680228838e-11 1.2320912867419536e-11 1.2669045840410615e-11
          1.948804317345145e-11 1.8810993059065315e-11 9.897233964068084e-12 1.0937753247956123e-11 1.2018240766203378e-11 1.3017178813401693e-11
          1.813394294467918e-11 1.3098728284450631e-11 1.5858557002094565e-11 1.4697058319794897e-11 2.0565695263672537e-11 1.8952565603229065e-11
          9.589563066420883e-12 1.0543018346510496e-11 1.0023323066784802e-11 1.2105885244641696e-11 1.5213538701828214e-11 8.644811608691493e-12
          9.618930016897286e-12 1.1452760772888122e-11 6.910778998321363e-12 7.555545213263962e-12 8.561649182006409e-12 9.817880084905417e-12
          7.325094996204045e-12 1.4993344710492114e-11 9.154176691743973e-12 1.2082026066026843e-11 1.7877200584932453e-11 1.0623801999068164e-11
          1.3890204240094943e-11 9.623848929219383e-12 1.905430327775964e-11 1.1139562042854936e-11 1.4690467335940627e-11 1.3158600230269995e-11
          1.2826906050659824e-11 1.826181759823958e-11 1.7765438816774413e-11 9.61929676616193e-12 1.3019974405554166e-11 1.266431430761217e-11
          1.1923840909537001e-11 1.6447652953631445e-11 1.172506506066948e-11 3.236837199425835e-11 3.139816738575891e-11 1.9179600699494432e-11
          2.8836886882391306e-11 1.0852880576335184e-11 1.4542785642240147e-11 8.272239179419806e-12 1.0820248405508673e-11 1.0353291204646012e-11
          1.3459325412526651e-11 1.049902089934856e-11 2.5115398420855975e-11 1.577524257052376e-11 2.322164567868146e-11 1.0225950677313543e-10
          9.884003953316694e-11 8.950020672861717e-11 1.6661378559834995e-10 5.532786879703111e-11 5.3549780279234895e-11 2.878553725498766e-11
          2.7896097158987126e-11 4.872346445379659e-11 2.5506026195018632e-11 9.18911842656007e-11 8.870141370891018e-11 4.577895511276277e-11
          7.997253812348672e-11 7.661913081269678e-11 6.26311614545369e-11 1.257992744267047e-10 4.207463415666121e-11 2.204445353549095e-11
          3.466424707432611e-11 2.0747081803996218e-11 6.80461197644134e-11 3.5392580709980904e-11 5.523455757658123e-11 2.8353605661410104e-10
          2.7245444701720734e-10 2.4222467863370833e-10 1.4880851273132015e-10 1.432413385938881e-10 7.555335554065267e-11 7.288694599047503e-11
          1.280660631849667e-10 6.559339545421493e-11 1.1198440972477744e-10 2.0084886543185341e-10 1.5764497586820313e-10 1.0730228991173248e-10
          5.549712936229646e-11 8.536671628772643e-11 4.460913198512653e-11 8.3646205845303e-11 2.1357590060001396e-11 2.7274564677425713e-11
          1.622867082255644e-11 2.012362628287073e-11 1.9020214792336024e-11 2.369466637336709e-11 1.8173030641615268e-11 4.271740479738924e-11
          2.6314668091027663e-11 3.525877552561466e-11 1.1915291256303178e-10 8.759086090989079e-11 6.532663519739336e-11 3.4276357062879246e-11
          4.8434919650568954e-11 2.933464865141249e-11 5.03741733591655e-11 7.062775583821884e-11 9.824361931846591e-11 5.185269409673033e-11
          1.0662141783466628e-11 1.0397208319437423e-11 1.4411509092015142e-11 1.4019454352274548e-11 7.320543094297126e-12 9.69507641779439e-12
          9.477385324373454e-12 9.590729349142385e-12 1.2881028395834445e-11 8.717553156408079e-12 2.378681196895524e-11 2.306165576902493e-11
          1.5305205751983233e-11 2.105751545459514e-11 8.420797661027439e-12 1.1151028794131142e-11 5.946067148912077e-12 7.847931272073418e-12
          7.792411479178325e-12 1.0167400409127347e-11 7.520450462283196e-12 1.807053257341329e-11 1.2487714840464822e-11 1.6233066517179273e-11
          3.7361815982554505e-11 3.6132704957422455e-11 2.4487976113740577e-11 2.372288447589417e-11 3.275979060473044e-11 2.1621916893898574e-11
          5.671398661405951e-11 5.472684753830589e-11 2.95972056777009e-11 4.92602364982482e-11 2.8008353586675353e-11 1.874036348929524e-11
          2.2771903262275652e-11 1.5557116660042807e-11 4.170468411155624e-11 2.2954333692003538e-11 3.3618280670698744e-11 1.4232857356810261e-11
          1.7724214729275668e-11 1.0683347843172869e-11 1.2786842426905156e-11 1.2491582775544545e-11 1.5305342830180273e-11 1.1654137562565806e-11
          2.5882789252805695e-11 1.49218606051076e-11 2.096194206000795e-11 8.245749329892419e-11 7.939920564550358e-11 3.795404638914464e-11
          3.666063736196099e-11 7.103140410295066e-11 3.3089245464537927e-11 1.3919848592042095e-11 1.3522048444651045e-11 1.710299803296454e-11
          1.658259594747184e-11 9.505959296025016e-12 1.1106238901225476e-11 1.0797466279997348e-11 1.2398806156099392e-11 1.5125865493121707e-11
          9.91454173590897e-12 2.37600402935585e-11 2.2976215529610646e-11 1.4146238062644742e-11 2.081413240991974e-11 5.950608007372918e-11
          2.8105633843198858e-11 4.7304087691299344e-11 2.272422388150921e-11 1.0763776958249966e-11 1.3049715995543957e-11 7.680662084939643e-12
          8.640319043735734e-12 8.927725090293702e-12 1.0738012824759797e-11 7.170828551976817e-12 1.7799981130498448e-11 1.1143493082573397e-11
          1.4481615289165845e-11 3.111602711679013e-11 3.004078665964793e-11 1.9068304123958684e-11 1.8442337906497554e-11 2.708262659073064e-11
          1.6703516290807166e-11 3.88092962367584e-11 3.74771232795308e-11 1.810658239627988e-11 3.3744944419194095e-11 2.2986345497696092e-11
          1.4322816151042268e-11 1.8543623610728315e-11 1.1692793751706108e-11 2.84863346097432e-11 1.7666501647181266e-11 2.2809674347325206e-11
          3.6230400195404364e-11 1.766304756812135e-11 2.6707668725908084e-11 1.532066513673124e-11 7.125164309681481e-12 8.419118185000698e-12
          5.293919979078781e-12 5.90956331738164e-12 6.249068340336708e-12 7.272105587305448e-12 5.417717805232392e-12 1.1140148362538938e-11
          7.489069183553987e-12 9.481154353566405e-12 2.5569052766693787e-11 1.415680724799314e-11 9.511380268391112e-12 1.1999351290966307e-11
          8.692144442876634e-12 1.7373629671876045e-11 1.1448748656584488e-11 1.3781062662740274e-11 4.5930592359501763e-11 4.4417040182119e-11
          1.926207701169202e-11 1.83854200642686e-11 4.006855446539896e-11 1.9312119787068008e-11 5.196311955387333e-11 5.02701236352795e-11
          2.0990603197039523e-11 4.535445539347597e-11 3.3743927635372405e-11 2.0872624342837643e-11 2.6838189330556126e-11 1.6778765725367782e-11
          3.8112268476919224e-11 2.3512180827920693e-11 3.016901397305189e-11 5.614308244622579e-11 5.429277582137846e-11 2.3743214550461644e-11
          2.258834331146491e-11 4.8919925698012114e-11 2.3564570142704377e-11 5.7600639150541877e-11 5.569742388774155e-11 2.3147033238805827e-11
          5.0168073893247824e-11 4.101677142228508e-11 2.5258227644044895e-11 3.237789291080079e-11 2.012835163023007e-11 4.203257570922337e-11
          2.5862961163030712e-11 3.314710504431046e-11 7.493045175722178e-12 7.122907683607844e-12 8.261565163065207e-12 7.866643243160107e-12
          5.620210535310242e-12 5.4824099141850766e-12 5.726787898398572e-12 6.7527701914935095e-12 7.471721323255006e-12 5.971165882612068e-12
          9.467881273083125e-12 9.01791257583734e-12 6.1480311664138e-12 8.567943878591556e-12 1.0142111618307947e-11 9.650535198139274e-12
          6.1162322892736786e-12 6.604395388333958e-12 9.158958777970596e-12 7.092558487394237e-12 1.037854584085788e-11 9.875624047316232e-12
          6.746093705327219e-12 9.372702253774587e-12 3.15703374527159e-11 2.0455760340337493e-11 1.308107820881373e-11 1.5144497879607478e-11
          1.0137523254275963e-11 2.294230646082719e-11 1.4461353870288785e-11 1.699144296820267e-11 3.798255699740432e-11 2.4535828800294702e-11
          1.543437195701834e-11 1.8101568591333585e-11 1.1553178415518759e-11 2.5097695847086245e-11 1.5780524103276338e-11 1.850342136590338e-11
          2.2032300596879778e-10 5.131081966988633e-10 1.764507576632463e-10 3.650547163986214e-10 7.875709835436239e-11 1.2750622527888342e-10
          7.219140304303976e-10 5.254282704330914e-10 2.08055801328825e-9 6.064501161696165e-10 6.384464762238887e-10 2.70001407203915e-9
          8.220340935024236e-10 2.019790875686774e-10 1.096242340380076e-10 3.7774809928214214e-10 6.593383677978215e-10 5.184385231627505e-10
          2.8579918466493087e-10 2.823270390415577e-10 5.54267815972476e-10 6.453548710011493e-10 5.858935099063196e-10 2.5103069578485275e-9
          4.228325462512273e-9 7.602954685190188e-10 3.5729809286339526e-9 4.80757270982197e-10 2.7782888452123423e-10 3.0628018644899523e-10
          6.524896257685744e-10 1.5627919113685208e-10 1.0555313218246468e-9 1.1640939585878911e-9 1.8035861642890864e-9 1.482686627839454e-9
          8.381704050709896e-11 1.3294706322731575e-10 7.924077918182402e-11 9.132976988279261e-11 4.7272685916271804e-11 7.189569012588979e-11
          2.1488229086069213e-10 2.160230445423484e-10 2.791515698527895e-10 9.321848890361868e-11 7.933084942690403e-11 8.650579733259262e-11
          5.83202039734139e-11 5.38539368513553e-11 6.93308779164672e-11 3.57663986209173e-11 5.1622001471548374e-11 5.235670639225336e-11
          6.383883995374449e-11 4.528367549646865e-11 6.27454928273433e-11 6.654005612526111e-11 6.938049708922894e-11 9.501539027530891e-11
          9.271099384701109e-11 1.0681791811989627e-10 2.2799303808047615e-11 3.2998767831506646e-11 3.208832022600189e-11 2.962237151134663e-11
          5.889135963402381e-11 5.7111377091973085e-11 5.2200236986280886e-11 1.9034107372875763e-11 2.5894764266729162e-11 2.4296750779474487e-11
          4.5111754778184796e-11 1.0434861120803384e-10 1.010635125056713e-10 1.832948367928441e-10 1.7691202820678437e-10 9.202790027948421e-11
          1.5948067043504077e-10 3.1373895329842676e-10 3.0187632271035803e-10 2.6949249448625737e-10 7.951120336512914e-11 1.3550198365619727e-10
          6.581450408948775e-11 1.0982844251548892e-10 2.250047169128418e-10 1.7819863142450744e-10 5.194062085224681e-10 4.985416075090369e-10
          4.413840449290396e-10 8.25269637259117e-10 4.4747924981668453e-10 4.291023365111783e-10 7.908653145357375e-10 3.7876942093403294e-10
          6.958870846530769e-10 2.3235371868182566e-10 2.231394803498152e-10 1.9800464836777188e-10 3.630286865466632e-10 2.817757778214916e-10
          3.0989607108654517e-10 5.651242423631744e-10 2.388260651429247e-10 4.3055251036629454e-10 1.6361772550314002e-10 1.2778375471748217e-10
          3.499498370170074e-11 5.216991345713235e-11 4.903786170174823e-11 8.585478414802939e-11 7.742012344614381e-11 1.362965456822368e-10
          4.1761171153187785e-11 7.01171167823795e-11 2.1047749647665606e-10 1.0148741480857003e-10 1.5336358530657187e-10 1.7678309384474324e-10
          3.1445410308232327e-10 2.2393233763995606e-10 9.61745332615627e-11 3.4781411434467525e-10 1.720666554572676e-10 1.6526177277379915e-10
          3.3343356511598857e-10 1.466944084581622e-10 2.9406355680115666e-10 1.2128637385161516e-10 2.402355486491027e-10 9.479609744952661e-11
          1.847350442793595e-10 7.118647312087126e-11 1.3643795533078357e-10 2.4344989573041953e-10 1.1497493707891182e-10 1.1051677162988622e-10
          2.3346769257588444e-10 5.278456800550632e-11 5.0883776985065744e-11 9.834639826466438e-11 2.0615687688955574e-10 4.568600898455025e-11
          8.164286373928888e-11 1.6880182975852955e-10 3.8487948267015775e-11 6.41167051500097e-11 1.3021057033031058e-10 3.075829390196456e-11
          6.987674929167911e-11 6.726615731327624e-11 6.012554670079755e-11 8.811994566085224e-11 8.475766577006311e-11 7.553084243843614e-11
          5.0268137511222197e-11 3.978416718333112e-11 6.277622261080789e-11 4.929102903820765e-11 4.862640099972491e-11 9.641544021790922e-11
          2.3528769752322637e-11 3.009911437863825e-11 3.7025118657655646e-11 1.0569010527187739e-10 1.0161424827168559e-10 9.037998368223392e-11
          1.2050935896443798e-10 1.158255642895506e-10 1.0287609013150845e-10 7.47942364024984e-11 5.836501599552266e-11 8.486754754489298e-11
          6.592355517411678e-11 1.3049415361092245e-10 1.253907390540273e-10 1.1126202141738757e-10 1.340220306684386e-10 1.2876853389712583e-10
          1.14218669303111e-10 9.15995864181136e-11 7.094725960800202e-11 9.396779731307529e-11 7.270958251272615e-11 4.363671963361225e-11
          4.9080099660638187e-11 5.265464590748578e-11 5.390145643213963e-11
        </DataArray>
        <DataArray type="Float64" Name="gradient_matprop_error" format="ascii" RangeMin="0" RangeMax="0">
          0 0 0 0 0 0
          0 0 0 0 0 0
          0 0 0 0 0 0
          0 0 0 0 0 0
          0 0 0 0 0 0
          0 0 0 0 0 0
          0 0 0 0 0 0
          0 0 0 0 0 0
          0 0 0 0 0 0
          0 0 0 0 0 0
          0 0 0 0 0 0
          0 0 0 0 0 0
          0 0 0 0 0 0
          0 0 0 0 0 0
          0 0 0 0 0 0
          0 0 0 0 0 0
          0 0 0 0 0 0
          0 0 0 0 0 0
          0 0 0 0 0 0
          0 0 0 0 0 0
          0 0 0 0 0 0
          0 0 0 0 0 0
          0 0 0 0 0 0
          0 0 0 0 0 0
          0 0 0 0 0 0
          0 0 0 0 0 0
          0 0 0 0 0 0
          0 0 0 0 0 0
          0 0 0 0 0 0
          0 0 0 0 0 0
          0 0 0 0 0 0
          0 0 0 0 0 0
          0 0 0 0 0 0
          0 0 0 0 0 0
          0 0 0 0 0 0
          0 0 0 0 0 0
          0 0 0 0 0 0
          0 0 0 0 0 0
          0 0 0 0 0 0
          0 0 0 0 0 0
          0 0 0 0 0 0
          0 0 0 0 0 0
          0 0 0 0 0 0
          0 0 0 0 0 0
          0 0 0 0 0 0
          0 0 0 0 0 0
          0 0 0 0 0 0
          0 0 0 0 0 0
          0 0 0 0 0 0
          0 0 0 0 0 0
          0 0 0 0 0 0
          0 0 0 0 0 0
          0 0 0 0 0 0
          0 0 0 0 0 0
          0 0 0 0 0 0
          0 0 0 0 0 0
          0 0 0 0 0 0
          0 0 0 0 0 0
          0 0 0 0 0 0
          0 0 0 0 0 0
          0 0 0 0 0 0
          0 0 0 0 0 0
          0 0 0 0 0 0
          0 0 0 0 0 0
          0 0 0 0 0 0
          0 0 0 0 0 0
          0 0 0 0 0 0
          0 0 0 0 0 0
          0 0 0 0 0 0
          0 0 0 0 0 0
          0 0 0 0 0 0
          0 0 0 0 0 0
          0 0 0 0 0 0
          0 0 0 0 0 0
          0 0 0 0 0 0
          0 0 0 0 0 0
          0 0 0 0 0 0
          0 0 0 0 0 0
          0 0 0 0 0 0
          0 0 0 0 0 0
          0 0 0 0 0 0
          0 0 0 0 0 0
          0 0 0 0 0 0
          0 0 0 0 0 0
          0 0 0 0 0 0
          0 0 0 0 0 0
          0 0 0 0 0 0
          0 0 0 0 0 0
          0 0 0 0 0 0
          0 0 0 0 0 0
          0 0 0 0 0 0
          0 0 0 0 0 0
          0 0 0 0 0 0
          0 0 0 0 0 0
          0 0 0 0 0 0
          0 0 0 0 0 0
          0 0 0 0 0 0
          0 0 0 0 0 0
          0 0 0 0 0 0
          0 0 0 0 0 0
          0 0 0 0 0 0
          0 0 0 0 0 0
          0 0 0 0 0 0
          0 0 0 0 0 0
          0 0 0 0 0 0
          0 0 0 0 0 0
          0 0 0 0 0 0
          0 0 0 0 0 0
          0 0 0 0 0 0
          0 0 0 0 0 0
          0 0 0 0 0 0
          0 0 0 0 0 0
          0 0 0 0 0 0
          0 0 0 0 0 0
          0 0 0
        </DataArray>
        <DataArray type="Float64" Name="initial_marker" format="ascii" RangeMin="0" RangeMax="2">
          0 0 0 0 0 2
          0 0 0 0 0 0
          0 0 0 0 0 0
          0 0 0 0 0 0
          0 0 0 0 0 0
          0 0 0 0 0 0
          0 0 0 0 0 0.5
          0.25 2 0 0 0 0
          0 0 0 0 0 0
          0 0 0 0 1 0.5
          0 0 0 2 1 0
          0 0 0 0 0 0
          0 0 0 0 0 0
          0 0 0 0 0 0
          0 0 0 0 0 0
          0 0 0 0 0 0
          0 0 0 0 0 0
          0 0 0 0 0 0.5
          2 2 2 2 2 1.5
          2 0.25 2 1.75 0 0
          0.5 0.5 0 0 0 0
          0 0 1.5 1.5 0 0.75
          0 0 0 0 0 0
          0.5 0.5 0 1 0.75 0
          1.5 0 2 1.25 1 1.5
          0 0 0 0 0 0
          0 0 0 0 0 0
          0 0 2 0 2 0
          0 0 0 0 0 0
          0 0 0 0 0 0
          0 0 0 0 0 0
          0 0 0 0 0 0
          0 0 0 0 0 0
          0 0 0 0 0 0
          0 0 0 0 0 0
          0 0 0 0 0 0
          0 0.5 0.5 0 0 0
          0 0.5 0 1.5 1.5 0.6666666666666666
          1.5 0 0.25 0 0 0
          0 0 1.25 0.6666666666666666 1 2
          2 2 2 2 2 1.5
          1.5 2 1.5 2 2 2
          2 2 2 2 2 1.25
          1.75 1 2 1.75 2 2
          2 2 2 2 2 2
          2 2 2 2 2 2
          2 2 2 2 0.5 1
          0 0.5 0 0.5 0 1.75
          1.3333333333333333 1.3333333333333333 2 2 2 1.75
          1.75 1.3333333333333333 2 2 2 2
          0 0 0.5 0.5 0 0
          0 0 0.5 0 1.5 1.5
          1 1.5 0 0.25 0 0
          0 0 0 1 0.5 0.6666666666666666
          2 2 2 2 2 2
          2 2 2 2 1.75 1.5
          1.25 0.5 2 1.6666666666666667 1.75 0.5
          0.75 0 0 0 0.5 0
          1.25 0.3333333333333333 1 2 2 2
          2 2 2 1 1 1
          1 0 0 0 1 1
          0 1.5 1.5 1 1.5 2
          1.75 2 1.5 0.5 0.75 0
          0 0 0.5 0 1.25 0.5
          1 2 2 2 2 2
          2 2 2 1.3333333333333333 2 1.75
          1.5 1.25 0.5 2 2 1.5
          1.75 1 1.25 0.3333333333333333 0 0.25
          0 0 0 0 0 0.5
          0 0 1.6666666666666667 0.75 0 0.5
          0 1 0 0.6666666666666666 2 2
          1.5 1.25 2 1.3333333333333333 2 2
          1.75 2 2 2 1.75 1.5
          2 2 2 2 2 2
          2 2 2 2 2 2
          2 2 2 2 2 2
          2 2 0 0 0.5 0.25
          0 0 0 0 0 0
          1 0.75 0 0.5 1 1
          0 0 1 0 1 1
          0 1 1.75 1.25 0.5 0.75
          0 1.5 1 1 2 1.5
          1 1 0 1.5 1 1
          0 0 0 0 0 0
          0 0 0 0 0 0
          0 0 0 0 0 0
          0 0 0 0 0 0
          0 0 0 0 0 0
          0 0 0 0 0 0
          0 0 0 0 0 0
          0 0 0 0 0 0
          0.5 0.5 0 0 0 0
          0 1.5 0 0.25 0 0
          0 0 1 1.5 1.5 1.5
          2 2 2 0.5 1 0.6666666666666666
          1.75 2 2 2 2 2
          2 2 2 2 2 2
          2 2 2 2 2 2
          2 2 2 2 2 2
          2 2 2 2 2 2
          2 2 2 2 2 2
          1.3333333333333333 1.75 1.75 2 2 2
          1.3333333333333333 1.75 2 2 2 2
          2 2 2 2 2 2
          2 2 2 2 2 2
          2 2 2 2 2 2
          2 2 2 2 2 2
          2 2 2 2 2 2
          2 2 2 2 2 2
          2 2 2 2 2 2
          1.5 1.75 2 2 2 2
          2 2 2 2 2 2
          2 2 2 2 2 2
          2 2 2 2 2 2
          2 2 2
        </DataArray>