<?xml version="1.0"?>
<VTKFile type="UnstructuredGrid" version="0.1" byte_order="LittleEndian" header_type="UInt32" compressor="vtkZLibDataCompressor">
  <UnstructuredGrid>
    <Piece NumberOfPoints="453" NumberOfCells="204">
      <PointData>
        <DataArray type="Int32" Name="libmesh_node_id" format="ascii" RangeMin="12" RangeMax="3442">
          16 17 18 19 20 21
          22 23 24 25 26 27
          28 29 30 31 32 33
          34 35 36 37 38 39
          48 49 50 51 52 53
          54 55 56 57 58 59
          68 69 70 71 72 73
          74 75 76 77 78 79
          84 85 86 87 88 89
          98 99 100 101 102 103
          104 105 106 107 108 109
          114 115 116 117 118 119
          128 129 130 131 132 133
          134 135 136 137 138 139
          144 145 146 147 148 149
          158 159 160 161 162 163
          174 175 176 191 193 204
          205 206 210 211 212 217
          219 220 221 222 223 229
          230 232 233 235 236 237
          238 240 241 242 243 257
          258 264 265 308 313 318
          319 325 326 327 331 339
          340 341 345 353 374 375
          376 377 378 379 380 381
          382 383 384 385 386 387
          388 389 390 391 392 393
          394 395 396 397 398 399
          400 401 402 403 404 405
          406 407 408 409 410 411
          422 423 424 429 432 433
          434 435 436 437 438 439
          440 441 442 443 444 445
          446 447 448 449 450 451
          454 457 458 460 461 464
          465 467 469 617 618 619
          620 624 629 630 631 634
          687 688 692 731 732 733
          734 735 736 737 738 739
          740 741 742 743 744 745
          746 747 748 749 750 751
          752 755 756 758 759 760
          761 762 764 769 770 774
          777 779 780 781 782 783
          784 785 786 787 788 789
          790 891 897 898 901 909
          915 916 918 1548 1549 1550
          1551 1552 1553 1554 1555 1556
          1557 1558 1559 1560 1561 1562
          1563 1564 1565 1567 1568 1572
          1573 3381 3382 3385 3386 3388
          3389 3433 3435 3437 3438 3440
          3442 12 13 14 15 46
          47 66 67 83 96 97
          113 126 127 143 164 166
          167 165 168 169 157 173
          177 178 179 244 250 246
          251 333 336 335 338 347
          349 354 247 412 413 416
          417 256 419 421 425 426
          427 428 430 431 322 452
          453 455 456 459 350 462
          355 463 466 359 254 468
          612 611 614 613 615 616
          622 621 623 625 626 627
          628 632 633 683 684 685
          686 689 690 691 231 791
          792 793 794 798 799 892
          899 900 893 561 562 565
          902 896 571 905 913 906
          914 911 917 321 552 324
          569 570 572 576 656 644
          657 1569 1566 1570 658 1571
          1574 693 697 695 3383 3384
          3387 3390 259 3434 266 3436
          3439 3441 203
        </DataArray>
        <DataArray type="Float64" Name="bounds" format="ascii" RangeMin="0" RangeMax="0">
          0 0 0 0 0 0
          0 0 0 0 0 0
          0 0 0 0 0 0
          0 0 0 0 0 0
          0 0 0 0 0 0
          0 0 0 0 0 0
          0 0 0 0 0 0
          0 0 0 0 0 0
          0 0 0 0 0 0
          0 0 0 0 0 0
          0 0 0 0 0 0
          0 0 0 0 0 0
          0 0 0 0 0 0
          0 0 0 0 0 0
          0 0 0 0 0 0
          0 0 0 0 0 0
          0 0 0 0 0 0
          0 0 0 0 0 0
          0 0 0 0 0 0
          0 0 0 0 0 0
          0 0 0 0 0 0
          0 0 0 0 0 0
          0 0 0 0 0 0
          0 0 0 0 0 0
          0 0 0 0 0 0
          0 0 0 0 0 0
          0 0 0 0 0 0
          0 0 0 0 0 0
          0 0 0 0 0 0
          0 0 0 0 0 0
          0 0 0 0 0 0
          0 0 0 0 0 0
          0 0 0 0 0 0
          0 0 0 0 0 0
          0 0 0 0 0 0
          0 0 0 0 0 0
          0 0 0 0 0 0
          0 0 0 0 0 0
          0 0 0 0 0 0
          0 0 0 0 0 0
          0 0 0 0 0 0
          0 0 0 0 0 0
          0 0 0 0 0 0
          0 0 0 0 0 0
          0 0 0 0 0 0
          0 0 0 0 0 0
          0 0 0 0 0 0
          0 0 0 0 0 0
          0 0 0 0 0 0
          0 0 0 0 0 0
          0 0 0 0 0 0
          0 0 0 0 0 0
          0 0 0 0 0 0
          0 0 0 0 0 0
          0 0 0 0 0 0
          0 0 0 0 0 0
          0 0 0 0 0 0
          0 0 0 0 0 0
          0 0 0 0 0 0
          0 0 0 0 0 0
          0 0 0 0 0 0
          0 0 0 0 0 0
          0 0 0 0 0 0
          0 0 0 0 0 0
          0 0 0 0 0 0
          0 0 0 0 0 0
          0 0 0 0 0 0
          0 0 0 0 0 0
          0 0 0 0 0 0
          0 0 0 0 0 0
          0 0 0 0 0 0
          0 0 0 0 0 0
          0 0 0 0 0 0
          0 0 0 0 0 0
          0 0 0 0 0 0
          0 0 0
        </DataArray>
        <DataArray type="Float64" Name="gradient_error" format="ascii" RangeMin="4.825611387826927e-12" RangeMax="4.6695440565328546e-7">
          1.3438815023679792e-10 8.157358947551282e-11 3.3845266065654283e-10 2.0651956958704696e-10 7.822269620181328e-11 4.762740872162217e-11
          1.9486976169269403e-10 1.1780597702090898e-10 1.4575920195812107e-11 1.2297988649073431e-11 3.223481012403484e-11 2.538360971896563e-11
          6.03508865726218e-12 6.230245977226904e-12 8.707467533854065e-12 7.930547318152086e-12 6.1488652051997756e-12 6.21940443624169e-12
          6.897718864469763e-12 6.7466585780734916e-12 6.310807495597648e-12 6.321947227755451e-12 6.592901619645711e-12 6.550706759667987e-12
          2.8759028714227727e-11 7.458647851755106e-11 1.703212124143106e-11 4.0742192349123925e-11 1.0020057102334755e-11 1.853240931389642e-11
          6.425403297191628e-12 7.153627102450105e-12 6.289943667283604e-12 6.595598291677219e-12 6.333086959913254e-12 6.508511899690264e-12
          1.3837826844617873e-9 8.596909183445177e-10 7.816360430702777e-10 4.805451124158416e-10 1.1340858265018823e-10 9.311664769643922e-11
          1.8314099643651394e-11 1.599020985046454e-11 5.92323299265603e-12 6.038455522617073e-12 4.825611387826927e-12 5.483970132425112e-12
          3.355991522272479e-10 1.7945418176140545e-10 7.28247127426902e-11 1.3666320057277692e-11 6.153678052578115e-12 6.142328877023299e-12
          5.631743441668546e-9 3.582555441704526e-9 3.119380802991964e-9 1.970004865736297e-9 4.1256040470884123e-10 3.73741000771248e-10
          6.745797562972719e-11 6.4999272865168e-11 1.6771564920970992e-11 1.643409536998031e-11 1.313959330634169e-11 1.4267787613226471e-11
          1.5333674417405055e-9 8.206289284806299e-10 3.349215968336549e-10 6.25405701006088e-11 1.6096625818989626e-11 1.5395981920111252e-11
          1.9161865919400196e-8 7.958879565906952e-9 3.6573270156860093e-9 3.66169462220558e-9 4.858857627228746e-10 8.034738230032324e-10
          7.227313120077981e-11 1.3933851934221567e-10 3.9015371201116424e-11 4.169441920168088e-11 3.662129728900296e-11 3.883355331234296e-11
          8.073929412998092e-9 4.030907632767794e-9 1.1301514829779373e-9 2.0209904780415648e-10 4.437346720224534e-11 4.1045809335682954e-11
          3.8901169737644895e-7 8.036544982427178e-8 1.1653063441587295e-8 1.775712061430691e-8 2.1569058677807267e-9 2.7028608028996897e-9
          8.346461078232026e-9 3.7800187933702425e-9 9.655497756582316e-10 1.0217178442333992e-8 1.3466000071523397e-9 4.7460368396551816e-8
          2.4000426923742066e-9 3.400127835755512e-10 3.992254745869136e-8 5.657006580658376e-8 2.610361732366113e-7 1.8852722213983135e-8
          2.618916201574476e-7 5.3257551639658184e-8 6.479661310219773e-8 4.233044363533691e-7 1.7351962374325277e-8 4.681582722841762e-9
          7.619713860393363e-9 2.0633017356513956e-8 3.0537855809092715e-9 4.411984830049907e-8 8.230516946539379e-9 6.506708449101155e-9
          2.543948811644303e-9 1.3770105783438563e-7 2.6070848943631682e-8 4.792198880843445e-9 3.402180332381685e-10 4.232380193038689e-7
          3.0893494816646395e-7 1.4926720707363024e-7 4.6695440565328546e-7 2.8706218371092037e-7 3.6653806825813226e-7 8.996243293062965e-8
          1.588035339926929e-7 1.6654586106483213e-7 2.1752613280124866e-7 7.668936926796697e-8 2.0632540407635634e-7 4.8825755232478166e-8
          6.543274276371904e-8 5.1252220347661337e-8 7.216793978981132e-8 1.7071882345310002e-8 1.0258924179436208e-9 8.526992415980357e-10
          1.962802280302428e-9 6.245112365780265e-9 2.7996275485078297e-9 2.583072260587735e-9 5.92309834596817e-9 3.1448458158183854e-10
          1.0073647851306493e-9 9.98548005606932e-10 6.795060652524504e-10 2.3665169726676407e-9 5.601084326156075e-9 9.897312260832146e-10
          9.713871058080684e-11 1.1248334203997708e-10 3.316648275468654e-10 3.505123512194121e-10 3.073167035047051e-11 7.569322258236661e-11
          8.719051638667499e-11 1.278279734991473e-10 3.6935987489195885e-10 9.868781019098335e-11 1.3210761157512664e-9 2.9936352124512567e-9
          1.6307251286332348e-9 4.2698243524221e-9 5.935565974703493e-10 6.762579609053868e-10 4.298907367715931e-10 7.865441902172084e-10
          1.6225333852371852e-9 2.8102394932176354e-10 1.9403741415152032e-9 5.546013492392941e-9 7.589593243404244e-10 1.143197643662824e-9
          3.6002518967214143e-9 3.4087382204358604e-9 4.108003092112851e-9 2.504671292875382e-9 3.217224544150307e-9 9.478448693474891e-9
          8.235458936522972e-9 7.353196004712186e-9 6.7369595759403515e-9 1.6847321476135284e-8 1.7168356005144904e-8 3.8212596289388445e-8
          1.5955562236138761e-9 5.996433565559126e-9 2.2916521469283317e-9 2.9404216206917292e-9 4.749053659910522e-9 1.5424361127999809e-9
          2.7599752434349462e-8 5.957787110264159e-8 1.0397310907504376e-8 3.5891910944551267e-9 7.89761704081914e-10 8.209784456357172e-10
          1.5515032986683532e-10 8.521951871895204e-10 2.501906356257441e-9 9.684027266160162e-10 2.1265931547651927e-9 6.120220492558215e-10
          5.041910323305063e-10 3.284783582914369e-9 3.963600154051911e-10 6.629925101368762e-8 1.092086229188711e-7 1.3775460241383144e-7
          8.004706568605799e-8 1.2903854354125448e-7 4.601837547891571e-8 5.248198096668367e-8 3.0447734869871136e-8 5.894558645445162e-8
          1.5536521835716142e-8 1.5956482895822312e-8 1.637644395592848e-8 1.2750007615299694e-8 8.289452880119681e-9 1.7967256952726205e-8
          9.091347349520333e-8 3.72232105428067e-8 2.513241345281134e-8 5.7253488814037315e-8 3.82889814493967e-9 1.3041616362815994e-8
          2.3593504132871306e-8 6.9882637379966845e-9 1.2253389599165768e-8 3.248375257959433e-8 7.648483496595639e-8 1.9069931911525544e-9
          1.0940060780760416e-8 2.526069111718354e-8 5.7979241421191984e-8 1.40716280332747e-7 1.9973128370368277e-8 1.3989981314231084e-8
          1.1573387686576788e-8 8.884761810613934e-8 5.877204654008669e-8 9.610319521445627e-9 6.250989858451847e-8 3.840578154851709e-8
          9.156794058922491e-9 2.8696474974034056e-8 1.4301664512515728e-8 5.270351681864936e-8 1.0479732360993671e-7 8.8744903123054e-9
          1.568911304012241e-7 9.110613674484078e-9 6.75987844489312e-9 3.708694101761554e-8 2.3042926170374357e-8 4.4091432153021615e-9
          8.998911323133173e-9 3.07312392152871e-8 6.816876576802833e-8 3.6260476742608608e-9 7.261229825726378e-9 1.0560629232076958e-7
          1.0896411977191894e-8 1.1160633494344713e-7 9.647451915549255e-8 9.056869056812004e-8 7.335867568576807e-8 1.8638844885633848e-7
          1.0389503766325609e-7 1.642702273331517e-7 1.9117329013335367e-7 4.5996333123737015e-8 5.760355524051849e-8 7.673086469842753e-8
          8.612768238419407e-8 3.0922246165112936e-8 6.070566812984761e-8 2.993817685668546e-8 5.018054382512398e-8 6.090210500786243e-8
          3.5503712871665286e-8 2.719510769782331e-8 4.8591982293710193e-8 2.6934834072376285e-8 4.310667534038615e-8 1.742183801447184e-8
          3.0320818872679674e-8 2.9093194644414285e-8 2.172349160918027e-9 2.229121277659593e-9 1.3610599193850924e-9 8.883752605985071e-10
          1.3979477464774448e-9 3.1392148944848664e-8 1.9581710184757675e-8 1.0805243095108821e-7 6.955341692522179e-8 7.771271424666682e-9
          3.1054402899355354e-8 1.4267261167984387e-8 7.991428321642992e-8 3.1474864182290336e-9 2.3056689960710032e-8 1.4556130526487547e-7
          4.296589350319104e-8 1.3668547531005092e-10 8.993275006917506e-11 3.4361335922704686e-10 2.2939240163416397e-10 4.3180024828299226e-11
          1.1517144404128105e-10 1.389796508867451e-9 9.554065712301834e-10 5.210166335929157e-10 5.614921455754007e-9 3.997516904956925e-9
          2.3801123541598424e-9 1.344322172069768e-8 9.112809046667785e-9 1.0221875612208237e-8 5.888896257693652e-11 4.7998517688897966e-11
          5.0868644605308755e-11 1.8231453357494105e-10 6.339655967417755e-11 5.738694775322707e-11 1.4434597384219882e-7 1.007288290952165e-8
          1.6896666648452018e-10 5.47595113661364e-11 5.137733583227659e-11 8.75806161110443e-10 1.0392694251382092e-9 9.887046725392532e-10
          7.582052065420634e-10 5.1223984763175896e-8 5.0174997370453665e-8 1.9112178042431703e-7 1.3099194657726566e-7 1.5108676715220713e-8
          3.502051138044302e-8 1.5418474958679786e-8 1.474260634733402e-10 2.361061911664801e-10 2.1720634703305927e-10 9.538226907692298e-11
          7.578916682911778e-11 2.4882314812811834e-10 1.9830650289963845e-10 5.6196064581312575e-11 1.8567344089942704e-8 1.2483584129815369e-8
          1.0981016411645131e-8 1.3401401513232838e-8 8.576271122702323e-9 7.964733563707255e-9 3.746158824359766e-8 2.7815211115645727e-9
          2.6417137339110066e-9 3.992145536758695e-10 4.182640591354143e-10 4.3731356459495904e-10 5.653739616301151e-10 5.350957638464752e-10
          9.584354590969499e-10 7.281678222986278e-10 1.7135837042935223e-10 6.934845777652719e-9 1.524155687489361e-9 9.212398807507806e-10
          1.6656326988315422e-7 1.449808925274498e-7 3.029631110123782e-7 2.833548368528801e-7 1.45939692356564e-7 2.5238854653399934e-7
          3.632887723530302e-7 3.467367455404577e-7 3.1550681283735075e-7 1.508318007790884e-7 2.0886823751803196e-7 1.0808919063351199e-7
          1.55459957643192e-7 2.669046742569755e-7 2.028307246528721e-7 6.74531772371579e-8 1.0053143458927746e-7 1.887166813644665e-8
          4.007715896572064e-8 7.632317378470135e-9 1.3360969194139703e-7 5.414214416510032e-8 5.380013051463865e-8 3.996766121497056e-11
          5.072522074209315e-11 5.766668511431585e-11 7.818026903649741e-11 6.148278026921576e-11 9.869385295867896e-11 2.647026997117072e-7
          2.577302728833751e-7 2.2617513324098662e-7 2.3461497867096234e-7 6.894292357125667e-8 2.468017106890929e-7 2.132549556798199e-7
          1.489505895851646e-7 1.7346925834032022e-7 1.3280791202928842e-7 2.152555602392178e-7 1.8253726509903456e-7 3.1711413093583446e-7
          3.1339663253281125e-7 3.68670826276777e-7 3.6918413114067135e-7 4.502864902799324e-7 2.9919895971261693e-7 2.1722791672537202e-7
          4.267643412040639e-8 1.1349515064666533e-7 1.0968940303292588e-7 1.9744597194501296e-7 1.791106146719752e-9 1.3249452157341332e-8
          1.9265489759672606e-9 2.0606607898065487e-9 3.259691096562339e-9 3.3797157429075907e-10 4.946559958468358e-10 5.232610198841861e-10
          3.523558422767665e-10 2.28919133969409e-9 2.4198804812111188e-9 5.933382445438615e-10 1.2446173064907862e-8 7.916545962778492e-8
          5.6386507320829146e-8 3.3607555013873373e-8 1.9463325489704507e-7 1.2381713211210752e-8 2.0105575628052835e-7 4.719236625186605e-8
          1.4388365035517332e-8 8.200301929252136e-8 2.5169361172019717e-8
        </DataArray>
        <DataArray type="Float64" Name="gradient_matprop_error" format="ascii" RangeMin="0" RangeMax="0">
          0 0 0 0 0 0
          0 0 0 0 0 0
          0 0 0 0 0 0
          0 0 0 0 0 0
          0 0 0 0 0 0
          0 0 0 0 0 0
          0 0 0 0 0 0
          0 0 0 0 0 0
          0 0 0 0 0 0
          0 0 0 0 0 0
          0 0 0 0 0 0
          0 0 0 0 0 0
          0 0 0 0 0 0
          0 0 0 0 0 0
          0 0 0 0 0 0
          0 0 0 0 0 0
          0 0 0 0 0 0
          0 0 0 0 0 0
          0 0 0 0 0 0
          0 0 0 0 0 0
          0 0 0 0 0 0
          0 0 0 0 0 0
          0 0 0 0 0 0
          0 0 0 0 0 0
          0 0 0 0 0 0
          0 0 0 0 0 0
          0 0 0 0 0 0
          0 0 0 0 0 0
          0 0 0 0 0 0
          0 0 0 0 0 0
          0 0 0 0 0 0
          0 0 0 0 0 0
          0 0 0 0 0 0
          0 0 0 0 0 0
          0 0 0 0 0 0
          0 0 0 0 0 0
          0 0 0 0 0 0
          0 0 0 0 0 0
          0 0 0 0 0 0
          0 0 0 0 0 0
          0 0 0 0 0 0
          0 0 0 0 0 0
          0 0 0 0 0 0
          0 0 0 0 0 0
          0 0 0 0 0 0
          0 0 0 0 0 0
          0 0 0 0 0 0
          0 0 0 0 0 0
          0 0 0 0 0 0
          0 0 0 0 0 0
          0 0 0 0 0 0
          0 0 0 0 0 0
          0 0 0 0 0 0
          0 0 0 0 0 0
          0 0 0 0 0 0
          0 0 0 0 0 0
          0 0 0 0 0 0
          0 0 0 0 0 0
          0 0 0 0 0 0
          0 0 0 0 0 0
          0 0 0 0 0 0
          0 0 0 0 0 0
          0 0 0 0 0 0
          0 0 0 0 0 0
          0 0 0 0 0 0
          0 0 0 0 0 0
          0 0 0 0 0 0
          0 0 0 0 0 0
          0 0 0 0 0 0
          0 0 0 0 0 0
          0 0 0 0 0 0
          0 0 0 0 0 0
          0 0 0 0 0 0
          0 0 0 0 0 0
          0 0 0 0 0 0
          0 0 0
        </DataArray>
        <DataArray type="Float64" Name="initial_marker" format="ascii" RangeMin="0" RangeMax="1">
          0 0 0 0 0 0
          0 0 0 0 0 0
          0 0 0 0 0 0
          0 0 0 0 0 0
          0 0 0 0 0 0
          0 0 0 0 0 0
          0 0 0 0 0 0
          0 0 0 0 0 0
          0 0 0 0 0 0
          0 0 0 0 0 0
          0 0 0 0 0 0
          0 0 0 0 0 0
          0 0 0 0 0 0
          0 0 0 0 0 0
          0 0 0 0 0 0
          0 0 0 0 0 0
          0 0 0 0 0 0
          0 0 0 0 0 0
          0 0 0 0 0 0
          0 0 0 0 0 0
          0 0 0 0 0 0
          0 0 0 0 0 0
          0 0 0 0 0 0
          0 0 0 0 0 0
          0 0 0 0 0 0
          0 0 0 0 0 0
          0 0 0 0 0 0
          0 0 0 0 0 0
          0 0 0 0 0 0
          0 0 0 0 0 0
          0 0 0 0 0 0
          0 0 0 0 0 0
          0 0 0 0 0 0
          0 0 0 0 0 0
          0 0 0 0 0 0
          0 0 0 0 0 0
          0 0 0 0 0 0
          0 0 0 0 0 0
          0 0 0 0 0 0
          0 0 0 0 0 0
          0 0 0 0 0 0
          0 0 0 0 0 0
          0 0 0 0 0 0
          0 0 0 0 0 0
          0 0 0 0 0 0
          0 0 0 0 0 0
          0 0 0 0 0 0
          0 0 0 0 0 0
          0 0 0 0 0 0
          0 0 0 0 0 0
          0 0 0 0 0 0
          0 0 0 0 0 0
          0 0 0 0 0 0
          0 0 0 0 0 0
          0 0 0 0 0 0
          0 0 0 0 0 0
          0 0 0 0 0 0
          0 0 0 0 0.25 0
          0.5 0 0 0 0 0
          0 0 0 0 0 0
          0 0 0 0 0 0
          0 0 0 0 0 0
          0 0 0 0 0 0
          0 0 0 0.25 0 0.5
          0 0.5 1 0 0.5 0
          0.5 1 1 0 0.5 0
          0.25 0 1 0.5 0 0
          0 0 0 0 0 0
          0 0 0 0 0.5 0.25
          0 0 0 0 0 0
          0 0 0 0.5 0.25 0
          0 0 0 0 0 0
          0 0 0 0 0 0
          0 0 0 0 0 0
          0 0 0 0 0 0
          0 0 0
        </DataArray>
        <DataArray type="Float64" Name="markers_norefine" format="ascii" RangeMin="0" RangeMax="0">
          0 0 0 0 0 0
          0 0 0 0 0 0
          0 0 0 0 0 0
          0 0 0 0 0 0
          0 0 0 0 0 0
          0 0 0 0 0 0
          0 0 0 0 0 0
          0 0 0 0 0 0
          0 0 0 0 0 0
          0 0 0 0 0 0
          0 0 0 0 0 0
          0 0 0 0 0 0
          0 0 0 0 0 0
          0 0 0 0 0 0
          0 0 0 0 0 0
          0 0 0 0 0 0
          0 0 0 0 0 0
          0 0 0 0 0 0
          0 0 0 0 0 0
          0 0 0 0 0 0
          0 0 0 0 0 0
          0 0 0 0 0 0
          0 0 0 0 0 0
          0 0 0 0 0 0
          0 0 0 0 0 0
          0 0 0 0 0 0
          0 0 0 0 0 0
          0 0 0 0 0 0
          0 0 0 0 0 0
          0 0 0 0 0 0
          0 0 0 0 0 0
          0 0 0 0 0 0
          0 0 0 0 0 0
          0 0 0 0 0 0
          0 0 0 0 0 0
          0 0 0 0 0 0
          0 0 0 0 0 0
          0 0 0 0 0 0
          0 0 0 0 0 0
          0 0 0 0 0 0
          0 0 0 0 0 0
          0 0 0 0 0 0
          0 0 0 0 0 0
          0 0 0 0 0 0
          0 0 0 0 0 0
          0 0 0 0 0 0
          0 0 0 0 0 0
          0 0 0 0 0 0
          0 0 0 0 0 0
          0 0 0 0 0 0
          0 0 0 0 0 0
          0 0 0 0 0 0
          0 0 0 0 0 0
          0 0 0 0 0 0
          0 0 0 0 0 0
          0 0 0 0 0 0
          0 0 0 0 0 0
          0 0 0 0 0 0
          0 0 0 0 0 0
          0 0 0 0 0 0
          0 0 0 0 0 0
          0 0 0 0 0 0
          0 0 0 0 0 0
          0 0 0 0 0 0
          0 0 0 0 0 0
          0 0 0 0 0 0
          0 0 0 0 0 0
          0 0 0 0 0 0
          0 0 0 0 0 0
          0 0 0 0 0 0
          0 0 0 0 0 0
          0 0 0 0 0 0
          0 0 0 0 0 0
          0 0 0 0 0 0
          0 0 0 0 0 0
          0 0 0
        </DataArray>
        <DataArray type="Float64" Name="markers_mustrefine" format="ascii" RangeMin="0" RangeMax="1">
          0 0 0 0 0 0
          0 0 0 0 0 0
          0 0 0 0 0 0
          0 0 0 0 0 0
          0 0 0 0 0 0
          0 0 0 0 0 0
          0 0 0 0 0 0
          0 0 0 0 0 0
          0 0 0 0 0 0
          0 0 0 0 0 0
          0 0 0 0 0 0
          0 0 0 0 0 0
          0 0 0 0 0 0
          0 0 0 0 0 0
          0 0 0 0 0 0
          0 0 0 0 0 0
          0 0 0 0 0 0
          0 0 0 0 0 0
          0 0 0 0 0 0
          0 0 0 0 0 0
          0 0 0 0 0 0
          0 0 0 0 0 0
          0 0 0 0 0 0
          0 0 0 0 0 0
          0 0 0 0 0 0
          0 0 0 0 0 0
          0 0 0 0 0 0
          0 0 0 0 0 0
          0 0 0 0 0 0
          0 0 0 0 0 0
          0 0 0 0 0 0
          0 0 0 0 0 0
          0 0 0 0 0 0
          0 0 0 0 0 0
          0 0 0 0 0 0
          0 0 0 0 0 0
          0 0 0 0 0 0
          0 0 0 0 0 0
          0 0 0 0 0 0
          0 0 0 0 0 0
          0 0 0 0 0 0
          0 0 0 0 0 0
          0 0 0 0 0 0
          0 0 0 0 0 0
          0 0 0 0 0 0
          0 0 0 0 0 0
          0 0 0 0 0 0
          0 0 0 0 0 0
          0 0 0 0 0 0
          0 0 0 0 0 0
          0 0 0 0 0 0
          0 0 0 0 0 0
          0 0 0 0 0 0
          0 0 0 0 0 0
          0 0 0 0 0 0
          0 0 0 0 0 0
          0 0 0 0 0 0
          0 0 0 0 0.25 0
          0.5 0 0 0 0 0
          0 0 0 0 0 0
          0 0 0 0 0 0
          0 0 0 0 0 0
          0 0 0 0 0 0
          0 0 0 0.25 0 0.5
          0 0.5 1 0 0.5 0
          0.5 1 1 0 0.5 0
          0.25 0 1 0.5 0 0
          0 0 0 0 0 0
          0 0 0 0 0.5 0.25
          0 0 0 0 0 0
          0 0 0 0.5 0.25 0
          0 0 0 0 0 0
          0 0 0 0 0 0
          0 0 0 0 0 0
          0 0 0 0 0 0
          0 0 0
        </DataArray>
        <DataArray type="Float64" Name="gradient_marker" format="ascii" RangeMin="0" RangeMax="1">
          1 1 1 1 1 1
          1 1 1 1 1 1
          1 1 1 1 1 1
          1 1 1 1 1 1
          1 1 1 1 1 1
          1 1 1 1 1 1
          1 1 1 1 1 1
          1 1 1 1 1 1
          1 1 1 1 1 1
          1 1 1 1 1 1
          1 1 1 1 1 1
          1 1 1 1 1 1
          1 1 1 1 1 1
          1 1 1 1 1 1
          1 1 1 1 1 1
          1 1 1 1 1 1
          1 1 1 1 1 1
          1 1 1 1 1 1
          1 1 1 1 1 1
          1 0.75 1 1 1 1
          1 1 0.5 1 1 1
          1 1 1 1 1 0.75
          0.75 0.8333333333333334 0.875 0.625 1 0.8333333333333334
          0.625 0.75 0.75 1 1 1
          1 1 1 1 1 1
          1 1 1 1 1 1
          1 1 1 1 1 1
          1 1 1 1 1 1
          1 1 1 1 1 1
          1 1 1 1 1 1
          1 1 1 1 1 1
          1 1 1 1 1 1
          1 1 1 1 1 1
          1 1 1 1 1 1
          1 1 1 1 1 1
          1 1 1 0 0.5 0.75
          0.25 1 0 0 0 0
          0 0 0 1 1 1
          1 1 1 1 1 1
          1 1 1 1 1 1
          1 1 1 1 1 1
          1 1 1 1 1 1
          1 1 1 1 1 1
          1 1 1 1 1 1
          1 1 1 1 1 1
          1 0.5 0 0 0 1
          0.5 1 1 0 0 0.25
          0.25 0 0.25 0 0 0
          0 0 0.125 0 0 0
          0 0 1 1 1 1
          1 1 1 1 1 1
          1 1 1 1 1 1
          1 1 1 1 1 1
          1 1 1 1 1 1
          1 1 1 1 1 1
          1 1 1 1 1 1
          1 1 1 1 1 1
          1 0.625 0.75 0.625 0.625 0.875
          0.25 0.875 1 1 1 1
          1 1 1 1 1 1
          1 1 1 1 0.5 1
          1 1 1 1 1 1
          1 1 1 0.75 1 1
          0.625 0.375 0.875 0.75 0.3333333333333333 0.625
          1 1 0.75 0.5 0.5 0.5
          0.5 0.5 0.5 0.25 0.375 0.5
          0.375 0.5 0.5 0.5 0.5 1
          1 1 1 1 1 0.75
          0.5 0.5 0.75 0 0.5 0.5
          0.5 0.6666666666666666 0.5 0.8333333333333334 0.75 1
          1 1 1 1 0.875 0.75
          0 0.375 0.3333333333333333 0.625 1 0.5
          1 1 1 1 1 1
          1 1 1 1 1 1
          1 1 1 1 1 1
          1 1 1
        </DataArray>
        <DataArray type="Float64" Name="gradient_matprop_marker" format="ascii" RangeMin="0" RangeMax="0">
          0 0 0 0 0 0
          0 0 0 0 0 0
          0 0 0 0 0 0
          0 0 0 0 0 0
          0 0 0 0 0 0
          0 0 0 0 0 0
          0 0 0 0 0 0
          0 0 0 0 0 0
          0 0 0 0 0 0
          0 0 0 0 0 0
          0 0 0 0 0 0
          0 0 0 0 0 0
          0 0 0 0 0 0
          0 0 0 0 0 0
          0 0 0 0 0 0
          0 0 0 0 0 0
          0 0 0 0 0 0
          0 0 0 0 0 0
          0 0 0 0 0 0
          0 0 0 0 0 0
          0 0 0 0 0 0
          0 0 0 0 0 0
          0 0 0 0 0 0
          0 0 0 0 0 0
          0 0 0 0 0 0
          0 0 0 0 0 0
          0 0 0 0 0 0
          0 0 0 0 0 0
          0 0 0 0 0 0
          0 0 0 0 0 0
          0 0 0 0 0 0
          0 0 0 0 0 0
          0 0 0 0 0 0
          0 0 0 0 0 0
          0 0 0 0 0 0
          0 0 0 0 0 0
          0 0 0 0 0 0
          0 0 0 0 0 0
          0 0 0 0 0 0
          0 0 0 0 0 0
          0 0 0 0 0 0
          0 0 0 0 0 0
          0 0 0 0 0 0
          0 0 0 0 0 0
          0 0 0 0 0 0
          0 0 0 0 0 0
          0 0 0 0 0 0
          0 0 0 0 0 0
          0 0 0 0 0 0
          0 0 0 0 0 0
          0 0 0 0 0 0
          0 0 0 0 0 0
          0 0 0 0 0 0
          0 0 0 0 0 0
          0 0 0 0 0 0
          0 0 0 0 0 0
          0 0 0 0 0 0
          0 0 0 0 0 0
          0 0 0 0 0 0
          0 0 0 0 0 0
          0 0 0 0 0 0
          0 0 0 0 0 0
          0 0 0 0 0 0
          0 0 0 0 0 0
          0 0 0 0 0 0
          0 0 0 0 0 0
          0 0 0 0 0 0
          0 0 0 0 0 0
          0 0 0 0 0 0
          0 0 0 0 0 0
          0 0 0 0 0 0
          0 0 0 0 0 0
          0 0 0 0 0 0
          0 0 0 0 0 0
          0 0 0 0 0 0
          0 0 0
        </DataArray>
        <DataArray type="Float64" Name="combo" format="ascii" RangeMin="0" RangeMax="1">
          1 1 1 1 1 1
          1 1 1 1 1 1
          1 1 1 1 1 1
          1 1 1 1 1 1
          1 1 1 1 1 1
          1 1 1 1 1 1
          1 1 1 1 1 1
          1 1 1 1 1 1
          1 1 1 1 1 1
          1 1 1 1 1 1
          1 1 1 1 1 1
          1 1 1 1 1 1
          1 1 1 1 1 1
          1 1 1 1 1 1
          1 1 1 1 1 1
          1 1 1 1 1 1
          1 1 1 1 1 1
          1 1 1 1 1 1
          1 1 1 1 1 1
          1 0.75 1 1 1 1
          1 1 0.5 1 1 1
          1 1 1 1 1 0.75
          0.75 0.8333333333333334 0.875 0.625 1 0.8333333333333334
          0.625 0.75 0.75 1 1 1
          1 1 1 1 1 1
          1 1 1 1 1 1
          1 1 1 1 1 1
          1 1 1 1 1 1
          1 1 1 1 1 1
          1 1 1 1 1 1
          1 1 1 1 1 1
          1 1 1 1 1 1
          1 1 1 1 1 1
          1 1 1 1 1 1
          1 1 1 1 1 1
          1 1 1 0 0.5 0.75
          0.25 1 0 0 0 0
          0 0 0 1 1 1
          1 1 1 1 1 1
          1 1 1 1 1 1
          1 1 1 1 1 1
          1 1 1 1 1 1
          1 1 1 1 1 1
          1 1 1 1 1 1
          1 1 1 1 1 1
          1 0.5 0 0 0 1
          0.5 1 1 0 0 0.25
          0.25 0 0.25 0 0 0
          0 0 0.125 0 0 0
          0 0 1 1 1 1
          1 1 1 1 1 1
          1 1 1 1 1 1
          1 1 1 1 1 1
          1 1 1 1 1 1
          1 1 1 1 1 1
          1 1 1 1 1 1
          1 1 1 1 1 1
          1 0.625 0.75 0.625 0.625 0.875
          0.25 0.875 1 1 1 1
          1 1 1 1 1 1
          1 1 1 1 0.5 1
          1 1 1 1 1 1
          1 1 1 0.75 1 1
          0.625 0.375 0.875 0.75 0.3333333333333333 0.625
          1 1 0.75 0.5 0.5 0.5
          0.5 0.5 0.5 0.25 0.375 0.5
          0.375 0.5 0.5 0.5 0.5 1
          1 1 1 1 1 0.75
          0.5 0.5 0.75 0 0.5 0.5
          0.5 0.6666666666666666 0.5 0.8333333333333334 0.75 1
          1 1 1 1 0.875 0.75
          0 0.375 0.3333333333333333 0.625 1 0.5
          1 1 1 1 1 1
          1 1 1 1 1 1
          1 1 1 1 1 1
          1 1 1
        </DataArray>
        <DataArray type="Float64" Name="dHdT" format="ascii" RangeMin="25.791022281110656" RangeMax="29.626033478464652">
          25.811458771414905 25.811456067917184 25.811446054297477 25.81144926687664 25.81145544522319 25.811454263637046
          25.81144997243939 25.811451442037605 25.81145244695 25.811452665848265 25.811453501247897 25.811453352836992
          25.811452715200048 25.81145274571233 25.811453404892596 25.811453381924707 25.81145275734737 25.811452763818288
          25.81145339524458 25.811453387560665 25.81145277282383 25.811452773835214 25.81145338440112 25.811453381230713
          25.81145336441947 25.81145247945581 25.811453082050896 25.81145291163581 25.811452884746537 25.811453204426087
          25.81145277622462 25.811453358956825 25.811452770289208 25.811453379876756 25.8114527748466 25.811453378060307
          25.81148735772324 25.811473216795996 25.811470082169176 25.811463483619438 25.81145458798177 25.8114550067373
          25.81145447347727 25.811454570304253 25.811454392339158 25.811454463474725 25.811454414574314 25.811454473238435
          25.81145907586874 25.811456885069703 25.811455425492834 25.81145466713123 25.81145453461029 25.811454531902555
          25.811314266463576 25.811374258504895 25.811387097498102 25.811416016966817 25.811451957622538 25.811451946238684