<?xml version="1.0"?>
<VTKFile type="UnstructuredGrid" version="0.1" byte_order="LittleEndian" header_type="UInt32" compressor="vtkZLibDataCompressor">
  <UnstructuredGrid>
    <Piece NumberOfPoints="373" NumberOfCells="207">
      <PointData>
        <DataArray type="Int32" Name="libmesh_node_id" format="ascii" RangeMin="253" RangeMax="2779">
          253 357 359 665 671 673
          679 680 691 1238 1272 1273
          1275 1278 1288 1290 1292 1300
          1301 1302 1310 1311 1334 1335
          1336 1337 1338 1339 1340 1341
          1342 1343 1344 1345 1346 1350
          1351 1354 1355 1356 1358 1359
          1360 1369 1370 1371 1373 1377
          1379 1381 2137 2143 2225 2226
          2228 2231 2241 2243 2245 2259
          2260 2262 2275 2277 2279 2325
          2326 2327 2328 2329 2330 2331
          2332 2333 2336 2338 2339 2340
          2341 2342 2344 2345 2346 2347
          2351 2352 2394 2395 2396 2397
          2404 2405 2524 2525 2526 2527
          2528 2529 2530 2531 2532 2533
          2534 2535 2536 2537 2538 2539
          2540 2541 2542 2543 2544 2545
          2546 2547 2548 2549 2550 2551
          2552 2553 2554 2555 2556 2557
          2558 2559 2560 2561 2562 2563
          2564 2565 2566 2567 2568 2569
          2570 2571 2572 2573 2574 2575
          2576 2577 2578 2579 2580 2581
          2582 2583 2584 2585 2586 2587
          2588 2589 2590 2591 2592 2593
          2594 2595 2596 2597 2598 2599
          2600 2601 2602 2603 2604 2605
          2608 2609 2610 2626 2627 2628
          2629 2630 2631 2632 2633 2634
          2635 2636 2637 2638 2639 2642
          2643 2644 2660 2661 2662 2663
          2664 2665 2666 2667 2668 2669
          2670 2671 2672 2673 2675 2677
          2679 2680 2681 2682 2683 2684
          2685 2686 2687 2688 2689 2690
          2691 2692 2693 2695 2697 2699
          2756 2757 2758 2759 2760 2761
          2764 2765 2767 2769 2770 2771
          2772 2773 2775 2777 2779 686
          694 698 689 700 702 1232
          1294 1295 1233 1298 1235 1303
          666 1321 1258 1323 668 1372
          1368 1376 1374 1375 1378 1380
          2311 2312 2304 1296 2313 2334
          2335 2314 1297 2337 2322 2317
          2323 2348 2324 2349 2343 1299
          2350 2353 674 2388 2389 2390
          2391 2392 2393 2398 2399 2402
          2407 2408 2412 2409 2413 2410
          2414 2415 2419 2606 2611 2607
          1347 2612 2613 2614 2616 2617
          2618 2619 2623 2640 2641 2645
          1352 2646 2647 2648 2650 2651
          2652 2653 2657 2457 2452 2458
          2459 1322 2467 2462 2468 2674
          2469 677 2676 2678 1357 2694
          2696 2698 682 2494 2700 2496
          2702 2704 2706 2511 2714 2718
          2728 2730 2732 2734 2742 2746
          2762 2763 2766 2768 2774 2776
          2778
        </DataArray>
        <DataArray type="Float64" Name="bounds" format="ascii" RangeMin="0" RangeMax="0">
          0 0 0 0 0 0
          0 0 0 0 0 0
          0 0 0 0 0 0
          0 0 0 0 0 0
          0 0 0 0 0 0
          0 0 0 0 0 0
          0 0 0 0 0 0
          0 0 0 0 0 0
          0 0 0 0 0 0
          0 0 0 0 0 0
          0 0 0 0 0 0
          0 0 0 0 0 0
          0 0 0 0 0 0
          0 0 0 0 0 0
          0 0 0 0 0 0
          0 0 0 0 0 0
          0 0 0 0 0 0
          0 0 0 0 0 0
          0 0 0 0 0 0
          0 0 0 0 0 0
          0 0 0 0 0 0
          0 0 0 0 0 0
          0 0 0 0 0 0
          0 0 0 0 0 0
          0 0 0 0 0 0
          0 0 0 0 0 0
          0 0 0 0 0 0
          0 0 0 0 0 0
          0 0 0 0 0 0
          0 0 0 0 0 0
          0 0 0 0 0 0
          0 0 0 0 0 0
          0 0 0 0 0 0
          0 0 0 0 0 0
          0 0 0 0 0 0
          0 0 0 0 0 0
          0 0 0 0 0 0
          0 0 0 0 0 0
          0 0 0 0 0 0
          0 0 0 0 0 0
          0 0 0 0 0 0
          0 0 0 0 0 0
          0 0 0 0 0 0
          0 0 0 0 0 0
          0 0 0 0 0 0
          0 0 0 0 0 0
          0 0 0 0 0 0
          0 0 0 0 0 0
          0 0 0 0 0 0
          0 0 0 0 0 0
          0 0 0 0 0 0
          0 0 0 0 0 0
          0 0 0 0 0 0
          0 0 0 0 0 0
          0 0 0 0 0 0
          0 0 0 0 0 0
          0 0 0 0 0 0
          0 0 0 0 0 0
          0 0 0 0 0 0
          0 0 0 0 0 0
          0 0 0 0 0 0
          0 0 0 0 0 0
          0
        </DataArray>
        <DataArray type="Float64" Name="gradient_error" format="ascii" RangeMin="5.077366465849774e-10" RangeMax="1.9871242402284778e-7">
          2.4613738523658883e-8 9.900611359271617e-8 6.934845777652719e-9 1.724470997117773e-7 1.8589573630800787e-7 3.506229135720814e-8
          4.1491661386426515e-8 3.6460564704876994e-8 5.414214416510032e-8 1.5028609235240204e-7 5.9162945085061256e-8 6.595853932830143e-8
          1.586779633780764e-7 6.625812985756647e-8 1.6956117340751312e-7 6.044365483135282e-8 1.9871242402284778e-7 1.0183217612421236e-7
          8.632885467037937e-8 2.82225451542021e-8 2.120812766281611e-8 1.6622500096543054e-8 5.817283559092695e-8 6.429260183462013e-8
          4.997938258120733e-8 5.3069103017071175e-8 8.957447747157889e-8 2.8383177550141467e-8 4.091539128036066e-8 6.672907288302434e-8
          5.739451276453133e-8 1.0848365262560645e-7 3.857473667740161e-8 3.553899382103027e-8 2.1686807916197107e-8 3.47213255178715e-8
          4.255811625416931e-8 8.193485803606207e-8 8.441139611363593e-9 2.368696553986548e-8 9.726594815641254e-8 1.0581852344132057e-8
          2.7262458131012124e-8 1.4004835094299082e-8 1.0817655090678295e-8 1.6128856902250964e-8 8.224299270233144e-9 7.145855570853456e-9
          9.465493975867771e-9 8.248301182016699e-9 6.159783176708727e-8 4.727658846407304e-8 6.240455713660518e-8 6.25437107105434e-8
          6.096106805646698e-8 6.2508693518829e-8 5.35698006525091e-8 4.790032947656587e-8 6.318284567160099e-8 4.093967764791218e-8
          5.287778103700451e-8 6.683684552066772e-8 6.787989819263736e-8 6.690198977003616e-8 6.925711788301795e-8 2.9146197620226414e-8
          2.7099723630388358e-8 2.2987736055690622e-8 6.089138684532574e-8 5.994135007228668e-8 4.762842296587027e-8 5.415353632360361e-8
          2.5852180502767043e-8 2.4221844976413054e-8 2.047978913660726e-8 4.139501561757787e-8 3.949313150174294e-8 3.3372473073818284e-8
          3.3891013565552646e-8 1.8103327010991783e-8 4.267642382034475e-8 3.2115862611584235e-8 3.603708829272991e-8 1.5773954787123304e-8
          2.5683774848675868e-8 2.076661087032044e-8 2.797625426668248e-8 2.6501407647087476e-8 2.0029330818628273e-8 2.2177184090183277e-8
          1.5338277478264938e-8 1.443335791436119e-8 6.128050423134461e-8 6.154928449451134e-8 5.8373040150053126e-8 5.857657767776695e-8
          5.938682248077383e-8 5.567187741750532e-8 5.966992239281114e-8 6.284067916395037e-8 6.1123134400112e-8 6.625522279113682e-8
          5.39578463144607e-8 5.3810653382854594e-8 4.808299891311037e-8 4.739043470140855e-8 4.9990705213537624e-8 4.267604758163257e-8
          5.472000322088986e-8 5.7519258034611245e-8 5.238497529320828e-8 5.98387940143763e-8 5.001869570614285e-8 4.5075869041457386e-8
          4.308181120841611e-8 3.218231672248221e-8 6.151790948474675e-8 5.757429266806636e-8 5.653680932230947e-8 3.9118317454544004e-8
          3.235238263457425e-8 2.5657313420537505e-8 2.073245471645713e-8 5.1469080177007084e-8 4.363292466962523e-8 3.4440639699290765e-8
          4.574376589289159e-8 5.6091963153390184e-8 4.8915327231188564e-8 5.6914373927517825e-8 6.779939579820125e-8 6.647796757571687e-8
          3.3817308617524404e-8 4.9659786895615614e-8 5.294505671925287e-8 6.77084546520729e-8 4.850279624722897e-8 5.4534437033085174e-8
          4.449938972145859e-8 4.979524952050035e-8 6.272436536738872e-8 5.685617186443438e-8 4.4132495239474144e-8 5.219390186275352e-8
          4.7813102955983095e-8 6.308961713311631e-8 6.712657813255117e-8 6.404822132538736e-8 6.509452508258864e-8 5.069812609111335e-8
          6.857830488754983e-8 6.572427167837963e-8 6.724196564466065e-8 5.864933063149793e-8 5.105242824916213e-8 4.1224116617536434e-8
          3.4271438438325287e-8 6.072177143267066e-8 5.345756867349344e-8 4.3805390491646066e-8 4.068236784282153e-8 3.9514669972068315e-8
          3.2216075190490136e-8 3.093249546834347e-8 3.451420844680036e-8 2.643818765714805e-8 4.469944583008134e-8 4.613763096742071e-8
          3.872902597174158e-8 4.47265507385554e-8 2.384477205289676e-8 2.277095715844443e-8 1.6713563929444015e-8 1.5889156509927434e-8
          3.034109976869571e-8 2.979054720142534e-8 2.1118352855044817e-8 3.9824678685806933e-8 4.4731005260726254e-8 3.7130841055151535e-8
          4.0172877545201586e-8 4.954113399723131e-8 4.0998894563469016e-8 3.641559872993172e-8 4.2772213487544157e-8 3.933586593505179e-8
          5.0548760381584665e-8 3.236946462920047e-8 3.315199627434824e-8 2.408766178389317e-8 2.4082194360048628e-8 3.214599072730311e-8
          3.3742994399081616e-8 2.4927254599487304e-8 1.831009409719382e-8 1.0994094074039384e-8 2.358733023150447e-8 1.59548655358525e-8
          1.1913812763729415e-8 9.242638919503477e-9 6.382449899551241e-9 2.0869938040616528e-8 1.6021753156110343e-8 1.1980704902373406e-8
          5.691189119184221e-9 3.1642398483745464e-9 7.046207879093264e-9 4.780010904653074e-9 2.529111510188545e-9 6.014475512738277e-9
          3.1724484647224584e-9 2.7904092449313404e-8 1.658860886358923e-8 2.9969065836423124e-8 2.4782104197009772e-8 1.9178892980150694e-8
          1.4092444669315566e-8 9.996769656450226e-9 2.6478389596682105e-8 2.037387637254545e-8 1.4991062720688777e-8 7.990283811260716e-9
          4.476157837570877e-9 8.397254335277092e-9 6.902227495814679e-9 3.6111225338432012e-9 7.261903809121417e-9 3.7866111069834735e-9
          1.2196279005191915e-9 1.425903848704718e-9 1.1669530246608745e-9 1.7497413163054438e-9 1.026107128273239e-9 1.1846087130303292e-9
          8.167151138366669e-10 8.995275398739938e-10 1.451617744840827e-9 1.0635616372121853e-9 1.9587627520017788e-9 1.5902225958676434e-9
          2.050222668282914e-9 1.6343122602960389e-9 1.1979286120103397e-9 1.7084993286978431e-9 1.2510739155076294e-9 4.007715896572064e-8
          2.4408432432462504e-9 3.277747249188575e-9 7.632317378470135e-9 3.0969031955289524e-9 3.623253768311295e-9 1.7843559046928184e-7
          8.882951104094325e-8 7.566259831277812e-8 1.545202281106997e-7 4.615109699891668e-8 9.779162152666042e-8 7.000669058995082e-8
          1.3793220212808876e-7 4.8606969617956467e-8 1.0358778487682713e-7 1.5962005385698384e-8 6.419910814855127e-8 6.300877016541728e-9
          9.804107257299093e-9 4.902690866165631e-9 1.8559818207121689e-9 1.4273559156997299e-9 2.2771068725059384e-9 1.625162736631359e-9
          1.3981637736592225e-8 1.312089250854286e-8 1.529820454724227e-8 1.0061796490115034e-8 9.501684238394622e-9 2.0134814955775465e-8
          1.9019335425745465e-8 1.1128636939941849e-8 7.994523250829198e-9 1.5942815158434287e-8 8.606614617721936e-9 1.0184411212514894e-8
          6.011988125338101e-9 1.1815603243648436e-8 5.952820375312493e-9 1.0667672929874698e-8 1.2308030940888906e-8 4.08649281075631e-9
          7.813726221540055e-9 1.7129837291600617e-8 1.3459008083468758e-8 1.554232779865659e-8 1.4631990138356378e-8 1.149599227962299e-8
          1.0782396035477928e-8 1.213706439093128e-8 8.83728186430052e-9 8.052941016458615e-9 7.519866084558627e-9 6.091258899736684e-9
          1.1841066905971215e-8 8.805828444074224e-9 1.606872928465085e-8 6.28602577018744e-9 1.1851903320621857e-8 5.6392363111594996e-9
          1.0122619519184348e-8 4.265003175556362e-9 8.275930950072146e-9 1.9222032836775006e-8 2.634757377798771e-8 1.3229980245412532e-8
          1.840435569945036e-8 2.5497863119864457e-8 1.916709373947026e-8 1.5971984277809532e-8 3.503404608524693e-8 2.6680833151131584e-8
          2.2089725408750535e-8 1.3690154889712975e-8 1.9305293334543607e-8 3.119087178077492e-8 2.1954843889205543e-8 3.281456880616485e-8
          2.3183149123678647e-8 4.187262073823537e-8 3.23120564427458e-8 2.6813824573620904e-8 4.428677156697373e-8 3.4390890193558686e-8
          2.859608368939368e-8 2.3535885666232193e-8 2.5106378364138387e-8 1.075932478306946e-8 1.2388423655633004e-8 7.899355379659947e-9
          6.347609872579587e-9 4.329958786502919e-9 3.41561562493961e-9 4.109004581461248e-9 2.2536985464000104e-9 3.2278385545016797e-9
          2.12633734077807e-9 1.891738754109911e-9 1.5562775974444412e-9 4.182407812656792e-9 1.9849277153797817e-9 4.895453382195761e-9
          2.28428351286118e-9 5.162470077572444e-9 2.3941337469591234e-9 5.690992753692656e-9 8.813773883037031e-9 2.9707038088127265e-9
          4.462244202686055e-9 1.2055409551656729e-8 5.995120722904274e-9 1.4800720661884652e-9 2.15473933003888e-9 2.82730930839177e-9
          1.4540146382869386e-8 7.1663672823539544e-9 1.5476838246533917e-8 7.606356157147703e-9 3.332133835215899e-9 3.520326891764266e-9
          6.622210635418484e-10 7.581289207191654e-10 5.077366465849774e-10 9.347807324058e-10 1.0626436431457489e-9 6.526188847086497e-10
          1.1097625993763806e-9
        </DataArray>
        <DataArray type="Float64" Name="gradient_matprop_error" format="ascii" RangeMin="0" RangeMax="0">
          0 0 0 0 0 0
          0 0 0 0 0 0
          0 0 0 0 0 0
          0 0 0 0 0 0
          0 0 0 0 0 0
          0 0 0 0 0 0
          0 0 0 0 0 0
          0 0 0 0 0 0
          0 0 0 0 0 0
          0 0 0 0 0 0
          0 0 0 0 0 0
          0 0 0 0 0 0
          0 0 0 0 0 0
          0 0 0 0 0 0
          0 0 0 0 0 0
          0 0 0 0 0 0
          0 0 0 0 0 0
          0 0 0 0 0 0
          0 0 0 0 0 0
          0 0 0 0 0 0
          0 0 0 0 0 0
          0 0 0 0 0 0
          0 0 0 0 0 0
          0 0 0 0 0 0
          0 0 0 0 0 0
          0 0 0 0 0 0
          0 0 0 0 0 0
          0 0 0 0 0 0
          0 0 0 0 0 0
          0 0 0 0 0 0
          0 0 0 0 0 0
          0 0 0 0 0 0
          0 0 0 0 0 0
          0 0 0 0 0 0
          0 0 0 0 0 0
          0 0 0 0 0 0
          0 0 0 0 0 0
          0 0 0 0 0 0
          0 0 0 0 0 0
          0 0 0 0 0 0
          0 0 0 0 0 0
          0 0 0 0 0 0
          0 0 0 0 0 0
          0 0 0 0 0 0
          0 0 0 0 0 0
          0 0 0 0 0 0
          0 0 0 0 0 0
          0 0 0 0 0 0
          0 0 0 0 0 0
          0 0 0 0 0 0
          0 0 0 0 0 0
          0 0 0 0 0 0
          0 0 0 0 0 0
          0 0 0 0 0 0
          0 0 0 0 0 0
          0 0 0 0 0 0
          0 0 0 0 0 0
          0 0 0 0 0 0
          0 0 0 0 0 0
          0 0 0 0 0 0
          0 0 0 0 0 0
          0 0 0 0 0 0
          0
        </DataArray>
        <DataArray type="Float64" Name="initial_marker" format="ascii" RangeMin="0" RangeMax="2">
          2 2 0 2 2 2
          2 2 0.5 2 2 2
          2 2 2 2 2 2
          2 2 2 2 2 2
          2 2 2 2 2 2
          2 2 2 2 2 2
          2 2 2 2 2 2
          2 1 0 1 0.5 0
          0.5 0 2 2 2 2
          2 2 2 2 2 2
          2 2 2 2 2 2
          2 2 2 2 2 2
          2 2 2 2 2 2
          2 2 2 2 2 2
          2 2 2 2 2 2
          2 2 2 2 2 2
          2 2 2 2 2 2
          2 2 2 2 2 2
          2 2 2 2 2 2
          2 2 2 2 2 2
          2 2 2 2 2 2
          2 2 2 2 2 2
          2 2 2 2 2 2
          2 2 2 2 2 2
          2 2 2 2 2 2
          2 2 2 2 2 2
          2 2 2 2 2 2
          2 2 2 2 2 2
          2 2 2 2 2 2
          2 2 2 2 2 2
          2 2 2 2 2 2
          2 2 2 2 2 2
          2 2 2 2 2 2
          2 2 2 2 2 2
          2 1.5 2 2 1.5 2
          2 2 2 2 2 2
          2 2 2 2 2 2
          2 2 2 2 2 2
          0 0.5 0 1 0 0.5
          0 0 1 0 1 0
          1 1 0 1 0 0.25
          0 0 0 0 0 2
          2 2 2 2 2 2
          2 2 2 1.25 1.5 0.25
          0.5 0 0 0 0 0
          2 2 2 2 2 2
          2 2 2 2 2 2
          2 2 2 2 2 2
          2 2 2 2 2 2
          2 2 2 2 2 2
          2 2 2 2 2 2
          2 2 2 2 2 2
          2 2 2 2 2 2
          2 2 2 2 2 2
          2 2 2 2 2 2
          2 2 2 2 2 2
          2 2 2 2 2 2
          1.3333333333333333 1 1.5 2 2 2
          2 2 2 2 2 2
          2 2 2 2 2 2
          2 2 2 2 2 2
          0 0.5 0 1 1 0
          1
        </DataArray>
        <DataArray type="Float64" Name="markers_norefine" format="ascii" RangeMin="0" RangeMax="2">
          0 0 0 1 1 0
          2 0 0 0.5 2 2
          0.5 2 0 0 0 0.5
          0 0 0 0 2 1.75
          1.5 1 0 0 2 2
          1.5 0.5 0 0 0 1
          0 0 0 0 0 0
          0 0 0 0 0 0
          0 0 2 0 2 2
          1.5 2 0.5 0 1.5 2
          2 2 2 2 2 0
          0 0 2 1.5 0.3333333333333333 0.5
          0 0 0 0 0 0
          0 0 0 0 0 0
          0 0 0 0 0 0
          0 0 2 1.75 1.5 1.25
          1.25 0.75 2 2 2 2
          1 1 0.5 0.5 0.5 0.25
          2 2 1.5 1.5 0.5 0.25
          0 0 1.25 0.75 0.5 0
          0 0 0 0.5 0.25 0
          2 2 2 2 2 2
          2 2 2 2 2 2
          2 2 2 1.5 2 2
          2 2 1.75 1.25 1.5 0.3333333333333333
          2 1.5 2 1 0.5 0
          0 1 0.5 0 0 0
          0 0 0 0 0.5 0.5
          0 0.25 0 0 0 0
          0 0 0 1.5 1.25 0.5
          0.25 0.5 0 2 1.5 0.5
          0.5 0 0 0 0 0
          0 0 0 0 0 0
          0 0 0 0 0 0
          0 0 0 0 0 0
          0 0 0 0 0 0
          0 0 0 0 0 0
          0 0 0 0 0 0
          0 0 0 0 0 0
          0 0 0 0 0 0
          0 0 0 0 0 0
          0 0 0 0 0 0
          0 0 0 0 0 0
          0 0 0 0 0 0
          0 0 0 0 0 0
          0 0 0 0 0 0
          0 0 0 0 0 0
          0 0 0 0 0 0
          0 0 0 0 0 0
          0 0 0 0 0 0
          0 0 0 0 0 0
          0 0 0 0 0 0
          0 0 0 0 0 0
          0 0 0 0 0 0
          0 0 0 0 0 0
          0 0 0 0 0 0
          0 0 0 0 0 0
          0 0 0 0 0 0
          0 0 0 0 0 0
          0 0 0 0 0 0
          0 0 0 0 0 0
          0 0 0 0 0 0
          0
        </DataArray>
        <DataArray type="Float64" Name="markers_mustrefine" format="ascii" RangeMin="0" RangeMax="2">
          2 2 0 2 2 2
          2 2 0.5 2 2 2
          2 2 2 2 2 2
          2 2 2 2 2 2
          2 2 2 2 2 2
          2 2 2 2 2 2
          2 2 2 2 2 2
          2 1 0 1 0.5 0
          0.5 0 2 2 2 2
          2 2 2 2 2 2
          2 2 2 2 2 2
          2 2 2 2 2 2
          2 2 2 2 2 2
          2 2 2 2 2 2
          2 2 2 2 2 2
          2 2 2 2 2 2
          2 2 2 2 2 2
          2 2 2 2 2 2
          2 2 2 2 2 2
          2 2 2 2 2 2
          2 2 2 2 2 2
          2 2 2 2 2 2
          2 2 2 2 2 2
          2 2 2 2 2 2
          2 2 2 2 2 2
          2 2 2 2 2 2
          2 2 2 2 2 2
          2 2 2 2 2 2
          2 2 2 2 2 2
          2 2 2 2 2 2
          2 2 2 2 2 2
          2 2 2 2 2 2
          2 2 2 2 2 2
          2 2 2 2 2 2
          2 1.5 2 2 1.5 2
          2 2 2 2 2 2
          2 2 2 2 2 2
          2 2 2 2 2 2
          0 0.5 0 1 0 0.5
          0 0 1 0 1 0
          1 1 0 1 0 0.25
          0 0 0 0 0 2
          2 2 2 2 2 2
          2 2 2 1.25 1.5 0.25
          0.5 0 0 0 0 0
          2 2 2 2 2 2
          2 2 2 2 2 2
          2 2 2 2 2 2
          2 2 2 2 2 2
          2 2 2 2 2 2
          2 2 2 2 2 2
          2 2 2 2 2 2
          2 2 2 2 2 2
          2 2 2 2 2 2
          2 2 2 2 2 2
          2 2 2 2 2 2
          2 2 2 2 2 2
          1.3333333333333333 1 1.5 2 2 2
          2 2 2 2 2 2
          2 2 2 2 2 2
          2 2 2 2 2 2
          0 0.5 0 1 1 0
          1
        </DataArray>
        <DataArray type="Float64" Name="gradient_marker" format="ascii" RangeMin="0" RangeMax="1">
          1 0.25 0.75 0.5 0.5 1
          1 1 0.5 0.5 0 0
          0.5 0 0.5 0 0.5 0.75
          0.75 1 1 1 0.5 0.5
          1 1 0.75 1 0.5 0.5
          1 0.75 1 1 1 1
          1 0.75 1 0.5 0.75 1
          0.5 0 0 0 0.5 0.5
          0.5 0.5 0 0 0 0
          0 0 0 0 0 0
          0 0 0 0 0 1
          1 1 0 0 0.6666666666666666 0
          1 1 1 1 1 1
          1 1 0 0.6666666666666666 0 1
          1 1 1 1 1 1
          1 1 0 0 0.5 0.5
          0 0.5 0 0 0.5 0
          1 1 1 1 1 1
          1 1 1 1 0 0.5
          0 0.6666666666666666 0 0.5 0 1
          1 1 1 1 1 1
          0 0 0.5 0.5 0 0.5
          0 0 0.5 0 1 1
          1 1 1 1 1 1
          1 1 0 0.5 0 0.6666666666666666
          0 0.5 0 1 1 1
          1 1 1 1 1 1
          1 1 1 1 1 1
          1 1 1 1 1 1
          1 1 1 1 1 1
          1 1 1 1 1 1
          1 1 1 1 1 1
          1 1 1 1 1 1
          1 1 1 1 1 1
          1 1 1 1 1 1
          1 1 1 1 1 1
          1 1 1 1 1 1
          1 1 1 1 1 1
          1 1 1 1 1 1
          1 1 1 1 1 1
          1 1 1 1 1 0.375
          1 1 0.5 1 1 0.5
          0.75 0.75 0.5 0.625 0.375 0.75
          0.625 0.625 0.375 0.5 0.125 0.5
          0 0.5 1 1 1 1
          1 1 1 1 1 1
          1 1 1 1 1 1
          1 1 1 1 1 1
          1 1 1 1 1 1
          1 1 1 1 1 1
          1 1 1 1 1 1
          1 1 1 1 1 1
          1 1 1 1 1 1
          1 1 1 1 1 1
          1 1 1 1 1 1
          1 1 1 1 1 1
          1 1 1 1 1 1
          1 1 1 1 1 1
          1 1 1 1 1 1
          1 1 1 1 1 1
          1 1 1 1 1 1
          1 1 1 1 1 1
          1
        </DataArray>
        <DataArray type="Float64" Name="gradient_matprop_marker" format="ascii" RangeMin="0" RangeMax="0">
          0 0 0 0 0 0
          0 0 0 0 0 0
          0 0 0 0 0 0
          0 0 0 0 0 0
          0 0 0 0 0 0
          0 0 0 0 0 0
          0 0 0 0 0 0
          0 0 0 0 0 0
          0 0 0 0 0 0
          0 0 0 0 0 0
          0 0 0 0 0 0
          0 0 0 0 0 0
          0 0 0 0 0 0
          0 0 0 0 0 0
          0 0 0 0 0 0
          0 0 0 0 0 0
          0 0 0 0 0 0
          0 0 0 0 0 0
          0 0 0 0 0 0
          0 0 0 0 0 0
          0 0 0 0 0 0
          0 0 0 0 0 0
          0 0 0 0 0 0
          0 0 0 0 0 0
          0 0 0 0 0 0
          0 0 0 0 0 0
          0 0 0 0 0 0
          0 0 0 0 0 0
          0 0 0 0 0 0
          0 0 0 0 0 0
          0 0 0 0 0 0
          0 0 0 0 0 0
          0 0 0 0 0 0
          0 0 0 0 0 0
          0 0 0 0 0 0
          0 0 0 0 0 0
          0 0 0 0 0 0
          0 0 0 0 0 0
          0 0 0 0 0 0
          0 0 0 0 0 0
          0 0 0 0 0 0
          0 0 0 0 0 0
          0 0 0 0 0 0
          0 0 0 0 0 0
          0 0 0 0 0 0
          0 0 0 0 0 0
          0 0 0 0 0 0
          0 0 0 0 0 0
          0 0 0 0 0 0
          0 0 0 0 0 0
          0 0 0 0 0 0
          0 0 0 0 0 0
          0 0 0 0 0 0
          0 0 0 0 0 0
          0 0 0 0 0 0
          0 0 0 0 0 0
          0 0 0 0 0 0
          0 0 0 0 0 0
          0 0 0 0 0 0
          0 0 0 0 0 0
          0 0 0 0 0 0
          0 0 0 0 0 0
          0
        </DataArray>
        <DataArray type="Float64" Name="combo" format="ascii" RangeMin="0" RangeMax="2">
          1 0.25 0.75 1.5 1.5 1
          2 1 0.5 1 2 2
          1 2 0.5 0 0.5 1.25
          0.75 1 1 1 2 1.875
          1.75 1.5 0.75 1 2 2
          1.75 1.25 1 1 1 1.5
          1 0.75 1 0.5 0.75 1
          0.5 0 0 0 0.5 0.5
          0.5 0.5 2 0 2 2
          1.5 2 0.5 0 1.5 2
          2 2 2 2 2 1
          1 1 2 1.5 1 0.5
          1 1 1 1 1 1
          1 1 0 0.6666666666666666 0 1
          1 1 1 1 1 1
          1 1 2 1.75 1.75 1.5
          1.25 1.125 2 2 2 2
          1.5 1.5 1.25 1.25 1.25 1.125
          2 2 1.75 1.75 0.5 0.75
          0 0.6666666666666666 1.25 1.125 0.5 1
          1 1 1 1.25 1.125 1
          2 2 2 2 2 2
          2 2 2 2 2 2
          2 2 2 1.75 2 2
          2 2 1.75 1.5 1.5 1
          2 1.75 2 1.5 1.25 1
          1 1.5 1.25 1 1 1
          1 1 1 1 1.25 1.25
          1 1.125 1 1 1 1
          1 1 1 1.75 1.625 1.25
          1.125 1.25 1 2 1.75 1.25
          1.25 1 1 1 1 1
          1 1 1 1 1 1
          1 1 1 1 1 1
          1 1 1 1 1 1
          1 1 1 1 1 1
          1 1 1 1 1 1
          1 1 1 1 1 1
          1 1 1 1 1 1
          1 1 1 1 1 1
          1 1 1 1 1 0.375
          1 1 0.5 1 1 0.5
          0.75 0.75 0.5 0.625 0.375 0.75
          0.625 0.625 0.375 0.5 0.125 0.5
          0 0.5 1 1 1 1
          1 1 1 1 1 1
          1 1 1 1 1 1
          1 1 1 1 1 1
          1 1 1 1 1 1
          1 1 1 1 1 1
          1 1 1 1 1 1
          1 1 1 1 1 1
          1 1 1 1 1 1
          1 1 1 1 1 1
          1 1 1 1 1 1
          1 1 1 1 1 1
          1 1 1 1 1 1
          1 1 1 1 1 1
          1 1 1 1 1 1
          1 1 1 1 1 1
          1 1 1 1 1 1
          1 1 1 1 1 1
          1
        </DataArray>
        <DataArray type="Float64" Name="dHdT" format="ascii" RangeMin="25.83124197484326" RangeMax="56.640622379863316">
          36.21869914607643 27.979443029434513 25.838987213364987 43.79180404301141 43.427314856211936 35.554269675603884
          50.85367117121537 34.75418404280455 26.147912197067036 40.32104687057234 48.28784971676831 50.4026936998302
          40.44185870867817 48.124869385077666 31.920839037863043 27.96805629335887 33.14113807978139 41.21165598061836
          36.886599092290375 32.97973581682862 31.425027649693018 29.620365634189707 49.822373056013745 49.560938116688796
          51.53269714471628 44.096355234466195 36.672384326216736 32.70638329737557 46.30730386560937 49.79046079593927
          50.21356304517717 40.63322009957965 40.389267065839405 36.0182811145073 33.37454713110667 49.669543315352755
          39.719979413142454 29.83576972851499 27.486405041488283 26.933808213910112 30.770038599785757 27.96508406231352
          27.140019182453695 26.288381251834195 26.064351926521013 26.357700295496297 26.147787626993043 25.98907684825047
          26.197209248314035 26.010910561539113 49.8752459915001 39.5228508071096 50.53562542478821 50.58023913445198
          48.610456876435165 48.923996273059785 43.11376201129645 39.63146311383831 48.491581531701996 46.31590438204714
          46.437515237902645 48.79712947791364 50.08526081165178 49.13538876123442 49.892031775382875 33.64730898721997
          33.243237944219196 32.02730095682253 49.93551289032286 48.07689610726539 41.76638125175537 42.836797802466805
          32.74431431578634 32.322215579367885 31.11305864117788 38.57454339362959 37.496568180717375 34.74756989411128
          35.08213806113237 30.195985837173644 37.52606721837129 34.46747097128061 35.59681815601688 29.47905089985152
          32.45282631392546 30.79782727274653 33.3006133214593 32.76842028528372 30.913378143552116 31.28328322947954
          29.51311836813953 29.136482992736312 50.51881867494327 49.864088290097236 49.71654970453488 48.287170936131766
          46.63161765608537 44.0777434835527 48.69347769639738 49.61374862143127 50.54708764460835 50.319933247993994
          47.037435446057756 45.43716246251968 43.24628079882509 41.719247916109396 41.03129109991408 37.898999808444415
          51.51380259248564 51.1478420007038 49.590549700996895 47.73086023240854 40.73464120305937 38.535994322861015
          37.41540499919918 34.419333505161774 46.31500346039274 43.67524674887701 42.52415997126265 36.14405663648904
          33.9589732611212 32.3977104333758 30.723096477671092 40.65487518164507 37.59759658888189 34.785173582443534
          46.30295726061409 46.93411976398886 46.72441055197937 48.23218552625283 49.4863868300454 50.33481495449773
          46.321083587997094 46.29202275804428 47.132978134447825 48.759344673806744 48.57023633294183 50.296833406018884
          52.63999566331927 52.3272992195411 50.661552131963255 48.77898037059243 46.23225393372993 48.886598789595354
          52.042869319065254 50.87713187982622 49.36310432847254 47.442769144913704 47.31871726421792 41.11875554169075
          50.03941692390704 48.773196606212665 48.82310642829205 44.33119315349823 40.84006951818823 36.87575766451762
          34.148500889934056 45.51335698989274 42.004412741788364 37.81548346880141 38.91603203361093 37.77175305804096
          35.49709581539629 34.706092948432044 35.08878352985361 32.72033248925763 47.183038783249955 44.867359767615554
          39.10406350014755 39.64132654230828 32.945122017870816 32.28293932822007 30.408100181376284 29.907341714495182
          36.01371526361415 35.30752015007258 32.59843966856262 54.36093224119495 51.37549918047628 46.529097661564094
          43.98521003252675 44.08333729769888 38.6818068170418 56.640622379863316 53.56901099964175 46.28186966638383
          45.85991682650944 38.287889822407706 37.36005822885353 35.52304251318821 34.66744929763469 39.45120495112398
          38.24272627665487 35.36722388802875 30.264231000618754 28.073032552550636 32.07246769775363 29.515572029270547
          28.29908185447063 27.685104299485626 27.055735200416727 31.091813032435535 29.4158308648531 28.33808129912313
          26.97888063085883 26.4311686283747 27.289841920460727 26.774228128971046 26.315269129389918 27.03797228081212
          26.433833146765537 33.227555723045526 29.53539281933783 33.59683617965716 32.21880223682848 30.36180690490363
          28.87674575650496 27.830751883261907 32.602375637573594 30.726212481798402 29.09910819737825 27.518810514493772
          26.67990999794905 27.608821442244064 27.234368108400663 26.521279352362328 27.310701965187786 26.554672685684164
          26.108971726037787 26.144000309405858 26.056408697121498 26.209217581088225 26.053350145988606 26.080410759396557
          25.9897497900692 26.006674662905116 26.132367987532028 26.040041852289967 26.25857160869476 26.134741195538574
          26.277736947986995 26.172670277062913 26.06682821998018 26.188075951866267 26.077172271121462 26.0538966043138
          25.849010230305005 25.83124197484326 25.857124070772777 25.863241275898964 25.83390091236449 32.59117354559535
          30.485786364329726 29.572902744036888 31.39534412281663 27.899333706691486 29.094067704431367 31.307841797266818
          32.8425519311877 28.037752942498475 29.384593213517945 26.49614888141754 26.980662965701843 26.04618455900981
          26.146069871990512 25.943292641885026 25.8949026160223 25.91552592352608 25.884432526757852 25.930240054462672
          28.91134260210334 28.68791830646937 29.262219724491253 27.90093977259186 27.758870865419397 31.017674043017834