<?xml version="1.0"?>
<VTKFile type="UnstructuredGrid" version="0.1" byte_order="LittleEndian" header_type="UInt32" compressor="vtkZLibDataCompressor">
  <UnstructuredGrid>
    <Piece NumberOfPoints="432" NumberOfCells="211">
      <PointData>
        <DataArray type="Int32" Name="libmesh_node_id" format="ascii" RangeMin="164" RangeMax="3380">
          164 165 166 167 168 169
          177 178 179 194 195 196
          197 198 199 207 208 209
          244 246 247 248 249 250
          251 252 255 256 271 272
          273 274 275 276 277 278
          279 280 281 282 283 284
          360 361 362 363 364 365
          366 367 368 369 370 371
          372 373 412 413 414 415
          416 417 418 419 420 421
          459 462 463 466 468 470
          471 472 473 474 475 476
          477 478 479 480 481 482
          483 707 708 709 712 715
          717 718 719 720 721 722
          723 724 725 726 727 728
          729 730 791 792 793 794
          795 796 797 798 799 800
          801 802 803 804 805 806
          807 808 809 810 923 924
          925 926 928 929 930 931
          932 933 934 935 936 937
          938 941 942 945 947 949
          950 951 952 953 954 955
          956 957 958 1410 1411 1412
          1415 1418 1432 1433 1436 1438
          1452 1453 1455 1458 1468 1470
          1472 1474 1475 1476 1477 1478
          1479 1480 1481 1482 1483 1484
          1485 1486 1487 1488 1489 1490
          1491 1492 1493 1494 1495 1496
          1497 1498 1499 1500 1501 1502
          1503 1504 1505 1506 1507 1570
          1574 1575 1577 1578 1579 1580
          1581 1582 1583 1584 1585 1586
          1587 1588 1589 1590 1591 1592
          1593 1594 1595 1630 1631 1632
          1633 1634 1635 1636 1637 1638
          1639 1640 1641 1642 1643 1644
          1645 1646 1647 1648 1649 1650
          2934 2935 2936 2939 2940 2941
          2942 2943 2953 2954 2957 2958
          2959 2960 3032 3033 3034 3113
          3114 3115 3116 3117 3118 3119
          3120 3121 3122 3130 3131 3132
          3133 3134 3135 3136 3147 3148
          3149 3150 3151 3152 3153 3154
          3155 3156 3164 3165 3166 3167
          3168 3169 3170 3234 3235 3236
          3237 3238 3239 3240 3258 3259
          3260 3261 3262 3263 3264 3272
          3273 3274 3275 3276 3277 3278
          3279 3280 3281 3282 3283 3284
          3285 3286 3287 3288 3289 3290
          3291 3292 3293 3294 3295 3296
          3297 3298 3299 3300 3301 3302
          3303 3304 3305 3306 3307 3308
          3309 3310 3311 3312 3313 3314
          3315 3316 3317 3318 3319 3320
          3321 3322 3323 3324 3325 3326
          3327 3328 3329 3330 3331 3332
          3333 3334 3335 3336 3337 3338
          3339 3340 3341 3342 3343 3344
          3345 3346 3347 3348 3349 3350
          3351 3352 3353 3354 3355 3356
          3357 3358 3359 3360 3361 3362
          3363 3364 3365 3366 3367 3368
          3369 3370 3371 3372 3373 3374
          3375 3376 3377 3378 3379 3380
          456 350 355 254 658 927
          1576 1571 710 939 695 943
        </DataArray>
        <DataArray type="Float64" Name="bounds" format="ascii" RangeMin="0" RangeMax="0">
          0 0 0 0 0 0
          0 0 0 0 0 0
          0 0 0 0 0 0
          0 0 0 0 0 0
          0 0 0 0 0 0
          0 0 0 0 0 0
          0 0 0 0 0 0
          0 0 0 0 0 0
          0 0 0 0 0 0
          0 0 0 0 0 0
          0 0 0 0 0 0
          0 0 0 0 0 0
          0 0 0 0 0 0
          0 0 0 0 0 0
          0 0 0 0 0 0
          0 0 0 0 0 0
          0 0 0 0 0 0
          0 0 0 0 0 0
          0 0 0 0 0 0
          0 0 0 0 0 0
          0 0 0 0 0 0
          0 0 0 0 0 0
          0 0 0 0 0 0
          0 0 0 0 0 0
          0 0 0 0 0 0
          0 0 0 0 0 0
          0 0 0 0 0 0
          0 0 0 0 0 0
          0 0 0 0 0 0
          0 0 0 0 0 0
          0 0 0 0 0 0
          0 0 0 0 0 0
          0 0 0 0 0 0
          0 0 0 0 0 0
          0 0 0 0 0 0
          0 0 0 0 0 0
          0 0 0 0 0 0
          0 0 0 0 0 0
          0 0 0 0 0 0
          0 0 0 0 0 0
          0 0 0 0 0 0
          0 0 0 0 0 0
          0 0 0 0 0 0
          0 0 0 0 0 0
          0 0 0 0 0 0
          0 0 0 0 0 0
          0 0 0 0 0 0
          0 0 0 0 0 0
          0 0 0 0 0 0
          0 0 0 0 0 0
          0 0 0 0 0 0
          0 0 0 0 0 0
          0 0 0 0 0 0
          0 0 0 0 0 0
          0 0 0 0 0 0
          0 0 0 0 0 0
          0 0 0 0 0 0
          0 0 0 0 0 0
          0 0 0 0 0 0
          0 0 0 0 0 0
          0 0 0 0 0 0
          0 0 0 0 0 0
          0 0 0 0 0 0
          0 0 0 0 0 0
          0 0 0 0 0 0
          0 0 0 0 0 0
          0 0 0 0 0 0
          0 0 0 0 0 0
          0 0 0 0 0 0
          0 0 0 0 0 0
          0 0 0 0 0 0
          0 0 0 0 0 0
        </DataArray>
        <DataArray type="Float64" Name="gradient_error" format="ascii" RangeMin="7.324817703915009e-13" RangeMax="1.524155687489361e-9">
          5.888896257693652e-11 1.8231453357494105e-10 4.7998517688897966e-11 5.0868644605308755e-11 6.339655967417755e-11 5.738694775322707e-11
          1.6896666648452018e-10 5.47595113661364e-11 5.137733583227659e-11 2.154129905059844e-12 5.511169215436525e-11 4.4395337348970704e-11
          4.6312632436304e-11 7.70534843510725e-11 6.145389013495148e-11 3.20285288997735e-11 4.755923677667598e-11 4.585429591883046e-11
          8.75806161110443e-10 9.887046725392532e-10 1.474260634733402e-10 2.047582321635728e-11 1.105014991547933e-10 1.0392694251382092e-9
          7.582052065420634e-10 1.3004368859932702e-10 5.1118126196209016e-11 2.4882314812811834e-10 3.277589864884388e-11 2.985780897204632e-11
          1.9891629416070493e-11 2.7678834118624935e-11 1.552409467195931e-11 1.465138235383097e-11 1.3965987882894765e-11 2.6939719295248767e-11
          3.431207348233584e-11 1.3280593411958558e-11 6.513871014250311e-12 2.610480921225953e-11 1.240788109383022e-11 4.168442766942292e-11
          4.807600927134458e-11 7.379883718096877e-11 3.648601145438145e-11 5.2570869280809e-11 3.457874893824346e-11 6.46115188858814e-12
          1.8789968552840997e-11 1.442049441229253e-10 1.782154586906578e-10 5.1040849823909887e-11 1.632197039823124e-10 4.62879014333247e-11
          9.454938189216529e-12 2.0771213256439742e-10 2.361061911664801e-10 2.1720634703305927e-10 6.01521625866788e-11 4.9254093131964713e-11
          9.538226907692298e-11 7.578916682911778e-11 2.2129939620350177e-11 1.9830650289963845e-10 3.835602367725062e-11 5.6196064581312575e-11
          4.3731356459495904e-10 5.350957638464752e-10 7.281678222986278e-10 1.7135837042935223e-10 9.212398807507806e-10 5.06835595935543e-12
          7.129235281548963e-12 3.0641379874102973e-12 7.083784261410742e-12 4.585460697412389e-12 1.7840408506785157e-12 4.94366605994497e-12
          9.190114603742496e-12 1.1032518119874933e-11 8.103291269211423e-12 9.63113436558054e-13 7.047607581289453e-12 5.301871422477551e-12
          1.2874921636007367e-11 3.2719187423966234e-11 4.882817606283353e-11 1.8025366826501958e-11 4.1313700431033174e-11 4.8552672308078205e-11
          1.2022144032601171e-11 1.085006431359022e-11 7.568167434577805e-12 9.816184973405875e-12 6.153960252255712e-12 4.3669462798990426e-12
          5.327139635606221e-12 1.1606850107094935e-11 1.3289547007069134e-11 6.823780197145859e-12 5.713019395338601e-12 8.082244415244413e-12
          4.710536952641705e-12 1.5882460873633317e-11 3.996766121497056e-11 5.072522074209315e-11 5.766668511431585e-11 7.818026903649741e-11
          2.2165760644026224e-11 1.690505899778948e-11 3.5365043390980615e-11 6.148278026921576e-11 9.869385295867896e-11 5.382502778417175e-11
          1.488640576866179e-10 1.822018953396237e-10 5.974890713754007e-11 6.541447808055846e-11 6.296923457814265e-11 6.64631897418096e-11
          4.028941359283448e-11 2.1553973299262952e-10 7.108004902357684e-11 6.995714490547653e-11 2.109387206826915e-11 1.9497400589545147e-11
          2.9078527404483352e-11 9.529686005676971e-11 4.1101961785172484e-11 4.239943108029338e-12 5.3915662562253165e-12 1.0145070733944006e-11
          1.0081052561472655e-11 3.578392286544484e-12 3.812195340458079e-12 5.020645470647539e-12 6.543189404421295e-12 1.0017034389001304e-11
          6.229095600836999e-12 5.7973082987648155e-11 4.943456688798375e-11 4.9193313185817394e-11 4.03696910711115e-11 1.4391803147095026e-11
          1.764834193092485e-11 9.662069060902542e-12 1.0175519183866219e-11 1.3223883058838166e-11 1.6210212256087073e-11 1.2521286028954202e-11
          2.0904880714754676e-11 1.0688969306829895e-11 1.919654145333598e-11 3.404539232031178e-11 3.4102613885050304e-11 2.8243041954917463e-11
          1.893533159136578e-11 3.6691008196627596e-11 1.445892571543884e-11 1.555768623351622e-11 1.5568132594563296e-11 2.110513885261739e-11
          1.2156711696362844e-10 9.031015513397715e-11 3.668464888238504e-11 1.2204156145299873e-10 3.257816321616362e-11 4.1776189955330096e-11
          3.950305814974804e-11 1.3242801690008112e-11 1.1520469121232289e-11 1.0815256002109572e-11 9.199851306070032e-12 4.39759504777265e-12
          8.560893519960669e-12 7.353877431891544e-12 7.63753495614745e-12 8.328834401401746e-12 4.956461791968513e-12 1.014408820441629e-11
          1.0248793014995109e-11 8.65196755315304e-12 9.811846979009135e-12 1.841206165373121e-11 1.5808977287911905e-11 4.5160278544388455e-12
          6.313418626656679e-12 1.051238795798761e-11 8.886203153734645e-12 2.4437064193863683e-11 1.8503451220834886e-11 4.538700742718182e-12
          1.0504660473251375e-11 8.95466736757465e-12 1.0491350114513236e-11 5.353052464060552e-12 8.197230976222133e-12 8.749765920666658e-12
          1.3615513171515543e-11 5.443708473524738e-12 1.2440791424670102e-11 9.653320393203934e-12 1.582431247663307e-11 3.3797157429075907e-10
          3.523558422767665e-10 8.194410643760359e-11 3.771574214584671e-11 4.699955455154266e-11 7.195728271442971e-11 9.301294125732743e-11
          4.808841325641845e-11 1.3760318934857827e-12 1.3945282880271305e-12 1.4756402350489676e-12 1.5059963260926274e-12 9.711131803711183e-13
          7.324817703915009e-13 9.319842309344963e-13 1.4130246825684785e-12 1.536352417136287e-12 1.1314866914774915e-12 1.5752485766121526e-12
          1.6174643641581239e-12 8.928552814978741e-13 1.6596801517040952e-12 4.411584760383943e-12 6.918467634340205e-12 2.863544478176722e-12
          3.4142539235287447e-12 3.346236160929452e-12 4.719527067932375e-12 3.0624456069428848e-12 2.94740553888615e-12 2.5649419568419934e-12
          3.585442093563853e-12 3.0952250620760456e-12 1.6074797282481228e-12 1.733919923330221e-12 1.6929874232104337e-12 2.182478374797837e-12
          2.6050080305882376e-12 1.6520549230906462e-12 4.223478648241557e-12 3.6255081673100974e-12 1.7784951181727442e-12 3.0275376863786385e-12
          1.4461394149803328e-11 2.4625899931068327e-11 2.3033989074894877e-11 1.8913482394565526e-11 1.1504549282694516e-10 1.0680692140402033e-10
          4.545831166895734e-11 8.546690340585495e-11 9.062529502648122e-12 1.3710443308886669e-11 1.0426724291364515e-11 5.946332550139749e-11
          2.5854104499623537e-11 3.655826507234404e-11 2.025073817566411e-11 1.0670486849001666e-11 1.3946140378820765e-11 1.9911099331569624e-10
          1.8462543484779783e-10 8.327004391486581e-11 7.737514581905315e-11 1.4661347437019235e-10 6.19119595419586e-11 2.9288946477415493e-10
          2.7217799861879586e-10 1.1305575808107982e-10 2.162863026415856e-10 9.98179910535007e-11 4.2815580491303274e-11 5.940220416267743e-11
          2.5960584647310467e-11 1.4564582802110945e-10 6.169941648515044e-11 8.4663755745101e-11 3.661762299302539e-10 3.415189828731314e-10
          1.5180772123912495e-10 1.41467025342053e-10 2.727191564222681e-10 1.1322918439632155e-10 3.935582930268468e-10 3.6771640616380115e-10
          1.5226278682212446e-10 2.94443471946052e-10 1.8316150705767105e-10 7.703875374703405e-11 1.0519555769559815e-10 4.525713398210512e-11
          1.9772711487200964e-10 8.29599836222519e-11 1.1313706429652437e-10 3.173256638602991e-11 1.4119038890418062e-11 2.120963419322108e-11
          9.604398108145049e-12 4.392053231673618e-11 1.9428137519891553e-11 2.8699136365754753e-11 5.36417099156188e-11 2.354140776910251e-11
          3.463874152685612e-11 1.5314015720400802e-11 5.7345286416450006e-11 2.511816285374368e-11 3.6858249392521964e-11 6.6570451798308824e-12
          6.277900036596581e-12 1.0315001041733017e-11 9.685492911227084e-12 4.060761161974415e-12 6.107061567255237e-12 5.758942042993833e-12
          5.296370118352761e-12 8.03903890357333e-12 4.802824308517151e-12 1.999796723517985e-11 1.868883413573692e-11 8.740182319773653e-12
          1.5226414282233017e-11 4.06006425404291e-12 5.890060152968759e-12 2.747481153685732e-12 3.677796853691399e-12 3.426143164742576e-12
          4.758027279512007e-12 3.160767609080925e-12 1.0803291954643275e-11 6.351306991498992e-12 7.763892000930323e-12 3.343706007336039e-11
          3.120513390663076e-11 1.2897375661564078e-11 1.19534217210098e-11 2.521851070757342e-11 1.1428235912600446e-11 4.8176851411206734e-11
          4.4952217936931955e-11 1.708060141631777e-11 3.623282780776718e-11 3.71665074810002e-12 3.506228068157572e-12 4.801972883364023e-12
          4.481896414114923e-12 2.2392955354613134e-12 2.6293663201547904e-12 2.7171574511588657e-12 3.2958053882151235e-12 4.1618199448658245e-12
          2.804948582162942e-12 6.842505413734951e-12 6.344470571688377e-12 3.5954087834399225e-12 5.584402958733707e-12 1.769095492570782e-11
          1.0203965838434449e-11 1.0920241558421783e-11 6.45427360651901e-12 2.5225162524668273e-11 1.1489552514760724e-11 1.538801217836552e-11
          5.998324550020656e-11 5.594889945826577e-11 2.277293399142484e-11 2.122819318853117e-11 4.5032442102432444e-11 1.712765170434338e-11
          6.44639307579959e-11 6.01190483703129e-11 2.2820314968792546e-11 4.836512912880526e-11 8.38877125318372e-12 7.817981640136128e-12
          4.45552558910251e-12 4.226648523540067e-12 6.36970038476383e-12 3.603425809349429e-12 8.979826697525565e-12 8.404586896967775e-12
          4.457498847056708e-12 6.876713582185364e-12 3.122430475440892e-11 1.2039165010469469e-11 1.8845629440448407e-11 8.917948804253654e-12
          3.349366645350502e-11 1.3000716372581837e-11 2.0154835336754574e-11 4.229005594310107e-12 4.54108876941109e-12 2.837749996259009e-12
          2.747025638248079e-12 3.3976737717027035e-12 3.5899687963830542e-12 2.2849711157749235e-12 4.853171944512074e-12 2.656301280237149e-12
          3.782263821063405e-12 4.9431565567277905e-12 6.142557394194434e-12 3.3116383406230637e-12 3.8747394246963716e-12 3.661549872893615e-12
          4.362727847715233e-12 2.9830911363333217e-12 8.395130720209284e-12 5.0881102039033425e-12 5.72649098014689e-12 1.0093884587368765e-11
          6.104594698922935e-12 6.794789014118637e-12 4.468300980864257e-12 1.0739465965980037e-11 6.470809498808865e-12 7.200501890480344e-12
          4.182640591354143e-10 5.653739616301151e-10 9.584354590969499e-10 1.524155687489361e-9 4.946559958468358e-10 1.0946367973577104e-10
          1.1594555563457798e-10 5.232610198841861e-10 1.0826052922655126e-10 1.3775228295893867e-10 5.933382445438615e-10 1.415615041435863e-10
        </DataArray>
        <DataArray type="Float64" Name="gradient_matprop_error" format="ascii" RangeMin="0" RangeMax="0">
          0 0 0 0 0 0
          0 0 0 0 0 0
          0 0 0 0 0 0
          0 0 0 0 0 0
          0 0 0 0 0 0
          0 0 0 0 0 0
          0 0 0 0 0 0
          0 0 0 0 0 0
          0 0 0 0 0 0
          0 0 0 0 0 0
          0 0 0 0 0 0
          0 0 0 0 0 0
          0 0 0 0 0 0
          0 0 0 0 0 0
          0 0 0 0 0 0
          0 0 0 0 0 0
          0 0 0 0 0 0
          0 0 0 0 0 0
          0 0 0 0 0 0
          0 0 0 0 0 0
          0 0 0 0 0 0
          0 0 0 0 0 0
          0 0 0 0 0 0
          0 0 0 0 0 0
          0 0 0 0 0 0
          0 0 0 0 0 0
          0 0 0 0 0 0
          0 0 0 0 0 0
          0 0 0 0 0 0
          0 0 0 0 0 0
          0 0 0 0 0 0
          0 0 0 0 0 0
          0 0 0 0 0 0
          0 0 0 0 0 0
          0 0 0 0 0 0
          0 0 0 0 0 0
          0 0 0 0 0 0
          0 0 0 0 0 0
          0 0 0 0 0 0
          0 0 0 0 0 0
          0 0 0 0 0 0
          0 0 0 0 0 0
          0 0 0 0 0 0
          0 0 0 0 0 0
          0 0 0 0 0 0
          0 0 0 0 0 0
          0 0 0 0 0 0
          0 0 0 0 0 0
          0 0 0 0 0 0
          0 0 0 0 0 0
          0 0 0 0 0 0
          0 0 0 0 0 0
          0 0 0 0 0 0
          0 0 0 0 0 0
          0 0 0 0 0 0
          0 0 0 0 0 0
          0 0 0 0 0 0
          0 0 0 0 0 0
          0 0 0 0 0 0
          0 0 0 0 0 0
          0 0 0 0 0 0
          0 0 0 0 0 0
          0 0 0 0 0 0
          0 0 0 0 0 0
          0 0 0 0 0 0
          0 0 0 0 0 0
          0 0 0 0 0 0
          0 0 0 0 0 0
          0 0 0 0 0 0
          0 0 0 0 0 0
          0 0 0 0 0 0
          0 0 0 0 0 0
        </DataArray>
        <DataArray type="Float64" Name="initial_marker" format="ascii" RangeMin="0" RangeMax="2">
          0 0 0 0 0 0
          0 0 0 0 0 0
          0 0 0 0 0 0
          0 0 0 0 0 0
          0 0 0 0 0 0
          0 0 0 0 0 0
          0 0 0 0 0 0
          0 0 0 0 0 0
          0 0 0 0 2 0
          0 0 0 0 0 0
          0 0 0 0 0 0
          0 0 0 0 0 0
          0 0 0 0 0 0
          0 0 0 0 0 0
          0 0 2 1 0 2
          0 0 0 0 0 0
          0 0 0 0 0 0
          0 0 0 0 0 0
          0 0 0 0 0 0
          0 0 0 0 0 0
          0 0 0 0 0 0
          0 0 0 0 0 0
          0 0 0 0 0 0
          0 0 0 0 0 0
          0 0 0 0 0 0
          0 0 0 0 0.5 0.25
          0 2 0 0 0 0
          2 2 2 2 0.25 0
          0.5 0 0 0 0 0
          0 0 0 0 0 0.5
          0.5 0 0 2 1.75 0
          0 0.5 0 2 2 0
          0.5 0 0 0 0 0
          0 0 0 0 0 0
          0 0 0 0 0 0
          0 0 0 0 0 0
          0 0 0 0 0 0
          0 0 0 0 0 0
          0 0 0 0 0 0
          0 0 0 0 0 0
          0 0 0 0 0 0
          1 1.5 1.5 1.25 2 2
          2 2 0 0.75 0.3333333333333333 2
          1.75 1.75 1 0.3333333333333333 0.5 2
          2 2 2 2 2 2
          2 2 2 2 2 2
          1.75 2 2 2 2 2
          2 2 2 2 2 2
          2 2 2 2 2 2
          2 2 2 1.5 0.75 1
          0 1.75 1.25 1.5 2 1.5
          2 1 2 1.5 2 0
          0 0.5 0.5 0 0 0
          0 0.5 0 1.5 1.5 0.6666666666666666
          1.5 0 0.25 0 0 0
          0 0 1 0.5 0.3333333333333333 2
          2 1.5 1.5 2 1.6666666666666667 2
          2 2 2 0 0 0.5
          0.5 0 0 0 0 0.5
          0 1 1 0 1 1.75
          1.5 1 0.5 2 1.6666666666666667 1.5
          2 2 2 2 2 2
          2 2 2 2 1 1
          0 0 1 0 1 1
          0 1 2 1.5 1.5 0.6666666666666666
          2 1.5 1.5 0.5 0.5 0
          0 0 0 0 0.5 0
          0 0 0.25 0 0 0
          0 0 0.5 0 0 0.5
          0 0 0 0.5 0 0
          0 0 0 0 0 0
          0 0 0 0 0 0
        </DataArray>
        <DataArray type="Float64" Name="markers_norefine" format="ascii" RangeMin="0" RangeMax="0">
          0 0 0 0 0 0
          0 0 0 0 0 0
          0 0 0 0 0 0
          0 0 0 0 0 0
          0 0 0 0 0 0
          0 0 0 0 0 0
          0 0 0 0 0 0
          0 0 0 0 0 0
          0 0 0 0 0 0
          0 0 0 0 0 0
          0 0 0 0 0 0
          0 0 0 0 0 0
          0 0 0 0 0 0
          0 0 0 0 0 0
          0 0 0 0 0 0
          0 0 0 0 0 0
          0 0 0 0 0 0
          0 0 0 0 0 0
          0 0 0 0 0 0
          0 0 0 0 0 0
          0 0 0 0 0 0
          0 0 0 0 0 0
          0 0 0 0 0 0
          0 0 0 0 0 0
          0 0 0 0 0 0
          0 0 0 0 0 0
          0 0 0 0 0 0
          0 0 0 0 0 0
          0 0 0 0 0 0
          0 0 0 0 0 0
          0 0 0 0 0 0
          0 0 0 0 0 0
          0 0 0 0 0 0
          0 0 0 0 0 0
          0 0 0 0 0 0
          0 0 0 0 0 0
          0 0 0 0 0 0
          0 0 0 0 0 0
          0 0 0 0 0 0
          0 0 0 0 0 0
          0 0 0 0 0 0
          0 0 0 0 0 0
          0 0 0 0 0 0
          0 0 0 0 0 0
          0 0 0 0 0 0
          0 0 0 0 0 0
          0 0 0 0 0 0
          0 0 0 0 0 0
          0 0 0 0 0 0
          0 0 0 0 0 0
          0 0 0 0 0 0
          0 0 0 0 0 0
          0 0 0 0 0 0
          0 0 0 0 0 0
          0 0 0 0 0 0
          0 0 0 0 0 0
          0 0 0 0 0 0
          0 0 0 0 0 0
          0 0 0 0 0 0
          0 0 0 0 0 0
          0 0 0 0 0 0
          0 0 0 0 0 0
          0 0 0 0 0 0
          0 0 0 0 0 0
          0 0 0 0 0 0
          0 0 0 0 0 0
          0 0 0 0 0 0
          0 0 0 0 0 0
          0 0 0 0 0 0
          0 0 0 0 0 0
          0 0 0 0 0 0
          0 0 0 0 0 0
        </DataArray>
        <DataArray type="Float64" Name="markers_mustrefine" format="ascii" RangeMin="0" RangeMax="2">
          0 0 0 0 0 0
          0 0 0 0 0 0
          0 0 0 0 0 0
          0 0 0 0 0 0
          0 0 0 0 0 0
          0 0 0 0 0 0
          0 0 0 0 0 0
          0 0 0 0 0 0
          0 0 0 0 2 0
          0 0 0 0 0 0
          0 0 0 0 0 0
          0 0 0 0 0 0
          0 0 0 0 0 0
          0 0 0 0 0 0
          0 0 2 1 0 2
          0 0 0 0 0 0
          0 0 0 0 0 0
          0 0 0 0 0 0
          0 0 0 0 0 0
          0 0 0 0 0 0
          0 0 0 0 0 0
          0 0 0 0 0 0
          0 0 0 0 0 0
          0 0 0 0 0 0
          0 0 0 0 0 0
          0 0 0 0 0.5 0.25
          0 2 0 0 0 0
          2 2 2 2 0.25 0
          0.5 0 0 0 0 0
          0 0 0 0 0 0.5
          0.5 0 0 2 1.75 0
          0 0.5 0 2 2 0
          0.5 0 0 0 0 0
          0 0 0 0 0 0
          0 0 0 0 0 0
          0 0 0 0 0 0
          0 0 0 0 0 0
          0 0 0 0 0 0
          0 0 0 0 0 0
          0 0 0 0 0 0
          0 0 0 0 0 0
          1 1.5 1.5 1.25 2 2
          2 2 0 0.75 0.3333333333333333 2
          1.75 1.75 1 0.3333333333333333 0.5 2
          2 2 2 2 2 2
          2 2 2 2 2 2
          1.75 2 2 2 2 2
          2 2 2 2 2 2
          2 2 2 2 2 2
          2 2 2 1.5 0.75 1
          0 1.75 1.25 1.5 2 1.5
          2 1 2 1.5 2 0
          0 0.5 0.5 0 0 0
          0 0.5 0 1.5 1.5 0.6666666666666666
          1.5 0 0.25 0 0 0
          0 0 1 0.5 0.3333333333333333 2
          2 1.5 1.5 2 1.6666666666666667 2
          2 2 2 0 0 0.5
          0.5 0 0 0 0 0.5
          0 1 1 0 1 1.75
          1.5 1 0.5 2 1.6666666666666667 1.5
          2 2 2 2 2 2
          2 2 2 2 1 1
          0 0 1 0 1 1
          0 1 2 1.5 1.5 0.6666666666666666
          2 1.5 1.5 0.5 0.5 0
          0 0 0 0 0.5 0
          0 0 0.25 0 0 0
          0 0 0.5 0 0 0.5
          0 0 0 0.5 0 0
          0 0 0 0 0 0
          0 0 0 0 0 0
        </DataArray>
        <DataArray type="Float64" Name="gradient_marker" format="ascii" RangeMin="1" RangeMax="1">
          1 1 1 1 1 1
          1 1 1 1 1 1
          1 1 1 1 1 1
          1 1 1 1 1 1
          1 1 1 1 1 1
          1 1 1 1 1 1
          1 1 1 1 1 1
          1 1 1 1 1 1
          1 1 1 1 1 1
          1 1 1 1 1 1
          1 1 1 1 1 1
          1 1 1 1 1 1
          1 1 1 1 1 1
          1 1 1 1 1 1
          1 1 1 1 1 1
          1 1 1 1 1 1
          1 1 1 1 1 1
          1 1 1 1 1 1
          1 1 1 1 1 1
          1 1 1 1 1 1
          1 1 1 1 1 1
          1 1 1 1 1 1
          1 1 1 1 1 1
          1 1 1 1 1 1
          1 1 1 1 1 1
          1 1 1 1 1 1
          1 1 1 1 1 1
          1 1 1 1 1 1
          1 1 1 1 1 1
          1 1 1 1 1 1
          1 1 1 1 1 1
          1 1 1 1 1 1
          1 1 1 1 1 1
          1 1 1 1 1 1
          1 1 1 1 1 1
          1 1 1 1 1 1
          1 1 1 1 1 1
          1 1 1 1 1 1
          1 1 1 1 1 1
          1 1 1 1 1 1
          1 1 1 1 1 1
          1 1 1 1 1 1
          1 1 1 1 1 1
          1 1 1 1 1 1
          1 1 1 1 1 1
          1 1 1 1 1 1
          1 1 1 1 1 1
          1 1 1 1 1 1
          1 1 1 1 1 1
          1 1 1 1 1 1
          1 1 1 1 1 1
          1 1 1 1 1 1
          1 1 1 1 1 1
          1 1 1 1 1 1
          1 1 1 1 1 1
          1 1 1 1 1 1
          1 1 1 1 1 1
          1 1 1 1 1 1
          1 1 1 1 1 1
          1 1 1 1 1 1
          1 1 1 1 1 1
          1 1 1 1 1 1
          1 1 1 1 1 1
          1 1 1 1 1 1
          1 1 1 1 1 1
          1 1 1 1 1 1
          1 1 1 1 1 1
          1 1 1 1 1 1
          1 1 1 1 1 1
          1 1 1 1 1 1
          1 1 1 1 1 1
          1 1 1 1 1 1
        </DataArray>
        <DataArray type="Float64" Name="gradient_matprop_marker" format="ascii" RangeMin="0" RangeMax="0">
          0 0 0 0 0 0
          0 0 0 0 0 0
          0 0 0 0 0 0
          0 0 0 0 0 0
          0 0 0 0 0 0
          0 0 0 0 0 0
          0 0 0 0 0 0
          0 0 0 0 0 0
          0 0 0 0 0 0
          0 0 0 0 0 0
          0 0 0 0 0 0
          0 0 0 0 0 0
          0 0 0 0 0 0
          0 0 0 0 0 0
          0 0 0 0 0 0
          0 0 0 0 0 0
          0 0 0 0 0 0
          0 0 0 0 0 0
          0 0 0 0 0 0
          0 0 0 0 0 0
          0 0 0 0 0 0
          0 0 0 0 0 0
          0 0 0 0 0 0
          0 0 0 0 0 0
          0 0 0 0 0 0
          0 0 0 0 0 0
          0 0 0 0 0 0
          0 0 0 0 0 0
          0 0 0 0 0 0
          0 0 0 0 0 0
          0 0 0 0 0 0
          0 0 0 0 0 0
          0 0 0 0 0 0
          0 0 0 0 0 0
          0 0 0 0 0 0
          0 0 0 0 0 0
          0 0 0 0 0 0
          0 0 0 0 0 0
          0 0 0 0 0 0
          0 0 0 0 0 0
          0 0 0 0 0 0
          0 0 0 0 0 0
          0 0 0 0 0 0
          0 0 0 0 0 0
          0 0 0 0 0 0
          0 0 0 0 0 0
          0 0 0 0 0 0
          0 0 0 0 0 0
          0 0 0 0 0 0
          0 0 0 0 0 0
          0 0 0 0 0 0
          0 0 0 0 0 0
          0 0 0 0 0 0
          0 0 0 0 0 0
          0 0 0 0 0 0
          0 0 0 0 0 0
          0 0 0 0 0 0
          0 0 0 0 0 0
          0 0 0 0 0 0
          0 0 0 0 0 0
          0 0 0 0 0 0
          0 0 0 0 0 0
          0 0 0 0 0 0
          0 0 0 0 0 0
          0 0 0 0 0 0
          0 0 0 0 0 0
          0 0 0 0 0 0
          0 0 0 0 0 0
          0 0 0 0 0 0
          0 0 0 0 0 0
          0 0 0 0 0 0
          0 0 0 0 0 0
        </DataArray>
        <DataArray type="Float64" Name="combo" format="ascii" RangeMin="1" RangeMax="1">
          1 1 1 1 1 1
          1 1 1 1 1 1
          1 1 1 1 1 1
          1 1 1 1 1 1
          1 1 1 1 1 1
          1 1 1 1 1 1
          1 1 1 1 1 1
          1 1 1 1 1 1
          1 1 1 1 1 1
          1 1 1 1 1 1
          1 1 1 1 1 1
          1 1 1 1 1 1
          1 1 1 1 1 1
          1 1 1 1 1 1
          1 1 1 1 1 1
          1 1 1 1 1 1
          1 1 1 1 1 1
          1 1 1 1 1 1
          1 1 1 1 1 1
          1 1 1 1 1 1
          1 1 1 1 1 1
          1 1 1 1 1 1
          1 1 1 1 1 1
          1 1 1 1 1 1
          1 1 1 1 1 1
          1 1 1 1 1 1
          1 1 1 1 1 1
          1 1 1 1 1 1
          1 1 1 1 1 1
          1 1 1 1 1 1
          1 1 1 1 1 1
          1 1 1 1 1 1
          1 1 1 1 1 1
          1 1 1 1 1 1
          1 1 1 1 1 1
          1 1 1 1 1 1
          1 1 1 1 1 1
          1 1 1 1 1 1
          1 1 1 1 1 1
          1 1 1 1 1 1
          1 1 1 1 1 1
          1 1 1 1 1 1
          1 1 1 1 1 1
          1 1 1 1 1 1
          1 1 1 1 1 1
          1 1 1 1 1 1
          1 1 1 1 1 1
          1 1 1 1 1 1
          1 1 1 1 1 1
          1 1 1 1 1 1
          1 1 1 1 1 1
          1 1 1 1 1 1
          1 1 1 1 1 1
          1 1 1 1 1 1
          1 1 1 1 1 1
          1 1 1 1 1 1
          1 1 1 1 1 1
          1 1 1 1 1 1
          1 1 1 1 1 1
          1 1 1 1 1 1
          1 1 1 1 1 1
          1 1 1 1 1 1
          1 1 1 1 1 1
          1 1 1 1 1 1
          1 1 1 1 1 1
          1 1 1 1 1 1
          1 1 1 1 1 1
          1 1 1 1 1 1
          1 1 1 1 1 1
          1 1 1 1 1 1
          1 1 1 1 1 1
          1 1 1 1 1 1
        </DataArray>
        <DataArray type="Float64" Name="dHdT" format="ascii" RangeMin="25.811444260083555" RangeMax="25.89671020195651">
          25.81146098622896 25.811477669965775 25.811468384249533 25.811468540625853 25.811469609481854 25.811469129007005
          25.81147067306828 25.811468587555034 25.811468648532156 25.811533693266288 25.811486723359334 25.811478432386572
          25.811475129626672 25.811475429112015 25.811473974453726 25.81147098459836 25.81147239325452 25.811472519795434
          25.81148791370133 25.812294817686915 25.811477074804856 25.811491341359083 25.811534096632936 25.8115261997412
          25.811530195767112 25.811492399451268 25.811563005529738 25.811489740378352 25.811473903873107 25.811474255400874
          25.811477874784774 25.811480417410433 25.811472115160534 25.81147666596369 25.811476492216954 25.811474606928638
          25.81148104100557 25.81147631847022 25.811482508705446 25.81148744070064 25.811480869273375 25.8114874750825
          25.811549275856724 25.81162155189072 25.812434799972827 25.811961219521468 25.811529787346885 25.811522834544625
          25.811539332766134 25.811734608451147 25.811892571204044 25.81157938308559 25.845539310332452 25.812729842416708
          25.811542924362296 25.812007901540667 25.811458827829725 25.81145154395664 25.811472385201792 25.811469336047946
          25.811475675281088 25.811474421644437 25.811470319909738 25.811444260083555 25.811466286894102 25.811473168007787
          25.811530769458294 25.812058240673032 25.81227224080015 25.811545199174425 25.81248624092727 25.811487259622705
          25.811492918959566 25.81148677906261 25.811494313006516 25.811486093792794 25.81148291874075 25.81148728657794
          25.811498578296426 25.811501613821527 25.81149165441513 25.81148602862978 25.811495898471374 25.811488479363085
          25.811504649346624 25.812148776898415 25.82016430175777 25.814284981573927 25.812326690495226 25.81993031588437
          25.811616525625954 25.811607019461736 25.81177346628067 25.81172043265708 25.811534767509613 25.81153502458105
          25.811537283777017 25.81162488070898 25.81165047861549 25.81154835611227 25.81207091673896 25.811791612674114