<?xml version="1.0"?>
<VTKFile type="UnstructuredGrid" version="0.1" byte_order="LittleEndian" header_type="UInt32" compressor="vtkZLibDataCompressor">
  <UnstructuredGrid>
    <Piece NumberOfPoints="359" NumberOfCells="200">
      <PointData>
        <DataArray type="Int32" Name="libmesh_node_id" format="ascii" RangeMin="192" RangeMax="2035">
          577 578 579 580 584 585
          587 588 590 601 602 605
          607 608 610 625 626 632
          1024 1025 1026 1027 1028 1029
          1031 1106 1107 1108 1109 1110
          1111 1112 1113 1114 1115 1116
          1117 1120 1122 1123 1125 1126
          1127 1128 1129 1130 1131 1132
          1133 1134 1135 1136 1137 1140
          1141 1143 1145 1146 1147 1148
          1149 1150 1151 1152 1153 1154
          1155 1156 1157 1160 1162 1163
          1165 1166 1167 1168 1169 1170
          1171 1172 1173 1175 1177 1179
          1852 1854 1856 1858 1859 1860
          1861 1862 1863 1864 1865 1866
          1867 1868 1869 1870 1871 1872
          1873 1874 1875 1876 1877 1879
          1880 1881 1882 1883 1885 1886
          1887 1888 1889 1890 1891 1892
          1893 1894 1895 1896 1897 1898
          1899 1900 1901 1902 1903 1904
          1905 1906 1907 1908 1909 1910
          1911 1912 1913 1914 1915 1916
          1917 1918 1919 1920 1921 1922
          1923 1924 1925 1926 1927 1928
          1929 1930 1931 1932 1933 1934
          1935 1936 1937 1938 1939 1940
          1941 1942 1943 1944 1945 1946
          1947 1948 1949 1950 1951 1952
          1953 1954 1955 1956 1957 1958
          1959 1960 1961 1962 1963 1964
          1965 1968 1970 1971 1973 1974
          1975 1976 1977 1978 1979 1980
          1981 1983 1985 1987 1988 1989
          1990 1991 1992 1993 1994 1995
          1996 1997 1998 1999 2002 2004
          2005 2007 2008 2009 2010 2011
          2012 2013 2014 2015 2017 2019
          2021 2022 2023 2025 2026 2027
          2028 2029 2031 2033 2035 426
          430 431 427 332 234 336
          333 566 567 568 581 582
          583 572 586 334 575 337
          589 335 338 615 596 616
          627 606 628 343 623 344
          633 1022 1044 1045 1047 593
          1050 594 1030 1118 1119 1121
          603 1124 604 1064 1065 1068
          1070 1138 1139 1142 1144 1087
          1100 1102 599 1104 1161 1174
          1176 1178 1811 1085 1822 1821
          1838 1839 1851 1823 1853 1843
          1090 1855 1857 1735 1804 1805
          1807 1084 1810 1739 1818 1820
          1836 1837 342 1842 1878 1966
          1967 1969 1158 1972 1159 1884
          1982 1984 1986 2000 2001 2003
          192 2006 1164 2016 2018 2020
          609 2024 2030 2032 2034
        </DataArray>
        <DataArray type="Float64" Name="bounds" format="ascii" RangeMin="0" RangeMax="0">
          0 0 0 0 0 0
          0 0 0 0 0 0
          0 0 0 0 0 0
          0 0 0 0 0 0
          0 0 0 0 0 0
          0 0 0 0 0 0
          0 0 0 0 0 0
          0 0 0 0 0 0
          0 0 0 0 0 0
          0 0 0 0 0 0
          0 0 0 0 0 0
          0 0 0 0 0 0
          0 0 0 0 0 0
          0 0 0 0 0 0
          0 0 0 0 0 0
          0 0 0 0 0 0
          0 0 0 0 0 0
          0 0 0 0 0 0
          0 0 0 0 0 0
          0 0 0 0 0 0
          0 0 0 0 0 0
          0 0 0 0 0 0
          0 0 0 0 0 0
          0 0 0 0 0 0
          0 0 0 0 0 0
          0 0 0 0 0 0
          0 0 0 0 0 0
          0 0 0 0 0 0
          0 0 0 0 0 0
          0 0 0 0 0 0
          0 0 0 0 0 0
          0 0 0 0 0 0
          0 0 0 0 0 0
          0 0 0 0 0 0
          0 0 0 0 0 0
          0 0 0 0 0 0
          0 0 0 0 0 0
          0 0 0 0 0 0
          0 0 0 0 0 0
          0 0 0 0 0 0
          0 0 0 0 0 0
          0 0 0 0 0 0
          0 0 0 0 0 0
          0 0 0 0 0 0
          0 0 0 0 0 0
          0 0 0 0 0 0
          0 0 0 0 0 0
          0 0 0 0 0 0
          0 0 0 0 0 0
          0 0 0 0 0 0
          0 0 0 0 0 0
          0 0 0 0 0 0
          0 0 0 0 0 0
          0 0 0 0 0 0
          0 0 0 0 0 0
          0 0 0 0 0 0
          0 0 0 0 0 0
          0 0 0 0 0 0
          0 0 0 0 0 0
          0 0 0 0 0
        </DataArray>
        <DataArray type="Float64" Name="gradient_error" format="ascii" RangeMin="4.4749451405174614e-9" RangeMax="3.4991603337556896e-7">
          1.6338905543216587e-8 2.2127111054294957e-8 1.6308937952740055e-7 1.35025331177928e-7 2.7915316565373327e-8 1.0696128282845547e-7
          2.2768574518038866e-7 1.779357232193789e-7 1.674907329790312e-7 1.239885893193713e-7 1.5361016232506312e-7 2.445685450900426e-7
          8.87127975971969e-9 1.3060850060313462e-7 3.268232011004746e-7 1.508318007790884e-7 2.0886823751803196e-7 2.669046742569755e-7
          1.419949791281986e-7 1.3292749061995854e-7 1.352570988418074e-7 1.0880391357211848e-7 1.4603232854396987e-7 1.3459166980483743e-7
          1.0457865246927783e-7 1.7140459317025209e-7 1.6387539786116129e-7 1.8505314393191036e-7 1.7540848507994238e-7 1.4013443177261102e-7
          1.458525070405173e-7 1.1138754561645547e-7 1.0968561779780361e-7 1.2150299440499994e-7 1.4156854404331078e-7 1.989006362818251e-7
          1.865537281596099e-7 1.499610963760434e-7 1.3935466540121436e-7 1.3487581228308823e-7 1.6564464146270016e-7 8.003434582781993e-8
          1.0379661978012175e-7 7.58664766031332e-8 1.0283648732390042e-7 6.63208666231214e-8 8.367057856709201e-8 7.973178679474061e-8
          1.496317662066647e-7 1.5665201169170103e-7 1.2329265873422141e-7 7.01661518675715e-8 9.99240628526352e-8 5.4326009862292285e-8
          7.413275299057825e-8 1.6171788630237774e-7 1.2148957439897298e-7 1.0170230752333716e-8 1.4894141457988094e-8 1.3660589153639675e-8
          1.760597850096564e-8 1.1447133298231356e-7 1.2777540879655242e-7 6.335424540740008e-9 1.0282088373070994e-8 1.4044565811424512e-8
          1.1599449123647283e-7 1.865209257844788e-8 2.2465427190007076e-8 1.1130927967479021e-7 1.237542562616555e-8 1.9413285839089503e-8
          8.565052061509624e-8 1.8143950069646427e-7 1.9615114085819602e-7 1.5824683715742988e-7 1.6395199126983672e-7 1.9117436271202265e-7
          2.0880475637765756e-7 1.7092864735747959e-7 1.7874018551962828e-7 1.6633386429850722e-7 1.6403247170309022e-7 1.836280759179327e-7
          1.6090483292453645e-8 2.0304868536052288e-8 1.485545949510432e-8 2.1319978699160405e-8 2.181731453795337e-8 2.2659757719336362e-8
          2.3264664043885636e-8 2.2553935187326306e-8 2.3499216612586384e-8 2.453149199043692e-8 2.5932033168538484e-8 2.411534055458018e-8
          2.5618627695511643e-8 2.4016003398135418e-8 2.7281252796004492e-8 2.9142240880208737e-8 2.7142937292778483e-8 2.4851610539082494e-8
          2.601314292574908e-8 2.8055088315129427e-8 2.9170628911132908e-8 2.9477238863792632e-8 3.057692655845117e-8 3.3665120086439927e-8
          3.117296035776272e-8 3.336271334311431e-8 3.1179338205675296e-8 3.575547865915716e-8 3.5857331398544186e-8 1.6125941802813783e-8
          1.72371344933177e-8 1.6803479215873228e-8 1.7916534318844087e-8 2.02173229316196e-8 2.108526739045322e-8 9.089865906477952e-9
          1.031745336579931e-8 1.1283833326953507e-8 1.4210823734444136e-8 1.7844200753158855e-8 1.891049835707956e-8 1.931877669917513e-8
          2.031232023729491e-8 2.218915445363727e-8 2.3577507381410604e-8 1.171611478445202e-8 1.2702947165603765e-8 1.4580500788261205e-8
          1.600888854062166e-8 2.312154948974229e-8 2.4412130140564435e-8 2.415678030006699e-8 2.5683314922037367e-8 1.9963581234904423e-8
          2.0850674371765693e-8 2.3050555826041247e-8 2.586935001940334e-8 2.751281845347211e-8 2.7337187092532396e-8 2.91764859195377e-8
          2.1992824438557642e-8 2.3456035862799036e-8 2.5657651342627473e-8 6.295808515203116e-9 7.181095504255762e-9 7.514905817133191e-9
          8.497825143976953e-9 1.0095386910616133e-8 1.1223883500691918e-8 5.34379012391749e-9 6.384238725594935e-9 7.601294552398711e-9
          8.939108171697558e-9 8.898120799365344e-9 1.0032431871108317e-8 1.0478716146381742e-8 1.1833220864734103e-8 1.2784105339629266e-8
          1.4773812771228571e-8 7.498478348818056e-9 8.980749512581836e-9 1.0598588637098704e-8 1.1996709336751275e-8 1.6552188260110764e-8
          1.7314337226073216e-8 2.0979985192297673e-8 2.1661651921583308e-8 1.5304972475317073e-8 1.6132958294232263e-8 2.015641593451141e-8
          1.8455758410629508e-8 2.0052678524625113e-8 2.2510049084851774e-8 2.3745457089879555e-8 1.738331518694592e-8 1.907668135038764e-8
          2.123623237673491e-8 2.1292079157589446e-8 2.2208877444702406e-8 2.376822191185125e-8 2.4635046600268632e-8 2.5355414483154363e-8
          2.7633292446296724e-8 1.5964520447168026e-8 1.690990373062781e-8 1.9686104114391186e-8 1.9742698445592478e-8 2.6731466304351643e-8
          2.7591301294001535e-8 3.0384942965772876e-8 2.183255069302586e-8 2.2994438313880924e-8 2.579615219947573e-8 2.939784659756788e-8
          3.161342693659595e-8 3.12105399606424e-8 3.346214026928447e-8 2.5348585499007522e-8 2.770678039385403e-8 2.906706112091768e-8
          3.416274980843913e-8 3.600674996898395e-8 3.053133690451112e-8 3.46210557420903e-8 1.2341515227083088e-8 1.3969197247267818e-8
          1.4541776871053588e-8 1.6490484462998346e-8 1.721004426828543e-8 2.015669668915213e-8 1.0486537335926533e-8 1.2523198996935749e-8
          1.4823765582622168e-8 1.6474891700561726e-8 1.7107369589841796e-8 1.9465305470496088e-8 2.3732406336760286e-8 1.4535331538542531e-8
          1.754741034278224e-8 2.2977274119674932e-8 2.21620084500716e-8 2.4675279929920598e-8 2.5500807631024887e-8 3.026771312463592e-8
          2.1249578739501208e-8 2.380113960221071e-8 2.4109234735823926e-8 2.764921710014039e-8 3.361186443527528e-8 2.6805781348979634e-8
          3.337022952712696e-8 3.442226276254346e-8 3.5760562958720407e-8 3.491134938078344e-8 3.5173011411833216e-8 3.449560052271875e-8
          3.592376006112297e-8 3.643322414303673e-8 3.5299582293433505e-8 3.710588532735306e-8 3.5687815206083565e-8 1.2483584129815369e-8
          8.576271122702323e-9 7.964733563707255e-9 1.0981016411645131e-8 2.683783682288659e-8 1.0575821424250427e-8 5.0174997370453665e-8
          5.1223984763175896e-8 3.534332149647686e-8 2.0029451181009538e-7 1.681342691706526e-7 1.2198617463344197e-8 1.196505025937304e-7
          9.752870548895029e-8 1.0968940303292588e-7 7.54069083841702e-8 2.523904376903941e-7 2.0433152265875377e-7 1.8726574842406336e-7
          1.404249801378979e-7 1.9112178042431703e-7 1.3099194657726566e-7 1.45939692356564e-7 2.7269349939318245e-7 2.5238854653399934e-7
          1.0808919063351199e-7 1.9770200706250167e-7 1.55459957643192e-7 3.4991603337556896e-7 3.1550681283735075e-7 2.7740878711437056e-7
          2.028307246528721e-7 1.2864371656551286e-7 1.5865737248220745e-7 1.5271736923514235e-7 1.3353877017178654e-7 1.0071165182577769e-7
          9.942477332957983e-8 1.303293142285335e-7 1.2961577727016163e-7 2.1142741547489943e-7 1.9576429400464083e-7 1.511713785616821e-7
          1.5675114216203085e-7 1.4918399146280164e-7 1.760043204579371e-7 8.23465722472546e-8 1.0297712436314524e-7 8.565407437079463e-8
          1.4180627178601237e-7 6.265613676288793e-8 9.441135967665822e-8 6.658113476433446e-8 1.6311987392958196e-7 1.0315234841808674e-7
          1.6760725544414167e-7 1.5077705629289475e-7 1.0431439752913174e-7 1.752096437952945e-7 9.240037716938978e-8 1.5473285779848102e-7
          1.627145694830224e-7 1.0956541403575123e-7 1.4032482550901157e-8 1.388352131117063e-8 1.926694006403453e-8 1.8800912355058492e-8
          9.182187780173837e-9 9.41536954004813e-9 1.5859050475808935e-8 2.066249035827971e-8 1.955610086067395e-8 7.581336364980849e-9
          8.043332687263323e-9 1.4664168951648935e-8 1.923532478313149e-8 2.0946628344100073e-8 1.571927806577744e-8 1.6785858307648153e-8
          1.9519080491948067e-8 8.434241288416018e-9 9.767323011736549e-9 2.2735582620759985e-8 2.197197782951304e-8 2.27582332246488e-8
          5.257019658198231e-9 6.105830344719744e-9 4.4749451405174614e-9 5.3021029371626224e-9 3.359449164784834e-8 3.0258598936677115e-8
          3.113412492054278e-8 3.359160235993622e-8 2.557443526604594e-8 2.6926329220165967e-8 2.974265813302099e-8 3.8399738726746376e-8
          3.70264099639647e-8 3.8879266112465394e-8 3.3932242441533917e-8 2.0014083905709745e-8 2.2932862742481755e-8 2.797559122498083e-8
          1.6896793168080545e-8 2.0686825237868794e-8 2.719389871730889e-8 3.140702497860448e-8 3.673546614504079e-8 3.060264627532415e-8
          3.6628080225895105e-8 3.815882194553031e-8 3.8847946211553686e-8 3.693946921952687e-8 3.953707047757706e-8
        </DataArray>
        <DataArray type="Float64" Name="gradient_matprop_error" format="ascii" RangeMin="0" RangeMax="0">
          0 0 0 0 0 0
          0 0 0 0 0 0
          0 0 0 0 0 0
          0 0 0 0 0 0
          0 0 0 0 0 0
          0 0 0 0 0 0
          0 0 0 0 0 0
          0 0 0 0 0 0
          0 0 0 0 0 0
          0 0 0 0 0 0
          0 0 0 0 0 0
          0 0 0 0 0 0
          0 0 0 0 0 0
          0 0 0 0 0 0
          0 0 0 0 0 0
          0 0 0 0 0 0
          0 0 0 0 0 0
          0 0 0 0 0 0
          0 0 0 0 0 0
          0 0 0 0 0 0
          0 0 0 0 0 0
          0 0 0 0 0 0
          0 0 0 0 0 0
          0 0 0 0 0 0
          0 0 0 0 0 0
          0 0 0 0 0 0
          0 0 0 0 0 0
          0 0 0 0 0 0
          0 0 0 0 0 0
          0 0 0 0 0 0
          0 0 0 0 0 0
          0 0 0 0 0 0
          0 0 0 0 0 0
          0 0 0 0 0 0
          0 0 0 0 0 0
          0 0 0 0 0 0
          0 0 0 0 0 0
          0 0 0 0 0 0
          0 0 0 0 0 0
          0 0 0 0 0 0
          0 0 0 0 0 0
          0 0 0 0 0 0
          0 0 0 0 0 0
          0 0 0 0 0 0
          0 0 0 0 0 0
          0 0 0 0 0 0
          0 0 0 0 0 0
          0 0 0 0 0 0
          0 0 0 0 0 0
          0 0 0 0 0 0
          0 0 0 0 0 0
          0 0 0 0 0 0
          0 0 0 0 0 0
          0 0 0 0 0 0
          0 0 0 0 0 0
          0 0 0 0 0 0
          0 0 0 0 0 0
          0 0 0 0 0 0
          0 0 0 0 0 0
          0 0 0 0 0
        </DataArray>
        <DataArray type="Float64" Name="initial_marker" format="ascii" RangeMin="0" RangeMax="2">
          0 0 1 0.5 0 0
          2 1.5 0 2 2 1.5
          2 2 2 0 0.5 1
          2 2 2 2 2 2
          2 2 2 2 2 2
          2 2 2 2 2 2
          2 2 2 2 2 1
          1.5 1 1.5 0 1 1
          2 2 2 1 1.5 0
          1 2 2 2 2 2
          2 2 2 2 2 2
          2 2 2 2 2 2
          2 2 2 2 2 2
          2 2 2 2 2 2
          2 2 2 2 2 2
          2 2 2 2 2 2
          2 2 2 2 2 2
          2 2 2 2 2 2
          2 2 2 2 2 2
          2 2 2 2 2 2
          2 2 2 2 2 2
          2 2 2 2 2 2
          2 2 2 2 2 2
          2 2 2 2 2 2
          2 2 2 2 2 2
          2 2 2 2 2 2
          2 2 2 2 2 2
          2 2 2 2 2 2
          2 2 2 2 2 2
          2 2 2 2 2 2
          2 2 2 2 2 2
          2 2 2 2 2 2
          2 2 2 2 2 2
          2 2 2 2 2 2
          2 2 2 2 2 2
          2 2 2 2 2 2
          2 2 2 2 2 2
          2 2 2 2 2 2
          2 2 2 2 2 2
          2 2 2 2 2 2
          2 2 2 2 2 0
          0 0 0 0 0 0
          0 0 1 0.5 0 1
          0.5 0 0 2 1.5 2
          1.5 0 0.25 0 1.5 0.5
          0 1.5 0.5 2 1 2
          1 2 2 2 2 2
          2 2 2 2 2 2
          2 2 2 1 1.5 1
          2 1.5 1.75 1.5 2 2
          2 2 2 2 2 2
          2 2 2 2 2 2
          2 2 2 2 2 2
          2 2 2 2 2 2
          2 2 2 2 2 2
          2 2 2 2 2 2
          2 2 2 2 2 2
          2 2 2 2 2 2
          2 2 2 2 2 2
          2 2 2 2 2
        </DataArray>
        <DataArray type="Float64" Name="markers_norefine" format="ascii" RangeMin="0" RangeMax="2">
          0 0 0 0 0 0
          0 0 0 1 0 0
          2 1 0 0 0 0
          0 0 0 0 0 0
          0 0 0 0 0 0
          0 1 0.25 0.5 0 0
          0 0 1 1 0 0
          0 0 0 0 0 0
          0 0 0 0 0 0
          0 0 0 2 2 2
          2 0.5 0.75 2 2 2
          1 2 2 1 2 2
          1 0 0 0 0 0
          0 0 0 0 0 0
          1.5 1 2 2 1 1.5
          0 2 2 2 1 0
          0 0 0 0 0 2
          2 2 1.5 2 2 2
          0.5 1 0 1 0 2
          1.5 2 1.75 1 1.25 2
          2 2 2 2 2 2
          2 1.5 1.5 2 2 2
          2 0.5 0.5 0 0 1.25
          1.5 0.5 0.5 0.75 0 0.5
          1.5 1.75 1 2 2 2
          2 2 2 2 2 2
          2 2 2 2 2 2
          2 2 2 2 2 1.75
          2 1.5 2 2 2 2
          2 2 2 2 2 2
          2 2 2 2 2 1.75
          2 2 2 2 2 2
          2 2 2 2 2 1.25
          1.5 1 1 2 2 2
          1.5 1 2 1.3333333333333333 2 2
          2 2 2 2 2 2
          2 2 2 2 2 2
          2 2 2 2 2 1.3333333333333333
          2 2 2 2 1.25 2
          1.5 0 0 0 0 0
          0 0.25 0 0.5 0 0
          0 0 0 0 0 0
          0 0 0 0 0 0
          0 0 0 0 0 0
          0 0 0 0 0 0
          0 0 0 0 0 0
          0 0 0 0 0 0.5
          0 0 0 0 0 0
          1 1 0 0 0 0
          0 0 0 0 0 0
          0 0 1 0 1 0
          0 0 1.75 2 1 0.75
          2 2 1.25 0 0.5 2
          2 1.5 1 0.5 1.5 1.25
          1 2 2 0 0.5 0
          2 2 2 2 2 2
          2 2 2 2 2 1
          1.5 1 2 2 2 2
          2 2 2 2 1.5 2
          2 0 0.5 0 1
        </DataArray>
        <DataArray type="Float64" Name="markers_mustrefine" format="ascii" RangeMin="0" RangeMax="2">
          0 0 1 0.5 0 0
          2 1.5 0 2 2 1.5
          2 2 2 0 0.5 1
          2 2 2 2 2 2
          2 2 2 2 2 2
          2 2 2 2 2 2
          2 2 2 2 2 1
          1.5 1 1.5 0 1 1
          2 2 2 1 1.5 0
          1 2 2 2 2 2
          2 2 2 2 2 2
          2 2 2 2 2 2
          2 2 2 2 2 2
          2 2 2 2 2 2
          2 2 2 2 2 2
          2 2 2 2 2 2
          2 2 2 2 2 2
          2 2 2 2 2 2
          2 2 2 2 2 2
          2 2 2 2 2 2
          2 2 2 2 2 2
          2 2 2 2 2 2
          2 2 2 2 2 2
          2 2 2 2 2 2
          2 2 2 2 2 2
          2 2 2 2 2 2
          2 2 2 2 2 2
          2 2 2 2 2 2
          2 2 2 2 2 2
          2 2 2 2 2 2
          2 2 2 2 2 2
          2 2 2 2 2 2
          2 2 2 2 2 2
          2 2 2 2 2 2
          2 2 2 2 2 2
          2 2 2 2 2 2
          2 2 2 2 2 2
          2 2 2 2 2 2
          2 2 2 2 2 2
          2 2 2 2 2 2
          2 2 2 2 2 0
          0 0 0 0 0 0
          0 0 1 0.5 0 1
          0.5 0 0 2 1.5 2
          1.5 0 0.25 0 1.5 0.5
          0 1.5 0.5 2 1 2
          1 2 2 2 2 2
          2 2 2 2 2 2
          2 2 2 1 1.5 1
          2 1.5 1.75 1.5 2 2
          2 2 2 2 2 2
          2 2 2 2 2 2
          2 2 2 2 2 2
          2 2 2 2 2 2
          2 2 2 2 2 2
          2 2 2 2 2 2
          2 2 2 2 2 2
          2 2 2 2 2 2
          2 2 2 2 2 2
          2 2 2 2 2
        </DataArray>
        <DataArray type="Float64" Name="gradient_marker" format="ascii" RangeMin="0" RangeMax="1">
          0 0 0.5 0.5 0 0.5
          1 0.75 0.6666666666666666 0.5 0.75 0.75
          0 0.5 1 0.5 0.5 0.5
          1 1 1 0.5 1 1
          0.5 1 1 1 1 0.75
          0.75 0.5 0.5 0.5 0.75 1
          1 0.75 0.5 0.5 0.75 0
          0.25 0 0.25 0 0 0
          0.75 0.75 0.5 0 0.25 0
          0 0.75 0.5 0 0 0
          0 0.5 0.5 0 0 0
          0.5 0 0 0.375 0 0
          0.25 1 1 1 1 1
          1 1 0.875 1 0.75 1
          0 0 0 0 0 0
          0 0 0 0 0 0
          0 0 0 0 0 0
          0 0 0 0 0 0
          0 0 0 0 0 0
          0 0 0 0 0 0
          0 0 0 0 0 0
          0 0 0 0 0 0
          0 0 0 0 0 0
          0 0 0 0 0 0
          0 0 0 0 0 0
          0 0 0 0 0 0
          0 0 0 0 0 0
          0 0 0 0 0 0
          0 0 0 0 0 0
          0 0 0 0 0 0
          0 0 0 0 0 0
          0 0 0 0 0 0
          0 0 0 0 0 0
          0 0 0 0 0 0
          0 0 0 0 0 0
          0 0 0 0 0 0
          0 0 0 0 0 0
          0 0 0 0 0 0
          0 0 0 0 0 0
          0 0 0 0 0 0
          0 0 0 0 0 1
          1 1 1 0.5 0.5 0.75
          0.625 0 0.5 0.5 0 0.5
          0.375 0.3333333333333333 0.25 1 0.75 1
          0.625 0.625 0.625 0.3333333333333333 0.75 0.625
          0.5 0.75 0.5 1 0.75 1
          0.5 1 1 1 0.75 0.5
          0.5 0.75 1 1 1 0.75
          0.5 0.5 0.75 0 0.25 0
          0.75 0 0.25 0 0.75 0.5
          1 1 0.5 1 0.25 0.75
          1 0.5 0 0 0 0
          0 0 0 0 0 0
          0 0 0 0 0 0
          0 0 0 0 0 0
          0 0 0 0 0 0
          0 0 0 0 0 0
          0 0 0 0 0 0
          0 0 0 0 0 0
          0 0 0 0 0
        </DataArray>
        <DataArray type="Float64" Name="gradient_matprop_marker" format="ascii" RangeMin="0" RangeMax="0">
          0 0 0 0 0 0
          0 0 0 0 0 0
          0 0 0 0 0 0
          0 0 0 0 0 0
          0 0 0 0 0 0
          0 0 0 0 0 0
          0 0 0 0 0 0
          0 0 0 0 0 0
          0 0 0 0 0 0
          0 0 0 0 0 0
          0 0 0 0 0 0
          0 0 0 0 0 0
          0 0 0 0 0 0
          0 0 0 0 0 0
          0 0 0 0 0 0
          0 0 0 0 0 0
          0 0 0 0 0 0
          0 0 0 0 0 0
          0 0 0 0 0 0
          0 0 0 0 0 0
          0 0 0 0 0 0
          0 0 0 0 0 0
          0 0 0 0 0 0
          0 0 0 0 0 0
          0 0 0 0 0 0
          0 0 0 0 0 0
          0 0 0 0 0 0
          0 0 0 0 0 0
          0 0 0 0 0 0
          0 0 0 0 0 0
          0 0 0 0 0 0
          0 0 0 0 0 0
          0 0 0 0 0 0
          0 0 0 0 0 0
          0 0 0 0 0 0
          0 0 0 0 0 0
          0 0 0 0 0 0
          0 0 0 0 0 0
          0 0 0 0 0 0
          0 0 0 0 0 0
          0 0 0 0 0 0
          0 0 0 0 0 0
          0 0 0 0 0 0
          0 0 0 0 0 0
          0 0 0 0 0 0
          0 0 0 0 0 0
          0 0 0 0 0 0
          0 0 0 0 0 0
          0 0 0 0 0 0
          0 0 0 0 0 0
          0 0 0 0 0 0
          0 0 0 0 0 0
          0 0 0 0 0 0
          0 0 0 0 0 0
          0 0 0 0 0 0
          0 0 0 0 0 0
          0 0 0 0 0 0
          0 0 0 0 0 0
          0 0 0 0 0 0
          0 0 0 0 0
        </DataArray>
        <DataArray type="Float64" Name="combo" format="ascii" RangeMin="0" RangeMax="2">
          0 0 0.5 0.5 0 0.5
          1 0.75 0.6666666666666666 1.5 0.75 0.75
          2 1.5 1 0.5 0.5 0.5
          1 1 1 0.5 1 1
          0.5 1 1 1 1 0.75
          0.75 1.5 0.75 1 0.75 1
          1 0.75 1.5 1.5 0.75 0
          0.25 0 0.25 0 0 0
          0.75 0.75 0.5 0 0.25 0
          0 0.75 0.5 2 2 2
          2 1 1.25 2 2 2
          1.5 2 2 1.375 2 2
          1.25 1 1 1 1 1
          1 1 0.875 1 0.75 1
          1.5 1 2 2 1 1.5
          0 2 2 2 1 0
          0 0 0 0 0 2
          2 2 1.5 2 2 2
          0.5 1 0 1 0 2
          1.5 2 1.75 1 1.25 2
          2 2 2 2 2 2
          2 1.5 1.5 2 2 2
          2 0.5 0.5 0 0 1.25
          1.5 0.5 0.5 0.75 0 0.5
          1.5 1.75 1 2 2 2
          2 2 2 2 2 2
          2 2 2 2 2 2
          2 2 2 2 2 1.75
          2 1.5 2 2 2 2
          2 2 2 2 2 2
          2 2 2 2 2 1.75
          2 2 2 2 2 2
          2 2 2 2 2 1.25
          1.5 1 1 2 2 2
          1.5 1 2 1.3333333333333333 2 2
          2 2 2 2 2 2
          2 2 2 2 2 2
          2 2 2 2 2 1.3333333333333333
          2 2 2 2 1.25 2
          1.5 0 0 0 0 0
          0 0.25 0 0.5 0 1
          1 1 1 0.5 0.5 0.75
          0.625 0 0.5 0.5 0 0.5
          0.375 0.3333333333333333 0.25 1 0.75 1
          0.625 0.625 0.625 0.3333333333333333 0.75 0.625
          0.5 0.75 0.5 1 0.75 1
          0.5 1 1 1 0.75 1
          0.5 0.75 1 1 1 0.75
          1.5 1.5 0.75 0 0.25 0
          0.75 0 0.25 0 0.75 0.5
          1 1 1.5 1 1.25 0.75
          1 0.5 1.75 2 1 0.75
          2 2 1.25 0 0.5 2
          2 1.5 1 0.5 1.5 1.25
          1 2 2 0 0.5 0
          2 2 2 2 2 2
          2 2 2 2 2 1
          1.5 1 2 2 2 2
          2 2 2 2 1.5 2
          2 0 0.5 0 1
        </DataArray>
        <DataArray type="Float64" Name="dHdT" format="ascii" RangeMin="25.809759950189573" RangeMax="86.55960370751173">
          25.90712330001343 25.917957884858126 26.852754541864293 26.627179260283473 25.92879246970282 26.40160397870265
          30.939532463400127 29.46795150073501 27.43776635925313 54.58155352100226 38.41223608680303 30.397319738125457
          46.04168899578341 56.70103661672441 32.098404049693286 26.656528661789487 27.154574926596652 27.652621191403817
          34.51786517303824 33.926680847254154 33.44950244265053 32.1445550399224 33.52726787746265 32.85451538038642
          30.96785155386589 38.74496136285896 37.28606616932061 38.524133370561366 37.24328238459258 34.45044085426602
          34.26983374250686 54.428981639380936 46.08302947642136 49.18168947440298 37.63501550562961 38.01837138684736
          36.72937861424003 33.719895093957874 53.2489327115917 48.95837862388494 38.39831219868362 29.73841007349135
          31.615234836700402 29.2823224115738 31.13432665547362 28.52320658860797 30.156758940651013 29.69141722455732
          35.33586949436492 34.86659448159337 33.14457572315809 28.793176446335494 30.58085067754801 27.832412668249383
          29.162297008812935 34.29469762298231 31.949123382116362 61.41432693780897 70.13233079236937 53.097628804150794
          62.790626752623844 49.498490078612235 50.80267540299054 45.74148629737049 58.53943447919946 49.302645834978875
          56.929418003587124 46.62964434351201 56.16476687522539 51.047278420229205 46.231551704035155 46.00333710818933
          57.87258979026076 38.53577433342526 38.41231401363517 34.96831186628144 34.527223870384404 39.89186927803013
          40.07776996345702 35.43778357894075 37.118998501495284 34.0059773562585 38.043623931917004 34.60588929766075
          76.32296365946519 62.58533086790217 82.30163224680388 61.5913611147668 57.53989050978625 61.17901665343399
          48.76890310642722 66.59203146285043 63.35046843723855 64.21865817101126 55.00328026964642 40.52601132739353
          41.867988701703005 37.00263634673833 44.01560017938203 46.341150219382435 38.13354523109788 65.28859598813438
          63.74775947246703 62.60346154817375 57.70217962980027 62.5873644737462 61.32344130756703 57.227977920844666
          47.40663603265189 47.51009724851955 41.615835762502925 47.951892700782814 41.50734770126415 75.49114865857084
          71.67398527327981 71.57495574392908 70.15782400488538 61.49847403333792 63.156573349363995 67.37760135022222
          69.69504316209323 63.38725200174353 73.55746443273625 66.80860226928456 67.51272962376633 63.252904803214854
          64.58343588100294 63.71004386800249 63.00414103673791 56.37921903011776 58.76761324334613 55.37431315756775
          66.48959830467285 48.2772208929421 50.625931311385294 41.41431560719715 43.67940818988433 64.13766697122712
          65.89911393785803 53.172890050945995 52.60039977770701 53.69932720596913 45.99756879765716 47.30433929725345
          65.60268020382429 63.61910132167905 59.38217125487741 45.48002394058303 49.53718059068416 45.65306720560622
          46.65272431749794 69.09415737679714 62.00577841333295 45.595781383096465 45.49235489395524 45.66757598784562
          65.30143084837042 45.81247455447926 45.841953568844886 45.96332822081109 45.88671063532523 57.058055252460115
          53.100966944511015 45.891684124441696 45.82367146129162 45.97300854650958 53.553721361933114 74.81619461295348
          71.45669805485744 65.03841171309799 66.55422071243868 77.38548574194341 70.49904215506645 69.55703819195998
          67.63911964542514 63.341693852608195 67.03356136914057 66.29154686603371 65.25807825923373 60.502689254414086
          69.16437259274277 58.922722110310374 60.81556403334816 55.55430524511097 57.61670811065508 61.32066715994466
          59.46332408761606 49.29174611013312 51.91705735358361 49.35137366758879 59.21967683940517 54.251943819255736
          55.755142674958016 58.05367781636946 46.06398212543198 48.1731242816211 54.046847807024776 54.11173602345453
          54.05195254767387 48.29054368340569 48.85636789631483 61.49717356716988 59.69576271712532 59.09736205256352
          53.8222762575174 48.795538412956155 58.2183999399797 55.421248186094424 46.094893668210254 46.02666276197887
          46.18531021389428 46.13140802955721 50.03788943039481 48.35936904154212 46.163143348640666 46.102579411019825
          46.190023397073254 46.57557987206833 46.23605480362263 46.198758259812934 47.65172325577575 46.260668521146584
          46.238111998732684 46.089128609396205 59.61251007157727 57.2637054346767 65.1076731381124 59.755372155106386
          57.047509023071946 55.72969328193097 66.98587377540622 55.90337807308781 57.18790783873047 55.06261608046821
          59.28580796064336 42.7781510933258 43.174870687693385 37.33673822454358 44.435009895702784 37.376260589065026
          46.091868698079764 44.54420943041296 37.377374533992366 45.91354817313254 37.41801084344115 25.81166537033854
          25.81031713115695 25.809759950189573 25.81036021754243 25.908938588310285 25.828636288161746 25.85768164652405
          25.898780977590267 26.000887352519392 27.214031456401678 26.918170685032724 25.864068000987253 26.5094632528631
          26.357309514394885 26.49055148207088 26.20515577592667 31.649502290065243 30.223412331850362 30.00971638887802
          28.550701873727885 27.52126364744739 26.6865778028177 26.72486484009652 31.252753155069293 27.588187399500466
          26.37896924341521 29.317014126103132 26.71581013633273 32.909255063590784 28.21571630374602 31.087503000682545
          27.05265102925025 34.32349959257685 38.125338725313554 36.807249224405126 34.492038426123464 48.76323731856196
          42.75091322465637 37.18607717800272 32.12418575357755 37.49375291275724 36.126391586179125 33.05533095450963
          51.6393135970018 48.48158540262767 37.90903964922312 30.15677843154357 32.03589310893959 30.576869089128948
          35.46147689169658 28.292369414080987 29.97336124280838 28.595090836198512 33.605325929434 45.88144270112914
          38.4631212259521 35.34164617729206 56.14675126582334 39.91829645484665 50.72648742057973 35.629596605308954
          33.374699525317766 35.739838507259584 80.66586666393499 77.63710210506093 61.76199594176235 58.34564656150046
          86.55960370751173 77.43408900600197 73.95486329475389 46.24037611105514 57.64406477111339 80.79872863950042