<?xml version="1.0"?>
<VTKFile type="UnstructuredGrid" version="0.1" byte_order="LittleEndian" header_type="UInt32" compressor="vtkZLibDataCompressor">
  <UnstructuredGrid>
    <Piece NumberOfPoints="493" NumberOfCells="314">
      <PointData>
        <DataArray type="Int32" Name="libmesh_node_id" format="ascii" RangeMin="228" RangeMax="4763">
          370 780 782 783 788 789
          1387 1388 1390 1393 1403 1407
          1417 1418 1425 1426 1428 1433
          1434 1440 1443 1444 1445 1446
          1447 1448 1449 1450 1451 1452
          1453 1454 1457 1459 1460 1462
          1463 1464 1467 1468 1470 1474
          3304 3314 3316 3318 3332 3333
          3335 3338 3348 3350 3352 3408
          3410 3412 3422 3426 3436 3438
          3440 3450 3454 3506 3507 3508
          3509 3514 3515 3516 3521 3522
          3523 3564 3565 3566 3567 3574
          3575 3577 3582 3583 3584 3589
          3591 3624 3625 3626 3631 3632
          3633 3634 3635 3638 3639 3641
          3642 3645 3646 3680 3681 3682
          3687 3689 3690 3691 3694 3695
          3697 3701 3709 3710 3711 3712
          3713 3714 3715 3716 3717 3718
          3719 3720 3721 3722 3723 3724
          3725 3726 3727 3728 3729 3730
          3731 3732 3733 3734 3735 3736
          3737 3738 3739 3740 3741 3742
          3743 3744 3745 3746 3747 3748
          3749 3750 3751 3752 3753 3754
          3755 3756 3757 3758 3759 3760
          3761 3762 3763 3764 3765 3766
          3767 3768 3769 3770 3771 3772
          3773 3774 3775 3776 3777 3778
          3779 3780 3781 3782 3783 3786
          3788 3789 3791 3792 3793 3794
          3795 3796 3797 3798 3799 3801
          3803 3805 3806 3807 3808 3809
          3810 3811 3812 3813 3814 3815
          3816 3817 3820 3822 3823 3825
          3826 3827 3828 3829 3830 3831
          3832 3833 3835 3837 3839 3840
          3841 3842 3843 3844 3845 3846
          3847 3848 3849 3850 3851 3852
          3853 3854 3855 3858 3859 3861
          3862 3865 3866 3868 3869 3870
          3871 3872 3873 3874 3875 3876
          3877 3878 3879 3880 3881 3882
          3883 3886 3887 3889 3890 3893
          3894 3896 3897 3898 3899 3900
          3901 3902 3903 3905 3907 3909
          3910 3911 3914 3915 3917 3918
          3921 3922 3924 3925 3926 3927
          3928 3929 3930 3931 3933 3935
          3937 3938 3939 3942 3943 3945
          3946 3949 3950 3492 3500 3501
          3493 1415 3498 3502 3503 3504
          3495 1416 3505 3494 3511 3510
          3499 3513 3512 3517 3518 3519
          3520 3558 3559 3560 3561 3562
          3563 3568 3569 3570 3571 784
          3576 3572 3573 1427 3578 3579
          3580 3581 3585 3586 3590 3587
          3588 785 3621 3620 3623 3622
          3627 3628 3629 3630 3598 1429
          3611 3610 3605 3617 1430 3618
          3619 1431 3643 3637 1432 3644
          3647 1435 786 3676 3677 3678
          3679 3683 3684 3688 3685 3686
          1441 3654 3666 1436 3667 3668
          3692 1438 3693 3696 1442 3661
          3673 1437 3674 3698 3675 3699
          1439 3700 3702 3703 787 3497
          3705 3707 3708 3298 3704 3299
          3706 3301 3784 3785 3787 1455
          3790 1456 3800 3802 3804 1458
          3818 3819 3821 228 3824 1461
          3834 3836 3838 790 3863 3857
          3864 3867 1465 1466 3891 3885
          3892 3895 1469 791 3904 3906
          3908 1471 3912 3913 3916 1472
          3919 3920 3923 1473 3932 3934
          3936 1475 3940 3941 3944 1476
          3947 3948 3951 372 4585 4600
          4714 4726 4602 4728 4718 4730
          4732 4745 4757 4759 4749 4761
          4763
        </DataArray>
        <DataArray type="Float64" Name="bounds" format="ascii" RangeMin="0" RangeMax="0">
          0 0 0 0 0 0
          0 0 0 0 0 0
          0 0 0 0 0 0
          0 0 0 0 0 0
          0 0 0 0 0 0
          0 0 0 0 0 0
          0 0 0 0 0 0
          0 0 0 0 0 0
          0 0 0 0 0 0
          0 0 0 0 0 0
          0 0 0 0 0 0
          0 0 0 0 0 0
          0 0 0 0 0 0
          0 0 0 0 0 0
          0 0 0 0 0 0
          0 0 0 0 0 0
          0 0 0 0 0 0
          0 0 0 0 0 0
          0 0 0 0 0 0
          0 0 0 0 0 0
          0 0 0 0 0 0
          0 0 0 0 0 0
          0 0 0 0 0 0
          0 0 0 0 0 0
          0 0 0 0 0 0
          0 0 0 0 0 0
          0 0 0 0 0 0
          0 0 0 0 0 0
          0 0 0 0 0 0
          0 0 0 0 0 0
          0 0 0 0 0 0
          0 0 0 0 0 0
          0 0 0 0 0 0
          0 0 0 0 0 0
          0 0 0 0 0 0
          0 0 0 0 0 0
          0 0 0 0 0 0
          0 0 0 0 0 0
          0 0 0 0 0 0
          0 0 0 0 0 0
          0 0 0 0 0 0
          0 0 0 0 0 0
          0 0 0 0 0 0
          0 0 0 0 0 0
          0 0 0 0 0 0
          0 0 0 0 0 0
          0 0 0 0 0 0
          0 0 0 0 0 0
          0 0 0 0 0 0
          0 0 0 0 0 0
          0 0 0 0 0 0
          0 0 0 0 0 0
          0 0 0 0 0 0
          0 0 0 0 0 0
          0 0 0 0 0 0
          0 0 0 0 0 0
          0 0 0 0 0 0
          0 0 0 0 0 0
          0 0 0 0 0 0
          0 0 0 0 0 0
          0 0 0 0 0 0
          0 0 0 0 0 0
          0 0 0 0 0 0
          0 0 0 0 0 0
          0 0 0 0 0 0
          0 0 0 0 0 0
          0 0 0 0 0 0
          0 0 0 0 0 0
          0 0 0 0 0 0
          0 0 0 0 0 0
          0 0 0 0 0 0
          0 0 0 0 0 0
          0 0 0 0 0 0
          0 0 0 0 0 0
          0 0 0 0 0 0
          0 0 0 0 0 0
          0 0 0 0 0 0
          0 0 0 0 0 0
          0 0 0 0 0 0
          0 0 0 0 0 0
          0 0 0 0 0 0
          0 0 0 0 0 0
          0
        </DataArray>
        <DataArray type="Float64" Name="gradient_error" format="ascii" RangeMin="3.970381719972997e-11" RangeMax="2.5170775895694717e-8">
          2.329746481631998e-8 1.89378491775986e-8 4.256905705344613e-9 2.4553875860524012e-9 7.203683994113089e-9 4.319792459481854e-9
          2.2492159869600666e-8 2.2723875418540726e-8 1.6697095686861738e-8 2.5170775895694717e-8 9.192823584786302e-9 1.0336821779299217e-8
          3.744275842726324e-9 5.996637024964276e-9 1.4110464867809936e-9 1.2258546619212055e-9 8.059360439857961e-10 3.2118751405171336e-9
          1.3039823848657373e-9 4.423591639740343e-10 1.333502903933022e-8 1.271918663775047e-8 6.358559891996478e-9 5.7109879004405664e-9
          8.937819107748906e-9 3.747755264796393e-9 1.4597109985826212e-8 1.4258776787321158e-8 6.548771297721249e-9 1.0191764758554614e-8
          2.1821028960584875e-9 1.9037781707708787e-9 1.227544270936865e-9 2.517913106410238e-9 2.205656607598532e-9 1.4166501574329338e-9
          4.67309708491134e-9 1.9125191879926504e-9 5.300936182955064e-9 2.178228573316033e-9 6.425700214562866e-10 7.300943656479053e-10
          2.2873245581047222e-8 1.754322437707549e-8 1.430456904667393e-8 2.0492362260878358e-8 2.3234744786358952e-8 2.404238702681024e-8
          2.4578975056969825e-8 2.4304587451384144e-8 2.2497809994768714e-8 1.834672431313839e-8 2.3200178604734732e-8 1.0898519299658587e-8
          7.93917145674593e-9 1.2673469103656813e-8 5.639071675047903e-9 6.491800136287873e-9 1.3876334127563723e-8 1.003819952257244e-8
          1.4303205398589553e-8 7.065509287766614e-9 7.2679694749193126e-9 6.6673718649550066e-9 6.495544525829007e-9 4.129734074489517e-9
          5.945018588331617e-9 1.0647380419395818e-8 7.562405238488716e-9 8.562692934929122e-9 5.035639203072402e-9 3.143496677499066e-9
          3.953217053541937e-9 2.531517422105163e-9 2.4489655904567316e-9 1.3630484156272232e-9 2.2075055379032704e-9 7.431968595774684e-10
          7.177539461703059e-10 6.460918253731443e-10 1.8458746442940037e-9 1.0257217354467446e-9 1.4424156773564075e-9 5.432196489537952e-10
          4.3100704649202663e-10 6.456201588954901e-9 4.472254421734786e-9 4.675979403805466e-9 2.9296252826117918e-9 1.818063698274582e-9
          2.0968656622192707e-9 2.5633285868441656e-9 1.7419627896444034e-9 3.313798130593569e-9 2.261500673505574e-9 1.1338178010404884e-9
          7.082696772740332e-10 1.4743590231882054e-9 9.201987903327313e-10 1.073003644598328e-9 6.052657359684156e-10 7.751654476890041e-10
          3.2804435525064834e-10 2.4327572400995057e-10 4.2573622975705796e-10 2.4706219347042825e-10 5.514329955848226e-10 3.1836984970882897e-10
          1.3921929051531155e-10 1.7808128810085528e-10 1.0963665174664286e-8 1.7748968797970826e-8 1.7805342491427045e-8 1.3280481929394424e-8
          1.7303092335140496e-8 8.308106682159375e-9 8.138206473249127e-9 5.4008975340175085e-9 5.25776651116115e-9 7.527546175050053e-9
          4.797530594506803e-9 9.608581625921403e-9 9.468883805004307e-9 6.213523120216954e-9 8.86250269451284e-9 1.324416700571242e-8
          9.52522556017263e-9 1.0703640504973338e-8 7.573264934432e-9 1.544649845780189e-8 1.1187843483395466e-8 1.2533804401428508e-8
          6.417816998880991e-9 4.03777480716639e-9 5.0321843474451245e-9 3.1398666760763928e-9 7.61758747831989e-9 4.826959232477505e-9
          5.979845906784676e-9 1.9036792238107907e-8 1.921767486865517e-8 1.4281650364554182e-8 1.4309623254039844e-8 1.8871223523793282e-8
          1.386180496707197e-8 1.9482988536389688e-8 1.971578312337626e-8 1.4658682684339045e-8 1.9432506783086467e-8 1.0413458636188847e-8
          1.031158729247057e-8 6.986428890977489e-9 6.84748053385762e-9 9.743493285571333e-9 6.330059157557308e-9 1.0681582440041327e-8
          1.0596653864458356e-8 7.068485486091491e-9 1.0049410389328696e-8 1.6942369197440993e-8 1.2298276013914957e-8 1.3771656962483464e-8
          9.863995553836134e-9 1.747582191911477e-8 1.2688568328131766e-8 1.4210278248455376e-8 8.432385238589785e-9 5.37018327496114e-9
          6.631109004364645e-9 4.168982011660709e-9 8.720528636054303e-9 5.5638770703807765e-9 6.863284966313318e-9 3.249268119684728e-9
          3.1495403121389445e-9 1.8209202261498042e-9 1.7604395871907278e-9 2.847609060385252e-9 1.5839030428518116e-9 3.869379661506436e-9
          3.7594389972201554e-9 2.1122840950415305e-9 3.4132214316170764e-9 9.589906714057003e-10 9.261352425826993e-10 8.324035616940051e-10
          1.1512319458990707e-9 1.112285609003394e-9 9.996406100130561e-10 2.378871945112683e-9 1.3205698607280847e-9 1.8457884661937223e-9
          1.0283534748204835e-9 2.854677781582671e-9 1.5852888363715458e-9 2.206325496584624e-9 6.960673617331909e-10 5.467599468491889e-10
          8.334103995325547e-10 6.502336568028042e-10 4.287401719974681e-9 4.1734947980734535e-9 2.4298349327517697e-9 2.3546752624225704e-9
          3.802495340459514e-9 2.126020705529749e-9 4.434503310044636e-9 4.31983596233965e-9 2.441083950624185e-9 3.941217653987928e-9
          1.2844247931636474e-9 1.2416025761693372e-9 1.116388464093137e-9 1.3320664030537093e-9 1.2879344774642109e-9 1.1583459626065136e-9
          3.18533355361699e-9 1.7702005374890753e-9 2.457508578129603e-9 1.3666285698946192e-9 3.3038621827004713e-9 1.8366881439306388e-9
          2.547717897859579e-9 9.294963480211875e-10 7.22441564373202e-10 9.640832335050603e-10 7.484088569100983e-10 8.047795464355384e-9
          5.6176397229019606e-9 5.781885791365377e-9 3.994354484402249e-9 9.417061922651584e-9 6.6146762036844e-9 6.7329193925332645e-9
          3.6995208311213958e-9 2.3008775906866524e-9 2.616411397469069e-9 1.6281669632226637e-9 4.376255259750054e-9 2.7282699616020097e-9
          3.0702860703618653e-9 4.056298030521164e-9 2.7795551430885685e-9 4.691365128766778e-9 3.2256943986528797e-9 1.8155866583639291e-9
          1.1328951829374558e-9 2.11077511441253e-9 1.3172533391389353e-9 1.0344630784989507e-8 7.296193591095632e-9 7.378091956796062e-9
          5.136319543440847e-9 1.0672860875486143e-8 7.538512980463818e-9 7.606679903285942e-9 4.842123971823208e-9 3.0241898834161355e-9
          3.3817704184952127e-9 2.108306277181815e-9 5.0083920282151226e-9 3.1301504192270123e-9 3.4928043887044595e-9 5.120824885482686e-9
          3.528916510678418e-9 5.272762618070929e-9 3.6364749964770455e-9 2.312108369120672e-9 1.4432113238705643e-9 2.3836672315073764e-9
          1.488023763072437e-9 1.3566151815636495e-9 7.623394436862277e-10 9.660631938946226e-10 5.490393277014551e-10 1.6084670113330442e-9
          9.017636219822104e-10 1.1336865984375764e-9 4.1068836804258465e-10 3.0025896278010185e-10 4.838085506917345e-10 3.50033569106844e-10
          6.773983552652802e-10 3.895145016675229e-10 7.865455584344758e-10 4.51069274983493e-10 2.1630225101171353e-10 1.1616761801565773e-10
          2.49404256928571e-10 1.3361632500845804e-10 1.783337098525256e-9 9.986074801136299e-10 1.2492628253595082e-9 7.070462597032343e-10
          1.8460527451455701e-9 1.0333546556495296e-9 1.2905765790058734e-9 5.34512507205355e-10 3.842853688553046e-10 5.526925261145844e-10
          3.9652373942584164e-10 8.611479094228898e-10 4.931745328586397e-10 8.877013811097372e-10 5.081713958270909e-10 2.7222979524660334e-10
          1.4552775472403558e-10 2.8034266859051524e-10 1.4974545541170267e-10 7.35192957229484e-9 4.941209746485147e-9 4.795072426405082e-9
          7.160142068962474e-9 9.693524421453058e-9 9.499051173712944e-9 3.1047801106319606e-9 3.0051007056808607e-9 4.3571823496740106e-9
          6.560698443184944e-9 8.80952698981373e-9 2.7150959742454204e-9 9.262545558963953e-9 5.590434015202681e-9 7.988354343498466e-9
          1.2203154326776667e-8 4.44088570179276e-9 6.4115873358147175e-9 3.680635700297498e-9 2.2822911968805203e-9 2.905067022145304e-9
          1.798163427184638e-9 1.8296517023669396e-9 1.768273479957992e-9 1.0173580775248833e-9 9.828124973653084e-10 1.59325093584005e-9
          8.856162093092421e-10 5.376801212340035e-10 5.196966207564205e-10 2.721853511533019e-10 2.6342171373474484e-10 3.7316132169077916e-10
          3.606740568536783e-10 4.695151583039254e-10 2.3908459633870927e-10 3.258080194301197e-10 1.3382065503294609e-9 7.461300176249644e-10
          1.0573666853005483e-9 5.937191020804655e-10 3.9809600827157086e-10 2.0455255407043753e-10 2.761613359677163e-10 3.2012350787305317e-10
          1.6668897019944732e-10 2.2199891347852245e-10 3.3441224777960646e-9 4.8675116795239215e-9 2.4358678423409522e-9 3.5676663623531227e-9
          2.1797464894930466e-9 1.3510804320104367e-9 1.5855149398898724e-9 9.861417298199543e-10 2.576694805387748e-9 1.7496084082668104e-9
          1.2752984991882466e-9 1.88372958508413e-9 1.1365396780384922e-9 8.292597983661698e-10 7.078322636878787e-10 5.18811252442869e-10
          5.984142899831619e-10 9.190061624347916e-10 8.029741571384529e-10 1.2326312478379903e-9 3.7600778259901794e-10 5.039443140578205e-10
          1.0273826764146288e-9 1.5761565250146709e-9 6.441539494613543e-10 7.993369008104883e-10 4.5339048071429056e-10 5.880102809288623e-10
          3.373918813472847e-10 2.47704816474045e-10 1.3102260301938998e-10 1.7175275385404985e-10 1.8688896939832893e-10 1.0033370759284715e-10
          1.295027439969227e-10 4.238747205522646e-10 3.130674883170352e-10 2.4489961567173486e-10 1.8280311192239874e-10 2.283298781405362e-10
          3.0514357861476257e-10 1.3440147210557574e-10 1.7868230403060996e-10 3.890998612434384e-10 2.2681909679988933e-10 1.367728554971023e-10
          1.0380512912600396e-10 7.407965986354336e-11 5.6379206637015206e-11 7.515323649163467e-11 7.74446282089306e-11 1.0194141573773709e-10
          6.988535610244553e-11 6.294149205978361e-11 9.579275257354163e-11 1.2845498296303112e-10 8.674732833504628e-11 1.296779633756933e-8
          1.5653840797517106e-8 1.1631337663953257e-8 1.498502257349883e-8 2.0346367473420257e-8 1.573558462745711e-8 2.0364035768465232e-8
          1.1774070708286313e-8 1.9699191401322696e-8 4.79275395689237e-10 4.6294932378037733e-10 4.170220926232936e-10 5.741716161481218e-10
          5.545402829099633e-10 4.98860248375519e-10 3.5117124437283647e-10 2.7934403253961907e-10 4.183642385722911e-10 3.3037761080196236e-10
          6.402244918600811e-10 6.183860643369165e-10 5.560418330652634e-10 6.639239749031581e-10 6.413149784689348e-10 5.766100040318104e-10
          4.653050909755408e-10 3.658959647045116e-10 4.82194510239658e-10 3.786538719300213e-10 1.2490689599022389e-9 1.914502945118916e-9
          7.825411299643913e-10 1.4387823560960053e-9 2.2033091682041096e-9 9.008773240534573e-10 1.5672041581976291e-9 2.398478277757315e-9
          9.809122239725784e-10 1.6126743318391154e-9 2.467518235866345e-9 1.009239555693064e-9 2.1332204899650437e-10 1.587517576478823e-10
          2.499273672657531e-10 1.841846802366592e-10 4.716883294773579e-10 2.740039052580665e-10 5.42147936368625e-10 3.142945975911966e-10
          1.539844009490969e-10 8.337601824704178e-11 1.7597903552600812e-10 9.577321552220437e-11 2.752466050378034e-10 2.0164186909513647e-10
          2.8431353587727416e-10 2.0787160209723188e-10 5.897772679823872e-10 3.416619301490217e-10 6.066371630920092e-10 3.513888038062946e-10
          1.9126275538780128e-10 1.0388219273921288e-10 1.9668048110472975e-10 1.06759843516214e-10 6.727922760116475e-11 5.029445694762955e-11
          8.154216699871755e-11 6.086771670357594e-11 3.970381719972997e-11 4.4647093036210366e-11 9.396183697143081e-11 6.98279943769511e-11
          5.123569873873346e-11 1.025868895493942e-10 7.584282075117912e-11 5.530165923785789e-11 1.056338008823423e-10 7.797030443283917e-11
          5.675941704167647e-11
        </DataArray>
        <DataArray type="Float64" Name="gradient_matprop_error" format="ascii" RangeMin="0" RangeMax="0">
          0 0 0 0 0 0
          0 0 0 0 0 0
          0 0 0 0 0 0
          0 0 0 0 0 0
          0 0 0 0 0 0
          0 0 0 0 0 0
          0 0 0 0 0 0
          0 0 0 0 0 0
          0 0 0 0 0 0
          0 0 0 0 0 0
          0 0 0 0 0 0
          0 0 0 0 0 0
          0 0 0 0 0 0
          0 0 0 0 0 0
          0 0 0 0 0 0
          0 0 0 0 0 0
          0 0 0 0 0 0
          0 0 0 0 0 0
          0 0 0 0 0 0
          0 0 0 0 0 0
          0 0 0 0 0 0
          0 0 0 0 0 0
          0 0 0 0 0 0
          0 0 0 0 0 0
          0 0 0 0 0 0
          0 0 0 0 0 0
          0 0 0 0 0 0
          0 0 0 0 0 0
          0 0 0 0 0 0
          0 0 0 0 0 0
          0 0 0 0 0 0
          0 0 0 0 0 0
          0 0 0 0 0 0
          0 0 0 0 0 0
          0 0 0 0 0 0
          0 0 0 0 0 0
          0 0 0 0 0 0
          0 0 0 0 0 0
          0 0 0 0 0 0
          0 0 0 0 0 0
          0 0 0 0 0 0
          0 0 0 0 0 0
          0 0 0 0 0 0
          0 0 0 0 0 0
          0 0 0 0 0 0
          0 0 0 0 0 0
          0 0 0 0 0 0
          0 0 0 0 0 0
          0 0 0 0 0 0
          0 0 0 0 0 0
          0 0 0 0 0 0
          0 0 0 0 0 0
          0 0 0 0 0 0
          0 0 0 0 0 0
          0 0 0 0 0 0
          0 0 0 0 0 0
          0 0 0 0 0 0
          0 0 0 0 0 0
          0 0 0 0 0 0
          0 0 0 0 0 0
          0 0 0 0 0 0
          0 0 0 0 0 0
          0 0 0 0 0 0
          0 0 0 0 0 0
          0 0 0 0 0 0
          0 0 0 0 0 0
          0 0 0 0 0 0
          0 0 0 0 0 0
          0 0 0 0 0 0
          0 0 0 0 0 0
          0 0 0 0 0 0
          0 0 0 0 0 0
          0 0 0 0 0 0
          0 0 0 0 0 0
          0 0 0 0 0 0
          0 0 0 0 0 0
          0 0 0 0 0 0
          0 0 0 0 0 0
          0 0 0 0 0 0
          0 0 0 0 0 0
          0 0 0 0 0 0
          0 0 0 0 0 0
          0
        </DataArray>
        <DataArray type="Float64" Name="initial_marker" format="ascii" RangeMin="0.75" RangeMax="2">
          2 2 2 2 2 2
          2 2 2 2 2 2
          2 2 2 2 2 2
          2 2 2 2 2 2
          2 2 2 2 2 2
          2 2 2 2 2 2
          2 2 2 2 2 2
          2 2 2 2 2 2
          2 2 2 2 2 2
          2 2 2 2 2 2
          2 2 2 2 2 2
          2 2 2 2 2 2
          2 2 2 2 2 2
          2 2 2 2 2 2
          2 2 2 2 2 2
          2 2 2 2 2 2
          2 2 2 2 2 2
          2 2 2 2 2 2
          2 2 2 2 2 2
          2 2 2 2 2 2
          2 2 2 2 2 2
          2 2 2 2 2 2
          2 2 2 2 2 2
          2 2 2 2 2 2
          2 2 2 2 2 2
          2 2 2 2 2 2
          2 2 2 2 2 2
          2 2 2 2 2 2
          2 2 2 2 2 2
          2 2 2 2 2 2
          2 2 2 2 2 2
          2 2 2 2 2 2
          2 2 2 2 2 2
          2 2 2 2 2 2
          2 2 2 2 2 2
          2 2 2 2 2 2
          2 2 2 2 2 2
          2 2 2 2 2 2
          2 2 2 2 2 2
          2 2 2 2 2 2
          2 2 2 2 2 2
          2 2 2 2 2 2
          2 2 2 2 2 2
          2 2 2 2 2 2
          2 2 2 2 2 2
          2 2 2 2 2 2
          2 2 2 2 2 2
          2 2 2 2 2 2
          2 2 2 2 2 2
          2 2 2 2 2 2
          2 2 2 2 2 2
          2 2 2 2 2 2
          2 2 2 2 2 2
          2 2 2 2 2 2
          2 2 2 2 2 2
          2 2 2 2 2 2
          2 2 2 2 2 2
          2 2 2 2 2 2
          2 2 2 2 2 2
          2 2 2 2 2 2
          2 2 2 2 2 2
          2 2 2 2 2 2
          2 2 2 2 2 2
          2 2 2 2 2 2
          2 2 2 2 2 2
          2 2 2 2 2 2
          2 2 2 2 2 2
          2 2 1.75 2 1.5 1.75
          0.75 1.6666666666666667 2 2 1.75 2
          2 2 2 2 2 2
          2 2 2 2 2 2
          2 2 2 2 2 2
          2 2 2 2 2 2
          2 2 2 2 2 2
          2 2 2 2 2 2
          2 2 2 2 2 2
          2 2 2 2 2 2
          2 2 2 2 2 2
          2 2 2 2 2 2
          2 2 2 2 2 1.75
          2 2 1.3333333333333333 1.5 2 2
          1.5 2 2 1.5 2 2
          1.5
        </DataArray>
        <DataArray type="Float64" Name="markers_norefine" format="ascii" RangeMin="0" RangeMax="0">
          0 0 0 0 0 0
          0 0 0 0 0 0
          0 0 0 0 0 0
          0 0 0 0 0 0
          0 0 0 0 0 0
          0 0 0 0 0 0
          0 0 0 0 0 0
          0 0 0 0 0 0
          0 0 0 0 0 0
          0 0 0 0 0 0
          0 0 0 0 0 0
          0 0 0 0 0 0
          0 0 0 0 0 0
          0 0 0 0 0 0
          0 0 0 0 0 0
          0 0 0 0 0 0
          0 0 0 0 0 0
          0 0 0 0 0 0
          0 0 0 0 0 0
          0 0 0 0 0 0
          0 0 0 0 0 0
          0 0 0 0 0 0
          0 0 0 0 0 0
          0 0 0 0 0 0
          0 0 0 0 0 0
          0 0 0 0 0 0
          0 0 0 0 0 0
          0 0 0 0 0 0
          0 0 0 0 0 0
          0 0 0 0 0 0
          0 0 0 0 0 0
          0 0 0 0 0 0
          0 0 0 0 0 0
          0 0 0 0 0 0
          0 0 0 0 0 0
          0 0 0 0 0 0
          0 0 0 0 0 0
          0 0 0 0 0 0
          0 0 0 0 0 0
          0 0 0 0 0 0
          0 0 0 0 0 0
          0 0 0 0 0 0
          0 0 0 0 0 0
          0 0 0 0 0 0
          0 0 0 0 0 0
          0 0 0 0 0 0
          0 0 0 0 0 0
          0 0 0 0 0 0
          0 0 0 0 0 0
          0 0 0 0 0 0
          0 0 0 0 0 0
          0 0 0 0 0 0
          0 0 0 0 0 0
          0 0 0 0 0 0
          0 0 0 0 0 0
          0 0 0 0 0 0
          0 0 0 0 0 0
          0 0 0 0 0 0
          0 0 0 0 0 0
          0 0 0 0 0 0
          0 0 0 0 0 0
          0 0 0 0 0 0
          0 0 0 0 0 0
          0 0 0 0 0 0
          0 0 0 0 0 0
          0 0 0 0 0 0
          0 0 0 0 0 0
          0 0 0 0 0 0
          0 0 0 0 0 0
          0 0 0 0 0 0
          0 0 0 0 0 0
          0 0 0 0 0 0
          0 0 0 0 0 0
          0 0 0 0 0 0
          0 0 0 0 0 0
          0 0 0 0 0 0
          0 0 0 0 0 0
          0 0 0 0 0 0
          0 0 0 0 0 0
          0 0 0 0 0 0
          0 0 0 0 0 0
          0 0 0 0 0 0
          0
        </DataArray>
        <DataArray type="Float64" Name="markers_mustrefine" format="ascii" RangeMin="0.75" RangeMax="2">
          2 2 2 2 2 2
          2 2 2 2 2 2
          2 2 2 2 2 2
          2 2 2 2 2 2
          2 2 2 2 2 2
          2 2 2 2 2 2
          2 2 2 2 2 2
          2 2 2 2 2 2
          2 2 2 2 2 2
          2 2 2 2 2 2
          2 2 2 2 2 2
          2 2 2 2 2 2
          2 2 2 2 2 2
          2 2 2 2 2 2
          2 2 2 2 2 2
          2 2 2 2 2 2
          2 2 2 2 2 2
          2 2 2 2 2 2
          2 2 2 2 2 2
          2 2 2 2 2 2
          2 2 2 2 2 2
          2 2 2 2 2 2
          2 2 2 2 2 2
          2 2 2 2 2 2
          2 2 2 2 2 2
          2 2 2 2 2 2
          2 2 2 2 2 2
          2 2 2 2 2 2
          2 2 2 2 2 2
          2 2 2 2 2 2
          2 2 2 2 2 2
          2 2 2 2 2 2
          2 2 2 2 2 2
          2 2 2 2 2 2
          2 2 2 2 2 2
          2 2 2 2 2 2
          2 2 2 2 2 2
          2 2 2 2 2 2
          2 2 2 2 2 2
          2 2 2 2 2 2
          2 2 2 2 2 2
          2 2 2 2 2 2
          2 2 2 2 2 2
          2 2 2 2 2 2
          2 2 2 2 2 2
          2 2 2 2 2 2
          2 2 2 2 2 2
          2 2 2 2 2 2
          2 2 2 2 2 2
          2 2 2 2 2 2
          2 2 2 2 2 2
          2 2 2 2 2 2
          2 2 2 2 2 2
          2 2 2 2 2 2
          2 2 2 2 2 2
          2 2 2 2 2 2
          2 2 2 2 2 2
          2 2 2 2 2 2
          2 2 2 2 2 2
          2 2 2 2 2 2
          2 2 2 2 2 2
          2 2 2 2 2 2
          2 2 2 2 2 2
          2 2 2 2 2 2
          2 2 2 2 2 2
          2 2 2 2 2 2
          2 2 2 2 2 2
          2 2 1.75 2 1.5 1.75
          0.75 1.6666666666666667 2 2 1.75 2
          2 2 2 2 2 2
          2 2 2 2 2 2
          2 2 2 2 2 2
          2 2 2 2 2 2
          2 2 2 2 2 2
          2 2 2 2 2 2
          2 2 2 2 2 2
          2 2 2 2 2 2
          2 2 2 2 2 2
          2 2 2 2 2 2
          2 2 2 2 2 1.75
          2 2 1.3333333333333333 1.5 2 2
          1.5 2 2 1.5 2 2
          1.5
        </DataArray>
        <DataArray type="Float64" Name="gradient_marker" format="ascii" RangeMin="1" RangeMax="1">
          1 1 1 1 1 1
          1 1 1 1 1 1
          1 1 1 1 1 1
          1 1 1 1 1 1
          1 1 1 1 1 1
          1 1 1 1 1 1
          1 1 1 1 1 1
          1 1 1 1 1 1
          1 1 1 1 1 1
          1 1 1 1 1 1
          1 1 1 1 1 1
          1 1 1 1 1 1
          1 1 1 1 1 1
          1 1 1 1 1 1
          1 1 1 1 1 1
          1 1 1 1 1 1
          1 1 1 1 1 1
          1 1 1 1 1 1
          1 1 1 1 1 1
          1 1 1 1 1 1
          1 1 1 1 1 1
          1 1 1 1 1 1
          1 1 1 1 1 1
          1 1 1 1 1 1
          1 1 1 1 1 1
          1 1 1 1 1 1
          1 1 1 1 1 1
          1 1 1 1 1 1
          1 1 1 1 1 1
          1 1 1 1 1 1
          1 1 1 1 1 1
          1 1 1 1 1 1
          1 1 1 1 1 1
          1 1 1 1 1 1
          1 1 1 1 1 1
          1 1 1 1 1 1
          1 1 1 1 1 1
          1 1 1 1 1 1
          1 1 1 1 1 1
          1 1 1 1 1 1
          1 1 1 1 1 1
          1 1 1 1 1 1
          1 1 1 1 1 1
          1 1 1 1 1 1
          1 1 1 1 1 1
          1 1 1 1 1 1
          1 1 1 1 1 1
          1 1 1 1 1 1
          1 1 1 1 1 1
          1 1 1 1 1 1
          1 1 1 1 1 1
          1 1 1 1 1 1
          1 1 1 1 1 1
          1 1 1 1 1 1
          1 1 1 1 1 1
          1 1 1 1 1 1
          1 1 1 1 1 1
          1 1 1 1 1 1
          1 1 1 1 1 1
          1 1 1 1 1 1
          1 1 1 1 1 1
          1 1 1 1 1 1
          1 1 1 1 1 1
          1 1 1 1 1 1
          1 1 1 1 1 1
          1 1 1 1 1 1
          1 1 1 1 1 1
          1 1 1 1 1 1
          1 1 1 1 1 1
          1 1 1 1 1 1
          1 1 1 1 1 1
          1 1 1 1 1 1
          1 1 1 1 1 1
          1 1 1 1 1 1
          1 1 1 1 1 1
          1 1 1 1 1 1
          1 1 1 1 1 1
          1 1 1 1 1 1
          1 1 1 1 1 1
          1 1 1 1 1 1
          1 1 1 1 1 1
          1 1 1 1 1 1
          1
        </DataArray>
        <DataArray type="Float64" Name="gradient_matprop_marker" format="ascii" RangeMin="0" RangeMax="0">
          0 0 0 0 0 0
          0 0 0 0 0 0
          0 0 0 0 0 0
          0 0 0 0 0 0
          0 0 0 0 0 0
          0 0 0 0 0 0
          0 0 0 0 0 0
          0 0 0 0 0 0
          0 0 0 0 0 0
          0 0 0 0 0 0
          0 0 0 0 0 0
          0 0 0 0 0 0
          0 0 0 0 0 0
          0 0 0 0 0 0
          0 0 0 0 0 0
          0 0 0 0 0 0
          0 0 0 0 0 0
          0 0 0 0 0 0
          0 0 0 0 0 0
          0 0 0 0 0 0
          0 0 0 0 0 0
          0 0 0 0 0 0
          0 0 0 0 0 0
          0 0 0 0 0 0
          0 0 0 0 0 0
          0 0 0 0 0 0
          0 0 0 0 0 0
          0 0 0 0 0 0
          0 0 0 0 0 0
          0 0 0 0 0 0
          0 0 0 0 0 0
          0 0 0 0 0 0
          0 0 0 0 0 0
          0 0 0 0 0 0
          0 0 0 0 0 0
          0 0 0 0 0 0
          0 0 0 0 0 0
          0 0 0 0 0 0
          0 0 0 0 0 0
          0 0 0 0 0 0
          0 0 0 0 0 0
          0 0 0 0 0 0
          0 0 0 0 0 0
          0 0 0 0 0 0
          0 0 0 0 0 0
          0 0 0 0 0 0
          0 0 0 0 0 0
          0 0 0 0 0 0
          0 0 0 0 0 0
          0 0 0 0 0 0
          0 0 0 0 0 0
          0 0 0 0 0 0
          0 0 0 0 0 0
          0 0 0 0 0 0
          0 0 0 0 0 0
          0 0 0 0 0 0
          0 0 0 0 0 0
          0 0 0 0 0 0
          0 0 0 0 0 0
          0 0 0 0 0 0
          0 0 0 0 0 0
          0 0 0 0 0 0
          0 0 0 0 0 0
          0 0 0 0 0 0
          0 0 0 0 0 0
          0 0 0 0 0 0
          0 0 0 0 0 0
          0 0 0 0 0 0
          0 0 0 0 0 0
          0 0 0 0 0 0
          0 0 0 0 0 0
          0 0 0 0 0 0
          0 0 0 0 0 0
          0 0 0 0 0 0
          0 0 0 0 0 0
          0 0 0 0 0 0
          0 0 0 0 0 0
          0 0 0 0 0 0
          0 0 0 0 0 0
          0 0 0 0 0 0
          0 0 0 0 0 0
          0 0 0 0 0 0
          0
        </DataArray>
        <DataArray type="Float64" Name="combo" format="ascii" RangeMin="1" RangeMax="1">
          1 1 1 1 1 1
          1 1 1 1 1 1
          1 1 1 1 1 1
          1 1 1 1 1 1
          1 1 1 1 1 1
          1 1 1 1 1 1
          1 1 1 1 1 1
          1 1 1 1 1 1
          1 1 1 1 1 1
          1 1 1 1 1 1
          1 1 1 1 1 1
          1 1 1 1 1 1
          1 1 1 1 1 1
          1 1 1 1 1 1
          1 1 1 1 1 1
          1 1 1 1 1 1
          1 1 1 1 1 1
          1 1 1 1 1 1
          1 1 1 1 1 1
          1 1 1 1 1 1
          1 1 1 1 1 1
          1 1 1 1 1 1
          1 1 1 1 1 1
          1 1 1 1 1 1
          1 1 1 1 1 1
          1 1 1 1 1 1
          1 1 1 1 1 1
          1 1 1 1 1 1
          1 1 1 1 1 1
          1 1 1 1 1 1
          1 1 1 1 1 1
          1 1 1 1 1 1
          1 1 1 1 1 1
          1 1 1 1 1 1
          1 1 1 1 1 1
          1 1 1 1 1 1
          1 1 1 1 1 1
          1 1 1 1 1 1
          1 1 1 1 1 1