<?xml version="1.0"?>
<VTKFile type="UnstructuredGrid" version="0.1" byte_order="LittleEndian" header_type="UInt32" compressor="vtkZLibDataCompressor">
  <UnstructuredGrid>
    <Piece NumberOfPoints="528" NumberOfCells="318">
      <PointData>
        <DataArray type="Int32" Name="libmesh_node_id" format="ascii" RangeMin="271" RangeMax="2831">
          273 346 347 350 351 486
          487 489 653 654 655 656
          657 658 659 660 680 724
          725 726 727 729 730 731
          889 890 891 893 894 895
          896 971 972 973 974 975
          976 977 978 984 985 989
          1171 1172 1173 1174 1175 1176
          1177 1178 1179 1180 1181 1182
          1183 1184 1185 1186 1187 1188
          1189 1190 1191 1192 1193 1195
          1196 1197 1198 1199 1200 1201
          1202 1203 1204 1205 1209 1210
          1213 1214 1219 1220 1221 1222
          1224 1225 1226 1229 1230 1231
          1232 1233 1234 1756 1757 1758
          1786 1787 1788 1789 1790 1791
          1792 1793 1794 1795 1796 1797
          1798 1799 2274 2275 2276 2277
          2278 2279 2280 2281 2282 2283
          2284 2285 2286 2287 2288 2289
          2290 2291 2292 2293 2294 2295
          2296 2297 2298 2299 2300 2301
          2302 2303 2304 2305 2306 2307
          2308 2309 2310 2311 2312 2313
          2314 2315 2316 2317 2318 2319
          2320 2321 2322 2323 2324 2325
          2326 2327 2328 2329 2330 2331
          2332 2333 2334 2335 2336 2337
          2338 2339 2340 2341 2342 2343
          2344 2345 2346 2347 2348 2349
          2350 2351 2352 2353 2354 2355
          2356 2357 2358 2359 2360 2361
          2362 2363 2364 2365 2366 2367
          2369 2370 2371 2372 2373 2374
          2375 2376 2377 2379 2380 2381
          2382 2383 2384 2385 2386 2387
          2389 2390 2391 2392 2393 2394
          2395 2396 2397 2398 2399 2400
          2401 2402 2403 2404 2405 2406
          2407 2408 2409 2410 2411 2413
          2414 2415 2416 2417 2418 2419
          2420 2421 2422 2427 2429 2430
          2431 2433 2437 2438 2439 2440
          2441 2442 2443 2444 2445 2446
          2447 2448 2449 2450 2451 2452
          2453 2454 2455 2456 2457 2458
          2459 2460 2461 2462 2463 2464
          2465 2466 2467 2468 2469 2470
          2471 2472 2473 2474 2475 2476
          2481 2482 2483 2484 2485 2486
          2491 2492 2493 2494 2498 2499
          2500 2501 2505 2508 2509 2549
          2550 2556 2557 2561 2591 2611
          2612 2613 2614 2615 2616 2617
          2618 2619 2620 2621 2622 2624
          2625 2626 2627 2628 2629 2630
          2631 2632 2634 2635 2636 2639
          2659 2661 2785 2786 490 271
          494 495 488 496 497 662
          661 682 683 681 897 898
          899 900 901 892 902 360
          728 361 1194 1206 979 1208
          1207 732 1211 1212 1215 1216
          1218 1217 733 1223 986 1228
          665 1239 994 1253 1254 1255
          1256 1260 1261 1740 1737 752
          1742 754 1773 1266 1291 1311
          999 1313 1315 753 1321 1323
          1325 755 2368 2378 2388 2412
          2423 2424 734 2425 2426 1227
          2432 2428 2434 2435 2436 735
          2477 2478 1235 2479 2480 1236
          2487 2488 362 2489 2490 1237
          2495 2496 2497 1238 2502 2503
          2504 736 2510 2506 2511 2512
          2507 2513 2514 1240 2533 2532
          2537 2536 2551 2552 2553 2554
          2555 1246 2558 2559 2560 2562
          1247 2583 2584 2587 2588 2590
          2593 2592 2594 2595 1251 2596
          1263 2623 1264 2633 2637 2638
          2640 2641 2642 1267 2643 2644
          1268 2660 2662 2663 2664 2665
          1271 2676 2677 2680 2682 2683
          2685 2696 2698 2700 2702 2787
          2788 2789 2790 2791 2792 2793
          2794 1292 2825 2827 2829 2831
        </DataArray>
        <DataArray type="Float64" Name="bounds" format="ascii" RangeMin="0" RangeMax="0">
          0 0 0 0 0 0
          0 0 0 0 0 0
          0 0 0 0 0 0
          0 0 0 0 0 0
          0 0 0 0 0 0
          0 0 0 0 0 0
          0 0 0 0 0 0
          0 0 0 0 0 0
          0 0 0 0 0 0
          0 0 0 0 0 0
          0 0 0 0 0 0
          0 0 0 0 0 0
          0 0 0 0 0 0
          0 0 0 0 0 0
          0 0 0 0 0 0
          0 0 0 0 0 0
          0 0 0 0 0 0
          0 0 0 0 0 0
          0 0 0 0 0 0
          0 0 0 0 0 0
          0 0 0 0 0 0
          0 0 0 0 0 0
          0 0 0 0 0 0
          0 0 0 0 0 0
          0 0 0 0 0 0
          0 0 0 0 0 0
          0 0 0 0 0 0
          0 0 0 0 0 0
          0 0 0 0 0 0
          0 0 0 0 0 0
          0 0 0 0 0 0
          0 0 0 0 0 0
          0 0 0 0 0 0
          0 0 0 0 0 0
          0 0 0 0 0 0
          0 0 0 0 0 0
          0 0 0 0 0 0
          0 0 0 0 0 0
          0 0 0 0 0 0
          0 0 0 0 0 0
          0 0 0 0 0 0
          0 0 0 0 0 0
          0 0 0 0 0 0
          0 0 0 0 0 0
          0 0 0 0 0 0
          0 0 0 0 0 0
          0 0 0 0 0 0
          0 0 0 0 0 0
          0 0 0 0 0 0
          0 0 0 0 0 0
          0 0 0 0 0 0
          0 0 0 0 0 0
          0 0 0 0 0 0
          0 0 0 0 0 0
          0 0 0 0 0 0
          0 0 0 0 0 0
          0 0 0 0 0 0
          0 0 0 0 0 0
          0 0 0 0 0 0
          0 0 0 0 0 0
          0 0 0 0 0 0
          0 0 0 0 0 0
          0 0 0 0 0 0
          0 0 0 0 0 0
          0 0 0 0 0 0
          0 0 0 0 0 0
          0 0 0 0 0 0
          0 0 0 0 0 0
          0 0 0 0 0 0
          0 0 0 0 0 0
          0 0 0 0 0 0
          0 0 0 0 0 0
          0 0 0 0 0 0
          0 0 0 0 0 0
          0 0 0 0 0 0
          0 0 0 0 0 0
          0 0 0 0 0 0
          0 0 0 0 0 0
          0 0 0 0 0 0
          0 0 0 0 0 0
          0 0 0 0 0 0
          0 0 0 0 0 0
          0 0 0 0 0 0
          0 0 0 0 0 0
          0 0 0 0 0 0
          0 0 0 0 0 0
          0 0 0 0 0 0
          0 0 0 0 0 0
        </DataArray>
        <DataArray type="Float64" Name="gradient_error" format="ascii" RangeMin="9.554896088803353e-11" RangeMax="2.788377238638307e-7">
          5.693310948579259e-8 1.6053955194154472e-7 1.262853331351211e-7 4.4458587914370676e-8 1.9628136987089302e-7 9.248697084277634e-8
          8.015708593562453e-8 3.368414685142451e-8 1.0751852731524596e-7 9.947980326177695e-8 2.788377238638307e-7 2.5022568412818187e-7
          3.282891749065045e-8 1.4457806025628095e-7 1.2748417499332613e-7 7.7828324494999e-8 5.085520398461322e-8 4.9882812469307414e-9
          4.578753233632321e-9 1.5266651237602376e-9 1.226257781810713e-9 4.297317379895298e-10 4.19535720961774e-10 3.633458334461767e-9
          5.681907427758801e-9 8.241666510801053e-9 7.613466573802445e-9 3.90388307082334e-9 3.620508152525937e-9 5.628281831365345e-9
          5.221499909546612e-9 6.880903579320866e-9 8.858418793142153e-9 8.685531442533244e-9 8.199552444463959e-9 2.5180462188405277e-8
          5.670978170152501e-9 7.265794152562255e-9 6.01812624086801e-9 5.222007242848854e-8 4.9171582158911955e-8 1.0917487784417616e-7
          5.203850575023183e-9 5.104307071687484e-9 5.605182811098035e-9 5.4850891218522716e-9 2.5517803344935707e-9 1.6480143998914734e-9
          1.597350459050631e-9 4.768710998246827e-9 5.138807367500698e-9 1.452082583062111e-9 1.4544027484177201e-8 1.3768792182610667e-8
          1.4441911645342635e-9 1.2054904730134433e-8 1.4046500519468168e-9 1.3558676878362697e-9 8.759016175499134e-10 8.431244740502982e-10
          6.83168730471111e-10 4.4019048183558965e-10 4.224706015173356e-10 1.2285199725686068e-9 7.595182962100008e-10 8.354756284372605e-10
          7.836086400610771e-10 4.006268836641424e-10 6.507246997907298e-10 4.150660838734967e-9 5.180915434460174e-9 1.9993257289884637e-9
          2.28699247893043e-9 3.3937482393157796e-9 4.877831842536629e-9 2.817757037843087e-9 1.0608857786460518e-9 1.1610715736911886e-9
          9.006970187624879e-10 1.4260345997103603e-9 2.8937649416146005e-8 2.7268030156400216e-8 4.061082387571327e-9 3.780372883221011e-9
          3.080229412117859e-9 5.671215509774234e-8 5.305194251418727e-8 2.5211489450566725e-9 2.31564536215799e-9 1.377937411514487e-9
          1.2567282587156569e-9 1.8222216888584414e-9 9.708065393708536e-10 3.5856237755433967e-9 4.624697193776142e-9 3.85826941393719e-9
          2.679700483732158e-9 3.6961750032941347e-9 1.3661697277114012e-9 2.0916093300020565e-9 2.3405677381608208e-9 3.101222322057069e-9
          1.7582873091839747e-9 7.686554971926014e-10 1.0877655583974723e-9 5.787487308833199e-10 7.599652696029604e-10 7.077338927408395e-10
          9.355213298659434e-10 6.986432715408857e-10 1.2831715231270365e-9 1.520729102318883e-9 1.5036305351535898e-9 1.4584498770524113e-9
          2.436641541242286e-9 1.0460060189375786e-9 1.0339726436869825e-9 1.2972896788548979e-9 1.282454363858294e-9 6.646652715969806e-10
          9.167338109027549e-10 9.056074037820525e-10 1.0006123220611404e-9 1.2412421336443497e-9 8.729933374352543e-10 2.108504733769451e-9
          2.082418926084264e-9 1.5057037473394526e-9 2.008784829954981e-9 1.1742042987777824e-9 1.3829603503929018e-9 1.2827471475885748e-9
          2.2182483238326883e-9 9.47353221020422e-10 1.1743389382648833e-9 6.089907880615661e-10 8.219783913117099e-10 8.805671841495683e-10
          1.0866605172870683e-9 7.574374870753267e-10 1.886657243065424e-9 1.3486948430255155e-9 1.7276715462202033e-9 4.809213174153754e-10
          4.752468278794174e-10 6.587448125562706e-10 6.50133829565074e-10 3.4270544544382373e-10 4.774082226029226e-10 4.707653469012377e-10
          4.588744469818639e-10 6.252901226252545e-10 4.5183407147555023e-10 1.1335062507944466e-9 1.116297251673201e-9 8.220588937833008e-10
          1.0668632137442194e-9 2.427268938029203e-10 2.392947336247722e-10 3.3949302015604033e-10 3.344801277529257e-10 1.673713769156349e-10
          2.3820907230755566e-10 2.3458143025777367e-10 2.308316819824964e-10 3.205190158827318e-10 2.2461774224371894e-10 6.061349218948139e-10
          5.95966545978648e-10 4.2229653793119924e-10 5.667000838226092e-10 4.3353936924247096e-10 5.86730017802307e-10 3.121372289520662e-10
          4.229647858137754e-10 4.0433103136629917e-10 5.386221989861727e-10 3.8674012843036907e-10 9.906063639832614e-10 7.247343491980554e-10
          8.942992003534752e-10 2.194783318957876e-10 2.992154477354812e-10 1.5614858185651993e-10 2.0775542275108418e-10 2.0522141054652308e-10
          2.721165821886012e-10 2.0164095672352836e-10 5.228495829905855e-10 3.6632702420636306e-10 4.684092473965785e-10 9.86199021830489e-10
          1.144192123864364e-9 1.0584428672208554e-9 1.8104461444518685e-9 8.170400717983656e-10 9.80597071896694e-10 5.427151541043977e-10
          6.861703233827849e-10 7.883668416525441e-10 9.216857673220091e-10 6.499167770291772e-10 1.5383489662569034e-9 1.0846314535506464e-9
          3.8297767665169764e-10 4.829204072603143e-10 2.74738221481249e-10 3.463904489585132e-10 3.761954734354702e-10 4.529990534762655e-10
          3.2568454093229156e-10 7.819538335514252e-10 5.661200309377743e-10 1.92479894090667e-10 2.418047983848955e-10 1.6388951207967806e-10
          2.0133088653684712e-10 1.8767284036149428e-10 2.2623653144789853e-10 1.9219720134855344e-10 4.046899902033593e-10 3.229503936991543e-10
          3.626279224968136e-9 3.5826822631260247e-9 3.4682793239557293e-9 5.573017657472936e-9 3.2303916343593002e-9 3.187648890398084e-9
          2.5093601616818125e-9 2.4698820996685053e-9 3.0681755672802508e-9 2.3547853926924434e-9 5.074489324684686e-9 4.996634705969356e-9
          3.989358092808226e-9 4.782537462891064e-9 3.2565820010123406e-9 2.9794095704137372e-9 4.9829755819517466e-9 2.866940933032554e-9
          2.1788772456867235e-9 2.6092071684954465e-9 1.9609632091975743e-9 4.424914625483512e-9 3.4641951621433743e-9 8.126419946645736e-9
          8.000777809784162e-9 7.708494870372089e-9 1.2035844867042733e-8 7.58830402227149e-9 7.461190290356685e-9 6.468448350221635e-9
          6.342412226652988e-9 7.122698825931461e-9 5.974260953768624e-9 7.150776798435491e-9 1.046057315321009e-8 6.553885703076436e-9
          5.419213073766375e-9 4.75334472377452e-9 1.926554511269555e-9 1.892833963563239e-9 1.457825599122674e-9 1.4306888232247823e-9
          1.7966586799715373e-9 1.3534757870603623e-9 3.243153565335568e-9 3.178573590488324e-9 2.4675821430490153e-9 2.995251456077189e-9
          1.0762514365991446e-9 1.0552974352899619e-9 7.720017122375023e-10 7.565019869630703e-10 9.959488868173364e-10 7.125733129916228e-10
          1.897941284153569e-9 1.8555957421648646e-9 1.3461727569229828e-9 1.7360125699745855e-9 1.6506728135628869e-9 1.2372553550304483e-9
          1.4723185373495351e-9 1.0962762863373965e-9 2.7204012782770652e-9 2.089695438557512e-9 2.391820520093463e-9 9.08320714897342e-10
          6.484689277414668e-10 8.029213134991909e-10 5.716147276056151e-10 1.5591023740261165e-9 1.1249298047457131e-9 1.3511117867336666e-9
          5.334937712373429e-9 5.2190532192547594e-9 4.2657371910476465e-9 4.1662385954340315e-9 4.8886702882316385e-9 3.88297735370086e-9
          3.282720107858796e-9 3.2015422363564313e-9 2.420949785378785e-9 2.358508280193259e-9 2.971728800214187e-9 2.1825435703786462e-9
          4.392859966846876e-9 3.4619121037777305e-9 3.8053242762794875e-9 2.9691109511947443e-9 2.6330572989297205e-9 1.925196896862508e-9
          2.240888905497896e-9 1.6297286212223632e-9 2.679607780150873e-9 2.329660153509563e-9 1.7248771713069989e-9 1.2813058498210386e-9
          9.46064838609662e-10 6.885491790455068e-10 4.876335594142886e-10 8.127661233532228e-10 1.3350867844244298e-9 1.197713740061928e-10
          1.181192005979397e-10 1.6291622707028742e-10 1.6052264208183894e-10 1.0061110053830845e-10 1.314561633296428e-10 1.2964302948054855e-10
          1.1401528461804044e-10 1.537259877134052e-10 1.2421434037002407e-10 2.968290486800131e-10 2.9166284669982246e-10 2.764454547545828e-10
          1.1178230654437958e-10 1.4293395564519923e-10 9.554896088803353e-11 1.1807916874970078e-10 1.1200107104236493e-10 1.3654499295697855e-10
          1.1555955239080774e-10 2.5106016077327113e-10 2.4648392650043493e-10 5.382544304808063e-10 5.272781529628076e-10 4.960021437015393e-10
          4.4944436247554714e-10 3.9349025141075796e-10 2.468490265944765e-10 3.340883622712214e-10 2.8654224606006802e-8 6.578063562486352e-9
          2.0099757152981587e-9 1.9812032143947632e-9 4.53068110544578e-9 1.5522433586848733e-9 1.781777549868393e-9 8.730974406221216e-8
          1.7884763481338296e-7 1.887336341824704e-8 4.893434600226692e-8 1.0249677271598789e-7 1.0406266470219882e-9 1.9637911865132633e-9
          1.8263827729876792e-9 2.976655514081309e-9 4.301523616629743e-9 6.2963134764720366e-9 1.7824156312823898e-9 1.7717887808141956e-9
          1.6139239898448655e-9 1.8172538472484024e-9 4.826033235783139e-10 1.0476649973894446e-8 1.8098942333384257e-8 8.557057442726663e-9
          1.9277180732163383e-9 2.410440952211203e-9 5.450501671340203e-10 6.725331906586363e-10 7.976567553252978e-10 9.642661078733212e-10
          1.45896858931633e-9 5.615656551723531e-10 1.1845004685004938e-9 2.3639102161395594e-8 4.2792850361570046e-8 4.401100759709472e-8
          1.637167350561798e-7 1.9110199703675047e-8 3.476485731679148e-8 3.284755136063332e-10 3.163734143734922e-10 3.2747053105370303e-10
          3.1373604683500993e-10 2.856404157587223e-10 3.8580934036452153e-10 3.1612918246917686e-9 4.5858620625531726e-9 5.072424336261899e-9
          1.736721586830365e-9 2.3615636338707864e-9 4.262155650231405e-10 3.4380938136053577e-10 3.6334605830449896e-10 6.872864301411393e-9
          9.961701050885963e-9 2.7714082478443317e-9 6.2073547962874765e-9 5.234566006781276e-9 1.6388823444092456e-9 1.3075409292426854e-9
          1.6699640579648797e-9 2.0978642288293302e-9 1.47873437426279e-9 7.389143996653539e-10 3.808073755130203e-10 3.971558391753631e-9
          1.1478098677729671e-8 1.1231102034391165e-8 9.895216302598282e-9 9.70156402898792e-9 1.0624203555149051e-8 9.118101160954046e-9
          5.821982658062303e-9 6.386521349161217e-9 9.678138946436821e-9 8.215645690766013e-9 8.478129892198173e-9 7.126305094470422e-9
          8.424967182065835e-9 8.239006911840228e-9 6.927345768695879e-9 6.7611050335122205e-9 7.697465703083158e-9 6.279346121948456e-9
          5.460077200513822e-9 5.319223393471269e-9 4.106216615948204e-9 3.993899178440107e-9 4.914744840780272e-9 3.673995505592167e-9
          6.865844749544335e-9 5.550203424202798e-9 5.873060989640141e-9 4.693307316304855e-9 4.310293250021133e-9 3.2019280792655985e-9
          3.609913799858257e-9 2.6621830053711796e-9 2.037984819351038e-9 2.356650331665634e-9 1.4866167697174288e-9 3.4948237611513717e-9
          3.9776146853000366e-9 2.6676018475282205e-9 3.013956107343228e-9 2.262876784616118e-9 4.051608801087364e-9 5.061876433785088e-9
          5.986530468105567e-9 7.25818216186387e-9 1.0901265513905274e-9 7.984604067228642e-10 2.046123146242263e-9 1.543742908135763e-9
          1.710971928951959e-9 1.276601375502388e-9 5.758869909187142e-10 4.0571042936899746e-10 1.1365262430432816e-9 9.320819385694988e-10
          6.627969607690674e-10 3.199661692561304e-9 2.467921459507976e-9 4.859981444052359e-9 3.832074504055996e-9 1.8465375813059994e-9
          1.0661515114469794e-9 1.4838540252602927e-9 2.9164063490378057e-9 2.1343551066138857e-9 1.6668118734585313e-9 2.2951205272997863e-9
          3.078523343642704e-10 2.228070719043513e-10 2.8952150020513884e-10 1.9268244709817054e-10 3.6077701184141384e-10 3.5341518936291085e-10
          3.323242236587483e-10 9.624546788720423e-10 9.39855441974977e-10 6.464185938567315e-10 6.311874469563982e-10 8.763165604947116e-10
          5.88387519609802e-10 3.006267351234701e-10 2.628046831227984e-10 7.830731507041721e-10 5.256665107507158e-10 6.744901434280371e-10
          4.527497138304798e-10 1.7076908220502365e-9 1.6624539613737072e-9 1.5354786094383778e-9 2.937702300960801e-9 2.8537433341793427e-9
          2.6164876888993446e-9 1.350872005491302e-9 1.1402150423042256e-9 2.270365056722398e-9 1.8789698549858884e-9 1.6439680278162987e-10
          2.233137735613107e-10 2.0661738182374664e-10 2.7676273917612494e-10 1.850090807789942e-10 5.633831079321976e-10 3.782699451423322e-10
          4.5830037142570147e-10 3.079474391999283e-10 9.313173824135905e-10 7.415328925231788e-10 1.4997230882968423e-9 1.1663061047431755e-9
        </DataArray>
        <DataArray type="Float64" Name="gradient_matprop_error" format="ascii" RangeMin="0" RangeMax="0">
          0 0 0 0 0 0
          0 0 0 0 0 0
          0 0 0 0 0 0
          0 0 0 0 0 0
          0 0 0 0 0 0
          0 0 0 0 0 0
          0 0 0 0 0 0
          0 0 0 0 0 0
          0 0 0 0 0 0
          0 0 0 0 0 0
          0 0 0 0 0 0
          0 0 0 0 0 0
          0 0 0 0 0 0
          0 0 0 0 0 0
          0 0 0 0 0 0
          0 0 0 0 0 0
          0 0 0 0 0 0
          0 0 0 0 0 0
          0 0 0 0 0 0
          0 0 0 0 0 0
          0 0 0 0 0 0
          0 0 0 0 0 0
          0 0 0 0 0 0
          0 0 0 0 0 0
          0 0 0 0 0 0
          0 0 0 0 0 0
          0 0 0 0 0 0
          0 0 0 0 0 0
          0 0 0 0 0 0
          0 0 0 0 0 0
          0 0 0 0 0 0
          0 0 0 0 0 0
          0 0 0 0 0 0
          0 0 0 0 0 0
          0 0 0 0 0 0
          0 0 0 0 0 0
          0 0 0 0 0 0
          0 0 0 0 0 0
          0 0 0 0 0 0
          0 0 0 0 0 0
          0 0 0 0 0 0
          0 0 0 0 0 0
          0 0 0 0 0 0
          0 0 0 0 0 0
          0 0 0 0 0 0
          0 0 0 0 0 0
          0 0 0 0 0 0
          0 0 0 0 0 0
          0 0 0 0 0 0
          0 0 0 0 0 0
          0 0 0 0 0 0
          0 0 0 0 0 0
          0 0 0 0 0 0
          0 0 0 0 0 0
          0 0 0 0 0 0
          0 0 0 0 0 0
          0 0 0 0 0 0
          0 0 0 0 0 0
          0 0 0 0 0 0
          0 0 0 0 0 0
          0 0 0 0 0 0
          0 0 0 0 0 0
          0 0 0 0 0 0
          0 0 0 0 0 0
          0 0 0 0 0 0
          0 0 0 0 0 0
          0 0 0 0 0 0
          0 0 0 0 0 0
          0 0 0 0 0 0
          0 0 0 0 0 0
          0 0 0 0 0 0
          0 0 0 0 0 0
          0 0 0 0 0 0
          0 0 0 0 0 0
          0 0 0 0 0 0
          0 0 0 0 0 0
          0 0 0 0 0 0
          0 0 0 0 0 0
          0 0 0 0 0 0
          0 0 0 0 0 0
          0 0 0 0 0 0
          0 0 0 0 0 0
          0 0 0 0 0 0
          0 0 0 0 0 0
          0 0 0 0 0 0
          0 0 0 0 0 0
          0 0 0 0 0 0
          0 0 0 0 0 0
        </DataArray>
        <DataArray type="Float64" Name="initial_marker" format="ascii" RangeMin="0" RangeMax="2">
          0.5 1 0.25 0.25 2 0
          0 0 2 2 2 2
          0.6666666666666666 2 2 1 0 0
          0 2 2 2 1.75 0
          0 0 0 0 0 0
          0 0 1 1 1 2
          0 0.5 0 2 2 2
          0 0 1 0.75 0 1
          0.25 0 0.5 0 2 2
          2 2 0 0 0 0
          0 0 0 0 0 2
          2 2 2 0 0.25 0
          0 0 0 0 0 0
          0 0 2 2 2 2
          2 2 2 2 2 2
          2 2 2 0 0 0
          0 0 0 0 0 0
          0 0 0 0 0 0
          0 0 2 2 2 1.5
          2 2 2 2 2 1.5
          2 1.75 1 1.5 1.25 2
          2 2 2 0 1 1
          2 0 1 0 1 0
          1 1 2 2 2 1
          0.5 1.5 1.25 0 1 1
          0 1 1 2 2 2
          2 0 0 1 1 0
          1 1 0 1 1 2
          2 2 2 0 1 0
          1 0 1 1 2 2
          2 0 1 0 1 0
          1 1 2 2 2 0
          1 1 2 0 1 0
          0.75 0 1 0.5 2 1.75
          0 0.5 0 0.5 0 0
          0 1.5 1.5 0 0.5 0
          0.5 0 0 0 1.5 1.6666666666666667
          2 2 2 2 2 2
          2 2 2 2 2 2
          2 2 2 2 2 2
          2 2 2 2 2 2
          2 2 2 2 2 2
          2 2 2 2 2 2
          2 2 2 2 2 2
          2 2 2 2 2 2
          2 2 2 2 2 2
          2 2 2 2 2 2
          2 2 2 2 2 2
          2 2 2 2 2 2
          2 2 2 2 2 2
          2 2 2 2 2 2
          2 2 2 2 2 2
          2 2 2 2 2 2
          2 2 2 2 2 0
          0 1 1 0 1 1
          0 1 1 2 2 2
          0 0.75 0 0.5 0 0.5
          0 1.75 1.6666666666666667 2 2 2
          2 2 2 2 0 0
          0 0 0 0 0 1.25
          1.5 0 0.25 0.5 0 0
          0 0 0 0 0 0
          0 0 0 1.5 1.5 0.5
          1.25 0 0 0 0 1
          0 0.75 0 2 2 2
          2 2 2 0 0 0
          0 0 0 0 0 0
          0 0 0 1 0.25 0.25
          0.5 0 0 0 0 0
          0 0 2 1.3333333333333333 1.3333333333333333 2
          2 2 2 2 2 2
          2 2 2 2 2 2
          2 2 2 2 2 2
          2 2 2 2 2 2
          2 2 2 2 2 2
          2 2 2 2 2 2
          2 2 2 2 2 2
          2 2 2 2 2 2
          2 2 2 1.75 2 2
          2 2 2 2 2 2
          2 2 2 2 2 2
          1.5 2 1.5 1.6666666666666667 2 2
          2 2 2 2 2 2
          2 2 2 2 2 2
          2 2 2 2 2 2
          2 2 2 2 2 1.5
          1.75 1 1.5 1.25 2 2
          2 2 2 2 2 2
        </DataArray>
        <DataArray type="Float64" Name="markers_norefine" format="ascii" RangeMin="0" RangeMax="0">
          0 0 0 0 0 0
          0 0 0 0 0 0
          0 0 0 0 0 0
          0 0 0 0 0 0
          0 0 0 0 0 0
          0 0 0 0 0 0
          0 0 0 0 0 0
          0 0 0 0 0 0
          0 0 0 0 0 0
          0 0 0 0 0 0
          0 0 0 0 0 0
          0 0 0 0 0 0
          0 0 0 0 0 0
          0 0 0 0 0 0
          0 0 0 0 0 0
          0 0 0 0 0 0
          0 0 0 0 0 0
          0 0 0 0 0 0
          0 0 0 0 0 0
          0 0 0 0 0 0
          0 0 0 0 0 0
          0 0 0 0 0 0
          0 0 0 0 0 0
          0 0 0 0 0 0
          0 0 0 0 0 0
          0 0 0 0 0 0
          0 0 0 0 0 0
          0 0 0 0 0 0
          0 0 0 0 0 0
          0 0 0 0 0 0
          0 0 0 0 0 0
          0 0 0 0 0 0
          0 0 0 0 0 0
          0 0 0 0 0 0
          0 0 0 0 0 0
          0 0 0 0 0 0
          0 0 0 0 0 0
          0 0 0 0 0 0
          0 0 0 0 0 0
          0 0 0 0 0 0
          0 0 0 0 0 0
          0 0 0 0 0 0
          0 0 0 0 0 0
          0 0 0 0 0 0
          0 0 0 0 0 0
          0 0 0 0 0 0
          0 0 0 0 0 0
          0 0 0 0 0 0
          0 0 0 0 0 0
          0 0 0 0 0 0
          0 0 0 0 0 0
          0 0 0 0 0 0
          0 0 0 0 0 0
          0 0 0 0 0 0
          0 0 0 0 0 0
          0 0 0 0 0 0
          0 0 0 0 0 0
          0 0 0 0 0 0
          0 0 0 0 0 0
          0 0 0 0 0 0
          0 0 0 0 0 0
          0 0 0 0 0 0
          0 0 0 0 0 0
          0 0 0 0 0 0
          0 0 0 0 0 0
          0 0 0 0 0 0
          0 0 0 0 0 0
          0 0 0 0 0 0
          0 0 0 0 0 0
          0 0 0 0 0 0
          0 0 0 0 0 0
          0 0 0 0 0 0
          0 0 0 0 0 0
          0 0 0 0 0 0
          0 0 0 0 0 0
          0 0 0 0 0 0
          0 0 0 0 0 0
          0 0 0 0 0 0
          0 0 0 0 0 0
          0 0 0 0 0 0
          0 0 0 0 0 0
          0 0 0 0 0 0
          0 0 0 0 0 0
          0 0 0 0 0 0
          0 0 0 0 0 0
          0 0 0 0 0 0
          0 0 0 0 0 0
          0 0 0 0 0 0
        </DataArray>
        <DataArray type="Float64" Name="markers_mustrefine" format="ascii" RangeMin="0" RangeMax="2">
          0.5 1 0.25 0.25 2 0
          0 0 2 2 2 2
          0.6666666666666666 2 2 1 0 0
          0 2 2 2 1.75 0
          0 0 0 0 0 0
          0 0 1 1 1 2
          0 0.5 0 2 2 2
          0 0 1 0.75 0 1
          0.25 0 0.5 0 2 2
          2 2 0 0 0 0
          0 0 0 0 0 2
          2 2 2 0 0.25 0
          0 0 0 0 0 0
          0 0 2 2 2 2
          2 2 2 2 2 2
          2 2 2 0 0 0
          0 0 0 0 0 0
          0 0 0 0 0 0
          0 0 2 2 2 1.5
          2 2 2 2 2 1.5
          2 1.75 1 1.5 1.25 2
          2 2 2 0 1 1
          2 0 1 0 1 0
          1 1 2 2 2 1
          0.5 1.5 1.25 0 1 1
          0 1 1 2 2 2
          2 0 0 1 1 0
          1 1 0 1 1 2
          2 2 2 0 1 0
          1 0 1 1 2 2
          2 0 1 0 1 0
          1 1 2 2 2 0
          1 1 2 0 1 0
          0.75 0 1 0.5 2 1.75
          0 0.5 0 0.5 0 0
          0 1.5 1.5 0 0.5 0
          0.5 0 0 0 1.5 1.6666666666666667
          2 2 2 2 2 2
          2 2 2 2 2 2
          2 2 2 2 2 2
          2 2 2 2 2 2
          2 2 2 2 2 2
          2 2 2 2 2 2
          2 2 2 2 2 2
          2 2 2 2 2 2
          2 2 2 2 2 2
          2 2 2 2 2 2
          2 2 2 2 2 2
          2 2 2 2 2 2
          2 2 2 2 2 2
          2 2 2 2 2 2
          2 2 2 2 2 2
          2 2 2 2 2 2
          2 2 2 2 2 0
          0 1 1 0 1 1
          0 1 1 2 2 2
          0 0.75 0 0.5 0 0.5
          0 1.75 1.6666666666666667 2 2 2
          2 2 2 2 0 0
          0 0 0 0 0 1.25
          1.5 0 0.25 0.5 0 0
          0 0 0 0 0 0
          0 0 0 1.5 1.5 0.5
          1.25 0 0 0 0 1
          0 0.75 0 2 2 2
          2 2 2 0 0 0
          0 0 0 0 0 0
          0 0 0 1 0.25 0.25
          0.5 0 0 0 0 0
          0 0 2 1.3333333333333333 1.3333333333333333 2
          2 2 2 2 2 2
          2 2 2 2 2 2
          2 2 2 2 2 2
          2 2 2 2 2 2
          2 2 2 2 2 2
          2 2 2 2 2 2
          2 2 2 2 2 2
          2 2 2 2 2 2
          2 2 2 1.75 2 2
          2 2 2 2 2 2
          2 2 2 2 2 2
          1.5 2 1.5 1.6666666666666667 2 2
          2 2 2 2 2 2
          2 2 2 2 2 2
          2 2 2 2 2 2
          2 2 2 2 2 1.5
          1.75 1 1.5 1.25 2 2
          2 2 2 2 2 2
        </DataArray>
        <DataArray type="Float64" Name="gradient_marker" format="ascii" RangeMin="0" RangeMax="1">
          0.5 1 0.875 0.25 0.75 1
          1 0.75 1 0.75 1 0.875
          0.16666666666666666 0.5 0.375 0.25 0 0.5
          0.5 1 1 1 1 0.5
          0 0 0 0.5 0.5 0.5
          0.5 0 0 0 0 0
          0 0 0 0 0 0.6666666666666666
          0 0 0 0 0.5 0.75
          0.75 0 0 0.75 0 0
          1 0 1 1 1 1
          1 1 1 1 1 1
          1 1 1 0 0 0.5
          0.625 0 0 0.5 1 1
          1 1 0 0 1 1
          1 0.25 0.25 1 1 1
          1 1 1 0 0 0
          0 0 0.5 0.5 0 0
          0.5 1 1 1 1 1
          1 1 0 0 0 0
          0 0.5 0.5 0.5 0.5 1
          1 1 0.5 0.5 1 0.5
          0.5 1 0.5 0 0 0
          0 0.5 0.5 1 1 0.5
          0.5 1 0.5 1 0.5 1
          1 1 1 1 1 1
          1 1 1 1 1 1
          1 1 1 1 1 1
          1 1 1 1 1 1
          1 1 1 1 1 1
          1 1 1 1 1 1
          1 1 1 1 1 1
          1 1 1 1 1 0
          0 0 0 0.5 0.5 1
          1 0.5 0.5 1 0.5 1
          1 1 1 1 1 1
          1 1 1 1 1 1
          1 1 1 1 1 1
          0 0 0 0 0.5 0.5
          1 1 0.5 1 0.5 0.5
          1 0.5 0 0 0 0.5
          1 0.5 1 0.5 1 0
          0 0 0 0.5 0.5 1
          1 0.5 1 0 0 0.5
          1 1 1 1 1 1
          1 1 1 1 1 1
          1 1 1 1 1 1
          1 1 1 1 1 1
          1 1 1 1 1 1
          1 1 1 1 1 1
          1 1 1 1 1 1
          1 1 1 1 1 1
          1 1 1 1 1 1
          1 1 0 0.5 1 1
          1 1 1 1 1 1
          1 1 1 1 1 1
          1 1 1 1 1 1
          1 1 1 1 1 1
          1 1 1 1 1 1
          1 1 1 1 0.75 1
          1 1 1 1 1 0.25
          0.625 0 0.125 0.375 1 1
          1 0.5 0.5 0 1 1
          1 1 1 0 0 0
          0.875 0.75 1 1 1 1
          1 1 1 0 0 0.25
          0.75 0 0 1 1 1
          1 1 1 0.5 0 0.5
          1 1 1 1 1 0
          0 0.625 0 0.5 1 1
          1 1 0.5 1 1 0.5
          0.5 0.5 1 1 0.5 1
          0.5 0 0.5 1 0.5 1
          1 1 1 1 1 1
          1 1 1 1 1 1
          1 1 1 1 1 1
          1 1 0.5 0 1 0.5
          0 1 0.5 1 1 0.5
          1 0.5 1 1 1 1
          1 1 1 1 1 1
          1 1 1 1 1 1
          1 1 1 1 1 1
          1 1 1 1 1 1
          1 1 1 1 1 1
          1 1 1 1 1 1
          1 1 1 1 1 1
          1 1 1 1 1 1
          1 1 1 1 1 1
          1 1 1 1 1 1
        </DataArray>
        <DataArray type="Float64" Name="gradient_matprop_marker" format="ascii" RangeMin="0" RangeMax="0">
          0 0 0 0 0 0
          0 0 0 0 0 0
          0 0 0 0 0 0
          0 0 0 0 0 0
          0 0 0 0 0 0
          0 0 0 0 0 0
          0 0 0 0 0 0
          0 0 0 0 0 0
          0 0 0 0 0 0
          0 0 0 0 0 0
          0 0 0 0 0 0
          0 0 0 0 0 0
          0 0 0 0 0 0
          0 0 0 0 0 0
          0 0 0 0 0 0
          0 0 0 0 0 0
          0 0 0 0 0 0
          0 0 0 0 0 0
          0 0 0 0 0 0
          0 0 0 0 0 0
          0 0 0 0 0 0
          0 0 0 0 0 0
          0 0 0 0 0 0
          0 0 0 0 0 0