<?xml version="1.0"?>
<VTKFile type="UnstructuredGrid" version="0.1" byte_order="LittleEndian" header_type="UInt32" compressor="vtkZLibDataCompressor">
  <UnstructuredGrid>
    <Piece NumberOfPoints="335" NumberOfCells="175">
      <PointData>
        <DataArray type="Int32" Name="libmesh_node_id" format="ascii" RangeMin="194" RangeMax="2793">
          194 320 321 323 328 329
          330 404 535 536 537 540
          543 545 546 547 548 549
          550 551 552 553 554 555
          556 557 558 726 727 730
          733 734 736 737 739 740
          1106 1107 1108 1111 1114 1128
          1129 1132 1134 1146 1147 1148
          1149 1150 1151 1152 1153 1154
          1155 1164 1166 1168 1170 1171
          1172 1173 1174 1175 1176 1177
          1178 1179 1180 1181 1182 1183
          1184 1185 1186 1187 1188 1189
          1190 1191 1192 1193 1194 1195
          1196 1197 1198 1199 1200 1201
          1202 1203 1258 1259 1260 1261
          1262 1263 1264 1265 1266 1267
          1268 1269 1270 1271 1289 1290
          1291 1292 1293 1294 1295 1296
          1297 1298 1299 1300 1301 1302
          1303 1304 1305 1306 1307 1308
          1309 2335 2336 2337 2338 2339
          2341 2342 2343 2344 2345 2346
          2355 2356 2357 2359 2360 2361
          2362 2363 2422 2424 2428 2429
          2507 2509 2510 2511 2512 2513
          2514 2515 2516 2517 2518 2524
          2526 2527 2528 2529 2530 2531
          2532 2535 2536 2538 2541 2543
          2544 2545 2546 2547 2548 2549
          2550 2551 2552 2554 2556 2558
          2560 2561 2562 2563 2564 2565
          2566 2630 2631 2633 2634 2635
          2654 2655 2657 2658 2659 2678
          2679 2680 2681 2682 2683 2684
          2685 2686 2687 2688 2689 2690
          2691 2692 2693 2694 2695 2696
          2697 2698 2699 2700 2701 2702
          2703 2704 2705 2706 2707 2708
          2709 2710 2711 2712 2713 2714
          2715 2716 2717 2718 2719 2720
          2721 2722 2723 2724 2725 2726
          2727 2728 2729 2730 2731 2732
          2733 2734 2735 2736 2737 2738
          2739 2740 2741 2742 2743 2744
          2745 2746 2747 2748 2749 2750
          2751 2752 2753 2754 2755 2756
          2757 2758 2759 2760 2761 2762
          2763 2764 2765 2766 2767 2768
          2769 2770 2771 2772 2773 2774
          2775 2776 2777 2778 2779 2780
          2781 2782 2783 2784 2785 2786
          2787 2788 2789 2790 2791 2792
          2793 234 394 395 322 396
          397 324 399 400 267 406
          405 402 327 407 241
        </DataArray>
        <DataArray type="Float64" Name="bounds" format="ascii" RangeMin="0" RangeMax="0">
          0 0 0 0 0 0
          0 0 0 0 0 0
          0 0 0 0 0 0
          0 0 0 0 0 0
          0 0 0 0 0 0
          0 0 0 0 0 0
          0 0 0 0 0 0
          0 0 0 0 0 0
          0 0 0 0 0 0
          0 0 0 0 0 0
          0 0 0 0 0 0
          0 0 0 0 0 0
          0 0 0 0 0 0
          0 0 0 0 0 0
          0 0 0 0 0 0
          0 0 0 0 0 0
          0 0 0 0 0 0
          0 0 0 0 0 0
          0 0 0 0 0 0
          0 0 0 0 0 0
          0 0 0 0 0 0
          0 0 0 0 0 0
          0 0 0 0 0 0
          0 0 0 0 0 0
          0 0 0 0 0 0
          0 0 0 0 0 0
          0 0 0 0 0 0
          0 0 0 0 0 0
          0 0 0 0 0 0
          0 0 0 0 0 0
          0 0 0 0 0 0
          0 0 0 0 0 0
          0 0 0 0 0 0
          0 0 0 0 0 0
          0 0 0 0 0 0
          0 0 0 0 0 0
          0 0 0 0 0 0
          0 0 0 0 0 0
          0 0 0 0 0 0
          0 0 0 0 0 0
          0 0 0 0 0 0
          0 0 0 0 0 0
          0 0 0 0 0 0
          0 0 0 0 0 0
          0 0 0 0 0 0
          0 0 0 0 0 0
          0 0 0 0 0 0
          0 0 0 0 0 0
          0 0 0 0 0 0
          0 0 0 0 0 0
          0 0 0 0 0 0
          0 0 0 0 0 0
          0 0 0 0 0 0
          0 0 0 0 0 0
          0 0 0 0 0 0
          0 0 0 0 0
        </DataArray>
        <DataArray type="Float64" Name="gradient_error" format="ascii" RangeMin="5.530529129388389e-12" RangeMax="1.3119686979917444e-9">
          1.1574307164905444e-11 1.3840343788505068e-10 3.343281198815709e-10 4.195737082518013e-11 3.023702750792699e-10 1.156131908932121e-10
          6.920500669945595e-11 9.09128487106144e-12 1.7429376150089422e-10 1.0217019085191386e-10 5.2629391282334664e-11 2.1774254048924906e-10
          1.1216935199291255e-10 6.716466309035353e-11 6.738412124687978e-11 3.037605932828256e-11 3.5914692261471264e-11 4.004986212816375e-11
          2.201351232672227e-11 2.9921520465594625e-11 8.322945946853242e-11 8.373790067689345e-11 4.61109996863559e-11 1.9888642690644248e-11
          3.441945180365298e-11 2.5098580240347334e-11 8.92545911865738e-11 1.4282004163758973e-10 2.029851793044208e-10 2.724086584386767e-10
          7.790990430488467e-11 7.740581091549191e-11 3.969856457716937e-11 4.7004231161920035e-11 7.690171752609914e-11 5.4309897746670694e-11
          1.2238682523068705e-10 1.0063745037037706e-10 8.845281891801686e-11 7.238291424132007e-11 8.197679414025054e-11 7.372245472824503e-11
          7.43900702412914e-11 7.992431599670558e-11 8.469705165028138e-11 9.979595733487717e-10 7.692193375147736e-10 2.2996161334766494e-10
          1.7904877268088584e-10 3.5468597079930946e-10 8.808552816992939e-11 1.3119686979917444e-9 1.0244778116149735e-9 2.3540584730457344e-10
          4.5990943995409763e-10 7.589561070670268e-11 1.1461874904136744e-10 5.70346893378918e-11 5.054773926787111e-11 4.6258887292379344e-11
          4.020261650981723e-11 3.631429842946475e-11 2.3172316398600047e-11 3.442409620109458e-11 3.164531740095053e-11 3.6220446355280494e-11
          3.747327956871419e-11 2.5502435888121722e-11 3.0435740555811744e-11 2.5712814336613738e-11 2.024181102548574e-11 3.014711234786004e-11
          4.5586182927033327e-11 3.6303492976292454e-11 1.6134997872672773e-11 1.3447075976152617e-11 2.803132948655124e-11 2.2064514182695266e-11
          5.895895662739835e-11 4.6602889599778135e-11 1.639586563513713e-11 3.383181477188262e-11 4.0852142273993667e-11 4.140136852001434e-11
          2.8392451694266147e-11 3.656448274614499e-11 4.1911118891437004e-11 5.317020013731543e-11 2.8249986660657178e-11 4.5898070454297255e-11
          4.01589484532753e-11 5.763796411812184e-11 1.0177194101963704e-11 1.1302677234416257e-11 9.99094418756159e-12 1.1401265350107735e-11
          8.792138178371469e-12 5.80187575258326e-12 8.032863825143889e-12 1.2428160366868813e-11 1.281158651265388e-11 1.0263851897704518e-11
          9.804694273159474e-12 1.1499853465799211e-11 7.273589471916311e-12 1.319501265843895e-11 2.629576511698292e-11 3.563323224975625e-11
          1.9183896864307395e-11 2.149939160691251e-11 2.2120672840292437e-11 2.862023723332871e-11 2.086045003838804e-11 1.1965323822178202e-11
          1.0677710662618143e-11 1.4239465046388196e-11 1.261111065713931e-11 7.32341560902544e-12 7.805614779261708e-12 7.729327046791059e-12
          9.390097503058086e-12 1.0982756267890424e-11 7.65303931432041e-12 1.651360627059819e-11 1.4544510651660475e-11 8.135238484556678e-12
          1.257541503272276e-11 1.16636254615005e-10 1.107216554329646e-10 3.8364789241026565e-11 5.7727032278858685e-11 5.4962589998464274e-11
          9.506355850242723e-11 4.7634503036540235e-11 2.111742454020773e-10 1.9916050074631326e-10 9.662485964913497e-11 1.675609825729887e-10
          7.485999699066474e-11 2.74945797992388e-11 3.766771431080634e-11 5.444836271783292e-11 3.165510283739942e-11 1.2755843337497872e-10
          6.300205001650393e-11 8.919835021274109e-11 3.683676139146796e-11 2.6034868727496798e-11 5.762751700747769e-11 3.371747329523663e-11
          9.365836495044617e-10 3.435758053252213e-10 3.226102798086321e-10 1.630790911454127e-10 1.5347625022650404e-10 2.67366930405968e-10
          1.2820413615190163e-10 4.898343959684066e-10 4.5967797276555287e-10 2.1605338989975085e-10 3.786411142298283e-10 5.519916141271941e-10
          1.975955890244192e-10 9.618878562778994e-11 1.33084113910383e-10 6.579616279613999e-11 2.74585348069428e-10 1.3177994124581215e-10
          1.7964376459520325e-10 1.2280741235676155e-9 1.1568083251055895e-9 9.540722401839543e-10 1.2384252985103457e-9 6.035231125040007e-10
          5.67482074808032e-10 2.8256729491514195e-10 2.656484692022513e-10 4.678164098550917e-10 2.1977664696472173e-10 6.457793733086685e-10
          6.079939826880373e-10 2.84453330515641e-10 5.019574959977102e-10 6.809898502136615e-10 4.3067055269843065e-10 7.307759536461112e-10
          3.366997966717133e-10 1.6031751242820272e-10 2.1678036835550709e-10 1.055175872678089e-10 3.606543144345597e-10 1.7128946240972696e-10
          2.3100326608966037e-10 8.320275554534317e-11 4.1953961712820735e-11 3.2158306092733435e-11 1.09554682909447e-10 5.502596472384051e-11
          1.3049174925369154e-10 6.489466515625203e-11 4.530763175570725e-11 1.3852232873458116e-10 6.867445888325297e-11 2.0174243093549035e-11
          1.9403176726377533e-11 2.8122642420490184e-11 2.6893372923833047e-11 1.407277050621567e-11 1.8722735585478066e-11 1.7988822430431638e-11
          1.727402874856159e-11 2.355872514118496e-11 1.584384298215706e-11 4.825349958954342e-11 4.5784977949469075e-11 2.428754350914736e-11
          3.9210202027665624e-11 1.4322249833837742e-11 1.883170325034022e-11 1.0918133997647563e-11 1.3324154536536226e-11 1.2728552529758337e-11
          1.6210059645486433e-11 1.2215532384143546e-11 3.036100969551898e-11 1.659415005385566e-11 2.402883891569585e-11 7.5005985176784e-11
          7.079545010952936e-11 3.3209445568739485e-11 3.144686583310924e-11 5.966627419192399e-11 2.6765068883407692e-11 1.039358149071213e-10
          9.786176741735707e-11 4.304216928341908e-11 8.17415423448335e-11 1.1558997496518713e-11 1.1012122185856599e-11 1.4342563932501221e-11
          1.3626896346622852e-11 7.494756315509215e-12 8.9819093631482e-12 8.559139021983728e-12 9.579862641056123e-12 1.1751130885795338e-11
          7.426691012550416e-12 1.956034510672428e-11 1.8515807547560495e-11 1.0997012843762157e-11 1.578780746428787e-11 4.548558909305134e-11
          2.062570193794026e-11 3.1758570365477375e-11 1.7260952482436733e-11 6.141229506644978e-11 2.7545967857691337e-11 4.2218112266347666e-11
          7.642676758958083e-12 9.205658709776853e-12 5.530529129388389e-12 6.202682646007305e-12 6.590875110998407e-12 7.820284408707513e-12
          5.688351947733038e-12 1.209947869059607e-11 7.703630304467236e-12 1.0094612441013113e-11 1.27031863260748e-10 1.1956575893678838e-10
          5.5276796044752294e-11 5.2132644623586325e-11 9.952942729314044e-11 4.375645731993361e-11 1.3576810962916588e-10 1.2781249648027178e-10
          5.5595804260155736e-11 1.0633133575893893e-10 2.3506475651463985e-11 2.220967436573106e-11 1.3934414627784198e-11 1.3182140024227937e-11
          1.8815172659521795e-11 1.1181095376494945e-11 2.501839145796314e-11 2.3629404143730226e-11 1.3993776089389805e-11 1.997712952100241e-11
          7.405787492421572e-11 3.28879339950003e-11 5.0093296073835926e-11 2.6452840799795552e-11 7.888147517743935e-11 3.4909198607427386e-11
          5.307003335299475e-11 1.4247670751342477e-11 9.0129929873307e-12 1.177786926363949e-11 8.093660642343188e-12 1.5065024782088438e-11
          9.493561528353149e-12 1.2416207351669377e-11 1.7497124217318472e-11 2.0800920295871335e-11 1.3144057365838238e-11 1.4605287769278614e-11
          1.4143874977752247e-11 1.6308244705317383e-11 1.2238822504335287e-11 2.6837223198172113e-11 1.783311164158032e-11 2.036744723447432e-11
          3.1182912014906845e-11 2.0523416948492e-11 2.33357817571212e-11 1.61912046027048e-11 3.279609400789364e-11 2.144712878654235e-11
          2.4409283478176283e-11 2.175534357653543e-10 4.8360256193216965e-11 6.244102115742778e-11 2.5058193371683547e-10 2.9372455343421673e-11
          6.280181051361345e-11 1.365443745297083e-10 2.1717466902008257e-11 4.686828159438135e-11 6.471721483675353e-11 4.854189812578914e-11
          6.305001032785403e-11 9.538271928219361e-11 3.6036476499476086e-10 1.142436524427486e-10 3.9482119386516914e-10
        </DataArray>
        <DataArray type="Float64" Name="gradient_matprop_error" format="ascii" RangeMin="0" RangeMax="0">
          0 0 0 0 0 0
          0 0 0 0 0 0
          0 0 0 0 0 0
          0 0 0 0 0 0
          0 0 0 0 0 0
          0 0 0 0 0 0
          0 0 0 0 0 0
          0 0 0 0 0 0
          0 0 0 0 0 0
          0 0 0 0 0 0
          0 0 0 0 0 0
          0 0 0 0 0 0
          0 0 0 0 0 0
          0 0 0 0 0 0
          0 0 0 0 0 0
          0 0 0 0 0 0
          0 0 0 0 0 0
          0 0 0 0 0 0
          0 0 0 0 0 0
          0 0 0 0 0 0
          0 0 0 0 0 0
          0 0 0 0 0 0
          0 0 0 0 0 0
          0 0 0 0 0 0
          0 0 0 0 0 0
          0 0 0 0 0 0
          0 0 0 0 0 0
          0 0 0 0 0 0
          0 0 0 0 0 0
          0 0 0 0 0 0
          0 0 0 0 0 0
          0 0 0 0 0 0
          0 0 0 0 0 0
          0 0 0 0 0 0
          0 0 0 0 0 0
          0 0 0 0 0 0
          0 0 0 0 0 0
          0 0 0 0 0 0
          0 0 0 0 0 0
          0 0 0 0 0 0
          0 0 0 0 0 0
          0 0 0 0 0 0
          0 0 0 0 0 0
          0 0 0 0 0 0
          0 0 0 0 0 0
          0 0 0 0 0 0
          0 0 0 0 0 0
          0 0 0 0 0 0
          0 0 0 0 0 0
          0 0 0 0 0 0
          0 0 0 0 0 0
          0 0 0 0 0 0
          0 0 0 0 0 0
          0 0 0 0 0 0
          0 0 0 0 0 0
          0 0 0 0 0
        </DataArray>
        <DataArray type="Float64" Name="initial_marker" format="ascii" RangeMin="0" RangeMax="2">
          0 0 0 0 2 0
          0 0 0 2 1.25 0
          2 0 0 0 0 0
          0 0 0 0 0 1
          0 0 0 0 0 0
          0 0 0 0 0 0
          0 0.5 0.5 0 2 0
          0 0 0 2 2 2
          2 2 2 2 2 2
          2 0.75 0 1 0 0
          0 0 0 0 0 0
          0 0 1.5 1 0 0.25
          2 2 1 0.5 1 0
          2 2 1 1.5 0 0
          0 0 0 0 0 0
          0 0 0 0 0 0
          0 0 0 0 0 0
          0 0 0 0 0 0
          0 0 0 0 0 0
          0 0 0 0 0 0
          0 0 0 0 0 0
          0 2 2 1 1.5 1.5
          2 1.5 2 2 2 2
          1.75 0.5 1 1 0.3333333333333333 2
          1.75 1.75 0.25 0 1 0.6666666666666666
          2 2 2 2 2 2
          2 2 2 2 2 2
          2 2 2 2 2 2
          2 2 2 2 2 2
          2 2 2 2 2 2
          2 2 2 2 2 2
          2 2 2 2 2 2
          2 1.75 1.25 0.5 2 1.75
          2 2 1.3333333333333333 2 2 0
          0 1 1 0 1 1
          0 0.75 0.5 2 2 2
          1.75 0 0.25 0 0 0
          0 0 1.25 0.6666666666666666 1 2
          2 2 2 2 1.75 2
          2 2 2 1 1 1.5
          1.25 0 1 0.5 0.5 0.75
          0 2 1.75 1.5 1.5 2
          1.25 1.5 0.6666666666666666 2 1.75 1.75
          0 0.25 0 0 0 0
          0 1 0.5 0.5 2 2
          2 2 2 2 2 2
          2 2 2 2 2 2
          2 2 2 2 2 2
          2 2 2 2 2 2
          2 1.5 1 1 0 1.5
          1 1 0.5 0.5 0 0
          0 0 0 1 0.5 0.5
          1.5 1 1 0 1.5 1
          1 0 0 0 0 0
          0 0 0 0 0 0
          0 0 0 0 0
        </DataArray>
        <DataArray type="Float64" Name="markers_norefine" format="ascii" RangeMin="0" RangeMax="0">
          0 0 0 0 0 0
          0 0 0 0 0 0
          0 0 0 0 0 0
          0 0 0 0 0 0
          0 0 0 0 0 0
          0 0 0 0 0 0
          0 0 0 0 0 0
          0 0 0 0 0 0
          0 0 0 0 0 0
          0 0 0 0 0 0
          0 0 0 0 0 0
          0 0 0 0 0 0
          0 0 0 0 0 0
          0 0 0 0 0 0
          0 0 0 0 0 0
          0 0 0 0 0 0
          0 0 0 0 0 0
          0 0 0 0 0 0
          0 0 0 0 0 0
          0 0 0 0 0 0
          0 0 0 0 0 0
          0 0 0 0 0 0
          0 0 0 0 0 0
          0 0 0 0 0 0
          0 0 0 0 0 0
          0 0 0 0 0 0
          0 0 0 0 0 0
          0 0 0 0 0 0
          0 0 0 0 0 0
          0 0 0 0 0 0
          0 0 0 0 0 0
          0 0 0 0 0 0
          0 0 0 0 0 0
          0 0 0 0 0 0
          0 0 0 0 0 0
          0 0 0 0 0 0
          0 0 0 0 0 0
          0 0 0 0 0 0
          0 0 0 0 0 0
          0 0 0 0 0 0
          0 0 0 0 0 0
          0 0 0 0 0 0
          0 0 0 0 0 0
          0 0 0 0 0 0
          0 0 0 0 0 0
          0 0 0 0 0 0
          0 0 0 0 0 0
          0 0 0 0 0 0
          0 0 0 0 0 0
          0 0 0 0 0 0
          0 0 0 0 0 0
          0 0 0 0 0 0
          0 0 0 0 0 0
          0 0 0 0 0 0
          0 0 0 0 0 0
          0 0 0 0 0
        </DataArray>
        <DataArray type="Float64" Name="markers_mustrefine" format="ascii" RangeMin="0" RangeMax="2">
          0 0 0 0 2 0
          0 0 0 2 1.25 0
          2 0 0 0 0 0
          0 0 0 0 0 1
          0 0 0 0 0 0
          0 0 0 0 0 0
          0 0.5 0.5 0 2 0
          0 0 0 2 2 2
          2 2 2 2 2 2
          2 0.75 0 1 0 0
          0 0 0 0 0 0
          0 0 1.5 1 0 0.25
          2 2 1 0.5 1 0
          2 2 1 1.5 0 0
          0 0 0 0 0 0
          0 0 0 0 0 0
          0 0 0 0 0 0
          0 0 0 0 0 0
          0 0 0 0 0 0
          0 0 0 0 0 0
          0 0 0 0 0 0
          0 2 2 1 1.5 1.5
          2 1.5 2 2 2 2
          1.75 0.5 1 1 0.3333333333333333 2
          1.75 1.75 0.25 0 1 0.6666666666666666
          2 2 2 2 2 2
          2 2 2 2 2 2
          2 2 2 2 2 2
          2 2 2 2 2 2
          2 2 2 2 2 2
          2 2 2 2 2 2
          2 2 2 2 2 2
          2 1.75 1.25 0.5 2 1.75
          2 2 1.3333333333333333 2 2 0
          0 1 1 0 1 1
          0 0.75 0.5 2 2 2
          1.75 0 0.25 0 0 0
          0 0 1.25 0.6666666666666666 1 2
          2 2 2 2 1.75 2
          2 2 2 1 1 1.5
          1.25 0 1 0.5 0.5 0.75
          0 2 1.75 1.5 1.5 2
          1.25 1.5 0.6666666666666666 2 1.75 1.75
          0 0.25 0 0 0 0
          0 1 0.5 0.5 2 2
          2 2 2 2 2 2
          2 2 2 2 2 2
          2 2 2 2 2 2
          2 2 2 2 2 2
          2 1.5 1 1 0 1.5
          1 1 0.5 0.5 0 0
          0 0 0 1 0.5 0.5
          1.5 1 1 0 1.5 1
          1 0 0 0 0 0
          0 0 0 0 0 0
          0 0 0 0 0
        </DataArray>
        <DataArray type="Float64" Name="gradient_marker" format="ascii" RangeMin="1" RangeMax="1">
          1 1 1 1 1 1
          1 1 1 1 1 1
          1 1 1 1 1 1
          1 1 1 1 1 1
          1 1 1 1 1 1
          1 1 1 1 1 1
          1 1 1 1 1 1
          1 1 1 1 1 1
          1 1 1 1 1 1
          1 1 1 1 1 1
          1 1 1 1 1 1
          1 1 1 1 1 1
          1 1 1 1 1 1
          1 1 1 1 1 1
          1 1 1 1 1 1
          1 1 1 1 1 1
          1 1 1 1 1 1
          1 1 1 1 1 1
          1 1 1 1 1 1
          1 1 1 1 1 1
          1 1 1 1 1 1
          1 1 1 1 1 1
          1 1 1 1 1 1
          1 1 1 1 1 1
          1 1 1 1 1 1
          1 1 1 1 1 1
          1 1 1 1 1 1
          1 1 1 1 1 1
          1 1 1 1 1 1
          1 1 1 1 1 1
          1 1 1 1 1 1
          1 1 1 1 1 1
          1 1 1 1 1 1
          1 1 1 1 1 1
          1 1 1 1 1 1
          1 1 1 1 1 1
          1 1 1 1 1 1
          1 1 1 1 1 1
          1 1 1 1 1 1
          1 1 1 1 1 1
          1 1 1 1 1 1
          1 1 1 1 1 1
          1 1 1 1 1 1
          1 1 1 1 1 1
          1 1 1 1 1 1
          1 1 1 1 1 1
          1 1 1 1 1 1
          1 1 1 1 1 1
          1 1 1 1 1 1
          1 1 1 1 1 1
          1 1 1 1 1 1
          1 1 1 1 1 1
          1 1 1 1 1 1
          1 1 1 1 1 1
          1 1 1 1 1 1
          1 1 1 1 1
        </DataArray>
        <DataArray type="Float64" Name="gradient_matprop_marker" format="ascii" RangeMin="0" RangeMax="0">
          0 0 0 0 0 0
          0 0 0 0 0 0
          0 0 0 0 0 0
          0 0 0 0 0 0
          0 0 0 0 0 0
          0 0 0 0 0 0
          0 0 0 0 0 0
          0 0 0 0 0 0
          0 0 0 0 0 0
          0 0 0 0 0 0
          0 0 0 0 0 0
          0 0 0 0 0 0
          0 0 0 0 0 0
          0 0 0 0 0 0
          0 0 0 0 0 0
          0 0 0 0 0 0
          0 0 0 0 0 0
          0 0 0 0 0 0
          0 0 0 0 0 0
          0 0 0 0 0 0
          0 0 0 0 0 0
          0 0 0 0 0 0
          0 0 0 0 0 0
          0 0 0 0 0 0
          0 0 0 0 0 0
          0 0 0 0 0 0
          0 0 0 0 0 0
          0 0 0 0 0 0
          0 0 0 0 0 0
          0 0 0 0 0 0
          0 0 0 0 0 0
          0 0 0 0 0 0
          0 0 0 0 0 0
          0 0 0 0 0 0
          0 0 0 0 0 0
          0 0 0 0 0 0
          0 0 0 0 0 0
          0 0 0 0 0 0
          0 0 0 0 0 0
          0 0 0 0 0 0
          0 0 0 0 0 0
          0 0 0 0 0 0
          0 0 0 0 0 0
          0 0 0 0 0 0
          0 0 0 0 0 0
          0 0 0 0 0 0
          0 0 0 0 0 0
          0 0 0 0 0 0
          0 0 0 0 0 0
          0 0 0 0 0 0
          0 0 0 0 0 0
          0 0 0 0 0 0
          0 0 0 0 0 0
          0 0 0 0 0 0
          0 0 0 0 0 0
          0 0 0 0 0
        </DataArray>
        <DataArray type="Float64" Name="combo" format="ascii" RangeMin="1" RangeMax="1">
          1 1 1 1 1 1
          1 1 1 1 1 1
          1 1 1 1 1 1
          1 1 1 1 1 1
          1 1 1 1 1 1
          1 1 1 1 1 1
          1 1 1 1 1 1
          1 1 1 1 1 1
          1 1 1 1 1 1
          1 1 1 1 1 1
          1 1 1 1 1 1
          1 1 1 1 1 1
          1 1 1 1 1 1
          1 1 1 1 1 1
          1 1 1 1 1 1
          1 1 1 1 1 1
          1 1 1 1 1 1
          1 1 1 1 1 1
          1 1 1 1 1 1
          1 1 1 1 1 1
          1 1 1 1 1 1
          1 1 1 1 1 1
          1 1 1 1 1 1
          1 1 1 1 1 1
          1 1 1 1 1 1
          1 1 1 1 1 1
          1 1 1 1 1 1
          1 1 1 1 1 1
          1 1 1 1 1 1
          1 1 1 1 1 1
          1 1 1 1 1 1
          1 1 1 1 1 1
          1 1 1 1 1 1
          1 1 1 1 1 1
          1 1 1 1 1 1
          1 1 1 1 1 1
          1 1 1 1 1 1
          1 1 1 1 1 1
          1 1 1 1 1 1
          1 1 1 1 1 1
          1 1 1 1 1 1
          1 1 1 1 1 1
          1 1 1 1 1 1
          1 1 1 1 1 1
          1 1 1 1 1 1
          1 1 1 1 1 1
          1 1 1 1 1 1
          1 1 1 1 1 1
          1 1 1 1 1 1
          1 1 1 1 1 1
          1 1 1 1 1 1
          1 1 1 1 1 1
          1 1 1 1 1 1
          1 1 1 1 1 1
          1 1 1 1 1 1
          1 1 1 1 1
        </DataArray>
        <DataArray type="Float64" Name="dHdT" format="ascii" RangeMin="25.813153540803377" RangeMax="26.150582437016354">
          25.81343987824234 25.81766599498024 25.816620753461823 25.81347014527133 25.88490304498223 25.818075919874467
          25.813619740778265 25.813182661076866 25.817145467326213 25.83537277801034 25.82338815842401 25.8181831922763
          25.83741155217413 25.81409196054518 25.814110426559665 25.814456675000617 25.814241324595955 25.813572291734776
          25.81347147306678 25.813521428050365 25.81432312685889 25.81439412734275 25.813672294252346 25.815368286121448
          25.814610156539345 25.81351596628937 25.814473587839913 25.81533055257093 25.815571414853906 25.816040038075695
          25.814012051674645 25.814045452567285 25.813590123491075 25.813638259613523 25.81407885345992 25.813686395735967
          25.818435513521052 25.821300361061333 25.820413951809336 25.818615779696533 25.831086951233324 25.817238442188835
          25.81766606374315 25.8175499700842 25.819366577564878 26.050140818086312 25.98516830841386 25.865107814241036
          25.85228944190148 25.88952692899465 25.83240923851962 26.150582437016354 26.05199165652513 25.865799233995727
          25.91232359223305 25.821582012268735 25.819274415067255 25.822466027641397 25.815526318860158 25.81539253936258
          25.815726883676472 25.815528332605137 25.814448828605993 25.81475697770296 25.81465994081144 25.815173620916244
          25.815352225575566 25.8145225094784 25.817915259961495 25.81720318831007 25.814577624787834 25.816039247376096
          25.823306461696887 25.821213045410115 25.814999241537635 25.814765289392966 25.817514984159416 25.81469037809127
          25.826517137985697 25.823498743857275 25.815046065904426 25.818394748467412 25.815585572332772 25.815938173340705
          25.814671680582663 25.814928417242815 25.815526081633028 25.815856898052125 25.814768182963427 25.81619970596623
          25.81507768254255 25.81601693895825 25.813263927252738 25.813280047340925 25.813260143220663 25.8132785442179
          25.813218650643762 25.81320386707837 25.81321734599309 25.81329616742911 25.81329694521514 25.813230824907805
          25.81325635918859 25.813277041094878 25.813216041342418 25.813297723001163 25.81510727049205 25.81531364512441
          25.81454176438845 25.814552986805353 25.815126059016606 25.81524068256833 25.814623858573814 25.813829084059982
          25.813806072874783 25.81388660833635 25.813856533668183 25.813572877941922 25.81356717035371 25.81357706443959
          25.813783061689588 25.813826459000015 25.813586958525462 25.81394413261272 25.813906994461583 25.813581250937254
          25.813869856310447 25.839163967373068 25.837925513169928 25.82289045820163 25.826508561331615 25.825930731395026
          25.83469132575883 25.824417335526398 25.85891866914312 25.856248857518104 25.834174705714922 25.84940841258571
          25.830495405447877 25.82062367194267 25.822438413917357 25.826465477333073 25.821397532932583 25.84094009084176
          25.827199293420296 25.83316517528047 25.82337400877795 25.820671178963288 25.827297965399524 25.821951437459848
          26.03136947821899 25.889039019152047 25.88388090460341 25.848836508683203 25.846578059324084 25.870944483965772
          25.840865640488367 25.926141613067703 25.917610300568786 25.861435786755386 25.896548307944748 25.932683040307452
          25.85559482718434 25.833967551901104 25.842172484341337 25.82783538037757 25.872328664221186 25.841589164355426
          25.85199238260004 26.12153593610051 26.095774067597905 26.032846610399112 26.121834561690964 25.958782013114018
          25.947098120645766 25.879216342152798 25.87423714240193 25.918521497212403 25.861953479984383 25.97203096604408
          25.959030117690375 25.879380423099832 25.92732951936768 25.962428704325518 25.905933502950273 25.974262849234634
          25.88625857783161 25.847840828026452 25.859857660503305 25.836018736190994 25.89175852065123 25.85029300019572
          25.862905635387666 25.832402564710318 25.82341186095588 25.821676393947055 25.837739701323706 25.82588868797856
          25.841832006611675 25.82774450631506 25.823919511034273 25.843381258960942 25.82844249715573 25.818495958550283
          25.818322274129795 25.81986513404287 25.819605414404528 25.816731083732755 25.817609719885844 25.817449838538547
          25.817877770909195 25.818934810121956 25.817050140236322 25.823676989625 25.82316295360017 25.818629243170204
          25.821836802419597 25.8173316351394 25.818109800260522 25.81615943749795 25.8166044057876 25.817056318169712
          25.81769567504332 25.816398488293807 25.82018531410419 25.81718902488306 25.819101547419233 25.82949180509406
          25.82854684154728 25.820528449978298 25.82014990940367 25.826137294678777 25.81918208612154 25.836361298145174
          25.834852666516234 25.822715132959125 25.83105653982536 25.816008078528842 25.815896649728643 25.816514022323048
          25.81636935097442 25.814976525735972 25.815280189056317 25.815203070994883 25.815619171892603 25.816000205669532
          25.81500612688576 25.81754025953282 25.81732311381691 25.81568195774834 25.816765101407423 25.823171640744068
          25.81797240427355 25.82050117138871 25.81734708509394 25.82649986430293 25.81936079633707 25.82248894755123
          25.81527812029067 25.815551024480072 25.814646948163237 25.814782969016747 25.815103117724576 25.815326317246875
          25.814679637195425 25.816090755011235 25.81506709815747 25.815757275308627 25.842187430016537 25.840166012479763
          25.825605519404764 25.82482352686093 25.83512736581322 25.82285498582453 25.84451620421632 25.842283022500524
          25.82565703852782 25.836734485828785 25.818398594943563 25.81811497201539 25.816239650547118 25.8160965224424
          25.81739373399031 25.815729422684345 25.818736636938738 25.81842576861716 25.816258745641914 25.817638504612226
          25.829187626089283 25.82046827415272 25.824071450198485 25.81911661174973 25.830236142234114 25.82090091389243
          25.824682542901535 25.816531714203098 25.815313741099338 25.816107309512788 25.81512203116766 25.816705847053186
          25.815412275753996 25.816249585177502 25.818053452415572 25.81859477606111 25.81664260446596 25.816934357613963
          25.81749414446253 25.817857779475897 25.816531470212247 25.81965618452824 25.81754145935064 25.818565157796467
          25.82050218958752 25.818065801474944 25.819126594273186 25.817317989647634 25.820828109825193 25.818274795010574
          25.819344287442703 25.813403424911236 25.81323474251541 25.813272542080192 25.813657682412302 25.813210509421072
          25.813276617790013 25.81364957115281 25.813168190170973 25.813205067508143 25.813153540803377 25.813212355798612
          25.813281196474094 25.813337142001192 25.813976953924055 25.813363942357405 25.813883396420167
        </DataArray>
        <DataArray type="Float64" Name="dk/dtemperature" format="ascii" RangeMin="0.015512219766594589" RangeMax="0.015804580349343195">
          0.015804580349343192 0.015804580349343192 0.015804580349343192 0.01580458034934319 0.015804580349343192 0.015804580349343192
          0.01580458034934319 0.015804580349343192 0.015804580349343192 0.015804580349343192 0.015804580349343192 0.015804580349343192
          0.015804580349343192 0.015804580349343192 0.015804580349343192 0.015804580349343192 0.015804580349343192 0.015804580349343192
          0.01580458034934319 0.01580458034934319 0.015804580349343192 0.015804580349343192 0.01580458034934319 0.015804580349343192
          0.015804580349343192 0.01580458034934319 0.015804580349343192 0.015804580349343192 0.015804580349343192 0.015804580349343192
          0.015804580349343192 0.015804580349343192 0.015804580349343192 0.015804580349343192 0.015804580349343192 0.01580458034934319
          0.015804580349343192 0.015804580349343192 0.015804580349343192 0.015804580349343192 0.015804580349343192 0.015804580349343192