<?xml version="1.0"?>
<VTKFile type="UnstructuredGrid" version="0.1" byte_order="LittleEndian" header_type="UInt32" compressor="vtkZLibDataCompressor">
  <UnstructuredGrid>
    <Piece NumberOfPoints="335" NumberOfCells="170">
      <PointData>
        <DataArray type="Int32" Name="libmesh_node_id" format="ascii" RangeMin="90" RangeMax="3163">
          90 91 92 93 94 95
          96 97 110 111 112 113
          120 121 122 123 124 125
          126 127 140 141 142 143
          150 151 152 153 154 155
          156 157 170 171 172 173
          180 181 182 183 184 185
          186 187 200 201 202 203
          2804 2805 2806 2807 2808 2809
          2810 2811 2812 2813 2814 2815
          2816 2817 2818 2819 2820 2821
          2822 2823 2824 2825 2826 2827
          2828 2829 2830 2831 2832 2833
          2834 2835 2836 2837 2838 2839
          2840 2841 2842 2843 2844 2845
          2846 2847 2848 2849 2850 2851
          2852 2853 2854 2855 2856 2857
          2858 2859 2918 2919 2920 2921
          2922 2923 2924 2925 2926 2927
          2928 2929 2930 2931 2932 2933
          2934 2935 2936 2937 2938 2939
          2940 2941 2942 2943 2944 2945
          2946 2947 2948 2949 2950 2951
          2952 2953 2954 2955 2956 2957
          2958 2959 2960 2961 2962 2963
          2964 2965 2966 2967 2968 2969
          2970 2971 2972 2973 2974 2975
          2976 2977 2978 2979 2980 2981
          2982 2983 2984 2985 2986 2987
          2988 2989 2990 2991 2992 2993
          2994 2995 2996 2997 2998 2999
          3000 3001 3002 3003 3004 3005
          3006 3007 3008 3009 3010 3011
          3012 3013 3014 3015 3016 3017
          3018 3019 3020 3021 3022 3023
          3024 3025 3026 3027 3028 3029
          3030 3031 3032 3033 3034 3035
          3036 3037 3038 3039 3040 3041
          3042 3043 3044 3045 3046 3047
          3048 3049 3050 3051 3052 3053
          3054 3055 3056 3057 3058 3059
          3060 3061 3062 3063 3064 3065
          3066 3067 3068 3069 3070 3071
          3072 3073 3074 3075 3076 3077
          3078 3079 3080 3081 3082 3083
          3084 3085 3086 3087 3088 3089
          3090 3091 3092 3093 3094 3095
          3096 3097 3098 3099 3100 3101
          3102 3103 3104 3105 3106 3107
          3108 3109 3110 3111 3112 3113
          3114 3115 3116 3117 3118 3119
          3120 3121 3122 3123 3124 3125
          3126 3127 3128 3138 3139 3140
          3141 3142 3143 3144 3145 3146
          3147 3154 3155 3156 3157 3158
          3159 3160 3161 3162 3163
        </DataArray>
        <DataArray type="Float64" Name="bounds" format="ascii" RangeMin="0" RangeMax="0">
          0 0 0 0 0 0
          0 0 0 0 0 0
          0 0 0 0 0 0
          0 0 0 0 0 0
          0 0 0 0 0 0
          0 0 0 0 0 0
          0 0 0 0 0 0
          0 0 0 0 0 0
          0 0 0 0 0 0
          0 0 0 0 0 0
          0 0 0 0 0 0
          0 0 0 0 0 0
          0 0 0 0 0 0
          0 0 0 0 0 0
          0 0 0 0 0 0
          0 0 0 0 0 0
          0 0 0 0 0 0
          0 0 0 0 0 0
          0 0 0 0 0 0
          0 0 0 0 0 0
          0 0 0 0 0 0
          0 0 0 0 0 0
          0 0 0 0 0 0
          0 0 0 0 0 0
          0 0 0 0 0 0
          0 0 0 0 0 0
          0 0 0 0 0 0
          0 0 0 0 0 0
          0 0 0 0 0 0
          0 0 0 0 0 0
          0 0 0 0 0 0
          0 0 0 0 0 0
          0 0 0 0 0 0
          0 0 0 0 0 0
          0 0 0 0 0 0
          0 0 0 0 0 0
          0 0 0 0 0 0
          0 0 0 0 0 0
          0 0 0 0 0 0
          0 0 0 0 0 0
          0 0 0 0 0 0
          0 0 0 0 0 0
          0 0 0 0 0 0
          0 0 0 0 0 0
          0 0 0 0 0 0
          0 0 0 0 0 0
          0 0 0 0 0 0
          0 0 0 0 0 0
          0 0 0 0 0 0
          0 0 0 0 0 0
          0 0 0 0 0 0
          0 0 0 0 0 0
          0 0 0 0 0 0
          0 0 0 0 0 0
          0 0 0 0 0 0
          0 0 0 0 0
        </DataArray>
        <DataArray type="Float64" Name="gradient_error" format="ascii" RangeMin="3.4673405700683785e-9" RangeMax="0.000002038809823084986">
          8.33295230259747e-8 6.809270401956962e-8 4.194117308091986e-8 5.0828917957947976e-8 3.548474197401236e-8 2.2986991204325198e-8
          1.2254786655379948e-8 9.197537184819031e-9 1.5789642142270102e-8 1.832831288992126e-8 1.0489240434638045e-8 6.140287714258115e-9
          3.7994617565189176e-7 3.098042624558633e-7 1.9292269108823588e-7 2.345915666639668e-7 1.3265266050322212e-7 8.93773200115845e-8
          1.8053827996084774e-8 1.8789554026874785e-8 7.60411197206084e-8 8.923695767604185e-8 4.811622468177049e-8 2.5182032640703666e-8
          0.0000011767478183336578 0.0000011477798865716589 6.863134784977592e-7 9.372421345619516e-7 6.313149851247099e-7 3.4963494824597603e-7
          9.811135918584276e-8 2.2653138985248227e-7 5.503270692230692e-7 0.0000010107310136560072 4.678068692203038e-8 2.2794476423969813e-8
          1.6120536045056316e-7 2.0696081614905203e-7 0.0000016130249255358916 0.0000019374489357971643 2.925128942340311e-7 3.003815544811145e-7
          4.7063804514296057e-7 2.2518732737138036e-7 0.0000010244391880877206 0.0000018732028847037666 2.2648106968455305e-8 1.5886638996736457e-8
          0.0000017478047506811736 0.0000014239522843631857 0.0000014169699435779938 0.0000010108884151726983 0.0000010319645318328648 0.0000012978043126629645
          0.0000012801440866884162 0.0000014361779249163896 0.0000010770489464494364 0.0000013348853503582773 0.0000011000998180451975 0.0000015694548205650917
          0.000001552835183801397 0.0000011545575210103733 1.776733404131501e-7 0.000001173906977194343 0.0000011427882227507936 0.0000012402677332055566
          0.000002038809823084986 0.0000018283928651512411 0.0000014384435136128265 0.0000011294998834431063 0.000001125264851074359 6.765890583242234e-7
          7.907123638923162e-7 7.025785308119185e-7 6.072710934001722e-7 6.891792117163139e-7 4.1656339964446646e-7 2.4167697986520506e-7
          8.408263289365519e-7 4.426006517293192e-7 7.884420755691075e-7 1.1418511141104142e-7 2.779972460675403e-7 4.6507961890583246e-7
          5.113693384998085e-7 2.46188589974899e-7 5.306857078895903e-7 5.121170513248019e-7 3.330866154798095e-7 3.6755442450883597e-7
          3.102459945989865e-7 3.6801341647246066e-7 5.116923459237332e-7 5.965802487425631e-7 2.703880687868008e-7 8.498298974591131e-8
          2.115041056325863e-7 6.024658567422795e-7 5.050178701498934e-7 2.420740218571564e-7 2.482658461445398e-7 6.244806306520055e-7
          7.010762883671577e-7 1.739311967770545e-7 1.954788628024716e-8 1.4910872708197533e-8 1.80566097815911e-8 4.3383590465933854e-8
          4.476737797136226e-8 3.00762597490061e-8 3.072941337144571e-8 1.079428304486553e-8 3.765803641736622e-8 2.6042985401288114e-8
          1.0273859136147902e-8 1.538514152664994e-8 1.8075236276957576e-8 1.4427934385210011e-8 1.2210070966061948e-8 7.875026423112137e-9
          2.8151823502341746e-8 2.324419872112507e-8 3.5399818801623256e-9 1.8336573939908393e-8 1.0699847088245716e-7 1.2705245638808101e-7
          1.682535365206006e-7 1.9257142638660674e-7 7.509378039811854e-8 1.3195316590937482e-7 4.794891703898209e-8 7.615152985347212e-8
          1.2575675186423844e-7 1.8490081246152904e-8 2.2950860215874399e-7 2.5809039638513245e-7 1.888125514206311e-7 1.0435414266796216e-7
          5.385334493761131e-8 1.0648678825739197e-7 3.5211882453715336e-8 7.84533447391017e-8 7.132992155887516e-9 1.074916779226962e-8
          1.0341431308954225e-8 1.5912023157717265e-7 1.2169480702448806e-7 1.4365343428651722e-8 1.8949687386991953e-8 5.0855385483940517e-8
          3.4673405700683785e-9 8.250860785000644e-9 8.276108358088909e-8 1.3034380999932909e-8 2.985129809348769e-7 2.943758795307147e-7
          2.883768983043778e-7 2.2650884217610208e-7 2.3234274559421059e-7 2.6142229936309946e-7 2.5546015391758583e-7 3.1031358591252867e-7
          2.468988266988532e-7 2.768261608854769e-7 2.902387781265525e-7 2.9050185313198823e-7 2.8441146565906957e-7 3.0675349507210065e-7
          1.661725102535443e-7 2.2846871919548413e-7 2.225434095307939e-7 2.4333873585842514e-7 2.90764928137424e-7 3.397635050637143e-7
          3.320901895238486e-7 2.657043618174088e-7 2.9727844687764175e-7 3.5741127032367926e-7 2.8689678163334303e-7 3.2078076628422955e-7
          3.2441687398398285e-7 3.288525319378747e-7 3.546647509351161e-7 1.916452185711033e-7 2.624667042314349e-7 2.841502622447799e-7
          3.3328818989176654e-7 3.9694979075687047e-7 3.8603667424087853e-7 3.0997001362855547e-7 3.472133939562593e-7 4.1743092160275765e-7
          3.361419408000883e-7 3.744332644367116e-7 3.751235577248866e-7 3.844567742839631e-7 3.811193926943623e-7 2.2299023650024048e-7
          3.0839011367164007e-7 3.3143560727066547e-7 3.9378999084303966e-7 4.6893500813665247e-7 4.5218561138707086e-7 3.6678326497100537e-7
          4.0227704364500796e-7 4.1600297357894004e-7 3.968806965107775e-7 4.324238005912357e-7 3.650307485333171e-7 3.8787819815185467e-7
          4.1844178132599787e-7 2.646315218053583e-7 3.5236847590294496e-7 3.799228238879662e-7 4.1072564777039225e-7 2.510676850107239e-7
          2.449621771548246e-7 2.8737319534666216e-7 2.8258741648934506e-7 2.597605664417583e-7 2.957939489724189e-7 2.0751008759230294e-7
          2.3676081670862536e-7 2.4726583104227307e-7 2.2267123996453605e-7 3.236787056826003e-7 3.202126558238655e-7 3.3182733150307964e-7
          2.6601154582494776e-7 1.9356491177330727e-7 1.7729375626158054e-7 1.96359661345556e-7 2.6603566292431756e-7 2.6553184387943586e-7
          2.3807281804708105e-7 2.3725951374668292e-7 1.508496595235978e-7 2.65042875161576e-7 2.3852372890882423e-7 1.6102260074985381e-7
          2.1061379221472626e-7 2.084833645690483e-7 2.1200458265607243e-7 4.308259963875789e-7 4.0605512338634074e-7 4.375923242325975e-7
          3.657768565070187e-7 1.4510041253853932e-7 1.3950059388699356e-7 2.6508763735839124e-7 2.3744054016412993e-7 1.317708574803613e-7
          2.641129055317674e-7 2.3504639302482563e-7 1.3390077523544785e-7 2.0979344296986857e-7 2.0597988051788387e-7 4.9747761442724e-7
          4.6510029134950125e-7 4.922195510676731e-7 4.0749922602253935e-7 4.2580591267237626e-7 4.654545603903692e-7 4.6323512856028955e-7
          5.054467222193015e-7 4.4711086293683786e-7 4.77494780404801e-7 3.274586085551592e-7 4.176507538406386e-7 4.619065942674589e-7
          4.756589329529471e-7 5.121539248055169e-7 5.53962787069728e-7 5.70570665511732e-7 6.099352301291617e-7 5.101375092815586e-7
          5.449665062390305e-7 4.1442748293479674e-7 5.131054778817197e-7 5.73753286692267e-7 5.518692348814529e-7 2.642580335858994e-7
          3.0307082337161654e-7 2.673283629324703e-7 3.097856658744645e-7 1.9375399842094795e-7 2.1702312897791953e-7 2.1224008681764074e-7
          3.4188361315733364e-7 3.522429688164587e-7 2.4029225953489107e-7 2.687937732012232e-7 3.1521968225160356e-7 2.6842048884426245e-7
          3.190011566556497e-7 1.8053580487835334e-7 2.059359952740289e-7 1.973690955798296e-7 3.6164559130198393e-7 3.695818244670369e-7
          2.3133618566970447e-7 1.3073052268216833e-7 1.2445367877808916e-7 2.6076000961826104e-7 2.3046544829322897e-7 1.180026092886856e-7
          2.543632710072012e-7 2.231046049915472e-7 1.1817683487401001e-7 2.001708869681969e-7 1.9184593897589323e-7 5.65680830558062e-7
          5.200481040713973e-7 5.482249083455148e-7 4.3986854804782613e-7 6.400057426362703e-7 6.74802812942245e-7 7.232791027876816e-7
          7.504740123059456e-7 5.824454330529888e-7 6.225020322845935e-7 5.394393207107702e-7 6.45986635550064e-7 7.327048086152704e-7
          6.461705135654304e-7 2.658380674397394e-7 3.206295409032166e-7 2.6046669708933676e-7 3.1938289793167935e-7 1.6090124590546555e-7
          1.8596809894867526e-7 1.7143065311838152e-7 3.7542101436669383e-7 3.7829909877402194e-7 2.1103495199188497e-7
        </DataArray>
        <DataArray type="Float64" Name="gradient_matprop_error" format="ascii" RangeMin="0" RangeMax="0">
          0 0 0 0 0 0
          0 0 0 0 0 0
          0 0 0 0 0 0
          0 0 0 0 0 0
          0 0 0 0 0 0
          0 0 0 0 0 0
          0 0 0 0 0 0
          0 0 0 0 0 0
          0 0 0 0 0 0
          0 0 0 0 0 0
          0 0 0 0 0 0
          0 0 0 0 0 0
          0 0 0 0 0 0
          0 0 0 0 0 0
          0 0 0 0 0 0
          0 0 0 0 0 0
          0 0 0 0 0 0
          0 0 0 0 0 0
          0 0 0 0 0 0
          0 0 0 0 0 0
          0 0 0 0 0 0
          0 0 0 0 0 0
          0 0 0 0 0 0
          0 0 0 0 0 0
          0 0 0 0 0 0
          0 0 0 0 0 0
          0 0 0 0 0 0
          0 0 0 0 0 0
          0 0 0 0 0 0
          0 0 0 0 0 0
          0 0 0 0 0 0
          0 0 0 0 0 0
          0 0 0 0 0 0
          0 0 0 0 0 0
          0 0 0 0 0 0
          0 0 0 0 0 0
          0 0 0 0 0 0
          0 0 0 0 0 0
          0 0 0 0 0 0
          0 0 0 0 0 0
          0 0 0 0 0 0
          0 0 0 0 0 0
          0 0 0 0 0 0
          0 0 0 0 0 0
          0 0 0 0 0 0
          0 0 0 0 0 0
          0 0 0 0 0 0
          0 0 0 0 0 0
          0 0 0 0 0 0
          0 0 0 0 0 0
          0 0 0 0 0 0
          0 0 0 0 0 0
          0 0 0 0 0 0
          0 0 0 0 0 0
          0 0 0 0 0 0
          0 0 0 0 0
        </DataArray>
        <DataArray type="Float64" Name="initial_marker" format="ascii" RangeMin="0" RangeMax="0">
          0 0 0 0 0 0
          0 0 0 0 0 0
          0 0 0 0 0 0
          0 0 0 0 0 0
          0 0 0 0 0 0
          0 0 0 0 0 0
          0 0 0 0 0 0
          0 0 0 0 0 0
          0 0 0 0 0 0
          0 0 0 0 0 0
          0 0 0 0 0 0
          0 0 0 0 0 0
          0 0 0 0 0 0
          0 0 0 0 0 0
          0 0 0 0 0 0
          0 0 0 0 0 0
          0 0 0 0 0 0
          0 0 0 0 0 0
          0 0 0 0 0 0
          0 0 0 0 0 0
          0 0 0 0 0 0
          0 0 0 0 0 0
          0 0 0 0 0 0
          0 0 0 0 0 0
          0 0 0 0 0 0
          0 0 0 0 0 0
          0 0 0 0 0 0
          0 0 0 0 0 0
          0 0 0 0 0 0
          0 0 0 0 0 0
          0 0 0 0 0 0
          0 0 0 0 0 0
          0 0 0 0 0 0
          0 0 0 0 0 0
          0 0 0 0 0 0
          0 0 0 0 0 0
          0 0 0 0 0 0
          0 0 0 0 0 0
          0 0 0 0 0 0
          0 0 0 0 0 0
          0 0 0 0 0 0
          0 0 0 0 0 0
          0 0 0 0 0 0
          0 0 0 0 0 0
          0 0 0 0 0 0
          0 0 0 0 0 0
          0 0 0 0 0 0
          0 0 0 0 0 0
          0 0 0 0 0 0
          0 0 0 0 0 0
          0 0 0 0 0 0
          0 0 0 0 0 0
          0 0 0 0 0 0
          0 0 0 0 0 0
          0 0 0 0 0 0
          0 0 0 0 0
        </DataArray>
        <DataArray type="Float64" Name="markers_norefine" format="ascii" RangeMin="0" RangeMax="0">
          0 0 0 0 0 0
          0 0 0 0 0 0
          0 0 0 0 0 0
          0 0 0 0 0 0
          0 0 0 0 0 0
          0 0 0 0 0 0
          0 0 0 0 0 0
          0 0 0 0 0 0
          0 0 0 0 0 0
          0 0 0 0 0 0
          0 0 0 0 0 0
          0 0 0 0 0 0
          0 0 0 0 0 0
          0 0 0 0 0 0
          0 0 0 0 0 0
          0 0 0 0 0 0
          0 0 0 0 0 0
          0 0 0 0 0 0
          0 0 0 0 0 0
          0 0 0 0 0 0
          0 0 0 0 0 0
          0 0 0 0 0 0
          0 0 0 0 0 0
          0 0 0 0 0 0
          0 0 0 0 0 0
          0 0 0 0 0 0
          0 0 0 0 0 0
          0 0 0 0 0 0
          0 0 0 0 0 0
          0 0 0 0 0 0
          0 0 0 0 0 0
          0 0 0 0 0 0
          0 0 0 0 0 0
          0 0 0 0 0 0
          0 0 0 0 0 0
          0 0 0 0 0 0
          0 0 0 0 0 0
          0 0 0 0 0 0
          0 0 0 0 0 0
          0 0 0 0 0 0
          0 0 0 0 0 0
          0 0 0 0 0 0
          0 0 0 0 0 0
          0 0 0 0 0 0
          0 0 0 0 0 0
          0 0 0 0 0 0
          0 0 0 0 0 0
          0 0 0 0 0 0
          0 0 0 0 0 0
          0 0 0 0 0 0
          0 0 0 0 0 0
          0 0 0 0 0 0
          0 0 0 0 0 0
          0 0 0 0 0 0
          0 0 0 0 0 0
          0 0 0 0 0
        </DataArray>
        <DataArray type="Float64" Name="markers_mustrefine" format="ascii" RangeMin="0" RangeMax="0">
          0 0 0 0 0 0
          0 0 0 0 0 0
          0 0 0 0 0 0
          0 0 0 0 0 0
          0 0 0 0 0 0
          0 0 0 0 0 0
          0 0 0 0 0 0
          0 0 0 0 0 0
          0 0 0 0 0 0
          0 0 0 0 0 0
          0 0 0 0 0 0
          0 0 0 0 0 0
          0 0 0 0 0 0
          0 0 0 0 0 0
          0 0 0 0 0 0
          0 0 0 0 0 0
          0 0 0 0 0 0
          0 0 0 0 0 0
          0 0 0 0 0 0
          0 0 0 0 0 0
          0 0 0 0 0 0
          0 0 0 0 0 0
          0 0 0 0 0 0
          0 0 0 0 0 0
          0 0 0 0 0 0
          0 0 0 0 0 0
          0 0 0 0 0 0
          0 0 0 0 0 0
          0 0 0 0 0 0
          0 0 0 0 0 0
          0 0 0 0 0 0
          0 0 0 0 0 0
          0 0 0 0 0 0
          0 0 0 0 0 0
          0 0 0 0 0 0
          0 0 0 0 0 0
          0 0 0 0 0 0
          0 0 0 0 0 0
          0 0 0 0 0 0
          0 0 0 0 0 0
          0 0 0 0 0 0
          0 0 0 0 0 0
          0 0 0 0 0 0
          0 0 0 0 0 0
          0 0 0 0 0 0
          0 0 0 0 0 0
          0 0 0 0 0 0
          0 0 0 0 0 0
          0 0 0 0 0 0
          0 0 0 0 0 0
          0 0 0 0 0 0
          0 0 0 0 0 0
          0 0 0 0 0 0
          0 0 0 0 0 0
          0 0 0 0 0 0
          0 0 0 0 0
        </DataArray>
        <DataArray type="Float64" Name="gradient_marker" format="ascii" RangeMin="1" RangeMax="1">
          1 1 1 1 1 1
          1 1 1 1 1 1
          1 1 1 1 1 1
          1 1 1 1 1 1
          1 1 1 1 1 1
          1 1 1 1 1 1
          1 1 1 1 1 1
          1 1 1 1 1 1
          1 1 1 1 1 1
          1 1 1 1 1 1
          1 1 1 1 1 1
          1 1 1 1 1 1
          1 1 1 1 1 1
          1 1 1 1 1 1
          1 1 1 1 1 1
          1 1 1 1 1 1
          1 1 1 1 1 1
          1 1 1 1 1 1
          1 1 1 1 1 1
          1 1 1 1 1 1
          1 1 1 1 1 1
          1 1 1 1 1 1
          1 1 1 1 1 1
          1 1 1 1 1 1
          1 1 1 1 1 1
          1 1 1 1 1 1
          1 1 1 1 1 1
          1 1 1 1 1 1
          1 1 1 1 1 1
          1 1 1 1 1 1
          1 1 1 1 1 1
          1 1 1 1 1 1
          1 1 1 1 1 1
          1 1 1 1 1 1
          1 1 1 1 1 1
          1 1 1 1 1 1
          1 1 1 1 1 1
          1 1 1 1 1 1
          1 1 1 1 1 1
          1 1 1 1 1 1
          1 1 1 1 1 1
          1 1 1 1 1 1
          1 1 1 1 1 1
          1 1 1 1 1 1
          1 1 1 1 1 1
          1 1 1 1 1 1
          1 1 1 1 1 1
          1 1 1 1 1 1
          1 1 1 1 1 1
          1 1 1 1 1 1
          1 1 1 1 1 1
          1 1 1 1 1 1
          1 1 1 1 1 1
          1 1 1 1 1 1
          1 1 1 1 1 1
          1 1 1 1 1
        </DataArray>
        <DataArray type="Float64" Name="gradient_matprop_marker" format="ascii" RangeMin="0" RangeMax="0">
          0 0 0 0 0 0
          0 0 0 0 0 0
          0 0 0 0 0 0
          0 0 0 0 0 0
          0 0 0 0 0 0
          0 0 0 0 0 0
          0 0 0 0 0 0
          0 0 0 0 0 0
          0 0 0 0 0 0
          0 0 0 0 0 0
          0 0 0 0 0 0
          0 0 0 0 0 0
          0 0 0 0 0 0
          0 0 0 0 0 0
          0 0 0 0 0 0
          0 0 0 0 0 0
          0 0 0 0 0 0
          0 0 0 0 0 0
          0 0 0 0 0 0
          0 0 0 0 0 0
          0 0 0 0 0 0
          0 0 0 0 0 0
          0 0 0 0 0 0
          0 0 0 0 0 0
          0 0 0 0 0 0
          0 0 0 0 0 0
          0 0 0 0 0 0
          0 0 0 0 0 0
          0 0 0 0 0 0
          0 0 0 0 0 0
          0 0 0 0 0 0
          0 0 0 0 0 0
          0 0 0 0 0 0
          0 0 0 0 0 0
          0 0 0 0 0 0
          0 0 0 0 0 0
          0 0 0 0 0 0
          0 0 0 0 0 0
          0 0 0 0 0 0
          0 0 0 0 0 0
          0 0 0 0 0 0
          0 0 0 0 0 0
          0 0 0 0 0 0
          0 0 0 0 0 0
          0 0 0 0 0 0
          0 0 0 0 0 0
          0 0 0 0 0 0
          0 0 0 0 0 0
          0 0 0 0 0 0
          0 0 0 0 0 0
          0 0 0 0 0 0
          0 0 0 0 0 0
          0 0 0 0 0 0
          0 0 0 0 0 0
          0 0 0 0 0 0
          0 0 0 0 0
        </DataArray>
        <DataArray type="Float64" Name="combo" format="ascii" RangeMin="1" RangeMax="1">
          1 1 1 1 1 1
          1 1 1 1 1 1
          1 1 1 1 1 1
          1 1 1 1 1 1
          1 1 1 1 1 1
          1 1 1 1 1 1
          1 1 1 1 1 1
          1 1 1 1 1 1
          1 1 1 1 1 1
          1 1 1 1 1 1
          1 1 1 1 1 1
          1 1 1 1 1 1
          1 1 1 1 1 1
          1 1 1 1 1 1
          1 1 1 1 1 1
          1 1 1 1 1 1
          1 1 1 1 1 1
          1 1 1 1 1 1
          1 1 1 1 1 1
          1 1 1 1 1 1
          1 1 1 1 1 1
          1 1 1 1 1 1
          1 1 1 1 1 1
          1 1 1 1 1 1
          1 1 1 1 1 1
          1 1 1 1 1 1
          1 1 1 1 1 1
          1 1 1 1 1 1
          1 1 1 1 1 1
          1 1 1 1 1 1
          1 1 1 1 1 1
          1 1 1 1 1 1
          1 1 1 1 1 1
          1 1 1 1 1 1
          1 1 1 1 1 1
          1 1 1 1 1 1
          1 1 1 1 1 1
          1 1 1 1 1 1
          1 1 1 1 1 1
          1 1 1 1 1 1
          1 1 1 1 1 1
          1 1 1 1 1 1
          1 1 1 1 1 1
          1 1 1 1 1 1
          1 1 1 1 1 1
          1 1 1 1 1 1
          1 1 1 1 1 1
          1 1 1 1 1 1
          1 1 1 1 1 1
          1 1 1 1 1 1
          1 1 1 1 1 1
          1 1 1 1 1 1
          1 1 1 1 1 1
          1 1 1 1 1 1
          1 1 1 1 1 1
          1 1 1 1 1
        </DataArray>
        <DataArray type="Float64" Name="dHdT" format="ascii" RangeMin="25.80655224109841" RangeMax="30.649440248198367">
          25.809406250250376 25.80995220765847 25.810978889542497 25.81067465429472 25.811126474037625 25.811631085154524
          25.812035183747657 25.812138686239134 25.812005571426536 25.81194305833906 25.812135696271426 25.812242188730607
          25.825554031951537 25.822998021714515 25.81870978935857 25.820151548309678 25.815685741407194 25.81502237507039
          25.80996055322943 25.812645046664215 25.81442155700262 25.81474906466782 25.813735268608422 25.81318548480656
          26.2024320486371 26.193886099501427 25.92289740120611 25.930106035022046 26.09490277913028 25.89853194445139
          25.935545721454954 25.8680091140846 25.833076921781167 25.85074383302014 25.81441479428465 25.81346740051869
          28.31713165125851 28.620398789893663 26.324793381085776 26.302826588235973 29.169151859242987 26.16439063205231
          30.00926263734638 26.069514320516483 25.848753026631265 25.883499066570604 25.810634420272905 25.80976201773668
          26.556212970101654 26.36192875387506 26.365867699381745 27.139560244124482 27.161408962387227 26.704403726801715
          26.701295278032664 26.35129489601765 27.20321101237703 26.708388602980968 26.167644537648464 26.444952400303855
          26.447528998834972 26.266987775395517 28.416492472915724 27.312720612786567 27.285666073974888 27.36805972776337
          26.72226026295925 26.532198284790553 26.332113634474698 27.2491695360546 26.725700577658795 26.080543482860847
          27.416201162956355 26.762568525187305 26.00026514629186 26.114496247589365 26.029608614708284 28.871912706109953
          27.568178344199055 27.781124185760376 26.27254267192967 25.97154028305971 25.941092822170965 27.579271825923648
          26.761878879807668 25.913301756737994 27.62111036486251 26.72253792547735 25.905444778668855 25.99606434248274
          25.961467694267448 29.5310131385192 27.864966260049933 27.946876438970577 26.120489929979914 25.90066553053559
          25.886686917157128 27.650215479833054 26.664622684638495 25.868092148353515 25.926317862806204 30.649440248198367
          28.024238363678762 26.012934548488715 25.808975469272617 25.810859817146 25.812049803660525 25.822705519936207
          25.818923769528382 25.817521601923477 25.820666043589732 25.810304506455317 25.812089359138255 25.812216373407544
          25.812744165019375 25.816119434318576 25.81862656724325 25.812343387676837 25.810539384279238 25.81174647060075
          25.80655224109841 25.808545520959026 25.81295355692226 25.810538800819643 25.84127797489942 25.845998840306017
          25.862359625616328 25.869443724585356 25.833090361510834 25.850253656472756 25.814054641373968 25.813454944524917
          25.814226871439615 25.811985918312025 25.883441276333233 25.8928886088647 25.867416951434677 25.81285524767587
          25.82683533764935 25.840510930517794 25.821737183915275 25.83166529658211 25.812878160856105 25.811179867187292
          25.811279674238463 25.854186523386247 25.84159340924894 25.809481573518475 25.817792290374285 25.824307030715104
          25.81294469762953 25.811818877066358 25.830821771055923 25.810693056503187 27.733523273692597 27.545467526117335
          27.535790290359948 28.01871031425629 28.039226612969088 27.82508279036443 27.80947256750671 27.56905104558514
          28.091548713794264 27.864443881674973 27.357411778542073 27.610938967759772 27.600234820757127 27.637339049555678
          28.344929952245582 28.104698054611525 28.08315484465347 28.159836717764804 27.86446615697747 27.809657350129704
          27.599378336212187 28.160646022226885 27.916269757918517 27.633597687163878 28.239290828850176 27.975440376595163
          27.389099322294673 27.67189349361015 27.711589924340146 28.511634694324066 28.233161179624847 28.317283066026445
          27.95468766492563 27.91085883452299 27.669908011528968 28.32585775622441 28.039758752302824 27.710969766582686
          28.419026746714295 28.111637850378774 27.428957188534945 27.753659748381235 27.551131306455336 28.740856677925827
          28.409609493076676 28.51230593417487 28.078362308227526 28.0237957182285 27.757630239561855 28.51896947136814
          28.19253177233838 27.47874374128632 28.631170932884125 28.279358455943882 27.166273636707277 27.453391908680928
          27.479072312108915 29.014143224507784 28.627433305114902 28.74891891676515 27.74051018065457 26.556126544107475
          26.564665877904318 26.697970289446065 26.708921816106756 26.535864469023924 26.677468279197367 26.271170575695606
          26.355250834838895 26.372947620934013 26.324337913180546 26.839814034784652 26.853177754309186 26.819072089370806
          26.439331093982183 26.15981488560862 26.125231754337854 26.14952230656918 26.573684085606274 26.547900809311034
          26.462202672497913 26.483078770091453 26.087082946835512 26.507324333528405 26.426456469301915 26.090648623067082
          26.376504535684788 26.392473454576628 26.345588605075427 27.556695368593346 27.333613038961097 27.34347446407572
          27.00834740681947 26.084481319611626 26.059567774620902 26.477904236356224 26.396769814505546 26.032519993341822
          26.44746148142684 26.365987498176374 26.034654229630174 26.31563539265488 26.28451351492591 27.600745959658152
          27.34949856560064 27.352373609245117 26.980339365780498 28.758811638976642 28.372250589120302 28.894558309822486
          28.468713287976154 27.501849186850357 27.522545277142306 29.340219273780036 28.87644869097638 29.01630763956919
          27.822357487622753 29.041540794716582 28.570314475561112 29.205816790007 28.679950319622336 27.539576813535614
          27.552465156385264 29.752916823217667 29.17560367431115 29.354608423765367 27.90695285624026 26.510572273819914
          26.657074827088675 26.482320230558514 26.63376480682588 26.21716374583911 26.296140819740593 26.265307325496973
          26.80357738035743 26.785209383093246 26.375117893642077 26.451512207219565 26.6060940906285 26.417339731591063
          26.573520492802672 26.158508660183873 26.23212271059143 26.19619452207249 26.760675974037433 26.729701254014284
          26.305736760998986 26.026115133179463 26.005989978901905 26.413697988240536 26.33241222831446 25.980655985961523
          26.37670535199718 26.295987207722185 25.985864824624343 26.251126468388385 26.215269063447195 27.63811948868859
          27.350286752417833 27.342270637385614 26.930075545870668 29.38833214182132 28.798049478129755 29.597613233511858
          28.92961460563361 27.561435189135707 27.56636570764052 30.30170614956706 29.554359929150866 29.78600636597885
          27.985951115541624 26.379219361806143 26.536334611047614 26.337247598362897 26.49382951292319 26.09312011829441
          26.157565658261994 26.1165435883207 26.69344986028908 26.650411427483483 26.22201119822958
        </DataArray>
        <DataArray type="Float64" Name="dk/dtemperature" format="ascii" RangeMin="0.010894834728210312" RangeMax="0.015804580349343192">
          0.015804580349343192 0.015804580349343192 0.015804580349343192 0.015804580349343192 0.015804580349343192 0.015804580349343192
          0.015804580349343192 0.015804580349343192 0.015804580349343192 0.015804580349343192 0.015804580349343192 0.015804580349343192
          0.015804580349343192 0.015804580349343192 0.015804580349343192 0.015804580349343192 0.015804580349343192 0.015804580349343192
          0.015804580349343192 0.015804580349343192 0.015804580349343192 0.015804580349343192 0.015804580349343192 0.015804580349343192
          0.015337608540753342 0.01533760854075334 0.015762814551807676 0.015762814551807676 0.01548756284997724 0.015762814551807676
          0.01572104875427216 0.015762814551807676 0.015804580349343192 0.015804580349343192 0.015804580349343192 0.015804580349343192
          0.012779327641108014 0.012497282707148286 0.015254076945682309 0.01525407694568231 0.01198124866651372 0.015414975906670032
          0.011274752525069522 0.015637517159201135 0.015804580349343192 0.01580458034934319 0.015804580349343192 0.015804580349343192
          0.014870636732163493 0.015254076945682314 0.015254076945682314 0.014153059956215032 0.014122871207466775 0.014770496064505742
          0.014770496064505742 0.015254076945682312 0.014075313491489123 0.014770496064505739 0.015637517159201135 0.015170545350611284
          0.015170545350611284 0.015381890350188582 0.01269403483770716 0.013975929324425544 0.013975929324425544 0.013887999799602735