<?xml version="1.0"?>
<VTKFile type="UnstructuredGrid" version="0.1" byte_order="LittleEndian" header_type="UInt32" compressor="vtkZLibDataCompressor">
  <UnstructuredGrid>
    <Piece NumberOfPoints="334" NumberOfCells="174">
      <PointData>
        <DataArray type="Int32" Name="libmesh_node_id" format="ascii" RangeMin="231" RangeMax="2001">
          231 304 305 306 308 314
          483 484 487 488 489 495
          497 498 499 500 507 508
          619 620 622 623 703 704
          705 706 707 710 711 712
          713 714 718 719 914 915
          916 917 918 919 920 921
          922 923 924 925 926 927
          940 941 945 946 958 959
          960 961 962 963 964 965
          966 967 975 976 979 980
          982 983 984 985 986 987
          988 989 990 991 992 993
          994 995 1010 1011 1012 1013
          1030 1031 1032 1033 1034 1035
          1036 1037 1038 1039 1310 1311
          1312 1313 1314 1315 1317 1318
          1319 1320 1321 1322 1323 1324
          1325 1326 1337 1338 1339 1340
          1550 1552 1553 1554 1555 1557
          1559 1560 1561 1632 1633 1635
          1638 1640 1641 1642 1643 1644
          1645 1646 1647 1648 1649 1651
          1653 1655 1657 1658 1659 1660
          1661 1662 1663 1666 1667 1669
          1672 1674 1675 1676 1677 1678
          1679 1680 1681 1682 1683 1685
          1687 1689 1691 1692 1693 1694
          1695 1696 1697 1698 1699 1700
          1701 1702 1703 1704 1705 1706
          1707 1708 1709 1710 1711 1712
          1713 1714 1715 1716 1717 1718
          1719 1720 1721 1722 1723 1724
          1725 1726 1727 1728 1729 1730
          1731 1732 1733 1734 1735 1736
          1737 1738 1739 1740 1741 1742
          1743 1744 1745 1746 1747 1748
          1749 1750 1751 1752 1753 1754
          1755 1756 1757 1758 1759 1762
          1763 1768 1770 1771 1773 1789
          1795 1797 1808 1809 1812 1814
          1815 1817 1828 1830 1832 1834
          1842 1843 1844 1845 1846 1847
          1848 1849 1850 1851 1852 1853
          1854 1855 1934 1935 1936 1937
          1938 1939 1940 1941 1942 1943
          1944 1945 1946 1947 1948 1949
          1950 1951 1952 1953 1954 1955
          1956 1957 1958 1959 1960 1961
          1962 1963 1964 1965 1966 1967
          1968 1969 1970 1971 1972 1973
          1974 1975 1976 1977 1978 1979
          1980 1981 1982 1983 1984 1985
          1986 1987 1988 1989 1990 1991
          1992 1993 1994 1995 1996 1997
          1998 1999 2000 2001
        </DataArray>
        <DataArray type="Float64" Name="bounds" format="ascii" RangeMin="0" RangeMax="0">
          0 0 0 0 0 0
          0 0 0 0 0 0
          0 0 0 0 0 0
          0 0 0 0 0 0
          0 0 0 0 0 0
          0 0 0 0 0 0
          0 0 0 0 0 0
          0 0 0 0 0 0
          0 0 0 0 0 0
          0 0 0 0 0 0
          0 0 0 0 0 0
          0 0 0 0 0 0
          0 0 0 0 0 0
          0 0 0 0 0 0
          0 0 0 0 0 0
          0 0 0 0 0 0
          0 0 0 0 0 0
          0 0 0 0 0 0
          0 0 0 0 0 0
          0 0 0 0 0 0
          0 0 0 0 0 0
          0 0 0 0 0 0
          0 0 0 0 0 0
          0 0 0 0 0 0
          0 0 0 0 0 0
          0 0 0 0 0 0
          0 0 0 0 0 0
          0 0 0 0 0 0
          0 0 0 0 0 0
          0 0 0 0 0 0
          0 0 0 0 0 0
          0 0 0 0 0 0
          0 0 0 0 0 0
          0 0 0 0 0 0
          0 0 0 0 0 0
          0 0 0 0 0 0
          0 0 0 0 0 0
          0 0 0 0 0 0
          0 0 0 0 0 0
          0 0 0 0 0 0
          0 0 0 0 0 0
          0 0 0 0 0 0
          0 0 0 0 0 0
          0 0 0 0 0 0
          0 0 0 0 0 0
          0 0 0 0 0 0
          0 0 0 0 0 0
          0 0 0 0 0 0
          0 0 0 0 0 0
          0 0 0 0 0 0
          0 0 0 0 0 0
          0 0 0 0 0 0
          0 0 0 0 0 0
          0 0 0 0 0 0
          0 0 0 0 0 0
          0 0 0 0
        </DataArray>
        <DataArray type="Float64" Name="gradient_error" format="ascii" RangeMin="1.5502260987281084e-9" RangeMax="1.8358604195769468e-7">
          3.1074735882486145e-9 1.2054906902163017e-8 3.422307555369524e-8 8.250866221322325e-8 2.2142842643934138e-9 2.124815497612621e-8
          1.52281073269591e-7 1.19036224115891e-7 6.195537948945332e-8 1.2590740198273413e-7 1.1307716538759189e-7 1.4130417377794851e-7
          6.939988447235021e-9 4.741969718062209e-9 2.733481099025694e-8 1.2738770870403e-8 2.828485985580696e-8 2.995344161171772e-8
          7.166970941081102e-9 5.022217389714161e-9 1.9879728724671103e-9 1.574298855887418e-9 1.1316080902966345e-7 9.482438499889797e-8
          1.3354597530962716e-8 5.0353572076145553e-8 4.2138413439245167e-8 2.7205169064124926e-8 5.959670198425676e-9 6.397060123314187e-9
          4.703625325894136e-9 4.5077581948385075e-9 6.539194786364045e-9 6.853770456876735e-9 8.746220533626644e-8 8.039674567969638e-8
          1.5509453289445533e-7 1.4010740580555159e-7 4.9999197513006136e-8 1.387255173046624e-7 1.2387187725819673e-7 6.197053113668244e-8
          1.0261642244072428e-7 8.774405779737846e-8 1.3306507413452004e-7 1.205358515673521e-7 1.1136694511497497e-7 1.27707555781652e-7
          2.4722068471030806e-8 5.054665370972812e-8 1.1271303525254166e-7 9.665448871767882e-8 3.555479878231542e-8 4.044143112486601e-8
          3.9930272001800754e-8 4.555792015962726e-8 1.3225547840305645e-7 1.2265316045837173e-7 1.818485054936966e-8 3.866970406471294e-8
          4.3411452577984786e-8 1.4822951516248346e-7 1.629620962469076e-7 1.444212281951649e-7 1.8358604195769468e-7 1.646827974220614e-7
          2.5822922651020537e-8 2.3575594527199224e-8 7.088078737559496e-8 6.264403568861163e-8 6.2998267613634255e-9 9.305715714334343e-9
          7.90101267117631e-9 1.8040644224819675e-8 4.3371529255440366e-8 4.958182909065751e-9 7.552117121388665e-8 6.536107867375067e-8
          2.2574233249610874e-8 5.980903986676429e-8 1.2934430243503993e-8 2.560076448675366e-8 5.0814760016492655e-9 4.3994392925867234e-9
          4.15878994077244e-8 4.6644515837166846e-8 3.9488434768128204e-8 4.101316845217633e-8 7.15057684953757e-8 2.3994724759424987e-8
          2.7935934210608355e-8 4.5351196155446246e-8 4.30198773015526e-8 8.454036669366577e-8 1.1279171072273704e-8 1.5734645616646005e-8
          1.4419507308116167e-8 1.1615752354857594e-8 5.950131627358508e-9 8.114179567858564e-9 8.525410516772915e-9 7.829903673064561e-9
          1.2438112668281837e-8 1.1427495945604105e-8 3.2173901467881162e-9 7.030839926199561e-9 6.470601773058106e-9 6.204382530708438e-9
          9.122504462833049e-9 5.0562736310869896e-9 4.309920446696102e-9 6.303066532811942e-9 1.9908032978470784e-9 3.39514939969845e-9
          4.327808895258613e-8 4.5895211700883996e-8 4.523759009933848e-8 4.562857418665019e-8 4.190758602606106e-8 3.576337211270389e-8
          3.542712438699705e-8 3.400702668502823e-8 3.161904521966495e-8 4.0618296176381564e-8 4.1015238766013693e-8 4.118617977835173e-8
          3.741629387127234e-8 4.297931794935769e-8 4.334305430619451e-8 4.442330819805363e-8 4.468481708351797e-8 4.291946346643058e-8
          4.363175952127962e-8 3.7964370517455624e-8 4.009069907939964e-8 4.215356852587579e-8 4.3348211043830656e-8 3.8592243803272645e-8
          3.6224309405487685e-8 4.2030464608981433e-8 3.904143137379292e-8 3.841598953762773e-8 3.5950726477756e-8 3.4514786001678515e-8
          4.399212783340573e-8 4.4882487481035726e-8 4.350486122049379e-8 2.5730571788816584e-8 3.1622173068166044e-8 3.9216921980519455e-8
          2.7164146973228678e-8 2.7260380746428974e-8 3.382472426938813e-8 2.9519098254606523e-8 3.59706451735114e-8 4.207591655498134e-8
          4.423639203288323e-8 1.8655444655778102e-8 2.8916568893027526e-8 3.1375213275656966e-8 4.1386751929101455e-8 4.273941411993218e-8
          4.4558758626340966e-8 4.2839014515742905e-8 4.551764544976881e-8 4.724932897687388e-8 4.727252558192223e-8 4.844806598039758e-8
          4.5706773593314946e-8 4.755863538190354e-8 4.781773645870392e-8 5.912383974511974e-9 7.1887558195271425e-9 6.970154501654563e-9
          6.450395092309404e-9 1.3159475057781926e-8 4.953040488855489e-9 4.802386705836852e-9 6.4140118981609004e-9 6.207707999780137e-9
          3.1646693441502306e-9 4.900187154651867e-9 4.726413511980786e-9 4.398717911976399e-9 5.67722947316082e-9 4.244437150474022e-9
          1.214677674060511e-8 1.1608045097328294e-8 8.931530621620472e-9 1.0333023908617941e-8 4.677310214567038e-9 5.620160627397513e-9
          4.579125677454633e-9 9.835467893982453e-9 3.788057019561881e-9 4.881211437272704e-9 2.461847537358793e-9 3.567446514493047e-9
          3.066031679593262e-9 3.935815376426893e-9 2.8196436070008765e-9 8.600664930684546e-9 6.475495328899601e-9 6.661303238365278e-9
          2.2383882272500517e-8 2.114952462400087e-8 1.8687366793238574e-8 4.558501535808846e-8 4.411657634937915e-8 3.536709479049636e-8
          3.9037949905885004e-8 2.02791772355211e-8 1.9275081037657154e-8 1.6516346570043633e-8 1.5792279441827258e-8 1.6961556684707994e-8
          1.3786494911014192e-8 3.139737414975425e-8 2.998720922245559e-8 2.6096734250111498e-8 2.620564509082432e-8 1.5553807886713578e-8
          1.1758496855253016e-8 3.148714547836814e-8 2.4982270225637317e-8 2.754652848563612e-8 1.391851600222182e-8 1.1040779442752951e-8
          1.0499550757497594e-8 8.21182964901476e-9 2.0932138586933646e-8 1.76678022611788e-8 1.5418663264609925e-8 3.610433019791052e-9
          3.474817035365447e-9 3.1016507342777952e-9 7.166764942890385e-9 6.857817974459519e-9 6.017151354961032e-9 2.580846425313583e-9
          4.867077857490066e-9 3.663963640982607e-9 1.3304217162438955e-8 1.2685713288119519e-8 1.0990850263620847e-8 2.2545076766051775e-8
          2.1480346268700287e-8 1.847791288984319e-8 8.671828630924723e-9 6.304222117837733e-9 1.4313236298726036e-8 1.0110008556876046e-8
          2.901943119666364e-9 3.5293354597257567e-9 2.9915038185004517e-9 5.737076132386702e-9 2.3748473906926518e-9 3.0030898944612803e-9
          1.5502260987281084e-9 2.099501905116009e-9 2.0480425601879583e-9 2.543917065691917e-9 1.7583751935780191e-9 4.936324136884578e-9
          3.567808365942445e-9 3.899495330706244e-9 4.472064644622542e-8 4.481425929087442e-8 4.376859876485992e-8 4.362470489127362e-8
          4.303831085391416e-8 4.105598650097689e-8 4.1268913116422104e-8 4.348406850930136e-8 4.382119410631262e-8 4.6805500206547e-8
          4.164718515381494e-8 4.1113739310318567e-8 3.804603864968209e-8 3.711151325488498e-8 3.775897000961683e-8 3.3217839587600095e-8
          4.094390899778781e-8 4.303451260537413e-8 4.099990601423812e-8 4.4719848323742164e-8 3.656561158378385e-8 3.378387582808922e-8
          3.1962473595262813e-8 2.5670790779906018e-8 4.438893556296727e-8 4.2404933953363114e-8 4.086609461502118e-8 3.031977869137922e-8
          2.6088416929576555e-8 2.168248273799402e-8 1.8297526065121588e-8 3.900986073975622e-8 3.429232646331444e-8 2.789656643239726e-8
          3.1759573841995167e-8 3.755362632181975e-8 3.311987928984625e-8 3.815317523281089e-8 4.5699902944201166e-8 4.621067816502443e-8
          2.4837598985508502e-8 3.365105785740646e-8 3.4866741930416714e-8 4.482747727725165e-8 3.322402195381227e-8 3.787995171238001e-8
          3.2441757773962134e-8 3.7016803028750436e-8 4.5446094167118924e-8 4.318750143635088e-8 2.91996322174686e-8 3.4891039564118874e-8
          3.407300735879652e-8 4.477194811086387e-8 4.7657904330316596e-8 4.661268237880165e-8 4.726368157387517e-8 3.8295119357027075e-8
          4.8182015223898193e-8 4.750968868144464e-8 4.91735926225975e-8 4.401389422034284e-8 3.965036164724726e-8 3.263725591626638e-8
          2.8334324243772007e-8 4.539341516812246e-8 4.1360913423995144e-8 3.4491112026031576e-8
        </DataArray>
        <DataArray type="Float64" Name="gradient_matprop_error" format="ascii" RangeMin="0" RangeMax="0">
          0 0 0 0 0 0
          0 0 0 0 0 0
          0 0 0 0 0 0
          0 0 0 0 0 0
          0 0 0 0 0 0
          0 0 0 0 0 0
          0 0 0 0 0 0
          0 0 0 0 0 0
          0 0 0 0 0 0
          0 0 0 0 0 0
          0 0 0 0 0 0
          0 0 0 0 0 0
          0 0 0 0 0 0
          0 0 0 0 0 0
          0 0 0 0 0 0
          0 0 0 0 0 0
          0 0 0 0 0 0
          0 0 0 0 0 0
          0 0 0 0 0 0
          0 0 0 0 0 0
          0 0 0 0 0 0
          0 0 0 0 0 0
          0 0 0 0 0 0
          0 0 0 0 0 0
          0 0 0 0 0 0
          0 0 0 0 0 0
          0 0 0 0 0 0
          0 0 0 0 0 0
          0 0 0 0 0 0
          0 0 0 0 0 0
          0 0 0 0 0 0
          0 0 0 0 0 0
          0 0 0 0 0 0
          0 0 0 0 0 0
          0 0 0 0 0 0
          0 0 0 0 0 0
          0 0 0 0 0 0
          0 0 0 0 0 0
          0 0 0 0 0 0
          0 0 0 0 0 0
          0 0 0 0 0 0
          0 0 0 0 0 0
          0 0 0 0 0 0
          0 0 0 0 0 0
          0 0 0 0 0 0
          0 0 0 0 0 0
          0 0 0 0 0 0
          0 0 0 0 0 0
          0 0 0 0 0 0
          0 0 0 0 0 0
          0 0 0 0 0 0
          0 0 0 0 0 0
          0 0 0 0 0 0
          0 0 0 0 0 0
          0 0 0 0 0 0
          0 0 0 0
        </DataArray>
        <DataArray type="Float64" Name="initial_marker" format="ascii" RangeMin="0" RangeMax="2">
          0 0 0 1 0 2
          1 1 1 2 2 2
          1 0.5 2 2 2 2
          0 0 0 0 0 0
          0 0 0 0 0 0
          0 0 0 0 2 2
          2 2 1.3333333333333333 2 2 2
          2 2 2 2 2 2
          0.6666666666666666 1.5 2 2 2 2
          2 2 2 2 2 2
          2 2 2 2 2 2
          1 1 2 2 1 2
          2 1 2 2 2 2
          2 2 0.25 1.5 0 1.5
          2 2 2 2 2 2
          2 2 2 2 0 0
          0 0 0 0 0 0
          0 0 0 0 0 0
          0 0 0 0 0 0
          2 2 2 2 2 2
          2 2 2 2 2 2
          2 2 2 2 2 2
          2 2 2 2 2 2
          2 2 2 2 2 2
          2 2 2 2 2 2
          2 2 2 2 2 2
          2 2 2 2 2 2
          2 2 2 2 2 2
          2 2 2 2 2 2
          2 2 2 2 2 2
          2 2 2 2 2 2
          2 2 2 2 2 2
          2 2 2 2 2 2
          1.5 1.75 1.5 2 2 2
          2 2 2 2 2 2
          2 2 2 2 2 2
          2 2 2 2 2 2
          2 2 2 2 2 2
          2 2 2 2 2 2
          2 2 2 2 2 2
          2 2 2 2 2 2
          2 2 2 2 2 2
          1 1.5 1 2 0.5 1.25
          0 1 0 1 1 2
          2 2 2 2 2 2
          2 2 2 2 2 2
          2 2 2 2 2 2
          2 2 2 2 2 2
          2 2 2 2 2 2
          2 2 2 2 2 2
          2 2 2 2 2 2
          2 2 2 2 2 2
          2 2 2 2 2 2
          2 2 2 2 2 2
          2 2 2 2 2 2
          2 2 2 2
        </DataArray>
        <DataArray type="Float64" Name="markers_norefine" format="ascii" RangeMin="0" RangeMax="2">
          0 0 0 0 0 2
          0 0 0 0.5 0 1
          0 0 0 0 2 0
          0 0 0 0 0 0
          0 0 0 0 0 0
          0 0 0 0 0 0
          0 0 0 0 0 0
          0 0 1 0.25 0 0
          0 0 0 0 2 2
          2 2 0.5 0 2 2
          2 1 0 0 0 0
          0 0 0 0 0 0
          0 0 0 0 0 0
          0 0 0 0 0 0
          2 1.5 1 0.25 0 0
          2 2 1 0 0 0
          0 0 0 0 0 0
          0 0 0 0 0 0
          0 0 0 0 0 0
          1.5 2 1 0.5 0 0
          0 0 0 2 1.75 1.25
          2 2 1.5 1.5 1.25 1
          1 2 2 2 2 0.5
          0 1.5 0.5 0.5 0 0
          1.25 1 0.5 2 2 2
          2 2 2 2 2 2
          2 2 2 2 2 2
          2 2 1.75 1.5 1.5 1
          2 2 2 0 0 0
          0 0 0 0 0 0
          0 0 0 0 0 0
          0 0 0 0 0 0
          0 0 0 0 0 0
          0 0 0 0 0 0
          0 0 0 0 0 0
          0 0 0 0 0 0
          0 0 0 0 0 0
          0 0 0 0 0 0
          0 0 0 0 0 0
          0 0 0 0 0 0
          0 0 0 0 0 0
          0 0 0 0 0 0
          0 0 0 0 0 0
          0 0 0 0 0 0
          0 0 1 1 1 1
          0.75 0.5 2 2 2 1.75
          0.5 0.5 0 0 0.25 0
          1.5 1.5 0.75 1 0.25 0
          0 0 0.75 0.5 0 0
          0 0 0 0.25 0 0
          2 2 2 2 2 2
          2 2 2 2 2 2
          2 1.75 1.5 0.75 2 2
          2 1.5 1.25 1 0.5 0
          1.5 1 1 0.5 0 0
          0 0.5 0 0
        </DataArray>
        <DataArray type="Float64" Name="markers_mustrefine" format="ascii" RangeMin="0" RangeMax="2">
          0 0 0 1 0 2
          1 1 1 2 2 2
          1 0.5 2 2 2 2
          0 0 0 0 0 0
          0 0 0 0 0 0
          0 0 0 0 2 2
          2 2 1.3333333333333333 2 2 2
          2 2 2 2 2 2
          0.6666666666666666 1.5 2 2 2 2
          2 2 2 2 2 2
          2 2 2 2 2 2
          1 1 2 2 1 2
          2 1 2 2 2 2
          2 2 0.25 1.5 0 1.5
          2 2 2 2 2 2
          2 2 2 2 0 0
          0 0 0 0 0 0
          0 0 0 0 0 0
          0 0 0 0 0 0
          2 2 2 2 2 2
          2 2 2 2 2 2
          2 2 2 2 2 2
          2 2 2 2 2 2
          2 2 2 2 2 2
          2 2 2 2 2 2
          2 2 2 2 2 2
          2 2 2 2 2 2
          2 2 2 2 2 2
          2 2 2 2 2 2
          2 2 2 2 2 2
          2 2 2 2 2 2
          2 2 2 2 2 2
          2 2 2 2 2 2
          1.5 1.75 1.5 2 2 2
          2 2 2 2 2 2
          2 2 2 2 2 2
          2 2 2 2 2 2
          2 2 2 2 2 2
          2 2 2 2 2 2
          2 2 2 2 2 2
          2 2 2 2 2 2
          2 2 2 2 2 2
          1 1.5 1 2 0.5 1.25
          0 1 0 1 1 2
          2 2 2 2 2 2
          2 2 2 2 2 2
          2 2 2 2 2 2
          2 2 2 2 2 2
          2 2 2 2 2 2
          2 2 2 2 2 2
          2 2 2 2 2 2
          2 2 2 2 2 2
          2 2 2 2 2 2
          2 2 2 2 2 2
          2 2 2 2 2 2
          2 2 2 2
        </DataArray>
        <DataArray type="Float64" Name="gradient_marker" format="ascii" RangeMin="0" RangeMax="1">
          1 0.75 0.875 0.25 1 0
          1 0.625 0.25 0.5 0.625 0.5
          1 1 1 1 1 1
          1 1 1 1 0.5 0.5
          0.5 0.5 0.5 0.6666666666666666 1 1
          1 1 1 1 0.5 0.25
          0.75 0.625 0 0.5 0.5 0
          0.5 0.375 0.5 0.5 0.5 0.75
          0 0.125 0.625 0.375 0 0
          0 0 0.5 0.5 0 0
          0 0.5 0.875 0.625 1 0.75
          0.5 0.5 0.75 0.75 1 1
          1 0.5 0.625 1 0.75 0.75
          1 0.75 0.5 0.5 1 1
          0.5 0.5 1 1 0.75 1
          0.5 0.5 1 0.75 0 0
          0 0 0 0 0.5 0.5
          0.5 0.5 1 1 1 0.5
          0.5 1 0.5 0.5 1 1
          0 0 0 0 0 0
          0 0 0 0 0 0
          0 0 0 0 0 0
          0 0 0 0 0 0
          0 0 0 0 0 0
          0 0 0 0 0 0
          0 0 0 0 0 0
          0 0 0 0 0 0
          0 0 0 0 0 0
          0 0 0 1 1 1
          1 1 1 1 1 1
          1 1 1 1 1 1
          1 1 1 1 1 1
          1 1 1 1 1 1
          1 1 1 1 1 1
          1 1 1 0 0 0.6666666666666666
          0 1 1 1 1 1
          1 1 1 1 1 1
          1 0 0.6666666666666666 0 1 1
          1 1 1 1 1 1
          1 1 1 1 1 1
          1 1 1 1 1 1
          1 1 1 1 1 1
          1 1 1 1 1 1
          1 1 1 1 1 1
          1 1 0 0 0.5 0.5
          0 0.5 0 0 0.5 0
          1 1 1 1 1 1
          1 1 1 1 0 0.5
          0 0.6666666666666666 0 0.5 0 1
          1 1 1 1 1 1
          0 0 0.5 0.5 0 0.5
          0 0 0.5 0 1 1
          1 1 1 1 1 1
          1 1 0 0.5 0 0.6666666666666666
          0 0.5 0 1 1 1
          1 1 1 1
        </DataArray>
        <DataArray type="Float64" Name="gradient_matprop_marker" format="ascii" RangeMin="0" RangeMax="0">
          0 0 0 0 0 0
          0 0 0 0 0 0
          0 0 0 0 0 0
          0 0 0 0 0 0
          0 0 0 0 0 0
          0 0 0 0 0 0
          0 0 0 0 0 0
          0 0 0 0 0 0
          0 0 0 0 0 0
          0 0 0 0 0 0
          0 0 0 0 0 0
          0 0 0 0 0 0
          0 0 0 0 0 0
          0 0 0 0 0 0
          0 0 0 0 0 0
          0 0 0 0 0 0
          0 0 0 0 0 0
          0 0 0 0 0 0
          0 0 0 0 0 0
          0 0 0 0 0 0
          0 0 0 0 0 0
          0 0 0 0 0 0
          0 0 0 0 0 0
          0 0 0 0 0 0
          0 0 0 0 0 0
          0 0 0 0 0 0
          0 0 0 0 0 0
          0 0 0 0 0 0
          0 0 0 0 0 0
          0 0 0 0 0 0
          0 0 0 0 0 0
          0 0 0 0 0 0
          0 0 0 0 0 0
          0 0 0 0 0 0
          0 0 0 0 0 0
          0 0 0 0 0 0
          0 0 0 0 0 0
          0 0 0 0 0 0
          0 0 0 0 0 0
          0 0 0 0 0 0
          0 0 0 0 0 0
          0 0 0 0 0 0
          0 0 0 0 0 0
          0 0 0 0 0 0
          0 0 0 0 0 0
          0 0 0 0 0 0
          0 0 0 0 0 0
          0 0 0 0 0 0
          0 0 0 0 0 0
          0 0 0 0 0 0
          0 0 0 0 0 0
          0 0 0 0 0 0
          0 0 0 0 0 0
          0 0 0 0 0 0
          0 0 0 0 0 0
          0 0 0 0
        </DataArray>
        <DataArray type="Float64" Name="combo" format="ascii" RangeMin="0" RangeMax="2">
          1 0.75 0.875 0.25 1 2
          1 0.625 0.25 1 0.625 1.5
          1 1 1 1 2 1
          1 1 1 1 0.5 0.5
          0.5 0.5 0.5 0.6666666666666666 1 1
          1 1 1 1 0.5 0.25
          0.75 0.625 0 0.5 0.5 0
          0.5 0.375 1.5 0.75 0.5 0.75
          0 0.125 0.625 0.375 2 2
          2 2 1 0.5 2 2
          2 1.5 0.875 0.625 1 0.75
          0.5 0.5 0.75 0.75 1 1
          1 0.5 0.625 1 0.75 0.75
          1 0.75 0.5 0.5 1 1
          2 1.625 1.5 1.125 0.75 1
          2 2 1.5 0.75 0 0
          0 0 0 0 0.5 0.5
          0.5 0.5 1 1 1 0.5
          0.5 1 0.5 0.5 1 1
          1.5 2 1 0.5 0 0
          0 0 0 2 1.75 1.25
          2 2 1.5 1.5 1.25 1
          1 2 2 2 2 0.5
          0 1.5 0.5 0.5 0 0
          1.25 1 0.5 2 2 2
          2 2 2 2 2 2
          2 2 2 2 2 2
          2 2 1.75 1.5 1.5 1
          2 2 2 1 1 1
          1 1 1 1 1 1
          1 1 1 1 1 1
          1 1 1 1 1 1
          1 1 1 1 1 1
          1 1 1 1 1 1
          1 1 1 0 0 0.6666666666666666
          0 1 1 1 1 1
          1 1 1 1 1 1
          1 0 0.6666666666666666 0 1 1
          1 1 1 1 1 1
          1 1 1 1 1 1
          1 1 1 1 1 1
          1 1 1 1 1 1
          1 1 1 1 1 1
          1 1 1 1 1 1
          1 1 1 1 1.25 1.25
          0.75 0.875 2 2 2 1.75
          1.25 1.25 1 1 1.125 1
          1.75 1.75 1.375 1.5 0.25 0.5
          0 0.6666666666666666 0.75 0.875 0 1
          1 1 1 1.125 1 1
          2 2 2 2 2 2
          2 2 2 2 2 2
          2 1.875 1.75 1.375 2 2
          2 1.75 1.25 1.25 0.5 0.6666666666666666
          1.5 1.25 1 1.25 1 1
          1 1.25 1 1
        </DataArray>
        <DataArray type="Float64" Name="dHdT" format="ascii" RangeMin="25.81507546899637" RangeMax="57.44423017316761">
          25.825020285091746 25.865499047952206 25.871970437016685 28.073848637036544 25.82185674631993 46.29511790537126
          29.57232621329106 28.343024982909213 27.334243086080303 42.43525949203301 33.609363531812726 44.23696273416985
          26.486954139896714 26.254970975109202 34.94472826660116 29.561181477332546 57.44423017316761 35.3695756869585
          25.819376332512757 25.817806621622267 25.81534331845164 25.81507546899637 26.625299166238612 26.481494402399846
          25.90624994538955 26.23414315488003 26.160886478269344 26.031067120644703 25.86002167314615 25.857616158517466
          25.91120405372895 25.89642950931426 25.85165259388656 25.882275448893484 30.552864114749475 30.016824367939797
          34.01988522462322 33.0053020677838 28.174862558687582 32.34605579824107 31.647387757662962 28.840280406539403
          30.992306709972077 29.94397266000408 45.40633125826195 40.71240950686198 38.25473526793265 34.67389783626002
          26.90551913060952 28.146645917859537 31.561893644326222 30.37578818178728 49.43331562461002 53.83813562532696
          50.524465185801276 52.603590848363076 42.58284775861941 39.46836904014984 46.29794946025443 49.170745253183505
          50.40561927504532 47.02912149971526 34.66474369016761 32.87664911093732 36.419324783393634 34.09956798446569
          27.294221994480914 27.144433890762063 30.78465268458862 30.121310903254255 26.41604300930873 28.39474195874854
          27.955747178643986 26.79923609202366 28.676788317302588 27.132383355031436 38.712339905502546 35.98015575313273
          33.36985281078758 32.311369960593126 26.440966865573557 27.311427999652803 26.114546358013197 26.47921015293805
          52.69050975355149 49.94105668370388 50.822672649851924 42.154895446967494 36.572367391042306 33.763856691774656
          46.23000757849629 52.54333717477215 50.54713475184057 39.775632870859354 26.171833774894132 26.499756455153708
          26.4478605182396 26.33003350191145 26.067891218891255 26.196778595806443 26.100664203462106 26.08333836057581
          26.346284533244884 26.306146612457596 25.954398655056714 26.104837861386272 26.08260585573693 26.04518725281981
          26.21284218977999 26.02903224581127 26.007613823254047 26.109734776535415 25.916503669436953 25.9732481076747
          51.23211316296377 52.186538873156174 49.79333028090063 47.256550017032865 44.17465757506477 39.550203983298445
          39.070430094272744 38.03740229269018 37.19166672706105 52.971933459507085 53.12699452329512 50.591136170845786
          50.74732803710019 52.44211019647993 52.16819928523057 52.15090654112303 51.05336279135494 49.31909349377966
          47.22186690811094 49.469009451960645 50.91805820382402 51.744474110687726 53.379073279113776 44.01738596976952
          40.13455518493061 51.57593493413823 42.95710917544626 41.43528851135831 39.170319737314415 38.38266224808158
          49.905925371721594 47.815426399753385 45.42081114090304 46.273234986243594 46.372851832271024 50.54789170412103
          46.272923473968135 46.27006319820931 46.78089636665823 46.25132217904393 47.44316781026611 50.828234868323385
          51.6420561916639 46.299789012301005 46.26874461522891 46.2475629648338 49.361852590913784 53.81476316051524
          53.00621159108689 52.96222440899461 52.70603223046031 51.858289362899384 51.04732425938097 49.06747978395927
          52.4440019740972 52.918900656318435 52.401998984523644 27.25275229314242 27.901573124289392 27.83285895804012
          27.649279519712312 29.816923372983354 27.083193318501763 27.045847155847994 27.621516833447846 27.560801987169793
          26.698343742287097 27.134171393455695 27.08744953640491 26.944327590840782 27.396163066061188 26.959290097150433
          29.422343331063004 29.239815016849736 28.27427284233975 28.787687910817844 26.966736549529386 27.38471319917787
          27.088271720514456 28.614450822840595 26.79628063395569 27.162039431007877 26.510805608728944 26.780803817361942
          26.62680886246318 26.903372712460015 26.588273015975815 28.217386506746294 27.542945938747224 27.65182284913998
          33.94518158255685 33.59344610205882 32.53382992473889 45.85064436197341 44.009226199335956 38.9792510541509
          39.75912227532392 33.021485263968934 32.65837350894638 31.247168737612192 30.904168355297024 31.6195601906682
          30.015889965833694 36.8527964682533 36.26588332589247 34.55545085025053 34.980972692550395 30.936709064954428
          29.399765208712232 36.88714133873732 34.90867525144237 36.42384616352528 30.199122869724587 28.958310434173985
          28.898180236163 28.043942782092444 33.17747005086028 31.494378911214525 30.943406566982084 26.767994421555677
          26.732663269582734 26.636710804333124 27.683587151452656 27.59592137503554 27.36330422567359 26.503979584091443
          27.06004328427124 26.757852307779142 29.714063061635358 29.4570230115868 28.82358108018964 33.367673106480666
          32.92754693737497 31.668997674979337 28.084147589853366 27.42720270232268 29.980356450150076 28.510100004901
          26.57659701173484 26.806700458745023 26.6718696271831 27.399701054398086 26.463637186116692 26.661246701145924
          26.272306356882034 26.413069003583228 26.386063726731063 26.547587848156923 26.333347094991975 27.17022856719195
          26.7789755166622 26.895963630880185 50.843151443277776 49.27420548654047 48.1188981385049 46.49417710605729
          44.791273698772635 42.32891427125909 51.48704216617396 52.573158759150665 52.92159259332712 51.68174164166902
          44.604333162364156 43.04726356098402 40.75774475844098 39.59515013320117 39.45768019839934 37.021187050313806
          53.62185279901579 51.94352589074952 48.05501689751686 46.49123383390422 39.542022242229386 37.98552563487185
          37.20675661671663 35.12488229228776 45.254800221226986 42.52046826241583 40.80539251124329 36.17489941608687
          34.40771577337979 33.45494102163674 31.718302400524404 39.71926879149636 37.24455263502823 35.474653929798954
          46.71005906719449 48.80079972465914 48.73160671056013 51.1750675048721 52.487149583176226 52.8111473704947
          46.28169232662321 46.99446670476193 49.00943299452257 51.43424100523579 52.614193894130686 53.83827531963096
          57.108482567942886 54.93509538636948 51.83912011331738 48.06833218012157 48.84587979265729 52.26513313063085
          56.57590190004383 53.16093067150647 50.017965190676996 46.817155846062825 45.9531715971253 39.888307135525395
          51.723233084621455 48.425016726401154 48.285225241672 43.422857464468684 39.90283210417026 36.887473015003614
          34.98525132837868 44.8933070304145 41.02476367946305 37.52135841622152
        </DataArray>
        <DataArray type="Float64" Name="dk/dtemperature" format="ascii" RangeMin="0.004878250000000009" RangeMax="0.05118503054519161">
          0.015804580349343195 0.015804580349343192 0.015794138899959315 0.01329245978293667 0.015804580349343192 0.005078125
          0.012300398610291582 0.013087534007752174 0.013986817863988876 0.010362794717958916 0.008761965166458696 0.021398423205551784
          0.015028768080061511 0.015349936999062015 0.008371518929166828 0.011896012286510433 0.04366675 0.007977755823363616
          0.015804580349343192 0.015804580349343192 0.015804580349343192 0.015804580349343192 0.014926612905859716 0.015075499607050482
          0.015804580349343192 0.015379874146620297 0.015472402181257113 0.015658735526222187 0.015804580349343192 0.015804580349343192
          0.015804580349343192 0.015804580349343192 0.015804580349343192 0.015804580349343192 0.011273746120309656 0.011611519020824137
          0.009834366013217282 0.009926369360697837 0.013151859479647183 0.01022232995708287 0.010477990599619432 0.012451860207236917