<?xml version="1.0"?>
<VTKFile type="UnstructuredGrid" version="0.1" byte_order="LittleEndian" header_type="UInt32" compressor="vtkZLibDataCompressor">
  <UnstructuredGrid>
    <Piece NumberOfPoints="405" NumberOfCells="233">
      <PointData>
        <DataArray type="Int32" Name="libmesh_node_id" format="ascii" RangeMin="695" RangeMax="3204">
          695 696 697 698 702 703
          705 706 708 720 726 1473
          1474 1475 1476 1477 1478 1479
          1480 1481 1482 1485 1486 1501
          1502 1503 1504 1505 1506 1507
          1508 1509 1510 1523 1524 1526
          1529 1542 1543 1544 1546 1547
          1569 1570 1571 1572 1573 1574
          1575 1576 1577 1578 1787 1789
          1860 1861 1863 1864 1866 1867
          2625 2626 2627 2630 2633 2635
          2636 2637 2638 2639 2640 2641
          2642 2643 2644 2645 2646 2647
          2648 2651 2652 2655 2657 2659
          2660 2661 2662 2663 2664 2665
          2666 2667 2668 2679 2680 2681
          2682 2683 2684 2685 2686 2687
          2688 2690 2692 2694 2696 2697
          2698 2699 2700 2701 2702 2703
          2704 2705 2706 2710 2711 2713
          2714 2716 2731 2732 2735 2736
          2738 2740 2751 2752 2755 2757
          2758 2760 2771 2773 2775 2777
          2793 2796 2798 2800 2802 2803
          2804 2805 2806 2807 2808 2809
          2810 2811 2814 2815 2818 2820
          2822 2823 2824 2825 2826 2827
          2828 2829 2830 2831 2832 2833
          2836 2837 2839 2841 2852 2853
          2856 2857 2859 2861 2882 2883
          2884 2885 2886 2887 2888 2889
          2890 2891 2899 2900 2901 2902
          2903 2904 2905 2916 2917 2918
          2919 2920 2921 2922 2923 2924
          2925 2933 2934 2935 2936 2937
          2938 2939 2940 2941 2944 2946
          2947 2949 2960 2962 2964 2966
          2974 2975 2978 2980 2981 2983
          2994 2996 2998 3000 3015 3016
          3017 3018 3019 3020 3021 3023
          3025 3029 3030 3031 3032 3033
          3034 3035 3043 3044 3045 3046
          3047 3048 3049 3053 3057 3058
          3059 3060 3061 3062 3063 3064
          3066 3068 3070 3078 3080 3082
          3084 3092 3094 3096 3098 3106
          3108 3110 3112 3146 3147 3150
          3152 3154 3155 3156 3157 3158
          3159 3160 3161 3162 3163 3165
          3167 3169 3171 3172 3173 3174
          3175 3176 3177 3178 3179 3182
          3183 3185 3187 3198 3200 3202
          3204 1494 1511 1495 1512 1515
          1516 1579 1583 1580 1584 1586
          1588 1794 1520 1870 1871 1487
          1488 1876 2707 2708 2709 2712
          1489 2715 1490 2733 2734 2737
          2739 2753 2754 2756 1497 2759
          1498 2772 2774 2776 1500 2834
          2835 2838 2840 1518 2854 2855
          2858 2860 2942 2943 2945 1531
          2948 1532 2961 2963 2965 1535
          2976 2977 2979 1537 2982 1538
          2995 2997 2999 1540 3065 3067
          3069 1548 3079 3081 3083 1550
          3093 3095 3097 1552 3107 3109
          3111 1554 3180 3181 3184 3186
          3199 3201 3203
        </DataArray>
        <DataArray type="Float64" Name="bounds" format="ascii" RangeMin="0" RangeMax="0">
          0 0 0 0 0 0
          0 0 0 0 0 0
          0 0 0 0 0 0
          0 0 0 0 0 0
          0 0 0 0 0 0
          0 0 0 0 0 0
          0 0 0 0 0 0
          0 0 0 0 0 0
          0 0 0 0 0 0
          0 0 0 0 0 0
          0 0 0 0 0 0
          0 0 0 0 0 0
          0 0 0 0 0 0
          0 0 0 0 0 0
          0 0 0 0 0 0
          0 0 0 0 0 0
          0 0 0 0 0 0
          0 0 0 0 0 0
          0 0 0 0 0 0
          0 0 0 0 0 0
          0 0 0 0 0 0
          0 0 0 0 0 0
          0 0 0 0 0 0
          0 0 0 0 0 0
          0 0 0 0 0 0
          0 0 0 0 0 0
          0 0 0 0 0 0
          0 0 0 0 0 0
          0 0 0 0 0 0
          0 0 0 0 0 0
          0 0 0 0 0 0
          0 0 0 0 0 0
          0 0 0 0 0 0
          0 0 0 0 0 0
          0 0 0 0 0 0
          0 0 0 0 0 0
          0 0 0 0 0 0
          0 0 0 0 0 0
          0 0 0 0 0 0
          0 0 0 0 0 0
          0 0 0 0 0 0
          0 0 0 0 0 0
          0 0 0 0 0 0
          0 0 0 0 0 0
          0 0 0 0 0 0
          0 0 0 0 0 0
          0 0 0 0 0 0
          0 0 0 0 0 0
          0 0 0 0 0 0
          0 0 0 0 0 0
          0 0 0 0 0 0
          0 0 0 0 0 0
          0 0 0 0 0 0
          0 0 0 0 0 0
          0 0 0 0 0 0
          0 0 0 0 0 0
          0 0 0 0 0 0
          0 0 0 0 0 0
          0 0 0 0 0 0
          0 0 0 0 0 0
          0 0 0 0 0 0
          0 0 0 0 0 0
          0 0 0 0 0 0
          0 0 0 0 0 0
          0 0 0 0 0 0
          0 0 0 0 0 0
          0 0 0 0 0 0
          0 0 0
        </DataArray>
        <DataArray type="Float64" Name="gradient_error" format="ascii" RangeMin="6.023456275588368e-11" RangeMax="2.8315820499082476e-8">
          2.7115278951245314e-10 4.837827538164088e-10 7.128731329980161e-9 3.0616820973467925e-9 4.2241249271513425e-10 4.5799140994452054e-10
          2.1250389069303475e-8 1.5171409621298804e-8 1.0417965775957668e-9 8.476027647226342e-10 1.2533043648102937e-9 6.043800991948867e-10
          5.425426891823081e-10 1.936091021648141e-9 1.6435320915441417e-9 2.3806951681229637e-10 9.586396484101897e-10 8.076835688037759e-10
          5.854840990295571e-10 1.1630066326517042e-9 7.279735903433177e-10 5.784982717209902e-9 5.625899282997266e-9 7.06324376227183e-10
          8.919302532788962e-10 6.547907444152335e-10 5.995539885141348e-10 6.795555646413204e-10 9.649305869009559e-10 4.40913776203139e-10
          2.1647478318502087e-9 1.0991735613588797e-9 9.79289173825401e-10 2.3039035415570864e-8 1.9559294869447372e-8 1.0556730048964103e-8
          2.378939734045612e-8 3.382839739296405e-9 1.5154991844695402e-9 7.539081799159019e-10 4.984436470502611e-9 2.059297181231182e-9
          9.132264469788399e-10 8.627582889360053e-10 4.132595071348593e-10 3.9364653413977073e-10 8.092038448507755e-10 1.2946546506161665e-9
          5.890428840613767e-10 1.0359443032482855e-9 4.755701512941456e-10 1.514841687913392e-9 7.838661983631056e-10 3.561407949999648e-10
          5.005731516180374e-10 4.5684382061522644e-10 2.254294196449502e-10 2.0361159650299659e-10 3.386013568126185e-10 1.6909282822881862e-10
          3.431791487667418e-10 6.911454336226145e-10 6.661121991500977e-10 5.994557866478429e-10 1.858468177707761e-9 2.4230265207823406e-10
          2.332610353839471e-10 4.780110333400641e-10 4.6032617913797874e-10 1.5636991166121606e-10 3.241117770631315e-10 3.1201095678176023e-10
          2.1427051827311583e-10 4.13752308873876e-10 2.800389862315044e-10 1.381551398476946e-9 1.3248296785550514e-9 9.186245170460981e-10
          1.1678622773484723e-9 2.91550939176353e-10 5.009158336896426e-10 4.2625412573787935e-10 1.3373871703597997e-9 2.0795813638452358e-10
          3.461537637394024e-10 1.4169173932608233e-10 2.3511105829829095e-10 2.1159465491247565e-10 3.0744423466694604e-10 2.1005428063396208e-10
          9.412620359097839e-10 6.471952238779318e-10 8.311193564681951e-10 3.833844297532665e-9 3.657208734455671e-9 2.7531227429807605e-9
          2.6215028984457928e-9 3.174437104131761e-9 2.264378274476089e-9 9.507210888160527e-9 9.044503581706768e-9 6.7687165979906335e-9
          7.780783272638102e-9 3.4318876516936224e-9 2.5152463621397875e-9 7.90836076659417e-9 2.5139361181597678e-9 1.7793850980633054e-9
          1.8195288990175908e-9 1.2747278084070786e-9 6.040402324612057e-9 4.438536328040537e-9 4.229193332838194e-9 1.0731710346070854e-10
          1.0341224258296886e-10 2.1457889749778163e-10 2.065670723434161e-10 9.494823716790141e-11 1.8520832927945812e-10 6.454867142077152e-10
          6.180962465937526e-10 5.423924356722126e-10 9.314865485245489e-11 1.553997038185241e-10 9.590821707433617e-11 1.3893799626718249e-10
          4.333801791348409e-10 3.787345711193642e-10 1.9019599086509686e-9 1.8092019454604586e-9 1.5578037546945778e-9 5.130066990908741e-9
          4.857589366924024e-9 4.120037533952716e-9 1.217226393078973e-9 8.657505536992102e-10 3.127649334003595e-9 2.131674626775465e-9
          8.296107572479422e-10 1.6918466368048263e-9 1.0519181163354225e-9 3.6406716875007134e-9 7.14879657396616e-10 1.2069474530932862e-9
          4.837793516776485e-10 8.365643470477365e-10 4.5312116153932437e-10 7.406299444585715e-10 5.084385787343487e-10 2.685487088624235e-9
          1.9141760268140866e-9 1.5659473321996179e-9 3.9777213799221416e-10 6.088138488431839e-10 4.3458896703911274e-10 1.1966008400434888e-9
          2.7152620217288195e-10 4.2312167170935336e-10 1.8286889340002466e-10 2.884331529400995e-10 2.0302627816732218e-10 2.9939176208764486e-10
          2.0355892677807445e-10 8.496020368889985e-10 5.880490285315496e-10 5.039595852904696e-10 3.2196504590120845e-10 5.641268250543708e-10
          2.022378693945292e-10 3.406094792940896e-10 1.3162129651945058e-9 7.471653204544543e-10 1.212125917262638e-10 1.9208375266759461e-10
          9.103835491788662e-11 1.3499034849606981e-10 3.956185210568463e-10 2.3011555707724837e-10 1.942787658039765e-8 1.8485100680979396e-8
          1.4955372096088946e-8 1.4211624672658363e-8 1.5874820902295683e-8 1.2162538312359238e-8 2.8306892869875036e-8 2.7554833821069638e-8
          2.2202201735552007e-8 2.479630024156368e-8 1.2249603068351095e-8 9.312411241556224e-9 8.465756454601992e-9 6.333017001261434e-9
          1.977864865139044e-8 1.533701348623938e-8 1.3797038347965277e-8 2.625809202102e-8 2.7448985092833886e-8 2.3800209483658657e-8
          2.4163016373985227e-8 2.8315820499082476e-8 2.3411637687121973e-8 2.1362034899477516e-8 2.4021646176767003e-8 2.26808541909036e-8
          2.785349952739397e-8 2.4903058698931268e-8 1.9603529216902546e-8 1.8058555466149187e-8 1.3953206025581108e-8 2.6296919138153987e-8
          2.087369141399896e-8 1.9590186150439012e-8 1.112145618804186e-8 1.0555340720389769e-8 8.985511546350526e-9 1.7606149381428148e-8
          1.6890366817982634e-8 1.4744784772522865e-8 6.794649423910631e-9 4.53576165736644e-9 1.1450280765718089e-8 7.755021154987916e-9
          1.938357282899896e-8 1.925031180760127e-8 1.7975380843049585e-8 1.837241236982923e-8 1.8807325986006045e-8 1.8498431225284803e-8
          1.47874334508434e-8 1.0412722778833803e-8 1.579364873073755e-8 1.1377960447323114e-8 5.233628303982596e-9 3.828820095885894e-9
          2.9230360816170903e-9 2.0919803167070252e-9 8.491164938081309e-9 6.357376428866987e-9 4.646429088638647e-9 2.088997600677615e-9
          1.0369271849651462e-9 1.5101526364562246e-9 1.0597162114752483e-9 7.331479036201438e-10 5.060459022841366e-10 2.3126614758709035e-9
          1.6423863895005459e-9 1.0835264363549456e-9 1.124077438451805e-8 8.542096386239135e-9 6.14363281065193e-9 4.5261984128937165e-9
          1.2294516572380161e-8 9.388077395305733e-9 6.736723670239329e-9 1.9063150221996733e-9 3.0052999841886737e-9 2.151693466676877e-9
          1.37268592625367e-9 9.602134726632386e-10 3.2810953570158163e-9 2.355945932720235e-9 1.4865540321060152e-9 2.6890826098366114e-9
          1.4434791800619371e-9 4.555109495208406e-9 2.3662059700745102e-9 7.20515650129596e-10 3.397072939651061e-10 1.1264516233863452e-9
          5.092516926669092e-10 6.209912344781291e-9 3.1967011516841053e-9 6.861633592637516e-9 3.5325991716278073e-9 1.4846797503045702e-9
          6.511051630255852e-10 1.629205425590875e-9 7.074193640688182e-10 3.9352250872056947e-10 4.963291220194912e-10 3.260919481796661e-10
          6.977576585148861e-10 2.6935809629925396e-10 3.429959653076303e-10 1.8231807315002452e-10 2.3283569692687024e-10 1.8870003703062126e-10
          2.2156204548641145e-10 1.4828067569258575e-10 4.871806866067334e-10 3.3243759735937717e-10 2.9549804711790377e-10 8.575495198014983e-10
          5.232471808123605e-10 9.187194578916374e-10 6.018346601892942e-10 4.1230289259749877e-10 3.604242160278147e-10 2.425559926238413e-10
          6.459417814811281e-10 4.43083911179959e-10 3.8427639176202363e-10 1.2031942117130748e-10 1.5457479880443737e-10 8.292901327872878e-11
          9.795086261221065e-11 2.2202609260857337e-10 1.3179302787555244e-10 2.76111965530609e-10 1.615059359371758e-10 2.9700192228163853e-10
          1.7239852806893922e-10 2.422038522241849e-10 4.069414279617776e-10 3.2149719892121774e-10 2.6946581822250063e-10 1.8859561612656401e-10
          1.933683268298202e-10 1.7711974382077895e-10 1.5909061218409676e-10 1.7156955227390117e-10 2.565063710380147e-10 2.0759052786704798e-10
          3.024690737705294e-10 1.5320149743580892e-10 1.967440869321528e-10 9.64763152099987e-11 8.914729101262551e-11 1.1587998927720338e-10
          1.0134597348673756e-10 8.18182668152523e-11 6.876927045929049e-11 1.3849718973827717e-10 1.3333079378490706e-10 1.193260760099118e-10
          4.2081716149258146e-10 4.028344173364083e-10 3.531480079693909e-10 6.023456275588368e-11 9.991858197926946e-11 8.934940977025233e-11
          2.8202221974858744e-10 1.2666122790816275e-9 1.20374067995842e-9 1.0336506594756728e-9 3.5193538274434976e-9 3.3256529683481197e-9
          2.8050782803853663e-9 8.043787290825624e-10 5.696116789045245e-10 2.1123931514446293e-9 1.426353095026201e-9 2.1012931858577261e-10
          3.695070934013448e-10 2.2193650183366814e-10 8.727373000816202e-10 4.913338581801717e-10 7.91931394185941e-11 1.249078313916275e-10
          8.805870815855055e-11 2.586584637200356e-10 7.947982997335784e-9 7.51979291283192e-9 6.34129588802942e-9 1.2849192769992824e-8
          1.2316693651916493e-8 1.0701523276946355e-8 4.726193185782847e-9 3.103512363406924e-9 8.197611434984631e-9 5.43067581915434e-9
          1.4355105708985935e-8 1.422385924684614e-8 1.3245689828288464e-8 1.3766377051694643e-8 1.4002315921181444e-8 1.3697755784570403e-8
          1.0797072072329886e-8 7.423702826888067e-9 1.161083696323755e-8 8.16809293184376e-9 1.8115976006808454e-9 9.599412297323523e-10
          3.117500424467627e-9 1.5888340084808638e-9 4.746314298721389e-10 2.2176799079553213e-10 7.459681791554121e-10 3.333581028288249e-10
          4.3016452830635775e-9 2.1624146878632765e-9 4.774895186607269e-9 2.3962588970532983e-9 9.870276303232556e-10 4.275096244896915e-10
          1.084687358004554e-9 4.6501477131853435e-10 7.789132711536398e-11 1.0022103751355784e-10 6.385439209838005e-11 1.4453026863752698e-10
          1.8022063097379268e-10 1.0591008302836788e-10 1.939314725842831e-10
        </DataArray>
        <DataArray type="Float64" Name="gradient_matprop_error" format="ascii" RangeMin="0" RangeMax="0">
          0 0 0 0 0 0
          0 0 0 0 0 0
          0 0 0 0 0 0
          0 0 0 0 0 0
          0 0 0 0 0 0
          0 0 0 0 0 0
          0 0 0 0 0 0
          0 0 0 0 0 0
          0 0 0 0 0 0
          0 0 0 0 0 0
          0 0 0 0 0 0
          0 0 0 0 0 0
          0 0 0 0 0 0
          0 0 0 0 0 0
          0 0 0 0 0 0
          0 0 0 0 0 0
          0 0 0 0 0 0
          0 0 0 0 0 0
          0 0 0 0 0 0
          0 0 0 0 0 0
          0 0 0 0 0 0
          0 0 0 0 0 0
          0 0 0 0 0 0
          0 0 0 0 0 0
          0 0 0 0 0 0
          0 0 0 0 0 0
          0 0 0 0 0 0
          0 0 0 0 0 0
          0 0 0 0 0 0
          0 0 0 0 0 0
          0 0 0 0 0 0
          0 0 0 0 0 0
          0 0 0 0 0 0
          0 0 0 0 0 0
          0 0 0 0 0 0
          0 0 0 0 0 0
          0 0 0 0 0 0
          0 0 0 0 0 0
          0 0 0 0 0 0
          0 0 0 0 0 0
          0 0 0 0 0 0
          0 0 0 0 0 0
          0 0 0 0 0 0
          0 0 0 0 0 0
          0 0 0 0 0 0
          0 0 0 0 0 0
          0 0 0 0 0 0
          0 0 0 0 0 0
          0 0 0 0 0 0
          0 0 0 0 0 0
          0 0 0 0 0 0
          0 0 0 0 0 0
          0 0 0 0 0 0
          0 0 0 0 0 0
          0 0 0 0 0 0
          0 0 0 0 0 0
          0 0 0 0 0 0
          0 0 0 0 0 0
          0 0 0 0 0 0
          0 0 0 0 0 0
          0 0 0 0 0 0
          0 0 0 0 0 0
          0 0 0 0 0 0
          0 0 0 0 0 0
          0 0 0 0 0 0
          0 0 0 0 0 0
          0 0 0 0 0 0
          0 0 0
        </DataArray>
        <DataArray type="Float64" Name="initial_marker" format="ascii" RangeMin="0" RangeMax="2">
          0 0 2 2 0 0.75
          2 2 2 0 0 0
          0 2 2 0 2 2
          0 1.5 1.5 2 2 0
          0.5 0 0.5 0 0 0
          2 2 1.5 2 2 2
          2 2 2 2 2 2
          0 0 0 0 0 0
          0 0.5 0 0 0 0
          0 0 0 0 0 0
          0 1 1 1 2 0
          0 1 1 0 1 1
          0 1 1 2 2 2
          2 0 1 0.6666666666666666 2 0
          1 0 1 0 1 1
          2 2 2 2 2 2
          2 2 2 2 2 2
          2 2 2 2 2 2
          2 2 2 2 2 0
          0 1 1 0 1 2
          2 2 0 0.75 0 0.5
          1.75 1.6666666666666667 2 2 2 2
          2 2 2 2 2 2
          1.3333333333333333 2 1.5 2 2 2
          2 2 1 1.5 1.5 2
          2 2 0 1 1 2
          0 1 0 0.75 0 1
          0.5 2 1.75 1.6666666666666667 2 2
          1 1.5 2 2 0 0.5
          0 0 1.5 0.6666666666666666 2 2
          2 2 2 2 2 2
          2 2 2 2 2 2
          2 2 2 2 2 2
          2 2 2 2 2 2
          2 2 2 2 2 2
          2 2 2 2 2 2
          2 2 2 2 2 2
          2 2 2 2 2 2
          2 2 2 2 2 2
          2 2 2 2 2 2
          2 2 2 1.75 1.5 2
          2 2 2 2 2 2
          2 2 2 2 2 2
          2 2 2 2 2 2
          2 2 2 2 1.5 2
          2 2 2 2 2 2
          2 2 2 1 1 0
          1 0.5 0.75 0 0.5 0
          0 0 1 1 0 1.25
          0.5 1.5 1 1 0 0
          1 1 0 0 0.5 0
          0 1 0 1 0 1
          0 0 0 1 0.5 0
          0 0 0 0 0 0
          0 0 0.5 0 0 0
          0 0 0 1 1 1
          2 2 2 0 0.5 0
          1.5 2 2 2 2 2
          2 2 2 2 2 2
          2 1.5 2 2 0 0.5
          0 1.5 2 2 2 2
          2 2 2 2 2 2
          2 2 2 2 2 2
          2 2 2 2 2 2
          2 2 2 1.5 2 2
          2 2 2 2 2 2
          2 2 0 0.5 0 1
          1 0 1
        </DataArray>
        <DataArray type="Float64" Name="markers_norefine" format="ascii" RangeMin="0" RangeMax="1">
          0 0 0 0 0 0
          0 0 0 0 0 0
          0 0 0 0 0 0
          0 0 0 0 0 0
          0 0 0 0 0 0
          0 0 0 0 0 0
          0 0 0 0 0 0
          0 0 0 0 0 0
          0 0 0 0 0 0
          0 0 0 0 0 0
          0 0 0 0 0 0
          0 0 0 0 0 0
          0 0 0 0 0 0
          0 0 0 0 0 0
          0 0 0 0 0 0
          0 0 0 0 0 0
          0 0 0 0 0 0
          0 0 0 0 0 0
          0 0 0 0 0 0
          0 0 0 0 0 0
          0 0 0 0 0 0
          0 0 0 0 0 0
          0 0 0 0 0 0
          0 0 0 0 0 0
          0 0 0 0 0 0
          0 0 0 0 0 0
          0 0 0 0 0 0
          0 0 0 0 0 0
          0 0 0 0 0 0
          0 0 0 0 0 0
          0 0 0 0 0 0
          0 0 0 0 0 0
          0 0 0 0.5 0.5 0
          0 0.25 0 1 1 0
          0.5 0 0 0 0 0
          0 0 0 0 0 0
          0 0 0 0 0 0
          0 0 0 0 0 0
          0 0 0 0 0 0
          0 0 0 0 0 0
          0 0 0 0 0 0
          0 0 0 0 0 0
          0 0 0 0 0 0
          0 0 0 0 0 0
          0 0 0 0 0 0
          0 0 0 0 0 0
          0 0 0 0 0 0
          0 0 0 0 0 0
          0 0 0 0 0 0
          0 0 0 0 0 0
          0 0 0 0 0 0
          0 0 0 0 0 0
          0 0 0 0 0 0
          0 0 0 0 0 0
          0 0 0 0 0 0
          0 0 0 0 0 0
          0 0 0 0 0 0
          0 0 0 0 0 0
          0 0 0 0 0 0
          0 0 0 0 0 0
          0 0 0 0 0 0
          0 0 0 0 0 0
          0 0 0 0 0 0
          0 0 0 0 0 0
          0 0 0 0 0 0
          0 0 0 0 0 0
          0 0 0 0 0 0
          0 0 0
        </DataArray>
        <DataArray type="Float64" Name="markers_mustrefine" format="ascii" RangeMin="0" RangeMax="2">
          0 0 2 2 0 0.75
          2 2 2 0 0 0
          0 2 2 0 2 2
          0 1.5 1.5 2 2 0
          0.5 0 0.5 0 0 0
          2 2 1.5 2 2 2
          2 2 2 2 2 2
          0 0 0 0 0 0
          0 0.5 0 0 0 0
          0 0 0 0 0 0
          0 1 1 1 2 0
          0 1 1 0 1 1
          0 1 1 2 2 2
          2 0 1 0.6666666666666666 2 0
          1 0 1 0 1 1
          2 2 2 2 2 2
          2 2 2 2 2 2
          2 2 2 2 2 2
          2 2 2 2 2 0
          0 1 1 0 1 2
          2 2 0 0.75 0 0.5
          1.75 1.6666666666666667 2 2 2 2
          2 2 2 2 2 2
          1.3333333333333333 2 1.5 2 2 2
          2 2 1 1.5 1.5 2
          2 2 0 1 1 2
          0 1 0 0.75 0 1
          0.5 2 1.75 1.6666666666666667 2 2
          1 1.5 2 2 0 0.5
          0 0 1.5 0.6666666666666666 2 2
          2 2 2 2 2 2
          2 2 2 2 2 2
          2 2 2 2 2 2
          2 2 2 2 2 2
          2 2 2 2 2 2
          2 2 2 2 2 2
          2 2 2 2 2 2
          2 2 2 2 2 2
          2 2 2 2 2 2
          2 2 2 2 2 2
          2 2 2 1.75 1.5 2
          2 2 2 2 2 2
          2 2 2 2 2 2
          2 2 2 2 2 2
          2 2 2 2 1.5 2
          2 2 2 2 2 2
          2 2 2 1 1 0
          1 0.5 0.75 0 0.5 0
          0 0 1 1 0 1.25
          0.5 1.5 1 1 0 0
          1 1 0 0 0.5 0
          0 1 0 1 0 1
          0 0 0 1 0.5 0
          0 0 0 0 0 0
          0 0 0.5 0 0 0
          0 0 0 1 1 1
          2 2 2 0 0.5 0
          1.5 2 2 2 2 2
          2 2 2 2 2 2
          2 1.5 2 2 0 0.5
          0 1.5 2 2 2 2
          2 2 2 2 2 2
          2 2 2 2 2 2
          2 2 2 2 2 2
          2 2 2 1.5 2 2
          2 2 2 2 2 2
          2 2 0 0.5 0 1
          1 0 1
        </DataArray>
        <DataArray type="Float64" Name="gradient_marker" format="ascii" RangeMin="1" RangeMax="1">
          1 1 1 1 1 1
          1 1 1 1 1 1
          1 1 1 1 1 1
          1 1 1 1 1 1
          1 1 1 1 1 1
          1 1 1 1 1 1
          1 1 1 1 1 1
          1 1 1 1 1 1
          1 1 1 1 1 1
          1 1 1 1 1 1
          1 1 1 1 1 1
          1 1 1 1 1 1
          1 1 1 1 1 1
          1 1 1 1 1 1
          1 1 1 1 1 1
          1 1 1 1 1 1
          1 1 1 1 1 1
          1 1 1 1 1 1
          1 1 1 1 1 1
          1 1 1 1 1 1
          1 1 1 1 1 1
          1 1 1 1 1 1
          1 1 1 1 1 1
          1 1 1 1 1 1
          1 1 1 1 1 1
          1 1 1 1 1 1
          1 1 1 1 1 1
          1 1 1 1 1 1
          1 1 1 1 1 1
          1 1 1 1 1 1
          1 1 1 1 1 1
          1 1 1 1 1 1
          1 1 1 1 1 1
          1 1 1 1 1 1
          1 1 1 1 1 1
          1 1 1 1 1 1
          1 1 1 1 1 1
          1 1 1 1 1 1
          1 1 1 1 1 1
          1 1 1 1 1 1
          1 1 1 1 1 1
          1 1 1 1 1 1
          1 1 1 1 1 1
          1 1 1 1 1 1
          1 1 1 1 1 1
          1 1 1 1 1 1
          1 1 1 1 1 1
          1 1 1 1 1 1
          1 1 1 1 1 1
          1 1 1 1 1 1
          1 1 1 1 1 1
          1 1 1 1 1 1
          1 1 1 1 1 1
          1 1 1 1 1 1
          1 1 1 1 1 1
          1 1 1 1 1 1
          1 1 1 1 1 1
          1 1 1 1 1 1
          1 1 1 1 1 1
          1 1 1 1 1 1
          1 1 1 1 1 1
          1 1 1 1 1 1
          1 1 1 1 1 1
          1 1 1 1 1 1
          1 1 1 1 1 1
          1 1 1 1 1 1
          1 1 1 1 1 1
          1 1 1
        </DataArray>
        <DataArray type="Float64" Name="gradient_matprop_marker" format="ascii" RangeMin="0" RangeMax="0">
          0 0 0 0 0 0
          0 0 0 0 0 0
          0 0 0 0 0 0
          0 0 0 0 0 0
          0 0 0 0 0 0
          0 0 0 0 0 0
          0 0 0 0 0 0
          0 0 0 0 0 0
          0 0 0 0 0 0
          0 0 0 0 0 0
          0 0 0 0 0 0
          0 0 0 0 0 0
          0 0 0 0 0 0
          0 0 0 0 0 0
          0 0 0 0 0 0
          0 0 0 0 0 0
          0 0 0 0 0 0
          0 0 0 0 0 0
          0 0 0 0 0 0
          0 0 0 0 0 0
          0 0 0 0 0 0
          0 0 0 0 0 0
          0 0 0 0 0 0
          0 0 0 0 0 0
          0 0 0 0 0 0
          0 0 0 0 0 0
          0 0 0 0 0 0
          0 0 0 0 0 0
          0 0 0 0 0 0
          0 0 0 0 0 0
          0 0 0 0 0 0
          0 0 0 0 0 0
          0 0 0 0 0 0
          0 0 0 0 0 0
          0 0 0 0 0 0
          0 0 0 0 0 0
          0 0 0 0 0 0
          0 0 0 0 0 0
          0 0 0 0 0 0
          0 0 0 0 0 0
          0 0 0 0 0 0
          0 0 0 0 0 0
          0 0 0 0 0 0
          0 0 0 0 0 0
          0 0 0 0 0 0
          0 0 0 0 0 0
          0 0 0 0 0 0
          0 0 0 0 0 0
          0 0 0 0 0 0
          0 0 0 0 0 0
          0 0 0 0 0 0
          0 0 0 0 0 0
          0 0 0 0 0 0
          0 0 0 0 0 0
          0 0 0 0 0 0
          0 0 0 0 0 0
          0 0 0 0 0 0
          0 0 0 0 0 0
          0 0 0 0 0 0
          0 0 0 0 0 0
          0 0 0 0 0 0
          0 0 0 0 0 0
          0 0 0 0 0 0
          0 0 0 0 0 0
          0 0 0 0 0 0
          0 0 0 0 0 0
          0 0 0 0 0 0
          0 0 0
        </DataArray>
        <DataArray type="Float64" Name="combo" format="ascii" RangeMin="1" RangeMax="1.5">
          1 1 1 1 1 1
          1 1 1 1 1 1
          1 1 1 1 1 1
          1 1 1 1 1 1
          1 1 1 1 1 1
          1 1 1 1 1 1
          1 1 1 1 1 1
          1 1 1 1 1 1
          1 1 1 1 1 1
          1 1 1 1 1 1
          1 1 1 1 1 1
          1 1 1 1 1 1
          1 1 1 1 1 1
          1 1 1 1 1 1
          1 1 1 1 1 1
          1 1 1 1 1 1
          1 1 1 1 1 1
          1 1 1 1 1 1
          1 1 1 1 1 1
          1 1 1 1 1 1
          1 1 1 1 1 1
          1 1 1 1 1 1
          1 1 1 1 1 1
          1 1 1 1 1 1
          1 1 1 1 1 1
          1 1 1 1 1 1
          1 1 1 1 1 1
          1 1 1 1 1 1
          1 1 1 1 1 1
          1 1 1 1 1 1
          1 1 1 1 1 1
          1 1 1 1 1 1
          1 1 1 1.25 1.25 1
          1 1.125 1 1.5 1.5 1
          1.25 1 1 1 1 1
          1 1 1 1 1 1
          1 1 1 1 1 1
          1 1 1 1 1 1
          1 1 1 1 1 1
          1 1 1 1 1 1
          1 1 1 1 1 1
          1 1 1 1 1 1
          1 1 1 1 1 1
          1 1 1 1 1 1
          1 1 1 1 1 1
          1 1 1 1 1 1
          1 1 1 1 1 1
          1 1 1 1 1 1
          1 1 1 1 1 1
          1 1 1 1 1 1
          1 1 1 1 1 1
          1 1 1 1 1 1
          1 1 1 1 1 1
          1 1 1 1 1 1
          1 1 1 1 1 1
          1 1 1 1 1 1
          1 1 1 1 1 1
          1 1 1 1 1 1
          1 1 1 1 1 1
          1 1 1 1 1 1
          1 1 1 1 1 1
          1 1 1 1 1 1
          1 1 1 1 1 1
          1 1 1 1 1 1
          1 1 1 1 1 1
          1 1 1 1 1 1
          1 1 1 1 1 1
          1 1 1
        </DataArray>
        <DataArray type="Float64" Name="dHdT" format="ascii" RangeMin="25.815694244618562" RangeMax="54.66185845799382">
          25.844376387454638 25.83780523734587 27.88673950118207 26.6197151720411 25.824020864443877 25.89307908873093
          43.168865995502884 31.834846736001815 26.09233249102769 25.827409386376225 25.837742515809065 25.885279224175434
          25.876988190132472 26.358563390513297 26.275027864146196 25.840806635964714 26.072493348101233 26.031356834528847
          25.861018853876583 26.089623138883525 25.941271447046564 27.425110941636408 27.40916445173106 25.849444410929834
          25.941471261275225 25.83937473955885 25.873034934193846 25.844458851914208 25.875214511177543 25.840625326026274
          26.40605232227546 26.100508473234413 25.989278196980013 35.96846098160848 33.65756868532156 29.224588868372372
          37.95935751646009 26.710971234031234 26.236101033118647 26.013998449641935 27.189776750462585 26.389909456945293
          25.874988268465458 25.913460787399696 25.840634076051348 25.85852420420698 25.855992776437155 25.88012674753958
          25.843588596910998 25.93773765747988 25.870008351446756 25.89224307233805 25.85003672284596 25.82936687711617
          25.83512695748656 25.832972924386315 25.822205457063408 25.821285282873525 25.82790913914721 25.82024190757845
          25.916929588089083 26.012221458416473 26.005259515192346 25.985784913970086 26.33623264893965 25.88435650570219
          25.88230572991828 25.947840458972543 25.943098425339763 25.85848590997955 25.90253303373619 25.899382823697394
          25.87602086218044 25.929831112874737 25.890650648617825 26.194137421884236 26.178199952544176 26.06140002750388
          26.134693091810853 25.89494820734255 25.95874780829908 25.940407480504124 26.188977749707977 25.868318982131896
          25.912361092520065 25.849783172587074 25.879558911906475 25.864851194037286 25.903416350997627 25.874049140235893
          26.074241627854054 25.990246167914272 26.042272216967685 26.875106073417662 26.822902583021385 26.55509419649354
          26.518075349371003 26.68254078078563 26.418631993635916 28.827389909868312 28.626911790079028 27.75781920443128
          28.1238917630292 26.767406139816266 26.501894969494305 28.19473254375834 26.49346409660891 26.285145459209062
          26.30069679604213 26.14949112404235 27.516670632388944 27.00928959788702 26.961619342928156 25.843006378981425
          25.84215928349889 25.871061607554925 25.869021193908427 25.83968105835041 25.863430812829442 25.984379563407295
          25.976979180062866 25.95692852111352 25.837016245420745 25.85653899742143 25.835982562157028 25.853197149445904
          25.92975761227275 25.91572885639725 26.315670218343897 26.290123616614828 26.221767721290632 27.224678339957144
          27.138547814205737 26.914453672814812 26.13037304389252 26.037880953270793 26.63103644217292 26.362497484501567
          26.047253073922402 26.275230155268694 26.104652255330503 26.81520431360707 26.00555608091653 26.136860526879303
          25.94380771434854 26.03457475954954 25.93913979724558 26.01465267820347 25.949585771656345 26.530567844423917
          26.312983274510934 26.231749746604855 25.932465895883354 25.990081860404665 25.946013184874694 26.146434596418402
          25.893791388541466 25.933604448268607 25.867261071729175 25.89387371972984 25.876317804102808 25.902776726076304
          25.87282660055612 26.043848696082243 25.969082436087646 25.95624808167376 25.899314422373862 25.960045863499328
          25.869241795336407 25.903014551848155 26.15026437939584 26.004494895564747 25.848484416141446 25.86589374698337
          25.840401475239823 25.851875870817025 25.91569387784356 25.875487949180354 32.80542771676836 32.46663787456713
          31.28343612064094 30.93175851646744 31.45168604578624 29.952452735643938 39.399423279505996 38.25324837544754