<?xml version="1.0"?>
<VTKFile type="UnstructuredGrid" version="0.1" byte_order="LittleEndian" header_type="UInt32" compressor="vtkZLibDataCompressor">
  <UnstructuredGrid>
    <Piece NumberOfPoints="469" NumberOfCells="222">
      <PointData>
        <DataArray type="Int32" Name="libmesh_node_id" format="ascii" RangeMin="20" RangeMax="993">
          24 25 26 27 28 29
          30 31 32 33 34 35
          36 37 38 39 40 41
          42 43 44 45 46 47
          60 61 62 63 64 65
          66 67 68 69 70 71
          84 85 86 87 88 89
          90 91 92 93 94 95
          102 103 104 105 106 107
          120 121 122 123 124 125
          126 127 128 129 130 131
          138 139 140 141 142 143
          158 159 160 161 162 163
          164 165 166 167 175 176
          177 178 179 194 195 196
          197 198 199 200 201 202
          203 211 212 213 214 215
          230 231 236 237 238 239
          247 248 249 250 251 267
          272 273 274 275 283 284
          285 286 287 307 308 309
          311 314 315 316 320 321
          368 369 370 371 375 376
          378 379 381 438 439 442
          443 444 445 446 447 450
          451 452 454 456 457 458
          459 461 462 464 465 466
          468 470 471 472 475 476
          478 479 480 481 482 484
          485 486 487 489 490 492
          493 494 495 497 499 500
          504 505 509 563 564 565
          566 567 568 569 570 571
          572 573 574 575 576 577
          578 579 580 584 585 587
          588 590 767 768 771 772
          774 775 776 777 778 780
          781 782 783 784 785 788
          789 790 791 792 795 796
          797 798 799 800 853 854
          857 858 860 861 862 863
          864 866 867 868 869 870
          871 874 875 876 877 878
          879 880 881 882 883 884
          887 890 891 893 894 900
          941 942 945 946 948 949
          950 951 952 954 955 956
          957 958 959 962 963 965
          966 967 968 969 970 971
          972 973 974 975 976 979
          980 982 984 20 21 22
          23 58 59 82 83 101
          118 119 137 154 156 157
          155 174 173 192 193 210
          234 235 229 246 233 271
          295 297 310 301 313 322
          328 324 329 356 358 362
          372 374 377 339 340 440
          441 341 344 448 449 347
          453 455 460 265 463 282
          467 330 469 334 473 474
          342 343 477 348 483 389
          390 488 391 491 318 395
          496 498 403 404 501 502
          405 503 506 507 508 357
          551 552 553 557 264 561
          366 373 581 582 583 586
          317 589 380 769 770 773
          779 228 786 787 232 325
          793 794 335 336 855 856
          859 865 296 872 873 382
          383 312 386 843 844 848
          305 851 885 886 888 889
          892 397 400 895 896 897
          898 899 901 902 943 944
          947 953 960 961 964 931
          932 936 939 977 978 981
          983 985 986 987 988 992
          993
        </DataArray>
        <DataArray type="Float64" Name="bounds" format="ascii" RangeMin="0" RangeMax="0">
          0 0 0 0 0 0
          0 0 0 0 0 0
          0 0 0 0 0 0
          0 0 0 0 0 0
          0 0 0 0 0 0
          0 0 0 0 0 0
          0 0 0 0 0 0
          0 0 0 0 0 0
          0 0 0 0 0 0
          0 0 0 0 0 0
          0 0 0 0 0 0
          0 0 0 0 0 0
          0 0 0 0 0 0
          0 0 0 0 0 0
          0 0 0 0 0 0
          0 0 0 0 0 0
          0 0 0 0 0 0
          0 0 0 0 0 0
          0 0 0 0 0 0
          0 0 0 0 0 0
          0 0 0 0 0 0
          0 0 0 0 0 0
          0 0 0 0 0 0
          0 0 0 0 0 0
          0 0 0 0 0 0
          0 0 0 0 0 0
          0 0 0 0 0 0
          0 0 0 0 0 0
          0 0 0 0 0 0
          0 0 0 0 0 0
          0 0 0 0 0 0
          0 0 0 0 0 0
          0 0 0 0 0 0
          0 0 0 0 0 0
          0 0 0 0 0 0
          0 0 0 0 0 0
          0 0 0 0 0 0
          0 0 0 0 0 0
          0 0 0 0 0 0
          0 0 0 0 0 0
          0 0 0 0 0 0
          0 0 0 0 0 0
          0 0 0 0 0 0
          0 0 0 0 0 0
          0 0 0 0 0 0
          0 0 0 0 0 0
          0 0 0 0 0 0
          0 0 0 0 0 0
          0 0 0 0 0 0
          0 0 0 0 0 0
          0 0 0 0 0 0
          0 0 0 0 0 0
          0 0 0 0 0 0
          0 0 0 0 0 0
          0 0 0 0 0 0
          0 0 0 0 0 0
          0 0 0 0 0 0
          0 0 0 0 0 0
          0 0 0 0 0 0
          0 0 0 0 0 0
          0 0 0 0 0 0
          0 0 0 0 0 0
          0 0 0 0 0 0
          0 0 0 0 0 0
          0 0 0 0 0 0
          0 0 0 0 0 0
          0 0 0 0 0 0
          0 0 0 0 0 0
          0 0 0 0 0 0
          0 0 0 0 0 0
          0 0 0 0 0 0
          0 0 0 0 0 0
          0 0 0 0 0 0
          0 0 0 0 0 0
          0 0 0 0 0 0
          0 0 0 0 0 0
          0 0 0 0 0 0
          0 0 0 0 0 0
          0
        </DataArray>
        <DataArray type="Float64" Name="gradient_error" format="ascii" RangeMin="1.3504941979799206e-12" RangeMax="3.9686526396070286e-7">
          1.88386221471098e-11 1.4750635563050184e-11 2.961894226976268e-11 2.0109873110569378e-11 1.0984290407932084e-11 1.075439674738692e-11
          1.0094399276715968e-11 1.0223584806566776e-11 1.0266580545084364e-11 1.031616374538634e-11 1.0435059677782959e-11 1.0374015781628563e-11
          1.0263200104220393e-11 1.0289720050174657e-11 1.0445402029584217e-11 1.039602406657585e-11 1.0313743164943582e-11 1.0319300116820318e-11
          1.036245262044986e-11 1.0348548952338507e-11 1.0324319773695558e-11 1.032587066083687e-11 1.0343846331741231e-11 1.0337073134057572e-11
          1.0662648978990568e-11 1.0600803951376071e-11 1.0524503086841758e-11 1.0352770336417583e-11 1.0365746945688316e-11 1.0312971885474168e-11
          1.031623999612892e-11 1.0346646103567482e-11 1.0324857068697053e-11 1.0334645284227153e-11 1.0327421547978181e-11 1.0330299936373915e-11
          1.1837012037080379e-10 6.969011336443567e-11 2.3088239156949484e-11 1.9416610087080593e-11 1.1531529852156701e-11 1.1557507291188561e-11
          1.0044354213655283e-11 1.0166669269058702e-11 1.0181029760800858e-11 1.0238857031972777e-11 1.0225351430904442e-11 1.0265491017253177e-11
          2.1010106358067556e-11 1.57449810172117e-11 1.1583484730220424e-11 1.0288984324462118e-11 1.0296684303144696e-11 1.0305630603601912e-11
          4.861578514979442e-10 2.8276467622900097e-10 8.382546173030323e-11 6.474359095759937e-11 1.8222754040989248e-11 1.8566520469363526e-11
          1.1230053149337804e-11 1.0759653642433191e-11 1.1128050728164512e-11 1.0758244500910669e-11 1.1056503736564792e-11 1.0720783767962577e-11
          7.93715009600578e-11 4.5661720184895506e-11 1.8910286897737806e-11 1.0289254135528577e-11 1.0388438273656823e-11 1.038506379936036e-11
          3.9877420502526946e-10 2.9783025326322966e-10 7.121214847681163e-11 6.787001132370251e-11 1.4185891169635505e-11 1.338233404279247e-11
          9.79029672796032e-12 9.205630565808494e-12 9.408863865117656e-12 8.804152421170672e-12 1.9688630150118985e-10 6.452787417059338e-11
          1.2578776915949433e-11 8.620964403656668e-12 8.199440977223689e-12 5.768039956025373e-10 6.381150623478879e-10 7.675381486567208e-11
          1.4280540962252608e-10 1.1355637817714828e-11 1.5295027260071918e-11 9.428277158360585e-12 9.334102727248409e-12 8.946325253960157e-12
          8.64029216974119e-12 7.516646765930391e-10 2.0673260046646384e-10 1.8960447963933922e-11 9.239928296136232e-12 8.334259085522224e-12
          3.2171590971337946e-9 2.6635326264490953e-9 9.086796238704831e-12 9.43696964333876e-12 1.1174966246467058e-11 9.9769237938395e-12
          6.921739404603782e-10 1.6598778561833715e-10 1.4134906411054363e-11 9.855994765600076e-12 8.778881341211941e-12 2.5319909538112756e-9
          6.454591169020152e-12 7.192960892448808e-12 1.1249332214141516e-11 9.02270698184089e-12 2.3209853787748046e-10 1.7834959841470085e-11
          5.317774166357902e-12 7.946120305459517e-12 6.796081749540263e-12 5.443508880798435e-9 6.819927352275338e-9 4.811798688554089e-8
          3.6269709807989293e-9 6.778259192815852e-9 5.057643721470839e-9 2.407348612469866e-9 5.141501269274841e-9 8.506497083490517e-10
          6.178322126349502e-8 1.710568856558049e-7 2.898292897850131e-7 3.2067133859625006e-7 2.1509009348518822e-7 2.600861247635015e-7
          2.269653396979445e-7 3.245584778111655e-7 2.2876322895418423e-7 2.589534888748948e-12 2.362644973663112e-12 1.7978195624550793e-12
          1.7976865608043208e-12 1.721439998385907e-12 2.135755058577276e-12 2.3891125368352666e-12 1.6451934359674934e-12 1.645060434316735e-12
          2.642470015093258e-12 5.991881817312975e-10 8.181681583157563e-10 4.5281816154054724e-10 5.598741641035432e-10 2.559782293139389e-10
          3.0986541030293247e-10 2.1843757634658854e-10 1.037148134900215e-9 6.669301666665391e-10 3.63752591291926e-10 2.1311686073884665e-10
          4.1392752877123934e-11 1.0202869972189815e-10 9.554311896467667e-11 2.024363866305435e-11 8.905753820745518e-11 7.013999953266809e-12
          2.4483107170815015e-12 2.372713990130524e-12 3.870811286022865e-12 5.1177582339020895e-12 1.3504941979799206e-12 2.297117263179547e-12
          6.364705181781314e-12 1.6607235374160946e-8 2.967866041906425e-8 6.829285145480365e-8 8.302058510344771e-9 1.4782103108177073e-9
          4.326865438123485e-9 5.351946539324253e-9 2.54017615470162e-9 1.0690704249054305e-7 7.1755205654292645e-9 4.10683521714542e-9
          6.615305910381392e-10 9.703069359889803e-10 1.2790832809398215e-9 2.6995351896669034e-7 2.555737087834831e-7 2.5936546151100605e-7
          2.8508254525375485e-7 2.7234923977785854e-7 2.9030698522222865e-7 3.159527013690789e-7 2.361784202451469e-7 2.8402795961805764e-7
          3.066208723899472e-7 1.98607767969323e-7 2.519462623422481e-7 2.839237570019722e-7 2.9682493682975373e-7 3.1124433864580263e-7
          2.9012154682610843e-7 3.2820374154834473e-7 3.527232127804454e-7 2.603970088674151e-7 3.317365011995958e-7 2.638573094839674e-7
          3.2372290501225767e-7 3.5642781036221105e-7 9.659359553603558e-10 8.186403053472308e-10 2.4469729100717768e-9 2.377867766289423e-9
          4.344999869469425e-10 1.2802051582288781e-9 1.25193263460216e-9 6.713446553341059e-10 2.3087626225070698e-9 1.2236601109754413e-9
          1.6451066519246787e-10 1.6714948606382997e-10 4.862993537024964e-10 5.005305099220963e-10 3.71937238787838e-11 1.6978830693519213e-10
          5.14761666141696e-10 1.145398497523839e-10 4.10033642607728e-12 4.681670592394711e-12 3.1631982577582795e-12 3.1515783745797826e-12
          4.102782245594563e-12 5.26300475871214e-12 1.2051540939353172e-11 5.053986116609343e-12 7.727875707610172e-9 5.587819052590496e-9
          2.9363803977294634e-8 1.9970055462323034e-8 5.459163998416463e-9 2.4132772942095285e-8 1.9492678670170917e-8 3.4477623975708204e-9
          1.057630694735143e-8 1.4852584398246556e-8 5.890605307055956e-9 5.1380965042316074e-9 1.9674184797723583e-8 1.783600877839682e-8
          4.010579511007678e-9 4.385587701407259e-9 1.599783275907005e-8 1.2810901058683058e-8 4.6708791661131835e-8 9.470885284392828e-8
          3.747255995823743e-9 5.527443845823582e-9 1.427089140267247e-7 7.307631695823421e-9 2.505242935552876e-9 2.3360561709938066e-9
          8.447407245291729e-10 2.166869406434738e-9 7.395036198161273e-9 1.5196218911480802e-10 1.5572966873715578e-10 1.5949714835950355e-10
          8.021903983948302e-8 8.176137183745496e-8 1.5000146136008736e-7 1.373449806195798e-7 7.50972837635634e-8 1.4928832955176211e-7
          1.3590705879154752e-7 8.330370383542693e-8 1.2468849987907223e-7 1.225257880313329e-7 6.415541721106743e-8 6.758675076122649e-8
          1.4704696044497528e-7 1.3305316193240516e-7 5.9209458713634494e-8 7.101808431138556e-8 1.1905936341983502e-7 1.8175791806054936e-7
          2.0779544049541564e-7 1.848603734747734e-7 2.143429474541551e-7 1.3736837258620965e-7 1.5833459075121964e-7 1.5704256764434498e-7
          2.3383296293028196e-7 2.438255214335368e-7 1.7930080891622963e-7 1.8658910800143487e-7 2.1996945394334706e-7 1.2998469941345282e-7
          1.5370858950004858e-7 2.5334979988525927e-7 1.7743247958664434e-7 2.5434181625215127e-11 1.829786833449933e-11 4.745281355090705e-11
          2.995260666856334e-11 1.116155504378353e-11 1.2452399786219635e-11 1.9561890293312825e-10 1.1476719487824167e-10 3.391548682335508e-11
          7.996814016026716e-10 4.721756241293066e-10 1.4466984665594138e-10 3.2974708872610803e-9 2.038184057402901e-9 1.2003228376672813e-9
          1.978796851536712e-9 3.6246161793166154e-10 6.60122815812343e-10 3.638909181595201e-9 2.1533292482081343e-9 1.9474383365015683e-9
          7.406600153551055e-12 1.1334446491434101e-11 1.3556652814623922e-8 1.930326153902209e-9 2.570095547561017e-10 1.118693879495983e-11
          1.8310800895902103e-8 1.966390724604015e-7 1.3885976696641352e-7 1.3375716972759668e-8 6.838017350984373e-8 1.240601703923344e-9
          1.2274179068879597e-9 1.198553935805799e-8 8.895960137627144e-10 1.9138436052312887e-7 3.1933965831802755e-7 3.0207133834987547e-7
          1.4689075050561377e-7 3.1831279036067373e-7 2.106212701117685e-7 6.177577398031911e-12 4.7427889021035886e-12 2.787803414095897e-12
          2.588457975465582e-12 8.31833884371521e-12 8.748429261282186e-12 2.986071939442846e-12 2.814270977268052e-12 1.0399842162384094e-11
          1.4273802039985015e-9 1.860862176061584e-9 6.919186510923293e-10 6.5602316894891375e-9 2.2943441481246664e-9 8.20400179647796e-10
          2.380836340826663e-10 1.6437812834244017e-10 3.899216119503505e-11 3.6829130144852496e-10 2.630504074264859e-10 3.659156951294617e-11
          2.074858173952654e-11 1.9948239514407865e-11 9.110937656627499e-12 2.1774718433118628e-11 1.1207875359988186e-11 1.3649899392172358e-7
          1.5381974567706468e-7 4.316220608125545e-8 9.619040624564178e-8 2.2799848080698622e-8 1.8890558954821158e-7 1.416769159502523e-7
          6.971717678834998e-8 3.7297637651052474e-8 4.6798382647779996e-8 4.81004170368628e-8 9.91641845617569e-9 2.1324868028082726e-9
          1.612609171926623e-8 3.800865839889869e-9 2.9918070467059717e-10 1.5726001695205962e-8 5.469244876971465e-9 2.510572842438919e-7
          2.38875877393734e-7 2.341081924421582e-7 2.5886247994317666e-7 2.6294698089316195e-7 1.7633670000562774e-7 2.2623706310089717e-7
          2.726080623571477e-7 3.341159443293567e-7 3.086249834653384e-7 3.7530034696909115e-7 3.9686526396070286e-7 3.594894597446422e-7
          3.131250249660406e-7 3.7407390123083954e-7 3.930791360122819e-7 2.6977359513507956e-9 1.1710076204035662e-8 8.318714062328817e-9
          4.927351920621971e-9 1.3812887248880878e-8 1.0494067909633692e-10 1.097402644243604e-10 1.0419726069020294e-10 2.187411296324427e-10
          9.817342242648126e-12 1.093444159100065e-11 1.1150844425703921e-11 1.88613946589123e-11 6.672725211761054e-9 3.098025330657531e-8
          2.016506144027662e-8 9.34986957397792e-9 7.180070646076816e-8 1.4150453733249641e-8 1.348067739596635e-8 3.3632382708001306e-8
          1.1433103491345694e-7 1.892341969386957e-8 7.577083133407163e-8 6.578268838610482e-8 1.1932476136860055e-7 8.297007937579691e-9
          2.5776614615620654e-7 1.7286683435109628e-7 8.010297243658185e-9 7.702666720909729e-9 2.93627302400595e-9 2.83265869820819e-9
          2.7290443724104297e-9 3.9972969329646334e-8 1.2866280847416876e-8 5.005216841086225e-10 5.094777462278662e-10 3.757659322690105e-11
          4.062993877971096e-11 5.5033683385475177e-11 5.1843380834711e-10 6.94374279912394e-11 8.977629905360466e-8 1.5002941849010126e-7
          1.3802007852780823e-7 1.2601073856551523e-7 1.4284282773513832e-7 1.2840139947687262e-7 1.1395997121860687e-7 1.772810059737794e-7
          2.006978773345712e-7 1.5911856032701362e-7 2.2411474869536297e-7 1.864792082782411e-7 2.2416586601519642e-7 1.4778299349342297e-7
          2.6185252375215173e-7 4.4786419743829215e-8 4.9963190500002764e-8 1.370319169359051e-7 1.221245301767346e-7 5.513996125617631e-8
          1.0721714341756402e-7
        </DataArray>
        <DataArray type="Float64" Name="gradient_matprop_error" format="ascii" RangeMin="0" RangeMax="0">
          0 0 0 0 0 0
          0 0 0 0 0 0
          0 0 0 0 0 0
          0 0 0 0 0 0
          0 0 0 0 0 0
          0 0 0 0 0 0
          0 0 0 0 0 0
          0 0 0 0 0 0
          0 0 0 0 0 0
          0 0 0 0 0 0
          0 0 0 0 0 0
          0 0 0 0 0 0
          0 0 0 0 0 0
          0 0 0 0 0 0
          0 0 0 0 0 0
          0 0 0 0 0 0
          0 0 0 0 0 0
          0 0 0 0 0 0
          0 0 0 0 0 0
          0 0 0 0 0 0
          0 0 0 0 0 0
          0 0 0 0 0 0
          0 0 0 0 0 0
          0 0 0 0 0 0
          0 0 0 0 0 0
          0 0 0 0 0 0
          0 0 0 0 0 0
          0 0 0 0 0 0
          0 0 0 0 0 0
          0 0 0 0 0 0
          0 0 0 0 0 0
          0 0 0 0 0 0
          0 0 0 0 0 0
          0 0 0 0 0 0
          0 0 0 0 0 0
          0 0 0 0 0 0
          0 0 0 0 0 0
          0 0 0 0 0 0
          0 0 0 0 0 0
          0 0 0 0 0 0
          0 0 0 0 0 0
          0 0 0 0 0 0
          0 0 0 0 0 0
          0 0 0 0 0 0
          0 0 0 0 0 0
          0 0 0 0 0 0
          0 0 0 0 0 0
          0 0 0 0 0 0
          0 0 0 0 0 0
          0 0 0 0 0 0
          0 0 0 0 0 0
          0 0 0 0 0 0
          0 0 0 0 0 0
          0 0 0 0 0 0
          0 0 0 0 0 0
          0 0 0 0 0 0
          0 0 0 0 0 0
          0 0 0 0 0 0
          0 0 0 0 0 0
          0 0 0 0 0 0
          0 0 0 0 0 0
          0 0 0 0 0 0
          0 0 0 0 0 0
          0 0 0 0 0 0
          0 0 0 0 0 0
          0 0 0 0 0 0
          0 0 0 0 0 0
          0 0 0 0 0 0
          0 0 0 0 0 0
          0 0 0 0 0 0
          0 0 0 0 0 0
          0 0 0 0 0 0
          0 0 0 0 0 0
          0 0 0 0 0 0
          0 0 0 0 0 0
          0 0 0 0 0 0
          0 0 0 0 0 0
          0 0 0 0 0 0
          0
        </DataArray>
        <DataArray type="Float64" Name="initial_marker" format="ascii" RangeMin="0" RangeMax="2">
          0 0 0 0 0 0
          0 0 0 0 0 0
          0 0 0 0 0 0
          0 0 0 0 0 0
          0 0 0 0 0 0
          0 0 0 0 0 0
          0 0 0 0 0 0
          0 0 0 0 0 0
          0 0 0 0 0 0
          0 0 0 0 0 0
          0 0 0 0 0 0
          0 0 0 0 0 0
          0 0 0 0 0 0
          0 0 0 0 0 0
          0 0 0 0 0 0
          0 0 0 0 0 0
          0 0 0 0 0 0
          0 0 0 0 0 0
          0 0 0 0 0 0
          0 0 0 0 0 0
          0 0 0 0 0 0
          0 0 0 0 0 0
          0 0 1 0 0 0
          2 1 0 0 0 0
          0 0 0 0 0 0
          0 0 0 0 0 0
          0 0 0 0 0 0
          0 0 0 0 0 0
          0 0 0 0 0 0
          0 0 0 0 0 0
          0 0 0 0 0 0
          0 0 0 0.5 0.25 1.5
          1.25 0.5 2 1.5 0 0.5
          0.5 2 2 2 1 1
          0.75 2 1.75 0.3333333333333333 0.75 2
          2 1 0 0 0 0
          0 0 0 0 0 0
          0 0 0 0 0 0
          0 0 0 0 0 0
          0 0 0 0 0 0
          0 0 0 0 0 0
          0 0 0 0 0 0
          0 0 0 0 0 0
          0 0 0 0 0 0
          0 0 0 0 0 0
          0 0 0 0 0 0
          0 0 0 0 0 0
          0 0 0 0 0 0
          0 0 0 0 0 0
          0 0 0 0 0 0
          0 0 0 0 0 0
          0 0 0 0 0 0
          0 0 0 0 0 0
          0 0 0 0 0 0
          0 0 0 0 0 0
          0 0 0 0 0 0
          0 0 0 0 0 0
          0 0.5 0 0 0 0
          0 0 0 0 0 0
          0 0 0 0 0 0
          0 0 0 0 0 0
          0 0 0 0 0 0
          0 0 0 0 0 0
          0 0 0 0 0 0
          0 0 0 0 0 0
          0 1 1 0.5 2 2
          1 1 1 2 2 1
          2 2 1 0 0 0
          0 0 0 0 0 0
          0 0 0 0 0 0
          0 0 0 0 0 0
          0 0 0 0 0 0
          0 0 0 0 0 0
          0 0 0 0 0 0
          0 0 0 0 0 0
          0 0 0 0 0 0
          0 0 0 0 0 0
          0 0 0 0 0 0
          0
        </DataArray>
        <DataArray type="Float64" Name="markers_norefine" format="ascii" RangeMin="0" RangeMax="0">
          0 0 0 0 0 0
          0 0 0 0 0 0
          0 0 0 0 0 0
          0 0 0 0 0 0
          0 0 0 0 0 0
          0 0 0 0 0 0
          0 0 0 0 0 0
          0 0 0 0 0 0
          0 0 0 0 0 0
          0 0 0 0 0 0
          0 0 0 0 0 0
          0 0 0 0 0 0
          0 0 0 0 0 0
          0 0 0 0 0 0
          0 0 0 0 0 0
          0 0 0 0 0 0
          0 0 0 0 0 0
          0 0 0 0 0 0
          0 0 0 0 0 0
          0 0 0 0 0 0
          0 0 0 0 0 0
          0 0 0 0 0 0
          0 0 0 0 0 0
          0 0 0 0 0 0
          0 0 0 0 0 0
          0 0 0 0 0 0
          0 0 0 0 0 0
          0 0 0 0 0 0
          0 0 0 0 0 0
          0 0 0 0 0 0
          0 0 0 0 0 0
          0 0 0 0 0 0
          0 0 0 0 0 0
          0 0 0 0 0 0
          0 0 0 0 0 0
          0 0 0 0 0 0
          0 0 0 0 0 0
          0 0 0 0 0 0
          0 0 0 0 0 0
          0 0 0 0 0 0
          0 0 0 0 0 0
          0 0 0 0 0 0
          0 0 0 0 0 0
          0 0 0 0 0 0
          0 0 0 0 0 0
          0 0 0 0 0 0
          0 0 0 0 0 0
          0 0 0 0 0 0
          0 0 0 0 0 0
          0 0 0 0 0 0
          0 0 0 0 0 0
          0 0 0 0 0 0
          0 0 0 0 0 0
          0 0 0 0 0 0
          0 0 0 0 0 0
          0 0 0 0 0 0
          0 0 0 0 0 0
          0 0 0 0 0 0
          0 0 0 0 0 0
          0 0 0 0 0 0
          0 0 0 0 0 0
          0 0 0 0 0 0
          0 0 0 0 0 0
          0 0 0 0 0 0
          0 0 0 0 0 0
          0 0 0 0 0 0
          0 0 0 0 0 0
          0 0 0 0 0 0
          0 0 0 0 0 0
          0 0 0 0 0 0
          0 0 0 0 0 0
          0 0 0 0 0 0
          0 0 0 0 0 0
          0 0 0 0 0 0
          0 0 0 0 0 0
          0 0 0 0 0 0
          0 0 0 0 0 0
          0 0 0 0 0 0
          0
        </DataArray>
        <DataArray type="Float64" Name="markers_mustrefine" format="ascii" RangeMin="0" RangeMax="2">
          0 0 0 0 0 0
          0 0 0 0 0 0
          0 0 0 0 0 0
          0 0 0 0 0 0
          0 0 0 0 0 0
          0 0 0 0 0 0
          0 0 0 0 0 0
          0 0 0 0 0 0
          0 0 0 0 0 0
          0 0 0 0 0 0
          0 0 0 0 0 0
          0 0 0 0 0 0
          0 0 0 0 0 0
          0 0 0 0 0 0
          0 0 0 0 0 0
          0 0 0 0 0 0
          0 0 0 0 0 0
          0 0 0 0 0 0
          0 0 0 0 0 0
          0 0 0 0 0 0
          0 0 0 0 0 0
          0 0 0 0 0 0
          0 0 1 0 0 0
          2 1 0 0 0 0
          0 0 0 0 0 0
          0 0 0 0 0 0
          0 0 0 0 0 0
          0 0 0 0 0 0
          0 0 0 0 0 0
          0 0 0 0 0 0
          0 0 0 0 0 0
          0 0 0 0.5 0.25 1.5
          1.25 0.5 2 1.5 0 0.5
          0.5 2 2 2 1 1
          0.75 2 1.75 0.3333333333333333 0.75 2
          2 1 0 0 0 0
          0 0 0 0 0 0
          0 0 0 0 0 0
          0 0 0 0 0 0
          0 0 0 0 0 0
          0 0 0 0 0 0
          0 0 0 0 0 0
          0 0 0 0 0 0
          0 0 0 0 0 0
          0 0 0 0 0 0
          0 0 0 0 0 0
          0 0 0 0 0 0
          0 0 0 0 0 0
          0 0 0 0 0 0
          0 0 0 0 0 0
          0 0 0 0 0 0
          0 0 0 0 0 0
          0 0 0 0 0 0
          0 0 0 0 0 0
          0 0 0 0 0 0
          0 0 0 0 0 0
          0 0 0 0 0 0
          0 0.5 0 0 0 0
          0 0 0 0 0 0
          0 0 0 0 0 0
          0 0 0 0 0 0
          0 0 0 0 0 0
          0 0 0 0 0 0
          0 0 0 0 0 0
          0 0 0 0 0 0
          0 1 1 0.5 2 2
          1 1 1 2 2 1
          2 2 1 0 0 0
          0 0 0 0 0 0
          0 0 0 0 0 0
          0 0 0 0 0 0
          0 0 0 0 0 0
          0 0 0 0 0 0
          0 0 0 0 0 0
          0 0 0 0 0 0
          0 0 0 0 0 0
          0 0 0 0 0 0
          0 0 0 0 0 0
          0
        </DataArray>
        <DataArray type="Float64" Name="gradient_marker" format="ascii" RangeMin="0" RangeMax="1">
          1 1 1 1 1 1
          1 1 1 1 1 1
          1 1 1 1 1 1
          1 1 1 1 1 1
          1 1 1 1 1 1
          1 1 1 1 1 1
          1 1 1 1 1 1
          1 1 1 1 1 1
          1 1 1 1 1 1
          1 1 1 1 1 1
          1 1 1 1 1 1
          1 1 1 1 1 1
          1 1 1 1 1 1
          1 1 1 1 1 1
          1 1 1 1 1 1
          1 1 1 1 1 1
          1 1 1 1 1 1
          1 1 1 1 1 1
          1 1 1 1 1 1
          1 1 1 1 1 1
          1 1 1 1 1 0.5
          1 1 1 1 1 1
          1 1 1 1 1 1
          1 1 1 1 1 1
          1 1 1 1 1 1
          1 1 1 1 1 1
          1 1 1 1 1 1
          1 1 1 1 1 1
          1 1 1 1 1 1
          1 1 1 1 1 1
          1 1 1 1 1 1
          1 1 1 1 1 1
          1 1 1 1 1 1
          1 1 1 1 1 1
          1 1 1 1 1 1
          1 1 1 1 1 1
          1 1 1 1 1 1
          1 1 1 1 1 1
          1 1 1 1 1 1
          1 1 1 1 1 1
          1 1 1 1 1 1
          1 1 1 1 1 1
          1 1 1 1 1 1
          1 1 1 1 1 1
          1 1 1 1 1 1
          1 1 1 1 1 1
          1 1 1 1 0.5 0.5
          0.75 0.75 0 0.5 0.75 1
          1 1 1 1 1 1
          1 1 1 1 1 1
          1 1 1 1 1 1
          1 1 1 1 1 1
          1 1 1 1 1 1
          1 1 1 1 1 1
          1 1 1 1 1 1
          1 1 1 1 1 1
          1 0.875 1 1 1 1
          0.75 1 1 1 1 1
          1 1 1 1 1 1
          1 1 1 1 1 1
          1 1 1 1 1 1
          1 1 1 1 1 1
          1 1 0.875 1 1 1
          1 1 1 0.75 1 1
          0.625 1 1 1 1 1
          1 1 1 1 1 1
          1 1 1 1 1 1
          1 1 1 1 1 1
          1 1 1 1 1 1
          1 1 1 1 1 1
          1 1 1 1 1 0.5
          0.75 0.5 0.75 1 1 1
          1 1 1 1 1 1
          1 0.75 0.625 1 1 1
          1 1 1 1 1 1
          1 1 0.5 0.5 0.5 1
          1 1 1 1 1 1
          1 0 0 0.5 0.5 0
          0.5
        </DataArray>
        <DataArray type="Float64" Name="gradient_matprop_marker" format="ascii" RangeMin="0" RangeMax="0">
          0 0 0 0 0 0
          0 0 0 0 0 0
          0 0 0 0 0 0
          0 0 0 0 0 0
          0 0 0 0 0 0
          0 0 0 0 0 0
          0 0 0 0 0 0
          0 0 0 0 0 0
          0 0 0 0 0 0
          0 0 0 0 0 0
          0 0 0 0 0 0
          0 0 0 0 0 0
          0 0 0 0 0 0
          0 0 0 0 0 0
          0 0 0 0 0 0
          0 0 0 0 0 0
          0 0 0 0 0 0
          0 0 0 0 0 0
          0 0 0 0 0 0
          0 0 0 0 0 0
          0 0 0 0 0 0
          0 0 0 0 0 0
          0 0 0 0 0 0
          0 0 0 0 0 0
          0 0 0 0 0 0
          0 0 0 0 0 0
          0 0 0 0 0 0
          0 0 0 0 0 0
          0 0 0 0 0 0
          0 0 0 0 0 0
          0 0 0 0 0 0
          0 0 0 0 0 0
          0 0 0 0 0 0
          0 0 0 0 0 0
          0 0 0 0 0 0
          0 0 0 0 0 0
          0 0 0 0 0 0
          0 0 0 0 0 0
          0 0 0 0 0 0
          0 0 0 0 0 0
          0 0 0 0 0 0
          0 0 0 0 0 0
          0 0 0 0 0 0
          0 0 0 0 0 0
          0 0 0 0 0 0
          0 0 0 0 0 0
          0 0 0 0 0 0
          0 0 0 0 0 0
          0 0 0 0 0 0
          0 0 0 0 0 0
          0 0 0 0 0 0
          0 0 0 0 0 0
          0 0 0 0 0 0
          0 0 0 0 0 0
          0 0 0 0 0 0
          0 0 0 0 0 0
          0 0 0 0 0 0
          0 0 0 0 0 0
          0 0 0 0 0 0
          0 0 0 0 0 0
          0 0 0 0 0 0
          0 0 0 0 0 0
          0 0 0 0 0 0
          0 0 0 0 0 0
          0 0 0 0 0 0
          0 0 0 0 0 0
          0 0 0 0 0 0
          0 0 0 0 0 0
          0 0 0 0 0 0
          0 0 0 0 0 0
          0 0 0 0 0 0
          0 0 0 0 0 0
          0 0 0 0 0 0
          0 0 0 0 0 0
          0 0 0 0 0 0
          0 0 0 0 0 0
          0 0 0 0 0 0
          0 0 0 0 0 0
          0
        </DataArray>
        <DataArray type="Float64" Name="combo" format="ascii" RangeMin="0" RangeMax="1">
          1 1 1 1 1 1
          1 1 1 1 1 1
          1 1 1 1 1 1
          1 1 1 1 1 1
          1 1 1 1 1 1
          1 1 1 1 1 1
          1 1 1 1 1 1
          1 1 1 1 1 1
          1 1 1 1 1 1
          1 1 1 1 1 1
          1 1 1 1 1 1
          1 1 1 1 1 1
          1 1 1 1 1 1
          1 1 1 1 1 1
          1 1 1 1 1 1
          1 1 1 1 1 1
          1 1 1 1 1 1
          1 1 1 1 1 1
          1 1 1 1 1 1
          1 1 1 1 1 1
          1 1 1 1 1 0.5
          1 1 1 1 1 1
          1 1 1 1 1 1
          1 1 1 1 1 1
          1 1 1 1 1 1
          1 1 1 1 1 1
          1 1 1 1 1 1
          1 1 1 1 1 1
          1 1 1 1 1 1
          1 1 1 1 1 1
          1 1 1 1 1 1
          1 1 1 1 1 1
          1 1 1 1 1 1
          1 1 1 1 1 1
          1 1 1 1 1 1
          1 1 1 1 1 1
          1 1 1 1 1 1
          1 1 1 1 1 1
          1 1 1 1 1 1
          1 1 1 1 1 1
          1 1 1 1 1 1
          1 1 1 1 1 1
          1 1 1 1 1 1
          1 1 1 1 1 1
          1 1 1 1 1 1
          1 1 1 1 1 1
          1 1 1 1 0.5 0.5
          0.75 0.75 0 0.5 0.75 1
          1 1 1 1 1 1
          1 1 1 1 1 1
          1 1 1 1 1 1
          1 1 1 1 1 1
          1 1 1 1 1 1
          1 1 1 1 1 1
          1 1 1 1 1 1
          1 1 1 1 1 1
          1 0.875 1 1 1 1
          0.75 1 1 1 1 1
          1 1 1 1 1 1
          1 1 1 1 1 1
          1 1 1 1 1 1
          1 1 1 1 1 1
          1 1 0.875 1 1 1
          1 1 1 0.75 1 1
          0.625 1 1 1 1 1
          1 1 1 1 1 1
          1 1 1 1 1 1
          1 1 1 1 1 1
          1 1 1 1 1 1
          1 1 1 1 1 1
          1 1 1 1 1 0.5
          0.75 0.5 0.75 1 1 1
          1 1 1 1 1 1
          1 0.75 0.625 1 1 1
          1 1 1 1 1 1
          1 1 0.5 0.5 0.5 1
          1 1 1 1 1 1
          1 0 0 0.5 0.5 0
          0.5
        </DataArray>
        <DataArray type="Float64" Name="dHdT" format="ascii" RangeMin="25.801330069616217" RangeMax="38.20739614417505">
          25.81144991559288 25.81145029642069 25.811450222205096 25.811449759958336 25.811450629668997 25.811450660198496
          25.81144939178151 25.811449331848305 25.811450723470635 25.81145071608684 25.811449245225994 25.811449246058523
          25.811450722337845 25.8114507185321 25.811449231654954 25.811449234778973 25.811450715074457 25.811450714280813
          25.81144923597371 25.811449237161824 25.81145071356247 25.811450713341152 25.81144923710299 25.811449237849352
          25.81145067724851 25.81144929771158 25.811450690727987 25.811449271915098 25.811450708703042 25.81144924689105