<?xml version="1.0"?>
<VTKFile type="UnstructuredGrid" version="0.1" byte_order="LittleEndian" header_type="UInt32" compressor="vtkZLibDataCompressor">
  <UnstructuredGrid>
    <Piece NumberOfPoints="474" NumberOfCells="261">
      <PointData>
        <DataArray type="Int32" Name="libmesh_node_id" format="ascii" RangeMin="285" RangeMax="3849">
          285 287 288 296 392 393
          394 397 402 403 404 409
          550 551 552 555 556 557
          558 559 564 568 569 574
          576 813 814 815 818 821
          855 856 859 861 863 864
          865 866 867 868 869 870
          871 872 874 875 876 911
          915 1157 1158 1159 1160 1161
          1162 1163 1164 1165 1166 1488
          1489 1490 1491 1496 1497 1498
          1499 1500 1501 1502 1503 1504
          1505 1508 1509 1510 1511 1512
          1514 1516 1517 1518 1519 1520
          1521 1522 1523 1524 1525 1526
          1527 1528 1529 1533 1534 1554
          1555 1558 1559 1561 1595 1597
          1601 1603 1710 1711 1712 1714
          1715 1718 1719 1890 1891 1892
          1893 1894 1895 1896 1897 1898
          1899 1900 1901 1902 1903 1928
          1929 1930 1931 1932 1933 1934
          1935 1936 1937 1938 1939 1940
          1941 1942 1943 1944 1945 1946
          1947 1948 1949 1950 1951 1954
          1955 1960 1973 1977 2017 2018
          2019 2020 2021 2022 2023 2024
          2025 2026 2027 2028 2706 2707
          2708 2709 2710 2711 2712 2713
          2714 2715 2716 2717 2718 2719
          2720 2721 2722 2723 2724 2725
          2726 2727 2728 2729 2730 2731
          2732 2733 2734 2735 2736 2737
          2738 2739 2740 2741 2742 2743
          2744 2745 2746 2747 2748 2749
          2750 2751 2752 2753 2754 2755
          2756 2757 2758 2759 2760 2761
          2762 2763 2764 2765 2766 2767
          2768 2769 2770 2771 2772 2773
          2774 2775 2776 2777 2778 2779
          2780 2781 2782 2783 2784 2785
          2786 2787 2788 2789 2790 2791
          2792 2793 2794 2795 2796 2797
          2798 2799 2800 2801 2802 2803
          2804 2805 2806 2807 2808 2809
          2810 2811 2812 2813 2814 2829
          2830 2831 2832 2833 2834 2835
          2836 2837 2838 2849 2850 2853
          2855 2856 2858 2869 2871 2873
          2875 2958 2959 2960 2961 2962
          2963 2964 2965 2966 2967 2968
          2969 2970 2971 2972 2973 2974
          2985 2986 2987 2988 2989 2990
          2991 2992 2993 2994 3073 3074
          3076 3077 3078 3079 3115 3116
          3117 3118 3120 3122 3124 3125
          3126 3127 3128 3130 3132 3134
          3135 3136 3138 3140 3145 3146
          3148 3150 3836 3837 3838 3840
          3841 3842 3843 3844 3845 3846
          410 577 415 583 873 912
          916 913 914 917 918 920
          1506 1507 1494 1577 1585 1588
          1579 892 1593 1605 1599 1607
          895 405 1716 1604 1717 1720
          1721 1713 1723 1722 1563 1979
          2851 2852 2854 1536 2857 1537
          2870 2872 2874 1539 3056 3063
          3064 3057 3065 3066 3067 3058
          3068 3072 3080 3075 1587 3081
          3082 1589 3119 3121 3123 1602
          3129 3131 3133 3104 3110 3111
          3139 3141 3114 3142 3137 894
          3143 3144 1606 3149 3151 3152
          3147 3153 3154 896 3331 3332
          3333 3334 3335 3336 3351 3352
          3353 3354 3340 3355 3357 3467
          3468 3469 3470 3471 3481 3482
          3483 3484 3847 3839 3848 3849
        </DataArray>
        <DataArray type="Float64" Name="bounds" format="ascii" RangeMin="0" RangeMax="0">
          0 0 0 0 0 0
          0 0 0 0 0 0
          0 0 0 0 0 0
          0 0 0 0 0 0
          0 0 0 0 0 0
          0 0 0 0 0 0
          0 0 0 0 0 0
          0 0 0 0 0 0
          0 0 0 0 0 0
          0 0 0 0 0 0
          0 0 0 0 0 0
          0 0 0 0 0 0
          0 0 0 0 0 0
          0 0 0 0 0 0
          0 0 0 0 0 0
          0 0 0 0 0 0
          0 0 0 0 0 0
          0 0 0 0 0 0
          0 0 0 0 0 0
          0 0 0 0 0 0
          0 0 0 0 0 0
          0 0 0 0 0 0
          0 0 0 0 0 0
          0 0 0 0 0 0
          0 0 0 0 0 0
          0 0 0 0 0 0
          0 0 0 0 0 0
          0 0 0 0 0 0
          0 0 0 0 0 0
          0 0 0 0 0 0
          0 0 0 0 0 0
          0 0 0 0 0 0
          0 0 0 0 0 0
          0 0 0 0 0 0
          0 0 0 0 0 0
          0 0 0 0 0 0
          0 0 0 0 0 0
          0 0 0 0 0 0
          0 0 0 0 0 0
          0 0 0 0 0 0
          0 0 0 0 0 0
          0 0 0 0 0 0
          0 0 0 0 0 0
          0 0 0 0 0 0
          0 0 0 0 0 0
          0 0 0 0 0 0
          0 0 0 0 0 0
          0 0 0 0 0 0
          0 0 0 0 0 0
          0 0 0 0 0 0
          0 0 0 0 0 0
          0 0 0 0 0 0
          0 0 0 0 0 0
          0 0 0 0 0 0
          0 0 0 0 0 0
          0 0 0 0 0 0
          0 0 0 0 0 0
          0 0 0 0 0 0
          0 0 0 0 0 0
          0 0 0 0 0 0
          0 0 0 0 0 0
          0 0 0 0 0 0
          0 0 0 0 0 0
          0 0 0 0 0 0
          0 0 0 0 0 0
          0 0 0 0 0 0
          0 0 0 0 0 0
          0 0 0 0 0 0
          0 0 0 0 0 0
          0 0 0 0 0 0
          0 0 0 0 0 0
          0 0 0 0 0 0
          0 0 0 0 0 0
          0 0 0 0 0 0
          0 0 0 0 0 0
          0 0 0 0 0 0
          0 0 0 0 0 0
          0 0 0 0 0 0
          0 0 0 0 0 0
        </DataArray>
        <DataArray type="Float64" Name="gradient_error" format="ascii" RangeMin="6.411069796719844e-11" RangeMax="3.1525419756099823e-7">
          1.281936589824322e-9 9.167353946574271e-9 2.9960801411028295e-8 8.556143548852217e-9 3.2589156669321946e-8 3.1525419756099823e-7
          1.0951643712307297e-7 3.3656156703731355e-8 3.8689072143403345e-10 8.220348210019971e-10 7.600961071862421e-9 1.2187104401677087e-9
          1.2492366242388165e-9 3.824357506636219e-9 3.692501392294572e-9 3.5995635225630806e-9 2.3981810849853413e-10 3.389119499735327e-10
          1.6219863270888474e-10 5.315862397381406e-10 9.114014235577333e-10 4.664554164856551e-9 5.326617180571858e-9 5.988680196287167e-9
          1.149369798163824e-9 9.216411101789928e-9 1.9855391998993489e-7 1.468487893965087e-7 6.750835783067228e-8 2.0797411693353852e-7
          4.70289064386063e-8 8.821925728995424e-8 1.0138065002768223e-8 1.1208480776075916e-7 2.7889688038130654e-9 2.7561968852403482e-9
          8.865504560876846e-8 6.276610754607835e-8 2.473944527856172e-10 6.978502728260353e-10 4.217144961654499e-10 3.815469851782276e-9
          2.243991072513503e-8 8.223836286156534e-10 1.1069652319885978e-7 2.6280869336992517e-9 3.690580585197967e-8 1.5664398266912607e-8
          5.869543638125582e-9 6.16129377306108e-9 9.27029972529071e-9 6.3028435647294935e-9 3.964564128055526e-9 5.483188359588915e-9
          1.0177835483148375e-9 9.32687018776202e-10 2.124398717296158e-9 3.992897220966637e-9 9.869474472806413e-10 1.0988310806454181e-8
          3.2907018011350146e-8 2.7948527473478092e-8 1.8084277588014372e-8 7.232180266261152e-9 6.039536759061745e-9 1.7910857822297555e-8
          1.5152376916071453e-8 6.080992716752591e-10 1.458435932979325e-9 1.1622773200701827e-9 3.862630128882458e-9 9.72318900975339e-9
          6.224572319114504e-10 5.7724685653808924e-9 2.9488747181656597e-8 3.896731843154306e-9 1.0178323594538096e-8 4.223547858917435e-9
          3.125745285414765e-8 2.3454736387434505e-9 5.555615391937409e-9 4.930579428019575e-10 4.769885319264281e-10 1.4850884876319848e-9
          2.5782146395045125e-9 5.930194474377796e-10 1.2833911797143235e-8 8.634766218824158e-10 4.9513467355355505e-9 2.652336261879072e-10
          2.276538818497433e-10 6.697910702739532e-10 5.163129724935468e-10 1.932636068643307e-10 2.854281870435742e-10 1.950797703323262e-10
          2.4749024767868684e-10 1.7719470192509243e-10 2.567837765220547e-10 4.01225398531938e-10 6.579663353690738e-8 2.431859968481809e-8
          3.07056713574869e-8 9.37815594323073e-9 2.6191262668664905e-9 5.591657306567118e-9 3.978180363351514e-9 1.9540841033471065e-9
          3.511442195730298e-9 1.2176916403474436e-9 2.609597380452627e-9 3.1724369942996045e-10 9.068774423559942e-10 6.949926406463141e-10
          4.831078389366342e-10 2.5779046994623137e-10 2.0974573911171186e-10 7.673296460022297e-10 5.550192371662421e-10 7.41515801288984e-11
          3.5291184153493144e-10 2.437781616790475e-10 1.6170100827719237e-10 3.427088283302545e-10 1.346444818231635e-10 5.035180672240578e-10
          1.3398628194987185e-9 1.072214842980895e-9 7.189892986278213e-10 4.61511970796831e-10 3.4276173301104214e-10 1.1025755883899419e-9
          9.08861320853656e-10 1.1719977632674158e-10 5.894058744139138e-10 5.128821462314512e-10 2.475039496680184e-10 6.218905459788511e-10
          3.660432921776882e-10 4.733427851287451e-10 6.21534555772702e-10 6.09657380752833e-10 3.1197673917035175e-10 5.035977417802366e-10
          1.0552898104850076e-10 2.621305688338433e-10 3.5295707422991996e-10 4.785614449201406e-10 2.2853297136129884e-10 2.190588056550164e-10
          1.949830738959164e-10 1.4109245957990027e-10 9.427522657402649e-11 7.727287612506884e-11 8.178171253727219e-10 1.0330713937093932e-9
          7.971760182374076e-10 6.229481783645644e-10 8.224266115542393e-10 2.8728207262346595e-10 4.2611243595659134e-10 4.660076440041527e-10
          5.736027578653212e-10 2.4621367494976755e-10 1.0627663936618394e-10 1.6602229141093655e-10 1.0047601988561633e-9 1.3210420289760542e-9
          1.2454210468505383e-9 1.08808494261884e-9 2.7390616226344694e-9 7.683299881676622e-10 7.26765314641115e-10 1.051872015052363e-9
          9.946418184798642e-10 3.5234841287613416e-10 6.289211111278189e-10 5.972600469610922e-10 6.325672999966961e-10 8.655116791520676e-10
          5.144381023108423e-10 2.324762652079464e-9 2.1903268465598725e-9 1.376809225768429e-9 1.8758588707394783e-9 7.204903825911469e-10
          9.082120185219038e-10 7.179011073560588e-10 1.8740839617973196e-9 5.213161668769599e-10 7.110465456972014e-10 2.5117245409563325e-10
          4.0790579643275155e-10 4.061676178999307e-10 5.506568803044282e-10 3.0112876631584857e-10 1.475584873397346e-9 8.872670211518023e-10
          1.0638701876664228e-9 5.156048533105182e-9 4.849032370348211e-9 4.185918193250112e-9 1.1010453595325268e-8 4.565711381167305e-9
          4.290051045001095e-9 3.4263479541018568e-9 3.2092488226390726e-9 3.6409768593849995e-9 2.6447646378094043e-9 1.0296422244432047e-8
          9.55397073793859e-9 7.097865533569274e-9 7.873299919658344e-9 3.3085711592549415e-9 2.2968541330909754e-9 6.966854239284775e-9
          2.8029889481122305e-9 1.9398404842771126e-9 1.923081528086521e-9 1.2909890942302296e-9 5.877221091120879e-9 4.116486990126359e-9
          3.87216059999366e-9 4.174945177958382e-10 5.304257826649419e-10 4.351035671489163e-10 9.479221422918414e-10 3.0424916529252473e-10
          4.040436704397741e-10 1.4410637080725e-10 2.1241505383495832e-10 2.5886146966028303e-10 3.3525493526832417e-10 1.7510694607640345e-10
          7.314963873039125e-10 4.109788849362987e-10 5.490820604767974e-10 1.5424746160764977e-9 1.017007418579707e-9 2.9137478555358446e-9
          1.2589083573803255e-9 8.011435978302411e-10 8.044296853598816e-10 4.755308789271116e-10 2.385767229272973e-9 1.5464841274180583e-9
          1.412152335207792e-9 4.993178479338033e-10 6.2394359148237e-10 4.924354513772702e-10 9.913054156843002e-10 3.8190491738152104e-10
          4.844776378337807e-10 2.0213964397758753e-10 2.6997105171271305e-10 2.9775454459464005e-10 3.701644498247541e-10 1.914907368829323e-10
          7.82009136224173e-10 4.595022132932113e-10 5.862884349615919e-10 2.182916941496993e-10 2.0776182421966702e-10 3.911493595370151e-10
          3.7046531456058277e-10 1.2979237865950008e-10 2.528487572314935e-10 2.386664888079572e-10 1.804798694675314e-10 3.161336630360901e-10
          2.0206057523423196e-10 9.928544027006577e-10 9.326414404516137e-10 6.271224476316168e-10 7.754894670872059e-10 1.4647652193899188e-10
          2.4569968143086024e-10 9.231369780845929e-11 1.542522881269122e-10 1.1172087437958547e-10 1.757048056471955e-10 1.2106613067847246e-10
          5.780395090029309e-10 3.7770894248427853e-10 3.92883459121575e-10 2.4565814279624124e-9 2.2909123257209816e-9 1.8609363779439594e-9
          5.678315964412485e-9 5.2813367362152966e-9 4.235296613874702e-9 1.3326200163716713e-9 8.618910819261331e-10 2.9395098833151267e-9
          1.8114725954965708e-9 8.06598133962436e-11 1.1801229868883614e-10 6.411069796719844e-11 8.885604792236198e-11 6.710313726587194e-11
          9.352829245697197e-11 7.224899614886905e-11 2.489865871523025e-10 1.8301703354345168e-10 1.7466728777258746e-10 5.177102883236887e-10
          3.337755262784384e-10 2.9146455436956964e-10 2.1002799415178792e-10 1.0298465381985032e-9 6.812451998700564e-10 5.514025081343851e-10
          1.1537044433869237e-10 1.57725834088604e-10 9.095358755144851e-11 1.2052124893697306e-10 8.620866155057193e-11 1.1277147256815503e-10
          9.045491964268339e-11 2.814411838074384e-10 2.025261658023265e-10 1.8960928364892646e-10 1.2346636446608882e-8 8.204260012317955e-9
          1.0798192922661581e-8 8.107226787260254e-9 7.030832099504554e-9 5.032508179327464e-9 5.046083440848397e-9 2.9102931766442296e-9
          8.1280424063369e-9 4.206946897800025e-9 2.367477483915671e-9 6.914083074272704e-9 3.811058781304073e-9 1.487305486000688e-9
          1.1792465567259232e-9 2.2629906777203283e-9 1.2143942507731044e-9 9.029811204211227e-10 1.8777070456319003e-9 1.1346940474926377e-9
          1.217995216833081e-8 6.977007644868681e-9 1.0540395582206211e-8 5.770681827097328e-9 3.354690970777855e-9 1.7983257583469539e-9
          2.7970186972097067e-9 1.4132277042246248e-9 6.486660206261583e-10 7.733657255414512e-10 6.303386414803233e-10 5.330845642236721e-10
          6.28245508182398e-10 4.1750310782118585e-10 4.83125290823345e-10 4.2879937519813976e-10 4.912026810888157e-10 3.5206672069730816e-10
          1.905140613271419e-9 1.218838238817922e-9 2.0773317777978686e-9 1.2883066794720203e-9 1.8983489828072292e-7 3.4053721685388576e-8
          4.4534388661690015e-9 1.1101689690197023e-9 1.6295948307786662e-9 1.9705883987336752e-9 4.374285782163168e-8 3.029186180723954e-9
          6.16067744996153e-8 5.101137884223919e-8 1.223891588999981e-7 1.7855139978950486e-7 9.511529379911314e-8 8.199970531816278e-8
          1.6542126086791702e-7 1.949325312389781e-7 1.0233793502453252e-7 5.999234224989802e-8 1.2631497077056236e-7 1.585736555470206e-8
          6.16404850004259e-8 8.257041155064864e-10 8.913423364277586e-10 1.1656397751729327e-9 1.1471595973301502e-9 8.00133062773088e-10
          5.037205005099804e-9 8.653438015466036e-9 4.287247669379688e-9 1.0328578488873118e-9 3.7189622197919763e-10 3.469022175668115e-10
          1.7143916257179733e-9 1.5935011090218555e-9 1.2814246604065202e-9 4.099294674230013e-9 3.797217744663719e-9 3.008429650850096e-9
          9.030461348538292e-10 5.718281958325908e-10 2.0474377709758877e-9 1.2306898920192322e-9 2.0834268284406326e-8 1.867082197620071e-8
          1.739228604903166e-8 1.9229563874904762e-8 1.488180799371019e-8 1.3983691648715726e-8 1.4426608988535229e-8 1.598827863883442e-8
          1.1460957345279258e-8 2.474554045082233e-8 1.8573221296787895e-8 2.086004256726078e-8 2.048734045688862e-8 1.4517039559856946e-8
          1.1886779806271943e-8 8.891848848414093e-9 2.840007731178817e-9 1.5108788338933497e-9 4.867047974048574e-9 2.4958152462031305e-9
          7.660213293811578e-10 5.03398282361575e-10 1.2242893897972064e-9 2.089420194475349e-8 1.8517522375409417e-8 1.4291929989247908e-8
          7.697350129051946e-9 3.851705335706205e-9 2.6063334102291723e-8 1.483256961067212e-8 1.687239793984774e-8 2.102237026635789e-8
          1.1190215674307731e-8 8.085232309781823e-9 5.530630258857936e-9 1.8479793306562778e-9 9.888020106902444e-10 3.8259030120426474e-9
          4.526757484306217e-9 2.5960573938786846e-9 1.919879351831981e-9 1.3374465186655e-9 1.1723206340909838e-8 1.0946367864234976e-8
          8.79514777064846e-9 8.165108442258013e-9 8.79942080409177e-9 6.4585982417711075e-9 6.022602681435687e-9 4.31481604395246e-9
          3.5876264003477186e-9 2.4957576119955484e-9 1.626883016620125e-8 1.117889858440827e-8 6.54446782431041e-9 1.944320565516446e-9
          1.3127003641561824e-9 9.936963011757165e-10 6.509449518275228e-10 3.4210677785241788e-9 4.846640063897073e-10 3.088019494526536e-10
          3.112168830133876e-10 1.9710421780180046e-10 8.216787220688098e-10 1.0060935228017097e-9 5.692749653666522e-10 6.170371275784394e-10
        </DataArray>
        <DataArray type="Float64" Name="gradient_matprop_error" format="ascii" RangeMin="0" RangeMax="0">
          0 0 0 0 0 0
          0 0 0 0 0 0
          0 0 0 0 0 0
          0 0 0 0 0 0
          0 0 0 0 0 0
          0 0 0 0 0 0
          0 0 0 0 0 0
          0 0 0 0 0 0
          0 0 0 0 0 0
          0 0 0 0 0 0
          0 0 0 0 0 0
          0 0 0 0 0 0
          0 0 0 0 0 0
          0 0 0 0 0 0
          0 0 0 0 0 0
          0 0 0 0 0 0
          0 0 0 0 0 0
          0 0 0 0 0 0
          0 0 0 0 0 0
          0 0 0 0 0 0
          0 0 0 0 0 0
          0 0 0 0 0 0
          0 0 0 0 0 0
          0 0 0 0 0 0
          0 0 0 0 0 0
          0 0 0 0 0 0
          0 0 0 0 0 0
          0 0 0 0 0 0
          0 0 0 0 0 0
          0 0 0 0 0 0
          0 0 0 0 0 0
          0 0 0 0 0 0
          0 0 0 0 0 0
          0 0 0 0 0 0
          0 0 0 0 0 0
          0 0 0 0 0 0
          0 0 0 0 0 0
          0 0 0 0 0 0
          0 0 0 0 0 0
          0 0 0 0 0 0
          0 0 0 0 0 0
          0 0 0 0 0 0
          0 0 0 0 0 0
          0 0 0 0 0 0
          0 0 0 0 0 0
          0 0 0 0 0 0
          0 0 0 0 0 0
          0 0 0 0 0 0
          0 0 0 0 0 0
          0 0 0 0 0 0
          0 0 0 0 0 0
          0 0 0 0 0 0
          0 0 0 0 0 0
          0 0 0 0 0 0
          0 0 0 0 0 0
          0 0 0 0 0 0
          0 0 0 0 0 0
          0 0 0 0 0 0
          0 0 0 0 0 0
          0 0 0 0 0 0
          0 0 0 0 0 0
          0 0 0 0 0 0
          0 0 0 0 0 0
          0 0 0 0 0 0
          0 0 0 0 0 0
          0 0 0 0 0 0
          0 0 0 0 0 0
          0 0 0 0 0 0
          0 0 0 0 0 0
          0 0 0 0 0 0
          0 0 0 0 0 0
          0 0 0 0 0 0
          0 0 0 0 0 0
          0 0 0 0 0 0
          0 0 0 0 0 0
          0 0 0 0 0 0
          0 0 0 0 0 0
          0 0 0 0 0 0
          0 0 0 0 0 0
        </DataArray>
        <DataArray type="Float64" Name="initial_marker" format="ascii" RangeMin="0" RangeMax="2">
          0 0 0 0 0 2
          1.25 0 0 0 2 0
          0 0 0 0 0 0
          0 0 0 0 0 0
          0 0 1 1 0.6666666666666666 2
          0.3333333333333333 0.75 0 1 0 0
          1 1 0 1 0 0
          0.25 0 2 2 1.25 0.25
          0 0 0 0 0 0
          0 0 0 0 0 1
          2 2 2 1 1 2
          2 1 2 2 0.5 2
          2 2 2 0.5 1.5 0.5
          2 0.25 1 0 0.5 0
          0.25 0 2 2 0.5 1
          1 2 2 0 1.75 0
          0.5 0 0 1.75 2 1.6666666666666667
          2 1.25 0 0.5 0 0
          0.25 0 0 0 0 0
          0 0 0 0 0 0
          0 0 0 0 0 0
          0 0 0 0 0 0
          0 0 0 0 0 0
          0 0 0 0 0 0
          0 0 0 0 0 0
          0 0 0 0 0 0
          0 0 0 0 0 0
          0 0 0 0 2 2
          2 2 2 2 2 2
          2 2 2 2 2 2
          2 2 2 2 2 1
          1.5 1 2 1 1.5 1
          1.5 0 1 1 2 2
          2 2 2 2 2 2
          2 2 2 2 2 2
          2 2 2 2 2 2
          2 2 2 2 2 2
          2 0 0.5 0 1.5 0
          0.5 0 0.5 0 0 0
          1.5 1.5 0.6666666666666666 2 1.5 2
          2 2 1.5 1.5 2 2
          2 0 0.5 0 1 0
          0.5 0 0.5 0 0 0
          1 1 0 2 2 2
          2 2 2 2 2 2
          2 2 2 2 2 1
          1.5 1 1.5 0 1 1
          2 2 2 2 2 2
          2 2 2 2 2 2
          2 0 0.5 0 0.5 0
          0 0 1.5 1.6666666666666667 0.6666666666666666 2
          2 1.5 1.6666666666666667 2 2 2
          0 0.5 0 0.5 0 0
          0 1 1 0 2 2
          2 2 2 2 2 2
          2 2 2 2 2 1.5
          1 2 1.5 1 2 1.3333333333333333
          2 2 2 2 2 1.5
          2 1.5 0 0.5 0 0
          0.5 0 0.5 0 0 0
          0 0 0 0 2 0.5
          0 0 0 0 0.5 0
          2 2 2 2 2 2
          2 2 2 2 2 2
          2 0 0 1 0 0
          0.5 1 0 0 0 0
          2 2 2 2 2 2
          2 2 2 2 2 2
          2 2 2 2 2 2
          2 2 2 2 2 2
          2 2 2 2 2 2
          1.5 1 2 2 2 2
          2 2 2 2 2 2
          2 2 2 2 1.6666666666666667 2
          2 2 2 1.75 2 2
          2 2 2 2 2 2
          2 2 2 2 2 2
          2 2 2 2 1.5 1.5
          1 1 1 1 1 0
        </DataArray>
        <DataArray type="Float64" Name="markers_norefine" format="ascii" RangeMin="0" RangeMax="0">
          0 0 0 0 0 0
          0 0 0 0 0 0
          0 0 0 0 0 0
          0 0 0 0 0 0
          0 0 0 0 0 0
          0 0 0 0 0 0
          0 0 0 0 0 0
          0 0 0 0 0 0
          0 0 0 0 0 0
          0 0 0 0 0 0
          0 0 0 0 0 0
          0 0 0 0 0 0
          0 0 0 0 0 0
          0 0 0 0 0 0
          0 0 0 0 0 0
          0 0 0 0 0 0
          0 0 0 0 0 0
          0 0 0 0 0 0
          0 0 0 0 0 0
          0 0 0 0 0 0
          0 0 0 0 0 0
          0 0 0 0 0 0
          0 0 0 0 0 0
          0 0 0 0 0 0
          0 0 0 0 0 0
          0 0 0 0 0 0
          0 0 0 0 0 0
          0 0 0 0 0 0
          0 0 0 0 0 0
          0 0 0 0 0 0
          0 0 0 0 0 0
          0 0 0 0 0 0
          0 0 0 0 0 0
          0 0 0 0 0 0
          0 0 0 0 0 0
          0 0 0 0 0 0
          0 0 0 0 0 0
          0 0 0 0 0 0
          0 0 0 0 0 0
          0 0 0 0 0 0
          0 0 0 0 0 0
          0 0 0 0 0 0
          0 0 0 0 0 0
          0 0 0 0 0 0
          0 0 0 0 0 0
          0 0 0 0 0 0
          0 0 0 0 0 0
          0 0 0 0 0 0
          0 0 0 0 0 0
          0 0 0 0 0 0
          0 0 0 0 0 0
          0 0 0 0 0 0
          0 0 0 0 0 0
          0 0 0 0 0 0
          0 0 0 0 0 0
          0 0 0 0 0 0
          0 0 0 0 0 0
          0 0 0 0 0 0
          0 0 0 0 0 0
          0 0 0 0 0 0
          0 0 0 0 0 0
          0 0 0 0 0 0
          0 0 0 0 0 0
          0 0 0 0 0 0
          0 0 0 0 0 0
          0 0 0 0 0 0
          0 0 0 0 0 0
          0 0 0 0 0 0
          0 0 0 0 0 0
          0 0 0 0 0 0
          0 0 0 0 0 0
          0 0 0 0 0 0
          0 0 0 0 0 0
          0 0 0 0 0 0
          0 0 0 0 0 0
          0 0 0 0 0 0
          0 0 0 0 0 0
          0 0 0 0 0 0
          0 0 0 0 0 0
        </DataArray>
        <DataArray type="Float64" Name="markers_mustrefine" format="ascii" RangeMin="0" RangeMax="2">
          0 0 0 0 0 2
          1.25 0 0 0 2 0
          0 0 0 0 0 0
          0 0 0 0 0 0
          0 0 1 1 0.6666666666666666 2
          0.3333333333333333 0.75 0 1 0 0
          1 1 0 1 0 0
          0.25 0 2 2 1.25 0.25
          0 0 0 0 0 0
          0 0 0 0 0 1
          2 2 2 1 1 2
          2 1 2 2 0.5 2
          2 2 2 0.5 1.5 0.5
          2 0.25 1 0 0.5 0
          0.25 0 2 2 0.5 1
          1 2 2 0 1.75 0
          0.5 0 0 1.75 2 1.6666666666666667
          2 1.25 0 0.5 0 0
          0.25 0 0 0 0 0
          0 0 0 0 0 0
          0 0 0 0 0 0
          0 0 0 0 0 0
          0 0 0 0 0 0
          0 0 0 0 0 0
          0 0 0 0 0 0
          0 0 0 0 0 0
          0 0 0 0 0 0
          0 0 0 0 2 2
          2 2 2 2 2 2
          2 2 2 2 2 2
          2 2 2 2 2 1
          1.5 1 2 1 1.5 1
          1.5 0 1 1 2 2
          2 2 2 2 2 2
          2 2 2 2 2 2
          2 2 2 2 2 2
          2 2 2 2 2 2
          2 0 0.5 0 1.5 0
          0.5 0 0.5 0 0 0
          1.5 1.5 0.6666666666666666 2 1.5 2
          2 2 1.5 1.5 2 2
          2 0 0.5 0 1 0
          0.5 0 0.5 0 0 0
          1 1 0 2 2 2
          2 2 2 2 2 2
          2 2 2 2 2 1
          1.5 1 1.5 0 1 1
          2 2 2 2 2 2
          2 2 2 2 2 2
          2 0 0.5 0 0.5 0
          0 0 1.5 1.6666666666666667 0.6666666666666666 2
          2 1.5 1.6666666666666667 2 2 2
          0 0.5 0 0.5 0 0
          0 1 1 0 2 2
          2 2 2 2 2 2
          2 2 2 2 2 1.5
          1 2 1.5 1 2 1.3333333333333333
          2 2 2 2 2 1.5
          2 1.5 0 0.5 0 0
          0.5 0 0.5 0 0 0
          0 0 0 0 2 0.5
          0 0 0 0 0.5 0
          2 2 2 2 2 2
          2 2 2 2 2 2
          2 0 0 1 0 0
          0.5 1 0 0 0 0
          2 2 2 2 2 2
          2 2 2 2 2 2
          2 2 2 2 2 2
          2 2 2 2 2 2
          2 2 2 2 2 2
          1.5 1 2 2 2 2
          2 2 2 2 2 2
          2 2 2 2 1.6666666666666667 2
          2 2 2 1.75 2 2
          2 2 2 2 2 2
          2 2 2 2 2 2
          2 2 2 2 1.5 1.5
          1 1 1 1 1 0
        </DataArray>
        <DataArray type="Float64" Name="gradient_marker" format="ascii" RangeMin="0" RangeMax="1">
          1 0.25 0.875 0.5 0.5 1
          0.375 0.625 0.75 0.75 1 0.8333333333333334
          1 0.75 0.875 1 1 1
          0.75 0.875 1 1 1 1
          1 0 0.5 0.375 0.16666666666666666 0.625
          0.16666666666666666 0.375 0 0.5 0 0
          0.25 0.125 0.75 1 1 0
          0 0.875 0.25 1 0 0
          0 0 0 0 0 0
          0.5 0.625 0 0 0.5 0
          0 0 0 0.5 0.5 0.5
          0.5 1 1 1 0.5 0.5
          1 1 0.5 0 0 0
          0 0.5 0.5 1 1 0.5
          0.5 1 0.5 1 0.5 1
          1 1 1 1 1 1
          1 1 1 1 0.125 0
          0.5 0.5 0 0 0 0.5
          0.5 0.5 0.5 0 0 0
          0 0 0 0 0 0.5
          0.5 0.5 0 0 0.5 0
          0 0 0 0.5 0.5 0.5
          0.5 1 1 1 0.5 0.5
          1 0 0 0 0.5 0.5
          1 1 0.5 0.5 1 1
          1 1 1 1 0 0
          0 0.5 0.5 1 1 0.5
          0.5 1 1 1 1 1
          1 1 1 1 1 1
          1 1 1 1 1 1
          1 1 1 1 1 1
          1 1 1 1 1 1
          1 1 1 1 1 1
          1 1 1 1 1 1
          1 1 1 1 1 1
          1 1 1 1 1 1
          1 1 1 1 1 1
          1 1 1 1 1 1
          1 1 1 1 1 1
          1 1 1 1 1 1
          1 1 1 1 1 1
          1 1 1 1 1 1
          1 1 1 1 1 1
          1 1 1 1 1 1
          1 1 1 1 1 1
          1 1 1 1 1 1
          1 1 1 1 1 1
          1 1 1 1 1 1
          1 1 1 1 1 1
          1 1 1 1 1 1
          1 1 1 1 1 1
          1 1 1 1 1 1
          1 1 1 1 1 1
          1 1 1 1 1 1
          1 1 1 1 1 1
          1 1 1 1 1 1
          1 1 1 1 1 1
          1 1 1 1 1 1
          1 1 1 1 1 1
          1 1 1 1 1 1
          0.75 1 0.75 1 0.75 0.125
          0 0.75 0.75 0.5 0.25 0
          0.75 0.625 0.5 0.625 0.75 0.625
          0.5 0.625 0.75 0.625 0.375 0.5
          0.125 1 1 1 1 1
          0.5 0 0.5 1 1 1
          1 1 1 1 1 1
          1 1 1 1 1 1
          1 1 1 1 1 1
          1 1 1 1 1 1
          1 1 1 1 1 1
          1 1 1 1 1 1
          1 1 1 1 1 1
          1 1 1 1 1 1
          1 1 1 1 1 1
          1 1 1 1 1 1
          1 1 1 1 1 1
          1 1 1 1 1 1
          1 1 1 1 1 1
        </DataArray>
        <DataArray type="Float64" Name="gradient_matprop_marker" format="ascii" RangeMin="0" RangeMax="0">
          0 0 0 0 0 0
          0 0 0 0 0 0
          0 0 0 0 0 0
          0 0 0 0 0 0
          0 0 0 0 0 0
          0 0 0 0 0 0
          0 0 0 0 0 0
          0 0 0 0 0 0
          0 0 0 0 0 0
          0 0 0 0 0 0
          0 0 0 0 0 0
          0 0 0 0 0 0
          0 0 0 0 0 0
          0 0 0 0 0 0
          0 0 0 0 0 0
          0 0 0 0 0 0
          0 0 0 0 0 0
          0 0 0 0 0 0
          0 0 0 0 0 0
          0 0 0 0 0 0
          0 0 0 0 0 0
          0 0 0 0 0 0
          0 0 0 0 0 0
          0 0 0 0 0 0
          0 0 0 0 0 0
          0 0 0 0 0 0
          0 0 0 0 0 0
          0 0 0 0 0 0
          0 0 0 0 0 0
          0 0 0 0 0 0
          0 0 0 0 0 0
          0 0 0 0 0 0
          0 0 0 0 0 0
          0 0 0 0 0 0
          0 0 0 0 0 0
          0 0 0 0 0 0
          0 0 0 0 0 0
          0 0 0 0 0 0
          0 0 0 0 0 0
          0 0 0 0 0 0
          0 0 0 0 0 0
          0 0 0 0 0 0
          0 0 0 0 0 0
          0 0 0 0 0 0
          0 0 0 0 0 0
          0 0 0 0 0 0
          0 0 0 0 0 0
          0 0 0 0 0 0
          0 0 0 0 0 0
          0 0 0 0 0 0
          0 0 0 0 0 0
          0 0 0 0 0 0
          0 0 0 0 0 0
          0 0 0 0 0 0
          0 0 0 0 0 0
          0 0 0 0 0 0
          0 0 0 0 0 0
          0 0 0 0 0 0
          0 0 0 0 0 0
          0 0 0 0 0 0
          0 0 0 0 0 0
          0 0 0 0 0 0
          0 0 0 0 0 0
          0 0 0 0 0 0
          0 0 0 0 0 0
          0 0 0 0 0 0
          0 0 0 0 0 0
          0 0 0 0 0 0
          0 0 0 0 0 0
          0 0 0 0 0 0
          0 0 0 0 0 0
          0 0 0 0 0 0
          0 0 0 0 0 0
          0 0 0 0 0 0
          0 0 0 0 0 0
          0 0 0 0 0 0
          0 0 0 0 0 0
          0 0 0 0 0 0
          0 0 0 0 0 0
        </DataArray>
        <DataArray type="Float64" Name="combo" format="ascii" RangeMin="0" RangeMax="1">
          1 0.25 0.875 0.5 0.5 1
          0.375 0.625 0.75 0.75 1 0.8333333333333334
          1 0.75 0.875 1 1 1
          0.75 0.875 1 1 1 1
          1 0 0.5 0.375 0.16666666666666666 0.625
          0.16666666666666666 0.375 0 0.5 0 0
          0.25 0.125 0.75 1 1 0
          0 0.875 0.25 1 0 0
          0 0 0 0 0 0
          0.5 0.625 0 0 0.5 0
          0 0 0 0.5 0.5 0.5
          0.5 1 1 1 0.5 0.5
          1 1 0.5 0 0 0
          0 0.5 0.5 1 1 0.5
          0.5 1 0.5 1 0.5 1
          1 1 1 1 1 1
          1 1 1 1 0.125 0
          0.5 0.5 0 0 0 0.5
          0.5 0.5 0.5 0 0 0
          0 0 0 0 0 0.5
          0.5 0.5 0 0 0.5 0
          0 0 0 0.5 0.5 0.5
          0.5 1 1 1 0.5 0.5
          1 0 0 0 0.5 0.5
          1 1 0.5 0.5 1 1
          1 1 1 1 0 0
          0 0.5 0.5 1 1 0.5
          0.5 1 1 1 1 1
          1 1 1 1 1 1
          1 1 1 1 1 1
          1 1 1 1 1 1
          1 1 1 1 1 1
          1 1 1 1 1 1
          1 1 1 1 1 1
          1 1 1 1 1 1
          1 1 1 1 1 1
          1 1 1 1 1 1
          1 1 1 1 1 1
          1 1 1 1 1 1
          1 1 1 1 1 1
          1 1 1 1 1 1
          1 1 1 1 1 1
          1 1 1 1 1 1
          1 1 1 1 1 1
          1 1 1 1 1 1
          1 1 1 1 1 1
          1 1 1 1 1 1
          1 1 1 1 1 1
          1 1 1 1 1 1
          1 1 1 1 1 1
          1 1 1 1 1 1