<?xml version="1.0"?>
<VTKFile type="UnstructuredGrid" version="0.1" byte_order="LittleEndian" header_type="UInt32" compressor="vtkZLibDataCompressor">
  <UnstructuredGrid>
    <Piece NumberOfPoints="504" NumberOfCells="276">
      <PointData>
        <DataArray type="Int32" Name="libmesh_node_id" format="ascii" RangeMin="230" RangeMax="2385">
          230 281 379 384 386 757
          758 759 761 763 764 767
          768 769 771 772 773 774
          775 776 777 778 779 780
          783 786 791 793 797 798
          803 805 806 808 824 827
          830 832 843 844 850 1198
          1199 1200 1201 1202 1203 1204
          1205 1206 1207 1208 1209 1210
          1211 1212 1213 1214 1215 1216
          1217 1218 1219 1220 1221 1222
          1223 1224 1225 1226 1227 1228
          1229 1230 1231 1232 1233 1234
          1235 1236 1237 1238 1239 1240
          1241 1242 1243 1244 1245 1246
          1247 1248 1249 1250 1251 1252
          1253 1254 1255 1256 1257 1258
          1259 1260 1261 1262 1263 1264
          1265 1266 1267 1268 1269 1270
          1271 1272 1273 1274 1275 1276
          1277 1278 1279 1280 1281 1282
          1283 1284 1285 1286 1287 1288
          1289 1290 1291 1292 1293 1294
          1295 1296 1297 1298 1299 1300
          1301 1302 1303 1304 1305 1306
          1307 1308 1309 1310 1311 1312
          1313 1314 1315 1316 1317 1318
          1319 1320 1321 1322 1323 1324
          1325 1326 1327 1332 1333 1334
          1352 1353 1354 1355 1356 1357
          1358 1359 1361 1372 1373 1374
          1375 1376 1377 1378 1386 1387
          1390 1391 1392 1393 1395 1406
          1407 1408 1409 1410 1411 1412
          2065 2066 2067 2068 2069 2070
          2071 2072 2073 2074 2075 2076
          2077 2078 2079 2080 2081 2082
          2083 2084 2085 2086 2087 2088
          2089 2090 2091 2092 2093 2094
          2095 2096 2097 2098 2099 2100
          2101 2102 2103 2104 2105 2106
          2107 2108 2109 2110 2111 2112
          2113 2114 2115 2116 2117 2118
          2119 2120 2121 2122 2123 2124
          2125 2126 2127 2128 2129 2130
          2131 2132 2133 2134 2135 2136
          2137 2138 2139 2140 2141 2142
          2143 2144 2145 2146 2147 2148
          2149 2150 2151 2152 2153 2154
          2155 2156 2157 2158 2159 2160
          2161 2162 2163 2164 2165 2166
          2167 2168 2169 2170 2171 2172
          2173 2174 2175 2176 2177 2178
          2179 2180 2181 2182 2183 2184
          2185 2186 2187 2188 2189 2190
          2191 2192 2193 2194 2195 2196
          2197 2198 2199 2200 2201 2202
          2203 2204 2205 2206 2207 2208
          2209 2210 2211 2212 2213 2214
          2215 2216 2217 2218 2219 2220
          2221 2222 2223 2224 2225 2226
          2227 2228 2229 2230 2231 2232
          2233 2234 2235 2236 2237 2238
          2239 2240 2241 2242 2243 2244
          2245 2246 2247 2248 2249 2250
          2251 2252 2253 2254 2255 2256
          2257 2258 2259 2260 2261 2262
          2263 2264 2265 2267 2268 2269
          2270 2278 2279 2280 2318 2319
          2320 2321 2322 2323 2324 2325
          2326 2327 2328 2329 2332 2334
          2335 2337 2338 2339 2340 2341
          2342 2343 2344 2345 2347 2349
          2351 2352 2353 2354 2355 2356
          2357 2358 2359 2360 2361 2362
          2363 2366 2368 2369 2371 2372
          2373 2374 2375 2376 2377 2378
          2379 2381 2383 2385 723 725
          726 724 729 731 730 738
          749 750 739 376 745 752
          753 755 742 760 377 756
          380 365 743 744 711 762
          746 766 765 728 770 372
          385 781 782 784 785 792
        </DataArray>
        <DataArray type="Float64" Name="bounds" format="ascii" RangeMin="0" RangeMax="0">
          0 0 0 0 0 0
          0 0 0 0 0 0
          0 0 0 0 0 0
          0 0 0 0 0 0
          0 0 0 0 0 0
          0 0 0 0 0 0
          0 0 0 0 0 0
          0 0 0 0 0 0
          0 0 0 0 0 0
          0 0 0 0 0 0
          0 0 0 0 0 0
          0 0 0 0 0 0
          0 0 0 0 0 0
          0 0 0 0 0 0
          0 0 0 0 0 0
          0 0 0 0 0 0
          0 0 0 0 0 0
          0 0 0 0 0 0
          0 0 0 0 0 0
          0 0 0 0 0 0
          0 0 0 0 0 0
          0 0 0 0 0 0
          0 0 0 0 0 0
          0 0 0 0 0 0
          0 0 0 0 0 0
          0 0 0 0 0 0
          0 0 0 0 0 0
          0 0 0 0 0 0
          0 0 0 0 0 0
          0 0 0 0 0 0
          0 0 0 0 0 0
          0 0 0 0 0 0
          0 0 0 0 0 0
          0 0 0 0 0 0
          0 0 0 0 0 0
          0 0 0 0 0 0
          0 0 0 0 0 0
          0 0 0 0 0 0
          0 0 0 0 0 0
          0 0 0 0 0 0
          0 0 0 0 0 0
          0 0 0 0 0 0
          0 0 0 0 0 0
          0 0 0 0 0 0
          0 0 0 0 0 0
          0 0 0 0 0 0
          0 0 0 0 0 0
          0 0 0 0 0 0
          0 0 0 0 0 0
          0 0 0 0 0 0
          0 0 0 0 0 0
          0 0 0 0 0 0
          0 0 0 0 0 0
          0 0 0 0 0 0
          0 0 0 0 0 0
          0 0 0 0 0 0
          0 0 0 0 0 0
          0 0 0 0 0 0
          0 0 0 0 0 0
          0 0 0 0 0 0
          0 0 0 0 0 0
          0 0 0 0 0 0
          0 0 0 0 0 0
          0 0 0 0 0 0
          0 0 0 0 0 0
          0 0 0 0 0 0
          0 0 0 0 0 0
          0 0 0 0 0 0
          0 0 0 0 0 0
          0 0 0 0 0 0
          0 0 0 0 0 0
          0 0 0 0 0 0
          0 0 0 0 0 0
          0 0 0 0 0 0
          0 0 0 0 0 0
          0 0 0 0 0 0
          0 0 0 0 0 0
          0 0 0 0 0 0
          0 0 0 0 0 0
          0 0 0 0 0 0
          0 0 0 0 0 0
          0 0 0 0 0 0
          0 0 0 0 0 0
          0 0 0 0 0 0
        </DataArray>
        <DataArray type="Float64" Name="gradient_error" format="ascii" RangeMin="1.5574626647319289e-9" RangeMax="7.74185994579574e-7">
          3.320344266324539e-9 3.0322870292600977e-7 4.0618914508983825e-7 2.193433798004088e-9 3.7970982951466925e-7 3.929445868265315e-7
          3.3129388039704155e-7 3.3325484334779743e-7 4.990246915289847e-7 3.0165375661993555e-7 4.305838050992643e-7 5.117670943580668e-9
          5.275765700026745e-7 3.191479509189308e-7 8.213179185183154e-8 1.4979263221789172e-7 9.32392558675618e-8 1.3663550680984123e-7
          3.1845418497065527e-7 3.0905431289041057e-7 1.5574626647319289e-9 8.94101112438188e-8 1.0362585859882226e-7 3.8136574534931824e-7
          3.136450051480844e-7 2.8555502434617133e-7 3.7137242312993594e-7 3.432751816525224e-7 3.5737835940640113e-7 2.8989896421713226e-7
          2.224195690278634e-7 4.110594268287571e-7 3.260993668403826e-7 2.625164022175431e-7 1.589975449632238e-7 2.8746524832069815e-7
          1.2294205426042764e-7 3.6268081538509247e-7 1.92102424978561e-7 2.465729323426269e-7 3.0104343970669286e-7 8.273337394738464e-8
          7.572903797790783e-8 8.00264797551834e-8 8.432392153245898e-8 7.731958556298217e-8 1.265778025491376e-7 9.987785418277424e-8
          1.3603090766401498e-7 1.3123786176862655e-7 1.4009698076066025e-7 1.1886743778704589e-7 1.5425761186947453e-7 1.485836864496024e-7
          1.5763967220680993e-7 1.3084064278455609e-7 1.0049130245018818e-7 1.027391134124055e-7 8.96925451995227e-8 1.061810530509723e-7
          1.0886669506627634e-7 9.359058156256263e-8 8.910220805314207e-8 9.130013757287207e-8 1.049377148145045e-7 9.349806709260206e-8
          1.3387798029708538e-7 1.301290623732907e-7 1.2401324148154902e-7 1.0947021529653975e-7 1.1375615533075236e-7 1.0819122359702855e-7
          1.1804209536496498e-7 1.1141160720397261e-7 1.0117687589434326e-7 1.2749305849366934e-7 6.410365189176111e-8 7.884146514449873e-8
          5.523788493349244e-8 8.191037669741708e-8 9.364783220060363e-8 1.082759190029184e-7 3.882088338686337e-8 6.651142111982443e-8
          5.888094396552122e-8 9.379759730860518e-8 5.9031746524716576e-8 8.860583939534875e-8 3.488093328487347e-8 6.696971297808881e-8
          1.1754317482233704e-7 1.1193374020141067e-7 3.346282568503852e-9 6.322748329901078e-8 3.776916546000546e-8 1.170442542797091e-7
          1.3677491566973933e-7 1.3309461895425356e-7 1.415090745773109e-7 1.378000026855808e-7 1.3544748212258053e-7 1.4659830016939757e-7
          1.4554264572842925e-7 1.2850733607307253e-7 1.3700013223212636e-7 7.752438088579172e-8 1.0741461673671884e-7 1.1510562470043715e-7
          1.389077152600577e-7 1.5668097466014835e-7 1.553208308868237e-7 1.678461779599157e-7 1.66023168928074e-7 1.4508170140955541e-7
          1.535535517896849e-7 8.748958160970328e-8 1.0595901406075672e-7 9.678543552664028e-8 1.4307899104741513e-7 1.1266481747788726e-7
          1.1630495426783404e-7 1.0140992436920967e-7 1.0309663535887629e-7 1.3139074539600205e-7 1.391027011516605e-7 1.2208076373428697e-7
          1.2121457979782144e-7 1.2576538056500686e-7 1.0622644389003105e-7 1.086238174468762e-7 1.4685354080097852e-7 1.549444163300736e-7
          1.3158372537823854e-7 7.696676963209864e-9 4.3039424094850923e-8 6.2011426827087476e-9 4.4304658702286745e-8 1.114517481039428e-7
          1.199027677908701e-7 1.709678453953615e-9 9.380520135485156e-9 8.019033175918598e-9 8.320372129027314e-8 5.264411439433285e-9
          2.8498181708504226e-8 5.491258487149027e-9 1.1334756942208518e-8 1.1152151608317337e-7 1.0342930958004757e-7 2.076405699408431e-9
          7.106255920022944e-9 7.156816874533121e-9 9.612134773859103e-8 1.4198949641033732e-7 1.5201302749380797e-7 1.3675939110688113e-7
          1.4414315364744982e-7 1.4603583453425677e-7 1.556914478075575e-7 1.4248455828408493e-7 1.618596035699105e-7 1.7250580533223017e-7
          1.515775784888019e-7 1.591469372364684e-7 1.6626023208253452e-7 1.7778684406805062e-7 1.5885001243862618e-7 1.758862333296953e-7
          1.6761133445988484e-7 1.7867145803905983e-7 1.4236667249497436e-7 1.0960333519728278e-7 1.0881252596558056e-7 9.38097609946912e-8
          1.805607594923481e-7 1.7819466505482036e-7 1.4924413791515055e-7 1.6896556468973756e-7 1.6260544648242025e-7 1.7217912988226628e-7
          9.987266941050441e-8 1.0437911987585676e-7 1.4715485073461943e-7 1.2918704927292108e-7 1.3159923264712548e-7 1.0899177619829426e-7
          1.0766620661463965e-7 1.6335926720333485e-7 1.7195113844459452e-7 1.4059112076465733e-7 6.832286405893928e-9 1.1538581378216869e-8
          1.1226364158781907e-7 1.225789319463958e-7 4.420765455953493e-9 8.304284572816561e-9 1.1241503139687707e-7 1.8432820104521218e-7
          1.9733715646674326e-7 1.6669066565058814e-7 1.736324502791695e-7 1.9070863103231407e-7 2.0515797537296788e-7 1.7637288117375891e-7
          1.5315829943309635e-8 8.655796278981319e-9 9.099438883243687e-9 9.146350377084015e-9 9.63254202810627e-9 9.193261870924346e-9
          8.508691542199108e-9 8.642318510921972e-9 8.775945479644835e-9 8.628840742862625e-9 8.050721837668119e-9 8.696547221079616e-9
          7.221631756631804e-9 8.57951431417648e-9 9.342372604491112e-9 9.937396871721156e-9 7.002004792092549e-9 8.246744065075216e-9
          7.52648660024669e-9 9.49148333805788e-9 9.069169166839419e-9 9.537732998297963e-9 9.230035196537273e-9 1.0006296829756508e-8
          1.3713597354017556e-8 1.4584261360791127e-8 1.5454925367564698e-8 7.919872012186582e-9 8.748087142008081e-9 1.0017283763563706e-8
          9.576302271829578e-9 1.6406570920701856e-8 6.56179248584769e-9 8.23051499725675e-9 5.9697801606986234e-9 7.804266319972713e-9
          9.89923750866581e-9 9.638752479246804e-9 4.054415804855962e-9 6.923296996215537e-9 6.3784974434081545e-9 9.792178187575112e-9
          5.3228101598395224e-9 7.26755857190143e-9 4.561080303770188e-9 6.5986482489029505e-9 9.212306983963336e-9 1.0775767189575741e-8
          2.725748307492463e-9 5.787030001794779e-9 5.097717241596651e-9 8.848311696097096e-9 1.5672914510404372e-8 1.629095984015295e-8
          1.493925810010689e-8 1.4890038473600306e-8 1.5464188832914416e-8 1.566981318968454e-8 1.6038339192228522e-8 1.579311736550464e-8
          1.5823048152855897e-8 1.597564502103015e-8 1.5852978940207156e-8 1.5894574552917486e-8 1.612260749039768e-8 1.6288518723144796e-8
          1.6350640427877882e-8 1.568054490917192e-8 1.636711964015126e-8 1.628646882152941e-8 1.8587837582935147e-8 1.9636079876771553e-8
          2.032874770590107e-8 2.149517185712799e-8 2.0535514617062443e-8 1.3495345420816697e-8 1.439964856792784e-8 1.3154063855211505e-8
          1.4064649095693302e-8 1.5303951715038983e-8 1.4975234336175097e-8 8.87166185582053e-9 1.0314541125820406e-8 9.49756618703059e-9
          1.3016484994477413e-8 1.28338487143194e-8 1.3807948895710333e-8 1.243461036805856e-8 1.3575990957162744e-8 1.4782049077101267e-8
          1.471737154626693e-8 6.870587665243341e-9 8.809187612114086e-9 8.155771033369417e-9 1.2112412007673525e-8 1.6247340708286455e-8
          1.5979987594068464e-8 1.696006722478123e-8 1.594599422653675e-8 1.607357216581355e-8 1.7050327548022587e-8 3.762112269457706e-9
          5.826814827166164e-9 3.137284367193574e-9 5.1391003012427564e-9 1.1277892284047e-8 1.0585982653520464e-8 1.88155319530744e-9
          4.359655705632782e-9 3.742553230126396e-9 1.03158391953026e-8 2.7281102219915413e-9 4.56220925059855e-9 2.4719600115222093e-9
          4.065365661524987e-9 9.982762870641867e-9 9.39296882129864e-9 1.5896251766305625e-9 3.2988929155336984e-9 2.995526149606479e-9
          8.652467336771138e-9 1.5583345666396377e-8 1.544147981223143e-8 1.650242414957338e-8 1.6851910552713875e-8 1.4919350624506303e-8
          1.49029720303944e-8 1.6044781074365528e-8 1.538588554129479e-8 1.5367591101464774e-8 1.72025536205114e-8 1.7608015871860028e-8
          1.482577685605283e-8 1.4661610037115997e-8 1.7354779693000222e-8 1.2027187053734881e-8 1.3328970831380617e-8 1.1605580446521291e-8
          1.302763789366702e-8 1.4630754609026355e-8 1.5955821357737182e-8 5.646733162062753e-9 7.567098237097329e-9 7.071523484798974e-9
          1.1129958724029949e-8 1.1210559932212894e-8 1.2655906392421236e-8 1.0946340853659597e-8 1.2369999560506018e-8 1.6497935792713696e-8
          1.638761972336926e-8 5.192964205813845e-9 6.778496095248233e-9 6.818283903382677e-9 1.1820998050590194e-8 1.9397694809173153e-8
          1.9827316226760267e-8 1.6186713478097264e-8 1.7199603406309027e-8 1.795847740836849e-8 1.9752236250583285e-8 2.0440903525883826e-8
          2.060985376836876e-8 2.190022587238158e-8 1.765525424401989e-8 1.7759075148451925e-8 2.0032540371542e-8 2.4036848180593033e-9
          3.736671127644323e-9 2.634446726908397e-9 3.7102951299707988e-9 8.862672025849001e-9 8.404606902593064e-9 1.6737028665453758e-9
          2.8744799534575407e-9 3.0443003545328973e-9 7.485840360740495e-9 3.179008372512669e-9 4.067481015535561e-9 3.861010790058446e-9
          4.673327988580251e-9 8.109895226062002e-9 8.10764835807708e-9 2.712663288651515e-9 3.522662985265865e-9 4.163618469877777e-9
          6.985828353435865e-9 1.5349236354464445e-8 1.5303015264620004e-8 1.804278609446023e-8 1.858296025708708e-8 1.4511759230831626e-8
          1.4386280290563848e-8 1.812709478055197e-8 1.5219184597499133e-8 1.522157879078076e-8 1.917453240143271e-8 1.971350605250942e-8
          1.4303585502224003e-8 1.431164247929734e-8 1.8968176979456488e-8 1.485626322057226e-8 1.6075665866616693e-8 1.588729847864799e-8
          1.9594989780643392e-8 2.2433023359241884e-8 2.336990721128465e-8 2.29711356698581e-8 1.0902212844237658e-8 1.2274201834185707e-8
          1.1099093804196885e-8 1.238204603950034e-8 1.6490086213470168e-8 1.6703247631304796e-8 6.078914131838196e-9 7.187540433318693e-9
          7.801677868767499e-9 1.1303091157624506e-8 1.1491297062577261e-8 1.2712014023653057e-8 1.7055901635421726e-8 7.685328889675048e-9
          8.61173492812727e-9 1.2035806759531989e-8 2.1123456180975253e-8 2.184528892903994e-8 2.291293075914392e-8 2.394908087027408e-8
          1.8049814880751284e-8 1.8433820080297275e-8 2.1789614181052744e-8 2.261937112891217e-8 2.505966997170974e-8 1.8929882727040788e-8
          2.332629290159709e-8 4.5332383982466855e-9 5.3822379457872465e-9 5.198601912677744e-9 6.169860856001845e-9 8.406665733770985e-9
          8.977598084299164e-9 3.856811000720035e-9 4.862132826691826e-9 5.613159574821378e-9 7.592331798589908e-9 5.9097624622866315e-9
          7.0364322639208464e-9 9.818974096944415e-9 5.043191087290199e-9 6.411474422234256e-9 9.28004941282571e-9 1.537327898431189e-8
          1.5670659095606848e-8 2.0164463994409612e-8 2.052724182194131e-8 1.4460817209829835e-8 1.4794348677414376e-8 1.960442547514347e-8
          1.6150692925041897e-8 2.0826539721750025e-8 1.533577913649847e-8 1.989121720452384e-8 6.126454168716198e-7 5.580597858147978e-7
          6.802131770146628e-7 6.702288842789935e-7 5.019450253685089e-7 5.81728607979663e-7 6.327239462156516e-7 4.003400679619758e-7
          3.951749720828949e-7 3.342742615051967e-7 3.4445763887756225e-7 5.799264499881889e-7 5.201841307576601e-7 3.819514946093555e-7
          3.169710234070725e-7 1.8941820081681046e-7 2.0850281486460945e-7 2.6973871645686186e-7 3.8353754124769655e-7 1.9895715938232925e-7
          2.848104088742485e-7 6.895798331464535e-7 7.47510751749888e-7 6.902016555310623e-7 6.442911151205498e-7 6.924626385711318e-7
          4.813171198625987e-7 5.217660668169888e-7 7.019858270554779e-7 6.584084359821885e-7 7.74185994579574e-7 7.179741456520138e-7
          5.899785155228721e-7 1.8096147742655175e-7 2.027978302418441e-7 3.3276229136979915e-7 1.8319466348514954e-7 3.882272706967901e-7
        </DataArray>
        <DataArray type="Float64" Name="gradient_matprop_error" format="ascii" RangeMin="0" RangeMax="0">
          0 0 0 0 0 0
          0 0 0 0 0 0
          0 0 0 0 0 0
          0 0 0 0 0 0
          0 0 0 0 0 0
          0 0 0 0 0 0
          0 0 0 0 0 0
          0 0 0 0 0 0
          0 0 0 0 0 0
          0 0 0 0 0 0
          0 0 0 0 0 0
          0 0 0 0 0 0
          0 0 0 0 0 0
          0 0 0 0 0 0
          0 0 0 0 0 0
          0 0 0 0 0 0
          0 0 0 0 0 0
          0 0 0 0 0 0
          0 0 0 0 0 0
          0 0 0 0 0 0
          0 0 0 0 0 0
          0 0 0 0 0 0
          0 0 0 0 0 0
          0 0 0 0 0 0
          0 0 0 0 0 0
          0 0 0 0 0 0
          0 0 0 0 0 0
          0 0 0 0 0 0
          0 0 0 0 0 0
          0 0 0 0 0 0
          0 0 0 0 0 0
          0 0 0 0 0 0
          0 0 0 0 0 0
          0 0 0 0 0 0
          0 0 0 0 0 0
          0 0 0 0 0 0
          0 0 0 0 0 0
          0 0 0 0 0 0
          0 0 0 0 0 0
          0 0 0 0 0 0
          0 0 0 0 0 0
          0 0 0 0 0 0
          0 0 0 0 0 0
          0 0 0 0 0 0
          0 0 0 0 0 0
          0 0 0 0 0 0
          0 0 0 0 0 0
          0 0 0 0 0 0
          0 0 0 0 0 0
          0 0 0 0 0 0
          0 0 0 0 0 0
          0 0 0 0 0 0
          0 0 0 0 0 0
          0 0 0 0 0 0
          0 0 0 0 0 0
          0 0 0 0 0 0
          0 0 0 0 0 0
          0 0 0 0 0 0
          0 0 0 0 0 0
          0 0 0 0 0 0
          0 0 0 0 0 0
          0 0 0 0 0 0
          0 0 0 0 0 0
          0 0 0 0 0 0
          0 0 0 0 0 0
          0 0 0 0 0 0
          0 0 0 0 0 0
          0 0 0 0 0 0
          0 0 0 0 0 0
          0 0 0 0 0 0
          0 0 0 0 0 0
          0 0 0 0 0 0
          0 0 0 0 0 0
          0 0 0 0 0 0
          0 0 0 0 0 0
          0 0 0 0 0 0
          0 0 0 0 0 0
          0 0 0 0 0 0
          0 0 0 0 0 0
          0 0 0 0 0 0
          0 0 0 0 0 0
          0 0 0 0 0 0
          0 0 0 0 0 0
          0 0 0 0 0 0
        </DataArray>
        <DataArray type="Float64" Name="initial_marker" format="ascii" RangeMin="0" RangeMax="2">
          2 2 2 2 2 2
          2 2 2 2 2 2
          2 2 2 2 2 2
          1.5 1.5 2 2 2 2
          0.5 0.5 1 1 1 1
          1 2 2 1.3333333333333333 2 1.5
          2 2 0 0.5 1 2
          2 2 2 2 2 2
          2 2 2 2 2 2
          2 2 2 2 2 2
          2 2 2 2 2 2
          2 2 2 2 2 2
          2 2 2 2 2 2
          2 2 2 2 2 2
          2 2 2 2 2 2
          2 2 2 2 2 2
          2 2 2 2 2 2
          2 2 2 2 2 2
          2 2 2 2 2 2
          2 2 2 2 2 2
          2 2 2 2 2 2
          2 2 2 2 2 2
          2 2 2 2 2 2
          2 2 2 2 2 2
          2 2 2 2 2 2
          2 2 2 2 2 2
          2 2 2 2 2 2
          2 2 2 2 2 2
          2 2 2 2 2 2
          2 2 2 2 2 2
          2 2 2 2 2 2
          2 2 2 2 2 2
          2 2 2 2 2 2
          2 2 2 2 2 2
          2 2 2 2 2 2
          2 2 2 2 2 2
          2 2 2 2 2 2
          2 2 2 2 2 2
          2 2 2 2 2 2
          2 2 2 2 2 2
          2 2 2 2 2 2
          2 2 2 2 2 2
          2 2 2 2 2 2
          2 2 2 2 2 2
          2 2 2 2 2 2
          2 2 2 2 2 2
          2 2 2 2 2 2
          2 2 2 2 2 2
          2 2 2 2 2 2
          2 2 2 2 2 2
          2 2 2 2 2 2
          2 2 2 2 2 2
          2 2 2 2 2 2
          2 2 2 2 2 2
          2 2 2 2 2 2
          2 2 2 2 2 2
          2 2 2 2 2 2
          2 2 2 2 2 2
          2 2 2 2 2 2
          2 2 2 2 2 2
          2 2 2 2 2 2
          2 2 2 2 2 2
          2 2 2 2 2 2
          2 2 2 2 2 2
          2 2 2 2 2 2
          2 2 2 2 2 2
          2 2 2 2 2 2
          2 2 2 2 2 2
          2 2 2 2 2 2
          2 2 2 2 2 2
          2 2 2 2 2 2
          2 2 2 2 2 2
          2 2 2 2 2 2
          2 2 2 2 2 2
          2 2 2 2 2 2
          2 2 2 2 2 2
          2 2 2 2 2 2
          2 2 2 2 2 2
          2 2 2 2 2 1
          1 1 1 2 2 1
          1 0.5 0.5 1 1 0.6666666666666666
          1 2 2 2 2 2
          1 1.25 1 1 1 1
          1.5 0 0 0.25 0 0.5
        </DataArray>
        <DataArray type="Float64" Name="markers_norefine" format="ascii" RangeMin="0" RangeMax="2">
          2 0 0 2 0 0
          0 0 0 0 0 2
          0 0 0 0 1 0
          0 0 2 0 1 0
          0 0 0 0 0 0
          0 0 0 0 0 0
          1 0 0 0 0 0
          0 0 0 0 0 0
          0 0 0 0 0 0
          0 0 0 0 0 0
          0 0 0 0 0 0
          0 0 0 0 0 0
          0 0 0 0 0 0
          0.5 0 0 0 0 0
          0.5 0 1 0.25 1.5 0.5
          0 0 2 1 1 0
          0 0 0 0 0 0
          0 0 0 0 0 0
          0 0 0 0 0 0
          0 1 0 0.5 0 0
          0 0 0 0 0 0
          0 0 0 0 0 0
          0 2 1 2 1.5 0
          0 2 2 2 0 2
          1.75 2 2 0 0 2
          2 2 0 0 0 0
          0 0 0 0 0 0
          0 0 0 0 0 0
          0 0 0 0 0 0
          0 0 0 0 0 0
          1 0.5 0 0 0 0
          0 0 0 0 2 2
          0.5 0.75 2 2 1 0
          0 0 0 0 0 0
          0 0 0 0 0.5 0
          0 0 0 0 0.5 0.25
          1.5 1 0 0.5 1 0.5
          1.5 0 2 1 1.5 0
          1 0.5 0 2 2 1.6666666666666667
          2 0 2 1.5 2 1.75
          1 1.5 2 2 2 2
          2 2 2 2 2 1.3333333333333333
          2 2 2 2 0 0
          0 0 0 0 0 0
          0 0 0 1 0.5 1
          0 2 1.5 2 0.5 0
          0 0 0 1 0.5 1
          0.75 0 0.5 2 1.5 1.75
          0.6666666666666666 1 1 1 1 1
          1 2 2 2 2 0
          0.5 0 1 1 0 2
          2 2 2 1.25 1.75 2
          2 2 1.5 2 2 2
          2 2 2 2 2 2
          2 0.25 0.75 0 0 0.5
          1 0 1 1 0 0
          1 1 0 1.5 1.25 2
          1.5 1 1 2 2 2
          2 2 1.75 2 2 1.25
          1.5 2 2 2 2 0.5
          0 1 1 0 0.5 0.5
          0 0 1 1 0 2
          2 2 2 2 2 2
          2 2 2 2 2 2
          2 2 2 2 2 2
          2 1 1 0 0 1
          1 0 1.25 1.5 0.5 1
          1.5 2 1 2 2 2
          1 0 0 0 2 2
          2 2 1.5 1.5 2 2
          2 2 2 2 1.75 2
          2 2 0.5 0.5 0 0
          1.25 1.5 0.5 0.75 0 1.5
          1 2 2 2 2 2
          2 2 2 2 2 2
          2 2 2 2 2 1.75
          2 1.5 2 2 2 2
          2 2 2 2 0 0
          0 0 0 0 0 0
          0 0 0 0 0 0
          0 0 0 0 0 0
          0 0 0 0 0 0
          0 0 0 0 0 0
          0 0 0 0 0 0
        </DataArray>
        <DataArray type="Float64" Name="markers_mustrefine" format="ascii" RangeMin="0" RangeMax="2">
          2 2 2 2 2 2
          2 2 2 2 2 2
          2 2 2 2 2 2
          1.5 1.5 2 2 2 2
          0.5 0.5 1 1 1 1
          1 2 2 1.3333333333333333 2 1.5
          2 2 0 0.5 1 2
          2 2 2 2 2 2
          2 2 2 2 2 2
          2 2 2 2 2 2
          2 2 2 2 2 2
          2 2 2 2 2 2
          2 2 2 2 2 2
          2 2 2 2 2 2
          2 2 2 2 2 2
          2 2 2 2 2 2
          2 2 2 2 2 2
          2 2 2 2 2 2
          2 2 2 2 2 2
          2 2 2 2 2 2
          2 2 2 2 2 2
          2 2 2 2 2 2
          2 2 2 2 2 2
          2 2 2 2 2 2
          2 2 2 2 2 2
          2 2 2 2 2 2
          2 2 2 2 2 2
          2 2 2 2 2 2
          2 2 2 2 2 2
          2 2 2 2 2 2
          2 2 2 2 2 2
          2 2 2 2 2 2
          2 2 2 2 2 2
          2 2 2 2 2 2
          2 2 2 2 2 2
          2 2 2 2 2 2
          2 2 2 2 2 2
          2 2 2 2 2 2
          2 2 2 2 2 2
          2 2 2 2 2 2
          2 2 2 2 2 2
          2 2 2 2 2 2
          2 2 2 2 2 2
          2 2 2 2 2 2
          2 2 2 2 2 2
          2 2 2 2 2 2
          2 2 2 2 2 2
          2 2 2 2 2 2
          2 2 2 2 2 2
          2 2 2 2 2 2
          2 2 2 2 2 2
          2 2 2 2 2 2
          2 2 2 2 2 2
          2 2 2 2 2 2
          2 2 2 2 2 2
          2 2 2 2 2 2
          2 2 2 2 2 2
          2 2 2 2 2 2
          2 2 2 2 2 2
          2 2 2 2 2 2
          2 2 2 2 2 2
          2 2 2 2 2 2
          2 2 2 2 2 2
          2 2 2 2 2 2
          2 2 2 2 2 2
          2 2 2 2 2 2
          2 2 2 2 2 2
          2 2 2 2 2 2
          2 2 2 2 2 2
          2 2 2 2 2 2
          2 2 2 2 2 2
          2 2 2 2 2 2
          2 2 2 2 2 2
          2 2 2 2 2 2
          2 2 2 2 2 2
          2 2 2 2 2 2
          2 2 2 2 2 2
          2 2 2 2 2 2
          2 2 2 2 2 1
          1 1 1 2 2 1
          1 0.5 0.5 1 1 0.6666666666666666
          1 2 2 2 2 2
          1 1.25 1 1 1 1
          1.5 0 0 0.25 0 0.5
        </DataArray>
        <DataArray type="Float64" Name="gradient_marker" format="ascii" RangeMin="0" RangeMax="1">
          0 0.5 1 0 1 1
          0.625 0.75 0.5 0.25 0.375 0
          0.5 0.5 0.5 0.875 0.5 0.75
          0.625 0.75 0 0.5 0.5 1
          0.625 0.5 0.75 0.5 0.5 0.5
          0.5 1 0.75 0.6666666666666666 0.75 0.75
          0.5 1 0.5 0.5 0.5 0
          0 0 0 0 0 0
          0.5 0.25 0.75 0 1 1
          1 0.5 0 0 0 0
          0 0 0 0 0 0
          0 0 0 0 0 0
          0 0 0 0 0 0
          0 0 0 0 0 0
          0 0 0 0 0 0
          0 0.16666666666666666 0 0 0 0
          0.5 0.5 1 0.5 0.375 1
          0.875 0.25 0.625 0.25 0.25 0.625
          0.375 1 1 1 1 0.75
          0.75 0.5 0.625 0.5 0.875 0.125
          0.25 0 0 0.25 0.625 0
          0.25 0.25 0 0 0.75 0.75
          0.5 0 0 0 0.125 0.375
          0.625 0 0 0 0.5 0
          0.125 0 0 0.625 0.5 0
          0 0 0.5 0.625 0.875 0.5
          0.75 1 1 1 1 1
          1 1 1 1 1 1
          1 1 0.5 0 0 0
          1 1 0.75 0.875 0.75 0.75
          0.5 0.5 0.75 0.25 0.25 0
          0 0.75 0.75 0.5 0 0
          0.5 0.5 0 0 0.5 1
          1 1 1 1 1 1
          0 0 0 0 0 0
          0 0 0 0 0 0
          0 0 0 0 0 0
          0 0 0 0 0 0
          0 0 0 0 0 0
          0 0 0 0 0 0
          0 0 0 0 0 0
          0 0 0 0 0 0
          0 0 0 0 0 0
          0 0 0 0 0 0
          0 0 0 0 0 0
          0 0 0 0 0 0
          0 0 0 0 0 0
          0 0 0 0 0 0
          0 0 0 0 0 0
          0 0 0 0 0 0
          0 0 0 0 0 0
          0 0 0 0 0 0
          0 0 0 0 0 0
          0 0 0 0 0 0
          0 0 0 0 0 0
          0 0 0 0 0 0
          0 0 0 0 0 0
          0 0 0 0 0 0
          0 0 0 0 0 0
          0 0 0 0 0 0
          0 0 0 0 0 0
          0 0 0 0 0 0
          0 0 0 0 0 0
          0 0 0 0 0 0
          0 0 0 0 0 0
          0 0 0 0 0 0
          0 0 0 0 0 0
          0 0 0 0 0 0
          0 0 0 0 0 0
          0 0 0 0 0 0
          0 0 0 0 0 0
          0 0 0 0 0 0
          0 0 0 0 0 0
          0 0 0 0 0 0
          0 0 0 0 0 0
          0 0 0 0 0 0
          0 0 0 0 0 0
          0 0 0 0 1 0.75
          0.875 1 1 0.75 1 1
          0.75 0.625 0.875 0.75 0.75 0.5
          0.5 0.375 0.625 0.625 0.875 0.3333333333333333
          0.625 1 1 1 1 0.75
          1 0.75 1 1 1 1
          1 0.375 0.5 0.75 0.3333333333333333 1
        </DataArray>
        <DataArray type="Float64" Name="gradient_matprop_marker" format="ascii" RangeMin="0" RangeMax="0">
          0 0 0 0 0 0
          0 0 0 0 0 0
          0 0 0 0 0 0
          0 0 0 0 0 0
          0 0 0 0 0 0
          0 0 0 0 0 0
          0 0 0 0 0 0
          0 0 0 0 0 0
          0 0 0 0 0 0
          0 0 0 0 0 0
          0 0 0 0 0 0
          0 0 0 0 0 0
          0 0 0 0 0 0
          0 0 0 0 0 0
          0 0 0 0 0 0
          0 0 0 0 0 0
          0 0 0 0 0 0
          0 0 0 0 0 0
          0 0 0 0 0 0
          0 0 0 0 0 0
          0 0 0 0 0 0
          0 0 0 0 0 0
          0 0 0 0 0 0
          0 0 0 0 0 0
          0 0 0 0 0 0
          0 0 0 0 0 0
          0 0 0 0 0 0
          0 0 0 0 0 0
          0 0 0 0 0 0
          0 0 0 0 0 0
          0 0 0 0 0 0
          0 0 0 0 0 0
          0 0 0 0 0 0
          0 0 0 0 0 0
          0 0 0 0 0 0
          0 0 0 0 0 0
          0 0 0 0 0 0
          0 0 0 0 0 0
          0 0 0 0 0 0
          0 0 0 0 0 0
          0 0 0 0 0 0
          0 0 0 0 0 0
          0 0 0 0 0 0
          0 0 0 0 0 0
          0 0 0 0 0 0
          0 0 0 0 0 0
          0 0 0 0 0 0
          0 0 0 0 0 0
          0 0 0 0 0 0
          0 0 0 0 0 0
          0 0 0 0 0 0
          0 0 0 0 0 0
          0 0 0 0 0 0
          0 0 0 0 0 0
          0 0 0 0 0 0
          0 0 0 0 0 0
          0 0 0 0 0 0
          0 0 0 0 0 0
          0 0 0 0 0 0
          0 0 0 0 0 0
          0 0 0 0 0 0
          0 0 0 0 0 0
          0 0 0 0 0 0
          0 0 0 0 0 0
          0 0 0 0 0 0
          0 0 0 0 0 0
          0 0 0 0 0 0
          0 0 0 0 0 0
          0 0 0 0 0 0
          0 0 0 0 0 0
          0 0 0 0 0 0
          0 0 0 0 0 0
          0 0 0 0 0 0
          0 0 0 0 0 0
          0 0 0 0 0 0
          0 0 0 0 0 0
          0 0 0 0 0 0
          0 0 0 0 0 0
          0 0 0 0 0 0
          0 0 0 0 0 0
          0 0 0 0 0 0
          0 0 0 0 0 0
          0 0 0 0 0 0
          0 0 0 0 0 0
        </DataArray>
        <DataArray type="Float64" Name="combo" format="ascii" RangeMin="0" RangeMax="2">