<?xml version="1.0"?>
<VTKFile type="UnstructuredGrid" version="0.1" byte_order="LittleEndian" header_type="UInt32" compressor="vtkZLibDataCompressor">
  <UnstructuredGrid>
    <Piece NumberOfPoints="636" NumberOfCells="416">
      <PointData>
        <DataArray type="Int32" Name="libmesh_node_id" format="ascii" RangeMin="723" RangeMax="6144">
          723 731 856 857 858 864
          1363 1364 1365 1368 1371 1385
          1393 1394 1395 1396 1400 1401
          1403 1404 1406 1421 1880 1881
          1882 1885 1892 1896 1897 1898
          1899 1903 1904 1917 2531 2532
          2533 2536 2539 2553 2554 2557
          2559 2573 2574 2576 2579 2589
          2591 2593 2614 2615 2636 2637
          2638 2639 2640 2641 2642 2643
          2644 2645 2646 2647 2648 2649
          2652 2653 2658 2660 2661 2663
          2664 2665 2666 2667 2668 2669
          2670 2671 2672 2673 2674 2675
          2678 2679 2681 2683 2684 2685
          2686 2687 2688 2689 2690 2691
          2692 2693 2694 2695 2698 2700
          2701 2703 2704 2705 2706 2707
          2708 2709 2710 2711 2713 2715
          2717 2800 2801 2802 2803 3123
          3124 3125 3128 3138 3139 3142
          3143 3144 3145 3146 3147 3148
          3149 3150 3151 3152 3163 3164
          3165 3166 3167 3168 3169 4467
          4468 4469 4472 4475 4489 4490
          4493 4495 4509 4510 4512 4515
          4525 4527 4529 4591 4592 4595
          4597 4611 4612 4615 4617 4627
          4629 4631 4641 4643 4645 4727
          4728 4730 4733 4743 4745 4747
          4761 4762 4764 4767 4777 4779
          4781 4837 4839 4841 4851 4853
          4855 4865 4867 4869 4879 4881
          4883 4911 4912 4917 4971 4975
          5005 5009 5025 5026 5027 5028
          5029 5030 5031 5032 5033 5034
          5035 5036 5037 5038 5039 5040
          5041 5042 5043 5044 5045 5046
          5047 5048 5049 5050 5051 5052
          5053 5054 5055 5056 5057 5058
          5059 5060 5061 5062 5063 5064
          5065 5066 5067 5068 5069 5070
          5071 5072 5073 5074 5075 5076
          5077 5078 5079 5080 5081 5082
          5083 5084 5085 5086 5087 5088
          5089 5090 5091 5092 5093 5094
          5095 5096 5097 5098 5099 5100
          5101 5102 5103 5104 5105 5106
          5107 5108 5109 5110 5114 5115
          5117 5118 5119 5120 5135 5136
          5139 5140 5142 5143 5144 5155
          5156 5157 5158 5159 5160 5161
          5162 5163 5164 5175 5176 5177
          5178 5179 5180 5181 5189 5190
          5191 5192 5193 5194 5195 5196
          5197 5198 5199 5200 5201 5202
          5203 5204 5205 5206 5207 5208
          5209 5210 5211 5212 5213 5214
          5215 5216 5217 5218 5219 5220
          5221 5222 5223 5224 5225 5226
          5227 5228 5229 5230 5231 5232
          5233 5234 5235 5236 5237 5238
          5239 5240 5241 5242 5243 5244
          5245 5246 5247 5248 5249 5250
          5251 5252 5253 5254 5255 5256
          5257 5258 5261 5262 5264 5265
          5266 5277 5278 5279 5280 5281
          5282 5283 5291 5292 5293 5294
          5295 5296 5297 5298 5299 5300
          5311 5312 5313 5314 5315 5316
          5317 5318 5319 5320 5321 5322
          5323 5324 5325 5326 5327 5328
          5329 5330 5331 5332 5333 5334
          5335 5336 5337 5338 5339 5340
          5341 5342 5343 5344 5345 5346
          5347 5348 5349 5350 5351 5352
          5353 5354 5355 5356 5357 5358
          5359 5360 5361 5362 5363 5364
          5365 5366 5367 5368 5369 5370
          5371 5372 5373 5374 5375 5376
          5377 5378 5379 5380 5381 5382
          5383 5384 5385 5386 5387 5388
          5399 5400 5401 5402 5403 5404
          5405 5413 5414 5415 5416 5417
          5418 5419 5420 5421 5422 5433
          5434 5435 5436 5437 5438 5439
          5447 5448 5449 5450 5451 5452
          5453 5454 5455 5456 5457 5458
          5459 5460 5461 5462 5463 5464
          5465 5466 5467 5468 5469 5470
          5471 5472 5473 5474 5475 5476
          5477 5478 5479 5480 5481 5482
          5483 5484 5485 5486 5487 5488
          5489 5490 5491 5492 5493 5494
          5495 5496 5497 5498 5499 5500
          5501 5502 5503 5504 5505 5506
          5507 5508 5509 5517 5518 5519
          5520 5521 5522 5523 5531 5532
          5533 5534 5535 5536 5537 5545
          5546 5547 5548 5549 5550 5551
          6003 6004 6005 6006 6010 6011
          6013 6014 6015 6016 6020 6021
          6043 6044 6047 6048 6050 6051
          6054 6055 6077 6078 6081 6082
          6084 6085 6088 6089 6105 6106
          6109 6110 6139 6140 6143 6144
        </DataArray>
        <DataArray type="Float64" Name="bounds" format="ascii" RangeMin="0" RangeMax="0">
          0 0 0 0 0 0
          0 0 0 0 0 0
          0 0 0 0 0 0
          0 0 0 0 0 0
          0 0 0 0 0 0
          0 0 0 0 0 0
          0 0 0 0 0 0
          0 0 0 0 0 0
          0 0 0 0 0 0
          0 0 0 0 0 0
          0 0 0 0 0 0
          0 0 0 0 0 0
          0 0 0 0 0 0
          0 0 0 0 0 0
          0 0 0 0 0 0
          0 0 0 0 0 0
          0 0 0 0 0 0
          0 0 0 0 0 0
          0 0 0 0 0 0
          0 0 0 0 0 0
          0 0 0 0 0 0
          0 0 0 0 0 0
          0 0 0 0 0 0
          0 0 0 0 0 0
          0 0 0 0 0 0
          0 0 0 0 0 0
          0 0 0 0 0 0
          0 0 0 0 0 0
          0 0 0 0 0 0
          0 0 0 0 0 0
          0 0 0 0 0 0
          0 0 0 0 0 0
          0 0 0 0 0 0
          0 0 0 0 0 0
          0 0 0 0 0 0
          0 0 0 0 0 0
          0 0 0 0 0 0
          0 0 0 0 0 0
          0 0 0 0 0 0
          0 0 0 0 0 0
          0 0 0 0 0 0
          0 0 0 0 0 0
          0 0 0 0 0 0
          0 0 0 0 0 0
          0 0 0 0 0 0
          0 0 0 0 0 0
          0 0 0 0 0 0
          0 0 0 0 0 0
          0 0 0 0 0 0
          0 0 0 0 0 0
          0 0 0 0 0 0
          0 0 0 0 0 0
          0 0 0 0 0 0
          0 0 0 0 0 0
          0 0 0 0 0 0
          0 0 0 0 0 0
          0 0 0 0 0 0
          0 0 0 0 0 0
          0 0 0 0 0 0
          0 0 0 0 0 0
          0 0 0 0 0 0
          0 0 0 0 0 0
          0 0 0 0 0 0
          0 0 0 0 0 0
          0 0 0 0 0 0
          0 0 0 0 0 0
          0 0 0 0 0 0
          0 0 0 0 0 0
          0 0 0 0 0 0
          0 0 0 0 0 0
          0 0 0 0 0 0
          0 0 0 0 0 0
          0 0 0 0 0 0
          0 0 0 0 0 0
          0 0 0 0 0 0
          0 0 0 0 0 0
          0 0 0 0 0 0
          0 0 0 0 0 0
          0 0 0 0 0 0
          0 0 0 0 0 0
          0 0 0 0 0 0
          0 0 0 0 0 0
          0 0 0 0 0 0
          0 0 0 0 0 0
          0 0 0 0 0 0
          0 0 0 0 0 0
          0 0 0 0 0 0
          0 0 0 0 0 0
          0 0 0 0 0 0
          0 0 0 0 0 0
          0 0 0 0 0 0
          0 0 0 0 0 0
          0 0 0 0 0 0
          0 0 0 0 0 0
          0 0 0 0 0 0
          0 0 0 0 0 0
          0 0 0 0 0 0
          0 0 0 0 0 0
          0 0 0 0 0 0
          0 0 0 0 0 0
          0 0 0 0 0 0
          0 0 0 0 0 0
          0 0 0 0 0 0
          0 0 0 0 0 0
          0 0 0 0 0 0
          0 0 0 0 0 0
        </DataArray>
        <DataArray type="Float64" Name="gradient_error" format="ascii" RangeMin="4.1009887955482605e-12" RangeMax="1.5314128519670987e-8">
          1.0361564772310163e-10 9.179238924374052e-9 1.0793345001242364e-10 1.7279813061626657e-10 1.0093450506681535e-10 1.4763850966468582e-9
          1.1001750566508595e-10 5.526864191328023e-9 2.784943411567045e-9 3.2845291817182095e-10 1.0962473261529755e-8 1.3838455295609936e-10
          4.177507500089823e-11 2.628951511137853e-11 1.9934454767861875e-9 9.202152289370681e-10 3.017808772198811e-11 9.337327780379266e-11
          6.080658824441647e-9 4.721388434218951e-9 4.798343336394135e-10 3.235761691935839e-11 5.866067374449039e-11 4.095559666269466e-11
          3.753244995202646e-11 7.622091927750645e-11 7.906269913936592e-11 1.0254910514799519e-11 8.687786634308031e-12 8.486067127685237e-12
          6.802441005239351e-12 7.068195704074164e-12 1.5079149231262646e-11 1.930642802235509e-11 1.5438386859568623e-10 7.776277473446889e-10
          6.629125278171895e-10 4.1187785433747686e-10 4.668570442941013e-9 6.200393729374125e-11 1.8842799388805538e-10 9.144063370401158e-11
          1.1417395835133055e-9 1.5314128519670987e-8 1.370918122249312e-8 8.778122091394762e-9 1.2036034688783142e-8 3.757444361221112e-9
          1.0104860589754282e-9 5.264508822040001e-9 9.070691216133484e-11 9.229989835321089e-11 8.685160368726347e-11 7.734885282000362e-11
          4.253458710170863e-10 3.611209606587499e-10 3.723527142876491e-11 2.1582102887973846e-10 1.8278760939770177e-10 5.474644679613712e-11
          2.2184399476725275e-10 1.1148686401743227e-10 3.49092185977901e-9 2.917468897342424e-9 1.6457748049733679e-9 1.6792929623865967e-9
          1.0174741983756194e-10 8.602416169566791e-11 5.2134236156617797e-11 1.0205967473240058e-9 8.359308624346028e-10 4.585064758777498e-10
          3.049322977266965e-11 9.965959873013597e-11 2.177826723829892e-11 5.5001296379908807e-11 3.534896852468586e-11 4.699935325499632e-11
          2.9551273784685813e-11 6.579420990677357e-10 3.4870729597881954e-10 1.8145447819504975e-10 1.6988207213567597e-11 3.193571115317231e-11
          2.1810351608537408e-11 2.082169977835493e-11 1.70106701763895e-10 4.463866047026062e-11 1.0919133858957488e-8 9.40825796620458e-9
          6.846739519932879e-9 5.910322883141826e-9 5.843925473829581e-9 3.557376942803604e-9 9.289708548565108e-9 9.718945956155303e-9
          6.198278057266705e-9 7.402230936795295e-9 3.9907127782038606e-9 3.3723400495791983e-9 1.9246463310564105e-9 3.95686161088559e-9
          3.861588222280411e-9 2.679267542085904e-9 2.3606263761416565e-9 1.3398373025987336e-9 5.895730261487817e-10 3.1651445083812385e-10
          3.42725633375938e-9 2.004441889093968e-9 8.795442252795944e-10 6.866665128696412e-10 1.5628102111994118e-10 1.05132314981771e-9
          2.39817460228086e-10 4.451956993515332e-11 4.6649172738142596e-11 2.1399466097646743e-11 2.259537683430749e-11 2.2942973447933822e-11
          1.2614952599361688e-10 1.1368576727607456e-10 8.332512045610431e-11 1.4877237527982692e-11 5.145161249601241e-11 3.7474992638348424e-11
          1.3483602821126184e-11 1.2441760319470422e-11 6.322987218680941e-11 5.709144259435083e-11 6.216656962932764e-12 3.053379063038243e-11
          2.7612192313191267e-11 9.723486337633606e-12 4.19647586699395e-11 2.0244267875744503e-11 7.879801990231818e-12 2.5141762295029103e-11
          4.1009887955482605e-12 1.1706080411783663e-11 7.712549123011088e-12 1.7307020252071435e-11 7.614219068078424e-12 1.1549916916497352e-10
          2.511220736951383e-10 2.4214275738179194e-10 2.170595686045988e-10 7.471639081731782e-10 8.826381603570643e-11 1.810673025895025e-10
          1.4064275411637603e-10 5.434031073767822e-10 2.2359936701538484e-9 2.144235503965368e-9 1.889642041457806e-9 5.29876808261527e-9
          1.528533469549392e-9 1.1347285862791137e-9 3.773414426171195e-9 5.162261488536686e-11 1.0184855184137694e-10 6.891978522293405e-11
          2.891553643909628e-10 2.4785048286342473e-11 4.337841215600321e-11 3.250775835439311e-11 1.1373548002219526e-10 7.738221529612355e-10
          4.858558471630828e-10 1.86930860491969e-9 2.8244954963048555e-10 1.523635355380241e-10 6.375467064772526e-10 1.1008689973104633e-8
          1.0561872688406372e-8 9.318696702923834e-9 1.493700525745904e-8 7.551788645172169e-9 5.610533112620421e-9 1.153736712694819e-8
          1.2772152488899113e-8 1.3158333716345876e-8 1.3685452812700235e-8 1.0131795666538867e-8 1.2980717918167254e-8 1.0605170033337014e-8
          1.2687581533928594e-8 3.790156297927921e-9 2.303717546589466e-9 6.057554847683309e-9 1.259526149461556e-9 6.257764113249267e-10
          2.063790169527599e-9 7.604577011392828e-9 4.879364114228711e-9 8.057147779373432e-9 2.7385217647398493e-9 1.3449895891821506e-9
          2.992821991635351e-9 4.75978506959572e-11 7.61906137204372e-11 1.5748910339134824e-10 2.8742847836171075e-10 4.502639449928942e-10
          5.925066983388627e-10 6.491476333775791e-10 8.571776323481129e-11 8.2873731647101e-11 1.8294649556575266e-10 1.763389256001267e-10
          5.870150850578404e-11 1.3125186002116882e-10 1.2649003879860714e-10 7.481411856702325e-11 1.5791488481170145e-10 1.1320593194387628e-10
          5.804060930427211e-10 5.574046627937099e-10 4.082710300023498e-10 4.937798076289522e-10 4.240832595047376e-11 4.0998078029874516e-11
          9.271572751818198e-11 8.933937105778209e-11 2.823580981517331e-11 6.445606017421368e-11 6.210340199554373e-11 3.6972602583697536e-11
          7.99095300707598e-11 5.552423888903181e-11 3.0581117789220926e-10 2.9342824608846006e-10 2.0702686226188294e-10 2.5927469509070573e-10
          6.320384090592044e-11 1.315342194675598e-10 4.467476477740821e-11 9.417806907501516e-11 4.99096845523276e-11 1.019570157197351e-10
          7.289129025588063e-11 4.036404428812491e-10 2.945486810602998e-10 3.048415372926125e-10 3.113278339286899e-11 6.639711089071311e-11
          2.1414033751987955e-11 4.608475321317838e-11 2.4640326973800973e-11 5.135054413194774e-11 3.5642798923289195e-11 2.1114072489431468e-10
          1.486626650898537e-10 1.5865306148175846e-10 1.7288441265977954e-9 1.655478842834925e-9 1.3053023206331904e-9 1.2487534061133798e-9
          1.4533281162575964e-9 1.0933537080392917e-9 4.437497610944308e-9 4.2513383790202204e-9 3.3388164125909247e-9 3.734023008782318e-9
          9.63647588646016e-10 9.211607156088337e-10 6.955057756474484e-10 6.643856522596815e-10 8.046154890196573e-10 5.791809872155886e-10
          2.6749849037497757e-9 2.55389893767001e-9 1.900453169245776e-9 2.220619614266819e-9 1.1695044925137585e-9 8.760733928788525e-10
          8.6273873690195e-10 6.426937257979574e-10 2.9964284157907977e-9 2.322280929780601e-9 2.1881522392389816e-9 6.423155793345726e-10
          4.6097442365614467e-10 4.690306781057208e-10 3.35383555868022e-10 1.7548960413375034e-9 1.2928491882171709e-9 1.2581720779963673e-9
          1.980409493786204e-11 1.915385991629417e-11 4.408926988562948e-11 4.247524824152026e-11 1.7287071559449812e-11 3.7963518957474425e-11
          1.4954376373501803e-10 1.4342086524079756e-10 9.756026010563429e-11 1.265466562714049e-10 1.4573062275033493e-11 3.148954429859776e-11
          1.1628410817406003e-11 2.4336976924632818e-11 1.0280032079383487e-10 6.979741744224553e-11 7.695821982603353e-11 4.908603349513955e-10
          4.686430030143583e-10 3.389634100977123e-10 3.2351165400770605e-10 4.079314534652215e-10 2.8132043092263583e-10 1.445408723974042e-9
          1.3764485838919725e-9 9.709844752900437e-10 1.1881444781837675e-9 3.239737547309963e-10 2.2308892457577863e-10 2.3507067940731023e-10
          1.615654112377856e-10 9.287415403241853e-10 6.509106488758561e-10 6.571623596051665e-10 3.692476398917957e-11 7.362245733144654e-11
          2.630412994465742e-11 5.2534014034459364e-11 2.5782746518714883e-11 4.9639775464854827e-11 3.527086679264063e-11 2.1311156403140942e-10
          1.5454099390830683e-10 1.3815332460227787e-10 1.874223065709753e-11 3.6928118386789326e-11 1.3425729587773448e-11 2.5544984522946822e-11
          1.392379873652798e-11 2.459377029318224e-11 1.8932404998786418e-11 1.1021165535484665e-10 7.714297516759842e-11 7.05549723397141e-11
          1.766620039700867e-11 3.108287767742528e-11 1.2676894225002728e-11 2.197433042327499e-11 1.4606211367476582e-11 2.3187112594781227e-11
          1.6364866656749356e-11 8.293165401773143e-11 5.95295463565617e-11 5.533054204233388e-11 9.82878362141617e-12 1.5393493172977074e-11
          8.950984656455185e-12 1.268223640898501e-11 7.92196886398768e-12 1.1692770506561633e-11 9.919545150575141e-12 4.185919690755187e-11
          3.4800963028965214e-11 2.8087915032986016e-11 5.840511458826048e-10 4.325059877307044e-10 3.6392889289242667e-10 2.678749385967731e-10
          1.4514217140997277e-9 1.1021345242806759e-9 8.757493815083438e-10 3.1425771752893325e-10 2.2396496211539043e-10 1.9383292224573495e-10
          1.3765902295348257e-10 8.181814472485317e-10 5.938144328931843e-10 4.840245465433289e-10 2.0993185421132042e-10 1.535353362402129e-10
          1.1238075714322792e-10 8.169044913416395e-11 4.832711584059499e-10 3.5946776049960127e-10 2.4624186725153455e-10 1.1047932681624514e-10
          7.803797518330074e-11 5.843885639975018e-11 4.107780054111383e-11 2.6225263520125124e-10 1.876428748974222e-10 1.3135386925413774e-10
          9.488615763620519e-12 1.742035790936011e-11 8.796016218322696e-12 1.4080039249112285e-11 5.296232400939063e-11 3.572217796086382e-11
          4.0635591317451727e-11 1.5644321556132487e-10 1.0718616466566149e-10 9.571167107567042e-11 6.527989196407634e-11 4.215027022150312e-10
          2.92712631120377e-10 2.460785287707116e-10 2.9973991948598905e-11 5.39860054096146e-11 2.0062790834756273e-11 3.66714859335128e-11
          1.6359523801692384e-11 2.8322467951896166e-11 1.9177894267383662e-11 1.3167920658290252e-10 9.061502072047258e-11 6.516573723577949e-11
          9.026259791593259e-9 8.65299274305301e-9 7.261718971038888e-9 6.9625090057121394e-9 7.622852012896089e-9 6.130247523114862e-9
          1.3249674862436063e-8 1.2827079315834786e-8 1.0528442542024685e-8 1.1554581412372629e-8 5.748288157793557e-9 5.506003692608318e-9
          4.443550544134629e-9 4.2481041094402164e-9 4.8288562480665094e-9 3.7036205314941005e-9 8.685997365194061e-9 8.38257891676882e-9
          6.607540326948796e-9 7.511046997986275e-9 6.164219230546369e-9 4.93464099978152e-9 4.5482835275430454e-9 3.6016256344150276e-9
          9.559475980019227e-9 7.755232062874761e-9 7.2251732788176854e-9 3.854641747030176e-9 2.928082991056333e-9 2.7785560457175135e-9
          2.0857949337088818e-9 6.191578575062739e-9 4.835370224645057e-9 4.622485235247044e-9 1.216219883400178e-8 1.2333494464207151e-8
          1.0812346245253907e-8 1.0747523512908218e-8 1.223915774608924e-8 1.0235991929570763e-8 9.57962359943618e-9 1.0282091504445894e-8
          9.560790449322985e-9 1.130692294397443e-8 8.733596622396909e-9 8.625402096421316e-9 6.907422954104138e-9 6.838980480156993e-9
          8.175236703228262e-9 6.512429976144569e-9 7.70050097308676e-9 7.783001472308048e-9 6.168870760976786e-9 7.75838072349908e-9
          1.0997939636805056e-8 8.971114215272146e-9 8.76977762375128e-9 7.146610680207227e-9 1.0944101640377025e-8 8.963215241806332e-9
          9.079270012581132e-9 7.2080485016456465e-9 5.734243638023361e-9 5.739741905668339e-9 4.501455759291107e-9 7.196442411820232e-9
          5.763593422241885e-9 5.9740972708229e-9 3.333705325810334e-9 3.1803884002920158e-9 2.4232346322038596e-9 2.307881562392323e-9
          2.7565054956701e-9 1.9906484385936267e-9 5.309493002984243e-9 5.112333636581706e-9 3.830615499871927e-9 4.5390491451662296e-9
          2.1605852957984515e-9 1.5490080954247129e-9 1.5234106378117803e-9 1.082904683451892e-9 3.666926810333376e-9 2.6923095317567728e-9
          2.6563449031706795e-9 5.5065441857930245e-9 5.441097276761683e-9 4.306237482787785e-9 4.229090778407465e-9 5.140847463973121e-9
          3.9333752064213916e-9 4.9217031565562995e-9 4.981647825273909e-9 3.967003206798663e-9 4.961728233329581e-9 4.453422211097804e-9
          3.3411522877480974e-9 3.42169783893857e-9 2.5181260599549494e-9 4.527431206673874e-9 3.4329358662078806e-9 3.6164728901434226e-9
          3.0299463379198307e-9 2.3637061556343407e-9 1.8107945861282464e-9 1.3907587516264957e-9 4.949083392391162e-9 3.950829667785883e-9
          3.0152971781155324e-9 1.7978395528972135e-9 1.332873166585544e-9 1.0432664358098944e-9 7.64321438060622e-10 3.0719150366473213e-9
          2.322740472668991e-9 1.8014908819652628e-9 9.738757851543431e-10 7.371543035217138e-10 4.766782070702722e-10 3.562409057394603e-10
          1.622587649174858e-9 1.246646094121226e-9 7.798565951164339e-10 5.461136813380203e-10 3.959881718223938e-10 2.611038685971328e-10
          1.8765250370695407e-10 9.357167884181593e-10 6.861784181988013e-10 4.365226589784946e-10 6.276225140513879e-9 5.083917658162925e-9
          3.968849311530547e-9 3.147243052276065e-9 6.663532058261745e-9 5.424013129230467e-9 4.302242617061127e-9 4.015155862560528e-9
          3.079882367384122e-9 2.4298851708317735e-9 1.8261441851598253e-9 4.309003993588432e-9 3.3237094701686843e-9 2.657091997928032e-9
          2.1760984832365594e-9 1.6881838719558542e-9 1.046650999566851e-9 7.97066412723912e-10 2.38673087696521e-9 1.8577319881023312e-9
          1.1521111966723076e-9 1.2780914652097863e-9 9.442747062711668e-10 5.939441286453787e-10 4.330790859478286e-10 1.410669908398717e-9
          1.0449644198985849e-9 6.568205643443477e-10 9.632354165193288e-10 6.788916615654557e-10 5.470276464689425e-10 3.826040962473945e-10
          1.7076897406198703e-9 1.2211940831219885e-9 9.712883696689258e-10 2.8105632647025954e-10 1.952863952410114e-10 1.322268495578544e-10
          9.134140173793418e-11 4.917332216032706e-10 3.4445126954188696e-10 2.2474698702125327e-10 2.2934258175470956e-9 1.6585224350496325e-9
          1.3359277917445436e-9 9.517957704028303e-10 2.487251465622013e-9 1.8067316164444551e-9 1.4713290658628118e-9 6.810460063876518e-10
          4.796797827594682e-10 3.0901592221566144e-10 2.1578082146643648e-10 7.553778282141066e-10 5.330799565085095e-10 3.4294550713506604e-10
          3.4594816947766803e-11 5.5817396345178195e-11 2.4918325982344808e-11 4.0392881940911e-11 1.1686479682728197e-10 8.541731505698845e-11
          1.755352164118338e-11 2.8682804238741875e-11 1.217454423270562e-11 2.0034581940637703e-11 6.135433185766617e-11 4.3308224829230146e-11
          2.1604870277026266e-10 1.5966037935687398e-10 3.4202503091637756e-10 2.551011317330587e-10 1.1589737517718974e-10 8.260962035500272e-11
          1.8673317462132102e-10 1.341068132626575e-10 4.530391053403649e-10 3.398837839460175e-10 4.974359364765255e-10 3.739188709251658e-10
          2.5009067164068643e-10 1.8043728015915563e-10 2.7561316751407834e-10 1.9915834449311122e-10 5.781398919640395e-11 3.972554642961968e-11
          9.447516897367773e-11 6.528886561391923e-11 1.276281954112038e-10 8.849578789236222e-11 1.4105738829494453e-10 9.790830761403338e-11
        </DataArray>
        <DataArray type="Float64" Name="gradient_matprop_error" format="ascii" RangeMin="0" RangeMax="0">
          0 0 0 0 0 0
          0 0 0 0 0 0
          0 0 0 0 0 0
          0 0 0 0 0 0
          0 0 0 0 0 0
          0 0 0 0 0 0
          0 0 0 0 0 0
          0 0 0 0 0 0
          0 0 0 0 0 0
          0 0 0 0 0 0
          0 0 0 0 0 0
          0 0 0 0 0 0
          0 0 0 0 0 0
          0 0 0 0 0 0
          0 0 0 0 0 0
          0 0 0 0 0 0
          0 0 0 0 0 0
          0 0 0 0 0 0
          0 0 0 0 0 0
          0 0 0 0 0 0
          0 0 0 0 0 0
          0 0 0 0 0 0
          0 0 0 0 0 0
          0 0 0 0 0 0
          0 0 0 0 0 0
          0 0 0 0 0 0
          0 0 0 0 0 0
          0 0 0 0 0 0
          0 0 0 0 0 0
          0 0 0 0 0 0
          0 0 0 0 0 0
          0 0 0 0 0 0
          0 0 0 0 0 0
          0 0 0 0 0 0
          0 0 0 0 0 0
          0 0 0 0 0 0
          0 0 0 0 0 0
          0 0 0 0 0 0
          0 0 0 0 0 0
          0 0 0 0 0 0
          0 0 0 0 0 0
          0 0 0 0 0 0
          0 0 0 0 0 0
          0 0 0 0 0 0
          0 0 0 0 0 0
          0 0 0 0 0 0
          0 0 0 0 0 0
          0 0 0 0 0 0
          0 0 0 0 0 0
          0 0 0 0 0 0
          0 0 0 0 0 0
          0 0 0 0 0 0
          0 0 0 0 0 0
          0 0 0 0 0 0
          0 0 0 0 0 0
          0 0 0 0 0 0
          0 0 0 0 0 0
          0 0 0 0 0 0
          0 0 0 0 0 0
          0 0 0 0 0 0
          0 0 0 0 0 0
          0 0 0 0 0 0
          0 0 0 0 0 0
          0 0 0 0 0 0
          0 0 0 0 0 0
          0 0 0 0 0 0
          0 0 0 0 0 0
          0 0 0 0 0 0
          0 0 0 0 0 0
          0 0 0 0 0 0
          0 0 0 0 0 0
          0 0 0 0 0 0
          0 0 0 0 0 0
          0 0 0 0 0 0
          0 0 0 0 0 0
          0 0 0 0 0 0
          0 0 0 0 0 0
          0 0 0 0 0 0
          0 0 0 0 0 0
          0 0 0 0 0 0
          0 0 0 0 0 0
          0 0 0 0 0 0
          0 0 0 0 0 0
          0 0 0 0 0 0
          0 0 0 0 0 0
          0 0 0 0 0 0
          0 0 0 0 0 0
          0 0 0 0 0 0
          0 0 0 0 0 0
          0 0 0 0 0 0
          0 0 0 0 0 0
          0 0 0 0 0 0
          0 0 0 0 0 0
          0 0 0 0 0 0
          0 0 0 0 0 0
          0 0 0 0 0 0
          0 0 0 0 0 0
          0 0 0 0 0 0
          0 0 0 0 0 0
          0 0 0 0 0 0
          0 0 0 0 0 0
          0 0 0 0 0 0
          0 0 0 0 0 0
          0 0 0 0 0 0
          0 0 0 0 0 0
          0 0 0 0 0 0
        </DataArray>
        <DataArray type="Float64" Name="initial_marker" format="ascii" RangeMin="0" RangeMax="2">
          0 2 0 1 0 2
          0.25 2 2 2 2 0
          0 0 2 2 0 2
          2 2 2 0 0 0
          0 0 0 0 0 0
          0 0 0 0 1 2
          2 2 2 0 2 1
          2 2 2 2 2 2
          2 2 0 0 1 0.75
          2 2 0 2 2 0
          2 2 2 2 2 2
          2 2 2 2 2 2
          0 2 0 1.5 0 1
          0.5 2 2 2 0 1.25
          0 0.5 2 2 2 2
          2 2 2 2 2 2
          2 2 2 2 2 2
          2 2 2 2 2 2
          2 2 2 2 2 2
          2 0 0 0 0 0
          0 0 0 0 0 0
          0 0 0 0 0 0
          0 0 0 0 0 0
          0 0 0 0 0 2
          2 2 2 2 1.5 1.75
          1.25 2 2 2 2 2
          2 2 2 0 1 1
          2 0 0.5 0 1.5 2
          2 2 2 2 2 2
          2 2 2 2 2 2
          2 2 2 2 2 2
          2 2 2 2 2 2
          2 2 2 2 2 2
          2 1 1.5 2 2 2
          2 2 2 2 2 2
          2 2 2 2 2 1.75
          2 2 2 2 1 1
          1.5 1.5 0 1 1 0.5
          1.25 1 2 2 2 2
          1 1.5 0.5 1.25 0 1
          1 2 2 2 0 1
          0 1 0 1 1 2
          2 2 2 2 2 2
          2 2 2 2 2 2
          2 2 2 2 2 2
          2 2 2 2 2 2
          2 2 2 2 2 2
          2 2 2 2 2 2
          0 0 1 1 0 1
          2 2 2 2 0 1
          0 1 2 2 2 2
          2 2 2 2 2 2
          2 2 2 2 2 2
          2 2 2 2 0 1
          0 1 0 1 1 2
          2 2 0 1 0 1
          0 0.75 0.6666666666666666 2 2 1.75
          0 0.5 0 0.5 0 0
          0 1.5 1.5 1.3333333333333333 0 0.25
          0 0 0 0 0 1.25
          1.3333333333333333 1 2 2 2 2
          2 2 2 2 2 2
          2 2 2 2 2 2
          2 2 2 2 2 2
          2 1.75 1.5 2 2 2
          0 1 0 1 2 1.75
          2 2 2 2 2 2
          2 2 2 2 2 2
          1 1.5 1.5 2 2 2
          2 2 2 2 2 2
          2 2 2 2 2 2
          2 2 2 2 2 2
          2 2 2 2 2 2
          2 2 2 2 2 2
          2 2 2 2 2 2
          2 2 2 2 2 2
          2 2 2 2 2 2
          2 2 2 2 2 2
          2 2 2 2 2 2
          2 2 2 2 2 2
          2 2 2 2 2 2
          2 2 2 2 2 2
          2 2 2 2 2 2
          2 2 2 2 2 2
          2 2 2 2 2 2
          2 2 2 2 2 2
          2 2 2 2 2 2
          2 2 2 2 2 2
          2 2 2 2 2 2
          2 2 2 2 2 2
          2 2 2 2 2 2
          2 2 2 2 2 2
          2 2 2 2 2 2
          2 2 2 2 2 2
          2 2 2 2 2 2
          2 2 2 2 2 2
          2 2 2 2 2 2
          2 2 2 2 2 2
          2 2 2 2 2 2
          2 2 2 2 2 2
          1 1.5 1 1.5 2 2
          0.5 1.25 0 1 2 2
          2 2 2 2 2 2
          2 2 2 2 2 2
          2 2 2 2 2 2
          2 2 2 2 2 2
        </DataArray>
        <DataArray type="Float64" Name="markers_norefine" format="ascii" RangeMin="0" RangeMax="2">
          0 2 0 0 0 0
          0 0 0 0 0 0
          0 0 0 0 0 0
          0 0 0 0 0 0
          0 0 0 0 0 0
          0 0 0 0 0 0
          0 0 0 0 0 0
          0 0 0 0 0.5 0
          0 0 0 0 0 0
          0 0 0 0 0 0
          0 0 0 0 0 0
          0 0 0 0 0 0
          0 0 0 0 0 0
          0 0 0 0 0 0
          0 0 0 0 0 0
          0 0 0 0 0 0
          0 0 0 0 0 0
          0 0 0 0 0 0
          0 0 0 0 0 0
          0 0 0 0 0 0
          0 0 0 0 0 0
          0 0 0 0 0 0
          0 0 0 0 0 0
          0 0 0 0 0 0
          0 0 0 0 0 0
          0 0 0 0 0 0
          0 0 0 0 0 0
          0 0 0 0 0 0
          0 0 0 0 0 0
          0 0 0 0 0 0
          1 0.75 0.25 1.5 0 0
          0 0 0 0 0 0
          0 0 0 0 0 0
          0 0 0 0 0 0
          0 0 0 0 0 0
          0 0 0 0 0 0
          0 0 0 0 0 0
          0 0 0 0 0 0
          0 0 0 0 0 0
          0 0 0 0 0 0
          0 0 0 0 0 0
          0 0 0 0 0 0
          0 0 0 0 0 0
          0 0 0 0 0 0
          0 0 0 0 0 0
          0 0 0 0 0 0
          0 0 0 0 0 0
          0 0 0 0 0 0
          0 0 0 0 0 0
          0 0 0 0 0 0
          0 0 0 0 0 0
          0 0 0 0 0 0
          0 0 0 0 0 0
          0 0 0 0 0 0
          0 0 0 0 0 0
          0 0 0 0 0 0
          0 0 0 0 0 0
          0 0 0 0 0 0
          0 0 0 0 0 0
          0 0 0 0 0 0
          0 0 0 0 0 0
          0 0 0 0 0 0
          0 0 0 0 0 0
          0 0 0 0 0 0
          0 0 0 0 0 0
          0 0 0 0 0 0
          0 0 0 0 0 0
          0 0 0 0 0 0
          0 0 0 0 0 0
          0 0 0 0 0 0
          0 0 0 0 0 0
          0 0 0 0 0 0
          0 0 0 0 0 0
          0 0 0 0 0 0
          0 0 0 0 0.5 0.25
          0 0 0 0 1 0.5
          0 0 0 0 0 0
          0 0 0 0 0 0
          0 0 0 0 0 0
          0 0 0 0 0 0
          0 0 0 0 0 0
          0 0 0 0 0 0
          0 0 0 0 0 0
          0 0 0 0 0 0
          0 0 0 0 0 0
          0 0 0 0 0 0
          0 0 0 0 0 0
          0 0 0 0 0 0
          0 0 0 0 0 0
          0 0 0 0 0 0
          0 0 0 0 0 0
          0 0 0 0 0 0
          0 0 0 0 0 0
          0 0 0 0 0 0
          0 0 0 0 0 0
          0 0 0 0 0 0
          0 0 0 0 0 0
          0 0 0 0 0 0
          0 0 0 0 0 0
          0 0 0 0 0 0
          0 0 0 0 0 0
          0 0 0 0 0 0
          0 0 0 0 0 0
          0 0 0 0 0 0
          0 0 0 0 0 0
          0 0 0 0 0 0
        </DataArray>
        <DataArray type="Float64" Name="markers_mustrefine" format="ascii" RangeMin="0" RangeMax="2">
          0 2 0 1 0 2
          0.25 2 2 2 2 0
          0 0 2 2 0 2
          2 2 2 0 0 0
          0 0 0 0 0 0
          0 0 0 0 1 2
          2 2 2 0 2 1