<?xml version="1.0"?>
<VTKFile type="UnstructuredGrid" version="0.1" byte_order="LittleEndian" header_type="UInt32" compressor="vtkZLibDataCompressor">
  <UnstructuredGrid>
    <Piece NumberOfPoints="416" NumberOfCells="209">
      <PointData>
        <DataArray type="Int32" Name="libmesh_node_id" format="ascii" RangeMin="105" RangeMax="3776">
          173 174 191 204 205 206
          207 208 209 223 224 225
          231 232 233 234 235 236
          237 239 241 242 243 245
          246 247 248 249 306 307
          308 309 310 311 312 313
          314 315 316 317 318 319
          320 321 322 323 324 327
          328 333 335 336 338 467
          468 469 470 471 472 473
          474 475 476 477 478 479
          480 481 482 483 484 485
          486 487 488 489 490 491
          492 493 494 495 496 497
          498 499 726 752 753 754
          755 758 759 760 762 763
          765 804 805 808 814 816
          817 818 819 820 821 822
          823 824 825 826 827 828
          829 830 831 834 835 837
          839 1553 1554 1556 1557 1558
          1559 1560 1561 1562 1563 1564
          1565 1566 1567 1568 1569 1570
          1571 1572 1573 1574 1575 1576
          1577 1578 1579 1580 1581 1582
          1583 1584 1585 1586 1587 1588
          1589 1590 1591 1592 1593 1594
          1595 1596 1597 1598 1599 1600
          1621 1622 1623 1624 1625 1626
          1627 1628 1629 1630 1631 1632
          1633 1634 1635 1636 1637 1638
          1639 1640 1641 1642 1643 1644
          1645 1646 1647 1648 1649 1650
          1651 1652 1653 1654 3393 3394
          3395 3396 3397 3398 3399 3400
          3401 3402 3441 3442 3443 3444
          3445 3446 3447 3448 3449 3450
          3451 3452 3453 3454 3455 3456
          3457 3458 3459 3460 3461 3462
          3463 3464 3465 3466 3467 3468
          3469 3470 3471 3472 3473 3474
          3475 3476 3477 3478 3479 3480
          3481 3482 3483 3484 3485 3486
          3487 3488 3489 3490 3491 3492
          3493 3494 3495 3496 3497 3498
          3499 3500 3501 3502 3503 3504
          3505 3506 3507 3508 3509 3510
          3511 3512 3513 3514 3515 3516
          3517 3518 3519 3520 3521 3522
          3742 3743 3744 3755 3756 3757
          3758 3759 3760 3771 3772 3773
          3774 3775 3776 105 107 108
          106 138 140 141 139 142
          143 175 176 158 157 172
          190 159 192 238 240 244
          326 332 329 253 331 334
          500 501 502 503 507 508
          510 511 513 258 720 721
          263 725 723 724 727 731
          732 733 734 325 739 740
          756 757 761 261 764 802
          803 806 807 812 813 832
          509 833 836 337 838 1555
          719 3382 3383 3384 3388 171
          3390 3392 3436 3437 3567 3568
          3569 3570 3440 3571 3572 3736
          3737 3738 3739 3740 3741 3727
          3728 3435 3734 3731 3747 3748
          3750 3438 3753 3439 3763 3764
          3767 3769
        </DataArray>
        <DataArray type="Float64" Name="bounds" format="ascii" RangeMin="0" RangeMax="0">
          0 0 0 0 0 0
          0 0 0 0 0 0
          0 0 0 0 0 0
          0 0 0 0 0 0
          0 0 0 0 0 0
          0 0 0 0 0 0
          0 0 0 0 0 0
          0 0 0 0 0 0
          0 0 0 0 0 0
          0 0 0 0 0 0
          0 0 0 0 0 0
          0 0 0 0 0 0
          0 0 0 0 0 0
          0 0 0 0 0 0
          0 0 0 0 0 0
          0 0 0 0 0 0
          0 0 0 0 0 0
          0 0 0 0 0 0
          0 0 0 0 0 0
          0 0 0 0 0 0
          0 0 0 0 0 0
          0 0 0 0 0 0
          0 0 0 0 0 0
          0 0 0 0 0 0
          0 0 0 0 0 0
          0 0 0 0 0 0
          0 0 0 0 0 0
          0 0 0 0 0 0
          0 0 0 0 0 0
          0 0 0 0 0 0
          0 0 0 0 0 0
          0 0 0 0 0 0
          0 0 0 0 0 0
          0 0 0 0 0 0
          0 0 0 0 0 0
          0 0 0 0 0 0
          0 0 0 0 0 0
          0 0 0 0 0 0
          0 0 0 0 0 0
          0 0 0 0 0 0
          0 0 0 0 0 0
          0 0 0 0 0 0
          0 0 0 0 0 0
          0 0 0 0 0 0
          0 0 0 0 0 0
          0 0 0 0 0 0
          0 0 0 0 0 0
          0 0 0 0 0 0
          0 0 0 0 0 0
          0 0 0 0 0 0
          0 0 0 0 0 0
          0 0 0 0 0 0
          0 0 0 0 0 0
          0 0 0 0 0 0
          0 0 0 0 0 0
          0 0 0 0 0 0
          0 0 0 0 0 0
          0 0 0 0 0 0
          0 0 0 0 0 0
          0 0 0 0 0 0
          0 0 0 0 0 0
          0 0 0 0 0 0
          0 0 0 0 0 0
          0 0 0 0 0 0
          0 0 0 0 0 0
          0 0 0 0 0 0
          0 0 0 0 0 0
          0 0 0 0 0 0
          0 0 0 0 0 0
          0 0
        </DataArray>
        <DataArray type="Float64" Name="gradient_error" format="ascii" RangeMin="7.003214136826771e-10" RangeMax="0.0000016644961725074009">
          4.184458526836442e-7 9.905435416627547e-8 1.2054189549288072e-8 9.063359590633394e-7 1.4552667729274782e-7 0.0000014091424810287615
          6.860344613646969e-8 2.0643069233149254e-7 1.5915408625612968e-8 1.4268607148740876e-8 3.2849121899516505e-9 1.768453003742121e-9
          4.1569754824706606e-7 2.7363156454878466e-7 3.2015526093533273e-7 0.000001022255603237485 9.439894420685534e-7 4.594516619055984e-7
          5.566564120958266e-7 4.93862957692662e-7 7.015273830022247e-8 4.755891202767988e-8 7.90938094714082e-8 9.695481694711584e-7
          0.000001254614401097795 0.0000011478900930677402 4.106036675386307e-7 4.055459782703036e-8 0.0000014780019160090226 0.000001221909108162866
          0.000001231187444735709 0.0000012311183388678424 9.005371581313903e-7 9.588959397579954e-7 0.0000013245478750440964 5.82689381543149e-7
          6.194984397737553e-7 5.97558812556251e-7 6.131469889157069e-7 7.252344717356875e-7 9.499430801801036e-7 4.7302845057027524e-7
          1.7757259796958662e-7 7.08292097683281e-7 0.0000014216363743805678 3.4285249816411283e-7 8.527196067363293e-7 3.5733581343615384e-7
          4.4683418203672143e-7 4.235159963330101e-7 2.5744236465311455e-7 3.984837477323887e-7 3.793526750758682e-7 3.5549971006707657e-7
          3.46262471241183e-7 3.1604686754619283e-7 2.5032249911167223e-7 2.720651946801959e-7 2.9997424304012887e-7 2.78277341803847e-7
          3.213544833127734e-7 2.929243478814679e-7 3.221100826629502e-7 2.9930350797555734e-7 3.097823187066833e-7 2.96498574390191e-7
          3.336575691203712e-7 1.8863067929331527e-7 2.5368601483907474e-7 2.4050781606150115e-7 2.723134230986851e-7 3.2026112943780915e-7
          3.3038780218810103e-7 3.1544859938855745e-7 3.1281416208755633e-7 3.4615109639871785e-7 3.4050216075241107e-7 3.393200522105389e-7
          3.757097553795313e-7 3.002704900439612e-7 3.5730721650691775e-7 3.831205984583936e-7 2.2981425526117509e-7 2.985636386632481e-7
          3.299676002974006e-7 3.6888657485968876e-7 4.971272970746416e-9 8.83984946678543e-8 1.1550866986404001e-7 1.7171099112591527e-7
          2.0601607244863807e-7 8.420935726329577e-9 9.878378052960181e-9 1.9803256884270704e-8 2.550234875839763e-7 2.965234750332361e-7
          1.1335820379590788e-8 1.1865564389884537e-7 2.0546626541541434e-7 1.8910402747100272e-7 1.7274178952659104e-7 2.509038308910411e-7
          2.432986284270651e-7 2.819856826319739e-7 2.714808021601856e-7 2.572973496758112e-7 2.9226588855952193e-7 2.020149848282265e-7
          2.288449629599916e-7 2.2694228352406129e-7 2.3039003875078048e-7 3.130675343729065e-7 2.996629758933061e-7 3.272344274432327e-7
          2.556749410917567e-7 2.6256458642481434e-7 3.019941985336478e-7 1.9845504945907566e-7 2.3052758002322887e-7 3.414238106424813e-7
          2.626001105873821e-7 2.692001263171004e-7 2.2099149132446566e-7 6.585976319123451e-7 8.624035202885427e-7 5.250183150334755e-7
          4.6385997492644344e-7 1.2486638019002168e-7 1.1480300493247709e-7 1.5452621827476908e-7 0.000001112428592618198 0.0000010369485935412843
          9.340319195417832e-7 1.0435370026437424e-7 5.807939322590536e-9 7.818293856998237e-9 6.256859108952381e-9 9.488519102829744e-9
          2.875982895239376e-9 2.474631816280466e-9 3.5924226789821065e-9 6.705778895314225e-9 1.1158744348661254e-8 2.0732807373215558e-9
          0.0000014324368929988996 0.000001209823084747978 0.0000011714277697627241 0.000001389522066047406 0.0000015207906527864503 0.0000014371596286276894
          0.0000013334572575039313 6.605941132789206e-7 9.325691447337788e-7 9.076396098213416e-7 0.0000016091444125740011 0.0000016644961725074009
          0.0000014954867452451383 0.000001204544176188637 1.4324051582386063e-7 1.6952092970020718e-7 2.3693442989601249e-7 2.6561911467768605e-7
          2.6003354133016504e-8 3.589257969288142e-8 5.4181406528860755e-8 3.3062834396816434e-7 3.617172996551649e-7 4.578180525274633e-8
          2.8307633831612923e-7 2.7541937355068255e-7 2.5032864359158046e-7 2.3962532384378565e-7 2.3987187114788767e-7 2.5562943346008164e-7
          2.4385312643242177e-7 2.6776240878523587e-7 2.7138699577227573e-7 2.4808092902105784e-7 1.96667403979646e-7 2.3583949336948076e-7
          2.3737760927326303e-7 2.750115827593155e-7 2.31098221521797e-7 2.2305921939313686e-7 2.599383062808265e-7 2.536553482465604e-7
          2.0061465950776878e-7 2.281952665483482e-7 2.3027934231459107e-7 2.887783910398559e-7 2.842514770999839e-7 2.557758735889276e-7
          1.4777412581704638e-7 1.4109946634587217e-7 1.5702828477019083e-7 2.0694033408289942e-7 2.063678306396555e-7 1.8912905549439964e-7
          1.886391251270402e-7 1.3442480687469792e-7 1.7189028034914385e-7 1.7033791617118098e-7 3.8956411658411684e-8 2.751830163521708e-8
          6.050997865923998e-8 4.851881655034431e-8 2.8500458560064376e-8 6.193522031233995e-8 4.855942306632138e-8 1.6080191612022485e-8
          3.6527654441448654e-8 3.5183625820302806e-8 6.513522880677532e-9 5.007002268720835e-9 1.5631556368242936e-8 2.646811819344261e-8
          3.374259256187384e-9 5.529210355384449e-9 8.378303796594482e-9 2.4749589855808342e-8 4.7929234118164385e-8 7.684161454581516e-9
          1.934833985719832e-7 2.1509626584913337e-7 2.9246142952495694e-7 3.1557900603445017e-7 5.29878470831818e-8 7.331317405128479e-8
          9.327124138667328e-8 3.9143946047793073e-7 4.160617462197669e-7 9.363850101938779e-8 1.0607448381094985e-7 8.966359023398189e-8
          8.257483796679633e-8 1.6246072733744385e-7 1.4844235325448704e-7 1.278395949066541e-7 1.413468777788237e-7 9.42769280937973e-8
          1.412173499166077e-7 1.2084464122394399e-7 7.325269665701393e-8 1.072368365588212e-7 1.2023302822020356e-7 1.0047193253128023e-7
          6.770380227845019e-7 5.98388192938659e-7 5.879286984840187e-7 7.724393594962281e-7 4.841218931314878e-7 9.960814902402167e-7
          0.0000010823443443501758 0.000001076483368087452 0.000001002361814275101 0.0000011766695728997881 0.000001156679043989045 8.199249638750048e-7
          7.887655651013488e-7 8.508668747527081e-7 0.0000010014228658293724 0.0000011222059498769124 0.0000010289851491730156 0.0000012284052259107935
          9.84277576283092e-7 0.0000013081539360279966 0.0000011309615967279641 0.0000012772340828685734 0.0000012413062024558597 6.687834862363862e-7
          8.802422217361163e-7 0.0000012463142297091503 0.0000013516508081837553 0.0000010917009572358464 2.639227899396809e-7 2.7538280314660285e-7
          3.6065447425735446e-7 3.69164649897997e-7 2.501740595743658e-7 3.4918895732490606e-7 1.1495662667053096e-7 1.5208141258942766e-7
          1.6944030790328162e-7 1.3333268022269814e-7 4.573861585750281e-7 4.6294649664939104e-7 4.482038550754463e-7 1.8920619850832436e-7
          2.3395852475140621e-7 3.3432133996255975e-7 8.411933445797141e-8 1.135365584960326e-7 4.3468415517371323e-7 1.4295378253409377e-7
          6.404305099182022e-7 5.765055578194602e-7 4.838756258467221e-7 9.195713869295735e-7 9.355596778773219e-7 7.582852835792673e-7
          8.230243149492915e-7 9.461364302136814e-7 8.864140380231347e-7 2.847309453485464e-7 3.75115145073075e-7 1.4299622459836272e-7
          1.8520769181268583e-7 4.654993447976036e-7 2.2741915902700892e-7 4.311993933016205e-8 4.03492287181682e-8 2.1830946525975936e-8
          2.316326486039351e-8 5.542155081387732e-8 1.0292259929549782e-7 5.493508770696748e-8 2.6919867948019666e-8 8.14863444632036e-8
          4.3188985463933235e-8 1.3876581112484563e-7 5.1255351395283285e-8 1.2699536567298714e-8 1.1213630927032125e-8 1.2188433153725735e-7
          9.966628232846056e-9 6.78495747751515e-9 6.099915124779353e-9 7.491909566786843e-8 3.3321676125330104e-7 2.291563248155788e-8
          2.565621160331409e-7 3.385280857823096e-7 2.3511519672505003e-7 2.292617116941356e-7 4.49666943710194e-7 3.6469557979772455e-7
          3.825665636638324e-7 3.6250010958909765e-7 3.7483780114456666e-7 4.122472965017487e-7 3.371804781397596e-7 4.115588044514988e-7
          2.900788738785552e-7 3.673129782397171e-7 4.323972966492297e-7 8.28627781211877e-9 1.6491334309162748e-9 3.822671033524897e-9
          7.53275485597313e-9 2.299645308859298e-9 7.003214136826771e-10 1.5492178466565177e-9 8.739324522055364e-10 3.163001464354288e-8
          3.591102265566954e-8 2.5024523199062534e-8 2.221340960275655e-8 8.83231300251457e-8 1.4138023742455521e-8 1.2796804561970215e-8
          6.239523166031813e-8 1.3527944512041675e-7 7.543004240195692e-9 3.3391522104421347e-7 2.0816365858051537e-7 1.0412726859108033e-7
          1.0781183003639749e-7 2.0483183375408352e-7 1.878152172254062e-7 1.1149639148171465e-7 1.7079860069672888e-7 2.664405194408645e-7
          4.4269701877800135e-7 3.1088361167082787e-7 2.2855063759920625e-7 4.710800793421993e-7 3.553267039007913e-7 1.496193393054026e-7
          2.674069096303379e-9 2.737457606662191e-8 5.2242424716004734e-8 4.551454001967842e-8 3.8786655323352096e-8 7.893401989390448e-8
          1.6983121488048904e-7 1.909185413003457e-7 4.831076571794957e-7 1.98868575980065e-7 8.38085300230983e-9 4.3011103548610564e-8
          2.566757742094957e-9 1.1843778807203045e-8 1.8859164349270244e-7 7.76413540949113e-8 2.112079987231113e-8 8.589193613090443e-8
          7.931016038457024e-8 1.7531724852872668e-7 1.536691752412641e-7 7.272838463823605e-8 1.3202110195380151e-7 1.865951469344773e-7
          1.6452265173848242e-7 6.221491999627007e-7 5.640751814729225e-7 1.424501565424876e-7 8.515526242623237e-7 8.751854725368003e-7
          7.286506135289111e-7 7.500012657252343e-7 8.724337221521039e-7 8.41497531849481e-7 2.9218149966736635e-7 3.788783157806537e-7
          1.992737253147624e-7 4.655751318939411e-7
        </DataArray>
        <DataArray type="Float64" Name="gradient_matprop_error" format="ascii" RangeMin="0" RangeMax="0">
          0 0 0 0 0 0
          0 0 0 0 0 0
          0 0 0 0 0 0
          0 0 0 0 0 0
          0 0 0 0 0 0
          0 0 0 0 0 0
          0 0 0 0 0 0
          0 0 0 0 0 0
          0 0 0 0 0 0
          0 0 0 0 0 0
          0 0 0 0 0 0
          0 0 0 0 0 0
          0 0 0 0 0 0
          0 0 0 0 0 0
          0 0 0 0 0 0
          0 0 0 0 0 0
          0 0 0 0 0 0
          0 0 0 0 0 0
          0 0 0 0 0 0
          0 0 0 0 0 0
          0 0 0 0 0 0
          0 0 0 0 0 0
          0 0 0 0 0 0
          0 0 0 0 0 0
          0 0 0 0 0 0
          0 0 0 0 0 0
          0 0 0 0 0 0
          0 0 0 0 0 0
          0 0 0 0 0 0
          0 0 0 0 0 0
          0 0 0 0 0 0
          0 0 0 0 0 0
          0 0 0 0 0 0
          0 0 0 0 0 0
          0 0 0 0 0 0
          0 0 0 0 0 0
          0 0 0 0 0 0
          0 0 0 0 0 0
          0 0 0 0 0 0
          0 0 0 0 0 0
          0 0 0 0 0 0
          0 0 0 0 0 0
          0 0 0 0 0 0
          0 0 0 0 0 0
          0 0 0 0 0 0
          0 0 0 0 0 0
          0 0 0 0 0 0
          0 0 0 0 0 0
          0 0 0 0 0 0
          0 0 0 0 0 0
          0 0 0 0 0 0
          0 0 0 0 0 0
          0 0 0 0 0 0
          0 0 0 0 0 0
          0 0 0 0 0 0
          0 0 0 0 0 0
          0 0 0 0 0 0
          0 0 0 0 0 0
          0 0 0 0 0 0
          0 0 0 0 0 0
          0 0 0 0 0 0
          0 0 0 0 0 0
          0 0 0 0 0 0
          0 0 0 0 0 0
          0 0 0 0 0 0
          0 0 0 0 0 0
          0 0 0 0 0 0
          0 0 0 0 0 0
          0 0 0 0 0 0
          0 0
        </DataArray>
        <DataArray type="Float64" Name="initial_marker" format="ascii" RangeMin="0" RangeMax="2">
          0 0 0 0 0 0
          0 2 0 0 0 0
          0 0 0 0 0 0
          0 0 0 0 0 0
          0 0 0 0 0 0
          0 0 0 0 0 0
          0 0 0 0 0 0
          0 0 0 0 0 0.5
          0 0 2 1 0 0
          0 0 0 0.5 0.25 0
          0 1 0.5 0 0 0
          0 1 0.5 0 1 0
          0 0 1 0.75 0.25 1.5
          1.25 0 0.25 0.5 2 1.5
          2 0.5 0 0 0 0
          0 0 0 0 0 0
          0 0 0 0 0 0
          0 0 0 0 0 0
          0 0 0 0 0 0
          0 0 0 0 0 0
          0 0 0 0 0 0
          0 0 0 0 0 0
          0 0 0 0 0 0
          0 0 0 0 0 0
          0 0 0 0 0 0
          0 0 0 0 0 0
          0 0 0 0 0 0
          0 0 0 0 0 0
          0 0 0 0 0 0
          0 0 0 0 0 0
          0 0 0 0 0 0
          0 0 0 0 0 0
          0 0 0 0 0 0
          0 0 0 0 0 0
          0 0 0 0 0 0
          0 0 0 0 0 0
          0 0 0 0 0 0
          0 0 0 0 0 0
          0 0 0 0 0 0
          0 0 0 0 0 0
          0 0 0 0 0 0
          0 0 0 0 0 0
          0 0 0 0 0 0
          0 0 0 0 0 0
          0 0 0 0 0 0
          0 0 0 0 0 0
          0 0 0 0 0 0
          0 0 0 0 0 0
          0 0 0 0 0 0
          0 0 0 0 0 0
          0 0 0 0 0 0
          0 0 0 0 0 0
          0 0 0 0 0 0
          0 0 0 0 0 0
          0 0 0 0 0 0
          0 0 0 0 0.25 0
          1 0.5 2 1.5 0 0.5
          2 2 1 0 0 0
          0 0 0 0 0 0
          0 0 0 0 0 0
          0 0 0 0 0 0
          0 0 0 0 0 0
          0.75 0 0 1 0 0
          0 0 0 0 0 0
          0 0 0 0 0 0
          0 0 0 0 0 0
          0 0 0 0 0 0
          0 0 0 0 0 0
          0 0 0 0 0 0
          0 0
        </DataArray>
        <DataArray type="Float64" Name="markers_norefine" format="ascii" RangeMin="0" RangeMax="0">
          0 0 0 0 0 0
          0 0 0 0 0 0
          0 0 0 0 0 0
          0 0 0 0 0 0
          0 0 0 0 0 0
          0 0 0 0 0 0
          0 0 0 0 0 0
          0 0 0 0 0 0
          0 0 0 0 0 0
          0 0 0 0 0 0
          0 0 0 0 0 0
          0 0 0 0 0 0
          0 0 0 0 0 0
          0 0 0 0 0 0
          0 0 0 0 0 0
          0 0 0 0 0 0
          0 0 0 0 0 0
          0 0 0 0 0 0
          0 0 0 0 0 0
          0 0 0 0 0 0
          0 0 0 0 0 0
          0 0 0 0 0 0
          0 0 0 0 0 0
          0 0 0 0 0 0
          0 0 0 0 0 0
          0 0 0 0 0 0
          0 0 0 0 0 0
          0 0 0 0 0 0
          0 0 0 0 0 0
          0 0 0 0 0 0
          0 0 0 0 0 0
          0 0 0 0 0 0
          0 0 0 0 0 0
          0 0 0 0 0 0
          0 0 0 0 0 0
          0 0 0 0 0 0
          0 0 0 0 0 0
          0 0 0 0 0 0
          0 0 0 0 0 0
          0 0 0 0 0 0
          0 0 0 0 0 0
          0 0 0 0 0 0
          0 0 0 0 0 0
          0 0 0 0 0 0
          0 0 0 0 0 0
          0 0 0 0 0 0
          0 0 0 0 0 0
          0 0 0 0 0 0
          0 0 0 0 0 0
          0 0 0 0 0 0
          0 0 0 0 0 0
          0 0 0 0 0 0
          0 0 0 0 0 0
          0 0 0 0 0 0
          0 0 0 0 0 0
          0 0 0 0 0 0
          0 0 0 0 0 0
          0 0 0 0 0 0
          0 0 0 0 0 0
          0 0 0 0 0 0
          0 0 0 0 0 0
          0 0 0 0 0 0
          0 0 0 0 0 0
          0 0 0 0 0 0
          0 0 0 0 0 0
          0 0 0 0 0 0
          0 0 0 0 0 0
          0 0 0 0 0 0
          0 0 0 0 0 0
          0 0
        </DataArray>
        <DataArray type="Float64" Name="markers_mustrefine" format="ascii" RangeMin="0" RangeMax="2">
          0 0 0 0 0 0
          0 2 0 0 0 0
          0 0 0 0 0 0
          0 0 0 0 0 0
          0 0 0 0 0 0
          0 0 0 0 0 0
          0 0 0 0 0 0
          0 0 0 0 0 0.5
          0 0 2 1 0 0
          0 0 0 0.5 0.25 0
          0 1 0.5 0 0 0
          0 1 0.5 0 1 0
          0 0 1 0.75 0.25 1.5
          1.25 0 0.25 0.5 2 1.5
          2 0.5 0 0 0 0
          0 0 0 0 0 0
          0 0 0 0 0 0
          0 0 0 0 0 0
          0 0 0 0 0 0
          0 0 0 0 0 0
          0 0 0 0 0 0
          0 0 0 0 0 0
          0 0 0 0 0 0
          0 0 0 0 0 0
          0 0 0 0 0 0
          0 0 0 0 0 0
          0 0 0 0 0 0
          0 0 0 0 0 0
          0 0 0 0 0 0
          0 0 0 0 0 0
          0 0 0 0 0 0
          0 0 0 0 0 0
          0 0 0 0 0 0
          0 0 0 0 0 0
          0 0 0 0 0 0
          0 0 0 0 0 0
          0 0 0 0 0 0
          0 0 0 0 0 0
          0 0 0 0 0 0
          0 0 0 0 0 0
          0 0 0 0 0 0
          0 0 0 0 0 0
          0 0 0 0 0 0
          0 0 0 0 0 0
          0 0 0 0 0 0
          0 0 0 0 0 0
          0 0 0 0 0 0
          0 0 0 0 0 0
          0 0 0 0 0 0
          0 0 0 0 0 0
          0 0 0 0 0 0
          0 0 0 0 0 0
          0 0 0 0 0 0
          0 0 0 0 0 0
          0 0 0 0 0 0
          0 0 0 0 0.25 0
          1 0.5 2 1.5 0 0.5
          2 2 1 0 0 0
          0 0 0 0 0 0
          0 0 0 0 0 0
          0 0 0 0 0 0
          0 0 0 0 0 0
          0.75 0 0 1 0 0
          0 0 0 0 0 0
          0 0 0 0 0 0
          0 0 0 0 0 0
          0 0 0 0 0 0
          0 0 0 0 0 0
          0 0 0 0 0 0
          0 0
        </DataArray>
        <DataArray type="Float64" Name="gradient_marker" format="ascii" RangeMin="1" RangeMax="1">
          1 1 1 1 1 1
          1 1 1 1 1 1
          1 1 1 1 1 1
          1 1 1 1 1 1
          1 1 1 1 1 1
          1 1 1 1 1 1
          1 1 1 1 1 1
          1 1 1 1 1 1
          1 1 1 1 1 1
          1 1 1 1 1 1
          1 1 1 1 1 1
          1 1 1 1 1 1
          1 1 1 1 1 1
          1 1 1 1 1 1
          1 1 1 1 1 1
          1 1 1 1 1 1
          1 1 1 1 1 1
          1 1 1 1 1 1
          1 1 1 1 1 1
          1 1 1 1 1 1
          1 1 1 1 1 1
          1 1 1 1 1 1
          1 1 1 1 1 1
          1 1 1 1 1 1
          1 1 1 1 1 1
          1 1 1 1 1 1
          1 1 1 1 1 1
          1 1 1 1 1 1
          1 1 1 1 1 1
          1 1 1 1 1 1
          1 1 1 1 1 1
          1 1 1 1 1 1
          1 1 1 1 1 1
          1 1 1 1 1 1
          1 1 1 1 1 1
          1 1 1 1 1 1
          1 1 1 1 1 1
          1 1 1 1 1 1
          1 1 1 1 1 1
          1 1 1 1 1 1
          1 1 1 1 1 1
          1 1 1 1 1 1
          1 1 1 1 1 1
          1 1 1 1 1 1
          1 1 1 1 1 1
          1 1 1 1 1 1
          1 1 1 1 1 1
          1 1 1 1 1 1
          1 1 1 1 1 1
          1 1 1 1 1 1
          1 1 1 1 1 1
          1 1 1 1 1 1
          1 1 1 1 1 1
          1 1 1 1 1 1
          1 1 1 1 1 1
          1 1 1 1 1 1
          1 1 1 1 1 1
          1 1 1 1 1 1
          1 1 1 1 1 1
          1 1 1 1 1 1
          1 1 1 1 1 1
          1 1 1 1 1 1
          1 1 1 1 1 1
          1 1 1 1 1 1
          1 1 1 1 1 1
          1 1 1 1 1 1
          1 1 1 1 1 1
          1 1 1 1 1 1
          1 1 1 1 1 1
          1 1
        </DataArray>
        <DataArray type="Float64" Name="gradient_matprop_marker" format="ascii" RangeMin="0" RangeMax="0">
          0 0 0 0 0 0
          0 0 0 0 0 0
          0 0 0 0 0 0
          0 0 0 0 0 0
          0 0 0 0 0 0
          0 0 0 0 0 0
          0 0 0 0 0 0
          0 0 0 0 0 0
          0 0 0 0 0 0
          0 0 0 0 0 0
          0 0 0 0 0 0
          0 0 0 0 0 0
          0 0 0 0 0 0
          0 0 0 0 0 0
          0 0 0 0 0 0
          0 0 0 0 0 0
          0 0 0 0 0 0
          0 0 0 0 0 0
          0 0 0 0 0 0
          0 0 0 0 0 0
          0 0 0 0 0 0
          0 0 0 0 0 0
          0 0 0 0 0 0
          0 0 0 0 0 0
          0 0 0 0 0 0
          0 0 0 0 0 0
          0 0 0 0 0 0
          0 0 0 0 0 0
          0 0 0 0 0 0
          0 0 0 0 0 0
          0 0 0 0 0 0
          0 0 0 0 0 0
          0 0 0 0 0 0
          0 0 0 0 0 0
          0 0 0 0 0 0
          0 0 0 0 0 0
          0 0 0 0 0 0
          0 0 0 0 0 0
          0 0 0 0 0 0
          0 0 0 0 0 0
          0 0 0 0 0 0
          0 0 0 0 0 0
          0 0 0 0 0 0
          0 0 0 0 0 0
          0 0 0 0 0 0
          0 0 0 0 0 0
          0 0 0 0 0 0
          0 0 0 0 0 0
          0 0 0 0 0 0
          0 0 0 0 0 0
          0 0 0 0 0 0
          0 0 0 0 0 0
          0 0 0 0 0 0
          0 0 0 0 0 0
          0 0 0 0 0 0
          0 0 0 0 0 0
          0 0 0 0 0 0
          0 0 0 0 0 0
          0 0 0 0 0 0
          0 0 0 0 0 0
          0 0 0 0 0 0
          0 0 0 0 0 0
          0 0 0 0 0 0
          0 0 0 0 0 0
          0 0 0 0 0 0
          0 0 0 0 0 0
          0 0 0 0 0 0
          0 0 0 0 0 0
          0 0 0 0 0 0
          0 0
        </DataArray>
        <DataArray type="Float64" Name="combo" format="ascii" RangeMin="1" RangeMax="1">
          1 1 1 1 1 1
          1 1 1 1 1 1
          1 1 1 1 1 1
          1 1 1 1 1 1
          1 1 1 1 1 1
          1 1 1 1 1 1
          1 1 1 1 1 1
          1 1 1 1 1 1
          1 1 1 1 1 1
          1 1 1 1 1 1
          1 1 1 1 1 1
          1 1 1 1 1 1
          1 1 1 1 1 1
          1 1 1 1 1 1
          1 1 1 1 1 1
          1 1 1 1 1 1
          1 1 1 1 1 1
          1 1 1 1 1 1
          1 1 1 1 1 1
          1 1 1 1 1 1
          1 1 1 1 1 1
          1 1 1 1 1 1
          1 1 1 1 1 1
          1 1 1 1 1 1
          1 1 1 1 1 1
          1 1 1 1 1 1
          1 1 1 1 1 1
          1 1 1 1 1 1
          1 1 1 1 1 1
          1 1 1 1 1 1
          1 1 1 1 1 1
          1 1 1 1 1 1
          1 1 1 1 1 1
          1 1 1 1 1 1
          1 1 1 1 1 1
          1 1 1 1 1 1
          1 1 1 1 1 1
          1 1 1 1 1 1
          1 1 1 1 1 1
          1 1 1 1 1 1
          1 1 1 1 1 1
          1 1 1 1 1 1
          1 1 1 1 1 1
          1 1 1 1 1 1
          1 1 1 1 1 1
          1 1 1 1 1 1
          1 1 1 1 1 1
          1 1 1 1 1 1
          1 1 1 1 1 1
          1 1 1 1 1 1
          1 1 1 1 1 1
          1 1 1 1 1 1
          1 1 1 1 1 1
          1 1 1 1 1 1
          1 1 1 1 1 1
          1 1 1 1 1 1
          1 1 1 1 1 1
          1 1 1 1 1 1
          1 1 1 1 1 1
          1 1 1 1 1 1
          1 1 1 1 1 1
          1 1 1 1 1 1
          1 1 1 1 1 1
          1 1 1 1 1 1
          1 1 1 1 1 1
          1 1 1 1 1 1
          1 1 1 1 1 1
          1 1 1 1 1 1
          1 1 1 1 1 1
          1 1
        </DataArray>
        <DataArray type="Float64" Name="dHdT" format="ascii" RangeMin="25.78787964297789" RangeMax="39.11028116882633">
          25.88548861935034 25.818879568756884 25.811803215390498 31.928182264087223 25.972856262194274 33.672961714169034
          25.885964338105776 38.759204543359516 25.821535309276584 25.809591514978386 25.811485245754497 25.81178572474193
          25.91374520519594 25.874161696498632 25.87383518430973 27.320058811670656 27.28345759117426 26.286678903110367
          26.37358779299403 26.811240179868115 25.822887329366917 25.826720823558773 25.84051536285767 36.17372483300023
          28.442095566966383 28.46548400640487 27.616785165818875 25.850270271771905 28.55410272108724 27.834106800236352
          27.937879114239358 31.406657794560672 31.634920792934096 29.60073850830984 29.792735615106565 26.82054828378216
          32.05255373528485 29.680823629476542 26.613031563181327 27.22530953222593 27.57064583834424 26.833796197555287
          39.11028116882633 33.78716217048306 32.554300317058924 34.583381052658005 28.07376821842723 32.43291160655544
          29.683930968875007 26.690663473236285 38.01400799866097 34.63896900899692 27.448653946046296 34.82433935598565
          33.82432329765089 33.6805808775126 36.913010016803646 36.92644721761403 35.800823026119915 35.70067083774717
          32.43360150316236 36.86934332935814 35.84442040517854 31.443257081132906 32.95373964615605 33.38715536795329
          33.05988214611004 39.028555079242416 37.77732275458895 37.72076079798174 37.70043566368817 34.46422221117919
          32.43813600946682 31.719229767720293 36.79073096047759 35.846991394418026 31.711531786362514 36.655647277972925
          35.787862459799484 30.676297666330772 33.11510566452048 33.1234458270841 38.39840532572589 37.52165301925813
          37.300504880834154 34.63528688355531 25.81083688098054 25.904270157898534 25.937837126473642 26.003687926404147
          26.057027642220714 25.819710300303576 25.816782292427266 25.83023441740066 26.10310569490976 26.176218157967778
          25.813854284550956 26.672946120450323 28.148027296662857 27.91039482720527 27.672762357747686 28.86433885934982
          28.940186100800986 29.743195191136188 29.779946029984337 28.775715184608934 29.686829352757098 27.70043177165487
          28.159430881589877 28.259625248747554 28.046844692972034 30.62205152292256 30.619705959167703 30.597943520905257
          28.618429991524884 28.676409586071998 29.611131376735717 27.469205972045053 27.921770623189932 30.545853167399436
          28.37433527433481 25.865527381439925 25.845433591165065 27.46831545515808 27.379586179457835 26.450089303267294
          26.527977842113696 25.82704589648219 25.85780973029705 25.87759912819965 32.806253122015214 28.417975714750597
          28.36590257259482 25.92831211802688 25.811404087672102 25.811374334838344 25.811063266149453 25.811509126075936
          25.811611704411696 25.811716511056765 25.811558361598223 25.8107224446268 25.81164391731353 25.81182131770184
          28.678315968015887 27.98777352053701 28.004339552332343 31.163355043267202 31.34028118865266 30.020561083356796
          29.919262834138653 26.768261391062595 27.620606839636256 27.64680945061418 34.00224640928943 32.05334864617659
          31.834186115944966 28.472952288209914 25.974851849148948 26.013644516033786 26.110170475178254 26.163795692413302
          25.83775145132072 25.848965242870026 25.87120101797077 26.24548910120756 26.313946868792822 25.860179034419332
          34.42146450582926 33.38914897479575 33.172965169815825 36.19872013920768 36.53498095777917 35.35888757269518
          35.08646298141671 32.356833443762234 34.18279418761118 33.97420582362574 38.648497409729075 37.3286261705946