<?xml version="1.0"?>
<VTKFile type="UnstructuredGrid" version="0.1" byte_order="LittleEndian" header_type="UInt32" compressor="vtkZLibDataCompressor">
  <UnstructuredGrid>
    <Piece NumberOfPoints="356" NumberOfCells="198">
      <PointData>
        <DataArray type="Int32" Name="libmesh_node_id" format="ascii" RangeMin="372" RangeMax="2923">
          372 632 633 634 635 642
          643 926 927 928 929 1274
          1275 1276 1362 1363 1364 1365
          1366 1367 1368 1369 1370 1371
          1372 1373 1374 1375 1376 1377
          1378 1379 1392 1393 1398 1410
          1411 1412 1413 1414 1415 1416
          1417 1418 1419 1740 1741 1748
          1749 1750 1751 1752 1754 1755
          1756 1757 1758 1759 1763 1764
          2216 2217 2218 2219 2220 2229
          2230 2440 2441 2442 2443 2444
          2445 2446 2447 2448 2449 2450
          2451 2452 2453 2454 2455 2456
          2457 2458 2459 2460 2461 2462
          2463 2464 2465 2466 2467 2470
          2471 2474 2476 2478 2479 2480
          2481 2482 2483 2484 2485 2486
          2487 2488 2489 2490 2491 2492
          2493 2496 2498 2499 2500 2501
          2502 2503 2504 2505 2506 2507
          2509 2511 2513 2515 2516 2517
          2518 2519 2520 2521 2522 2523
          2524 2525 2526 2527 2528 2529
          2530 2531 2532 2533 2534 2535
          2550 2551 2552 2553 2554 2555
          2556 2557 2558 2559 2570 2571
          2572 2573 2574 2575 2576 2577
          2579 2590 2591 2592 2594 2596
          2614 2615 2616 2617 2618 2619
          2620 2621 2622 2623 2631 2632
          2633 2634 2635 2636 2637 2658
          2659 2662 2663 2665 2667 2700
          2701 2703 2706 2708 2709 2710
          2711 2712 2713 2714 2715 2716
          2717 2719 2721 2723 2725 2726
          2727 2728 2729 2730 2731 2734
          2735 2737 2740 2742 2743 2744
          2745 2746 2747 2748 2749 2750
          2751 2753 2755 2757 2759 2760
          2761 2762 2763 2764 2765 2766
          2767 2770 2772 2773 2775 2786
          2788 2790 2792 2800 2801 2804
          2806 2807 2809 2820 2822 2824
          2826 2835 2839 2841 2842 2845
          2846 2863 2867 2869 2870 2873
          2874 2890 2894 2918 2922 381
          930 931 932 1383 1400 1384
          1401 1760 1761 1762 1765 383
          1380 636 2536 2537 2538 2539
          2543 2544 2546 2547 2549 2560
          2561 2564 2565 2567 2569 1386
          2578 1387 2580 2581 2584 2586
          2587 2589 2593 2595 1389 2597
          2599 2601 2603 2660 2661 2664
          2666 1407 2768 2769 2771 1420
          2774 1421 2787 2789 2791 1424
          2802 2803 2805 1426 2808 1427
          2821 2823 2825 1429 2891 2895
          2919 2923
        </DataArray>
        <DataArray type="Float64" Name="bounds" format="ascii" RangeMin="0" RangeMax="0">
          0 0 0 0 0 0
          0 0 0 0 0 0
          0 0 0 0 0 0
          0 0 0 0 0 0
          0 0 0 0 0 0
          0 0 0 0 0 0
          0 0 0 0 0 0
          0 0 0 0 0 0
          0 0 0 0 0 0
          0 0 0 0 0 0
          0 0 0 0 0 0
          0 0 0 0 0 0
          0 0 0 0 0 0
          0 0 0 0 0 0
          0 0 0 0 0 0
          0 0 0 0 0 0
          0 0 0 0 0 0
          0 0 0 0 0 0
          0 0 0 0 0 0
          0 0 0 0 0 0
          0 0 0 0 0 0
          0 0 0 0 0 0
          0 0 0 0 0 0
          0 0 0 0 0 0
          0 0 0 0 0 0
          0 0 0 0 0 0
          0 0 0 0 0 0
          0 0 0 0 0 0
          0 0 0 0 0 0
          0 0 0 0 0 0
          0 0 0 0 0 0
          0 0 0 0 0 0
          0 0 0 0 0 0
          0 0 0 0 0 0
          0 0 0 0 0 0
          0 0 0 0 0 0
          0 0 0 0 0 0
          0 0 0 0 0 0
          0 0 0 0 0 0
          0 0 0 0 0 0
          0 0 0 0 0 0
          0 0 0 0 0 0
          0 0 0 0 0 0
          0 0 0 0 0 0
          0 0 0 0 0 0
          0 0 0 0 0 0
          0 0 0 0 0 0
          0 0 0 0 0 0
          0 0 0 0 0 0
          0 0 0 0 0 0
          0 0 0 0 0 0
          0 0 0 0 0 0
          0 0 0 0 0 0
          0 0 0 0 0 0
          0 0 0 0 0 0
          0 0 0 0 0 0
          0 0 0 0 0 0
          0 0 0 0 0 0
          0 0 0 0 0 0
          0 0
        </DataArray>
        <DataArray type="Float64" Name="gradient_error" format="ascii" RangeMin="2.4808729488238548e-11" RangeMax="5.814095322683768e-8">
          1.3011201731368558e-8 4.85480673934469e-10 4.969197908759366e-10 1.5841750469601313e-8 6.015975611596697e-9 3.347842469968894e-8
          2.6842373776567045e-8 1.4686387491034812e-10 2.2693813865930657e-10 1.581299092876936e-10 2.3927987522458583e-10 8.815544805740984e-9
          5.382842708873842e-8 4.680221854475307e-8 1.0541450744910641e-9 9.5200834953598e-10 4.698509046202004e-9 3.873795494921796e-9
          4.3123198417269337e-10 2.1634304305275207e-9 1.753878442406332e-9 7.144844004196148e-10 2.2000065968676476e-9 1.0581318338854012e-9
          2.7323964500662827e-8 2.1963136249714054e-8 1.2552494589992985e-8 1.1359166731861814e-8 1.8345338704197887e-10 1.5924396103250718e-10
          8.763266503146241e-10 7.035145622694308e-10 6.701221385294371e-10 6.926403644420833e-10 1.8455355416420058e-9 5.5610442268385356e-8
          5.471495996834874e-8 4.048813564934644e-8 3.661921740093646e-8 3.2004995251995944e-8 1.8796283322641744e-8 4.248952369231063e-8
          5.727805647278251e-8 4.371342915425833e-8 4.4403918383949234e-8 1.4479074494796536e-9 1.3208940846469685e-9 1.0305778896685848e-9
          9.41700235816335e-10 1.5999474154126157e-10 4.189227619606897e-10 3.8057680887987627e-10 7.338895705735422e-10 3.3734280145719e-10
          5.3475848283776885e-11 5.6484090597440856e-11 1.526566868751861e-10 1.369457669807567e-10 5.949233291110483e-11 1.2123484708632733e-10
          1.8319546791258734e-9 2.445485739744393e-9 2.373315628080184e-9 2.1885062465542885e-9 8.510990043643223e-9 1.8346847687822305e-8
          1.7330093886253663e-8 1.377488164711167e-9 1.3409222345978464e-9 2.1801683337329165e-9 2.106244743429853e-9 6.992989934608537e-10
          1.5801269537239111e-9 1.5160159939865248e-9 1.2354729816752882e-9 1.90924134916971e-9 1.3399793383933031e-9 7.28410210639537e-9
          6.914204516592152e-9 4.477247794638945e-9 6.00541903658575e-9 4.708514455751423e-10 4.5234834166262904e-10 1.027712265666921e-9
          9.83625326972891e-10 2.896930727593458e-10 6.634735768218487e-10 6.3395007059027e-10 4.0686801049383767e-10 8.648653395962201e-10
          5.561473913583511e-10 3.2149608973133837e-9 3.055659289251792e-9 2.0526155322137103e-9 2.62503205670199e-9 5.437725705088546e-10
          1.0946750441281141e-9 8.297098868929714e-10 3.0516898366713276e-9 3.513838836003089e-10 7.001416052532102e-10 2.365262920424092e-10
          4.4710447801140873e-10 2.910561870187168e-10 5.218658667974595e-10 3.683568135857543e-10 2.045972576019824e-9 1.3519031912515065e-9
          1.451211399795715e-9 1.6046225321956428e-8 1.520536952954344e-8 1.2088851511269125e-8 1.1485757158540225e-8 1.3190840220148074e-8
          9.83313102535777e-9 2.589529890006428e-8 9.028501850229174e-9 8.547864620757947e-9 6.456787433913853e-9 6.092781265919505e-9
          7.246043764328501e-9 5.113561483866144e-9 2.1276267148906685e-8 2.0136134370632437e-8 1.4964633272058232e-8 1.699995549274583e-8
          7.585584570473076e-9 5.30120025888517e-9 1.6651899606531445e-8 5.496840013034596e-9 3.823771464857848e-9 3.7499554519349594e-9
          2.56369772794274e-9 1.2732142187832299e-8 9.2679989437014e-9 8.46197434107479e-9 1.8868161789180178e-10 1.8087930023368114e-10
          4.188354026584952e-10 3.999208832776301e-10 1.1126178477086981e-10 2.5668376409281785e-10 2.4509060313332176e-10 1.6327430883712495e-10
          3.499350532079005e-10 2.1377881448214425e-10 1.40594184418131e-9 1.3322101558878984e-9 8.294650425403913e-10 1.1337437417648874e-9
          1.5400694180514825e-10 2.80383172193134e-10 9.514287868401953e-11 1.708859287830135e-10 1.5454224851160712e-10 2.419026018672321e-10
          1.4771167077556412e-10 8.645648517442626e-10 5.332474013042926e-10 7.180911193642472e-10 4.371483491277028e-9 4.113818554802603e-9
          2.794803971459403e-9 2.625942666218232e-9 3.4267293883427012e-9 2.177808327533138e-9 1.1233653311124967e-8 1.0578052093457205e-8
          8.787356231395814e-9 2.5345523303345035e-9 1.5986939079476045e-9 1.6759295560975227e-9 6.382067205351707e-9 4.057777376035851e-9
          2.3111245699315767e-10 3.628349935340094e-10 1.955209682677945e-10 2.820572352465395e-10 2.0298952391193985e-10 2.9202917306594065e-10
          2.3172550506542897e-10 9.41479643067819e-10 7.287918404476811e-10 6.749572746597892e-10 2.3296929183636012e-9 1.5591801319013112e-9
          1.3358430599183802e-9 8.748794022365568e-10 5.0407130547621505e-9 3.4820904627495735e-9 2.752722305371532e-9 5.720087506303691e-10
          1.0040269530947957e-9 3.320864493954866e-10 5.560310099580296e-10 2.30024610741117e-9 1.1948045680275576e-9 4.7177666624400475e-8
          4.560714706923115e-8 4.019453090421891e-8 5.6157314676337106e-8 3.8913377650107836e-8 3.729596066121783e-8 3.019980523986042e-8
          2.8761108997421817e-8 3.2219517983256275e-8 2.4494508210464457e-8 4.840392512292929e-8 4.85346201873695e-8 4.000776567329907e-8
          4.6041494117992676e-8 3.099455990355772e-8 2.0826954758574256e-8 4.611888717167843e-8 2.435651283416441e-8 1.823823270115172e-8
          1.6042741557048465e-8 1.178304694084788e-8 3.735364516223194e-8 2.8655520296115315e-8 2.5117495050473007e-8 4.8391926243315075e-8
          5.234840450208571e-8 5.814095322683768e-8 4.81556277121457e-8 4.271484834741018e-8 4.6288999253802234e-8 3.8063718532529924e-8
          4.071695171283233e-8 5.094370583774664e-8 4.274874047083943e-8 3.7107722442954346e-8 4.2327723689331706e-8 3.8069862065626483e-8
          5.0808434504480475e-8 5.52033761773589e-8 4.102784353073667e-8 5.756766559076438e-8 4.6267748789446605e-8 3.6469994876205384e-8
          3.258250941962805e-8 2.460241962789772e-8 4.902758274802921e-8 3.917083588627385e-8 3.5441726821112124e-8 2.2030782447667326e-8
          2.090315508431144e-8 1.764576143426466e-8 3.1679545198524294e-8 3.0818516025192425e-8 2.7308139264447306e-8 1.2968153876767169e-8
          8.197564657666748e-9 2.0811157990184514e-8 1.3366586735302937e-8 3.3395011452366173e-8 3.436156431555213e-8 3.340473191185492e-8
          3.16052632623851e-8 3.391848182657888e-8 3.5032562791287214e-8 2.689767289173455e-8 1.7675715564047446e-8 2.9091937505692582e-8
          1.9337186131510914e-8 1.2569819933568164e-8 1.906592966665569e-8 9.352825749857696e-9 6.660490325205954e-9 1.4532876662177243e-8
          1.0583395795526687e-8 2.44908607273465e-8 2.6610111267160277e-8 1.8872807380693715e-8 1.3902905748295248e-8 2.0575070907890458e-8
          1.5205288884693626e-8 4.500989169276499e-9 7.299142873654361e-9 9.719130561072733e-9 1.0677506654126623e-8 8.624433243781183e-11
          7.327259518119823e-11 4.6931359922622284e-11 1.243978790926328e-10 3.715834884681222e-10 5.935824047462473e-10 5.39070273730218e-10
          3.97532949611868e-10 2.4808729488238548e-11 5.3577018532775156e-11 4.978556746706199e-11 4.599411640134883e-11 6.362535815629376e-11
          8.901135654093262e-11 2.1292179895482124e-10 6.868209480762575e-11 6.837293070873966e-11 1.5224961283148477e-10 1.451762668726278e-10
          6.500730522668784e-11 1.259493219651049e-10 5.22194161259169e-10 4.938222750681063e-10 4.177664475648937e-10 6.067332840243109e-11
          1.0041996979499742e-10 5.939581296134005e-11 8.704421657355592e-11 3.1545087626888084e-10 2.597879129460673e-10 7.497225924733453e-9
          7.033104908612346e-9 5.780197856597722e-9 1.6909273982464347e-9 1.5878108111041211e-9 1.3140179906571362e-9 4.664943030441283e-9
          4.363403632046011e-9 3.5592836157862313e-9 1.04674614568428e-9 4.13678809949342e-9 2.5907706677496692e-9 9.602135114451322e-10
          6.249819802494884e-10 2.5228695661164155e-9 1.5647377413206492e-9 3.482869095755566e-10 6.211717806619499e-10 3.40955585045905e-10
          1.4480262139804112e-9 7.424639548989565e-10 1.519810477636675e-8 1.4385350200183265e-8 1.2038469932063351e-8 2.2720262798964534e-8
          2.193257922077558e-8 1.9110720287004357e-8 8.69083480979153e-9 5.362023149170026e-9 1.4286527665388147e-8 8.948807647536206e-9
          2.5707771874878514e-8 2.5720176738534463e-8 2.3864545268687566e-8 2.5612028776952386e-8 2.625156028751106e-8 2.529925879508844e-8
          1.8681733903955982e-8 1.2013074011248404e-8 2.0276027889900518e-8 1.3204408536129674e-8 2.8785312008212865e-9 4.7394054038729825e-9
          6.3843707373996224e-9 7.044997292483374e-9
        </DataArray>
        <DataArray type="Float64" Name="gradient_matprop_error" format="ascii" RangeMin="0" RangeMax="0">
          0 0 0 0 0 0
          0 0 0 0 0 0
          0 0 0 0 0 0
          0 0 0 0 0 0
          0 0 0 0 0 0
          0 0 0 0 0 0
          0 0 0 0 0 0
          0 0 0 0 0 0
          0 0 0 0 0 0
          0 0 0 0 0 0
          0 0 0 0 0 0
          0 0 0 0 0 0
          0 0 0 0 0 0
          0 0 0 0 0 0
          0 0 0 0 0 0
          0 0 0 0 0 0
          0 0 0 0 0 0
          0 0 0 0 0 0
          0 0 0 0 0 0
          0 0 0 0 0 0
          0 0 0 0 0 0
          0 0 0 0 0 0
          0 0 0 0 0 0
          0 0 0 0 0 0
          0 0 0 0 0 0
          0 0 0 0 0 0
          0 0 0 0 0 0
          0 0 0 0 0 0
          0 0 0 0 0 0
          0 0 0 0 0 0
          0 0 0 0 0 0
          0 0 0 0 0 0
          0 0 0 0 0 0
          0 0 0 0 0 0
          0 0 0 0 0 0
          0 0 0 0 0 0
          0 0 0 0 0 0
          0 0 0 0 0 0
          0 0 0 0 0 0
          0 0 0 0 0 0
          0 0 0 0 0 0
          0 0 0 0 0 0
          0 0 0 0 0 0
          0 0 0 0 0 0
          0 0 0 0 0 0
          0 0 0 0 0 0
          0 0 0 0 0 0
          0 0 0 0 0 0
          0 0 0 0 0 0
          0 0 0 0 0 0
          0 0 0 0 0 0
          0 0 0 0 0 0
          0 0 0 0 0 0
          0 0 0 0 0 0
          0 0 0 0 0 0
          0 0 0 0 0 0
          0 0 0 0 0 0
          0 0 0 0 0 0
          0 0 0 0 0 0
          0 0
        </DataArray>
        <DataArray type="Float64" Name="initial_marker" format="ascii" RangeMin="0" RangeMax="2">
          0.5 0 0 2 2 2
          2 0 0 0 0 0.6666666666666666
          2 2 0 0 2 2
          0 2 2 0 2 1.75
          2 2 2 2 0 0
          2 2 0 0.5 2 2
          2 2 2 2 2 2
          2 2 2 0 0 0
          0 0 0 0 0 0
          0 0 0 0 0 0
          0 1 1 1 2 2
          2 0 0 1 1 0
          1 1 0 1 1 2
          2 2 2 0 0 1
          1 0 1 1 0 1
          1 2 2 2 2 0
          1 1 2 0 1 0
          1 0 1 1 2 2
          2 2 2 2 2 2
          2 2 2 2 2 2
          2 2 2 2 2 2
          2 2 2 2 2 2
          2 2 2 2 0 0
          1 1 0 1 1 0
          1 1 2 2 2 2
          0 1 0 1 0 1
          1 2 2 2 2 2
          2 2 2 2 2 2
          2 2 2 2 2 2
          0 0.5 0 0.5 0 0
          0 1.5 1.6666666666666667 0.6666666666666666 2 2
          1.5 1.5 2 2 2 2
          2 1 1.5 2 2 2
          2 2 2 2 2 2
          2 2 2 2 2 2
          2 2 2 2 2 2
          2 2 2 2 2 2
          2 2 2 2 2 2
          2 2 2 2 2 2
          2 2 2 2 2 2
          2 2 2 2 2 2
          2 2 2 2 2 2
          2 2 2 2 2 2
          2 2 2 2 2 2
          2 2 2 2 2 2
          2 2 2 2 2 2
          2 2 2 2 2 0
          0 0 0 0 0 1.5
          0.5 0 0 0 0 0
          0 0 0 0 1 1
          0 1 2 2 2 0
          0.75 0 0.5 1.75 1.6666666666666667 2
          2 2 2 2 2 2
          2 2 2 2 2 2
          2 2 2 2 2 1.5
          2 2 2 2 2 2
          2 2 2 2 2 2
          2 2 2 2 2 2
          2 2 2 2 2 2
          2 2
        </DataArray>
        <DataArray type="Float64" Name="markers_norefine" format="ascii" RangeMin="0" RangeMax="2">
          0 0 0 0 0 1
          0 0 0 0 0 0
          0 0 0 0 0 0
          0 0 0 0 0 0
          0 0 0 0 0 0
          0 0 0 0 0 1.5
          0.75 0.5 0 0 0 2
          2 0.5 0 0 0 0
          0 0 0 0 0 0
          0 0 0 0 0 0
          0 0 0 0 0 0
          0 0 0 0 0 0
          0 0 0 0 0 0
          0 0 0 0 0 0
          0 0 0 0 0 0
          0 0 0 0 0 0
          0 0 0 0 0 0
          0 0 0 0 0 0
          0 0 0 0 0 0
          0 0 0 0 0 0
          0 0 0 0 0 0
          0 0 0 0 0 0
          0 0 0 0 0 0
          0 0 0 0 0 0
          0 0 0 0 0 0
          0 0 0 0 0 0
          0 0 0 0 0 0
          0 0 0 0 0 0
          0 0 0 0 0 0
          0 0 0 0 0 0
          0 0 0 0 0 0
          0 0 0 0 0 0
          0 0 0 0 0 0.5
          0.25 0 1.25 0 0 0
          0 0 0 1 0.75 0.25
          0.25 0 0 0.25 0 0
          0 0 0 0 0 2
          2 1.75 2 2 1.75 1
          0.75 1 0.25 2 2 1
          1.5 0.75 0 1 0.25 0
          0 0 0.5 0 0 0
          0 0 0 0 0 0
          0 0 0 0 0 0
          0 0 0 0 0 0
          0 0 0 0 0 0
          0 0 0 0 0 0
          0 0 0 0 0 0
          0 0 0 0 0 0
          0 0 0 0 0 0
          0 0 0 0 0 0
          0 0 0 0 0 0
          0 0 0 0 0 0
          0 0 0 0 0 0
          0 0 0 0 0 0
          0 0 0 0 0 0
          0 0 0 0 0 0
          0 0 0 0 0 0
          0 0 0 0 0 0
          0 0 0 0 0 0
          0 0
        </DataArray>
        <DataArray type="Float64" Name="markers_mustrefine" format="ascii" RangeMin="0" RangeMax="2">
          0.5 0 0 2 2 2
          2 0 0 0 0 0.6666666666666666
          2 2 0 0 2 2
          0 2 2 0 2 1.75
          2 2 2 2 0 0
          2 2 0 0.5 2 2
          2 2 2 2 2 2
          2 2 2 0 0 0
          0 0 0 0 0 0
          0 0 0 0 0 0
          0 1 1 1 2 2
          2 0 0 1 1 0
          1 1 0 1 1 2
          2 2 2 0 0 1
          1 0 1 1 0 1
          1 2 2 2 2 0
          1 1 2 0 1 0
          1 0 1 1 2 2
          2 2 2 2 2 2
          2 2 2 2 2 2
          2 2 2 2 2 2
          2 2 2 2 2 2
          2 2 2 2 0 0
          1 1 0 1 1 0
          1 1 2 2 2 2
          0 1 0 1 0 1
          1 2 2 2 2 2
          2 2 2 2 2 2
          2 2 2 2 2 2
          0 0.5 0 0.5 0 0
          0 1.5 1.6666666666666667 0.6666666666666666 2 2
          1.5 1.5 2 2 2 2
          2 1 1.5 2 2 2
          2 2 2 2 2 2
          2 2 2 2 2 2
          2 2 2 2 2 2
          2 2 2 2 2 2
          2 2 2 2 2 2
          2 2 2 2 2 2
          2 2 2 2 2 2
          2 2 2 2 2 2
          2 2 2 2 2 2
          2 2 2 2 2 2
          2 2 2 2 2 2
          2 2 2 2 2 2
          2 2 2 2 2 2
          2 2 2 2 2 0
          0 0 0 0 0 1.5
          0.5 0 0 0 0 0
          0 0 0 0 1 1
          0 1 2 2 2 0
          0.75 0 0.5 1.75 1.6666666666666667 2
          2 2 2 2 2 2
          2 2 2 2 2 2
          2 2 2 2 2 1.5
          2 2 2 2 2 2
          2 2 2 2 2 2
          2 2 2 2 2 2
          2 2 2 2 2 2
          2 2
        </DataArray>
        <DataArray type="Float64" Name="gradient_marker" format="ascii" RangeMin="0.5" RangeMax="1">
          0.5 1 1 1 1 1
          1 1 1 1 1 0.6666666666666666
          0.75 0.75 1 1 1 1
          1 1 1 1 1 1
          1 1 1 1 1 1
          1 1 1 1 1 1
          1 1 1 1 1 1
          1 1 1 1 1 1
          1 1 1 1 1 1
          1 1 1 1 1 1
          1 1 1 1 1 1
          1 1 1 1 1 1
          1 1 1 1 1 1
          1 1 1 1 1 1
          1 1 1 1 1 1
          1 1 1 1 1 1
          1 1 1 1 1 1
          1 1 1 1 1 1
          1 1 1 1 1 1
          1 1 1 1 1 1
          1 1 1 1 1 1
          1 1 1 1 1 1
          1 1 1 1 1 1
          1 1 1 1 1 1
          1 1 1 1 1 1
          1 1 1 1 1 1
          1 1 1 1 1 1
          1 1 1 1 1 1
          1 1 1 1 1 1
          1 1 1 1 1 1
          1 1 1 1 1 1
          1 1 1 1 1 1
          1 1 1 1 1 1
          1 1 1 1 1 1
          1 1 1 1 1 1
          1 1 1 1 1 1
          1 1 1 1 1 1
          1 1 1 1 1 1
          1 1 1 1 1 1
          1 1 1 1 1 1
          1 1 1 1 1 1
          1 1 1 1 1 1
          1 1 1 1 1 1
          1 1 1 1 1 1
          1 1 1 1 1 1
          1 1 1 1 1 1
          1 1 1 1 1 1
          1 1 1 1 1 1
          1 1 1 1 1 1
          1 1 1 1 1 1
          1 1 1 1 1 1
          1 1 1 1 1 1
          1 1 1 1 1 1
          1 1 1 1 1 1
          1 1 1 1 1 1
          1 1 1 1 1 1
          1 1 1 1 1 1
          1 1 1 1 1 1
          1 1 1 1 1 1
          1 1
        </DataArray>
        <DataArray type="Float64" Name="gradient_matprop_marker" format="ascii" RangeMin="0" RangeMax="0">
          0 0 0 0 0 0
          0 0 0 0 0 0
          0 0 0 0 0 0
          0 0 0 0 0 0
          0 0 0 0 0 0
          0 0 0 0 0 0
          0 0 0 0 0 0
          0 0 0 0 0 0
          0 0 0 0 0 0
          0 0 0 0 0 0
          0 0 0 0 0 0
          0 0 0 0 0 0
          0 0 0 0 0 0
          0 0 0 0 0 0
          0 0 0 0 0 0
          0 0 0 0 0 0
          0 0 0 0 0 0
          0 0 0 0 0 0
          0 0 0 0 0 0
          0 0 0 0 0 0
          0 0 0 0 0 0
          0 0 0 0 0 0
          0 0 0 0 0 0
          0 0 0 0 0 0
          0 0 0 0 0 0
          0 0 0 0 0 0
          0 0 0 0 0 0
          0 0 0 0 0 0
          0 0 0 0 0 0
          0 0 0 0 0 0
          0 0 0 0 0 0
          0 0 0 0 0 0
          0 0 0 0 0 0
          0 0 0 0 0 0
          0 0 0 0 0 0
          0 0 0 0 0 0
          0 0 0 0 0 0
          0 0 0 0 0 0
          0 0 0 0 0 0
          0 0 0 0 0 0
          0 0 0 0 0 0
          0 0 0 0 0 0
          0 0 0 0 0 0
          0 0 0 0 0 0
          0 0 0 0 0 0
          0 0 0 0 0 0
          0 0 0 0 0 0
          0 0 0 0 0 0
          0 0 0 0 0 0
          0 0 0 0 0 0
          0 0 0 0 0 0
          0 0 0 0 0 0
          0 0 0 0 0 0
          0 0 0 0 0 0
          0 0 0 0 0 0
          0 0 0 0 0 0
          0 0 0 0 0 0
          0 0 0 0 0 0
          0 0 0 0 0 0
          0 0
        </DataArray>
        <DataArray type="Float64" Name="combo" format="ascii" RangeMin="0.5" RangeMax="2">
          0.5 1 1 1 1 1.5
          1 1 1 1 1 0.6666666666666666
          0.75 0.75 1 1 1 1
          1 1 1 1 1 1
          1 1 1 1 1 1
          1 1 1 1 1 1.75
          1.375 1.25 1 1 1 2
          2 1.25 1 1 1 1
          1 1 1 1 1 1
          1 1 1 1 1 1
          1 1 1 1 1 1
          1 1 1 1 1 1
          1 1 1 1 1 1
          1 1 1 1 1 1
          1 1 1 1 1 1
          1 1 1 1 1 1
          1 1 1 1 1 1
          1 1 1 1 1 1
          1 1 1 1 1 1
          1 1 1 1 1 1
          1 1 1 1 1 1
          1 1 1 1 1 1
          1 1 1 1 1 1
          1 1 1 1 1 1
          1 1 1 1 1 1
          1 1 1 1 1 1
          1 1 1 1 1 1
          1 1 1 1 1 1
          1 1 1 1 1 1
          1 1 1 1 1 1
          1 1 1 1 1 1
          1 1 1 1 1 1
          1 1 1 1 1 1.25
          1.125 1 1.625 1 1 1
          1 1 1 1.5 1.375 1.125
          1.125 1 1 1.125 1 1
          1 1 1 1 1 2
          2 1.875 2 2 1.875 1.5
          1.375 1.5 1.125 2 2 1.5
          1.75 1.375 1 1.5 1.125 1
          1 1 1.25 1 1 1
          1 1 1 1 1 1
          1 1 1 1 1 1
          1 1 1 1 1 1
          1 1 1 1 1 1
          1 1 1 1 1 1
          1 1 1 1 1 1
          1 1 1 1 1 1
          1 1 1 1 1 1
          1 1 1 1 1 1
          1 1 1 1 1 1
          1 1 1 1 1 1
          1 1 1 1 1 1
          1 1 1 1 1 1
          1 1 1 1 1 1
          1 1 1 1 1 1
          1 1 1 1 1 1
          1 1 1 1 1 1
          1 1 1 1 1 1
          1 1
        </DataArray>
        <DataArray type="Float64" Name="dHdT" format="ascii" RangeMin="25.811641847900233" RangeMax="54.93837517320489">
          26.148554290920472 25.854032807963133 25.838103447974085 29.484834429849894 26.89591563039987 53.08375269333216
          32.40941260254529 25.81204345470551 25.81237261918925 25.814418827267886 25.814414996036035 26.17732252300271
          28.41599576140591 28.014548337290776 25.916692756129116 25.904369788328463 26.71232375819446 26.547840438659435
          25.848666969583206 26.208415793365216 26.131209662223323 25.87701012753653 26.22920872595266 25.98080055647116
          32.387846992393335 31.08388747315604 28.434013576322926 28.160361726023233 25.82727720830448 25.82543543461009
          25.966596151002275 25.935446462387798 25.836734364741 25.880778363520527 26.14016201137594 49.154792604087376
          44.02618182784346 40.54376666583937 36.238639550074545 33.669056364625575 30.030480186082915 48.95009079028284
          51.306773861188304 43.01330984599234 37.64561464184832 25.86424244399971 25.859746611231415 25.848054401165207
          25.844855497755468 25.81665575437648 25.825599596059504 25.824299065725448 25.837551645854287 25.823082121493588
          25.813803340296133 25.813858256180787 25.816867477811872 25.81648625286379 25.81391317206544 25.816105027915707
          26.113792550003588 26.353141499898506 26.3353617028585 26.28766962869799 27.373214881228687 30.593591174973888
          30.241346427943903 26.05984195463246 26.05175243826865 26.266696410616703 26.250540357608077 25.959272552401533
          26.116832238492606 26.104560771174185 26.030826119722445 26.207006746958328 26.071153125959484 27.172586694121875
          27.104537780465566 26.667457945970625 26.93064414098508 25.91075016248663 25.90734069388025 26.009901000666158
          26.00157432037475 25.871565008734585 25.93741018803442 25.931997515317573 25.897717574237745 25.978795639209547
          25.917229364258553 26.414789981309223 26.383556201858646 26.187221768977995 26.300518562382862 25.92535914734755
          26.024753615678065 25.97515614623361 26.38919185001734 25.884099060013213 25.94738788499921 25.85720909856984
          25.897521916358038 25.86969204679615 25.914760568662494 25.884644088884667 26.190732900271648 26.05748087082776
          26.08134041858051 29.771761743140537 29.48963100479621 28.45241054394076 28.27673587944416 28.81467447535306
          27.834941935510138 32.06057791997646 27.613435207954794 27.496631361303585 27.02595571638587 26.947590346798407
          27.199115408798292 26.746615254314808 31.013633709194686 30.662743013588205 29.184800092171415 29.69558852244211
          27.304126573131207 26.823494922173825 29.60825188903656 26.833178598792365 26.49657296077462 26.495812826017296
          26.264724691724027 28.461734650712653 27.58319176703997 27.420543114986742 25.8496731721378 25.848402295067544
          25.889651041148795 25.88627699401618 25.83385272250137 25.858857275735268 25.856819084343194 25.844671302780917
          25.877125872048197 25.851392105760233 26.064563850457617 26.050758833868333 25.95803505519236 26.014330616902
          25.84035876527143 25.865600747922333 25.829685443665056 25.84490063202663 25.83850634297832 25.85985269863184
          25.841797945483908 25.967051873224666 25.90658897553195 25.940453791792702 26.605233891516907 26.55378989434621
          26.30919106548755 26.276431676765522 26.420878886475716 26.19179688227564 28.150679622158485 27.960701815840217
          27.49592092405851 26.255076447582418 26.086726663109104 26.102223941512705 26.964975743652424 26.519093147458076
          25.85737163751496 25.88733832287534 25.847448658098315 25.870314819535846 25.852053378262426 25.875587640088362
          25.86103726601706 25.99158998560568 25.94614126764276 25.94611409607221 26.23623636620534 26.0878344091071
          26.060898894880566 25.97060367395133 26.733065670899318 26.426978048525505 26.31432182069389 25.91267913722207
          25.98669777838126 25.873356814311187 25.911184170519483 26.20884709917897 26.020024039882486 40.485896097144845
          39.470630954468504 36.66127394349935 47.9562344381061 36.91739835490566 36.13689100631721 33.8501927866889
          33.25745877077412 34.02142420425311 31.806158891473455 45.57967835115508 44.09712035568107 39.17566187713594
          40.05114937315686 33.41266909542581 30.633066066189144 38.41349354837235 31.519828841866193 29.914151256715773
          29.272007214400737 28.146109636352634 35.45151081022706 33.07246596242477 31.71603568895539 50.65708291412585
          51.24187134172371 49.716554520439956 50.859784733113244 52.891930145978144 51.461804066536786 48.902164856430126
          46.3012738290304 46.49170927948399 40.77320998261613 54.93837517320489 53.99962167292856 49.90970843853572
          49.38985857328844 43.31089103106738 36.401286913915726 45.357646908404874 39.31035827625389 35.77041172366271
          33.74970976586714 31.751855248610205 41.12945142138737 36.87382941586745 34.559050258053894 31.627885446684196
          31.179783934301156 29.97726565650343 36.23567352603963 35.411659810071946 33.41368121629454 28.50021413277987
          27.318320721484405 30.87682320283979 28.559815296378464 40.57247067953189 39.15800517394509 36.21435593322768
          42.63897494831431 40.86106877858874 37.286715879219024 33.016495803223584 29.844321830722627 33.81671385831122
          30.401834939220013 28.44433346977806 30.213582218078983 27.603813730178672 27.015632348599357 28.872094857361212
          27.844321390829478 31.70748799858505 32.24383187047425 30.10901445921906 28.676363187230194 30.621933091709455
          29.044439600185893 26.597515489626545 27.130660520550354 27.64315026339323 27.863032686121358 25.811641847900233
          25.81185869906341 25.81217454193512 25.81253713807683 25.827146583735125 25.828667035738953 25.87652461991628
          25.839233877103446 25.812583509317037 25.813473361334914 25.81346166753615 25.81344997373738 25.81698775523909
          25.816973153533958 25.816944021156893 25.82522307966754 25.82484347752984 25.839430265925436 25.83828623720286
          25.823839553983987 25.83523996244293 25.902692197692197 25.897573146643616 25.88421187280717 25.82284269153475
          25.83161999043744 25.822470150493658 25.82990226446931 25.867450158886932 25.858337829212946 27.257308536646846
          27.145179388558873 26.86500930401607 26.108185981738885 26.0883032725041 26.037231774409186 26.676309906829555
          26.609975266577973 26.443115511861677 25.990740747907047 26.535745489342943 26.25413400394644 25.974304709442066
          25.917324462730562 26.245281136323243 26.075241636548583 25.873822472788994 25.9189399960037 25.872508146091764
          26.057493641697473 25.939034741343285 29.585805777426618 29.23902274524559 28.390615991340105 33.11901885802821