<?xml version="1.0"?>
<VTKFile type="UnstructuredGrid" version="0.1" byte_order="LittleEndian" header_type="UInt32" compressor="vtkZLibDataCompressor">
  <UnstructuredGrid>
    <Piece NumberOfPoints="368" NumberOfCells="201">
      <PointData>
        <DataArray type="Int32" Name="libmesh_node_id" format="ascii" RangeMin="214" RangeMax="3374">
          288 386 405 646 647 648
          649 651 652 656 657 658
          672 673 675 676 680 681
          682 1448 1449 1450 1453 1456
          1458 1459 1460 1461 1462 1463
          1464 1465 1466 1467 1468 1469
          1470 1471 1484 1485 1487 1490
          1492 1493 1494 1495 1496 1497
          1498 1499 1500 1501 1509 1510
          1511 1512 1516 1517 1539 1540
          1541 1542 1543 1544 1545 1546
          1547 1548 1549 1550 1551 1552
          1688 1689 1690 1691 1692 1693
          1694 1709 1710 1711 1712 1713
          1714 1715 1716 1717 1718 1719
          1720 1721 1722 1723 1724 1725
          1726 1727 1728 2974 2975 2976
          2979 2982 2996 2997 3000 3002
          3004 3005 3006 3007 3008 3009
          3010 3011 3012 3013 3014 3015
          3016 3017 3018 3019 3020 3021
          3022 3023 3024 3025 3026 3027
          3060 3061 3063 3064 3065 3066
          3067 3076 3078 3079 3080 3081
          3092 3093 3094 3095 3096 3097
          3098 3099 3100 3101 3109 3110
          3111 3112 3113 3114 3115 3116
          3117 3118 3119 3120 3121 3122
          3123 3124 3125 3126 3127 3128
          3129 3130 3131 3132 3133 3134
          3135 3136 3137 3138 3139 3140
          3141 3142 3143 3144 3145 3146
          3147 3148 3149 3150 3151 3152
          3153 3154 3155 3156 3157 3158
          3159 3160 3161 3162 3163 3164
          3165 3166 3167 3168 3169 3170
          3171 3172 3173 3174 3175 3176
          3177 3178 3179 3180 3181 3182
          3183 3184 3185 3186 3187 3188
          3189 3190 3253 3254 3255 3256
          3257 3258 3259 3260 3261 3262
          3263 3264 3265 3266 3267 3268
          3269 3270 3271 3272 3273 3274
          3275 3276 3277 3278 3279 3280
          3281 3282 3283 3284 3285 3286
          3287 3288 3289 3290 3291 3292
          3293 3294 3295 3296 3341 3342
          3343 3344 3345 3346 3347 3348
          3349 3350 3351 3352 3353 3354
          3355 3356 3357 3358 3359 3360
          3361 3362 3363 3364 3365 3366
          3367 3368 3369 3370 3371 3372
          3373 3374 397 400 401 398
          214 407 406 670 674 671
          650 677 387 678 655 679
          683 938 941 942 939 945
          944 653 1480 1513 654 1503
          1514 1505 1515 393 1518 1667
          1668 1474 1475 1478 3203 3202
          3233 3232 3237 3236 3046 3199
          3201 3235 1507 3223 3247 3249
          3251 659
        </DataArray>
        <DataArray type="Float64" Name="bounds" format="ascii" RangeMin="0" RangeMax="0">
          0 0 0 0 0 0
          0 0 0 0 0 0
          0 0 0 0 0 0
          0 0 0 0 0 0
          0 0 0 0 0 0
          0 0 0 0 0 0
          0 0 0 0 0 0
          0 0 0 0 0 0
          0 0 0 0 0 0
          0 0 0 0 0 0
          0 0 0 0 0 0
          0 0 0 0 0 0
          0 0 0 0 0 0
          0 0 0 0 0 0
          0 0 0 0 0 0
          0 0 0 0 0 0
          0 0 0 0 0 0
          0 0 0 0 0 0
          0 0 0 0 0 0
          0 0 0 0 0 0
          0 0 0 0 0 0
          0 0 0 0 0 0
          0 0 0 0 0 0
          0 0 0 0 0 0
          0 0 0 0 0 0
          0 0 0 0 0 0
          0 0 0 0 0 0
          0 0 0 0 0 0
          0 0 0 0 0 0
          0 0 0 0 0 0
          0 0 0 0 0 0
          0 0 0 0 0 0
          0 0 0 0 0 0
          0 0 0 0 0 0
          0 0 0 0 0 0
          0 0 0 0 0 0
          0 0 0 0 0 0
          0 0 0 0 0 0
          0 0 0 0 0 0
          0 0 0 0 0 0
          0 0 0 0 0 0
          0 0 0 0 0 0
          0 0 0 0 0 0
          0 0 0 0 0 0
          0 0 0 0 0 0
          0 0 0 0 0 0
          0 0 0 0 0 0
          0 0 0 0 0 0
          0 0 0 0 0 0
          0 0 0 0 0 0
          0 0 0 0 0 0
          0 0 0 0 0 0
          0 0 0 0 0 0
          0 0 0 0 0 0
          0 0 0 0 0 0
          0 0 0 0 0 0
          0 0 0 0 0 0
          0 0 0 0 0 0
          0 0 0 0 0 0
          0 0 0 0 0 0
          0 0 0 0 0 0
          0 0
        </DataArray>
        <DataArray type="Float64" Name="gradient_error" format="ascii" RangeMin="1.0731965485671749e-12" RangeMax="2.0171069250044926e-9">
          2.2399022504574932e-11 9.203656177966405e-12 3.706896069846972e-12 4.300431301480932e-11 4.375204753555085e-11 1.6726943514554687e-10
          6.237705514788831e-11 1.485974258480163e-11 1.0634275774322938e-11 9.33394512596903e-10 3.054293414236558e-10 9.977417947732258e-12
          2.724375577890214e-12 3.641544804042496e-12 3.1548779038737664e-12 2.868528159104226e-12 4.644642004051582e-12 3.148219156123797e-12
          3.418929733968084e-12 4.548212880022915e-11 5.0433964747752037e-11 4.339416024057873e-11 3.4759244476577946e-11 1.2724946278454432e-10
          1.8536334002993597e-11 1.626456218495006e-11 2.1388437268951475e-11 1.8218949590953598e-11 3.752955911833746e-12 1.3742106466018783e-11
          1.1709347024566232e-11 1.0986342854786372e-11 1.8668449286737973e-11 9.354459820573416e-12 3.712504354556245e-11 2.922516434250535e-11
          1.3950937275821027e-11 2.1361902555304424e-11 6.401492136890406e-10 4.857787894041137e-10 1.9967764448421766e-10 7.374178724935256e-10
          1.0960831720145232e-10 8.340536707017552e-11 1.5205974334893604e-11 1.3001352070555187e-11 3.575521040232514e-11 8.638480420208863e-12
          1.6226994502807214e-10 1.2603433646066226e-10 1.7396048019961832e-11 5.365859102318491e-11 2.3125019178582138e-11 1.9551091277516297e-11
          7.65430714037129e-12 8.226559759156657e-12 1.77303887424062e-11 1.026350319158722e-11 3.541491124418637e-12 4.954035270754658e-12
          3.3258147457316748e-12 4.709737549697209e-12 2.237500263923167e-12 3.975644618719769e-12 3.4898467521489816e-12 5.637288711699328e-12
          5.774024818362654e-12 2.5931756993672702e-12 4.4422308408630856e-12 3.633535687106328e-12 4.238521271768921e-12 4.888837378687403e-12
          7.462594691727694e-12 1.6188870262071118e-11 5.027342117478223e-12 7.799089315035194e-12 6.9452940407891695e-12 1.0095763401943595e-11
          6.887974334577498e-12 1.8492928880728514e-12 1.764897695588503e-12 3.375466290373001e-12 2.9903896939032354e-12 1.0731965485671749e-12
          1.3174419464892136e-12 1.4035124219422335e-12 1.6805025031041546e-12 2.6053130974334695e-12 1.4895828973952533e-12 3.153982186911472e-12
          4.026281667944661e-12 1.7235132564030436e-12 1.8032565394507748e-12 2.058770404181891e-12 2.3896175556796215e-12 1.4242105657452014e-12
          4.89858114897785e-12 1.8829998224985055e-12 2.7204647071773523e-12 2.8795191864738005e-11 6.152520313281478e-11 5.782993546059829e-11
          4.818946786796604e-11 1.5621758730910332e-10 1.9257896229435975e-11 3.5622412847779114e-11 2.748218485331754e-11 9.067686134191034e-11
          1.4383699359400036e-11 1.3602660464660333e-11 2.72343999153491e-11 2.5647058827707757e-11 9.043897813411286e-12 1.6335345909153316e-11
          1.5411081162001202e-11 1.1633759017785427e-11 2.1517772188284257e-11 1.2964999564172876e-11 7.270358948653819e-11 6.800105502213781e-11
          3.4212601053358274e-11 5.566905927172491e-11 9.44253787090735e-12 1.6090672015715762e-11 6.393286880102847e-12 1.0055281258316902e-11
          8.439179276164482e-12 1.3205517394929418e-11 8.667379803137136e-12 3.977140428558175e-11 2.0339095072653295e-11 2.9534889584507307e-11
          3.711576679107647e-10 3.458262896646322e-10 2.7884777891266293e-10 1.4093888059680457e-9 1.321300225216554e-9 5.989915388828678e-10
          1.0746793978493185e-9 1.9433061294106933e-10 1.179655258607781e-10 7.432909157450266e-10 3.3637783093825027e-10 4.375830759633263e-10
          1.8643283393577236e-9 1.7685299912740604e-9 8.566788597532379e-10 8.08817022478256e-10 1.4709488416368043e-9 6.6695708562173e-10
          2.0171069250044926e-9 1.926256846075717e-9 8.857330509582927e-10 1.6223969040929742e-9 1.0308163291179758e-9 4.657033276197908e-10
          6.04746595215479e-10 2.7470289804089917e-10 1.1463238651682553e-9 5.179454260275214e-10 6.731797628839431e-10 1.5908678825901974e-10
          1.4834941446547164e-10 6.44809970935627e-11 6.022328273734118e-11 1.200227174872075e-10 4.896543928721068e-11 2.726989261298418e-10
          2.5497894982072893e-10 1.0252545926795265e-10 2.0681990279685806e-10 1.6359258809167744e-11 1.5353755487051286e-11 2.4613320338005127e-11
          2.3052732361530642e-11 5.781212357691121e-12 9.087443210770864e-12 8.444800407999952e-12 1.2681953773479674e-11 1.888189481997184e-11
          8.19231696412839e-12 4.1795070069588525e-11 3.9181179261206114e-11 1.4170397930082047e-11 3.204846779271192e-11 8.419468368838505e-11
          3.468340216720316e-11 5.158705725326478e-11 2.159466114346314e-11 1.4399234170494871e-10 5.858736655839875e-11 8.658950251279417e-11
          9.334417658696102e-12 1.3597854736621767e-11 5.449082484670299e-12 7.582976390042602e-12 6.089928250955244e-12 8.651498817772744e-12
          4.911120636247849e-12 2.2781811300324222e-11 9.922357415232848e-12 1.412911324306512e-11 3.672402920497478e-10 3.456728855235872e-10
          1.4787835423753632e-10 1.389718651619428e-10 2.8376759607759195e-10 1.1396965847945405e-10 4.0193422985607316e-10 3.797760474831394e-10
          1.5290960793792084e-10 3.1400448835121604e-10 5.628388186472277e-11 5.289706495943114e-11 2.0393030070394235e-11 1.9150550795487673e-11
          4.346689086389564e-11 1.5727436395009487e-11 6.1845005457111e-11 5.818348063246006e-11 2.106869418912004e-11 4.791868200883143e-11
          1.9843228641798335e-10 8.017255520337987e-11 1.1828970606899708e-10 4.848216981212935e-11 2.204652543922e-10 8.888717683365408e-11
          1.3125811499902157e-10 3.093042185136997e-11 1.1257572077218395e-11 1.90148388877577e-11 8.447744090516541e-12 3.4158512916638944e-11
          1.2490043179294969e-11 2.0984520673975402e-11 1.982872337529295e-11 2.8194734957405053e-11 8.656975499557805e-12 1.2056353425294046e-11
          1.4059199167966299e-11 1.9171328482559153e-11 8.324878704766433e-12 4.6021707622806226e-11 1.9373155253659968e-11 2.55142842840668e-11
          3.582493591184458e-12 4.92164002805883e-12 2.287570372233468e-12 2.9031951356593733e-12 2.6383106158261165e-12 3.4643466389281943e-12
          2.1774660969811637e-12 7.74374589243744e-12 4.315891560006594e-12 5.263240766792923e-12 6.197670860405602e-11 2.5953303527165764e-11
          2.925503600598512e-11 1.5277451989720947e-11 6.847074850201677e-11 2.8616027898041878e-11 3.2380374484446034e-11 1.0230515404572285e-11
          5.656804508687605e-12 6.868663062717338e-12 3.907062515823456e-12 1.1234325489202891e-11 6.200645796447299e-12 7.501227253879103e-12
          1.2099934261432032e-11 1.3140462043597361e-11 8.182644203486911e-12 8.395207832921972e-12 8.59353876630656e-12 8.579716823551857e-12
          5.7849336252286594e-12 1.4180989825762693e-11 8.607771462357031e-12 8.565894880797154e-12 2.2844402434686175e-12 2.2127174876848256e-12
          3.269496296317474e-12 3.0836633535856326e-12 1.4328435849749074e-12 1.7359154232950688e-12 1.8416709337243607e-12 2.1409947319010342e-12
          2.8978304108537912e-12 1.9474264441536525e-12 5.330847244689538e-12 4.964004035076505e-12 2.6863360627856792e-12 4.4622750087418715e-12
          7.091621331881953e-12 6.648961734272215e-12 3.5879982277559504e-12 3.4110235424893892e-12 5.470478305304479e-12 2.9002525702133156e-12
          7.77610052355116e-12 7.32452461787786e-12 3.699873241881234e-12 6.074877142399424e-12 3.4889618279088177e-12 3.910618457651691e-12
          2.1456475907081405e-12 2.1895055934806317e-12 2.7854202805189618e-12 3.0865824413569002e-12 1.8125549037574598e-12 4.332275087394565e-12
          2.2333635962531228e-12 3.3877446021948382e-12 2.022462199150956e-12 2.6125441006243982e-12 4.209296623173206e-12 7.50666381193138e-12
          4.620541383071232e-12 4.334651219557431e-12 3.227069227600159e-12 2.368402369655528e-12 2.1625132834175007e-12 4.006221132248481e-12
          1.1543810123857582e-11 5.611894044707237e-12 4.970723030486118e-11 5.012611993556075e-12 1.338311220173863e-11 2.642426448680085e-12
          3.838698495767859e-12 1.6103526250129224e-11 9.60041195881829e-12 1.2419759537251884e-11 3.293504280608557e-11 1.523910711568548e-11
          4.905346730962071e-11 7.987198408581824e-11 4.0447404588964274e-11 2.017609209993079e-11 7.012276057888403e-11 5.475115658933246e-11
          1.914452197172922e-11 4.015277635027477e-11 8.907272659155523e-12 9.998473890082388e-12 1.455082273432493e-11 2.4682865353080754e-12
          3.0250409001057385e-12 2.354359350455325e-11 3.336145715460282e-11 3.3816634280410087e-11 1.046649136309793e-10 2.257974279262186e-10
          1.4105575886027135e-10 3.059912348336636e-10 1.5581678410815e-10 3.386589994229387e-10 3.876878472242739e-11 6.391972829305132e-11
          3.77466621677079e-11 6.532432319054681e-11 7.196489352834278e-11 2.5353941812186425e-11 2.84022971857016e-11 1.7309338828449917e-11
          3.105932011823539e-11 4.156095749673745e-11
        </DataArray>
        <DataArray type="Float64" Name="gradient_matprop_error" format="ascii" RangeMin="0" RangeMax="0">
          0 0 0 0 0 0
          0 0 0 0 0 0
          0 0 0 0 0 0
          0 0 0 0 0 0
          0 0 0 0 0 0
          0 0 0 0 0 0
          0 0 0 0 0 0
          0 0 0 0 0 0
          0 0 0 0 0 0
          0 0 0 0 0 0
          0 0 0 0 0 0
          0 0 0 0 0 0
          0 0 0 0 0 0
          0 0 0 0 0 0
          0 0 0 0 0 0
          0 0 0 0 0 0
          0 0 0 0 0 0
          0 0 0 0 0 0
          0 0 0 0 0 0
          0 0 0 0 0 0
          0 0 0 0 0 0
          0 0 0 0 0 0
          0 0 0 0 0 0
          0 0 0 0 0 0
          0 0 0 0 0 0
          0 0 0 0 0 0
          0 0 0 0 0 0
          0 0 0 0 0 0
          0 0 0 0 0 0
          0 0 0 0 0 0
          0 0 0 0 0 0
          0 0 0 0 0 0
          0 0 0 0 0 0
          0 0 0 0 0 0
          0 0 0 0 0 0
          0 0 0 0 0 0
          0 0 0 0 0 0
          0 0 0 0 0 0
          0 0 0 0 0 0
          0 0 0 0 0 0
          0 0 0 0 0 0
          0 0 0 0 0 0
          0 0 0 0 0 0
          0 0 0 0 0 0
          0 0 0 0 0 0
          0 0 0 0 0 0
          0 0 0 0 0 0
          0 0 0 0 0 0
          0 0 0 0 0 0
          0 0 0 0 0 0
          0 0 0 0 0 0
          0 0 0 0 0 0
          0 0 0 0 0 0
          0 0 0 0 0 0
          0 0 0 0 0 0
          0 0 0 0 0 0
          0 0 0 0 0 0
          0 0 0 0 0 0
          0 0 0 0 0 0
          0 0 0 0 0 0
          0 0 0 0 0 0
          0 0
        </DataArray>
        <DataArray type="Float64" Name="initial_marker" format="ascii" RangeMin="0" RangeMax="2">
          2 0 0 0 0 2
          1.75 0.5 0 2 2 0.5
          0 0 0 0 0 0
          0 0 0.5 0.5 0 2
          0 0 0 0 0 0
          0 0 0 0 1.5 1.5
          0.25 0.75 2 2 2 2
          2 2 2 1.75 2 0.5
          2 2 2 2 0 0.25
          0 0 0.5 0 0 0
          0 0 0 0 0 0
          0 0 0 0 0 0
          0 0 0 0 0 0
          0 0 0 0 0 0
          0 0 0 0 0 0
          0 0 0 0 0 0
          0 0 0 1 1.5 1.5
          1.5 2 0.5 1.25 1 2
          0 0 1 1 0 1
          1 0 1 1 2 2
          2 2 0 0.75 0 0.5
          0 0.5 0 1.75 1.6666666666666667 1.6666666666666667
          2 2 2 2 2 2
          2 2 2 2 2 2
          2 2 2 2 2 2
          2 2 2 2 2 2
          2 2 2 2 2 2
          2 2 2 2 2 2
          2 2 2 2 2 2
          2 1 1.5 1.5 1.5 1.75
          1.3333333333333333 2 2 2 2 2
          2 2 1.75 2 2 2
          1 1.5 0 1 0.5 1
          0.5 2 1.6666666666666667 1.5 2 2
          2 2 2 2 2 2
          2 2 2 2 2 2
          2 2 2 2 2 2
          2 2 2 2 2 2
          2 2 1.5 1.5 0.6666666666666666 2
          1.5 1.5 1 1.25 0.5 0.75
          0 0.5 0 1.75 1.25 1
          0 0.25 0 0 0 0
          0 0.5 0 0 2 1.5
          1.25 0.6666666666666666 2 1.5 1.5 0.5
          0 0 0 0.5 0 0
          0 0.25 0 0 0 0
          0 0.5 0 0 0 0
          0.5 0.5 0 0 0 0
          0.5 0 1 1 0 1
          1 1 0 0 1 0
          1 1 0 1 0.5 0.5
          0 0 0 0 0 0.5
          0 0 0 0 0 0
          0 0 0 0 0 0
          0 0 0 0 0 0
          0 0 0 0 0 0
          0 0 0.25 0 0 1.25
          0 0 0 0 0 0
          0 0 0 0 2 2
          2 2 2 2 1.3333333333333333 1.75
          1 1.75 2 0.3333333333333333 0.75 0
          1 0
        </DataArray>
        <DataArray type="Float64" Name="markers_norefine" format="ascii" RangeMin="0" RangeMax="0">
          0 0 0 0 0 0
          0 0 0 0 0 0
          0 0 0 0 0 0
          0 0 0 0 0 0
          0 0 0 0 0 0
          0 0 0 0 0 0
          0 0 0 0 0 0
          0 0 0 0 0 0
          0 0 0 0 0 0
          0 0 0 0 0 0
          0 0 0 0 0 0
          0 0 0 0 0 0
          0 0 0 0 0 0
          0 0 0 0 0 0
          0 0 0 0 0 0
          0 0 0 0 0 0
          0 0 0 0 0 0
          0 0 0 0 0 0
          0 0 0 0 0 0
          0 0 0 0 0 0
          0 0 0 0 0 0
          0 0 0 0 0 0
          0 0 0 0 0 0
          0 0 0 0 0 0
          0 0 0 0 0 0
          0 0 0 0 0 0
          0 0 0 0 0 0
          0 0 0 0 0 0
          0 0 0 0 0 0
          0 0 0 0 0 0
          0 0 0 0 0 0
          0 0 0 0 0 0
          0 0 0 0 0 0
          0 0 0 0 0 0
          0 0 0 0 0 0
          0 0 0 0 0 0
          0 0 0 0 0 0
          0 0 0 0 0 0
          0 0 0 0 0 0
          0 0 0 0 0 0
          0 0 0 0 0 0
          0 0 0 0 0 0
          0 0 0 0 0 0
          0 0 0 0 0 0
          0 0 0 0 0 0
          0 0 0 0 0 0
          0 0 0 0 0 0
          0 0 0 0 0 0
          0 0 0 0 0 0
          0 0 0 0 0 0
          0 0 0 0 0 0
          0 0 0 0 0 0
          0 0 0 0 0 0
          0 0 0 0 0 0
          0 0 0 0 0 0
          0 0 0 0 0 0
          0 0 0 0 0 0
          0 0 0 0 0 0
          0 0 0 0 0 0
          0 0 0 0 0 0
          0 0 0 0 0 0
          0 0
        </DataArray>
        <DataArray type="Float64" Name="markers_mustrefine" format="ascii" RangeMin="0" RangeMax="2">
          2 0 0 0 0 2
          1.75 0.5 0 2 2 0.5
          0 0 0 0 0 0
          0 0 0.5 0.5 0 2
          0 0 0 0 0 0
          0 0 0 0 1.5 1.5
          0.25 0.75 2 2 2 2
          2 2 2 1.75 2 0.5
          2 2 2 2 0 0.25
          0 0 0.5 0 0 0
          0 0 0 0 0 0
          0 0 0 0 0 0
          0 0 0 0 0 0
          0 0 0 0 0 0
          0 0 0 0 0 0
          0 0 0 0 0 0
          0 0 0 1 1.5 1.5
          1.5 2 0.5 1.25 1 2
          0 0 1 1 0 1
          1 0 1 1 2 2
          2 2 0 0.75 0 0.5
          0 0.5 0 1.75 1.6666666666666667 1.6666666666666667
          2 2 2 2 2 2
          2 2 2 2 2 2
          2 2 2 2 2 2
          2 2 2 2 2 2
          2 2 2 2 2 2
          2 2 2 2 2 2
          2 2 2 2 2 2
          2 1 1.5 1.5 1.5 1.75
          1.3333333333333333 2 2 2 2 2
          2 2 1.75 2 2 2
          1 1.5 0 1 0.5 1
          0.5 2 1.6666666666666667 1.5 2 2
          2 2 2 2 2 2
          2 2 2 2 2 2
          2 2 2 2 2 2
          2 2 2 2 2 2
          2 2 1.5 1.5 0.6666666666666666 2
          1.5 1.5 1 1.25 0.5 0.75
          0 0.5 0 1.75 1.25 1
          0 0.25 0 0 0 0
          0 0.5 0 0 2 1.5
          1.25 0.6666666666666666 2 1.5 1.5 0.5
          0 0 0 0.5 0 0
          0 0.25 0 0 0 0
          0 0.5 0 0 0 0
          0.5 0.5 0 0 0 0
          0.5 0 1 1 0 1
          1 1 0 0 1 0
          1 1 0 1 0.5 0.5
          0 0 0 0 0 0.5
          0 0 0 0 0 0
          0 0 0 0 0 0
          0 0 0 0 0 0
          0 0 0 0 0 0
          0 0 0.25 0 0 1.25
          0 0 0 0 0 0
          0 0 0 0 2 2
          2 2 2 2 1.3333333333333333 1.75
          1 1.75 2 0.3333333333333333 0.75 0
          1 0
        </DataArray>
        <DataArray type="Float64" Name="gradient_marker" format="ascii" RangeMin="1" RangeMax="1">
          1 1 1 1 1 1
          1 1 1 1 1 1
          1 1 1 1 1 1
          1 1 1 1 1 1
          1 1 1 1 1 1
          1 1 1 1 1 1
          1 1 1 1 1 1
          1 1 1 1 1 1
          1 1 1 1 1 1
          1 1 1 1 1 1
          1 1 1 1 1 1
          1 1 1 1 1 1
          1 1 1 1 1 1
          1 1 1 1 1 1
          1 1 1 1 1 1
          1 1 1 1 1 1
          1 1 1 1 1 1
          1 1 1 1 1 1
          1 1 1 1 1 1
          1 1 1 1 1 1
          1 1 1 1 1 1
          1 1 1 1 1 1
          1 1 1 1 1 1
          1 1 1 1 1 1
          1 1 1 1 1 1
          1 1 1 1 1 1
          1 1 1 1 1 1
          1 1 1 1 1 1
          1 1 1 1 1 1
          1 1 1 1 1 1
          1 1 1 1 1 1
          1 1 1 1 1 1
          1 1 1 1 1 1
          1 1 1 1 1 1
          1 1 1 1 1 1
          1 1 1 1 1 1
          1 1 1 1 1 1
          1 1 1 1 1 1
          1 1 1 1 1 1
          1 1 1 1 1 1
          1 1 1 1 1 1
          1 1 1 1 1 1
          1 1 1 1 1 1
          1 1 1 1 1 1
          1 1 1 1 1 1
          1 1 1 1 1 1
          1 1 1 1 1 1
          1 1 1 1 1 1
          1 1 1 1 1 1
          1 1 1 1 1 1
          1 1 1 1 1 1
          1 1 1 1 1 1
          1 1 1 1 1 1
          1 1 1 1 1 1
          1 1 1 1 1 1
          1 1 1 1 1 1
          1 1 1 1 1 1
          1 1 1 1 1 1
          1 1 1 1 1 1
          1 1 1 1 1 1
          1 1 1 1 1 1
          1 1
        </DataArray>
        <DataArray type="Float64" Name="gradient_matprop_marker" format="ascii" RangeMin="0" RangeMax="0">
          0 0 0 0 0 0
          0 0 0 0 0 0
          0 0 0 0 0 0
          0 0 0 0 0 0
          0 0 0 0 0 0
          0 0 0 0 0 0
          0 0 0 0 0 0
          0 0 0 0 0 0
          0 0 0 0 0 0
          0 0 0 0 0 0
          0 0 0 0 0 0
          0 0 0 0 0 0
          0 0 0 0 0 0
          0 0 0 0 0 0
          0 0 0 0 0 0
          0 0 0 0 0 0
          0 0 0 0 0 0
          0 0 0 0 0 0
          0 0 0 0 0 0
          0 0 0 0 0 0
          0 0 0 0 0 0
          0 0 0 0 0 0
          0 0 0 0 0 0
          0 0 0 0 0 0
          0 0 0 0 0 0
          0 0 0 0 0 0
          0 0 0 0 0 0
          0 0 0 0 0 0
          0 0 0 0 0 0
          0 0 0 0 0 0
          0 0 0 0 0 0
          0 0 0 0 0 0
          0 0 0 0 0 0
          0 0 0 0 0 0
          0 0 0 0 0 0
          0 0 0 0 0 0
          0 0 0 0 0 0
          0 0 0 0 0 0
          0 0 0 0 0 0
          0 0 0 0 0 0
          0 0 0 0 0 0
          0 0 0 0 0 0
          0 0 0 0 0 0
          0 0 0 0 0 0
          0 0 0 0 0 0
          0 0 0 0 0 0
          0 0 0 0 0 0
          0 0 0 0 0 0
          0 0 0 0 0 0
          0 0 0 0 0 0
          0 0 0 0 0 0
          0 0 0 0 0 0
          0 0 0 0 0 0
          0 0 0 0 0 0
          0 0 0 0 0 0
          0 0 0 0 0 0
          0 0 0 0 0 0
          0 0 0 0 0 0
          0 0 0 0 0 0
          0 0 0 0 0 0
          0 0 0 0 0 0
          0 0
        </DataArray>
        <DataArray type="Float64" Name="combo" format="ascii" RangeMin="1" RangeMax="1">
          1 1 1 1 1 1
          1 1 1 1 1 1
          1 1 1 1 1 1
          1 1 1 1 1 1
          1 1 1 1 1 1
          1 1 1 1 1 1
          1 1 1 1 1 1
          1 1 1 1 1 1
          1 1 1 1 1 1
          1 1 1 1 1 1
          1 1 1 1 1 1
          1 1 1 1 1 1
          1 1 1 1 1 1
          1 1 1 1 1 1
          1 1 1 1 1 1
          1 1 1 1 1 1
          1 1 1 1 1 1
          1 1 1 1 1 1
          1 1 1 1 1 1
          1 1 1 1 1 1
          1 1 1 1 1 1
          1 1 1 1 1 1
          1 1 1 1 1 1
          1 1 1 1 1 1
          1 1 1 1 1 1
          1 1 1 1 1 1
          1 1 1 1 1 1
          1 1 1 1 1 1
          1 1 1 1 1 1
          1 1 1 1 1 1
          1 1 1 1 1 1
          1 1 1 1 1 1
          1 1 1 1 1 1
          1 1 1 1 1 1
          1 1 1 1 1 1
          1 1 1 1 1 1
          1 1 1 1 1 1
          1 1 1 1 1 1
          1 1 1 1 1 1
          1 1 1 1 1 1
          1 1 1 1 1 1
          1 1 1 1 1 1
          1 1 1 1 1 1
          1 1 1 1 1 1
          1 1 1 1 1 1
          1 1 1 1 1 1
          1 1 1 1 1 1
          1 1 1 1 1 1
          1 1 1 1 1 1
          1 1 1 1 1 1
          1 1 1 1 1 1
          1 1 1 1 1 1
          1 1 1 1 1 1
          1 1 1 1 1 1
          1 1 1 1 1 1
          1 1 1 1 1 1
          1 1 1 1 1 1
          1 1 1 1 1 1
          1 1 1 1 1 1
          1 1 1 1 1 1
          1 1 1 1 1 1
          1 1
        </DataArray>
        <DataArray type="Float64" Name="dHdT" format="ascii" RangeMin="25.81154481398361" RangeMax="26.339918717110038">
          25.816292951848375 25.811697652121804 25.81156282820313 25.81269868925619 25.812472710608784 25.840611789182148
          25.820962368633687 25.8125311437118 25.81200970977748 26.04404302050773 25.86553830650938 25.812911332148687
          25.81160465600927 25.811601844690983 25.811569102147754 25.81156748861528 25.811658807837514 25.81161831058195
          25.81157262053862 25.812932986483446 25.81534531419718 25.814754533876734 25.813628916014903 25.833161960209438
          25.81216151216836 25.81210425621431 25.812584936043386 25.812436939792555 25.811742076868157 25.81199417624427
          25.811939331756 25.812000762059398 25.812278313680043 25.81188859029835 25.816617692952338 25.815424574674005
          25.812338515400096 25.813524791424506 25.94571083141673 25.90468791727639 25.845605025430114 25.969386656563284
          25.833459211752547 25.827139522850295 25.814527169602616 25.813702767836492 25.817715490513088 25.812478411782315
          25.84830589776397 25.83712871827806 25.8149806258674 25.8210005831858 25.81257995335848 25.813336065530503
          25.811906078714866 25.81197623048746 25.813862552269995 25.81206607568765 25.811739511070858 25.81175177606963
          25.811887020423235 25.81185857341238 25.811638083259517 25.811702245822573 25.81168556231993 25.81174794498683
          25.811783688689225 25.811653150109187 25.812033468765396 25.811925177999854 25.811712531003334 25.81180065192563
          25.8119657649236 25.81217534333286 25.81179789549614 25.811874708447796 25.811977005988666 25.812072587892047
          25.81185262053602 25.811631239110625 25.81162847638865 25.811676257499634 25.81166778397553 25.811591019376465
          25.81160303634762 25.81160429612948 25.811625713666672 25.811659310451425 25.811605555911342 25.81168534166773
          25.811707708036643 25.811621343278542 25.8116259064155 25.811653684481236 25.811664967274346 25.81161439142992
          25.81173007440555 25.811630469552455 25.811676250067464 25.816901340174013 25.822246284639313 25.82160386210706
          25.81994032758749 25.838500469724643 25.81523886025351 25.81786441830748 25.816607744044905 25.82674610552767
          25.814302034913478 25.814170536239654 25.816442316727674 25.81615799532593 25.81328168675053 25.814584623807367
          25.814410629836253 25.813826097105757 25.815429992195448 25.813976728530573 25.824136653594124 25.823253974906756
          25.817503825212295 25.821023149182803 25.81342062480921 25.81456501959445 25.812822850731337 25.81348974280777
          25.813228092972746 25.814143728722186 25.813262664419533 25.818359600762708 25.815109872642292 25.81672783245824
          25.88085164462418 25.87516996046115 25.861041328740455 26.116076399064344 26.088866573448264 25.933846224196103
          26.021833568257783 25.84469410249826 25.831173299245805 25.94621254312262 25.871805285728996 25.886388474128957
          26.271426440265724 26.228952749185517 26.013832810410726 25.995179040769532 26.124931453052305 25.94964829942686
          26.339918717110038 26.290584118649445 26.022310998659997 26.170064171121034 26.008637531588036 25.899031212052584
          25.918072869342392 25.859576798177137 26.03575772146713 25.910837822949805 25.931647931819228 25.840788307512334
          25.83846811335728 25.82333570310989 25.822435748999773 25.83267637521066 25.820183786288364 25.867181451111094
          25.8624010697178 25.83164340814547 25.850605223932607 25.81462454231245 25.814417322978244 25.81616845533675
          25.8158295578392 25.812752399429673 25.813326233898707 25.813212323061393 25.813902121903517 25.814981743904124
          25.81313527406361 25.81978908806537 25.81913099146196 25.81430725802181 25.81749264586551 25.825923435447027
          25.817538451222724 25.820275566703163 25.81530114182239 25.837187536912907 25.82196209848527 25.826347219598546
          25.813272581463075 25.81397683643832 25.812596908169986 25.812937970557655 25.812715372817728 25.81311856955023
          25.812469660842524 25.815593380956372 25.81336254726365 25.8140182827189 25.894520593472592 25.887073270441206
          25.843782475249387 25.840987439915814 25.86882393245522 25.834102836272404 25.90656419110129 25.897918132760076
          25.845073610182776 25.876777756386097 25.823464644275333 25.822473780481477 25.81575995208017 25.81542939474212
          25.82002026963214 25.814607881074647 25.825063480780976 25.823927370739177 25.815916520133747 25.821116613437972
          25.8483575845458 25.82629642273168 25.83218032185691 25.820024351528033 25.853177179014086 25.828159059416937
          25.834655271471505 25.817196390050867 25.813644809528473 25.81488433610441 25.81307781281589 25.817887109602555
          25.81388531463414 25.815253873053756 25.815163806874235 25.81648195724049 25.813269254482456 25.813792884166634
          25.814232515132137 25.81505482074963 25.81322860944687 25.81935514333891 25.81493526019926 25.81609149902623
          25.81234546856028 25.812546040031766 25.812064182804647 25.812168511320817 25.812211214248258 25.81233578637312
          25.812064644329233 25.812981929851738 25.812399429885946 25.812601659305948 25.822020253897534 25.815995823356907
          25.816619895243807 25.81422847656432 25.823130328723998 25.816437640166114 25.81704110513183 25.813392590572636
          25.812624491903236 25.812851666461533 25.812360933982255 25.81356793294506 25.812722963871565 25.812960372809147
          25.813965832443152 25.814095831599023 25.81314298277038 25.813193224281427 25.81325949133933 25.81332498838264
          25.81274606118697 25.8142258307549 25.81324346579248 25.81339048542595 25.8120627702905 25.812049562480826