<?xml version="1.0"?>
<VTKFile type="UnstructuredGrid" version="0.1" byte_order="LittleEndian" header_type="UInt32" compressor="vtkZLibDataCompressor">
  <UnstructuredGrid>
    <Piece NumberOfPoints="355" NumberOfCells="200">
      <PointData>
        <DataArray type="Int32" Name="libmesh_node_id" format="ascii" RangeMin="381" RangeMax="3236">
          383 391 636 637 638 644
          931 1380 1381 1382 1383 1384
          1385 1386 1387 1388 1389 1420
          1421 1422 1423 1424 1425 1426
          1427 1428 1429 1444 1445 1446
          1447 1451 1452 1454 1455 1457
          1482 1483 1486 1488 1489 1491
          1760 1761 1762 1765 1773 1774
          1775 1776 1777 1778 1779 1780
          1781 1782 2536 2537 2538 2539
          2540 2541 2542 2543 2544 2545
          2546 2547 2548 2549 2560 2561
          2562 2563 2564 2565 2566 2567
          2568 2569 2578 2580 2581 2582
          2583 2584 2585 2586 2587 2588
          2589 2593 2595 2597 2598 2599
          2600 2601 2602 2603 2660 2668
          2670 2768 2769 2771 2774 2776
          2777 2778 2779 2780 2781 2782
          2783 2784 2785 2787 2789 2791
          2793 2794 2795 2796 2797 2798
          2799 2802 2803 2805 2808 2810
          2811 2812 2813 2814 2815 2816
          2817 2818 2819 2821 2823 2825
          2827 2828 2829 2830 2831 2832
          2833 2946 2947 2948 2949 2950
          2951 2952 2953 2954 2955 2956
          2957 2958 2959 2960 2961 2962
          2963 2964 2965 2966 2967 2968
          2969 2970 2971 2972 2973 2977
          2978 2980 2981 2983 2984 2985
          2986 2987 2988 2989 2990 2991
          2992 2993 2994 2995 2998 2999
          3001 3003 3028 3030 3032 3038
          3040 3042 3048 3049 3050 3051
          3052 3053 3054 3055 3056 3057
          3058 3059 3062 3068 3069 3070
          3071 3072 3073 3074 3075 3077
          3082 3083 3084 3085 3086 3087
          3088 3089 3090 3091 3102 3103
          3104 3105 3106 3107 3108 381
          936 937 930 938 939 932
          944 935 647 653 384 1402
          1400 1403 1401 646 1448 1449
          1450 1453 1472 1473 1474 1475
          2669 2661 2671 2672 2673 2664
          2674 2675 2666 2676 2897 2891
          2898 2901 2895 2902 2925 2919
          2926 2929 2923 2930 2974 2975
          2976 2979 648 2982 1456 2996
          2997 3000 3002 649 3029 3031
          3033 3034 3035 3036 3039 3041
          3043 3044 3045 3046 3060 3061
          3063 3064 3065 1484 3066 3067
          1485 3076 3078 3079 3080 3081
          1487 3092 3093 3096 3098 3099
          3101 3109 3111 3113 3115 3191
          3192 3195 3196 3198 3199 3202
          3203 3225 3226 3229 3230 3232
          3236
        </DataArray>
        <DataArray type="Float64" Name="bounds" format="ascii" RangeMin="0" RangeMax="0">
          0 0 0 0 0 0
          0 0 0 0 0 0
          0 0 0 0 0 0
          0 0 0 0 0 0
          0 0 0 0 0 0
          0 0 0 0 0 0
          0 0 0 0 0 0
          0 0 0 0 0 0
          0 0 0 0 0 0
          0 0 0 0 0 0
          0 0 0 0 0 0
          0 0 0 0 0 0
          0 0 0 0 0 0
          0 0 0 0 0 0
          0 0 0 0 0 0
          0 0 0 0 0 0
          0 0 0 0 0 0
          0 0 0 0 0 0
          0 0 0 0 0 0
          0 0 0 0 0 0
          0 0 0 0 0 0
          0 0 0 0 0 0
          0 0 0 0 0 0
          0 0 0 0 0 0
          0 0 0 0 0 0
          0 0 0 0 0 0
          0 0 0 0 0 0
          0 0 0 0 0 0
          0 0 0 0 0 0
          0 0 0 0 0 0
          0 0 0 0 0 0
          0 0 0 0 0 0
          0 0 0 0 0 0
          0 0 0 0 0 0
          0 0 0 0 0 0
          0 0 0 0 0 0
          0 0 0 0 0 0
          0 0 0 0 0 0
          0 0 0 0 0 0
          0 0 0 0 0 0
          0 0 0 0 0 0
          0 0 0 0 0 0
          0 0 0 0 0 0
          0 0 0 0 0 0
          0 0 0 0 0 0
          0 0 0 0 0 0
          0 0 0 0 0 0
          0 0 0 0 0 0
          0 0 0 0 0 0
          0 0 0 0 0 0
          0 0 0 0 0 0
          0 0 0 0 0 0
          0 0 0 0 0 0
          0 0 0 0 0 0
          0 0 0 0 0 0
          0 0 0 0 0 0
          0 0 0 0 0 0
          0 0 0 0 0 0
          0 0 0 0 0 0
          0
        </DataArray>
        <DataArray type="Float64" Name="gradient_error" format="ascii" RangeMin="6.953356806694914e-12" RangeMax="2.625156028751106e-8">
          6.362535815629376e-11 1.2009570763783005e-8 2.1292179895482124e-10 2.7124821022643635e-9 8.947245040896153e-10 4.974476541559693e-9
          4.6931359922622284e-11 8.901135654093262e-11 2.97832476223449e-10 2.618417389786036e-10 3.715834884681222e-10 5.39070273730218e-10
          2.16070247201734e-10 7.497225924733453e-9 5.780197856597722e-9 2.055877970331716e-9 2.5907706677496692e-9 2.2720262798964534e-8
          1.9110720287004357e-8 9.574951637955537e-9 7.664809418803948e-9 8.948807647536206e-9 3.2582519794323052e-9 2.5612028776952386e-8
          2.529925879508844e-8 1.0847997892796683e-8 1.3204408536129674e-8 4.4271557796567136e-11 7.22793938117013e-11 1.0531856271971314e-10
          1.1542149553926699e-10 9.946912763357361e-11 9.605511029199682e-11 7.563178092478236e-10 5.71439224906596e-10 2.5008351989011665e-10
          2.892215542080476e-9 2.2271130634501457e-9 9.07737928913692e-10 4.022287200314501e-9 3.3208869863736726e-9 1.3995082361029574e-9
          2.4808729488238548e-11 5.3577018532775156e-11 4.978556746706199e-11 4.599411640134883e-11 9.370643114021382e-12 1.1365425582995707e-11
          1.669560709286806e-11 1.70110054768438e-11 7.4920371079262e-12 6.953356806694914e-12 9.695179207025752e-12 1.3360208051970034e-11
          1.7326403860819542e-11 1.2437001607356591e-11 6.868209480762575e-11 6.837293070873966e-11 1.5224961283148477e-10 1.451762668726278e-10
          4.3537672074564955e-11 8.728182509291217e-11 8.310800412150169e-11 6.500730522668784e-11 1.259493219651049e-10 8.002129918635544e-11
          5.22194161259169e-10 4.938222750681063e-10 2.804217398789721e-10 4.177664475648937e-10 6.067332840243109e-11 1.0041996979499742e-10
          4.9281302638464124e-11 7.389950798658671e-11 5.939581296134005e-11 8.704421657355592e-11 6.560348471428944e-11 3.1545087626888084e-10
          2.2017662507179837e-10 2.597879129460673e-10 7.033104908612346e-9 1.6909273982464347e-9 1.5878108111041211e-9 9.680758411002411e-10
          9.089222095423499e-10 1.3140179906571362e-9 7.517889263069324e-10 4.664943030441283e-9 4.363403632046011e-9 2.5324244500956047e-9
          3.5592836157862313e-9 1.04674614568428e-9 4.13678809949342e-9 9.602135114451322e-10 5.484730307173402e-10 6.249819802494884e-10
          3.564603772353563e-10 2.5228695661164155e-9 1.4490406124973704e-9 1.5647377413206492e-9 3.482869095755566e-10 2.0593148539198453e-10
          1.1825964320106992e-10 1.519810477636675e-8 1.4385350200183265e-8 1.2038469932063351e-8 2.193257922077558e-8 9.885301691754284e-9
          9.30746857385856e-9 5.936202300404453e-9 5.563175038001587e-9 7.676929233402652e-9 4.535925567265687e-9 1.5229938289715998e-8
          1.462610965541987e-8 9.113990405273645e-9 1.2569340826591538e-8 8.69083480979153e-9 5.362023149170026e-9 1.4286527665388147e-8
          5.435440546128142e-9 3.1684983657024836e-9 3.290813051265575e-9 1.8964711645408278e-9 9.18437231458389e-9 5.4637564676171135e-9
          5.591871282734637e-9 2.5707771874878514e-8 2.5720176738534463e-8 2.3864545268687566e-8 2.625156028751106e-8 1.7617104325883252e-8
          1.7479788814372767e-8 1.1618826727230576e-8 1.135475905791245e-8 1.5987964094117966e-8 1.004314246607244e-8 1.778833299979039e-8
          1.8005444876639433e-8 1.1922717756584763e-8 1.7051932195173703e-8 1.8681733903955982e-8 1.2013074011248404e-8 2.0276027889900518e-8
          1.2250892643703094e-8 7.42496004117438e-9 7.617480655325306e-9 4.482135670238466e-9 1.338787449980193e-8 8.177262634019095e-9
          8.420997766243954e-9 2.521311076848716e-11 2.8375565180508086e-11 4.7848428684429006e-11 4.637600353663387e-11 2.2259019509666674e-11
          3.301010794112031e-11 3.304147643585131e-11 3.1538019592529004e-11 4.490357838883872e-11 3.307284493058231e-11 1.6227524191585103e-10
          1.521735390414557e-10 9.814149538219768e-11 1.54013293621695e-10 5.263821415391518e-10 4.937376037332031e-10 2.7167357504337906e-10
          2.5463882461795934e-10 4.0756349559391283e-10 2.1005014982299248e-10 1.4772839079439668e-9 1.3778159305490173e-9 7.052764647283562e-10
          1.1161389261573772e-9 6.506731859171913e-11 6.127743388453361e-11 1.3255444962098025e-10 1.2437636523768017e-10 5.150987882995228e-11
          1.0296738082303093e-10 3.6551859448612443e-10 3.4100618283448526e-10 2.768017798844117e-10 1.5160407090306795e-10 2.97207710675498e-10
          7.842666972053508e-11 1.5348197044370972e-10 1.0279664746042295e-10 1.936466546526824e-10 1.004355421394881e-10 7.855481842060866e-10
          4.030273390602636e-10 4.853184039752722e-10 3.920073074023789e-11 7.57241496208163e-11 2.7343774444671524e-11 4.9801357999300497e-11
          1.963209770787158e-10 1.2270084318554734e-10 6.510640024912437e-11 3.4641049295330686e-11 4.9931438852574494e-11 1.798617014580663e-11
          1.2679073614984487e-11 1.4154044400189501e-11 3.294529952239703e-9 3.0780414683394403e-9 1.6992225736475308e-9 1.584513583694843e-9
          2.4911177251643815e-9 1.2772457215718724e-9 5.49210935176113e-9 5.191227258392085e-9 2.720375677287425e-9 4.296342270770899e-9
          8.191117332735722e-10 7.631671915194242e-10 6.145183467353582e-10 1.7265852409696735e-9 8.830566474127374e-10 1.0287241174816237e-9
          5.270267294537125e-10 3.011956424879548e-9 1.5461839544016952e-9 1.774979800024151e-9 4.2583371203919687e-10 2.559977345984015e-10
          6.940034800243359e-9 6.690671220005585e-9 3.755426496584598e-9 3.586777473748717e-9 5.7521961338867356e-9 3.0239848744330554e-9
          7.3290405314029e-9 7.146843570084101e-9 3.875255203699198e-9 6.274906943593541e-9 4.141782044129068e-9 2.1400611274620023e-9
          2.4547915765899934e-9 1.2568897097463204e-9 4.5845367024741425e-9 2.3763502339924463e-9 2.73093164198933e-9 8.624433243781183e-11
          1.746220844219822e-11 2.2506427321918154e-11 7.327259518119823e-11 1.6103526250129224e-11 3.293504280608557e-11 1.243978790926328e-10
          4.905346730962071e-11 2.0782196581082816e-10 4.375204753555085e-11 7.987198408581824e-11 2.3008504854725e-10 2.2148766132663125e-10
          5.935824047462473e-10 1.7644532580566808e-10 3.97532949611868e-10 4.300431301480932e-11 4.548212880022915e-11 5.0433964747752037e-11
          4.339416024057873e-11 3.4759244476577946e-11 7.203547321434782e-11 8.871539215739663e-11 2.354359350455325e-11 3.336145715460282e-11
          3.6919711386992094e-10 6.211717806619499e-10 2.0992468493315044e-10 1.1975412929962749e-10 2.0072058057410714e-10 3.40955585045905e-10
          1.3241582001827153e-10 8.685581313519724e-10 1.4480262139804112e-9 4.953384919758914e-10 1.7414184537315109e-9 2.8785312008212865e-9
          9.969842794733732e-10 2.8937204561705597e-9 4.7394054038729825e-9 1.6630377953596423e-9 3.9282458044438734e-9 6.3843707373996224e-9
          2.2675178456326454e-9 4.3472340836535605e-9 7.044997292483374e-9 2.513841402206201e-9 2.8795191864738005e-11 6.152520313281478e-11
          5.782993546059829e-11 4.818946786796604e-11 1.6726943514554687e-10 1.5621758730910332e-10 1.2724946278454432e-10 1.9257896229435975e-11
          3.5622412847779114e-11 2.748218485331754e-11 9.067686134191034e-11 6.237705514788831e-11 1.1403397337691456e-10 5.972677645057382e-11
          8.115613353888877e-11 4.305018405614561e-11 2.68333852686007e-10 1.389644776314372e-10 2.9835017387771333e-11 1.968835095459658e-11
          2.1779137226892492e-11 1.4931262845256462e-11 6.86934366015413e-11 3.876878472242739e-11 3.711576679107647e-10 3.458262896646322e-10
          2.7884777891266293e-10 1.4093888059680457e-9 1.321300225216554e-9 6.401492136890406e-10 5.989915388828678e-10 1.0746793978493185e-9
          4.857787894041137e-10 1.9433061294106933e-10 1.179655258607781e-10 7.432909157450266e-10 3.3637783093825027e-10 4.375830759633263e-10
          1.9967764448421766e-10 1.8643283393577236e-9 1.7685299912740604e-9 1.4709488416368043e-9 2.0171069250044926e-9 1.926256846075717e-9
          1.6223969040929742e-9 1.0308163291179758e-9 6.04746595215479e-10 1.1463238651682553e-9 6.731797628839431e-10 5.40565590870428e-10
          2.78495267394906e-10 9.018773613413693e-10 4.6292598500818234e-10 1.3698719709069763e-10 6.391972829305132e-11 2.257974279262186e-10
          1.046649136309793e-10 1.2308101494023548e-9 6.305373505537911e-10 1.3652905989955175e-9 6.99096814223972e-10 3.059912348336636e-10
          3.386589994229387e-10
        </DataArray>
        <DataArray type="Float64" Name="gradient_matprop_error" format="ascii" RangeMin="0" RangeMax="0">
          0 0 0 0 0 0
          0 0 0 0 0 0
          0 0 0 0 0 0
          0 0 0 0 0 0
          0 0 0 0 0 0
          0 0 0 0 0 0
          0 0 0 0 0 0
          0 0 0 0 0 0
          0 0 0 0 0 0
          0 0 0 0 0 0
          0 0 0 0 0 0
          0 0 0 0 0 0
          0 0 0 0 0 0
          0 0 0 0 0 0
          0 0 0 0 0 0
          0 0 0 0 0 0
          0 0 0 0 0 0
          0 0 0 0 0 0
          0 0 0 0 0 0
          0 0 0 0 0 0
          0 0 0 0 0 0
          0 0 0 0 0 0
          0 0 0 0 0 0
          0 0 0 0 0 0
          0 0 0 0 0 0
          0 0 0 0 0 0
          0 0 0 0 0 0
          0 0 0 0 0 0
          0 0 0 0 0 0
          0 0 0 0 0 0
          0 0 0 0 0 0
          0 0 0 0 0 0
          0 0 0 0 0 0
          0 0 0 0 0 0
          0 0 0 0 0 0
          0 0 0 0 0 0
          0 0 0 0 0 0
          0 0 0 0 0 0
          0 0 0 0 0 0
          0 0 0 0 0 0
          0 0 0 0 0 0
          0 0 0 0 0 0
          0 0 0 0 0 0
          0 0 0 0 0 0
          0 0 0 0 0 0
          0 0 0 0 0 0
          0 0 0 0 0 0
          0 0 0 0 0 0
          0 0 0 0 0 0
          0 0 0 0 0 0
          0 0 0 0 0 0
          0 0 0 0 0 0
          0 0 0 0 0 0
          0 0 0 0 0 0
          0 0 0 0 0 0
          0 0 0 0 0 0
          0 0 0 0 0 0
          0 0 0 0 0 0
          0 0 0 0 0 0
          0
        </DataArray>
        <DataArray type="Float64" Name="initial_marker" format="ascii" RangeMin="0" RangeMax="2">
          0 2 0 2 2 2
          0 0 2 1.75 0 1.5
          1 2 2 2 2 2
          2 2 2 2 2 2
          2 2 2 0 0 1
          1 0 0.5 2 2 2
          2 2 2 2 2 2
          0 0 0 0 0 0
          0 0 0 0 0 0
          0 0 0 0 1 1
          0 1 1 0 1 1
          2 2 2 2 0 0.75
          0 0.5 0 0.5 0 1.75
          1.6666666666666667 1.6666666666666667 2 2 2 2
          2 2 2 2 2 2
          2 2 2 2 2 2
          2 2 2 2 2 1.5
          1 2 2 2 2 2
          2 2 2 2 2 2
          2 2 2 2 2 2
          2 2 2 2 2 2
          2 2 2 2 2 2
          2 2 2 2 2 2
          2 2 2 2 2 2
          2 2 2 2 2 2
          2 0 0 0.5 0.5 0
          0 0 0 0.5 0 1.5
          1.5 1.3333333333333333 1.6666666666666667 2 2 2
          2 2 2 2 2 2
          2 2 2 2 2 2
          2 2 2 2 2 2
          2 2 1.5 1.75 1.5 2
          2 2 1.5 1.75 0.5 1.25
          2 2 0.5 0 0 0
          0 0 2 2 2 2
          2 2 2 2 2 2
          2 2 2 2 2 2
          2 2 2 2 2 2
          2 2 2 2 2 2
          2 2 2 2 2 2
          2 2 2 2 2 0
          0 0 0 0 0 0
          0 0 0 0 0 0
          0 0 0.5 0 0 0.5
          0.5 0 0 0 0 0
          1.75 2 1.5 0.5 1.25 1.5
          1 2 2 2 2 2
          2 2 2 2 2 2
          2 2 2 2 1 1.5
          1.5 1.5 2 2 2 0.5
          1.25 1 2 1.75 1.25 0.75
          1 0.5 2 1.75 0.5 0.5
          0 0 1.5 1.3333333333333333 2 2
          2 2 2 2 2 2
          2 2 2 2 2 2
          2 2 2 2 2 2
          2 2 2 2 2 2
          2 2 2 2 1.75 2
          2 2 2 2 2 2
          2
        </DataArray>
        <DataArray type="Float64" Name="markers_norefine" format="ascii" RangeMin="0" RangeMax="0">
          0 0 0 0 0 0
          0 0 0 0 0 0
          0 0 0 0 0 0
          0 0 0 0 0 0
          0 0 0 0 0 0
          0 0 0 0 0 0
          0 0 0 0 0 0
          0 0 0 0 0 0
          0 0 0 0 0 0
          0 0 0 0 0 0
          0 0 0 0 0 0
          0 0 0 0 0 0
          0 0 0 0 0 0
          0 0 0 0 0 0
          0 0 0 0 0 0
          0 0 0 0 0 0
          0 0 0 0 0 0
          0 0 0 0 0 0
          0 0 0 0 0 0
          0 0 0 0 0 0
          0 0 0 0 0 0
          0 0 0 0 0 0
          0 0 0 0 0 0
          0 0 0 0 0 0
          0 0 0 0 0 0
          0 0 0 0 0 0
          0 0 0 0 0 0
          0 0 0 0 0 0
          0 0 0 0 0 0
          0 0 0 0 0 0
          0 0 0 0 0 0
          0 0 0 0 0 0
          0 0 0 0 0 0
          0 0 0 0 0 0
          0 0 0 0 0 0
          0 0 0 0 0 0
          0 0 0 0 0 0
          0 0 0 0 0 0
          0 0 0 0 0 0
          0 0 0 0 0 0
          0 0 0 0 0 0
          0 0 0 0 0 0
          0 0 0 0 0 0
          0 0 0 0 0 0
          0 0 0 0 0 0
          0 0 0 0 0 0
          0 0 0 0 0 0
          0 0 0 0 0 0
          0 0 0 0 0 0
          0 0 0 0 0 0
          0 0 0 0 0 0
          0 0 0 0 0 0
          0 0 0 0 0 0
          0 0 0 0 0 0
          0 0 0 0 0 0
          0 0 0 0 0 0
          0 0 0 0 0 0
          0 0 0 0 0 0
          0 0 0 0 0 0
          0
        </DataArray>
        <DataArray type="Float64" Name="markers_mustrefine" format="ascii" RangeMin="0" RangeMax="2">
          0 2 0 2 2 2
          0 0 2 1.75 0 1.5
          1 2 2 2 2 2
          2 2 2 2 2 2
          2 2 2 0 0 1
          1 0 0.5 2 2 2
          2 2 2 2 2 2
          0 0 0 0 0 0
          0 0 0 0 0 0
          0 0 0 0 1 1
          0 1 1 0 1 1
          2 2 2 2 0 0.75
          0 0.5 0 0.5 0 1.75
          1.6666666666666667 1.6666666666666667 2 2 2 2
          2 2 2 2 2 2
          2 2 2 2 2 2
          2 2 2 2 2 1.5
          1 2 2 2 2 2
          2 2 2 2 2 2
          2 2 2 2 2 2
          2 2 2 2 2 2
          2 2 2 2 2 2
          2 2 2 2 2 2
          2 2 2 2 2 2
          2 2 2 2 2 2
          2 0 0 0.5 0.5 0
          0 0 0 0.5 0 1.5
          1.5 1.3333333333333333 1.6666666666666667 2 2 2
          2 2 2 2 2 2
          2 2 2 2 2 2
          2 2 2 2 2 2
          2 2 1.5 1.75 1.5 2
          2 2 1.5 1.75 0.5 1.25
          2 2 0.5 0 0 0
          0 0 2 2 2 2
          2 2 2 2 2 2
          2 2 2 2 2 2
          2 2 2 2 2 2
          2 2 2 2 2 2
          2 2 2 2 2 2
          2 2 2 2 2 0
          0 0 0 0 0 0
          0 0 0 0 0 0
          0 0 0.5 0 0 0.5
          0.5 0 0 0 0 0
          1.75 2 1.5 0.5 1.25 1.5
          1 2 2 2 2 2
          2 2 2 2 2 2
          2 2 2 2 1 1.5
          1.5 1.5 2 2 2 0.5
          1.25 1 2 1.75 1.25 0.75
          1 0.5 2 1.75 0.5 0.5
          0 0 1.5 1.3333333333333333 2 2
          2 2 2 2 2 2
          2 2 2 2 2 2
          2 2 2 2 2 2
          2 2 2 2 2 2
          2 2 2 2 1.75 2
          2 2 2 2 2 2
          2
        </DataArray>
        <DataArray type="Float64" Name="gradient_marker" format="ascii" RangeMin="1" RangeMax="1">
          1 1 1 1 1 1
          1 1 1 1 1 1
          1 1 1 1 1 1
          1 1 1 1 1 1
          1 1 1 1 1 1
          1 1 1 1 1 1
          1 1 1 1 1 1
          1 1 1 1 1 1
          1 1 1 1 1 1
          1 1 1 1 1 1
          1 1 1 1 1 1
          1 1 1 1 1 1
          1 1 1 1 1 1
          1 1 1 1 1 1
          1 1 1 1 1 1
          1 1 1 1 1 1
          1 1 1 1 1 1
          1 1 1 1 1 1
          1 1 1 1 1 1
          1 1 1 1 1 1
          1 1 1 1 1 1
          1 1 1 1 1 1
          1 1 1 1 1 1
          1 1 1 1 1 1
          1 1 1 1 1 1
          1 1 1 1 1 1
          1 1 1 1 1 1
          1 1 1 1 1 1
          1 1 1 1 1 1
          1 1 1 1 1 1
          1 1 1 1 1 1
          1 1 1 1 1 1
          1 1 1 1 1 1
          1 1 1 1 1 1
          1 1 1 1 1 1
          1 1 1 1 1 1
          1 1 1 1 1 1
          1 1 1 1 1 1
          1 1 1 1 1 1
          1 1 1 1 1 1
          1 1 1 1 1 1
          1 1 1 1 1 1
          1 1 1 1 1 1
          1 1 1 1 1 1
          1 1 1 1 1 1
          1 1 1 1 1 1
          1 1 1 1 1 1
          1 1 1 1 1 1
          1 1 1 1 1 1
          1 1 1 1 1 1
          1 1 1 1 1 1
          1 1 1 1 1 1
          1 1 1 1 1 1
          1 1 1 1 1 1
          1 1 1 1 1 1
          1 1 1 1 1 1
          1 1 1 1 1 1
          1 1 1 1 1 1
          1 1 1 1 1 1
          1
        </DataArray>
        <DataArray type="Float64" Name="gradient_matprop_marker" format="ascii" RangeMin="0" RangeMax="0">
          0 0 0 0 0 0
          0 0 0 0 0 0
          0 0 0 0 0 0
          0 0 0 0 0 0
          0 0 0 0 0 0
          0 0 0 0 0 0
          0 0 0 0 0 0
          0 0 0 0 0 0
          0 0 0 0 0 0
          0 0 0 0 0 0
          0 0 0 0 0 0
          0 0 0 0 0 0
          0 0 0 0 0 0
          0 0 0 0 0 0
          0 0 0 0 0 0
          0 0 0 0 0 0
          0 0 0 0 0 0
          0 0 0 0 0 0
          0 0 0 0 0 0
          0 0 0 0 0 0
          0 0 0 0 0 0
          0 0 0 0 0 0
          0 0 0 0 0 0
          0 0 0 0 0 0
          0 0 0 0 0 0
          0 0 0 0 0 0
          0 0 0 0 0 0
          0 0 0 0 0 0
          0 0 0 0 0 0
          0 0 0 0 0 0
          0 0 0 0 0 0
          0 0 0 0 0 0
          0 0 0 0 0 0
          0 0 0 0 0 0
          0 0 0 0 0 0
          0 0 0 0 0 0
          0 0 0 0 0 0
          0 0 0 0 0 0
          0 0 0 0 0 0
          0 0 0 0 0 0
          0 0 0 0 0 0
          0 0 0 0 0 0
          0 0 0 0 0 0
          0 0 0 0 0 0
          0 0 0 0 0 0
          0 0 0 0 0 0
          0 0 0 0 0 0
          0 0 0 0 0 0
          0 0 0 0 0 0
          0 0 0 0 0 0
          0 0 0 0 0 0
          0 0 0 0 0 0
          0 0 0 0 0 0
          0 0 0 0 0 0
          0 0 0 0 0 0
          0 0 0 0 0 0
          0 0 0 0 0 0
          0 0 0 0 0 0
          0 0 0 0 0 0
          0
        </DataArray>
        <DataArray type="Float64" Name="combo" format="ascii" RangeMin="1" RangeMax="1">
          1 1 1 1 1 1
          1 1 1 1 1 1
          1 1 1 1 1 1
          1 1 1 1 1 1
          1 1 1 1 1 1
          1 1 1 1 1 1
          1 1 1 1 1 1
          1 1 1 1 1 1
          1 1 1 1 1 1
          1 1 1 1 1 1
          1 1 1 1 1 1
          1 1 1 1 1 1
          1 1 1 1 1 1
          1 1 1 1 1 1
          1 1 1 1 1 1
          1 1 1 1 1 1
          1 1 1 1 1 1
          1 1 1 1 1 1
          1 1 1 1 1 1
          1 1 1 1 1 1
          1 1 1 1 1 1
          1 1 1 1 1 1
          1 1 1 1 1 1
          1 1 1 1 1 1
          1 1 1 1 1 1
          1 1 1 1 1 1
          1 1 1 1 1 1
          1 1 1 1 1 1
          1 1 1 1 1 1
          1 1 1 1 1 1
          1 1 1 1 1 1
          1 1 1 1 1 1
          1 1 1 1 1 1
          1 1 1 1 1 1
          1 1 1 1 1 1
          1 1 1 1 1 1
          1 1 1 1 1 1
          1 1 1 1 1 1
          1 1 1 1 1 1
          1 1 1 1 1 1
          1 1 1 1 1 1
          1 1 1 1 1 1
          1 1 1 1 1 1
          1 1 1 1 1 1
          1 1 1 1 1 1
          1 1 1 1 1 1
          1 1 1 1 1 1
          1 1 1 1 1 1
          1 1 1 1 1 1
          1 1 1 1 1 1
          1 1 1 1 1 1
          1 1 1 1 1 1
          1 1 1 1 1 1
          1 1 1 1 1 1
          1 1 1 1 1 1
          1 1 1 1 1 1
          1 1 1 1 1 1
          1 1 1 1 1 1
          1 1 1 1 1 1
          1
        </DataArray>
        <DataArray type="Float64" Name="dHdT" format="ascii" RangeMin="25.81159021683296" RangeMax="36.86201222380924">
          25.81698775523909 30.199018121434477 25.816944021156893 26.304383924791438 25.96075562377552 26.73772484438379
          25.81217454193512 25.816973153533958 25.863040153978353 25.851922954307156 25.827146583735125 25.87652461991628
          25.83338866778041 27.257308536646846 26.86500930401607 26.17094698898138 26.25413400394644 33.11901885802821
          30.926005856376374 28.229099639480417 27.45310177768628 27.499674964043987 26.38515672092997 36.86201222380924
          34.296963917663646 28.675332625275434 28.60842198874698 25.813651350821598 25.81411836971766 25.82563741914819
          25.823216563222672 25.81459567133904 25.818524343543277 25.945444007888224 25.90938085836379 25.85280798305795
          26.455262478366798 26.25605588332963 25.96805969225945 26.92684377125928 26.568681437164535 26.06433146629022
          25.812583509317037 25.813473361334914 25.81346166753615 25.81344997373738 25.81196377041134 25.8120057778858
          25.812237811971436 25.812281688825458 25.811829778376946 25.811931023108485 25.811978801134835 25.81204778536026
          25.812325565679483 25.81202657916118 25.82522307966754 25.82484347752984 25.839430265925436 25.83828623720286
          25.81948004698114 25.827534341359584 25.827050858274 25.823839553983987 25.83523996244293 25.82696925874805
          25.902692197692197 25.897573146643616 25.86020400296804 25.88421187280717 25.82284269153475 25.83161999043744
          25.82027409260941 25.826540569852938 25.822470150493658 25.82990226446931 25.825308113838524 25.867450158886932
          25.849826587174533 25.858337829212946 27.145179388558873 26.108185981738885 26.0883032725041 25.979175576721317
          25.96785529548397 26.037231774409186 25.93884113467866 26.676309906829555 26.609975266577973 26.266425160886257
          26.443115511861677 25.990740747907047 26.535745489342943 25.974304709442066 25.90335382000893 25.917324462730562
          25.87145904569235 26.245281136323243 26.0577708536709 26.075241636548583 25.873822472788994 25.848681664665584
          25.83309645149096 29.585805777426618 29.23902274524559 28.390615991340105 32.51817386025448 27.97835268479906
          27.785079388296193 27.022709388097418 26.919478793802085 27.31686764189239 26.664208384721064 30.326073056570518
          29.877005044007177 28.00151832870859 28.799783278838834 27.46437086895833 26.75516579054436 28.997312954676612
          26.79564934847549 26.372280629767985 26.37748188631378 26.133595756604485 27.658499014322476 26.852427427641597
          26.81746599604344 35.93738693957319 35.28773179246937 33.357016912072766 36.24338126713455 32.893761913076396
          32.19665281480559 29.576377184482673 29.195028631160145 30.45833341571413 28.295425894218347 34.00408828922747
          33.222693033630115 29.74305212533349 31.217284707917912 30.60997711272376 28.26642350007935 31.30297027086758
          28.582589825071473 27.34388400116095 27.25381449054616 26.631821983519966 29.00302443625288 27.560303982037173
          27.442986859400015 25.816198902607816 25.816287311709765 25.820496802513237 25.820400939863042 25.815119221671253
          25.81794145459839 25.81793953705342 25.816375720811706 25.820305077212844 25.81793761950845 25.8394460021036
          25.83808525306373 25.82854006683586 25.8382879743226 25.901353768743746 25.8953787151202 25.857467999374055
          25.854512430399474 25.880061046566112 25.846896027825707 26.076228666493204 26.055871244535908 25.935200590732627
          26.004550000100902 25.822773249914313 25.82221174321033 25.834122176116942 25.83271577649244 25.820718654185935
          25.82907947034306 25.875490547356648 25.8707031021298 25.85862658605315 25.83731211213717 25.86125581121427
          25.82538265127895 25.837437643808318 25.829704977600354 25.84424278563256 25.82878781772421 25.94372326946636
          25.87885406371015 25.891841304425007 25.818747046805793 25.82452318298878 25.81681572293748 25.820328269306025
          25.84423346569494 25.83181989930614 25.823786797178805 25.818380941273844 25.821372948511158 25.815286783539687
          25.814215558772524 25.81464914295048 26.46170345420675 26.4073232902884 26.140983866963722 26.11315792966745
          26.271181607204948 26.04398608211331 27.08563959062367 26.97099911467986 26.39781143033067 26.689488405964447
          25.967364313550505 25.95429908083 25.92184064356905 26.113532757111628 25.964382841146982 25.984525966227963
          25.899469784378063 26.37245784006503 26.09556122517252 26.120597987549893 25.884537678377203 25.854039062165032
          27.745957430801667 27.56314657150964 26.782467392314867 26.693015378520627 27.120852323599205 26.473587740195345
          28.04019549148203 27.826300497293794 26.822917261012517 27.31079839793291 26.633353102310195 26.227836879709457
          26.254167334217875 26.035504232898923 26.746609010072238 26.285101500285222 26.31128861060664 25.811641847900233
          25.81159021683296 25.81163618964179 25.81185869906341 25.8116730946904 25.81178683950771 25.81253713807683
          25.811889209084228 25.812907501078882 25.812472710608784 25.812411146881956 25.8143566631497 25.81830672263018
          25.828667035738953 25.821828809666403 25.839233877103446 25.81269868925619 25.812932986483446 25.81534531419718
          25.814754533876734 25.813628916014903 25.81412156930145 25.815561273641002 25.812593680292338 25.813018107546384
          25.875019093971893 25.9189399960037 25.847831517634194 25.834729114384213 25.84781475961449 25.872508146091764
          25.83587951770363 25.956921799760718 26.057493641697473 25.893716376136076 26.10475294759833 26.303736367073654
          25.97741523425701 26.30802789881721 26.63974867267858 26.09360707209451 26.49896844754454 26.95683463352252
          26.203114739681894 26.57889991640809 27.090714891658635 26.24897963519407 25.816901340174013 25.822246284639313
          25.82160386210706 25.81994032758749 25.840611789182148 25.838500469724643 25.833161960209438 25.81523886025351
          25.81786441830748 25.816607744044905 25.82674610552767 25.820962368633687 25.831705488628767 25.82241069842851
          25.826718596785383 25.819885854798734 25.856202778717904 25.834851986352408 25.817226817814642 25.81543102156981
          25.815993899176608 25.814658053034492 25.823212251831457 25.818270629266184 25.88085164462418 25.87516996046115
          25.861041328740455 26.116076399064344 26.088866573448264 25.94571083141673 25.933846224196103 26.021833568257783
          25.90468791727639 25.84469410249826 25.831173299245805 25.94621254312262 25.871805285728996 25.886388474128957
          25.845605025430114 26.271426440265724 26.228952749185517 26.124931453052305 26.339918717110038 26.290584118649445