<?xml version="1.0"?>
<VTKFile type="UnstructuredGrid" version="0.1" byte_order="LittleEndian" header_type="UInt32" compressor="vtkZLibDataCompressor">
  <UnstructuredGrid>
    <Piece NumberOfPoints="368" NumberOfCells="200">
      <PointData>
        <DataArray type="Int32" Name="libmesh_node_id" format="ascii" RangeMin="192" RangeMax="2117">
          192 306 309 314 316 591
          595 596 598 599 603 604
          605 617 618 619 620 621
          622 623 624 625 626 642
          648 970 972 973 974 975
          976 977 978 979 980 981
          982 996 997 999 1042 1058
          1059 1060 1061 1062 1063 1064
          1065 1066 1067 1068 1069 1070
          1071 1072 1073 1074 1075 1076
          1077 1078 1079 1080 1084 1085
          1087 1088 1091 1092 1093 1094
          1095 1096 1097 1098 1099 1100
          1101 1102 1103 1104 1105 1106
          1107 1108 1109 1110 1111 1112
          1113 1114 1115 1117 1118 1119
          1121 1122 1123 1124 1125 1126
          1127 1131 1140 1203 1217 1231
          1232 1237 1238 1717 1718 1720
          1723 1741 1743 1744 1745 1746
          1748 1750 1751 1752 1753 1754
          1755 1756 1757 1758 1759 1760
          1761 1762 1763 1764 1765 1766
          1769 1770 1772 1773 1774 1775
          1776 1777 1778 1779 1780 1781
          1782 1783 1784 1785 1786 1788
          1790 1791 1792 1794 1795 1796
          1797 1798 1799 1800 1801 1802
          1803 1804 1805 1806 1807 1808
          1809 1810 1811 1812 1813 1814
          1815 1816 1817 1818 1819 1820
          1821 1822 1824 1825 1826 1828
          1829 1830 1831 1832 1833 1834
          1835 1836 1837 1838 1839 1840
          1841 1842 1843 1844 1845 1846
          1847 1848 1849 1850 1851 1852
          1853 1854 1855 1856 1857 1858
          1859 1860 1861 1862 1863 1864
          1865 1866 1867 1868 1869 1870
          1871 1872 1873 1874 1875 1876
          1877 1878 1879 1880 1881 1882
          1883 1884 1885 1886 1887 1888
          1889 1890 1891 1892 1893 1894
          1895 1896 1897 1898 1899 1900
          1901 1902 2016 2017 2018 2019
          2030 2031 2032 2050 2051 2052
          2053 2054 2055 2056 2057 2058
          2059 2070 2071 2072 2073 2074
          2075 2076 2084 2085 2086 2087
          2088 2089 2090 2091 2092 2093
          2104 2105 2106 2107 2108 2109
          2110 584 585 644 649 653
          654 661 662 683 700 688
          706 1128 1129 1197 1198 1201
          1130 1200 1202 1204 1206 1221
          1235 1251 1223 1253 1240 1255
          1257 2013 2020 2021 2014 2026
          2027 2024 2015 2029 2060 2061
          2064 2066 2067 2069 2033 2077
          2035 2079 2081 2083 2094 2095
          2098 2100 2101 2103 2111 2113
          2115 2117
        </DataArray>
        <DataArray type="Float64" Name="bounds" format="ascii" RangeMin="0" RangeMax="0">
          0 0 0 0 0 0
          0 0 0 0 0 0
          0 0 0 0 0 0
          0 0 0 0 0 0
          0 0 0 0 0 0
          0 0 0 0 0 0
          0 0 0 0 0 0
          0 0 0 0 0 0
          0 0 0 0 0 0
          0 0 0 0 0 0
          0 0 0 0 0 0
          0 0 0 0 0 0
          0 0 0 0 0 0
          0 0 0 0 0 0
          0 0 0 0 0 0
          0 0 0 0 0 0
          0 0 0 0 0 0
          0 0 0 0 0 0
          0 0 0 0 0 0
          0 0 0 0 0 0
          0 0 0 0 0 0
          0 0 0 0 0 0
          0 0 0 0 0 0
          0 0 0 0 0 0
          0 0 0 0 0 0
          0 0 0 0 0 0
          0 0 0 0 0 0
          0 0 0 0 0 0
          0 0 0 0 0 0
          0 0 0 0 0 0
          0 0 0 0 0 0
          0 0 0 0 0 0
          0 0 0 0 0 0
          0 0 0 0 0 0
          0 0 0 0 0 0
          0 0 0 0 0 0
          0 0 0 0 0 0
          0 0 0 0 0 0
          0 0 0 0 0 0
          0 0 0 0 0 0
          0 0 0 0 0 0
          0 0 0 0 0 0
          0 0 0 0 0 0
          0 0 0 0 0 0
          0 0 0 0 0 0
          0 0 0 0 0 0
          0 0 0 0 0 0
          0 0 0 0 0 0
          0 0 0 0 0 0
          0 0 0 0 0 0
          0 0 0 0 0 0
          0 0 0 0 0 0
          0 0 0 0 0 0
          0 0 0 0 0 0
          0 0 0 0 0 0
          0 0 0 0 0 0
          0 0 0 0 0 0
          0 0 0 0 0 0
          0 0 0 0 0 0
          0 0 0 0 0 0
          0 0 0 0 0 0
          0 0
        </DataArray>
        <DataArray type="Float64" Name="gradient_error" format="ascii" RangeMin="3.203440703396078e-9" RangeMax="3.0836311065403437e-7">
          1.6135305675902705e-8 2.9357456808841997e-7 2.4688273445563794e-7 3.203440703396078e-9 2.6498842894375866e-7 2.4047344247160367e-7
          2.2743452458671666e-7 1.8792223237073147e-7 1.803770681666112e-7 1.461207324178536e-7 2.7996948620488814e-7 2.212334478220871e-7
          1.8682075204175227e-7 1.1433675087444616e-7 1.436730017036214e-7 1.4837175199654779e-7 1.6853554652496912e-7 2.40424608859588e-7
          1.9933373488511978e-7 8.204072239942618e-9 1.1988798088750376e-7 1.5416024201590458e-7 3.0836311065403437e-7 2.1340754482946169e-7
          2.6308303632350274e-7 1.2836173319644262e-7 1.442460432298574e-7 1.356220487841999e-7 1.417323329945189e-7 1.1247149263320444e-7
          1.575055102608062e-7 1.456229205916811e-7 1.4576821246958378e-7 1.1400052911157573e-7 7.807099784776412e-8 8.23182618505065e-8
          7.176550845486302e-8 1.4974397749389474e-7 1.4495707395122977e-7 1.285988687741242e-7 8.650359378208054e-9 1.6395292877161545e-7
          1.5769753417272695e-7 1.796672764755619e-7 1.7141624748772972e-7 1.368043796398129e-7 1.4463187833457836e-7 1.0193236857396996e-7
          1.0099566080345283e-7 1.1303482040235702e-7 1.3126185220710863e-7 1.9676980706454129e-7 1.857268578474951e-7 2.1391705782294218e-7
          1.9925895695223137e-7 1.513244090349327e-7 1.5561859370718253e-7 1.2982555728501078e-7 1.2708519295631604e-7 1.4287971396915203e-7
          1.5656473080828415e-7 8.49171462412363e-8 1.0408443017588469e-7 1.0470476233288905e-7 1.3983683223312365e-7 1.4744171405657955e-7
          1.0342152328659545e-7 9.945430935992367e-8 1.5350057555290678e-7 1.5649999568295233e-7 1.1692548653454211e-7 8.680707437764949e-9
          1.4555706970421645e-8 1.1500609514223355e-8 1.6252803971506017e-8 1.0430377010883809e-7 1.1677868864543405e-7 5.596175374627177e-9
          9.48906503635892e-9 1.2497643512552948e-8 1.065924959355156e-7 1.6169556996731266e-8 2.0247769352240285e-8 2.251061188452578e-8
          2.6821810937192728e-8 1.309414555649589e-7 1.4599387054307595e-7 1.1734402517934954e-8 1.7693604786761265e-8 2.4962534686795486e-8
          1.3587204204841562e-7 1.6430316789565154e-7 1.778762968861915e-7 1.4827235935201111e-7 1.721843854355888e-7 1.879604284744955e-7
          1.9123111911129813e-7 2.023339515493593e-7 1.5053946612212256e-7 1.4790753685769515e-7 2.0423313584220943e-7 2.1881102199779828e-7
          1.6310296504777687e-7 1.0313702032483545e-7 6.34034155506323e-8 9.915514151626896e-8 9.224865201284089e-8 3.0519114696599644e-8
          3.5691533596825575e-8 2.0581464067797556e-8 3.4605150774731366e-8 3.996396287913226e-9 5.291703194935104e-9 1.0288323284953245e-8
          4.195092089575701e-9 2.071429144099837e-8 2.0722881821518182e-8 2.1500307265943284e-8 2.2294820267688376e-8 2.354647079362789e-8
          2.3120806997982196e-8 2.4704497842012183e-8 2.6444266914022636e-8 2.459378680713698e-8 2.2124906851386287e-8 2.33390245210666e-8
          2.4880953936792027e-8 2.6529733955671485e-8 2.5655642618886863e-8 2.6941699283062566e-8 2.9519917417587533e-8 3.048874509848869e-8
          2.8374791954585367e-8 3.0507196099529514e-8 2.8243258188574683e-8 3.28007584416792e-8 3.5281228204460244e-8 3.28517826336193e-8
          1.5333815278957762e-8 1.657001926357569e-8 1.97403735154849e-8 8.08251923572921e-9 9.73394919505509e-9 1.0100974380098406e-8
          1.4552363989054485e-8 1.5903602481412668e-8 1.715786795239197e-8 1.6942844485087985e-8 1.8132789961381945e-8 2.059787239450176e-8
          2.171750744663422e-8 9.808140824439861e-9 1.1042948515610149e-8 1.2563752289038962e-8 1.5151693515332463e-8 2.2487831487376645e-8
          2.3301139191977115e-8 1.955562245809268e-8 2.023948389197229e-8 2.385612229251757e-8 2.5418421038878102e-8 2.4928633219402898e-8
          2.6724562622163668e-8 2.1219713793051768e-8 2.247792787482682e-8 2.4413796762219052e-8 5.0017687758703985e-9 5.982845818154199e-9
          6.247441263403988e-9 7.124437657705482e-9 1.0223991089644164e-8 1.0669016995942037e-8 4.44066477410866e-9 5.211396833000716e-9
          6.472673641367161e-9 8.807265838212859e-9 7.66671232982661e-9 8.597186229533199e-9 9.282703329862007e-9 1.0387530037500411e-8
          1.1670658859280064e-8 1.3268857693035012e-8 6.801466152080652e-9 7.923904066686763e-9 9.618315151998416e-9 1.068720468327084e-8
          1.7094352099613454e-8 1.7592222282300786e-8 2.1847844624724473e-8 1.6075211319455744e-8 1.6560332757428092e-8 1.840020730901718e-8
          1.9608795187971664e-8 2.298675702871402e-8 2.4172231735012126e-8 1.7368733774953774e-8 1.865430979002326e-8 2.2409400164658746e-8
          1.8515526414662494e-8 1.959772831749843e-8 2.061192284794868e-8 2.1620509177523376e-8 2.317072467576687e-8 2.5051415211120957e-8
          1.364524283987704e-8 1.4623477833932236e-8 1.719551227591229e-8 1.7934353705902687e-8 2.320047567457504e-8 2.41909831372642e-8
          2.633265893396657e-8 2.7324581581249206e-8 2.745950122334269e-8 3.039721069830485e-8 1.9102919176963658e-8 2.0262403174982087e-8
          2.3847320179754435e-8 2.322173617997275e-8 2.7197214404296427e-8 2.9219408116986244e-8 2.8732909677393477e-8 3.0965081318828656e-8
          2.4079985194153173e-8 2.6117105089415665e-8 2.7892975804488414e-8 3.154511542293817e-8 3.4216005030096714e-8 3.335271899914432e-8
          3.595409289211558e-8 2.8695747405795174e-8 3.1843484122265406e-8 3.2369909624645366e-8 1.1115695683030366e-8 1.2474478852196867e-8
          1.3233340758622668e-8 1.4922317917758906e-8 1.5458280256492004e-8 1.821295193916145e-8 9.847051664245348e-9 1.1558434150459512e-8
          1.3813675701947959e-8 1.4859568497040892e-8 1.5655579223297843e-8 1.7765374406601627e-8 1.8359025346074935e-8 2.100637676529563e-8
          2.152366832271525e-8 2.5410730833998177e-8 1.3850628822931574e-8 1.6446209454704913e-8 1.9447358915993278e-8 2.1034121633681697e-8
          2.1321138792261428e-8 2.362005455913188e-8 2.555897909290222e-8 2.7425500316836002e-8 2.0501944050223994e-8 2.2937519073875403e-8
          2.455456774303988e-8 2.6543559807202352e-8 3.009192573620242e-8 2.9914952558879616e-8 3.301611798892482e-8 2.5985097207011483e-8
          2.9647665083607202e-8 2.894374123313783e-8 3.141098104355639e-8 3.264980696991051e-8 3.740085168066832e-8 3.587477039711227e-8
          3.7939348455184784e-8 4.072723233256942e-8 3.8017789012409674e-8 3.0017760926779545e-8 3.1020390561142275e-8 3.397003013452037e-8
          3.5029371882946844e-8 3.378603625983787e-8 3.753938051053463e-8 2.6343744979112904e-8 2.7950993764312885e-8 3.2495096419268496e-8
          3.100066372680384e-8 3.7164064084910045e-8 4.034327691284276e-8 3.877907584564935e-8 4.16965064359896e-8 3.5469447482325036e-8
          3.9516133244156745e-8 3.849581006055525e-8 2.125707379570644e-8 2.463047526858361e-8 2.4175088638205217e-8 2.8528734089071935e-8
          2.991237997452417e-8 3.4950697104809394e-8 1.8451198443189768e-8 2.2749937160915496e-8 2.620547709078138e-8 2.9520734618004147e-8
          3.421309872490348e-8 3.888016761898646e-8 3.660531424221941e-8 4.074132056829278e-8 3.387608219979221e-8 3.868739024277553e-8
          3.575937104221735e-8 2.6211020156122216e-7 2.206476252267007e-7 1.632539765462912e-7 2.0497991542605443e-7 1.2678152538431402e-7
          1.0071302038245883e-7 1.9159321584084834e-7 1.38612698497098e-7 1.430934084351749e-7 1.0951717402462143e-7 1.9723258849824907e-7
          1.397580800140923e-7 1.5482395918151394e-7 1.4026103509802756e-7 1.5863792343459572e-7 1.7392352568259943e-7 1.5547105431756916e-7
          1.2805322470295212e-7 1.756952767740591e-7 1.4872167142079233e-7 1.235797449002875e-7 1.7665843034045295e-7 1.544942444960696e-7
          1.594261567261654e-7 2.0801715037316832e-7 1.0306023557838441e-7 1.3930226473060553e-7 1.7153781321281072e-7 2.2813970022924693e-7
          1.531977430827259e-7 4.061433807249544e-8 4.163014963911766e-8 4.004991695017355e-8 3.918600911126537e-8 4.067921855226903e-8
          4.053111954529713e-8 3.846968426122946e-8 3.775768015003531e-8 4.160720509373011e-8 3.834599368820171e-8 3.9465478590831596e-8
          4.170269463700324e-8 3.4863880206519095e-8 3.728122503532271e-8 4.072463076942156e-8 4.344891526982866e-8 4.364226320148032e-8
          4.2842256335117484e-8 4.4464100622415644e-8 4.386803443231957e-8 4.598537718992234e-8 2.6832170528386517e-8 3.2465788481016636e-8
          4.028782777231607e-8 2.215459178891297e-8 2.9538582039030643e-8 3.997948225911782e-8 4.392717119202106e-8 4.537809327305673e-8
          4.395388465253495e-8 4.487137707598259e-8
        </DataArray>
        <DataArray type="Float64" Name="gradient_matprop_error" format="ascii" RangeMin="0" RangeMax="0">
          0 0 0 0 0 0
          0 0 0 0 0 0
          0 0 0 0 0 0
          0 0 0 0 0 0
          0 0 0 0 0 0
          0 0 0 0 0 0
          0 0 0 0 0 0
          0 0 0 0 0 0
          0 0 0 0 0 0
          0 0 0 0 0 0
          0 0 0 0 0 0
          0 0 0 0 0 0
          0 0 0 0 0 0
          0 0 0 0 0 0
          0 0 0 0 0 0
          0 0 0 0 0 0
          0 0 0 0 0 0
          0 0 0 0 0 0
          0 0 0 0 0 0
          0 0 0 0 0 0
          0 0 0 0 0 0
          0 0 0 0 0 0
          0 0 0 0 0 0
          0 0 0 0 0 0
          0 0 0 0 0 0
          0 0 0 0 0 0
          0 0 0 0 0 0
          0 0 0 0 0 0
          0 0 0 0 0 0
          0 0 0 0 0 0
          0 0 0 0 0 0
          0 0 0 0 0 0
          0 0 0 0 0 0
          0 0 0 0 0 0
          0 0 0 0 0 0
          0 0 0 0 0 0
          0 0 0 0 0 0
          0 0 0 0 0 0
          0 0 0 0 0 0
          0 0 0 0 0 0
          0 0 0 0 0 0
          0 0 0 0 0 0
          0 0 0 0 0 0
          0 0 0 0 0 0
          0 0 0 0 0 0
          0 0 0 0 0 0
          0 0 0 0 0 0
          0 0 0 0 0 0
          0 0 0 0 0 0
          0 0 0 0 0 0
          0 0 0 0 0 0
          0 0 0 0 0 0
          0 0 0 0 0 0
          0 0 0 0 0 0
          0 0 0 0 0 0
          0 0 0 0 0 0
          0 0 0 0 0 0
          0 0 0 0 0 0
          0 0 0 0 0 0
          0 0 0 0 0 0
          0 0 0 0 0 0
          0 0
        </DataArray>
        <DataArray type="Float64" Name="initial_marker" format="ascii" RangeMin="0.5" RangeMax="2">
          2 2 2 2 2 1.5
          1 0.75 1 1 2 1.75
          2 2 2 2 2 1.5
          1.5 2 2 2 2 0.5
          1 2 2 2 2 2
          2 2 2 2 2 2
          2 2 2 2 2 2
          2 2 2 2 2 2
          2 2 2 2 2 2
          2 2 2 2 2 2
          2 2 2 2 2 2
          2 2 2 2 2 2
          2 2 2 2 2 2
          2 2 2 2 2 2
          2 2 2 2 2 2
          2 2 2 2 2 2
          2 2 2 2 2 2
          2 2 2 2 2 2
          2 2 2 2 2 2
          2 2 2 2 2 2
          2 2 2 2 2 2
          2 2 2 2 2 2
          2 2 2 2 2 2
          2 2 2 2 2 2
          2 2 2 2 2 2
          2 2 2 2 2 2
          2 2 2 2 2 2
          2 2 2 2 2 2
          2 2 2 2 2 2
          2 2 2 2 2 2
          2 2 2 2 2 2
          2 2 2 2 2 2
          2 2 2 2 2 2
          2 2 2 2 2 2
          2 2 2 2 2 2
          2 2 2 2 2 2
          2 2 2 2 2 2
          2 2 2 2 2 2
          2 2 2 2 2 2
          2 2 2 2 2 2
          2 2 2 2 2 2
          2 2 2 2 2 2
          2 2 2 2 2 2
          2 2 2 2 2 2
          2 2 2 2 2 2
          2 2 2 2 2 2
          2 2 2 2 2 2
          2 2 2 2 2 2
          2 2 2 2 2 2
          2 2 2 2 2 2
          2 2 2 2 2 2
          2 1 0.5 0.5 1 1
          1 2 2 1.5 0.5 2
          1 2 2 2 2 2
          2 2 2 2 2 2
          2 2 2 2 2 2
          2 2 2 2 2 2
          2 2 2 2 2 2
          2 2 2 2 2 2
          2 2 2 2 2 2
          2 2 2 2 2 2
          2 2
        </DataArray>
        <DataArray type="Float64" Name="markers_norefine" format="ascii" RangeMin="0" RangeMax="2">
          2 0 0 2 0 0
          0 0 0 0 0 0
          0 1 0 1 0 0
          0 2 1 1 0 0
          0 0 0 0 0 0
          0 0 0 0 0 0
          0 0 0 0 2 0
          0 0 0 0 0 1
          0 0.5 0 0 0 0
          0 0 0 1 0.75 1
          0 0 0 0 0 0
          0 0 0 0 0 2
          2 2 2 0 0.5 2
          2 2 0.5 2 2 2
          2 0.75 1 2 2 2
          1 0 0 0 0 0
          0 0 0 0 0 0
          0 0 0 1.5 0 2
          2 2 2 2 2 2
          2 1 2 1.5 2 0.5
          0 0 0 0 2 2
          2 1 2 2 2 2
          0 0.5 0 1 1 0
          2 1.5 1 2 2 2
          1.75 2 1.75 2 2 1.25
          1.5 2 2 2 2 0.5
          0 0.75 1 0.5 0.5 0
          0 1.25 1.5 0.5 2 2
          2 2 2 2 2 2
          2 2 2 2 2 2
          2 2 2 2 2 2
          1 1.25 0.5 1 1.5 1.75
          2 1.5 2 2 2 2
          2 2 2 2 1.5 1.75
          2 2 2 2 2 2
          2 2 2 2 2 2
          2 2 0.5 1 0 0.5
          1.5 1.75 1 1.5 1.5 1
          1 2 2 2 2 2
          2 2 2 2 2 2
          2 2 2 2 2 2
          2 2 2 2 2 2
          2 2 2 2 2 2
          2 2 2 2 2 2
          2 2 2 2 1.6666666666666667 2
          1 1 0 2 2 2
          2 2 2 2 2 2
          2 1.5 1.5 1 1 2
          2 2 2 2 2 2
          2 2 2 2 2 2
          2 2 2 2 2 2
          2 0 0 0 0 0
          0 0 0 0 0 0
          0 0 0 0 0 0
          0 0 0 1 0 0
          1 0 0 0 1 0
          0 1 1 0.5 0.5 2
          1.5 0 0 1.3333333333333333 2 2
          2 2 2 2 1 1.5
          0 1 2 2 2 2
          2 2 2 2 2 2
          2 2
        </DataArray>
        <DataArray type="Float64" Name="markers_mustrefine" format="ascii" RangeMin="0.5" RangeMax="2">
          2 2 2 2 2 1.5
          1 0.75 1 1 2 1.75
          2 2 2 2 2 1.5
          1.5 2 2 2 2 0.5
          1 2 2 2 2 2
          2 2 2 2 2 2
          2 2 2 2 2 2
          2 2 2 2 2 2
          2 2 2 2 2 2
          2 2 2 2 2 2
          2 2 2 2 2 2
          2 2 2 2 2 2
          2 2 2 2 2 2
          2 2 2 2 2 2
          2 2 2 2 2 2
          2 2 2 2 2 2
          2 2 2 2 2 2
          2 2 2 2 2 2
          2 2 2 2 2 2
          2 2 2 2 2 2
          2 2 2 2 2 2
          2 2 2 2 2 2
          2 2 2 2 2 2
          2 2 2 2 2 2
          2 2 2 2 2 2
          2 2 2 2 2 2
          2 2 2 2 2 2
          2 2 2 2 2 2
          2 2 2 2 2 2
          2 2 2 2 2 2
          2 2 2 2 2 2
          2 2 2 2 2 2
          2 2 2 2 2 2
          2 2 2 2 2 2
          2 2 2 2 2 2
          2 2 2 2 2 2
          2 2 2 2 2 2
          2 2 2 2 2 2
          2 2 2 2 2 2
          2 2 2 2 2 2
          2 2 2 2 2 2
          2 2 2 2 2 2
          2 2 2 2 2 2
          2 2 2 2 2 2
          2 2 2 2 2 2
          2 2 2 2 2 2
          2 2 2 2 2 2
          2 2 2 2 2 2
          2 2 2 2 2 2
          2 2 2 2 2 2
          2 2 2 2 2 2
          2 1 0.5 0.5 1 1
          1 2 2 1.5 0.5 2
          1 2 2 2 2 2
          2 2 2 2 2 2
          2 2 2 2 2 2
          2 2 2 2 2 2
          2 2 2 2 2 2
          2 2 2 2 2 2
          2 2 2 2 2 2
          2 2 2 2 2 2
          2 2
        </DataArray>
        <DataArray type="Float64" Name="gradient_marker" format="ascii" RangeMin="0" RangeMax="1">
          0 1 1 0 1 0.75
          0.5 0.5 0.5 0.5 1 0.75
          0.75 0.5 0.75 0.5 0.75 0.75
          0.75 0 0.5 0.5 1 0.5
          0.5 1 1 1 1 0.5
          1 1 1 0.5 0 0
          0 1 1 0.75 0 1
          1 1 1 0.75 0.75 0.5
          0.5 0.5 0.75 1 1 1
          1 0.75 0.75 0.5 0.5 0.5
          0.75 0 0.25 0.25 0.75 0.75
          0.25 0.25 0.75 0.75 0.5 0
          0 0 0 0.5 0.5 0
          0 0 0.5 0 0 0
          0 0.5 0.5 0 0 0
          0.5 1 1 1 1 1
          1 1 1 1 1 1
          1 0.5 0 0.25 0.25 0
          0 0 0 0 0 0
          0 0 0 0 0 0
          0 0 0 0 0 0
          0 0 0 0 0 0
          0 0 0 0 0 0
          0 0 0 0 0 0
          0 0 0 0 0 0
          0 0 0 0 0 0
          0 0 0 0 0 0
          0 0 0 0 0 0
          0 0 0 0 0 0
          0 0 0 0 0 0
          0 0 0 0 0 0
          0 0 0 0 0 0
          0 0 0 0 0 0
          0 0 0 0 0 0
          0 0 0 0 0 0
          0 0 0 0 0 0
          0 0 0 0 0 0
          0 0 0 0 0 0
          0 0 0 0 0 0
          0 0 0 0 0 0
          0 0 0 0 0 0
          0 0 0 0 0 0
          0 0 0 0 0 0
          0 0 0 0 0 0
          0 0 0 0 0 0
          0 0 0 0 0 0
          0 0 0 0 0 0
          0 0 0 0 0 0
          0 0 0 0 0 0
          0 0 0 0 0 0
          0 0 0 0 0 0
          0 0.5 0.5 0.5 0.5 0.5
          0.375 1 0.625 0.5 0.375 1
          0.5 1 1 0.75 0.875 0.75
          1 0.875 0.75 0.375 0.75 0.75
          0.5 1 0.5 1 0.5 1
          1 0 0 0 0 0
          0 0 0 0 0 0
          0 0 0 0 0 0
          0 0 0 0 0 0
          0 0 0 0 0 0
          0 0
        </DataArray>
        <DataArray type="Float64" Name="gradient_matprop_marker" format="ascii" RangeMin="0" RangeMax="0">
          0 0 0 0 0 0
          0 0 0 0 0 0
          0 0 0 0 0 0
          0 0 0 0 0 0
          0 0 0 0 0 0
          0 0 0 0 0 0
          0 0 0 0 0 0
          0 0 0 0 0 0
          0 0 0 0 0 0
          0 0 0 0 0 0
          0 0 0 0 0 0
          0 0 0 0 0 0
          0 0 0 0 0 0
          0 0 0 0 0 0
          0 0 0 0 0 0
          0 0 0 0 0 0
          0 0 0 0 0 0
          0 0 0 0 0 0
          0 0 0 0 0 0
          0 0 0 0 0 0
          0 0 0 0 0 0
          0 0 0 0 0 0
          0 0 0 0 0 0
          0 0 0 0 0 0
          0 0 0 0 0 0
          0 0 0 0 0 0
          0 0 0 0 0 0
          0 0 0 0 0 0
          0 0 0 0 0 0
          0 0 0 0 0 0
          0 0 0 0 0 0
          0 0 0 0 0 0
          0 0 0 0 0 0
          0 0 0 0 0 0
          0 0 0 0 0 0
          0 0 0 0 0 0
          0 0 0 0 0 0
          0 0 0 0 0 0
          0 0 0 0 0 0
          0 0 0 0 0 0
          0 0 0 0 0 0
          0 0 0 0 0 0
          0 0 0 0 0 0
          0 0 0 0 0 0
          0 0 0 0 0 0
          0 0 0 0 0 0
          0 0 0 0 0 0
          0 0 0 0 0 0
          0 0 0 0 0 0
          0 0 0 0 0 0
          0 0 0 0 0 0
          0 0 0 0 0 0
          0 0 0 0 0 0
          0 0 0 0 0 0
          0 0 0 0 0 0
          0 0 0 0 0 0
          0 0 0 0 0 0
          0 0 0 0 0 0
          0 0 0 0 0 0
          0 0 0 0 0 0
          0 0 0 0 0 0
          0 0
        </DataArray>
        <DataArray type="Float64" Name="combo" format="ascii" RangeMin="0" RangeMax="2">
          2 1 1 2 1 0.75
          0.5 0.5 0.5 0.5 1 0.75
          0.75 1.5 0.75 1.5 0.75 0.75
          0.75 2 1.5 1.5 1 0.5
          0.5 1 1 1 1 0.5
          1 1 1 0.5 0 0
          0 1 1 0.75 2 1
          1 1 1 0.75 0.75 1.5
          0.5 1 0.75 1 1 1
          1 0.75 0.75 1.5 1.25 1.5
          0.75 0 0.25 0.25 0.75 0.75
          0.25 0.25 0.75 0.75 0.5 2
          2 2 2 0.5 1 2
          2 2 1 2 2 2
          2 1.25 1.5 2 2 2
          1.5 1 1 1 1 1
          1 1 1 1 1 1
          1 0.5 0 1.75 0.25 2
          2 2 2 2 2 2
          2 1 2 1.5 2 0.5
          0 0 0 0 2 2
          2 1 2 2 2 2
          0 0.5 0 1 1 0
          2 1.5 1 2 2 2
          1.75 2 1.75 2 2 1.25
          1.5 2 2 2 2 0.5
          0 0.75 1 0.5 0.5 0
          0 1.25 1.5 0.5 2 2
          2 2 2 2 2 2
          2 2 2 2 2 2
          2 2 2 2 2 2
          1 1.25 0.5 1 1.5 1.75
          2 1.5 2 2 2 2
          2 2 2 2 1.5 1.75
          2 2 2 2 2 2
          2 2 2 2 2 2
          2 2 0.5 1 0 0.5
          1.5 1.75 1 1.5 1.5 1
          1 2 2 2 2 2
          2 2 2 2 2 2
          2 2 2 2 2 2
          2 2 2 2 2 2
          2 2 2 2 2 2
          2 2 2 2 2 2
          2 2 2 2 1.6666666666666667 2
          1 1 0 2 2 2
          2 2 2 2 2 2
          2 1.5 1.5 1 1 2
          2 2 2 2 2 2
          2 2 2 2 2 2
          2 2 2 2 2 2
          2 0.5 0.5 0.5 0.5 0.5
          0.375 1 0.625 0.5 0.375 1
          0.5 1 1 0.75 0.875 0.75
          1 0.875 0.75 1.375 0.75 0.75
          1.5 1 0.5 1 1.5 1
          1 1 1 0.5 0.5 2
          1.5 0 0 1.3333333333333333 2 2
          2 2 2 2 1 1.5
          0 1 2 2 2 2
          2 2 2 2 2 2
          2 2
        </DataArray>
        <DataArray type="Float64" Name="dHdT" format="ascii" RangeMin="26.382246074732688" RangeMax="94.60977471608811">
          46.26035149098581 32.64618008857558 31.11743168588697 59.88813144584176 31.222820055308805 31.16933186677469
          27.436901732769513 27.077595281293227 26.971443257699754 26.710624680701493 31.964397492135078 30.431952437324455
          29.474374694569374 56.56312347440621 37.788952358635576 54.18339854951928 38.39003305034203 30.660840357153692
          29.587548420164765 45.833973763738115 55.134086235954335 52.53303448036094 32.21075599513139 27.266637269850527
          27.715989057039845 35.34800542891097 35.511852182487004 35.01518631003842 34.623103022134714 33.28690747427967
          34.76594679873797 34.15134537490393 33.56662797474231 32.212224100730644 29.620519768851985 30.13333529792031
          29.055745682774145 37.8456295959428 36.95949837998279 35.17060832034974 94.60977471608811 39.16459863672533
          37.71227672482656 39.46219314652078 38.05225503635007 35.077008721595114 35.04319041200518 52.89095526589402
          44.269603784132066 48.49167749846827 37.20296731674502 39.160642553078986 37.81983576362821 39.16431242448378
          37.522040043532115 34.68562995960202 34.05308286701614 55.69335338830208 50.29998814863741 50.00893185357505
          38.64680978709316 30.577608459494492 32.287910168651266 31.831959917453446 35.229968806976586 35.162395220197034
          31.288787820245417 30.65938670666437 34.73766955553596 34.063058460055686 32.35309329438229 70.84910485188539
          76.65641304423458 56.986833275221784 68.3318078111502 44.46280408396909 48.25057338936235 45.465119128988036
          69.86427370857814 58.08219907426051 53.04057280731669 47.60372746016918 60.43934873759027 46.085854397808234
          54.613994938755894 49.55777636905443 49.01368520870872 46.143067372140635 51.28543960746021 46.59594324249144
          54.05549972509074 37.92452034696027 38.10333973307209 34.759660370152645 39.38731495777541 39.4124735627367
          37.79023422303534 37.381663073004 34.246376579428464 33.597328068695745 39.06218520663762 38.90023695645121
          34.8039206737083 30.690928905517396 28.47778056071906 53.49041185494143 29.982480294848944 46.20421228469945
          52.361836560635076 46.29692606937856 46.1464558262615 78.55422759377157 91.91703954648398 93.99657711041195
          79.37545706714263 58.38500516921668 68.33563245026806 62.96690381577307 65.59877365368672 51.467953733941165
          39.68365430924078 41.17988837986725 43.225438508533486 37.02204447313024 68.89108847406462 66.57974322397298
          65.9847889146921 58.70568166616829 66.3774309974466 64.68308608367443 62.99364528533411 58.66832023029072
          45.95411006712885 47.50326222367651 38.76525477580247 48.02938976273285 48.488873940969256 41.71088023478651
          78.85773548012443 73.72281552367704 60.80530164083896 80.42176554440235 85.55912419002655 75.79945229349285
          80.03195355379347 75.18755844073078 72.73506054028061 68.83325984421683 69.52705754810624 63.19610935578505
          64.5611363434178 63.752620519233545 67.06580780094677 60.111825350589314 72.23749785822721 46.37668051196921
          39.730653309490165 56.96146116890898 60.413760924085906 48.66185691153388 51.039372952426305 41.214057751328106
          43.17732847001271 62.779034385098804 64.24046293953835 51.46206813640316 54.564937807518405 68.57446052885942
          46.20621165666715 54.5407268835116 84.51382343479193 74.84816847200943 46.04435302933972 55.4263016222734
          46.54317505817495 78.94367319092645 45.56604340065654 48.59312752258168 45.75625972773328 46.25926765264078
          66.94546810388726 60.56274497804821 45.66633019403949 45.55785670805799 45.75022604662873 64.34020546894902
          69.9649030305345 72.63661090886824 58.4521269840737 75.12378917886647 77.51540668426232 72.18724461131322
          69.11036903830696 62.10376465935872 63.857523698065776 74.96024589562933 68.59311959385633 66.68946407543709
          63.33370424291702 65.58178562640845 58.51252916955265 61.266478672825905 64.2005048823201 62.252793180072615
          51.81549620518616 55.18792099740162 51.23616806504719 64.27235201138106 56.17587436602503 58.139103288255185
          55.134047823647805 56.19020093771075 59.96227195560693 58.32703490815985 46.05625805142334 48.828190110453036
          47.77075909345633 57.029638542900614 53.155503798618646 53.856820442147814 45.73986484249694 47.228482700249586
          63.82746930197916 61.89577483836099 57.670580370813276 53.72673691740496 53.67027001726771 47.63126213408139
          47.93282426998941 59.81947662982902 58.31684921425627 57.17979834333954 45.92841759845692 45.85749389192798
          46.07841621127893 45.99768331858365 56.46619260548342 53.38510043370894 46.00216279831094 45.92297381789664
          46.07119893803264 54.08300928667666 46.181975125343016 46.11745881065597 46.23773278675036 46.19259627889593
          50.575582655075245 48.85513744925584 46.22575188244281 46.1736578932418 46.230430960966586 48.34811190527243
          65.71973461311482 62.131110113454 64.29365420066185 63.40896978537848 64.14142815237977 60.681049210805156
          65.96062256888855 58.55727455028027 56.019562713921985 62.016326286378956 60.47631030037378 56.89967991297958
          54.2570930928976 63.224699919455105 61.08861508009937 60.67877496869505 55.63301502603277 58.007998615798286
          48.59220776260707 48.11866625281021 41.43735315090831 53.576046751632354 54.58618957038494 52.09205143048341
          53.33993409231992 57.120845317188824 55.97558998374871 46.15937589934465 47.352859262967165 47.21214448750246
          53.23536071615838 53.34301669336151 52.49572972526669 48.04067514148289 47.628096237192395 57.117533725028906
          55.86802624434665 56.3106886443307 46.26739280984019 46.23721361350636 46.28689337023323 46.26501146401011