<?xml version="1.0"?>
<VTKFile type="UnstructuredGrid" version="0.1" byte_order="LittleEndian" header_type="UInt32" compressor="vtkZLibDataCompressor">
  <UnstructuredGrid>
    <Piece NumberOfPoints="398" NumberOfCells="211">
      <PointData>
        <DataArray type="Int32" Name="libmesh_node_id" format="ascii" RangeMin="91" RangeMax="3722">
          91 92 94 95 96 97
          98 99 100 101 121 122
          124 125 126 127 128 129
          130 131 140 142 143 144
          145 151 152 154 155 156
          157 170 172 173 174 175
          181 182 184 185 186 187
          200 202 203 204 348 358
          370 371 372 373 374 375
          376 377 378 379 380 381
          382 383 385 757 758 759
          764 765 766 767 768 770
          771 773 775 3331 3332 3333
          3334 3335 3336 3337 3338 3339
          3340 3348 3349 3350 3354 3358
          3360 3361 3362 3363 3364 3365
          3366 3367 3368 3369 3370 3371
          3372 3373 3374 3375 3376 3377
          3378 3379 3380 3381 3382 3383
          3384 3385 3386 3387 3388 3389
          3390 3391 3392 3393 3394 3395
          3396 3397 3398 3399 3400 3401
          3402 3403 3404 3405 3406 3407
          3408 3409 3410 3411 3412 3413
          3414 3415 3416 3417 3418 3419
          3420 3421 3422 3423 3424 3425
          3426 3427 3428 3429 3430 3431
          3432 3433 3434 3435 3436 3437
          3438 3439 3440 3441 3442 3443
          3444 3445 3446 3447 3448 3449
          3450 3451 3452 3453 3454 3455
          3456 3457 3458 3466 3467 3468
          3472 3473 3474 3475 3476 3477
          3478 3479 3480 3481 3482 3483
          3484 3485 3486 3487 3488 3493
          3494 3498 3501 3503 3504 3505
          3506 3507 3508 3509 3510 3511
          3512 3513 3514 3515 3516 3517
          3518 3542 3543 3544 3547 3550
          3568 3569 3571 3574 3592 3593
          3596 3598 3600 3601 3602 3603
          3604 3605 3606 3607 3608 3609
          3610 3611 3612 3613 3614 3615
          3616 3617 3618 3619 3620 3621
          3622 3623 3624 3625 3626 3627
          3628 3629 3630 3631 3632 3633
          3634 3635 3636 3637 3638 3639
          3640 3641 3642 3643 3644 3645
          3646 3647 3648 3649 3650 3651
          3652 3653 3654 3655 3656 3657
          3658 3659 3660 3661 3662 3663
          3664 3665 3666 3667 3668 3669
          3670 3671 3672 3673 3674 3675
          3676 3677 3678 3679 3680 3681
          3682 3683 3684 3685 3686 3687
          3688 3689 3690 3691 3692 3693
          3694 3695 3696 3697 3698 3699
          3700 3701 3702 3703 3704 3705
          3706 3707 3708 3709 3710 3711
          3712 3713 3714 3715 3716 3717
          3718 3719 3720 3721 3722 159
          161 158 212 213 216 222
          760 761 762 763 349 352
          211 220 217 221 769 223
          387 772 392 189 228 774
          776 410 411 414 417 188
          420 226
        </DataArray>
        <DataArray type="Float64" Name="bounds" format="ascii" RangeMin="0" RangeMax="0">
          0 0 0 0 0 0
          0 0 0 0 0 0
          0 0 0 0 0 0
          0 0 0 0 0 0
          0 0 0 0 0 0
          0 0 0 0 0 0
          0 0 0 0 0 0
          0 0 0 0 0 0
          0 0 0 0 0 0
          0 0 0 0 0 0
          0 0 0 0 0 0
          0 0 0 0 0 0
          0 0 0 0 0 0
          0 0 0 0 0 0
          0 0 0 0 0 0
          0 0 0 0 0 0
          0 0 0 0 0 0
          0 0 0 0 0 0
          0 0 0 0 0 0
          0 0 0 0 0 0
          0 0 0 0 0 0
          0 0 0 0 0 0
          0 0 0 0 0 0
          0 0 0 0 0 0
          0 0 0 0 0 0
          0 0 0 0 0 0
          0 0 0 0 0 0
          0 0 0 0 0 0
          0 0 0 0 0 0
          0 0 0 0 0 0
          0 0 0 0 0 0
          0 0 0 0 0 0
          0 0 0 0 0 0
          0 0 0 0 0 0
          0 0 0 0 0 0
          0 0 0 0 0 0
          0 0 0 0 0 0
          0 0 0 0 0 0
          0 0 0 0 0 0
          0 0 0 0 0 0
          0 0 0 0 0 0
          0 0 0 0 0 0
          0 0 0 0 0 0
          0 0 0 0 0 0
          0 0 0 0 0 0
          0 0 0 0 0 0
          0 0 0 0 0 0
          0 0 0 0 0 0
          0 0 0 0 0 0
          0 0 0 0 0 0
          0 0 0 0 0 0
          0 0 0 0 0 0
          0 0 0 0 0 0
          0 0 0 0 0 0
          0 0 0 0 0 0
          0 0 0 0 0 0
          0 0 0 0 0 0
          0 0 0 0 0 0
          0 0 0 0 0 0
          0 0 0 0 0 0
          0 0 0 0 0 0
          0 0 0 0 0 0
          0 0 0 0 0 0
          0 0 0 0 0 0
          0 0 0 0 0 0
          0 0 0 0 0 0
          0 0
        </DataArray>
        <DataArray type="Float64" Name="gradient_error" format="ascii" RangeMin="2.163929181690039e-9" RangeMax="0.0000016782658522462163">
          1.3614139815548632e-8 9.334154384865855e-9 1.2037240914053998e-8 8.145989355835033e-9 8.418704740277734e-9 5.840965593221135e-9
          5.557597347055804e-9 3.812509993303012e-9 3.268863363241223e-9 2.163929181690039e-9 3.2368632580555646e-8 1.9530921620539324e-8
          2.4834472945644286e-8 1.5348279400660222e-8 1.507667851197451e-8 1.1570123766096808e-8 2.2195026869092878e-8 9.255916676670392e-9
          8.397795444828626e-9 5.0595176970593585e-9 2.118875437914616e-8 1.7351514602128795e-8 1.4581024317067482e-8 1.1331805810545924e-8
          6.2395848857626045e-9 1.7876204647291438e-7 3.0346494181778376e-7 1.2617384324519792e-7 2.4557504821882476e-7 1.7227552930150327e-7
          1.885275590000113e-7 2.4016024573445384e-8 1.912837308617518e-8 1.4719156800475888e-8 1.1567461027833552e-8 6.226905601618109e-9
          4.045664727444239e-7 2.832674046382335e-7 5.866628571570233e-7 2.0671206901478635e-7 9.194388611543291e-7 1.4614295965659058e-7
          5.024074281504176e-8 4.842589593755736e-8 2.8959448168557788e-8 3.767564370990226e-8 7.042244637656669e-9 9.66723394655867e-9
          6.084863908805644e-7 4.3815235353100046e-7 2.4652067212457776e-7 7.951617949468768e-7 0.0000012395616223932694 7.290723393832102e-7
          5.721876236772354e-7 2.0489446780039696e-7 2.0974701853035887e-7 2.2509789012271185e-7 0.0000011807310010862308 9.794562770295386e-7
          8.838133763971792e-7 1.863260685334938e-7 6.813557179130015e-9 2.8351508837365952e-8 1.641937307045394e-8 2.0474948709932353e-8
          4.4872373035419265e-9 1.836526077148622e-8 2.5623059382381893e-8 1.3389754283137968e-8 1.7756958382197506e-8 7.350733246225172e-8
          3.2305683701812877e-9 2.0778261533331297e-8 1.2925770654230599e-7 2.7804318698388145e-8 1.6212496498553954e-8 1.006549139502288e-8
          7.329261428332843e-8 1.1875926093626529e-7 7.344740442937857e-8 4.981635037376897e-8 4.620674298719763e-9 2.813554792249186e-8
          2.6340086464209522e-8 3.5572699186431243e-7 5.445599960974715e-7 6.059833562265929e-7 4.1593488365048067e-7 5.734594155151316e-7
          1.5051535552176402e-7 3.2026056167358454e-7 5.9869376292743e-7 6.087822455557421e-7 2.8518691235392546e-7 6.589123104001213e-7
          6.05840654493145e-7 3.5571563675826057e-7 3.708578023406131e-7 3.201694490900509e-7 4.826522586868722e-7 6.371577646078803e-7
          7.102135372153017e-7 2.468610351941354e-7 1.2750394698946558e-7 2.583547769178593e-7 7.24678054584443e-7 5.946497964163009e-7
          2.8048985923708215e-7 2.67087095299278e-7 7.274671968017764e-7 7.928186068293723e-7 1.6540398446656146e-7 1.66676623503373e-8
          1.2947508896951087e-8 4.566816712453026e-8 2.8809809757473527e-8 4.050861006749647e-9 1.3606006929089024e-8 1.7309001546874894e-8
          7.466867189872323e-8 4.4672110617995966e-8 2.3161152851428403e-8 2.372366913606772e-7 1.9314722400823395e-7 1.802675844480856e-7
          3.1674944757585607e-7 3.0405713196616544e-7 2.55535396237968e-7 2.698362526957975e-7 2.0164640904727376e-7 2.9706019217294517e-7
          2.476358638456067e-7 1.4905775665579072e-7 2.0701366050977046e-7 2.2292305781573885e-7 1.9821153551826818e-7 8.326208680630584e-7
          7.290897603978866e-7 7.062538430829212e-7 9.195251880713408e-7 5.409407625463973e-7 0.0000010454061663122957 0.00000116680261612945
          0.00000115430253492083 0.0000010508141440673216 0.0000013034720957522523 0.0000012708331870147335 8.051738245115059e-7 7.738889116036105e-7
          8.344074220932337e-7 0.0000010392410687044373 0.0000011683491175135888 0.00000104852552291231 0.0000013091912512444256 9.314212873852911e-7
          0.0000015493454310671192 0.0000013187285572961252 0.0000014518155270778073 0.0000013988675902670454 6.917279630896263e-7 8.59586877647059e-7
          0.0000013542856230884954 0.0000014790066232379656 0.0000010274457922044917 2.621516005667969e-7 2.7595264078752616e-7 3.311022040846735e-7
          3.434552489862167e-7 2.4487949024126993e-7 3.143739948149916e-7 1.5259821895983158e-7 1.93659212858545e-7 1.9535479658755975e-7
          1.9812742372073013e-7 4.0005280760255007e-7 4.109578571849071e-7 3.838684993887133e-7 2.3472020675725847e-7 2.239513322253924e-7
          2.92859372091857e-7 2.1254829482102426e-7 2.80836433739311e-7 1.5255842179666337e-7 2.124646423458795e-7 2.2253270625907124e-7
          3.6176741195832166e-7 3.491245726575977e-7 2.723708628950956e-7 2.7854374218794595e-8 9.563374560288523e-8 5.8970023088787564e-8
          2.230630057468991e-8 3.740293237323783e-8 2.380052212456738e-8 6.851010047672302e-8 4.249124679432688e-8 1.8585344953456424e-8
          4.349997448766565e-8 3.080613378965982e-8 1.0198111875896937e-8 1.6472393111930742e-8 1.8112293091653992e-8 1.925614303674974e-8
          1.1861075012716613e-8 3.9162814821285235e-8 3.0870614555610847e-8 4.466006988683489e-9 2.257841428993646e-8 5.18591148192154e-8
          1.1303927970521699e-7 3.21318104883083e-8 1.742194445912186e-7 3.6052337758401996e-8 8.877373499615357e-8 2.1806905760018593e-8
          6.364117782199604e-8 1.2564336123547134e-8 3.159117657902497e-8 2.9507003166613424e-8 1.4149513223390517e-7 1.0547544988397351e-7
          5.06180170345028e-8 1.3240850829883764e-8 4.0090237190259055e-8 8.213356650802214e-9 2.509248481870643e-8 6.693962355063435e-8
          4.197161298661065e-8 1.962208345287051e-7 3.3536243040582967e-7 3.0148892459065746e-7 2.6761541877548525e-7 5.148997942729952e-7
          5.157840619025918e-7 5.689259226457489e-7 5.401387734014609e-7 5.148092713981174e-7 3.057486642237479e-7 3.504251880837549e-7
          2.42640612753494e-7 3.951017119437619e-7 2.0501723271611975e-7 1.9204125532084853e-7 3.3837540564514656e-7 3.0268954189399753e-7
          1.8761592484796232e-7 3.4049314914764503e-7 3.0299422073254485e-7 1.790652779255773e-7 2.6700367814284845e-7 2.654952923174447e-7
          5.708443030061797e-7 5.369459347936072e-7 5.599626618586898e-7 4.6923741672367047e-7 1.9802993999221638e-7 1.8308005792467695e-7
          3.4141701511962617e-7 3.0213058319518256e-7 1.788195646905013e-7 3.4086813234727113e-7 2.998491981073629e-7 1.6813017585713753e-7
          2.6284415127073895e-7 2.5883026386745464e-7 6.280663694300037e-7 5.83790754057017e-7 6.082424525465849e-7 4.972382533912235e-7
          5.554286973504285e-7 6.078061204216624e-7 6.00233464354881e-7 6.510559651404798e-7 5.652762880321503e-7 5.918531093757208e-7
          4.4090236726267084e-7 5.55058199723257e-7 6.005591231807077e-7 6.041674901588545e-7 6.510797230227006e-7 6.992889772857052e-7
          7.090868622388488e-7 7.533006215764013e-7 6.197830429304407e-7 6.489671492090891e-7 5.308307974324297e-7 6.521775549230646e-7
          7.109951695838575e-7 6.724877691162161e-7 3.069269450080721e-7 3.545613105902523e-7 3.0723234505591785e-7 3.5791601365200415e-7
          2.122367730072023e-7 2.387535886091008e-7 2.3400427447864545e-7 4.0219567617243264e-7 4.0859968224809045e-7 2.652704042109992e-7
          3.063971994011324e-7 3.6018759801006404e-7 3.0419507399801853e-7 3.610972186537829e-7 2.0010991599665498e-7 2.2830734170795686e-7
          2.2177451980334157e-7 4.139779966189958e-7 4.179993633095473e-7 2.565047674192588e-7 1.943196256325444e-7 1.7534851985526359e-7
          3.3849019104785224e-7 2.958364746622455e-7 1.7354339786822292e-7 3.339324603114582e-7 2.89757352548616e-7 1.5637741407798274e-7
          2.5318275827663884e-7 2.455822447857737e-7 6.91155624879336e-7 6.330816631244958e-7 6.579656285887607e-7 5.221164258371802e-7
          2.0183983261533215e-7 1.7454982013798447e-7 3.2676124565283737e-7 2.8120169532800706e-7 1.4725980766063673e-7 2.3564214500317665e-7
          7.593546244356479e-7 6.82509556854445e-7 5.392351848991471e-7 7.756409078684801e-7 8.140826116103003e-7 8.524483963604284e-7
          8.828547131338131e-7 6.792645940444673e-7 7.104274717511611e-7 6.516313224414481e-7 7.783263264408363e-7 8.557494763191135e-7
          7.503486005708121e-7 9.415563264094261e-7 9.611360614052164e-7 7.421338070289552e-7 8.160860626378991e-7 9.451065796195725e-7
          8.37427077882048e-7 3.003680985866043e-7 3.6030838508688715e-7 2.9462218016517613e-7 3.574375382427778e-7 1.844023224009797e-7
          2.1461189743696006e-7 2.072811628904309e-7 4.2024867158716993e-7 4.2025289632037946e-7 2.4482147247294046e-7 2.866176690100601e-7
          3.5200131096293285e-7 1.6685876186916312e-7 2.0045080426896208e-7 4.173849529158055e-7 2.3404284666876104e-7 1.233905241285395e-7
          3.922888365008497e-8 8.998611083538766e-7 5.605993082788424e-7 0.0000016229920354906116 0.0000010497181510565955 4.2176821498720465e-7
          1.2947879076741108e-7 9.480545375491943e-8 5.658535726320283e-8 7.755092507489648e-8 3.665475424426217e-8 2.316099409541042e-8
          2.9209660250338457e-7 1.0155796062109635e-7 5.313868339820322e-8 3.691874481892941e-7 6.692668539384586e-8 5.7375038953230955e-8
          2.7478291421110496e-8 2.140391478049296e-8 9.2500425183684e-9 6.627215245316518e-7 6.243220884341407e-7 1.2046361650455375e-7
          3.957726119080463e-8 0.0000014004198967561238 0.000001622654534422139 0.00000153934287450117 0.0000010837341967933178 0.000001575579581072216
          0.0000016782658522462163 0.0000014726275979793648
        </DataArray>
        <DataArray type="Float64" Name="gradient_matprop_error" format="ascii" RangeMin="0" RangeMax="0">
          0 0 0 0 0 0
          0 0 0 0 0 0
          0 0 0 0 0 0
          0 0 0 0 0 0
          0 0 0 0 0 0
          0 0 0 0 0 0
          0 0 0 0 0 0
          0 0 0 0 0 0
          0 0 0 0 0 0
          0 0 0 0 0 0
          0 0 0 0 0 0
          0 0 0 0 0 0
          0 0 0 0 0 0
          0 0 0 0 0 0
          0 0 0 0 0 0
          0 0 0 0 0 0
          0 0 0 0 0 0
          0 0 0 0 0 0
          0 0 0 0 0 0
          0 0 0 0 0 0
          0 0 0 0 0 0
          0 0 0 0 0 0
          0 0 0 0 0 0
          0 0 0 0 0 0
          0 0 0 0 0 0
          0 0 0 0 0 0
          0 0 0 0 0 0
          0 0 0 0 0 0
          0 0 0 0 0 0
          0 0 0 0 0 0
          0 0 0 0 0 0
          0 0 0 0 0 0
          0 0 0 0 0 0
          0 0 0 0 0 0
          0 0 0 0 0 0
          0 0 0 0 0 0
          0 0 0 0 0 0
          0 0 0 0 0 0
          0 0 0 0 0 0
          0 0 0 0 0 0
          0 0 0 0 0 0
          0 0 0 0 0 0
          0 0 0 0 0 0
          0 0 0 0 0 0
          0 0 0 0 0 0
          0 0 0 0 0 0
          0 0 0 0 0 0
          0 0 0 0 0 0
          0 0 0 0 0 0
          0 0 0 0 0 0
          0 0 0 0 0 0
          0 0 0 0 0 0
          0 0 0 0 0 0
          0 0 0 0 0 0
          0 0 0 0 0 0
          0 0 0 0 0 0
          0 0 0 0 0 0
          0 0 0 0 0 0
          0 0 0 0 0 0
          0 0 0 0 0 0
          0 0 0 0 0 0
          0 0 0 0 0 0
          0 0 0 0 0 0
          0 0 0 0 0 0
          0 0 0 0 0 0
          0 0 0 0 0 0
          0 0
        </DataArray>
        <DataArray type="Float64" Name="initial_marker" format="ascii" RangeMin="0" RangeMax="0">
          0 0 0 0 0 0
          0 0 0 0 0 0
          0 0 0 0 0 0
          0 0 0 0 0 0
          0 0 0 0 0 0
          0 0 0 0 0 0
          0 0 0 0 0 0
          0 0 0 0 0 0
          0 0 0 0 0 0
          0 0 0 0 0 0
          0 0 0 0 0 0
          0 0 0 0 0 0
          0 0 0 0 0 0
          0 0 0 0 0 0
          0 0 0 0 0 0
          0 0 0 0 0 0
          0 0 0 0 0 0
          0 0 0 0 0 0
          0 0 0 0 0 0
          0 0 0 0 0 0
          0 0 0 0 0 0
          0 0 0 0 0 0
          0 0 0 0 0 0
          0 0 0 0 0 0
          0 0 0 0 0 0
          0 0 0 0 0 0
          0 0 0 0 0 0
          0 0 0 0 0 0
          0 0 0 0 0 0
          0 0 0 0 0 0
          0 0 0 0 0 0
          0 0 0 0 0 0
          0 0 0 0 0 0
          0 0 0 0 0 0
          0 0 0 0 0 0
          0 0 0 0 0 0
          0 0 0 0 0 0
          0 0 0 0 0 0
          0 0 0 0 0 0
          0 0 0 0 0 0
          0 0 0 0 0 0
          0 0 0 0 0 0
          0 0 0 0 0 0
          0 0 0 0 0 0
          0 0 0 0 0 0
          0 0 0 0 0 0
          0 0 0 0 0 0
          0 0 0 0 0 0
          0 0 0 0 0 0
          0 0 0 0 0 0
          0 0 0 0 0 0
          0 0 0 0 0 0
          0 0 0 0 0 0
          0 0 0 0 0 0
          0 0 0 0 0 0
          0 0 0 0 0 0
          0 0 0 0 0 0
          0 0 0 0 0 0
          0 0 0 0 0 0
          0 0 0 0 0 0
          0 0 0 0 0 0
          0 0 0 0 0 0
          0 0 0 0 0 0
          0 0 0 0 0 0
          0 0 0 0 0 0
          0 0 0 0 0 0
          0 0
        </DataArray>
        <DataArray type="Float64" Name="markers_norefine" format="ascii" RangeMin="0" RangeMax="0">
          0 0 0 0 0 0
          0 0 0 0 0 0
          0 0 0 0 0 0
          0 0 0 0 0 0
          0 0 0 0 0 0
          0 0 0 0 0 0
          0 0 0 0 0 0
          0 0 0 0 0 0
          0 0 0 0 0 0
          0 0 0 0 0 0
          0 0 0 0 0 0
          0 0 0 0 0 0
          0 0 0 0 0 0
          0 0 0 0 0 0
          0 0 0 0 0 0
          0 0 0 0 0 0
          0 0 0 0 0 0
          0 0 0 0 0 0
          0 0 0 0 0 0
          0 0 0 0 0 0
          0 0 0 0 0 0
          0 0 0 0 0 0
          0 0 0 0 0 0
          0 0 0 0 0 0
          0 0 0 0 0 0
          0 0 0 0 0 0
          0 0 0 0 0 0
          0 0 0 0 0 0
          0 0 0 0 0 0
          0 0 0 0 0 0
          0 0 0 0 0 0
          0 0 0 0 0 0
          0 0 0 0 0 0
          0 0 0 0 0 0
          0 0 0 0 0 0
          0 0 0 0 0 0
          0 0 0 0 0 0
          0 0 0 0 0 0
          0 0 0 0 0 0
          0 0 0 0 0 0
          0 0 0 0 0 0
          0 0 0 0 0 0
          0 0 0 0 0 0
          0 0 0 0 0 0
          0 0 0 0 0 0
          0 0 0 0 0 0
          0 0 0 0 0 0
          0 0 0 0 0 0
          0 0 0 0 0 0
          0 0 0 0 0 0
          0 0 0 0 0 0
          0 0 0 0 0 0
          0 0 0 0 0 0
          0 0 0 0 0 0
          0 0 0 0 0 0
          0 0 0 0 0 0
          0 0 0 0 0 0
          0 0 0 0 0 0
          0 0 0 0 0 0
          0 0 0 0 0 0
          0 0 0 0 0 0
          0 0 0 0 0 0
          0 0 0 0 0 0
          0 0 0 0 0 0
          0 0 0 0 0 0
          0 0 0 0 0 0
          0 0
        </DataArray>
        <DataArray type="Float64" Name="markers_mustrefine" format="ascii" RangeMin="0" RangeMax="0">
          0 0 0 0 0 0
          0 0 0 0 0 0
          0 0 0 0 0 0
          0 0 0 0 0 0
          0 0 0 0 0 0
          0 0 0 0 0 0
          0 0 0 0 0 0
          0 0 0 0 0 0
          0 0 0 0 0 0
          0 0 0 0 0 0
          0 0 0 0 0 0
          0 0 0 0 0 0
          0 0 0 0 0 0
          0 0 0 0 0 0
          0 0 0 0 0 0
          0 0 0 0 0 0
          0 0 0 0 0 0
          0 0 0 0 0 0
          0 0 0 0 0 0
          0 0 0 0 0 0
          0 0 0 0 0 0
          0 0 0 0 0 0
          0 0 0 0 0 0
          0 0 0 0 0 0
          0 0 0 0 0 0
          0 0 0 0 0 0
          0 0 0 0 0 0
          0 0 0 0 0 0
          0 0 0 0 0 0
          0 0 0 0 0 0
          0 0 0 0 0 0
          0 0 0 0 0 0
          0 0 0 0 0 0
          0 0 0 0 0 0
          0 0 0 0 0 0
          0 0 0 0 0 0
          0 0 0 0 0 0
          0 0 0 0 0 0
          0 0 0 0 0 0
          0 0 0 0 0 0
          0 0 0 0 0 0
          0 0 0 0 0 0
          0 0 0 0 0 0
          0 0 0 0 0 0
          0 0 0 0 0 0
          0 0 0 0 0 0
          0 0 0 0 0 0
          0 0 0 0 0 0
          0 0 0 0 0 0
          0 0 0 0 0 0
          0 0 0 0 0 0
          0 0 0 0 0 0
          0 0 0 0 0 0
          0 0 0 0 0 0
          0 0 0 0 0 0
          0 0 0 0 0 0
          0 0 0 0 0 0
          0 0 0 0 0 0
          0 0 0 0 0 0
          0 0 0 0 0 0
          0 0 0 0 0 0
          0 0 0 0 0 0
          0 0 0 0 0 0
          0 0 0 0 0 0
          0 0 0 0 0 0
          0 0 0 0 0 0
          0 0
        </DataArray>
        <DataArray type="Float64" Name="gradient_marker" format="ascii" RangeMin="1" RangeMax="1">
          1 1 1 1 1 1
          1 1 1 1 1 1
          1 1 1 1 1 1
          1 1 1 1 1 1
          1 1 1 1 1 1
          1 1 1 1 1 1
          1 1 1 1 1 1
          1 1 1 1 1 1
          1 1 1 1 1 1
          1 1 1 1 1 1
          1 1 1 1 1 1
          1 1 1 1 1 1
          1 1 1 1 1 1
          1 1 1 1 1 1
          1 1 1 1 1 1
          1 1 1 1 1 1
          1 1 1 1 1 1
          1 1 1 1 1 1
          1 1 1 1 1 1
          1 1 1 1 1 1
          1 1 1 1 1 1
          1 1 1 1 1 1
          1 1 1 1 1 1
          1 1 1 1 1 1
          1 1 1 1 1 1
          1 1 1 1 1 1
          1 1 1 1 1 1
          1 1 1 1 1 1
          1 1 1 1 1 1
          1 1 1 1 1 1
          1 1 1 1 1 1
          1 1 1 1 1 1
          1 1 1 1 1 1
          1 1 1 1 1 1
          1 1 1 1 1 1
          1 1 1 1 1 1
          1 1 1 1 1 1
          1 1 1 1 1 1
          1 1 1 1 1 1
          1 1 1 1 1 1
          1 1 1 1 1 1
          1 1 1 1 1 1
          1 1 1 1 1 1
          1 1 1 1 1 1
          1 1 1 1 1 1
          1 1 1 1 1 1
          1 1 1 1 1 1
          1 1 1 1 1 1
          1 1 1 1 1 1
          1 1 1 1 1 1
          1 1 1 1 1 1
          1 1 1 1 1 1
          1 1 1 1 1 1
          1 1 1 1 1 1
          1 1 1 1 1 1
          1 1 1 1 1 1
          1 1 1 1 1 1
          1 1 1 1 1 1
          1 1 1 1 1 1
          1 1 1 1 1 1
          1 1 1 1 1 1
          1 1 1 1 1 1
          1 1 1 1 1 1
          1 1 1 1 1 1
          1 1 1 1 1 1
          1 1 1 1 1 1
          1 1
        </DataArray>
        <DataArray type="Float64" Name="gradient_matprop_marker" format="ascii" RangeMin="0" RangeMax="0">
          0 0 0 0 0 0
          0 0 0 0 0 0
          0 0 0 0 0 0
          0 0 0 0 0 0
          0 0 0 0 0 0
          0 0 0 0 0 0
          0 0 0 0 0 0
          0 0 0 0 0 0
          0 0 0 0 0 0
          0 0 0 0 0 0
          0 0 0 0 0 0
          0 0 0 0 0 0
          0 0 0 0 0 0
          0 0 0 0 0 0
          0 0 0 0 0 0
          0 0 0 0 0 0
          0 0 0 0 0 0
          0 0 0 0 0 0
          0 0 0 0 0 0
          0 0 0 0 0 0
          0 0 0 0 0 0
          0 0 0 0 0 0
          0 0 0 0 0 0
          0 0 0 0 0 0
          0 0 0 0 0 0
          0 0 0 0 0 0
          0 0 0 0 0 0
          0 0 0 0 0 0
          0 0 0 0 0 0
          0 0 0 0 0 0
          0 0 0 0 0 0
          0 0 0 0 0 0
          0 0 0 0 0 0
          0 0 0 0 0 0
          0 0 0 0 0 0
          0 0 0 0 0 0
          0 0 0 0 0 0
          0 0 0 0 0 0
          0 0 0 0 0 0
          0 0 0 0 0 0
          0 0 0 0 0 0
          0 0 0 0 0 0
          0 0 0 0 0 0
          0 0 0 0 0 0
          0 0 0 0 0 0
          0 0 0 0 0 0
          0 0 0 0 0 0
          0 0 0 0 0 0
          0 0 0 0 0 0
          0 0 0 0 0 0
          0 0 0 0 0 0
          0 0 0 0 0 0
          0 0 0 0 0 0
          0 0 0 0 0 0
          0 0 0 0 0 0
          0 0 0 0 0 0
          0 0 0 0 0 0
          0 0 0 0 0 0
          0 0 0 0 0 0
          0 0 0 0 0 0
          0 0 0 0 0 0
          0 0 0 0 0 0
          0 0 0 0 0 0
          0 0 0 0 0 0
          0 0 0 0 0 0
          0 0 0 0 0 0
          0 0
        </DataArray>
        <DataArray type="Float64" Name="combo" format="ascii" RangeMin="1" RangeMax="1">
          1 1 1 1 1 1
          1 1 1 1 1 1
          1 1 1 1 1 1
          1 1 1 1 1 1
          1 1 1 1 1 1
          1 1 1 1 1 1
          1 1 1 1 1 1
          1 1 1 1 1 1
          1 1 1 1 1 1
          1 1 1 1 1 1
          1 1 1 1 1 1
          1 1 1 1 1 1
          1 1 1 1 1 1
          1 1 1 1 1 1
          1 1 1 1 1 1
          1 1 1 1 1 1
          1 1 1 1 1 1
          1 1 1 1 1 1
          1 1 1 1 1 1
          1 1 1 1 1 1
          1 1 1 1 1 1
          1 1 1 1 1 1
          1 1 1 1 1 1
          1 1 1 1 1 1
          1 1 1 1 1 1
          1 1 1 1 1 1
          1 1 1 1 1 1
          1 1 1 1 1 1
          1 1 1 1 1 1
          1 1 1 1 1 1
          1 1 1 1 1 1
          1 1 1 1 1 1
          1 1 1 1 1 1
          1 1 1 1 1 1
          1 1 1 1 1 1
          1 1 1 1 1 1
          1 1 1 1 1 1
          1 1 1 1 1 1
          1 1 1 1 1 1
          1 1 1 1 1 1
          1 1 1 1 1 1
          1 1 1 1 1 1
          1 1 1 1 1 1
          1 1 1 1 1 1
          1 1 1 1 1 1
          1 1 1 1 1 1
          1 1 1 1 1 1
          1 1 1 1 1 1
          1 1 1 1 1 1
          1 1 1 1 1 1
          1 1 1 1 1 1
          1 1 1 1 1 1
          1 1 1 1 1 1
          1 1 1 1 1 1
          1 1 1 1 1 1
          1 1 1 1 1 1
          1 1 1 1 1 1
          1 1 1 1 1 1
          1 1 1 1 1 1
          1 1 1 1 1 1
          1 1 1 1 1 1
          1 1 1 1 1 1
          1 1 1 1 1 1
          1 1 1 1 1 1
          1 1 1 1 1 1
          1 1 1 1 1 1
          1 1
        </DataArray>
        <DataArray type="Float64" Name="dHdT" format="ascii" RangeMin="25.79085234922585" RangeMax="34.235854571841955">
          25.811714919870873 25.811570330360134 25.811684485689913 25.811562610231626 25.811546819390678 25.811502107060857
          25.811399356790776 25.811437071644782 25.81140365787328 25.8114463485447 25.8066688064189 25.811240265835558
          25.808716085611174 25.811564333740577 25.812425875449936 25.811790248669503 25.815430450394484 25.811802958119493
          25.81215318513428 25.81160464591811 25.811859788295962 25.811788890400567 25.811757424226258 25.811724393996524
          25.811638578095312 26.01156799300211 25.883105513575238 25.951424925159007 25.862140296663476 25.89902873029841
          25.842197893402233 25.81058738722785 25.811090454720475 25.81162557893598 25.811943311286313 25.811738177157594
          29.828537486499524 26.10621861952476 30.629260991074272 26.02938666454477 31.983206654380027 25.948388572052483
          25.80118772586095 25.804447247141276 25.80949238012262 25.816758767589896 25.81246372847989 25.810574771295297
          25.940438494939382 25.8894726845505 25.869850378442013 27.947076802958996 27.83412629203883 26.5710287046147
          26.673269206343168 25.840759399226467 25.86398826267614 25.887783157248606 33.09678460173434 28.243190992494867
          28.213974205087872 25.91500703343052 25.81082339080099 25.81722532826231 25.814749182847102 25.816060688874767
          25.812273037431893 25.80953598142806 25.808457570624302 25.80996663565963 25.80926372889922 25.800865572098168
          25.811844561876264 25.81431991549291 25.79246741529711 25.817905204089577 25.815162736682833 25.81260440985904
          25.794334431002262 25.79085234922585 25.799287820334534 25.800936735069694 25.81242026927609 25.807723291443217
          25.80753903913712 25.958060643027263 27.809587324125545 26.85731039223691 25.992676053985324 27.99006735308868
          25.981776436198537 25.936209086098113 27.852698042255028 26.831720619493645 25.913394096777115 27.892366650989334
          26.794116394117882 25.89291752937191 25.96741027791526 25.940785883575572 30.1814098041162 28.049625839321344
          28.108747524630964 26.069213652445445 25.92269942087652 25.89087194624917 27.926780858267097 26.74179099694661
          25.86510101457698 25.91388412210673 31.203017138513793 28.165015749308665 25.988245624742277 25.809262305254684
          25.8100108732785 25.803311514659647 25.807447399918637 25.811618083484746 25.812439628335827 25.810314494033875
          25.7973607240646 25.80488392655878 25.81326117318691 26.01657467311491 25.98035443238448 25.98937189483903
          26.43875548222044 26.409321673269314 26.293533659335036 26.32500380842125 25.97754147969027 26.395140131161085
          26.27786440271056 25.94413419165405 26.17774564540077 26.211252134622065 26.160588674260037 27.951193298220478
          27.49698417434187 27.519944600420274 27.78993681688083 26.865544401175157 30.511222553322828 30.798759278547024
          29.67569332386828 29.520061656621397 31.134359480578045 29.85280114370005 27.662251303970603 27.677488382718995
          27.639506689079425 32.49720063407681 30.964131185338424 30.66086983440572 31.30979072494427 28.231864555752207
          29.267374323870115 28.41486366351671 31.483713938773462 30.037964678651843 26.974230473206195 27.614404871726897
          33.7000535536768 31.661065693786973 28.254579270247596 26.2429186938011 26.27999660918076 26.397042800680502
          26.43647757130397 26.20359844876566 26.354833956571397 25.974754285003254 26.02221036260935 26.04687913708991
          26.001897341805993 26.55116690755991 26.592958533427183 26.506069464377138 26.069666440215443 26.163109908435896
          26.31257104288143 26.14273945585156 26.29183285353706 25.9401118736227 25.98854776083929 25.984102230382106
          26.462032177326968 26.440926251222557 26.036983648055873 25.805221446268312 25.816938336699252 25.814688845981955
          25.81243935526466 25.80310299779198 25.80650988751028 25.810963780556 25.810710558465424 25.8080539002927
          25.805229160395466 25.807057739522335 25.809916777228583 25.810457336374846 25.808886318649208 25.80854992144342
          25.80996742558392 25.799792819159943 25.803856507273863 25.811384929724422 25.807920195387787 25.8191722924387
          25.82850801885142 25.80498331161205 25.83784374526414 25.816114629924826 25.822520363377617 25.813436086450977
          25.816864117773044 25.80934729203033 25.805987286307282 25.80720518865595 25.828926096830408 25.82029214909511
          25.802627280584232 25.8113934914907 25.811858203978755 25.81057079509844 25.80863124142275 25.81232291646681
          25.806691687747055 26.14985187012311 26.63807078283196 26.535077179236332 26.4320835756407 27.531844977038553
          29.18104969550224 28.699896235723656 27.64490721994565 29.25640500571975 26.519082374012697 26.667991100911237