<?xml version="1.0"?>
<VTKFile type="UnstructuredGrid" version="0.1" byte_order="LittleEndian" header_type="UInt32" compressor="vtkZLibDataCompressor">
  <UnstructuredGrid>
    <Piece NumberOfPoints="869" NumberOfCells="562">
      <PointData>
        <DataArray type="Int32" Name="libmesh_node_id" format="ascii" RangeMin="385" RangeMax="8154">
          388 600 1350 1351 1352 1386
          1442 1444 1452 1453 1454 1455
          2164 2165 2166 2167 2170 2171
          2173 2174 2175 2176 2177 2186
          2188 2189 2190 2191 2430 2431
          2435 2437 2438 2439 2440 2443
          2444 2445 2489 2490 2491 2492
          2494 2495 2496 2497 2499 2500
          2501 2502 2503 2504 2505 2506
          2507 2508 2516 2517 2520 2521
          2523 2524 2525 2526 2533 2534
          2537 2550 4341 4349 4350 4351
          4352 4358 4364 4365 4366 4383
          4384 4385 4386 4398 4399 4400
          4407 4408 4409 4410 4411 4412
          4413 4414 4415 4416 4417 4418
          4419 4420 4425 4426 4427 4428
          4429 4430 4431 4432 4433 4434
          4475 4498 4499 4500 4501 4502
          4503 4504 4505 4506 4507 4522
          4523 4525 4526 4527 4528 4529
          4530 4531 4537 4539 4540 4541
          4542 4543 4544 4545 4546 4547
          4548 4608 5404 5405 5406 5407
          5408 5409 5410 5411 5412 5413
          5414 5415 5416 5417 5418 5420
          5421 5422 5425 5426 5428 5429
          5430 5431 5432 5433 5434 5435
          5436 5437 5438 5439 5440 5441
          5442 5444 5445 5446 5449 5450
          5532 5533 5535 5544 5619 5620
          5621 5622 5623 5624 5625 5626
          5627 5628 5629 5630 5631 5632
          5633 5634 5635 5636 5637 5638
          5639 5640 5642 5643 5644 5646
          5647 5648 5649 5650 5651 5653
          5654 5655 5656 5657 5658 5659
          5660 5661 5662 5663 5664 5665
          5666 5667 5668 5669 5670 5671
          5672 5673 5674 5677 5678 5680
          5681 5683 5684 5685 5687 5688
          5689 5690 5691 5692 5693 5694
          5695 5696 5697 5698 5699 5700
          5701 5702 5703 5704 5705 5706
          5707 5708 5709 5710 5711 5712
          5713 5714 5715 5716 5717 5718
          5719 5720 5721 5722 5723 5724
          5725 5726 5727 5728 5729 5730
          5731 5732 5733 5734 5735 5736
          5737 5738 5739 5740 5741 5742
          5743 5744 5745 5746 5747 5748
          5749 5750 5751 5752 5753 5754
          5763 5767 5791 5795 5811 5812
          5814 5815 5816 5818 5819 5820
          5821 5822 5823 5824 5826 5828
          5830 5832 5833 5834 5835 5836
          5837 5839 5840 5842 5843 5844
          5846 5847 5848 5849 5850 5851
          5852 5854 5858 5860 5861 5864
          5865 5867 5868 5869 5870 5871
          5872 5873 5874 5875 5876 5877
          5878 5879 5880 5881 5882 5883
          5884 5885 5886 5887 5888 5891
          5892 5894 5895 5897 5898 5899
          5913 5914 5916 5929 5935 5936
          5937 5938 5939 5940 5941 5942
          5943 5944 5945 5946 5949 5951
          5952 5954 5955 5956 5957 5958
          5959 5960 5961 5962 5964 5966
          5968 5969 5970 5973 5989 5991
          6011 6059 6060 6062 6063 6064
          6066 6068 6070 6072 6074 6078
          6080 6084 6087 6269 6271 6275
          6276 6277 6278 6279 6280 6281
          7746 7747 7749 7757 7759 7760
          7761 7764 7766 7767 7769 7784
          7786 7788 7790 7801 7802 7803
          7804 7805 7806 7807 7808 7809
          7810 7811 7812 7813 7814 7815
          7817 7818 7819 7820 7821 7822
          7823 7824 7825 7826 7827 7828
          7829 7832 7848 7850 7937 7939
          7954 7955 7956 7957 385 1336
          1337 1315 1443 1387 2155 2156
          1349 2157 2185 2187 2218 2216
          2219 2217 2224 2223 2096 2097
          2089 2099 2441 2432 2446 2857
          1513 2866 2864 2858 2859 2867
          2865 2868 2869 1518 2870 2871
          2872 1523 2873 2949 2519 2900
          2950 2599 2133 3286 3289 2151
          1346 3387 3388 4333 4335 4336
          4334 4339 4340 4338 4337 4342
          4343 4344 4345 4346 4347 4348
          4354 4353 4357 4356 4355 4359
          4360 4361 4362 4363 4369 4377
          4378 4370 2168 4375 4379 4380
          4381 4372 2169 4382 4394 4388
          4392 4395 4396 4390 2172 4397
          4401 4402 4403 4404 4405 4406
          4421 4422 4423 4424 4464 4463
          4468 4467 4470 4474 4471 4473
          4472 2183 4476 2137 4241 4297
          4492 4494 4496 4518 4519 4520
          4524 4521 4533 4532 4536 4535
          4534 4538 4516 4603 4601 4607
          4606 4605 4609 4048 4049 4041
          598 4050 4051 2098 4059 4054
          4060 4061 5423 5419 1338 5424
          5427 2442 5447 5443 5448 5451
          1445 5641 5645 2493 5652 5675
          5676 5679 2498 5682 5686 5756
          5755 5760 5759 5762 5765 5764
          5766 2510 5768 5790 5793 5792
          5794 2514 5796 5813 5817 5825
          5827 5829 2518 5831 5838 5841
          5845 5853 5856 5855 5857 2522
          5859 5862 5863 5866 1457 5889
          5546 5890 2527 5893 5896 5900
          2528 5947 5948 5950 2535 5953
          2536 5963 5965 5967 2538 5971
          5972 5974 5979 5980 5981 5982
          5983 5984 5990 5931 5992 5996
          5997 5998 5999 6010 6013 6012
          6015 6014 2544 6016 6061 6065
          6067 6069 6071 2551 6073 6076
          6075 6077 2552 6079 6081 6082
          6083 6085 6086 2553 6039 6088
          6089 6041 6090 6094 6095 6096
          6097 6102 6101 6104 6103 6108
          6109 6110 6111 6268 6270 6273
          6272 2598 6274 6282 6283 6284
          7738 7739 7741 7742 2852 7748
          7744 7745 2853 7751 7753 7758
          7755 7756 7762 7763 7765 2860
          7768 2861 7785 7787 7789 2863
          7754 7816 7830 7831 7833 7834
          7835 2874 7836 7837 2875 7849
          7851 7852 7853 7854 2878 7862
          7863 7866 7868 7869 7871 7882
          7884 7886 7888 7938 7940 7941
          7942 7943 2898 7958 7959 7960
          7961 7963 7965 7967 7975 7977
          7979 7981 8002 8003 8006 8022
          8024 8138 8140 8152 8154
        </DataArray>
        <DataArray type="Float64" Name="bounds" format="ascii" RangeMin="0" RangeMax="0">
          0 0 0 0 0 0
          0 0 0 0 0 0
          0 0 0 0 0 0
          0 0 0 0 0 0
          0 0 0 0 0 0
          0 0 0 0 0 0
          0 0 0 0 0 0
          0 0 0 0 0 0
          0 0 0 0 0 0
          0 0 0 0 0 0
          0 0 0 0 0 0
          0 0 0 0 0 0
          0 0 0 0 0 0
          0 0 0 0 0 0
          0 0 0 0 0 0
          0 0 0 0 0 0
          0 0 0 0 0 0
          0 0 0 0 0 0
          0 0 0 0 0 0
          0 0 0 0 0 0
          0 0 0 0 0 0
          0 0 0 0 0 0
          0 0 0 0 0 0
          0 0 0 0 0 0
          0 0 0 0 0 0
          0 0 0 0 0 0
          0 0 0 0 0 0
          0 0 0 0 0 0
          0 0 0 0 0 0
          0 0 0 0 0 0
          0 0 0 0 0 0
          0 0 0 0 0 0
          0 0 0 0 0 0
          0 0 0 0 0 0
          0 0 0 0 0 0
          0 0 0 0 0 0
          0 0 0 0 0 0
          0 0 0 0 0 0
          0 0 0 0 0 0
          0 0 0 0 0 0
          0 0 0 0 0 0
          0 0 0 0 0 0
          0 0 0 0 0 0
          0 0 0 0 0 0
          0 0 0 0 0 0
          0 0 0 0 0 0
          0 0 0 0 0 0
          0 0 0 0 0 0
          0 0 0 0 0 0
          0 0 0 0 0 0
          0 0 0 0 0 0
          0 0 0 0 0 0
          0 0 0 0 0 0
          0 0 0 0 0 0
          0 0 0 0 0 0
          0 0 0 0 0 0
          0 0 0 0 0 0
          0 0 0 0 0 0
          0 0 0 0 0 0
          0 0 0 0 0 0
          0 0 0 0 0 0
          0 0 0 0 0 0
          0 0 0 0 0 0
          0 0 0 0 0 0
          0 0 0 0 0 0
          0 0 0 0 0 0
          0 0 0 0 0 0
          0 0 0 0 0 0
          0 0 0 0 0 0
          0 0 0 0 0 0
          0 0 0 0 0 0
          0 0 0 0 0 0
          0 0 0 0 0 0
          0 0 0 0 0 0
          0 0 0 0 0 0
          0 0 0 0 0 0
          0 0 0 0 0 0
          0 0 0 0 0 0
          0 0 0 0 0 0
          0 0 0 0 0 0
          0 0 0 0 0 0
          0 0 0 0 0 0
          0 0 0 0 0 0
          0 0 0 0 0 0
          0 0 0 0 0 0
          0 0 0 0 0 0
          0 0 0 0 0 0
          0 0 0 0 0 0
          0 0 0 0 0 0
          0 0 0 0 0 0
          0 0 0 0 0 0
          0 0 0 0 0 0
          0 0 0 0 0 0
          0 0 0 0 0 0
          0 0 0 0 0 0
          0 0 0 0 0 0
          0 0 0 0 0 0
          0 0 0 0 0 0
          0 0 0 0 0 0
          0 0 0 0 0 0
          0 0 0 0 0 0
          0 0 0 0 0 0
          0 0 0 0 0 0
          0 0 0 0 0 0
          0 0 0 0 0 0
          0 0 0 0 0 0
          0 0 0 0 0 0
          0 0 0 0 0 0
          0 0 0 0 0 0
          0 0 0 0 0 0
          0 0 0 0 0 0
          0 0 0 0 0 0
          0 0 0 0 0 0
          0 0 0 0 0 0
          0 0 0 0 0 0
          0 0 0 0 0 0
          0 0 0 0 0 0
          0 0 0 0 0 0
          0 0 0 0 0 0
          0 0 0 0 0 0
          0 0 0 0 0 0
          0 0 0 0 0 0
          0 0 0 0 0 0
          0 0 0 0 0 0
          0 0 0 0 0 0
          0 0 0 0 0 0
          0 0 0 0 0 0
          0 0 0 0 0 0
          0 0 0 0 0 0
          0 0 0 0 0 0
          0 0 0 0 0 0
          0 0 0 0 0 0
          0 0 0 0 0 0
          0 0 0 0 0 0
          0 0 0 0 0 0
          0 0 0 0 0 0
          0 0 0 0 0 0
          0 0 0 0 0 0
          0 0 0 0 0 0
          0 0 0 0 0 0
          0 0 0 0 0 0
          0 0 0 0 0 0
          0 0 0 0 0 0
          0 0 0 0 0 0
          0 0 0 0 0
        </DataArray>
        <DataArray type="Float64" Name="gradient_error" format="ascii" RangeMin="1.3183185937543542e-12" RangeMax="4.256620901966589e-7">
          8.58298188602619e-11 1.1133513579794104e-11 5.802436250038091e-10 2.283791481868782e-10 3.37202076090062e-11 3.381775354967764e-7
          2.1798367311998717e-7 1.0495837101032304e-8 3.948719635931984e-9 1.5128492145908104e-9 6.241013845529811e-10 2.217555949238809e-10
          1.1527438448850508e-9 9.371512582357162e-10 4.6102574065556075e-10 4.86338758072217e-10 2.6386803924798854e-11 2.0926231195680742e-11
          1.1131363997156313e-11 2.4481303198110135e-10 1.91868974302651e-10 6.712926576262494e-11 9.416956784859911e-11 8.292403908498256e-12
          1.1492203526996323e-11 3.710038006357194e-11 1.3635908474571538e-11 1.61650313156295e-11 6.300981713338514e-8 5.5367503724389313e-8
          1.1525174501012369e-7 3.5024635014915625e-8 3.0705441217276995e-8 5.038031216961723e-9 4.330657098385912e-9 6.155394677586577e-8
          5.6003985926655396e-8 9.48427301803215e-9 3.122049991384202e-9 2.5827828905216113e-9 1.639236259618803e-9 1.3126215161404029e-9
          6.244073498843897e-10 7.0761213492501324e-9 6.086674972643543e-9 3.2343594403529923e-9 7.051802570017208e-10 5.520449339599849e-10
          2.474225031562442e-10 1.9196165474693565e-10 2.5844401099043356e-10 9.156560512850417e-11 1.7589082642071372e-9 1.388701288589509e-9
          4.835080414788665e-10 6.305355289544541e-10 9.415796566453225e-11 3.449414678390113e-11 2.1477870209007386e-10 7.819805660122395e-11
          1.3152935909903186e-8 1.2028837774878398e-8 7.96967703056289e-9 6.778223651349566e-9 3.7497240486861e-9 3.0147898137063795e-9
          1.351588848957792e-9 4.370460223054663e-10 1.0987876650696332e-9 8.34737862999654e-10 7.929307886308052e-10 5.494582340672695e-10
          6.70222073485822e-10 7.074954250210449e-10 4.995707874455869e-10 3.4065414789864447e-10 3.380767362990666e-10 4.5382820844412816e-11
          4.2804340852393325e-11 2.4891673067446156e-11 3.591031501787704e-11 2.70644662170107e-11 1.5866460185766155e-11 1.8847534252398667e-11
          3.8573435528070155e-10 3.642992980649449e-10 2.307413537713465e-10 3.039840102074905e-10 8.324220752749039e-11 7.841524195742629e-11
          4.831040312684067e-11 4.550351397581021e-11 6.54132479421214e-11 3.801955451262589e-11 1.483031349805254e-10 1.39599963145238e-10
          8.075416423871879e-11 1.1593215728768719e-10 2.235007722023459e-10 1.4087942203632168e-10 1.4925118085563259e-10 4.868450923176517e-11
          2.8464713782668186e-11 3.329464104231671e-11 1.9634894724858273e-11 8.531165382675185e-11 4.9685990826564076e-11 5.7338819586647815e-11
          1.4542178155921945e-10 5.034551961876642e-12 6.979430481993779e-12 2.9733998101866227e-12 4.133867160785878e-12 4.11896454750084e-12
          5.512539299495343e-12 3.2818866109104443e-12 1.2459094077280732e-11 7.397214172484746e-12 9.074568423707051e-12 9.464487168028502e-11
          5.978726312824074e-11 2.1699725544738483e-11 1.2890030325932052e-11 1.3717729464187086e-11 8.175367019407596e-12 3.6619599517198827e-11
          2.175358583679346e-11 2.2810215964146236e-11 2.2799506357814956e-11 6.319314046697115e-12 8.463164015339202e-12 3.7533488808972696e-12
          5.0443458393922876e-12 4.929488639083623e-12 6.4318370737975376e-12 3.8351722069813056e-12 1.3977714061785733e-11 8.363311114836154e-12
          9.487968680789522e-12 9.299920934718198e-12 4.730265922229883e-9 4.484304010556131e-9 4.002091686449962e-9 6.701095273248873e-9
          4.1886941586111e-9 4.003915836695371e-9 3.259900748429552e-9 3.1433417488945527e-9 3.5552256384557518e-9 2.756736541119575e-9
          6.3010734670449986e-9 6.056348527358394e-9 4.889099944908251e-9 5.43485662508138e-9 3.3625190347912837e-9 5.111014474434888e-9
          2.912889645157138e-9 2.159511713936734e-9 4.472403835350011e-9 3.3973825802520167e-9 9.701821018368739e-9 9.302454823157924e-9
          8.552200709938647e-9 1.297828299490439e-8 8.914827013133911e-9 8.637748397645186e-9 7.447514053858584e-9 7.286033854708006e-9
          7.881546641087646e-9 6.542076280711901e-9 1.2423887752677014e-8 1.2110933866447426e-8 1.0375630816096784e-8 1.1188842287531947e-8
          7.352554435354376e-9 1.0433980656130233e-8 6.558456772072118e-9 5.161844704083556e-9 9.399803583560171e-9 7.560025932177547e-9
          1.4046744485619357e-8 1.406742997054799e-8 1.3152018814033238e-8 1.0636967282080742e-8 2.5454999265798487e-9 2.443989023428686e-9
          1.9361426034278843e-9 1.8511827293141264e-9 2.115804873643934e-9 1.583829280777957e-9 4.0338603896813744e-9 3.8941779211840504e-9
          2.998889481194426e-9 3.399121917467826e-9 1.417760026259124e-9 1.3499732495195454e-9 9.934398648004517e-10 9.423182011760804e-10
          1.1431689777629307e-9 7.910470830924343e-10 2.3164872880554736e-9 2.2138619706973806e-9 1.5591257501659865e-9 1.8836602120453525e-9
          1.618248842278307e-9 1.1894612049098895e-9 8.055693842798331e-10 2.5997539068092096e-9 1.9369985342260766e-9 8.468345675467987e-10
          5.803066128078692e-10 5.643808960394451e-10 3.8296808309412704e-10 1.3913181369909745e-9 9.586578566510514e-10 6.1040081091438635e-9
          5.936550005511506e-9 4.814531662170306e-9 4.653991578245397e-9 5.246517998502343e-9 4.049875328174708e-9 8.790046439975356e-9
          8.630642294430963e-9 6.89621489381565e-9 7.755364479460195e-9 3.628028298188143e-9 3.4850299297648493e-9 2.598975887876593e-9
          2.4815468342228986e-9 2.98886489876161e-9 2.1007180415033426e-9 5.4299602190942925e-9 5.250481974597022e-9 3.789467003812484e-9
          4.5536658440242686e-9 4.0312452524388885e-9 3.045924332046324e-9 6.014532340654716e-9 4.610716366977554e-9 2.2092786387017865e-9
          1.5320624871439465e-9 9.877379646944501e-10 3.3811604115700003e-9 2.3630867633763238e-9 6.63953337048518e-10 6.276843172362756e-10
          4.2262328445548524e-10 3.9847364064481143e-10 5.233200247390443e-10 3.30649087448376e-10 1.1031458067717515e-9 1.0448039200774167e-9
          6.655800076878067e-10 8.72074696921455e-10 2.561871960603872e-10 2.411030378160415e-10 1.4805842424636246e-10 1.3920876256647631e-10
          1.995854389285246e-10 1.1524313520591083e-10 4.282666670316766e-10 4.0319262364550833e-10 2.3258182227735463e-10 3.331499928491776e-10
          3.816129892849924e-10 2.4056895828011376e-10 2.5075685774612313e-10 1.581912175214881e-10 6.322014482371213e-10 3.987800733622641e-10
          4.0968250170327577e-10 1.454194668223723e-10 8.43958886166493e-11 9.614119186859088e-11 5.634738402705691e-11 2.407335512258426e-10
          1.3927976143074166e-10 1.567877787278448e-10 1.7648981930387956e-9 1.6761345028154849e-9 1.134989817213401e-9 1.073134289514962e-9
          1.4035580184076992e-9 8.912024415001205e-10 2.7128267257038507e-9 2.5858825065924733e-9 1.6671814588931702e-9 2.1771389134557436e-9
          6.915536480493192e-10 6.516711805209171e-10 3.9986415286454293e-10 3.759719538246746e-10 5.382444111060709e-10 3.097513659980479e-10
          1.0770336512597583e-9 1.016444821286599e-9 5.872294257686315e-10 8.40374004371393e-10 1.0140650256027025e-9 6.405285684706068e-10
          6.496586832678842e-10 4.099835934122553e-10 1.5718284978528681e-9 9.95214516726424e-10 9.981645944129107e-10 3.864280782433678e-10
          2.2304556031025083e-10 2.483780823982023e-10 1.4463998233246476e-10 6.005526054231203e-10 3.460846838860256e-10 3.816818805309305e-10
          2.388551240182601e-10 3.822597537942461e-10 5.949701347346793e-10 8.990550913548321e-10 1.5578872581292105e-10 9.844153041088508e-11
          5.987639845164794e-11 2.4979489910012663e-10 1.578422746499066e-10 6.022187873589796e-11 3.5690904579913664e-11 3.680836107783632e-11
          2.1996381974120046e-11 9.640511171215895e-11 5.694627426588606e-11 5.783817498191764e-11 3.610137963047765e-11 2.1443696395512507e-11
          5.565379442627936e-11 2.2275691576802392e-11 1.3330914277170615e-11 1.3135603473721795e-11 9.033245853575502e-12 3.439915816877966e-11
          2.0641136557809116e-11 3.8954457794044013e-10 2.4616315278754565e-10 1.4417503584360345e-10 5.899313435010678e-10 3.72915430627982e-10
          1.5012498653488868e-10 8.842084048856226e-11 8.84762226684013e-11 5.26563090536161e-11 2.2715588258879717e-10 1.3345975835250586e-10
          1.316679649850415e-10 8.374152166738043e-11 1.2270754816133311e-10 5.166088699691747e-11 3.1011688990570365e-11 7.558592226686759e-11
          4.529525997122147e-11 1.2016388108300949e-8 1.1940655643824525e-8 9.895046691759114e-9 9.74043560946352e-9 1.0957056777037352e-8
          8.750445828185262e-9 1.5684518185324734e-8 1.5785013591481773e-8 1.310581284518452e-8 1.481309967033662e-8 7.750929550561898e-9
          7.555579043926895e-9 5.7382813944881285e-9 5.541476669693792e-9 6.647293428472294e-9 4.781261734284622e-9 1.0546264743411402e-8
          1.0379899936395375e-8 7.753122353017942e-9 9.290044391020586e-9 8.612194386801462e-9 6.702086994406965e-9 1.1827858587272033e-8
          9.347189631336502e-9 4.976089380462299e-9 3.510695965513992e-9 2.2393433418602955e-9 7.033117980336911e-9 5.016366460345361e-9
          1.0579286557509613e-8 1.0379692276530213e-8 9.214149726100627e-9 6.88943085109643e-9 3.9993177568690214e-9 3.829787392664638e-9
          2.620560950880011e-9 2.4918725813337517e-9 3.2489739019533074e-9 2.0854918336208844e-9 5.6492510106295e-9 5.439504220078209e-9
          3.5794360764619278e-9 4.658847488087961e-9 1.6157385096211265e-9 1.5279828406009973e-9 1.2663123879057895e-9 2.332577404272396e-9
          2.2115748708239745e-9 1.8395853493553254e-9 2.350257003319995e-9 1.493539806722194e-9 1.483561377226272e-9 9.388130935191985e-10
          3.38525109346021e-9 2.1621860061549305e-9 2.1301209338684217e-9 9.023853398294959e-10 5.682003254359407e-10 1.3094917353931662e-9
          8.185003433329958e-10 7.645090264992966e-9 7.407029601854635e-9 6.415430786210375e-9 4.6929724096845054e-9 2.9515390553534923e-9
          1.316860312215219e-9 8.663749766509937e-10 5.480670147743471e-10 3.1094820915883816e-10 1.2323729537665341e-9 7.805473658113101e-10
          3.3357753663210963e-10 1.9044966035344596e-10 4.748925855873831e-10 2.674855460082777e-10 1.7499903955325237e-10 2.426527669928919e-10
          1.0773861992444969e-10 1.492875490827009e-10 1.6962107373203239e-9 1.2597128683920915e-11 9.421191210883459e-12 6.009218050901064e-12
          7.596569336941028e-12 4.699543939381763e-12 5.7538064249610785e-12 4.659210948355323e-12 5.704901818375922e-12 4.449302128959102e-12
          1.475677669516728e-11 1.3928921324843064e-11 1.174784473183208e-11 9.001579641092264e-12 6.395950205981721e-12 2.695424754539433e-11
          2.540263910148359e-11 2.1289725944017726e-11 4.7529641305774935e-11 4.473554730262903e-11 3.7297794776585544e-11 1.609084572762833e-11
          1.121326683909086e-11 2.7888746564677388e-11 1.918829139093495e-11 1.7231811780634299e-12 2.376887546554782e-12 1.3183185937543542e-12
          1.7564077336332086e-12 1.4460520614049339e-12 1.911554735400206e-12 1.4794754731321582e-12 4.281844136079152e-12 3.133779638469308e-12
          3.136930766407597e-12 7.428855635471723e-12 5.369161618418724e-12 4.745205005784357e-12 3.4651768713678812e-12 1.2561216007629537e-11
          7.963125619131029e-12 2.189600842904888e-12 2.914186129287312e-12 1.6961375966088631e-12 2.159667950190322e-12 1.7290566530551431e-12
          2.222410064561686e-12 1.7083711917994277e-12 4.862614674262405e-12 3.567864344612353e-12 3.6681842193187594e-12 8.175781978992203e-11
          7.686883902681257e-11 6.378901397124343e-11 4.713722991552341e-11 3.191964173609739e-11 2.0559353801992474e-11 1.2797919030472663e-11
          7.719888854031336e-12 5.6443220580955665e-12 5.799653931170588e-12 4.3606300225541685e-12 3.9908107283194175e-7 1.568302844824237e-7
          1.1555126414583348e-7 2.8114838631335134e-7 2.3307728957960776e-7 4.256620901966589e-7 1.1866461756906121e-11 9.482849734111837e-12
          2.0392093628054933e-11 1.6339263924116073e-11 1.545786379518375e-11 1.4877479000341264e-11 8.072627445470696e-12 1.6977500574252473e-11
          1.1027586878226882e-11 1.8163990124547284e-11 1.4157113018263192e-11 2.26502379325541e-11 1.7137349035541183e-8 1.475673781480223e-8
          2.6938860855669463e-8 1.003880081371546e-8 2.0934822993737517e-8 3.806781831704763e-8 3.955926338998038e-8 5.610615899869926e-12
          7.518214251456218e-12 3.4347381022347436e-12 4.401817866343619e-12 7.1816331955176405e-12 8.290218775135969e-12 8.55207210824046e-12
          6.357853130358333e-12 4.524859260124817e-12 5.444700519797988e-12 8.846556600722523e-12 4.307155622842406e-12 9.12372867549197e-12
          1.105545455623705e-11 1.157091910014152e-11 9.571860445568479e-12 8.528346853529513e-12 1.4146729112330263e-11 1.0825647243882162e-11
          1.0445069410846077e-11 1.6548580611299554e-11 7.157653486414915e-12 4.09953132755528e-12 2.7967482722530596e-12 6.6485832629733285e-12
          6.876911601131488e-12 4.342052967239919e-12 5.2378073921164635e-12 8.939513901441066e-10 6.615472670690641e-10 6.29524639753242e-10
          8.53494963338359e-10 1.5386648854824581e-9 1.4719092574777145e-9 5.369064755898314e-10 7.353416886975991e-10 1.268797510390248e-9
          4.745066862801558e-10 4.501814617426607e-10 3.2761456081262887e-10 3.1000502732534777e-10 3.808071874785802e-10 2.6055924704395877e-10
          4.088625145776918e-10 5.696584263385559e-10 9.7464914470805e-10 2.8615450755356156e-10 4.080824243832543e-10 6.856611145244501e-10
          2.8645513126251453e-10 1.9441570536632147e-10 1.973748312103814e-10 1.3271610798401648e-10 3.973457198029313e-11 2.4207059423704368e-11
          2.2871102083743523e-11 3.754953876188617e-11 7.486025225628434e-11 7.064163030398812e-11 1.408787984248273e-11 1.3318620261018781e-11
          1.9301686172925078e-11 3.169194399180982e-11 5.925792658534189e-11 1.1259682244713334e-11 1.472925379848835e-11 2.4185587271459256e-11
          4.453964552758893e-11 8.627450649424926e-12 1.0418300829700722e-11 1.7141959725658175e-11 3.088425469501942e-11 6.13537259981966e-12
          2.1686857016506757e-10 2.0477529933137044e-10 1.3737352986902181e-10 1.295155628954718e-10 1.713356445747201e-10 1.0809011002404314e-10
          1.2728603390751232e-10 8.023676557099014e-11 8.654802327892435e-11 5.459851475095831e-11 1.9184087195167613e-10 2.811761875486626e-10
          3.1853215903350526e-10 4.613437579112083e-10 1.299296082921369e-10 2.1751110837531405e-10 8.64433447259949e-11 5.5206322597420915e-11
          8.400945772018479e-11 9.07665524751536e-11 1.3734098853132782e-10 1.078606502388619e-11 6.303006225995415e-12 7.381090635516598e-12
          1.1571412405655818e-11 8.52908816045352e-12 2.046635827750683e-11 5.6159694829073015e-11 3.545887043130269e-11 3.567819188473054e-11
          5.874807330536628e-11 2.246125683575537e-11 1.3987721414356218e-11 2.2403341826085068e-11 3.620103835256041e-11 9.78708346438396e-12
          1.3764521095910956e-11 2.2000545652100106e-11 9.518677315415716e-12 6.776622910374784e-12 8.4687872016458e-12 1.311997398184909e-11
          5.641090495010282e-12 6.664982357733856e-12 9.829933242090053e-12 2.669485612789042e-9 2.5438275543299538e-9 2.906662096648565e-9
          2.0082945919687456e-9 1.928563631397526e-9 2.244112034015244e-9 1.6827680932720533e-9 1.8353974008268407e-9 2.1494737397793902e-9
          1.3229859944886116e-9 1.378052275011198e-9 2.160423202164698e-9 2.5256870713418935e-9 9.617950397663882e-10 1.548393098016002e-9
          3.286270638434053e-9 2.4134403102137818e-9 4.80107483934064e-9 5.452886527389546e-9 3.6493264494890757e-9 6.882103413213445e-9
          5.345519478751888e-9 1.1220826861831797e-9 1.7838362897889508e-9 1.297020637525938e-9 9.159585213905255e-10 2.7496383949671527e-9
          2.0247526183857386e-9 4.09778372235731e-9 3.0560685413022345e-9 1.441727196404873e-9 2.1955308002338444e-9 5.16733316110348e-10
          7.394445420408676e-10 8.170977122801205e-10 1.1549497738127604e-9 3.556346630236569e-10 1.458596260101921e-10 2.195965531356966e-10
          5.666803491424671e-10 2.287356714013277e-10 3.4280991334011787e-10 8.782231730337677e-10 3.495002285044944e-10 5.216045798678704e-10
          1.3210767028294047e-9 5.195554688979954e-10 7.722434356056101e-10 9.469235475226903e-11 1.4882637666644047e-10 5.7119104669332126e-11
          3.416925150404757e-11 8.798317289048199e-11 3.262463368712018e-11 5.174335651485127e-11 2.0153865547384513e-11 2.278385936022013e-10
          3.393405806016977e-10 1.323046229553643e-10 4.8388064961992836e-11 7.66027713882245e-11 1.9379610712213588e-10 6.987279514444022e-11
          1.1049232452751491e-10 2.9903409745398265e-11 1.7949281680537486e-11 4.313437754944448e-11 2.5966238883863744e-11 5.886670281286808e-9
          7.552235294941097e-9 4.4485437968750035e-9 6.235585539674321e-9 8.138300516263666e-9 3.2277159893491795e-9 4.573818746997193e-9
          3.1986385700089233e-9 9.396722404927138e-10 8.851732349816304e-10 7.292043485689989e-10 1.3636522926444046e-9 1.2865544322274052e-9
          1.0615078470445946e-9 5.196235791540125e-10 3.295476291361112e-10 7.541439530126017e-10 4.741817268442923e-10 5.151325504041353e-9
          4.939242804057415e-9 4.192263732047477e-9 3.238856584965062e-9 3.0801227940594576e-9 1.9062697342420776e-9 1.8019077397077965e-9
          2.574402101023328e-9 1.4903988993117435e-9 3.016755952941742e-9 4.40468995908357e-9 1.8796442998350296e-9 1.8335709672771438e-9
          1.0570915441853752e-9 1.1398524820477667e-9 6.600345712087552e-10 1.925260117516209e-9 7.504013764909166e-10 1.1107344255871772e-9
          1.8671366415046582e-9 2.7142461956482196e-9 1.0518157551283418e-9 1.5501294868954742e-9 4.91104438881551e-10 6.898797161441608e-10
          1.9558892518499795e-10 1.1290002693615548e-10 2.779849165413697e-10 1.582945265971173e-10 2.762557601910107e-10 9.827111579842005e-11
          1.5522456995638698e-10 3.8289699619091757e-10 1.3450695476115797e-10 2.1229109312901068e-10 6.447664277885652e-11 6.068035956237585e-11
          3.651086457544031e-11 8.919426369979748e-11 8.304001049171099e-11 4.992236467277387e-11 2.5601309639876174e-9 1.0762064938107783e-9
          9.39824270995837e-10 1.4295005005969926e-9 5.958330524964337e-10 6.548200577680141e-10 3.828227920386664e-10 3.6447478192394774e-10
          2.1535507717750157e-10 3.2687146673478695e-10 5.155967657964829e-10 1.7905995702505137e-10 2.8249355072642295e-10 2.009618999996521e-10
          1.1986417241247345e-10 1.1050408066707333e-10 6.636999479846683e-11 2.0077570560509858e-11 1.4735100596575777e-11 1.8971806424036856e-11
          3.0188931503020445e-11 2.4947750970064e-11 1.9555213574021228e-11 1.1544254495560884e-11 7.740214376168946e-12 8.423107251375002e-12
          7.756644435324017e-12 7.340530821944615e-12 5.420274197625834e-12 5.1321003451538954e-12 1.102881218405058e-11 8.694269017941257e-12
          6.2364776388995e-12 4.3808258506576914e-12 9.045985128429254e-12 4.839343757207593e-12 3.4439255089224112e-12 5.698887934927419e-12
          3.486184901445378e-12 2.501732901672828e-12 1.4349939978770786e-11 1.3539138070665522e-11 1.140641599039631e-11 2.526848979182754e-11
          2.38081128512737e-11 1.9951920586504035e-11 8.66705988908885e-12 6.972727374191192e-12 1.5040064484760705e-11 1.2105566427190115e-11
          2.455734583155291e-12 8.041361454584871e-12 4.3278674904203615e-11 4.0723722153876286e-11 3.3950567716331464e-11 1.3629696213266625e-10
          1.280584036267609e-10 7.181559189136407e-11 6.750743842303292e-11 1.0585524820716863e-10 5.6027471486113754e-11 2.5376662151872208e-11
          1.743141833896493e-11 7.739138015524032e-11 4.141282304579759e-11 5.1538596772865466e-11 2.8033016310868745e-11 2.199720743058684e-10
          2.0661428560011443e-10 1.7029520801693592e-10 3.4324532845709263e-10 3.224288305026867e-10 2.6525309652108715e-10 1.2346575935951234e-10
          8.110937351847192e-11 1.9097065609006723e-10 1.2392304092719763e-10 1.1349151391168202e-11 8.213620950570299e-12 3.259056268126746e-11
          1.7995957065960527e-11 1.9992776677245034e-11 1.3023088369037694e-11 1.1974295257561017e-11 7.66851541581336e-12 7.938277810456038e-12
          5.0371485676398396e-11 3.041638449164831e-11 7.573205311734535e-11 4.499303782351055e-11 1.8117287307694362e-11 1.0490382759295077e-11