<?xml version="1.0"?>
<VTKFile type="UnstructuredGrid" version="0.1" byte_order="LittleEndian" header_type="UInt32" compressor="vtkZLibDataCompressor">
  <UnstructuredGrid>
    <Piece NumberOfPoints="986" NumberOfCells="560">
      <PointData>
        <DataArray type="Int32" Name="libmesh_node_id" format="ascii" RangeMin="154" RangeMax="3578">
          204 252 253 254 270 282
          300 301 303 318 330 355
          356 357 358 359 360 361
          362 363 364 365 366 367
          368 369 370 371 372 373
          374 375 376 377 378 379
          380 381 382 411 412 415
          416 418 419 420 421 422
          424 425 426 427 428 429
          430 431 432 433 434 474
          475 478 479 481 482 483
          484 485 487 490 492 493
          494 495 496 497 498 499
          500 501 502 503 504 505
          508 509 511 514 516 517
          518 519 520 521 522 523
          524 525 526 527 528 529
          530 531 532 533 534 535
          536 537 538 539 540 541
          542 543 544 545 546 547
          548 549 550 551 552 553
          554 555 556 557 558 559
          560 561 562 563 565 567
          568 569 573 670 672 674
          675 676 677 679 680 682
          683 684 685 688 689 691
          693 742 743 744 745 747
          750 751 752 753 754 755
          756 757 758 759 760 761
          762 763 764 765 766 767
          768 769 770 771 772 773
          774 775 776 777 778 779
          780 781 782 783 784 785
          786 787 788 789 790 791
          796 797 801 814 818 893
          894 895 896 897 898 899
          900 901 902 903 904 905
          906 907 908 910 911 912
          913 914 915 916 917 918
          919 920 921 922 923 924
          925 926 927 928 929 930
          931 932 933 934 935 936
          937 938 939 953 954 955
          956 957 958 959 960 961
          962 963 965 967 968 969
          970 972 973 975 976 987
          988 989 990 991 992 993
          994 995 996 1010 1011 1012
          1013 1014 1015 1016 1017 1018
          1019 1020 1021 1022 1023 1024
          1025 1026 1027 1028 1029 1030
          1031 1032 1033 1034 1035 1036
          1037 1038 1039 1040 1041 1042
          1043 1044 1045 1046 1047 1048
          1049 1050 1051 1052 1053 1054
          1055 1056 1057 1058 1059 1060
          1061 1062 1063 1064 1065 1066
          1067 1068 1069 1070 1071 1072
          1073 1074 1075 1076 1077 1078
          1079 1080 1081 1082 1083 1084
          1085 1086 1087 1088 1089 1090
          1091 1092 1093 1094 1095 1096
          1097 1098 1099 1100 1101 1102
          1103 1104 1105 1106 1107 1108
          1109 1110 1111 1112 1113 1114
          1115 1116 1117 1118 1119 1120
          1121 1122 1123 1124 1125 1126
          1127 1128 1129 1130 1131 1132
          1133 1134 1135 1136 1137 1138
          1139 1140 1141 1142 1143 1144
          1145 1146 1147 1148 1149 1150
          1151 1152 1153 1154 1155 1156
          1157 1158 1159 1160 1161 1162
          1163 1164 1165 1166 1167 1168
          1169 1170 1171 1172 1173 1174
          1175 1176 1177 1178 1179 1180
          1181 1182 1183 1184 1185 1186
          1187 1188 1189 1190 1191 1192
          1193 1194 1195 1196 1197 1198
          1199 1200 1201 1202 1203 1204
          1205 1206 1207 1208 1209 1210
          1211 1212 1213 1214 1215 1216
          1217 1218 1219 1220 1221 1222
          1223 1224 1225 1226 1227 1228
          1229 1230 1231 1232 1233 1234
          1235 1236 1237 1238 1239 1240
          1241 1242 1246 1247 1248 1249
          1250 1251 1252 1253 1254 1255
          1256 1257 1258 1259 1260 1262
          1265 1266 1270 1281 1282 1283
          1284 1285 1286 1287 1288 1289
          1290 1291 1292 1293 1294 1295
          1296 1297 1298 1299 1300 1301
          1302 1303 1304 1305 1306 1307
          1308 1317 1319 1375 1378 1383
          1394 1396 1398 1400 1428 1430
          1432 1434 1595 1596 1597 1598
          1599 1600 1601 1602 1603 1604
          1605 1606 1607 1608 1630 1631
          1632 1633 1634 1635 1636 1637
          1638 1639 1640 1641 1642 1643
          1644 1645 1646 1647 1648 1649
          1650 1651 1652 1653 1654 1655
          1656 1657 1661 1662 1704 1705
          1708 1709 1711 1712 1807 1808
          1809 1810 1811 1812 1813 1814
          1815 1816 1817 1818 1819 1820
          1855 1856 1857 1858 1859 1860
          1861 1862 1863 1864 1865 1866
          1867 1868 1869 1870 1871 1872
          1873 1874 1875 1876 1877 1878
          1879 1880 1881 1882 1883 1884
          1885 1886 1887 1888 1889 1890
          1891 1892 1893 1894 1895 1896
          1897 1898 1899 1923 1924 1925
          1926 1927 1928 1929 1930 1932
          1943 1944 1945 1951 1952 1955
          1956 1957 1958 1960 1971 1972
          1973 1974 1975 1976 1977 3068
          3069 3070 3071 3072 3073 3074
          3085 3086 3087 3088 3089 3090
          3091 3092 3093 3094 3159 3160
          3161 3162 3163 3164 3165 3166
          3167 3168 3169 3170 3171 3172
          3173 3174 3175 3176 3177 3178
          3179 3180 3181 3182 3183 3184
          3185 3186 3187 3188 3189 3190
          3191 3192 3193 3194 3195 3196
          3197 3198 3445 3446 3447 3448
          3449 3450 3451 3452 3453 3454
          3455 3456 3457 3458 3459 3460
          3461 3462 3463 3464 3465 3466
          3467 3468 3469 3470 3471 3472
          3473 3474 3475 3476 3477 3478
          3479 3480 3481 3482 3483 3484
          3485 3487 3488 3489 3490 3524
          3525 3526 3527 3528 3529 3530
          3531 3532 3533 3544 3545 3546
          3552 3553 3554 3555 3556 3557
          3558 3559 3560 3561 3572 3573
          3574 3575 3576 3577 3578 154
          156 157 155 202 205 203
          158 159 206 207 222 221
          251 269 223 255 271 234
          233 281 235 283 317 329
          319 331 413 414 417 423
          250 343 435 436 437 438
          442 443 384 390 476 477
          480 486 462 489 491 345
          574 575 576 577 581 582
          585 587 671 349 673 678
          299 681 686 687 690 692
          694 391 695 396 701 738
          510 740 739 741 746 515
          748 749 792 793 794 795
          798 799 800 606 812 813
          815 611 816 817 488 909
          944 945 948 506 951 507
          964 966 971 974 979 980
          982 512 985 513 1001 1005
          1008 584 1318 1379 1395 1397
          603 1399 1429 1431 1433 1658
          1659 1660 1663 383 578 1706
          1707 1710 1713 344 940 941
          859 946
        </DataArray>
        <DataArray type="Float64" Name="bounds" format="ascii" RangeMin="0" RangeMax="0">
          0 0 0 0 0 0
          0 0 0 0 0 0
          0 0 0 0 0 0
          0 0 0 0 0 0
          0 0 0 0 0 0
          0 0 0 0 0 0
          0 0 0 0 0 0
          0 0 0 0 0 0
          0 0 0 0 0 0
          0 0 0 0 0 0
          0 0 0 0 0 0
          0 0 0 0 0 0
          0 0 0 0 0 0
          0 0 0 0 0 0
          0 0 0 0 0 0
          0 0 0 0 0 0
          0 0 0 0 0 0
          0 0 0 0 0 0
          0 0 0 0 0 0
          0 0 0 0 0 0
          0 0 0 0 0 0
          0 0 0 0 0 0
          0 0 0 0 0 0
          0 0 0 0 0 0
          0 0 0 0 0 0
          0 0 0 0 0 0
          0 0 0 0 0 0
          0 0 0 0 0 0
          0 0 0 0 0 0
          0 0 0 0 0 0
          0 0 0 0 0 0
          0 0 0 0 0 0
          0 0 0 0 0 0
          0 0 0 0 0 0
          0 0 0 0 0 0
          0 0 0 0 0 0
          0 0 0 0 0 0
          0 0 0 0 0 0
          0 0 0 0 0 0
          0 0 0 0 0 0
          0 0 0 0 0 0
          0 0 0 0 0 0
          0 0 0 0 0 0
          0 0 0 0 0 0
          0 0 0 0 0 0
          0 0 0 0 0 0
          0 0 0 0 0 0
          0 0 0 0 0 0
          0 0 0 0 0 0
          0 0 0 0 0 0
          0 0 0 0 0 0
          0 0 0 0 0 0
          0 0 0 0 0 0
          0 0 0 0 0 0
          0 0 0 0 0 0
          0 0 0 0 0 0
          0 0 0 0 0 0
          0 0 0 0 0 0
          0 0 0 0 0 0
          0 0 0 0 0 0
          0 0 0 0 0 0
          0 0 0 0 0 0
          0 0 0 0 0 0
          0 0 0 0 0 0
          0 0 0 0 0 0
          0 0 0 0 0 0
          0 0 0 0 0 0
          0 0 0 0 0 0
          0 0 0 0 0 0
          0 0 0 0 0 0
          0 0 0 0 0 0
          0 0 0 0 0 0
          0 0 0 0 0 0
          0 0 0 0 0 0
          0 0 0 0 0 0
          0 0 0 0 0 0
          0 0 0 0 0 0
          0 0 0 0 0 0
          0 0 0 0 0 0
          0 0 0 0 0 0
          0 0 0 0 0 0
          0 0 0 0 0 0
          0 0 0 0 0 0
          0 0 0 0 0 0
          0 0 0 0 0 0
          0 0 0 0 0 0
          0 0 0 0 0 0
          0 0 0 0 0 0
          0 0 0 0 0 0
          0 0 0 0 0 0
          0 0 0 0 0 0
          0 0 0 0 0 0
          0 0 0 0 0 0
          0 0 0 0 0 0
          0 0 0 0 0 0
          0 0 0 0 0 0
          0 0 0 0 0 0
          0 0 0 0 0 0
          0 0 0 0 0 0
          0 0 0 0 0 0
          0 0 0 0 0 0
          0 0 0 0 0 0
          0 0 0 0 0 0
          0 0 0 0 0 0
          0 0 0 0 0 0
          0 0 0 0 0 0
          0 0 0 0 0 0
          0 0 0 0 0 0
          0 0 0 0 0 0
          0 0 0 0 0 0
          0 0 0 0 0 0
          0 0 0 0 0 0
          0 0 0 0 0 0
          0 0 0 0 0 0
          0 0 0 0 0 0
          0 0 0 0 0 0
          0 0 0 0 0 0
          0 0 0 0 0 0
          0 0 0 0 0 0
          0 0 0 0 0 0
          0 0 0 0 0 0
          0 0 0 0 0 0
          0 0 0 0 0 0
          0 0 0 0 0 0
          0 0 0 0 0 0
          0 0 0 0 0 0
          0 0 0 0 0 0
          0 0 0 0 0 0
          0 0 0 0 0 0
          0 0 0 0 0 0
          0 0 0 0 0 0
          0 0 0 0 0 0
          0 0 0 0 0 0
          0 0 0 0 0 0
          0 0 0 0 0 0
          0 0 0 0 0 0
          0 0 0 0 0 0
          0 0 0 0 0 0
          0 0 0 0 0 0
          0 0 0 0 0 0
          0 0 0 0 0 0
          0 0 0 0 0 0
          0 0 0 0 0 0
          0 0 0 0 0 0
          0 0 0 0 0 0
          0 0 0 0 0 0
          0 0 0 0 0 0
          0 0 0 0 0 0
          0 0 0 0 0 0
          0 0 0 0 0 0
          0 0 0 0 0 0
          0 0 0 0 0 0
          0 0 0 0 0 0
          0 0 0 0 0 0
          0 0 0 0 0 0
          0 0 0 0 0 0
          0 0 0 0 0 0
          0 0 0 0 0 0
          0 0 0 0 0 0
          0 0 0 0 0 0
          0 0 0 0 0 0
          0 0 0 0 0 0
          0 0 0 0 0 0
          0 0 0 0 0 0
          0 0
        </DataArray>
        <DataArray type="Float64" Name="gradient_error" format="ascii" RangeMin="1.016107860174485e-10" RangeMax="8.461790119894486e-7">
          3.8818498169644955e-9 1.021157192313957e-7 1.1812977684193863e-8 2.240400365066275e-8 4.635495679386191e-9 3.1003080499295327e-9
          2.0711516980341786e-7 1.0636510644453235e-7 5.772213263772331e-9 3.971947510100752e-9 3.8039100009841985e-9 1.7306135752074846e-7
          8.41926636879268e-8 2.456796522593146e-7 5.571598153535996e-7 3.883567992852786e-8 2.819831666245211e-7 4.721038774547903e-7
          2.2645001017202692e-8 9.643988976582459e-8 4.488084193965672e-8 1.3791354015410084e-7 5.392703588174445e-7 2.9262664144928347e-7
          1.8833936468154333e-7 5.942810518152273e-8 1.6031857227457997e-8 3.1883642523722536e-7 3.360967089341428e-7 5.36565103029299e-9
          3.354773147382202e-7 1.7153769573002844e-7 4.4981180674857945e-9 1.5202535935265628e-8 4.832894561001115e-9 2.0266251501867552e-9
          2.872638375561803e-7 3.784316622860514e-7 3.844419634089803e-8 1.2810111239193767e-8 9.335150820414783e-9 3.660692549046995e-8
          2.4937025616451655e-8 2.6686383646415546e-9 2.1694674175267168e-9 4.312714335839692e-9 5.8601904016358005e-9 1.3653250453626996e-8
          6.301299367625564e-9 7.294329597974167e-10 6.430557613149671e-10 9.799817024654938e-10 1.1381965714241098e-9 3.372831739569959e-10
          8.911923462811873e-10 4.079026934294387e-10 5.566785628325177e-10 1.7642205620096326e-9 5.642220786392676e-10 3.2176386894411033e-7
          2.7168840233685404e-7 2.2399893729241483e-7 3.808645818792339e-7 1.5529150725683055e-7 2.0380119463744852e-7 3.5708059039411113e-7
          1.7584229131023375e-7 3.870348018603294e-7 3.5875377275989865e-7 3.83067447352266e-7 1.249355093465134e-7 9.753745499321981e-8
          1.8074962739178654e-7 3.276552752647446e-7 7.676614252391554e-8 1.5504740051233438e-7 2.9268812391999057e-7 6.589478219457851e-8
          3.241485839242195e-7 2.848276533912735e-7 2.634264143351659e-7 3.8446356652184917e-7 3.8007537121584e-7 5.214250496770836e-7
          2.774323094306558e-7 3.1840401462942033e-7 5.364790608516324e-7 3.138680236094078e-7 3.2077276087526793e-7 3.6044211423635836e-7
          3.768663198796191e-7 4.1166428904426485e-7 3.866588292326837e-7 3.701475456477633e-7 1.663517339234317e-7 3.678073538737657e-7
          4.379912389623681e-7 2.8015758454424685e-7 8.042203609596214e-8 5.7416172024849e-8 1.2741405477095487e-7 2.520893083929037e-7
          3.992820398868471e-8 9.894970478644178e-8 2.064714739096547e-7 3.281590471141834e-8 2.408753316725777e-7 1.9371095256841913e-7
          3.0083347270781193e-7 3.687275080916573e-7 3.482681200841458e-7 4.103387608656406e-7 3.8515312276844776e-8 2.4593814055133932e-8
          7.096835946358483e-8 1.5743657111038146e-7 1.4033584769099787e-8 5.1894288975841175e-8 1.1112034894548867e-7 1.16842926092338e-8
          1.456296428802528e-7 1.0039046572920179e-7 3.3175998249156656e-7 3.158053504659616e-7 2.6833503779296946e-7 2.537904629645814e-7
          4.5166736343277183e-7 4.7381149252980343e-7 4.2523414363193015e-7 5.473266272968361e-7 3.4345329527729107e-7 3.0278558854379294e-7
          1.4211812210929586e-7 5.31033477655721e-7 4.955159099594024e-7 2.968101061129564e-7 5.394909624747959e-7 5.028828546681993e-7
          3.020839745288856e-7 2.6856984282805775e-7 3.6305705275708824e-7 1.3186116981591743e-8 3.53500485637036e-8 9.042026980610547e-9
          1.4453731027366907e-8 5.305665985928086e-9 8.873308756257728e-9 3.008722453912533e-9 5.751398014581546e-8 1.9865435074123267e-8
          1.2440951526587373e-8 3.784627142447745e-9 4.7848444041424696e-9 7.085113567682399e-10 1.2900974319352828e-9 5.785061665837194e-9
          1.871683507102326e-9 3.6638567172918124e-7 5.134662772218771e-7 1.8858100248978398e-7 2.828182293942558e-7 2.2747944394052282e-7
          5.058923100855034e-7 3.251571906089198e-7 3.2005601261998874e-7 3.211634009331639e-7 2.699810576824274e-7 2.723605675404296e-7
          9.366182750501083e-8 1.8024730988065613e-7 1.33438749783565e-7 1.740842926846535e-7 1.3976721730643937e-7 2.2849420031150708e-7
          7.784527266047816e-9 1.1980454735047626e-8 2.6248741169615842e-8 4.177833169970065e-8 5.027795358832022e-9 1.4630898165107516e-8
          1.8608083712404068e-9 5.808706748720038e-9 9.632228319421898e-9 3.366142232943755e-9 1.1153498118676948e-7 1.6283825363005464e-7
          6.780252828073226e-8 1.1332930164315277e-8 2.1707784234735142e-7 2.185309434019139e-7 1.6265864752538546e-7 3.963361739629669e-8
          8.729655519978262e-8 4.79191529599434e-8 1.0303470499795922e-7 7.045066131401658e-8 1.2011959617897675e-7 1.6802102836006732e-7
          1.6020886981219967e-7 1.8670791643532764e-8 5.854911385584786e-9 1.6033677854657027e-7 2.0904668403431778e-7 2.4432328084634644e-8
          2.64257867558834e-10 1.874237041679417e-9 3.5244518615190194e-9 3.4704186821328732e-9 3.376149857027707e-9 1.2530140244059638e-7
          1.257017598924352e-7 1.266545568610324e-7 1.6232720735926008e-7 1.641406418874043e-7 1.56246455254057e-7 1.5501106598376205e-7
          1.2442986671629556e-7 1.6563111130373388e-7 1.5722766895186328e-7 1.26102117344274e-7 1.4835226862070968e-7 1.4769492460826393e-7
          1.4882422659999262e-7 2.372031623906944e-7 2.2779019254143946e-7 2.3529628087638613e-7 2.226199729127641e-7 1.2197231303639007e-7
          1.225938196176701e-7 1.6675420853280424e-7 1.5779264993673433e-7 1.2011927739080268e-7 1.6741010270416455e-7 1.5784816108640456e-7
          1.2321532619895017e-7 1.4883109134066435e-7 1.482862194686445e-7 2.54428352469425e-7 2.430237794309456e-7 2.508972709514612e-7
          2.352916366572672e-7 1.1621554133154486e-7 1.1694803645852525e-7 1.6749563355355723e-7 1.573010217521502e-7 1.1298666520923692e-7
          1.6688819591541714e-7 1.560406316639637e-7 1.1768053158550565e-7 1.4710640995074313e-7 1.4519306741251029e-7 2.726316642466073e-7
          2.588225197519995e-7 2.667350198314821e-7 2.477503308242638e-7 2.80744628259368e-7 2.824080446434085e-7 2.963229919596139e-7
          2.9742137641219375e-7 2.72191794334771e-7 2.8427933167958995e-7 2.5939783117916375e-7 2.7788026614197724e-7 2.9680267705340435e-7
          3.002745109852112e-7 2.0490456168229983e-7 2.3310774937946185e-7 2.0828497632865281e-7 2.3979708768080007e-7 1.7870365001067646e-7
          2.059033711168309e-7 2.0955527286719374e-7 2.815936207327395e-7 2.9390089895047656e-7 2.590009205998472e-7 1.7773306371704593e-7
          2.2607414120967713e-7 1.9206082669427584e-7 2.4413973788190345e-7 2.983549278066255e-7 3.1957129124671086e-7 1.2673327814732386e-7
          1.9241460495501666e-7 2.0894978391604444e-7 2.9191567289179706e-7 3.092861459982448e-7 3.249552513947976e-7 2.9627765508554696e-7
          2.65551320487844e-7 3.166959876076347e-7 3.334179039215894e-7 3.0765656119438475e-7 3.1337229661625254e-7 3.1378470493822823e-7
          3.3206491637031366e-7 3.3161630997491725e-7 2.971349646182216e-7 3.107451566104635e-7 2.9776280774555555e-7 3.1805226216199396e-7
          3.4202212973498434e-7 3.3841741257655195e-7 3.52577041897424e-7 3.510219119919344e-7 3.750815330497771e-7 3.7213542993827347e-7
          3.251044066170034e-7 3.401548182992746e-7 3.469429901424615e-7 3.691559805125411e-7 3.999810699137263e-7 3.8477475107103864e-7
          2.1134374413918659e-7 2.46775977730057e-7 2.1397480689009586e-7 2.5357757244870057e-7 1.8005099109150404e-7 2.134791394838748e-7
          2.1683253525599496e-7 3.068075302479022e-7 3.2073878757334246e-7 2.4081054741063275e-7 2.1598648645026578e-7 2.5972018719364427e-7
          2.171029762979942e-7 2.6511892129116184e-7 1.7874873094252356e-7 2.1869834323972667e-7 2.19117532810544e-7 3.3501393145932516e-7
          3.492137139007969e-7 2.528859100304982e-7 2.085350123567397e-7 2.6480099199463456e-7 2.2762009512692092e-7 2.886342703621617e-7
          3.437040698830212e-7 3.708746689798197e-7 1.509684015452419e-7 2.2801079093564503e-7 2.5023940408327287e-7 3.3912921710467015e-7
          2.4997777699339336e-7 3.163463435462893e-7 2.7654213613645296e-7 3.4886364702025347e-7 4.0158392741820365e-7 4.365074942628634e-7
          1.847360547790667e-7 2.7643351759314143e-7 3.076605725453274e-7 4.004678138499315e-7 3.407754506188483e-7 3.5905609609036996e-7
          2.5313513028322645e-7 2.6290648346321433e-7 3.501440520628196e-7 3.6981495504136033e-7 2.685080833886265e-7 3.795434893093709e-7
          4.0104704286516456e-7 2.686969534299475e-7 2.725758846877868e-7 3.9251300363711436e-7 4.168015242130647e-7 2.873890195826125e-7
          1.0736491127352571e-7 1.0816682972644966e-7 1.6545439187068762e-7 1.539422949947668e-7 1.0245685607900529e-7 1.6301912382110223e-7
          1.5085452174078936e-7 1.0896874817937361e-7 1.4243019811884596e-7 1.386899196604765e-7 2.9140302119545473e-7 2.745410381791597e-7
          2.8212893424511736e-7 2.5882807637798756e-7 9.518778440051687e-8 9.589271343233786e-8 1.5936781482173577e-7 1.465990565259041e-7
          8.85856457211922e-8 1.5433963375306455e-7 1.4103807167346204e-7 9.659764246415884e-8 1.338302982300724e-7 1.2773650959385953e-7
          3.1015597368718875e-7 2.8931669662581815e-7 2.955902922876677e-7 2.668489382176996e-7 8.064928304600492e-8 8.074051595497644e-8
          1.477851591480392e-7 1.3404740296837633e-7 7.287021906666205e-8 1.3951632094896787e-7 1.254661892954379e-7 8.083174886394795e-8
          1.2030964678871344e-7 1.1141605764190792e-7 3.261863804787377e-7 3.003177801409319e-7 3.0292625379200856e-7 2.68403009471703e-7
          6.774123164231783e-8 6.573116874101741e-8 1.2928780006859366e-7 1.1512450106437711e-7 6.100467056038481e-8 1.1699628710245814e-7
          1.0294004512979994e-7 6.3721105839717e-8 1.0096120206016056e-7 8.888380315714171e-8 3.349948486926868e-7 3.026677690041583e-7
          2.984512022832739e-7 2.57683907738053e-7 1.972923864735049e-7 2.0598516779035675e-7 1.8522492944766697e-7 1.3827410413815297e-7
          1.6944701318395093e-7 1.497238477984246e-7 1.0652368178500236e-7 3.9975368549022677e-7 3.950838551394985e-7 4.266139679299596e-7
          4.198893866054366e-7 3.5580962163958284e-7 3.7194036517636553e-7 4.112845172037199e-7 4.351367751949328e-7 4.756578797631041e-7
          4.412786828688289e-7 4.5595813453108354e-7 4.46770809197216e-7 4.895368488100873e-7 4.768413802618105e-7 3.8838574289601555e-7
          4.0501132850569397e-7 4.972842642905379e-7 5.213704955485045e-7 5.104755152629462e-7 5.092778983941996e-7 2.1701435022165858e-7
          2.696292601328505e-7 2.1538426816363293e-7 2.7287613924668936e-7 1.7290258163508388e-7 2.1805330177530552e-7 2.150363534215613e-7
          3.633413116051924e-7 3.7698646937685903e-7 2.566591157180019e-7 2.1186037524438846e-7 2.7441103949106687e-7 2.7354396298933276e-7
          1.6012877496457337e-7 2.0963407705345114e-7 2.0121118068081123e-7 3.8966144461175955e-7 4.0076060916915103e-7 2.5164001364829455e-7
          3.085825526602863e-7 3.8744583273349333e-7 2.8606530234305017e-7 4.0330286489219815e-7 4.761979560108928e-7 5.213815831679288e-7
          2.348412719705264e-7 3.4542150926088255e-7 3.3026728800851667e-7 4.811614990254713e-7 2.6338500104179076e-7 4.2385710354115597e-7
          1.6006171379320793e-7 3.363279101775738e-7 5.714020025974523e-7 5.49679122616029e-7 1.7037377493748833e-8 3.175582529533537e-7
          1.9315270905207245e-7 5.862777638699799e-7 4.2341149931636155e-7 4.4622583352036454e-7 2.7466883055216744e-7 2.744375023771322e-7
          4.423845454663807e-7 4.68846738616757e-7 2.9595099848509563e-7 4.691355665151024e-7 4.921991543807893e-7 2.7112473132359006e-7
          2.635327254648987e-7 4.959099475444309e-7 5.239798486115851e-7 2.943591317459028e-7 5.286290822501461e-7 5.107305089335375e-7
          5.726427596156409e-7 5.476304073737291e-7 4.213345439018535e-7 4.3611557878126186e-7 3.489102158944694e-7 5.011677567918855e-7
          4.6191988160163595e-7 5.87981763330373e-7 6.211437782807546e-7 5.87026335163367e-7 4.794923777543813e-7 5.292200528346987e-7
          4.4794780053832083e-7 4.541015737266863e-7 4.830369025367039e-7 2.695392186944051e-7 2.6138455123585274e-7 1.892412852020322e-7
          1.7315600004099885e-7 4.0952285830695597e-7 4.133398865729133e-7 2.3122319103470006e-7 2.479163978632933e-7 2.2820517367228456e-7
          1.5284608669592405e-7 1.287819628355034e-7 4.0889809288311335e-7 3.9434137499624916e-7 2.5683295526595747e-7 2.302606725678509e-7
          5.245850185473435e-7 4.78417504414754e-7 3.9457048420319423e-7 5.151600372794812e-7 5.335822038408426e-7 2.5037483596097286e-7
          2.8442770522019675e-7 5.53060408860356e-7 5.780288075598969e-7 2.740191185028514e-7 5.418545490442347e-7 5.377893384866183e-7
          3.512906479964422e-7 3.100462049890343e-7 5.922986948648783e-7 5.93582426526883e-7 3.880838770678151e-7 7.019294443748936e-8
          6.11655852143154e-8 1.0299766722032729e-7 8.914386951547802e-8 6.277195504760292e-8 9.5652713056136e-8 8.189995841616335e-8
          5.213822599114144e-8 7.529007181062876e-8 6.814720377619069e-8 3.320650488305621e-7 2.8875832821936906e-7 3.386579781092917e-7
          2.2508881436326678e-7 1.2645775334466042e-7 6.855227881587244e-8 4.615674597534854e-7 4.5135844149227633e-7 5.12122829346217e-7
          2.0149404523544291e-7 1.0233319924049751e-7 3.667323191279136e-7 1.8155146584531554e-7 5.170126722005703e-7 2.5788648474351726e-7
          5.77091043271539e-7 2.8878415746152603e-7 3.6275904879090996e-8 5.290347772775379e-8 1.0482506402514889e-7 1.3050774975373964e-7
          2.5897195144638988e-8 8.203197434163306e-8 1.5146264454298836e-8 3.5234750007257653e-8 5.33304698033657e-8 2.396041141072529e-8
          1.7962210637001e-8 6.066062431594435e-8 6.297323047218665e-9 1.5545521809611775e-8 8.402740227265312e-10 7.340371902072581e-10
          1.1106148640251197e-9 3.6510889036084796e-9 4.261733629886085e-9 2.705954287327259e-9 2.9916310222721087e-9 7.627213235066639e-10
          5.138601990239455e-9 2.8207714506292735e-9 6.278003576879851e-10 1.1501749447684334e-9 2.3321731409357395e-9 5.029409110190916e-10
          1.5160223253215435e-9 8.183835758886298e-10 5.072937215659659e-9 2.651842674094545e-9 7.256255391942588e-10 3.9641014666399615e-9
          2.1074407285551372e-9 1.2074482645571605e-10 2.3074813252943076e-10 2.507799904703125e-10 1.073530196521231e-9 5.875704912693396e-10
          3.437361804235541e-9 1.856788103891023e-9 1.016107860174485e-10 2.7621440354650464e-10 1.2679801468702447e-7 1.2760438784006524e-7
          1.6022957366019658e-7 1.5368209125062305e-7 1.2841076099310603e-7 1.4713460884104951e-7 8.598065873552687e-8 1.00531879109635e-7
          9.511929380249583e-8 1.1038829991581018e-7 7.81304762824603e-8 8.684857685562637e-8 6.936652679702059e-8 7.22734589160353e-8
          7.447770491180791e-8 7.257822394644512e-8 1.042579288694648e-7 1.2024472072198533e-7 9.556667742879247e-8 7.518039103505e-8
          7.025352112812366e-8 4.0411259772342975e-8 3.660960413634429e-8 3.9310603794094834e-8 4.201160345184537e-8 3.820994781584669e-8
          4.143805798641835e-8 4.382754687580845e-8 5.064349620939598e-8 4.6217035765198544e-8 7.044287242052979e-8 7.059300828039982e-8
          7.074314414026985e-8 5.386408698966257e-8 5.6926389402094916e-8 5.630797268193819e-8 5.998869181452726e-8 8.368509967479972e-8
          3.6476465470307025e-8 4.139518939615725e-8 3.2172157614714295e-8 4.321680443104053e-8 4.631391332200748e-8 5.430476419132678e-8
          3.1514872954195705e-8 3.896283191650605e-8 3.589393365027801e-8 4.6410790878816406e-8 2.9553190290719275e-8 4.544416598729475e-8
          1.811045385502038e-8 3.5183135682212206e-8 6.11355775024461e-8 6.213108941548838e-8 3.703615321295565e-9 3.40968824498807e-8
          2.132253079306481e-8 6.228246319036495e-8 8.457658109724361e-8 8.570701795031327e-8 8.54680625196875e-8 7.339738046482342e-8
          7.351554977047643e-8 7.898408942348223e-8 7.363371907612944e-8 7.17904189914801e-8 7.31742141260074e-8 7.483934502821864e-8
          7.785516920924616e-8 7.455800926053467e-8 8.087099339027367e-8 3.8912748638024085e-8 5.5801328066487265e-8 7.682769429309798e-8
          8.687664254140655e-8 9.285936825067891e-8 8.82124641879336e-8 3.928892242098048e-9 2.254200092662182e-8 6.236186551041141e-8
          5.741358144256205e-8 1.3883413156952455e-9 5.854905443826816e-9 4.720894283123084e-8 8.745375618950913e-8 9.312553873209849e-8
          8.956647998069307e-8 9.631729317113822e-8 8.803086983761172e-8 9.339170921351806e-8 9.092049577345255e-8 9.115898977833978e-8
          1.1869939608755552e-7 1.6561223160390596e-7 1.8664586842809579e-7 5.2246332665809755e-8 9.446453473289298e-8 1.2392834417453246e-7
          3.437084318217238e-9 3.1643623390692193e-9 4.847523430783759e-9 7.628755259230269e-9 5.624496143084909e-9 4.909988630048092e-9
          6.452653983987162e-9 2.891640359921201e-9 4.195481117011275e-9 5.276552708744055e-9 1.5297052190311882e-7 1.5368063833177632e-7
          1.6408078837899454e-7 1.654616099705677e-7 1.5005712049463406e-7 1.6049037963931464e-7 1.3375330541660512e-7 1.371010492957198e-7
          1.482423972090125e-7 1.2117909217070357e-7 1.7519105485487026e-7 1.7724258160935906e-7 1.7092363878399523e-7 1.4044879317483446e-7
          1.4529791968099035e-7 1.5583026771702324e-7 1.395302550865626e-7 1.502205885339763e-7 1.1563277258887363e-7 1.1290066245567138e-7
          1.0555366280103539e-7 1.6636261575305607e-7 1.6091092198139006e-7 1.1016855232246912e-7 1.3234024061961366e-7 1.235537931920382e-7
          1.0093171540296729e-7 1.1298926425073844e-7 8.35061260397753e-8 1.430879660879634e-7 1.3421118587183838e-7 9.757447048922996e-8
          8.918034892299515e-8 1.5383569155631307e-7 1.448685785516385e-7 9.421722557549265e-8 1.2334723138755954e-7 8.095147822761442e-8
          1.3370519852438068e-7 7.839683041545356e-8 7.865697081643359e-9 4.864818721660678e-9 4.9981473071508615e-9 4.991991068038691e-9
          4.98583482892652e-9 5.1191634144167044e-9 5.108439071692759e-9 5.128835600286607e-9 5.4418577732001135e-9 5.149232128880455e-9
          7.122329329242666e-9 7.588621559519481e-9 8.054913789796294e-9 5.074889185095443e-9 5.438718179721771e-9 5.850770887857156e-9
          5.802547174348099e-9 9.046908736155066e-9 4.8687722996618575e-9 5.0965835946760436e-9 4.472954456535775e-9 5.124658144273058e-9
          5.3243948896902305e-9 5.7763618320103415e-9 4.629105527630955e-9 5.064331589065481e-9 4.807458515346003e-9 5.499557650500005e-9
          3.908588604340647e-9 4.915915373763235e-9 3.2521416659460537e-9 4.4987853049412425e-9 5.923242143185823e-9 6.670920032288818e-9
          2.7422880235858506e-9 4.393112567804699e-9 3.877187296794552e-9 6.0439371120235475e-9 8.740433981949185e-9 8.95896575490478e-9
          8.433959227743303e-9 7.519510049536242e-9 7.889037227429005e-9 7.860816260654604e-9 8.258564405321769e-9 6.91160726612346e-9
          7.438983679132963e-9 6.477865074869687e-9 7.088479980446959e-9 7.966360092142466e-9 7.699094886024231e-9 4.8638527313792925e-9
          5.709494426125538e-9 5.031323490045019e-9 7.265729583384582e-9 8.999794895370548e-9 8.872983198274714e-9 9.312673282330918e-9
          2.5293872930949643e-9 3.8365952901179014e-9 1.966217704031679e-9 3.2233405463523737e-9 6.7580738497195994e-9 6.274813761503931e-9
          1.63477360614202e-9 3.243131858821648e-9 2.7001778128540217e-9 6.45463121384391e-9 8.738908140502484e-9 8.680101183720261e-9
          9.105471868706607e-9 9.29103823310573e-9 8.478021385634419e-9 8.48721916916581e-9 8.898270455082293e-9 7.73317143117487e-9