<?xml version="1.0"?>
<VTKFile type="UnstructuredGrid" version="0.1" byte_order="LittleEndian" header_type="UInt32" compressor="vtkZLibDataCompressor">
  <UnstructuredGrid>
    <Piece NumberOfPoints="367" NumberOfCells="191">
      <PointData>
        <DataArray type="Int32" Name="libmesh_node_id" format="ascii" RangeMin="214" RangeMax="1605">
          290 291 292 293 297 298
          300 301 303 499 500 503
          504 506 507 508 509 510
          512 513 514 515 516 517
          518 524 531 532 533 534
          535 536 537 538 539 540
          541 547 548 552 554 557
          558 559 562 564 745 746
          747 748 749 750 751 752
          753 754 755 756 757 758
          759 760 815 816 817 818
          819 820 821 823 832 833
          834 835 836 837 838 839
          840 841 842 843 844 845
          846 847 848 849 850 851
          852 853 854 855 856 857
          858 859 860 861 862 863
          864 865 866 867 868 869
          870 871 872 873 874 875
          876 877 878 879 880 881
          882 883 884 885 888 890
          891 892 893 904 905 907
          908 910 912 920 921 922
          923 924 925 926 927 928
          929 940 942 944 946 1319
          1320 1321 1322 1323 1324 1325
          1453 1454 1455 1456 1457 1458
          1459 1460 1461 1462 1463 1464
          1465 1466 1467 1468 1469 1470
          1471 1472 1473 1474 1475 1476
          1477 1478 1479 1481 1486 1488
          1492 1493 1494 1495 1496 1497
          1498 1499 1500 1501 1502 1503
          1504 1505 1506 1507 1508 1509
          1510 1511 1512 1513 1514 1515
          1516 1517 1518 1519 1520 1521
          1522 1523 1524 1525 1526 1527
          1528 1529 1530 1531 1532 1533
          1534 1535 1536 1537 1538 1539
          1540 1541 1542 1543 1544 1545
          1546 1549 1551 1552 1554 1565
          1567 1569 1571 1579 1580 1583
          1585 1586 1588 1599 1601 1603
          1605 383 384 385 386 214
          278 388 389 218 294 391
          392 215 393 219 394 395
          284 396 397 398 299 399
          225 404 405 227 406 501
          502 505 511 279 489 280
          519 520 521 522 523 525
          526 527 528 530 490 491
          494 224 497 288 551 545
          553 555 556 560 550 561
          563 296 737 738 741 743
          822 886 887 889 542 894
          895 900 901 898 903 829
          906 909 911 941 943 945
          917 934 947 939 951 1480
          1547 1548 1550 930 1553 931
          1487 1566 1568 1570 1581 1582
          1584 936 1587 937 1600 1602
          1604
        </DataArray>
        <DataArray type="Float64" Name="bounds" format="ascii" RangeMin="0" RangeMax="0">
          0 0 0 0 0 0
          0 0 0 0 0 0
          0 0 0 0 0 0
          0 0 0 0 0 0
          0 0 0 0 0 0
          0 0 0 0 0 0
          0 0 0 0 0 0
          0 0 0 0 0 0
          0 0 0 0 0 0
          0 0 0 0 0 0
          0 0 0 0 0 0
          0 0 0 0 0 0
          0 0 0 0 0 0
          0 0 0 0 0 0
          0 0 0 0 0 0
          0 0 0 0 0 0
          0 0 0 0 0 0
          0 0 0 0 0 0
          0 0 0 0 0 0
          0 0 0 0 0 0
          0 0 0 0 0 0
          0 0 0 0 0 0
          0 0 0 0 0 0
          0 0 0 0 0 0
          0 0 0 0 0 0
          0 0 0 0 0 0
          0 0 0 0 0 0
          0 0 0 0 0 0
          0 0 0 0 0 0
          0 0 0 0 0 0
          0 0 0 0 0 0
          0 0 0 0 0 0
          0 0 0 0 0 0
          0 0 0 0 0 0
          0 0 0 0 0 0
          0 0 0 0 0 0
          0 0 0 0 0 0
          0 0 0 0 0 0
          0 0 0 0 0 0
          0 0 0 0 0 0
          0 0 0 0 0 0
          0 0 0 0 0 0
          0 0 0 0 0 0
          0 0 0 0 0 0
          0 0 0 0 0 0
          0 0 0 0 0 0
          0 0 0 0 0 0
          0 0 0 0 0 0
          0 0 0 0 0 0
          0 0 0 0 0 0
          0 0 0 0 0 0
          0 0 0 0 0 0
          0 0 0 0 0 0
          0 0 0 0 0 0
          0 0 0 0 0 0
          0 0 0 0 0 0
          0 0 0 0 0 0
          0 0 0 0 0 0
          0 0 0 0 0 0
          0 0 0 0 0 0
          0 0 0 0 0 0
          0
        </DataArray>
        <DataArray type="Float64" Name="gradient_error" format="ascii" RangeMin="3.4323147458118894e-9" RangeMax="5.358492926627193e-7">
          1.1833262334220548e-7 7.852228919284461e-8 2.7134027271702157e-7 2.118307933277417e-7 4.4536459613300135e-8 9.250250050474531e-8
          5.989674731399307e-9 2.8204942200803494e-7 1.4177272785213566e-7 1.464278207812968e-7 1.3321900022131732e-7 2.8518958169110577e-7
          2.518761609619811e-7 1.0921604309504407e-7 2.7980545565195e-7 2.426382397582754e-7 9.954370286319657e-8 1.694715505962615e-7
          1.5357324640967663e-7 3.934553206245619e-7 3.558277932072648e-7 2.3229515199598948e-7 2.8075288471136654e-7 9.348796609175077e-8
          8.432078055603044e-8 6.109378501442462e-8 3.237945831598754e-7 3.377474644892332e-7 1.1353806551864598e-7 1.1525551055038844e-7
          3.6682992091639784e-7 2.3972466040038236e-7 2.7823050396162337e-7 3.299989065917816e-7 1.1849398513339692e-7 4.099716145626122e-7
          8.836422524535088e-8 5.469896893426162e-9 9.117368146698703e-8 1.5841375023638392e-7 2.552174640316476e-7 6.53316404215927e-8
          9.351161012142905e-8 1.2112674067705414e-7 2.963725666965209e-7 1.0506129110034691e-7 3.4815062541054595e-8 4.2076911696390674e-8
          5.715905514749654e-8 7.242102540119212e-8 3.276668545120062e-8 4.992063308666356e-8 2.2596150073570073e-8 3.5648750887122133e-8
          4.3166581847631847e-8 3.3491317498947865e-8 1.754422292254161e-7 2.669843350040789e-7 1.0609433914388963e-7 1.4725768761373412e-7
          3.0471052946154957e-7 1.6389583689385898e-7 8.886444050785528e-8 9.686125572754051e-8 9.287902692305857e-8 1.0112503682624684e-7
          8.301397262509087e-8 1.1501152367413413e-7 1.0959164709991652e-7 9.388869328790443e-8 9.578278459698206e-8 9.239459006565577e-8
          8.625007862942281e-8 9.066213916462437e-8 1.0066473062830217e-7 9.79324798786735e-8 1.1177637442416336e-7 1.0929794999009507e-7
          9.070398710207047e-8 9.958358851081578e-8 9.874791745031932e-8 9.956263718111504e-8 1.1616151628707642e-7 9.99128057796033e-8
          6.87114693702643e-8 7.640106378926492e-8 6.930836585401372e-8 8.773835884207787e-8 6.955549549694155e-8 7.815798896056394e-8
          7.157375287356094e-8 8.21965837806623e-8 6.197984386227802e-8 7.010823284603178e-8 7.204551609571988e-8 9.214792335290783e-8
          1.0093359372989683e-7 8.484759205851982e-8 8.069025051828756e-8 8.350356841335013e-8 9.25281480826984e-8 8.160759812090781e-8
          6.851556243455706e-8 8.300215669962797e-8 5.971719386030589e-8 8.876847192671838e-8 1.0188021303981766e-7 1.1918384839150723e-7
          4.4029015591917534e-8 7.003833695673628e-8 6.239749085435673e-8 1.0232881609947876e-7 9.53464780385976e-8 9.19535462202111e-8
          9.930689660130498e-8 1.009961499463648e-7 1.124464827517691e-7 9.58691841890828e-8 1.0383076119411637e-7 1.0445693561110031e-7
          1.1584519273150824e-7 1.0027980609091152e-7 1.2537603018790192e-7 1.21708351218541e-7 1.0849085773183426e-7 1.0121639271821977e-7
          1.1805878878413658e-7 1.0246458358332643e-7 1.2956999848360502e-7 7.361810210208496e-8 8.646625329029809e-8 6.363058815405992e-8
          7.399146336610784e-8 1.0960946535391876e-7 9.514064268313459e-8 3.6930896559235836e-8 7.125445094503723e-8 9.639732823290866e-9
          3.205856654507453e-8 1.2061171429234004e-7 1.041202906581734e-7 3.4323147458118894e-9 3.897460950647044e-8 1.0998785582725788e-8
          1.0533353767997725e-7 1.2451108675315358e-7 1.1168415462304079e-7 1.2911764727698085e-7 1.1743936245796815e-7 5.970239856200888e-8
          7.211441336214496e-8 9.066435823311638e-8 1.0088414287217802e-7 4.032757105896241e-8 6.094835550656622e-8 7.336973159316513e-8
          1.0731937652589645e-8 1.1028632654718498e-8 1.1039537629009513e-8 1.1043722092992525e-8 1.1050442603300525e-8 1.1054576569547054e-8
          1.0918062785200745e-8 1.0781549000854437e-8 1.1104187917811846e-8 1.007706899108129e-8 1.0617868679832298e-8 8.259569652426798e-9
          9.765132843043537e-9 1.1158668368583309e-8 1.1270696033660277e-8 9.12550532744408e-9 1.0196199730655087e-8 8.48654359309455e-9
          1.1266894133866093e-8 1.6906295216801654e-8 1.802131274888896e-8 1.7828007111631254e-8 1.942652976272131e-8 1.763470147437355e-8
          2.0329179224353528e-8 2.0531691299836507e-8 2.0795538081139845e-8 2.1478248533853763e-8 2.141657768130311e-8 2.0936043157341876e-8
          1.6178399276077147e-8 1.6280750071853267e-8 1.6383100867629384e-8 9.553977549148746e-9 1.0498598820486383e-8 1.1729511180526823e-8
          1.1443220091824022e-8 1.60070975145873e-8 1.6513599800659802e-8 1.594919163051773e-8 1.6997016377318647e-8 1.70201020867323e-8
          1.9029040158651204e-8 1.038911345959761e-8 1.195963701342293e-8 1.1503159142980839e-8 1.4717429870162869e-8 1.7063774772914878e-8
          2.0720430319127972e-8 2.0443422410541453e-8 1.77210182729283e-8 1.9617805445386316e-8 1.8350068069864492e-8 6.899511278548843e-9
          8.846940550454334e-9 5.8254016275728e-9 7.980157746991373e-9 1.0794369822359826e-8 1.2256952800241012e-8 4.245045007948939e-9
          7.195282280422285e-9 6.193651186644949e-9 1.014551955289563e-8 5.297551976586075e-9 7.21035569334617e-9 6.116162928639399e-9
          7.45772872285232e-9 1.2696450133740465e-8 1.2395230378750387e-8 3.809759314262572e-9 5.700629849534823e-9 6.476642151658945e-9
          1.1519506811782152e-8 1.70579416639612e-8 1.761485266001925e-8 1.705210855500752e-8 1.743805623722723e-8 1.8201117937935957e-8
          1.8606371617079788e-8 2.0411069635436377e-8 1.715509420152616e-8 1.7531368414743646e-8 1.8862675164295084e-8 1.6397299651220186e-8
          1.7584979455186448e-8 2.0191863026483837e-8 1.0293130767375606e-8 1.1928367625103205e-8 1.651910685967775e-8 2.1585055716318927e-8
          2.155904463882288e-8 2.080847753887071e-8 2.2142345841216734e-8 7.852170903679003e-9 8.847283491809407e-9 1.2951781371329325e-8
          7.380988275210658e-9 8.212252562645452e-9 1.1770826542417063e-8 1.9093882924726688e-8 2.2126599186734536e-8 1.832434452304669e-8
          2.2150552811339495e-8 1.0491196213423286e-7 5.955677455248539e-8 4.38303238697363e-8 7.753381201076742e-8 1.774365583282465e-7
          2.2921035291583757e-7 2.9781229755255595e-8 2.0984670618150103e-8 6.045945457633745e-8 6.903905169301047e-8 2.8103873186987215e-8
          5.015566188730197e-8 2.0009376105177613e-7 1.2188111481044617e-8 5.487864109739541e-8 3.4878880417308595e-8 6.238679822924792e-8
          2.5017762766606965e-7 5.569724134434066e-8 9.766942956035161e-8 1.529385570744423e-8 7.586407988495063e-8 2.674597186816773e-8
          2.115966481547418e-7 7.65156022713727e-8 1.329520608914553e-7 7.274351795000322e-8 3.819808802889122e-8 1.527516384856743e-7
          2.8298667505703907e-7 2.529704191220186e-7 1.9143562684172908e-7 4.91184542276686e-7 4.5707902560328204e-7 4.25089754122563e-7
          2.609574654211305e-7 2.216892633822919e-7 6.043770566333215e-8 2.252213690309597e-7 1.873645888814173e-7 1.3054521037566213e-7
          1.2178852204604304e-7 2.765195901208328e-7 2.2881518872708649e-7 1.8923299569734668e-7 5.024445864281746e-7 5.358492926627193e-7
          4.695637136242165e-7 4.2450568088319726e-7 5.107297338772374e-7 5.102908457398656e-7 1.3354453964156016e-7 2.3262004793849e-7
          2.2979742603284125e-7 1.22778386247773e-7 1.8971694809407802e-7 6.695308755491634e-8 2.8231990678338465e-7 2.7200882053650063e-7
          2.2880360717755978e-7 1.7758656592499193e-7 1.9961624909331154e-7 2.689533699742321e-7 1.680333115972953e-7 3.0330930249960247e-7
          1.177578304037117e-7 1.4097965970177534e-7 1.3550083439591095e-7 1.1749480886016062e-7 1.2664855981381306e-7 1.5777987318731286e-7
          1.4999132492273172e-7 1.0199674172040394e-7 9.932790717043873e-8 1.260581808732948e-7 1.2296734264660146e-7 7.498519728735309e-8
          9.008126951353734e-8 7.519493039679995e-8 1.1810067168264895e-7 1.3738256917632852e-7 1.1866794403285147e-7 1.4374113672708073e-7
          1.2579828245251882e-7 1.0046338357675809e-7 1.5018299221756215e-7 1.0457019462453953e-7 1.5864785342966906e-7 2.2162502938370636e-8
          1.730829617337438e-8 1.8507323730573734e-8 2.1378797135197656e-8 1.175095683732089e-8 1.3112187179439002e-8 1.7295422654904076e-8
          2.3468971058572425e-8 2.3355710317341388e-8 2.3660177652060556e-8 2.2174342081433864e-8 9.83846003264379e-9 1.0820390525612745e-8
          1.4240324974848738e-8 9.153648814233058e-9 1.026855121512432e-8 1.3324107684244833e-8 2.0353740686776737e-8 2.4029152442437693e-8
          1.9601246786796094e-8
        </DataArray>
        <DataArray type="Float64" Name="gradient_matprop_error" format="ascii" RangeMin="0" RangeMax="0">
          0 0 0 0 0 0
          0 0 0 0 0 0
          0 0 0 0 0 0
          0 0 0 0 0 0
          0 0 0 0 0 0
          0 0 0 0 0 0
          0 0 0 0 0 0
          0 0 0 0 0 0
          0 0 0 0 0 0
          0 0 0 0 0 0
          0 0 0 0 0 0
          0 0 0 0 0 0
          0 0 0 0 0 0
          0 0 0 0 0 0
          0 0 0 0 0 0
          0 0 0 0 0 0
          0 0 0 0 0 0
          0 0 0 0 0 0
          0 0 0 0 0 0
          0 0 0 0 0 0
          0 0 0 0 0 0
          0 0 0 0 0 0
          0 0 0 0 0 0
          0 0 0 0 0 0
          0 0 0 0 0 0
          0 0 0 0 0 0
          0 0 0 0 0 0
          0 0 0 0 0 0
          0 0 0 0 0 0
          0 0 0 0 0 0
          0 0 0 0 0 0
          0 0 0 0 0 0
          0 0 0 0 0 0
          0 0 0 0 0 0
          0 0 0 0 0 0
          0 0 0 0 0 0
          0 0 0 0 0 0
          0 0 0 0 0 0
          0 0 0 0 0 0
          0 0 0 0 0 0
          0 0 0 0 0 0
          0 0 0 0 0 0
          0 0 0 0 0 0
          0 0 0 0 0 0
          0 0 0 0 0 0
          0 0 0 0 0 0
          0 0 0 0 0 0
          0 0 0 0 0 0
          0 0 0 0 0 0
          0 0 0 0 0 0
          0 0 0 0 0 0
          0 0 0 0 0 0
          0 0 0 0 0 0
          0 0 0 0 0 0
          0 0 0 0 0 0
          0 0 0 0 0 0
          0 0 0 0 0 0
          0 0 0 0 0 0
          0 0 0 0 0 0
          0 0 0 0 0 0
          0 0 0 0 0 0
          0
        </DataArray>
        <DataArray type="Float64" Name="initial_marker" format="ascii" RangeMin="0" RangeMax="2">
          0 0 2 0 0 0
          2 1.5 0 0 0 1
          0.5 0 1 0.5 0 0
          0 2 1.5 1.5 0.25 0
          0 0 2 2 2 2
          1 1.25 2 2 2 1
          2 2 2 0 0.25 0
          0 0 0.5 0 0 0
          0 0 0 0 0 0
          0 0 0 0 0 0
          0 0 2 2 2 2
          2 2 2 2 2 2
          2 2 2 2 2 2
          2 2 2 2 2 2
          1 1.5 1 2 1 1.5
          1 1.5 0 1 1 2
          2 2 2 2 2 2
          2 2 2 2 2 2
          2 2 2 2 2 2
          2 2 2 2 2 2
          2 2 2 2 2 2
          2 2 2 1.5 1.75 1
          1.5 2 2 2 2 2
          2 2 2 2 2 2
          2 2 2 2 2 0
          0 0 0 0 0 0
          2 2 2 2 2 2
          2 2 2 2 2 2
          2 2 2 2 2 2
          2 2 2 2 2 2
          2 2 2 2 2 2
          2 2 2 2 2 2
          2 2 2 2 2 2
          2 2 2 2 2 2
          2 2 2 2 2 2
          2 2 2 2 2 2
          2 2 2 2 2 2
          2 2 2 2 2 2
          2 2 2 2 2 2
          2 2 2 2 2 2
          2 2 2 2 2 2
          2 2 2 2 2 2
          2 2 2 2 2 2
          2 0 0 0 0 0
          0 0 0 0 0 0
          0 0 0 0 0 0
          0 0 0 0 0 0
          0 0 0 0 0 0
          0.5 0.25 0 1.5 1.25 0.5
          1 0.75 0 1 1 0.25
          0.6666666666666666 2 1.75 0.75 2 2
          1 2 2 1 0 1.5
          0.5 0 0.5 0 2 1
          1 1 0 0 0 0
          2 2 2 2 2 2
          2 2 2 2 2 2
          2 2 2 2 2 2
          2 2 2 2 2 2
          2 2 2 2 2 2
          2 2 2 2 2 2
          2 2 2 2 2 2
          2
        </DataArray>
        <DataArray type="Float64" Name="markers_norefine" format="ascii" RangeMin="0" RangeMax="2">
          0 0 0 0 0 0
          2 0 0 0 0 0
          0 0 0 0 0 0
          0 0 0 0 0 0
          0 0 0 0 0 0
          0 0 0 0 0 0
          0 2 0 0 0 0
          0 0 0 0 0 0
          0 0 0 0 0 0
          0 0 0 0 0 0
          0 0 0 0 0 0
          0 0 0 0 0 0
          0 0 0 0 0 0
          0 0 0 0 0 0
          0 0 0 0 0 0
          0 0 0 0 0 0
          0 0 0 0 0 0
          0 0 0.5 0 0 0
          0 0 0.5 0 0 0
          0 0 0 0 0 0
          0 0 0 0 0 0
          0 0 0 0 0 0
          0 0 0 1.5 0.5 2
          1.5 0 0 2 1.5 2
          0 0 0 0 0 0
          0 0 0 0 0 0
          0 0 0 0.5 0 0
          0 0 0 0.5 0.25 1.5
          1 0 0.5 1 0.5 1.5
          0 0 0 0 0 0
          0 1 0.5 0 0 0
          1 0.5 0 2 1.5 1.6666666666666667
          1 1 0.75 1 1 0.5
          0.6666666666666666 2 1.75 2 1.3333333333333333 0
          0 0 0.5 0.6666666666666666 0 2
          1.75 2 2 1.5 1.6666666666666667 2
          2 2 2 2 2 2
          2 1.75 2 2 2 2
          2 0.5 0 1 0.75 1
          0 0 1 1 0 1.5
          1.25 0.75 2 2 1.75 0.25
          0 0.75 0 2 2 2
          2 2 2 1 0 1
          0 0 0 0 0 0
          0 0 0 0 0 0
          0 0 0 0 0 0
          0 0 0 0 0 0
          0 0 0 0 0 0
          0 0 0 0 0 0
          0 0 0 0 0 0
          0 0 0 0 0 0
          0 0 0 0 0 0
          0 0 0 0 0 0
          0 0 0 0 0 0
          0 0 0 0 0 0
          0 1 0.25 0 0 0
          0 0 0 0 0 0
          0 0 0 0.5 0 1.5
          2 1.75 1.25 2 2 2
          0 0.5 0 1 2 2
          2 2 2 2 1.25 0.5
          1.5
        </DataArray>
        <DataArray type="Float64" Name="markers_mustrefine" format="ascii" RangeMin="0" RangeMax="2">
          0 0 2 0 0 0
          2 1.5 0 0 0 1
          0.5 0 1 0.5 0 0
          0 2 1.5 1.5 0.25 0
          0 0 2 2 2 2
          1 1.25 2 2 2 1
          2 2 2 0 0.25 0
          0 0 0.5 0 0 0
          0 0 0 0 0 0
          0 0 0 0 0 0
          0 0 2 2 2 2
          2 2 2 2 2 2
          2 2 2 2 2 2
          2 2 2 2 2 2
          1 1.5 1 2 1 1.5
          1 1.5 0 1 1 2
          2 2 2 2 2 2
          2 2 2 2 2 2
          2 2 2 2 2 2
          2 2 2 2 2 2
          2 2 2 2 2 2
          2 2 2 1.5 1.75 1
          1.5 2 2 2 2 2
          2 2 2 2 2 2
          2 2 2 2 2 0
          0 0 0 0 0 0
          2 2 2 2 2 2
          2 2 2 2 2 2
          2 2 2 2 2 2
          2 2 2 2 2 2
          2 2 2 2 2 2
          2 2 2 2 2 2
          2 2 2 2 2 2
          2 2 2 2 2 2
          2 2 2 2 2 2
          2 2 2 2 2 2
          2 2 2 2 2 2
          2 2 2 2 2 2
          2 2 2 2 2 2
          2 2 2 2 2 2
          2 2 2 2 2 2
          2 2 2 2 2 2
          2 2 2 2 2 2
          2 0 0 0 0 0
          0 0 0 0 0 0
          0 0 0 0 0 0
          0 0 0 0 0 0
          0 0 0 0 0 0
          0.5 0.25 0 1.5 1.25 0.5
          1 0.75 0 1 1 0.25
          0.6666666666666666 2 1.75 0.75 2 2
          1 2 2 1 0 1.5
          0.5 0 0.5 0 2 1
          1 1 0 0 0 0
          2 2 2 2 2 2
          2 2 2 2 2 2
          2 2 2 2 2 2
          2 2 2 2 2 2
          2 2 2 2 2 2
          2 2 2 2 2 2
          2 2 2 2 2 2
          2
        </DataArray>
        <DataArray type="Float64" Name="gradient_marker" format="ascii" RangeMin="0" RangeMax="1">
          1 0.625 1 0.75 0.6666666666666666 0.625
          0 1 1 1 1 1
          1 0.75 1 0.875 0.5 0.75
          0.625 0.75 0.75 0.625 0.875 0.5
          0.25 0 0.5 0.5 1 1
          0.75 0.625 0.5 0.75 1 0.75
          0.5 0 0.5 0.625 0.875 0
          0.25 0.75 1 0.5 0 0
          0.125 0.25 0 0 0 0
          0 0 0.75 1 0.5 1
          1 1 0 0.5 0.25 0.75
          0 1 1 0.5 0 0
          0 0 0.5 0.375 1 0.875
          0.25 0.625 0.5 0.5 1 0.5
          0 0 0 0 0 0.125
          0 0.25 0 0 0 0.25
          0.625 0 0 0 0.25 0
          0.25 0.375 0.5 0.75 0.625 1
          0 0.25 0.5 0.75 0.25 0
          0.5 0.5 0.875 0.25 0.75 0.75
          1 0.5 1 1 0.75 0.75
          0.875 0.625 1 0 0.25 0
          0 0.75 0.5 0.25 0.5 0
          0.125 0.875 0.625 0 0.25 0
          0.75 1 1 1 1 0
          0 0.25 0.25 0 0 0
          0 0 0 0 0 0
          0 0 0 0 0 0
          0 0 0 0 0 0
          0 0 0 0 0 0
          0 0 0 0 0 0
          0 0 0 0 0 0
          0 0 0 0 0 0
          0 0 0 0 0 0
          0 0 0 0 0 0
          0 0 0 0 0 0
          0 0 0 0 0 0
          0 0 0 0 0 0
          0 0 0 0 0 0
          0 0 0 0 0 0
          0 0 0 0 0 0
          0 0 0 0 0 0
          0 0 0 0 0 0
          0 1 1 1 1 1
          0.875 1 1 0.5 0.625 1
          1 0.875 1 0.875 1 1
          0.875 1 1 1 0.625 1
          1 1 1 0.5 1 1
          1 1 0.8333333333333334 1 1 1
          0.75 0.625 0 0.5 0.5 0.375
          0.3333333333333333 1 0.75 0.625 1 1
          1 1 1 1 0.375 0.75
          0.625 0.3333333333333333 0.5 0 1 0.75
          0.5 0.625 0.8333333333333334 1 1 1
          1 1 1 0.75 0.875 1
          1 0.5 0.5 0.75 0.75 0
          0.25 0 0.75 1 1 1
          0.75 0.5 1 0.5 1 0
          0 0 0 0 0 0
          0 0 0 0 0 0
          0 0 0 0 0 0
          0
        </DataArray>
        <DataArray type="Float64" Name="gradient_matprop_marker" format="ascii" RangeMin="0" RangeMax="0">
          0 0 0 0 0 0
          0 0 0 0 0 0
          0 0 0 0 0 0
          0 0 0 0 0 0
          0 0 0 0 0 0
          0 0 0 0 0 0
          0 0 0 0 0 0
          0 0 0 0 0 0
          0 0 0 0 0 0
          0 0 0 0 0 0
          0 0 0 0 0 0
          0 0 0 0 0 0
          0 0 0 0 0 0
          0 0 0 0 0 0
          0 0 0 0 0 0
          0 0 0 0 0 0
          0 0 0 0 0 0
          0 0 0 0 0 0
          0 0 0 0 0 0
          0 0 0 0 0 0
          0 0 0 0 0 0
          0 0 0 0 0 0
          0 0 0 0 0 0
          0 0 0 0 0 0
          0 0 0 0 0 0
          0 0 0 0 0 0
          0 0 0 0 0 0
          0 0 0 0 0 0
          0 0 0 0 0 0
          0 0 0 0 0 0
          0 0 0 0 0 0
          0 0 0 0 0 0
          0 0 0 0 0 0
          0 0 0 0 0 0
          0 0 0 0 0 0
          0 0 0 0 0 0
          0 0 0 0 0 0
          0 0 0 0 0 0
          0 0 0 0 0 0
          0 0 0 0 0 0
          0 0 0 0 0 0
          0 0 0 0 0 0
          0 0 0 0 0 0
          0 0 0 0 0 0
          0 0 0 0 0 0
          0 0 0 0 0 0
          0 0 0 0 0 0
          0 0 0 0 0 0
          0 0 0 0 0 0
          0 0 0 0 0 0
          0 0 0 0 0 0
          0 0 0 0 0 0
          0 0 0 0 0 0
          0 0 0 0 0 0
          0 0 0 0 0 0
          0 0 0 0 0 0
          0 0 0 0 0 0
          0 0 0 0 0 0
          0 0 0 0 0 0
          0 0 0 0 0 0
          0 0 0 0 0 0
          0
        </DataArray>
        <DataArray type="Float64" Name="combo" format="ascii" RangeMin="0" RangeMax="2">
          1 0.625 1 0.75 0.6666666666666666 0.625
          2 1 1 1 1 1
          1 0.75 1 0.875 0.5 0.75
          0.625 0.75 0.75 0.625 0.875 0.5
          0.25 0 0.5 0.5 1 1
          0.75 0.625 0.5 0.75 1 0.75
          0.5 2 0.5 0.625 0.875 0
          0.25 0.75 1 0.5 0 0
          0.125 0.25 0 0 0 0
          0 0 0.75 1 0.5 1
          1 1 0 0.5 0.25 0.75
          0 1 1 0.5 0 0
          0 0 0.5 0.375 1 0.875
          0.25 0.625 0.5 0.5 1 0.5
          0 0 0 0 0 0.125
          0 0.25 0 0 0 0.25
          0.625 0 0 0 0.25 0
          0.25 0.375 1 0.75 0.625 1
          0 0.25 1 0.75 0.25 0
          0.5 0.5 0.875 0.25 0.75 0.75
          1 0.5 1 1 0.75 0.75
          0.875 0.625 1 0 0.25 0
          0 0.75 0.5 1.75 1 2
          1.625 0.875 0.625 2 1.75 2
          0.75 1 1 1 1 0
          0 0.25 0.25 0 0 0
          0 0 0 0.5 0 0
          0 0 0 0.5 0.25 1.5
          1 0 0.5 1 0.5 1.5
          0 0 0 0 0 0
          0 1 0.5 0 0 0
          1 0.5 0 2 1.5 1.6666666666666667
          1 1 0.75 1 1 0.5
          0.6666666666666666 2 1.75 2 1.3333333333333333 0
          0 0 0.5 0.6666666666666666 0 2
          1.75 2 2 1.5 1.6666666666666667 2
          2 2 2 2 2 2
          2 1.75 2 2 2 2
          2 0.5 0 1 0.75 1
          0 0 1 1 0 1.5
          1.25 0.75 2 2 1.75 0.25
          0 0.75 0 2 2 2
          2 2 2 1 0 1
          0 1 1 1 1 1
          0.875 1 1 0.5 0.625 1
          1 0.875 1 0.875 1 1
          0.875 1 1 1 0.625 1
          1 1 1 0.5 1 1
          1 1 0.8333333333333334 1 1 1
          0.75 0.625 0 0.5 0.5 0.375
          0.3333333333333333 1 0.75 0.625 1 1
          1 1 1 1 0.375 0.75
          0.625 0.3333333333333333 0.5 0 1 0.75
          0.5 0.625 0.8333333333333334 1 1 1
          1 1 1 0.75 0.875 1
          1 1.5 0.75 0.75 0.75 0
          0.25 0 0.75 1 1 1
          0.75 0.5 1 1 1 1.5
          2 1.75 1.25 2 2 2
          0 0.5 0 1 2 2
          2 2 2 2 1.25 0.5
          1.5
        </DataArray>
        <DataArray type="Float64" Name="dHdT" format="ascii" RangeMin="25.830692770340065" RangeMax="136.30358775151856">
          26.37763107693714 26.157064632033318 33.50455051870036 28.693779499887846 25.929820936348012 26.194144644886848
          109.70380364922651 33.57487278063718 26.45596996451658 27.053141470071594 26.90226466823353 28.94054690315729
          28.40998021627583 26.669279361831887 28.61004000851599 28.08871061085047 26.576704946421415 27.385709624741573
          27.10959983950482 33.61591616015995 32.37259787662693 32.01782658098968 29.44136611480899 26.53974239267153
          26.448568448437012 26.250480152868814 36.86290059611582 36.51552653667298 40.66633082168024 37.55919372575537
          32.491464613898124 32.10167367633594 37.61481309878555 36.86363607029349 40.681663265529664 33.75417535249878
          45.880386034661484 52.9140209529606 44.03367738007074 27.1517218098724 28.199983965957433 26.28409907392576
          26.5168962147456 26.761962091892485 28.76130393183124 26.62675308199458 26.051666092965725 26.128638264243744
          26.26106395949591 26.396708941952458 26.019032953102368 26.200314126924845 25.959766384396303 26.060462592375597
          26.14159941808021 26.025988165218408 27.44159598033361 28.56394666733975 26.636333880189575 27.019517235215446
          29.153163818124952 27.20130218454689 36.38895768335249 36.76689106672973 36.316341504271456 36.13023157019659
          34.75104385507222 36.33566147234347 35.87327353074606 34.23102013748198 37.09759429309189 36.97895806318512
          36.13913248550753 37.17974189505645 37.03587033327626 36.89875146891822 36.92413431317105 36.7479769838087
          36.02979096697601 35.80672657169005 37.94789310698823 37.60835950298027 39.355707048118404 37.282222508603574
          32.319957193761766 33.89266678170727 32.36739042567783 36.18153088024995 32.19448805548995 33.76612647619763
          31.91886159991197 33.49248333922646 30.752680342648652 32.23430362300343 31.943333189519173 36.06201574816797
          35.81932284480183 34.828412378101135 37.43712675545298 37.116978491942064 37.17582262458008 37.44343163678896
          38.66252972808063 38.06584672759045 56.18941586616994 43.48060458130022 37.61282236327977 39.35705443788531
          42.387514885158396 38.69025517277839 55.57418022710351 37.969737788232194 36.9997351962358 36.444655371742584
          37.101785001624464 36.910839692518195 36.740130938419824 36.348846920610434 36.12092420908145 37.03541278560574
          36.907721265776935 36.75679598837681 36.87399602680045 36.62757811274301 35.55981730852404 40.41529458277825
          39.62317474024089 39.998267818719114 38.00392333636744 31.581006327275762 33.16392238918874 30.110857968736227
          31.589370360014975 35.550455495845185 34.23129011812297 85.57314156488773 55.349934743020675 86.84204624123774
          71.18971416154672 39.58086718904094 39.35248938053371 126.28032328144127 81.63074949519402 86.79745488727553
          40.21035269001787 36.57827373913853 35.825545890223474 36.80247493768842 36.25639429549474 26.245364859958435
          26.31775242425846 26.576913652035554 26.682223212233154 26.08870769346951 26.261821583982332 26.335381351337034
          38.9076874254933 46.86360715565458 43.65329439284369 57.72612445336067 40.44298163003282 43.12837653871074
          41.02850273706176 38.92862893541277 43.14931804863021 56.21747852904772 49.976460396843066 89.00645300708453
          73.05413115609119 43.73544226463841 57.101809305097845 65.57134990244086 56.299626400842435 88.38213785882171
          47.02790289924401 38.38359753673222 44.59638854274719 42.028597699048404 48.10616054258777 39.46080685534962
          37.08031685452485 58.03974824055585 53.63339483316226 44.12614550322729 37.85079298250884 36.67633638433175
          54.11702054305516 50.395496874704435 46.673973206353715 93.65147070361945 76.63063607140481 84.17975068122807
          59.60980143919018 60.92786702878563 55.70371782498704 70.03265127899937 63.80085070129947 50.479568621188456
          53.330190059539724 95.63028265895639 86.58493122531331 85.71444378453677 71.59201701789759 46.161137359624064
          40.93376315787805 37.01505638433609 49.11519394662686 51.85092942930643 38.533496422901436 114.97752922756901
          94.85168338637271 119.44463331176134 105.824943893827 74.7258375451764 81.40303334966474 136.30358775151856
          113.0727307013406 116.58395987215017 89.84187365116263 100.89106505951611 101.85753251577466 69.47885944401692
          82.42896691718352 84.29959795854577 85.02323442199113 87.78091031594349 99.92404053184833 72.92458712530467
          91.96033558375879 48.8943514089316 37.99011172065425 51.62756545823915 53.08060669518232 60.22797551029968
          40.38601744530629 45.788556566967245 57.04601944373776 65.07316160725532 42.23853846771114 73.61517150647653
          68.23350390848141 55.19753022243556 72.22533708443922 77.10875859706537 73.43254022138093 42.50136277940586
          37.45950142442688 53.82039006732879 42.76787980158723 50.34723460795128 62.769741243455655 76.6293382973167
          45.43438981942133 54.15557827658115 72.66251109351536 64.24313850949852 50.4198483033237 67.99742946064235
          53.54660346799496 25.948991365744817 25.886859974903615 25.86915804653689 25.916941922350873 26.685271220486996
          26.429890693866895 25.847570189604554 25.83913147997231 26.09302023486501 25.998848248790924 25.85145611817016
          25.88489247895693 26.073086278943393 25.830692770340065 25.876762970933452 25.859497725853714 25.898902722367797