<?xml version="1.0"?>
<VTKFile type="UnstructuredGrid" version="0.1" byte_order="LittleEndian" header_type="UInt32" compressor="vtkZLibDataCompressor">
  <UnstructuredGrid>
    <Piece NumberOfPoints="367" NumberOfCells="188">
      <PointData>
        <DataArray type="Int32" Name="libmesh_node_id" format="ascii" RangeMin="239" RangeMax="2677">
          310 1017 1018 1019 1022 1107
          1108 1110 1118 1119 1120 1121
          1122 1135 1136 1141 1142 1235
          1236 1357 1358 1359 1360 1361
          1362 1363 1368 1369 1419 1420
          1423 1424 1981 1982 1984 1987
          1989 1990 1993 1995 1996 1998
          2000 2002 2004 2006 2008 2010
          2012 2058 2060 2062 2064 2066
          2068 2070 2071 2072 2073 2074
          2075 2076 2077 2079 2080 2081
          2082 2083 2084 2085 2086 2087
          2088 2089 2090 2092 2094 2096
          2098 2100 2101 2102 2106 2107
          2108 2110 2112 2113 2114 2115
          2189 2190 2192 2195 2197 2198
          2201 2203 2204 2206 2208 2210
          2214 2216 2223 2224 2226 2229
          2231 2232 2235 2237 2238 2240
          2637 2638 2639 2640 2641 2642
          2643 2644 2645 2646 2663 2664
          2668 2672 2673 623 625 313
          627 624 626 629 628 587
          588 767 765 592 781 785
          782 786 1005 1013 1006 1014
          1009 1015 1016 1011 1020 1021
          1231 1233 646 1232 1234 1237
          641 1327 1352 1114 1353 1356
          607 1124 1173 1165 608 1175
          1177 1364 1365 1366 1367 1370
          1421 1422 1425 1240 1426 651
          1427 1428 1709 1711 1714 1713
          1715 1716 1717 1951 1101 1953
          1952 1979 1980 1102 1954 1983
          1985 1986 1988 1961 1962 1103
          1963 1991 1992 1964 1104 1994
          605 1997 1109 1970 1969 1999
          1105 1971 2001 2003 2005 1976
          1977 2007 1978 1106 2009 2011
          606 1683 1002 1967 1968 2057
          2059 2061 2063 1693 1725 1974
          591 1726 1975 2065 1727 2067
          2069 2029 2019 2030 2033 1112
          2078 2035 2091 2093 2095 2097
          2099 2103 2104 1123 2105 2051
          2053 2109 2055 2111 2116 2117
          2118 2187 2188 2191 2193 2194
          2196 2199 2200 2202 1137 2205
          1138 2207 2209 2212 2211 1139
          2213 2215 2217 2218 2219 2220
          1140 2221 2222 2225 2227 2228
          2230 2233 2234 2236 239 2239
          1143 2242 2241 2246 2245 2248
          2249 2252 2253 2296 2295 2298
          2297 2300 2299 2302 2303 2304
          2305 2306 2307 2310 2309 2312
          2311 2316 2318 2618 2622 2624
          2626 2621 2623 2647 2649 2527
          2531 2651 2653 2661 2650 2662
          2665 2667 2666 2636 2656 2669
          2670 2657 2671 2674 2675 2677
          2676
        </DataArray>
        <DataArray type="Float64" Name="bounds" format="ascii" RangeMin="0" RangeMax="0">
          0 0 0 0 0 0
          0 0 0 0 0 0
          0 0 0 0 0 0
          0 0 0 0 0 0
          0 0 0 0 0 0
          0 0 0 0 0 0
          0 0 0 0 0 0
          0 0 0 0 0 0
          0 0 0 0 0 0
          0 0 0 0 0 0
          0 0 0 0 0 0
          0 0 0 0 0 0
          0 0 0 0 0 0
          0 0 0 0 0 0
          0 0 0 0 0 0
          0 0 0 0 0 0
          0 0 0 0 0 0
          0 0 0 0 0 0
          0 0 0 0 0 0
          0 0 0 0 0 0
          0 0 0 0 0 0
          0 0 0 0 0 0
          0 0 0 0 0 0
          0 0 0 0 0 0
          0 0 0 0 0 0
          0 0 0 0 0 0
          0 0 0 0 0 0
          0 0 0 0 0 0
          0 0 0 0 0 0
          0 0 0 0 0 0
          0 0 0 0 0 0
          0 0 0 0 0 0
          0 0 0 0 0 0
          0 0 0 0 0 0
          0 0 0 0 0 0
          0 0 0 0 0 0
          0 0 0 0 0 0
          0 0 0 0 0 0
          0 0 0 0 0 0
          0 0 0 0 0 0
          0 0 0 0 0 0
          0 0 0 0 0 0
          0 0 0 0 0 0
          0 0 0 0 0 0
          0 0 0 0 0 0
          0 0 0 0 0 0
          0 0 0 0 0 0
          0 0 0 0 0 0
          0 0 0 0 0 0
          0 0 0 0 0 0
          0 0 0 0 0 0
          0 0 0 0 0 0
          0 0 0 0 0 0
          0 0 0 0 0 0
          0 0 0 0 0 0
          0 0 0 0 0 0
          0 0 0 0 0 0
          0 0 0 0 0 0
          0 0 0 0 0 0
          0 0 0 0 0 0
          0 0 0 0 0 0
          0
        </DataArray>
        <DataArray type="Float64" Name="gradient_error" format="ascii" RangeMin="8.460101561787685e-11" RangeMax="4.249969482292846e-8">
          1.994040803697678e-9 1.2549083419817279e-9 1.8684549653047315e-9 9.156033305815725e-10 1.7970528016248637e-9 2.3121085709779497e-8
          1.8804655774898766e-8 9.293447857842253e-9 1.6338789328845156e-9 7.82691388054337e-10 2.101642837578701e-9 9.937110095484442e-10
          3.367906182297691e-9 3.432106533869491e-8 3.2212753735728427e-8 3.201908068723029e-8 3.726783065462788e-8 4.815409102136783e-10
          5.163844448825963e-10 1.923698370051803e-9 2.495528576362355e-9 9.73974768025501e-10 1.208091134979481e-9 1.3292917433470126e-9
          1.5256673866725648e-9 7.745878681903079e-10 3.006802388417779e-10 4.0420068774724844e-10 4.3776134463080333e-10 5.518663597633505e-10
          3.32396274351231e-10 3.716725410698636e-10 1.544465336060465e-8 1.4643903215272016e-8 1.2372974795939522e-8 2.206646367154902e-8
          1.1831137541999405e-8 1.117062635269201e-8 9.333542372773056e-9 1.7971211008807674e-8 1.7108995565565063e-8 1.4461793805530815e-8
          9.264008533739e-9 6.27329401904868e-9 1.4013450046265612e-8 6.883188825181394e-9 4.583909514879462e-9 1.0615467700882654e-8
          6.899796127160415e-9 1.6084732613545678e-9 1.0468640238662219e-9 2.594719908245779e-9 1.1287205092214208e-9 7.269655107786539e-10
          1.8403627962118295e-9 1.1448794123390808e-9 7.309061657017885e-10 9.354052424614369e-10 5.032345040551321e-10 6.487075487825422e-10
          5.709410717372389e-10 7.127438463873306e-10 4.90685717677999e-10 9.915070526628908e-10 1.0558593129874682e-9 3.58245803471616e-10
          4.5356281318390187e-10 2.5038633217522527e-10 3.123179311467962e-10 2.9118807420259294e-10 3.48944285921284e-10 2.4456055143068694e-10
          6.859655234445203e-10 4.673998604820488e-10 5.055254153370109e-10 3.975067243322865e-9 2.4169702158219595e-9 5.710693261034652e-9
          2.8563886270182945e-9 1.7100712174267027e-9 1.1761369014337893e-9 4.154370789165645e-9 1.427678629120192e-9 1.4859917834118498e-9
          1.050183820683175e-9 1.938019319543407e-9 9.939562096769471e-10 6.781588387992941e-10 7.221362769794422e-10 4.908279391870158e-10
          3.054067847965017e-8 2.9678683996939335e-8 2.5926365928175326e-8 3.477668867520363e-8 2.4088477320878448e-8 2.3251899524264144e-8
          2.0098586320631786e-8 2.8563182150177073e-8 2.8213328937027708e-8 2.5199899473977702e-8 1.9373511105791836e-8 1.2678214817237089e-8
          1.4859629275795773e-8 9.544238011246486e-9 3.340148137138686e-8 3.5966801651848326e-8 3.607904428950953e-8 3.567243092040421e-8
          3.028430308802007e-8 3.0869105953887755e-8 2.870803793497608e-8 3.041830121522026e-8 3.1533699379463544e-8 2.9936520529329144e-8
          1.5616204820201232e-10 2.0047920718908323e-10 1.2350011621689937e-10 1.5732103750600699e-10 1.2350595530646033e-10 1.545813694693031e-10
          1.2401098812410878e-10 3.0967529140103987e-10 2.2439252693188176e-10 2.3017974181085108e-10 3.247244511670614e-10 2.1250874170481355e-10
          1.4986062324555983e-10 1.1471979386998414e-10 1.3450656845617886e-10 9.61896049569089e-9 3.0263495198516174e-9 4.703004135206102e-9
          9.816760629428261e-9 8.116784643955532e-9 2.612808043635421e-9 4.279848349365198e-9 1.1934192986521841e-8 9.44165631967935e-9
          2.9803675489050777e-9 2.882220637395055e-9 9.32279024008857e-9 6.846615018554212e-9 8.306041140003856e-10 9.125758275105669e-10
          7.173771886291791e-10 1.1972720808133083e-9 3.203807784105416e-9 1.515404695893457e-9 3.09766997332003e-9 1.469898673721166e-9
          3.868295644783491e-9 7.333649120201587e-10 8.589657811087948e-10 2.4245560455979997e-9 1.1630806481995147e-9 6.930809799054242e-10
          5.243986741825753e-10 3.0764402410909326e-10 5.776459834988285e-10 4.0121271322879445e-10 2.3058117581213865e-10 3.0395226550675295e-10
          8.094043085300567e-10 8.250979335891508e-10 3.727265294848677e-9 4.2589210465768015e-9 5.014217690038234e-9 3.0311324634500093e-9
          4.080841721686018e-9 2.0172883526955244e-9 2.2431734238093373e-9 4.7011125639311e-9 1.1308494364164072e-9 1.25156962159404e-9
          2.000336181729773e-9 3.387741896956016e-10 5.400895967776966e-10 1.8235882528224185e-10 2.574094687514998e-10 2.1039954845679456e-10
          2.1243087778544446e-10 2.603434050469423e-10 1.937627207711483e-10 7.079829793718131e-10 7.898868584624304e-10 3.0999190678940496e-10
          3.7286780137724284e-10 4.43581484462519e-10 7.967892748069001e-10 5.528050804708352e-10 4.668526405778997e-10 6.72010156752092e-10
          1.3535909676764286e-9 9.513060936106426e-10 1.0366123956491757e-9 1.1899397150528608e-8 9.250492756631968e-9 8.752013995305916e-9
          1.12994937747561e-8 1.9376262381404872e-8 1.8417533200271815e-8 7.406738714683833e-9 9.660061617888504e-9 1.5698091859413484e-8
          2.863826507048653e-8 2.7424761230897534e-8 2.3526913077155207e-8 6.885370098703811e-9 6.495384262691138e-9 4.891788849227133e-9
          4.604291373456566e-9 8.613615331783269e-9 8.100510481154629e-9 5.453665257480087e-9 3.8432043219322165e-9 6.702264283817439e-9
          1.3435260346923234e-8 1.2720985196581409e-8 1.0607056934066633e-8 5.640981718107051e-9 7.467058408634841e-9 1.1944736453711809e-8
          3.944410693884676e-9 5.315328023119631e-9 8.263209881208718e-9 1.7721080039622957e-8 1.1993150606932814e-8 4.1068446713739575e-9
          2.8716414983110083e-9 4.884100817166986e-9 2.8345648268818666e-9 1.9661940111388016e-9 3.2147701265771945e-9 7.655702463053586e-9
          4.895230656131279e-9 1.8811026063448116e-9 1.3355121038876185e-9 3.230645889807653e-9 2.3448431059573764e-9 2.249158531412088e-9
          1.4867102365344985e-9 3.564092539098352e-9 2.2876911174045943e-9 9.317938373147814e-10 6.539363072657708e-10 1.663934542967704e-9
          7.611760317108107e-10 5.030754830063872e-10 1.1435098794094784e-9 7.694611002587407e-10 4.946428450013058e-10 4.941278154377169e-10
          1.2675652221534146e-9 1.0967539835469144e-9 2.1052445524907313e-9 1.3672494776962521e-9 1.0650940587041285e-9 3.1649053140692377e-9
          1.4100642676814746e-9 2.002255009878959e-9 5.358414361191056e-9 3.3341865900119804e-9 7.56746513627132e-9 4.584039465015661e-9
          1.982622810192656e-9 2.906127222805418e-9 2.4042116968584326e-9 1.661610025180895e-9 2.0059313978678695e-9 2.801941397053033e-9
          2.107098379246017e-9 2.698729966889918e-9 3.7188822636550258e-9 1.7215861432636759e-9 1.3625049867251232e-9 9.324391862299604e-10
          8.429633870098816e-10 3.621109031720059e-8 3.5748593574181523e-8 3.202423574708868e-8 3.7016386588667413e-8 3.90403617573821e-8
          3.8617317508173777e-8 1.823736558111458e-8 1.7526422529507903e-8 1.497487659701895e-8 2.1780469224136923e-8 2.1367242157176995e-8
          1.88815337329975e-8 2.427987596854449e-8 1.612935453205931e-8 2.4463730328119196e-8 3.0475505580541055e-8 1.5850449118008237e-8
          2.003487721071172e-8 1.0880293388265121e-8 6.847709948447301e-9 1.8838716855928507e-8 1.3934606847364741e-8 1.204685144624647e-8
          8.72549769087935e-9 3.2659285888668974e-8 3.753620217453825e-8 4.1768261614934744e-8 3.0106064919778935e-8 3.616360902121385e-8
          4.249969482292846e-8 2.363012180652596e-8 2.3640087817044467e-8 2.1525632352016168e-8 2.41467634147236e-8 2.4358618355174465e-8
          2.2451739181498456e-8 2.8140825283807155e-8 3.4801615439397596e-8 2.947178817174593e-8 3.6315923783678983e-8 2.1700549850629292e-8
          1.6116673813822443e-8 2.2748503286621974e-8 1.6906851364679103e-8 7.623740663271302e-9 9.961816420404783e-9 4.388644364041607e-9
          5.907245549063732e-9 9.398094119652922e-9 1.2154739515609093e-8 5.605526967033586e-9 3.951002276079188e-9 3.1575052202304397e-9
          2.1928732626897806e-9 6.968098507152042e-9 4.942163940498484e-9 2.473579062517362e-9 3.418019536619362e-9 1.3647732931525479e-9
          1.92777721059517e-9 1.753922595961672e-9 9.472942091944606e-10 5.092192997321735e-10 3.2534123776726114e-10 8.474617796966813e-10
          5.218794593285826e-10 2.4592566439273877e-10 2.358265467812619e-10 1.3288091855051005e-9 7.863360958543453e-10 2.1622821367721536e-9
          3.3161202774061083e-9 1.9536356099499837e-9 1.1107443264253616e-9 4.5074109066660716e-10 5.076706773087274e-10 2.91313984684009e-10
          6.164451798493664e-10 4.3493696332571657e-10 3.9801355104532246e-10 2.356584681636069e-10 3.1712740796025343e-10 1.828435362732276e-10
          9.355004673833516e-11 1.9357185021602605e-10 1.134155704655142e-10 8.460101561787685e-11 2.5129656220395334e-10 1.7766991404378867e-10
          1.5526151568410982e-10
        </DataArray>
        <DataArray type="Float64" Name="gradient_matprop_error" format="ascii" RangeMin="0" RangeMax="0">
          0 0 0 0 0 0
          0 0 0 0 0 0
          0 0 0 0 0 0
          0 0 0 0 0 0
          0 0 0 0 0 0
          0 0 0 0 0 0
          0 0 0 0 0 0
          0 0 0 0 0 0
          0 0 0 0 0 0
          0 0 0 0 0 0
          0 0 0 0 0 0
          0 0 0 0 0 0
          0 0 0 0 0 0
          0 0 0 0 0 0
          0 0 0 0 0 0
          0 0 0 0 0 0
          0 0 0 0 0 0
          0 0 0 0 0 0
          0 0 0 0 0 0
          0 0 0 0 0 0
          0 0 0 0 0 0
          0 0 0 0 0 0
          0 0 0 0 0 0
          0 0 0 0 0 0
          0 0 0 0 0 0
          0 0 0 0 0 0
          0 0 0 0 0 0
          0 0 0 0 0 0
          0 0 0 0 0 0
          0 0 0 0 0 0
          0 0 0 0 0 0
          0 0 0 0 0 0
          0 0 0 0 0 0
          0 0 0 0 0 0
          0 0 0 0 0 0
          0 0 0 0 0 0
          0 0 0 0 0 0
          0 0 0 0 0 0
          0 0 0 0 0 0
          0 0 0 0 0 0
          0 0 0 0 0 0
          0 0 0 0 0 0
          0 0 0 0 0 0
          0 0 0 0 0 0
          0 0 0 0 0 0
          0 0 0 0 0 0
          0 0 0 0 0 0
          0 0 0 0 0 0
          0 0 0 0 0 0
          0 0 0 0 0 0
          0 0 0 0 0 0
          0 0 0 0 0 0
          0 0 0 0 0 0
          0 0 0 0 0 0
          0 0 0 0 0 0
          0 0 0 0 0 0
          0 0 0 0 0 0
          0 0 0 0 0 0
          0 0 0 0 0 0
          0 0 0 0 0 0
          0 0 0 0 0 0
          0
        </DataArray>
        <DataArray type="Float64" Name="initial_marker" format="ascii" RangeMin="0" RangeMax="2">
          0 0 0 0 0 2
          2 2 2 2 0.5 0
          2 2 2 2 2 0
          0 0 0 0 0 0
          0 0 0 0 0 0
          0 0 2 2 2 2
          2 2 2 2 2 2
          2 2 2 2 2 2
          2 2 1.5 2 2 1.5
          2 2 0 0.5 0 0.5
          0 0 0 1.5 1 0
          0.5 0 0.5 0 0 0
          1.25 1 0.5 2 2 2
          2 2 2 2 2 2
          2 2 1.75 1.5 1.5 1
          2 2 2 2 2 2
          2 2 2 2 2 2
          2 2 2 2 2 2
          2 2 2 2 2 2
          0 0.25 0 0 0 0
          0 0.75 0.6666666666666666 0 0.5 0
          0.5 0 0 0 0 0
          0 0 0 0 0 0
          0 0 0 0 0 0
          0 0 0 0 0 0
          0 0 0 0.5 0.5 0.5
          0 0 0 1.5 0.75 0
          0 0 0 0.5 0 0
          1.5 1 0 0 1 0
          0 0 0 0 0 0
          0 0 0 0.5 0 0
          0 0 0.5 0.5 0 0
          1.5 1.5 0.6666666666666666 2 2 2
          2 2 2 2 2 2
          2 2 2 2 2 2
          2 2 2 2 2 2
          2 2 2 2 2 2
          2 2 2 2 2 2
          2 2 2 2 2 2
          2 2 2 2 2 2
          1.5 2 2 2 1.5 2
          1.75 1.6666666666666667 2 2 0.6666666666666666 1.5
          2 0 1.5 0.5 0 2
          1.5 1.5 2 2 2 2
          2 2 2 2 2 2
          2 2 2 1.6666666666666667 2 2
          1.3333333333333333 2 2 2 2 2
          2 2 2 2 2 2
          2 2 2 2 2 2
          2 2 2 2 2 2
          2 2 2 2 2 2
          2 2 2 2 2 2
          2 2 2 2 2 2
          2 2 2 2 2 2
          2 2 2 2 2 2
          2 2 2 2 2 1.5
          1.75 2 1.25 1.75 1 2
          1.75 0.5 0.6666666666666666 2 2 2
          2 2 2 1.25 2 1
          1.75 1.5 1.5 1.6666666666666667 1.75 0.75
          0 1.5 0.5 0 1.25 0.5
          1
        </DataArray>
        <DataArray type="Float64" Name="markers_norefine" format="ascii" RangeMin="0" RangeMax="2">
          0 0 0 0 0 0
          0 0 0 0 0 0
          0 0 0 1 0 0
          0 0 0 0 0 0
          0 0 0 0 0 0
          0 0 0 0 0 0
          0 0 0 0 0 0
          0 0 0 0 0 0
          0 0 0 0 0 0
          0 0 0 0 0 0
          0 0 0 0 0 0
          0 0 0 0 0 0
          0 0 0 0 0 0
          0 0 0 0 0 0
          0 0 0 0 0 0
          0 0 0 0 0 0
          0 0 0 0 0 0
          0 0 0.5 0.25 0 0.5
          0 0 0 0 0 0
          0 0 0 0 0 0
          0 0 0 0 0 0
          0 0 0 0 0 0
          0 0 0 0 0 0
          0 0 0 0 0 0
          0 0 0 0 0 0
          0 0 0 0 0 0
          0 0 0 0 0 0
          0 0 0 0 0 0
          0 0 0 0 0 0
          0 0 0 0 0 0
          0 0 0 0 0 0
          0 0 0 0 0 0
          0 0 0 0 0 0
          0 0 0 0 0 0
          0 0 0 0 0 0
          0 0 0 0 0 0
          0 0 0 0 0 0
          0 0 0 0 0 0
          0 0 0 0 0 0
          0 0 0 0 0 0
          0 0 0 0 0 0
          0 0 0 0 0 0
          0 0 0 0 0 0
          0 0 0 0 0 0
          0 0 0 0 0 0
          0 0 0 0 0 0
          0 0 0 0 0.5 0.5
          0.25 0 0 0 0 0
          0 0 0 0 0 0
          0 0 0 0 0 0
          0 1.5 1.25 0.5 2 1.5
          0.5 0 0 0 0 0
          0 0 0 0 0 0
          0 0 0 0 0 0
          0 0 0 0 0 0
          0 0 0 0 0 0
          0 0 0 0 0 0
          0 0 0 0 0 0
          0 0 0 0 0 0
          0 0 0 0 0 0
          0 0 0 0 0 0
          0
        </DataArray>
        <DataArray type="Float64" Name="markers_mustrefine" format="ascii" RangeMin="0" RangeMax="2">
          0 0 0 0 0 2
          2 2 2 2 0.5 0
          2 2 2 2 2 0
          0 0 0 0 0 0
          0 0 0 0 0 0
          0 0 2 2 2 2
          2 2 2 2 2 2
          2 2 2 2 2 2
          2 2 1.5 2 2 1.5
          2 2 0 0.5 0 0.5
          0 0 0 1.5 1 0
          0.5 0 0.5 0 0 0
          1.25 1 0.5 2 2 2
          2 2 2 2 2 2
          2 2 1.75 1.5 1.5 1
          2 2 2 2 2 2
          2 2 2 2 2 2
          2 2 2 2 2 2
          2 2 2 2 2 2
          0 0.25 0 0 0 0
          0 0.75 0.6666666666666666 0 0.5 0
          0.5 0 0 0 0 0
          0 0 0 0 0 0
          0 0 0 0 0 0
          0 0 0 0 0 0
          0 0 0 0.5 0.5 0.5
          0 0 0 1.5 0.75 0
          0 0 0 0.5 0 0
          1.5 1 0 0 1 0
          0 0 0 0 0 0
          0 0 0 0.5 0 0
          0 0 0.5 0.5 0 0
          1.5 1.5 0.6666666666666666 2 2 2
          2 2 2 2 2 2
          2 2 2 2 2 2
          2 2 2 2 2 2
          2 2 2 2 2 2
          2 2 2 2 2 2
          2 2 2 2 2 2
          2 2 2 2 2 2
          1.5 2 2 2 1.5 2
          1.75 1.6666666666666667 2 2 0.6666666666666666 1.5
          2 0 1.5 0.5 0 2
          1.5 1.5 2 2 2 2
          2 2 2 2 2 2
          2 2 2 1.6666666666666667 2 2
          1.3333333333333333 2 2 2 2 2
          2 2 2 2 2 2
          2 2 2 2 2 2
          2 2 2 2 2 2
          2 2 2 2 2 2
          2 2 2 2 2 2
          2 2 2 2 2 2
          2 2 2 2 2 2
          2 2 2 2 2 2
          2 2 2 2 2 1.5
          1.75 2 1.25 1.75 1 2
          1.75 0.5 0.6666666666666666 2 2 2
          2 2 2 1.25 2 1
          1.75 1.5 1.5 1.6666666666666667 1.75 0.75
          0 1.5 0.5 0 1.25 0.5
          1
        </DataArray>
        <DataArray type="Float64" Name="gradient_marker" format="ascii" RangeMin="1" RangeMax="1">
          1 1 1 1 1 1
          1 1 1 1 1 1
          1 1 1 1 1 1
          1 1 1 1 1 1
          1 1 1 1 1 1
          1 1 1 1 1 1
          1 1 1 1 1 1
          1 1 1 1 1 1
          1 1 1 1 1 1
          1 1 1 1 1 1
          1 1 1 1 1 1
          1 1 1 1 1 1
          1 1 1 1 1 1
          1 1 1 1 1 1
          1 1 1 1 1 1
          1 1 1 1 1 1
          1 1 1 1 1 1
          1 1 1 1 1 1
          1 1 1 1 1 1
          1 1 1 1 1 1
          1 1 1 1 1 1
          1 1 1 1 1 1
          1 1 1 1 1 1
          1 1 1 1 1 1
          1 1 1 1 1 1
          1 1 1 1 1 1
          1 1 1 1 1 1
          1 1 1 1 1 1
          1 1 1 1 1 1
          1 1 1 1 1 1
          1 1 1 1 1 1
          1 1 1 1 1 1
          1 1 1 1 1 1
          1 1 1 1 1 1
          1 1 1 1 1 1
          1 1 1 1 1 1
          1 1 1 1 1 1
          1 1 1 1 1 1
          1 1 1 1 1 1
          1 1 1 1 1 1
          1 1 1 1 1 1
          1 1 1 1 1 1
          1 1 1 1 1 1
          1 1 1 1 1 1
          1 1 1 1 1 1
          1 1 1 1 1 1
          1 1 1 1 1 1
          1 1 1 1 1 1
          1 1 1 1 1 1
          1 1 1 1 1 1
          1 1 1 1 1 1
          1 1 1 1 1 1
          1 1 1 1 1 1
          1 1 1 1 1 1
          1 1 1 1 1 1
          1 1 1 1 1 1
          1 1 1 1 1 1
          1 1 1 1 1 1
          1 1 1 1 1 1
          1 1 1 1 1 1
          1 1 1 1 1 1
          1
        </DataArray>
        <DataArray type="Float64" Name="gradient_matprop_marker" format="ascii" RangeMin="0" RangeMax="0">
          0 0 0 0 0 0
          0 0 0 0 0 0
          0 0 0 0 0 0
          0 0 0 0 0 0
          0 0 0 0 0 0
          0 0 0 0 0 0
          0 0 0 0 0 0
          0 0 0 0 0 0
          0 0 0 0 0 0
          0 0 0 0 0 0
          0 0 0 0 0 0
          0 0 0 0 0 0
          0 0 0 0 0 0
          0 0 0 0 0 0
          0 0 0 0 0 0
          0 0 0 0 0 0
          0 0 0 0 0 0
          0 0 0 0 0 0
          0 0 0 0 0 0
          0 0 0 0 0 0
          0 0 0 0 0 0
          0 0 0 0 0 0
          0 0 0 0 0 0
          0 0 0 0 0 0
          0 0 0 0 0 0
          0 0 0 0 0 0
          0 0 0 0 0 0
          0 0 0 0 0 0
          0 0 0 0 0 0
          0 0 0 0 0 0
          0 0 0 0 0 0
          0 0 0 0 0 0
          0 0 0 0 0 0
          0 0 0 0 0 0
          0 0 0 0 0 0
          0 0 0 0 0 0
          0 0 0 0 0 0
          0 0 0 0 0 0
          0 0 0 0 0 0
          0 0 0 0 0 0
          0 0 0 0 0 0
          0 0 0 0 0 0
          0 0 0 0 0 0
          0 0 0 0 0 0
          0 0 0 0 0 0
          0 0 0 0 0 0
          0 0 0 0 0 0
          0 0 0 0 0 0
          0 0 0 0 0 0
          0 0 0 0 0 0
          0 0 0 0 0 0
          0 0 0 0 0 0
          0 0 0 0 0 0
          0 0 0 0 0 0
          0 0 0 0 0 0
          0 0 0 0 0 0
          0 0 0 0 0 0
          0 0 0 0 0 0
          0 0 0 0 0 0
          0 0 0 0 0 0
          0 0 0 0 0 0
          0
        </DataArray>
        <DataArray type="Float64" Name="combo" format="ascii" RangeMin="1" RangeMax="2">
          1 1 1 1 1 1
          1 1 1 1 1 1
          1 1 1 1.5 1 1
          1 1 1 1 1 1
          1 1 1 1 1 1
          1 1 1 1 1 1
          1 1 1 1 1 1
          1 1 1 1 1 1
          1 1 1 1 1 1
          1 1 1 1 1 1
          1 1 1 1 1 1
          1 1 1 1 1 1
          1 1 1 1 1 1
          1 1 1 1 1 1
          1 1 1 1 1 1
          1 1 1 1 1 1
          1 1 1 1 1 1
          1 1 1.25 1.125 1 1.25
          1 1 1 1 1 1
          1 1 1 1 1 1
          1 1 1 1 1 1
          1 1 1 1 1 1
          1 1 1 1 1 1
          1 1 1 1 1 1
          1 1 1 1 1 1
          1 1 1 1 1 1
          1 1 1 1 1 1
          1 1 1 1 1 1
          1 1 1 1 1 1
          1 1 1 1 1 1
          1 1 1 1 1 1
          1 1 1 1 1 1
          1 1 1 1 1 1
          1 1 1 1 1 1
          1 1 1 1 1 1
          1 1 1 1 1 1
          1 1 1 1 1 1
          1 1 1 1 1 1
          1 1 1 1 1 1
          1 1 1 1 1 1
          1 1 1 1 1 1
          1 1 1 1 1 1
          1 1 1 1 1 1
          1 1 1 1 1 1
          1 1 1 1 1 1
          1 1 1 1 1 1
          1 1 1 1 1.25 1.25
          1.125 1 1 1 1 1
          1 1 1 1 1 1
          1 1 1 1 1 1
          1 1.75 1.625 1.25 2 1.75
          1.25 1 1 1 1 1
          1 1 1 1 1 1
          1 1 1 1 1 1
          1 1 1 1 1 1
          1 1 1 1 1 1
          1 1 1 1 1 1
          1 1 1 1 1 1
          1 1 1 1 1 1
          1 1 1 1 1 1
          1 1 1 1 1 1
          1
        </DataArray>
        <DataArray type="Float64" Name="dHdT" format="ascii" RangeMin="25.821944166307205" RangeMax="60.312655849192765">
          25.869047322591094 25.8848974485125 25.90777266416745 25.860812549049967 25.940998242126785 33.95940678204459
          31.635757727940682 28.121988052912023 26.227698569840097 26.005342227286192 25.996025629001508 25.89954347133367
          26.6373628969014 40.11280757808687 36.40851918942844 48.22842414009213 38.78598736530033 25.84281782479168
          25.85224186626541 25.91079459097744 25.928650900790974 25.863080466699447 25.870977484890563 25.887683195538322
          25.895937169597072 25.85704880568432 25.833231011957004 25.83694333054508 25.837895330509916 25.841539368365737
          25.834240675987253 25.835973351269768 30.46935996352964 30.066386360432208 29.11975452814932 33.32785154049159
          28.975355512548994 28.717315857950304 28.103357183400956 31.744793007450223 31.180288395750622 29.835853383485226
          28.11585403132623 27.325126336439574 29.63759436615036 27.429884311110627 26.87803503059876 28.444644841290188
          27.433671499327126 26.215888208663046 26.091157077848468 26.4473175863063 26.089771751398125 26.00318687070359
          26.253906690586856 26.098630506854043 26.049219605745392 26.094964386077567 25.978962118684784 26.009741726695466
          26.016118229193623 26.048879095280057 25.979196781700754 26.08504122793784 26.12689284127711 25.926503220705857
          25.94765790657857 25.88899368914345 25.90361005207231 25.91276121458862 25.927061832219 25.889588085629885
          25.999411663632703 25.938818058810973 25.962208369053442 26.773742154853117 26.412004660857967 27.19540738578416
          26.48618564501713 26.228731521539054 26.09420850115113 26.7860152340627 26.18569795787327 26.22674852678597
          26.100229994546275 26.304629751233136 26.069118590506687 25.985763769029642 26.009405825542956 25.945840962055403
          36.79593942952906 36.2064038044908 34.407676878628386 38.820522229270225 34.97984989629275 34.241699828604254
          32.23968864604929 36.90157792965597 36.349217812920045 34.42535586833664 31.660382684170575 29.159230076222386
          29.86878457543995 28.125977894281444 45.37702044787782 42.54186515631226 37.98503447114032 44.64166905682201
          37.839631727632735 37.33415256687096 35.64661901438484 38.31004619316349 37.69284694169679 35.996908144606934
          25.86459425371932 25.873866208077725 25.855444978571562 25.86217982622773 25.85829598579099 25.864890661506273
          25.855521903877776 25.896518846565346 25.87389196592515 25.880695254421738 25.90168725249527 25.87175070455625
          25.85445740521189 25.846862627723056 25.85161115746812 25.91088459024875 25.84581597129743 25.83044360142608
          25.876514165662996 25.951025527101613 25.855846164973453 25.84683211325218 25.897379162218193 25.908608491069764
          25.84449601316542 25.836480225002678 25.877508352644178 26.03172497598034 25.82384405426086 25.822989956230604
          25.826173935932516 25.825344804788866 25.96645866728471 25.89378481953841 26.009065290441562 25.911729357849296
          25.996279207721493 25.854984158844616 25.863330475706828 26.191204367797063 25.9954450230411 25.896678547448474
          25.852256104223805 25.831913477587793 25.828160697346014 25.893010984415646 25.845565225034985 25.831919103484722
          25.823370608530535 25.821944166307205 25.99622000496071 26.18286305117025 26.035853580857932 25.965703498047
          26.406224541430312 26.10429257011194 25.948103041012835 26.082158455050994 25.945193860662712 25.880561905585424
          25.9140483951266 25.834764213644608 25.840589925868514 25.82453487118275 25.826773827327827 25.825422594677356
          25.825686408358266 25.827202058560754 25.825135551951007 25.874020650529438 25.849760860514863 25.839496867340827
          25.830945400801113 25.839668348596312 26.04766289466596 25.974120247255073 25.955098404581197 26.020330318860154
          26.17750910105987 26.064821116660585 26.109181803138597 29.096259401286854 28.166529434004424 28.010286146494902
          28.873598329601414 32.2810843977072 31.77432195960833 27.62329776312516 28.326269048740684 30.48508567506037
          35.68654676509172 35.15989141857399 33.54360191698716 27.46772746514866 27.358828452254606 26.943142009450668
          26.86964859469973 27.93076839727331 27.766415425574323 27.08816912965498 26.685350007257487 27.367728269271463
          29.67644490255135 29.30968945205035 28.46400521945734 27.16716435578037 27.691733369408915 29.03608301579971
          26.760204953542868 27.134466913457814 27.912379556672732 31.167787670391427 29.04770582689515 26.766259311137205
          26.464278492722528 26.918006122157067 26.47663856400129 26.264746639453307 26.541381577433693 27.58891910366871
          26.921189036565735 26.299851177784554 26.152444530200334 26.621826777211858 26.385562071672325 26.388224370567187
          26.213348202696796 26.706761005560708 26.403832946858124 26.045114065203443 25.98453094570406 26.20945477973769
          25.965480837881415 25.942977657185395 26.08058049530648 25.999170257258324 25.95211335947104 25.94098840905703
          26.11135512177436 26.14769532259499 26.383504414293633 26.21368180001666 26.14539024015415 26.64499864486056
          26.204052325767567 26.368430852909576 27.153386859559124 26.65811238898361 27.733924373788405 26.96814057215115
          26.271437710759614 26.478502919346184 26.388827160510356 26.204507089981625 26.34570224799613 26.565236704067285
          26.40070854619664 26.511592146087647 26.793457949031804 26.28691463794166 26.152189718631305 26.04203028504024
          26.038101911056483 39.895243849671104 38.654148999768495 36.28015662135726 47.91658684540053 44.85956526421758
          39.38500192250639 32.34082582579561 31.668316512287596 30.081781983548495 34.986662247509486 34.13463974627862
          31.92565984995078 33.549309737727256 30.544913172594637 33.508695489877496 35.45639928476056 30.29372541095424