<?xml version="1.0"?>
<VTKFile type="UnstructuredGrid" version="0.1" byte_order="LittleEndian" header_type="UInt32" compressor="vtkZLibDataCompressor">
  <UnstructuredGrid>
    <Piece NumberOfPoints="348" NumberOfCells="196">
      <PointData>
        <DataArray type="Int32" Name="libmesh_node_id" format="ascii" RangeMin="231" RangeMax="2746">
          309 591 605 993 994 995
          998 1001 1015 1016 1020 1021
          1101 1102 1103 1104 1105 1106
          1109 1183 1184 1185 1186 1190
          1191 1193 1194 1196 1211 1212
          1215 1217 1218 1231 1232 1364
          1365 1660 1661 1662 1663 1664
          1665 1666 1667 1668 1669 1670
          1671 1672 1673 1684 1685 1686
          1687 1688 1689 1690 1691 1692
          1693 1718 1719 1720 1721 1722
          1723 1724 1725 1726 1727 1947
          1948 1950 1953 1955 1956 1957
          1958 1959 1960 1961 1962 1963
          1964 1966 1968 1970 1972 1973
          1974 1975 1976 1977 1978 1991
          1992 1994 1997 2007 2009 2065
          2067 2069 2099 2199 2200 2202
          2409 2410 2411 2412 2413 2414
          2415 2416 2417 2418 2419 2420
          2421 2422 2423 2424 2425 2426
          2430 2431 2433 2434 2436 2437
          2438 2439 2440 2441 2442 2443
          2444 2445 2446 2447 2448 2449
          2450 2451 2452 2453 2454 2456
          2471 2472 2473 2474 2475 2476
          2477 2478 2479 2480 2481 2482
          2485 2487 2488 2490 2491 2492
          2493 2494 2495 2496 2497 2498
          2500 2502 2504 2505 2506 2507
          2508 2509 2510 2511 2512 2513
          2514 2515 2516 2519 2525 2526
          2532 2617 2618 2619 2620 2621
          2622 2623 2624 2625 2626 2627
          2628 2631 2632 2634 2636 2715
          2716 2717 2718 2719 2720 231
          633 634 583 584 635 636
          585 989 990 991 992 996
          997 1013 1014 1187 1188 1189
          1192 1366 1367 644 1233 1650
          1651 1652 1655 999 1658 1000
          1676 1677 1680 1682 1002 1710
          1711 1714 1716 1656 1657 1945
          1946 1659 1949 1951 1952 1954
          1681 1965 1683 1967 1969 1971
          2427 2428 2429 2432 643 2435
          1195 2455 2483 2484 2486 1213
          2489 1214 2499 2501 2503 1216
          2517 2518 2520 2521 2522 647
          2523 2524 1219 2527 2528 2529
          2011 2530 2531 606 1220 2533
          2534 2535 2536 2537 2538 648
          2629 2630 2633 2635 1234 2647
          2648 2650 2649 2654 2655 2656
          2657 1137 2721 2722 2205 1251
          2723 2724 1138 1252 2725 2726
          2729 2731 2732 2734 2735 2215
          2736 2739 2219 2740 2742 2746
        </DataArray>
        <DataArray type="Float64" Name="bounds" format="ascii" RangeMin="0" RangeMax="0">
          0 0 0 0 0 0
          0 0 0 0 0 0
          0 0 0 0 0 0
          0 0 0 0 0 0
          0 0 0 0 0 0
          0 0 0 0 0 0
          0 0 0 0 0 0
          0 0 0 0 0 0
          0 0 0 0 0 0
          0 0 0 0 0 0
          0 0 0 0 0 0
          0 0 0 0 0 0
          0 0 0 0 0 0
          0 0 0 0 0 0
          0 0 0 0 0 0
          0 0 0 0 0 0
          0 0 0 0 0 0
          0 0 0 0 0 0
          0 0 0 0 0 0
          0 0 0 0 0 0
          0 0 0 0 0 0
          0 0 0 0 0 0
          0 0 0 0 0 0
          0 0 0 0 0 0
          0 0 0 0 0 0
          0 0 0 0 0 0
          0 0 0 0 0 0
          0 0 0 0 0 0
          0 0 0 0 0 0
          0 0 0 0 0 0
          0 0 0 0 0 0
          0 0 0 0 0 0
          0 0 0 0 0 0
          0 0 0 0 0 0
          0 0 0 0 0 0
          0 0 0 0 0 0
          0 0 0 0 0 0
          0 0 0 0 0 0
          0 0 0 0 0 0
          0 0 0 0 0 0
          0 0 0 0 0 0
          0 0 0 0 0 0
          0 0 0 0 0 0
          0 0 0 0 0 0
          0 0 0 0 0 0
          0 0 0 0 0 0
          0 0 0 0 0 0
          0 0 0 0 0 0
          0 0 0 0 0 0
          0 0 0 0 0 0
          0 0 0 0 0 0
          0 0 0 0 0 0
          0 0 0 0 0 0
          0 0 0 0 0 0
          0 0 0 0 0 0
          0 0 0 0 0 0
          0 0 0 0 0 0
          0 0 0 0 0 0
        </DataArray>
        <DataArray type="Float64" Name="gradient_error" format="ascii" RangeMin="6.752064496624112e-11" RangeMax="2.1780469224136923e-8">
          1.2768674667917707e-9 7.611760317108107e-10 1.3435260346923234e-8 1.3256905844203716e-9 9.283923678925148e-10 8.391227066298776e-10
          7.778693361440049e-10 1.0594947115835586e-9 7.333649120201587e-10 8.589657811087948e-10 1.1630806481995147e-9 6.930809799054242e-10
          9.250492756631968e-9 7.406738714683833e-9 4.891788849227133e-9 3.8432043219322165e-9 3.944410693884676e-9 1.9661940111388016e-9
          1.0607056934066633e-8 6.635975792982837e-10 6.035319242891089e-10 4.2051924047628143e-10 3.794173677043031e-10 4.6016720491467956e-10
          5.058518474431419e-10 5.48349641103591e-10 4.5494650213004564e-10 4.698912021924343e-10 2.1398375961140436e-9 1.6696846759798302e-9
          8.481446866663629e-10 6.320077030706303e-9 4.827629409835355e-9 5.243986741825753e-10 4.0121271322879445e-10 3.387741896956016e-10
          5.400895967776966e-10 6.000959020854124e-10 5.78636264296356e-10 9.161527132345502e-10 8.803809139553009e-10 3.90422657302038e-10
          6.23790846064868e-10 5.989387222245304e-10 5.220759131463673e-10 7.838881307557721e-10 5.329347031311749e-10 1.8547820047564787e-9
          1.7704938627853617e-9 1.2178831411461392e-9 1.544042070885242e-9 4.46354898149515e-10 6.513315424480768e-10 3.042898681985048e-10
          4.3871999477250107e-10 3.598772745545271e-10 5.050306060553993e-10 3.712745909478291e-10 1.24345299109295e-9 8.46956678172597e-10
          9.317938373147814e-10 2.775221225933629e-10 3.694505828060199e-10 2.3131727452459055e-10 2.9831714224289515e-10 2.4102429259126656e-10
          3.08335891561902e-10 2.541248749759928e-10 6.539363072657708e-10 5.030754830063872e-10 4.946428450013058e-10 5.048430531240854e-9
          4.7946070145793525e-9 4.117075047252065e-9 8.752013995305916e-9 3.6636731569654e-9 3.472357705150011e-9 2.5555704101188337e-9
          2.418962824667826e-9 2.9646440699749132e-9 2.0577287697650966e-9 6.885370098703811e-9 6.495384262691138e-9 4.604291373456566e-9
          5.453665257480087e-9 3.2265524768186254e-9 2.3448431059573764e-9 5.640981718107051e-9 2.307211817609279e-9 1.594690089313689e-9
          1.663934542967704e-9 1.1435098794094784e-9 4.1068446713739575e-9 2.8716414983110083e-9 2.8345648268818666e-9 8.613615331783269e-9
          8.100510481154629e-9 6.702264283817439e-9 1.2720985196581409e-8 4.884100817166986e-9 3.2147701265771945e-9 7.694611002587407e-10
          4.941278154377169e-10 1.2675652221534146e-9 1.982622810192656e-9 1.823736558111458e-8 1.7526422529507903e-8 1.497487659701895e-8
          2.704477352314584e-10 2.6077395918750725e-10 4.1513613978909794e-10 3.9870642157567535e-10 1.7167568653340127e-10 2.693375803622962e-10
          2.5894158028776155e-10 2.3527607261721834e-10 3.5451743212691623e-10 2.3029063195161341e-10 8.507421120487971e-10 8.112586747348609e-10
          5.231025534540901e-10 7.051798478652403e-10 1.101184643334797e-10 1.0718744543780885e-10 1.6841256969083392e-10 1.6175814212971277e-10
          9.792104753840025e-11 1.4363959255036067e-10 3.4219223231516174e-10 3.268103785517567e-10 2.8521896331347956e-10 2.0538068728466708e-10
          2.9060511896676003e-10 1.363396298514076e-10 1.8998453222316617e-10 1.913094124784535e-10 2.5445207704194024e-10 1.679333807563323e-10
          5.591406800682853e-10 3.606103836240922e-10 4.680721296626665e-10 8.654158048656109e-11 1.193407402485405e-10 6.969712992974777e-11
          9.297047432271063e-11 8.149749243845968e-11 1.0650600996495121e-10 8.60016990634832e-11 2.2713119330356816e-10 1.9009469011582492e-10
          1.7121464384548812e-9 1.6196989995703709e-9 1.1025363238284677e-9 1.0432639703437548e-9 1.3756985430325703e-9 8.866743727814825e-10
          3.3129174744357853e-9 3.113499902599214e-9 2.009789127392726e-9 2.589437532890577e-9 6.833119682494752e-10 6.47639370416165e-10
          5.527491543364363e-10 1.3212800204346713e-9 1.2411393070764068e-9 1.032233385023784e-9 1.0624361232330943e-9 6.842496497917709e-10
          7.574299449627986e-10 4.87420310039543e-10 1.927170253861107e-9 1.2422999757544757e-9 1.3149416272155645e-9 4.2806221124183523e-10
          3.0534600016058797e-10 7.703984160388336e-10 5.284747472086144e-10 5.937358354301457e-9 5.566677914975735e-9 3.875798955749494e-9
          3.626103469552236e-9 4.572859279245274e-9 2.965488890050752e-9 9.505133069775708e-9 8.947284294355939e-9 5.922897790447042e-9
          7.362367137652572e-9 2.399611261268905e-9 2.242752574881704e-9 1.8317608262100624e-9 3.3062907234585886e-9 2.1368219739448586e-9
          1.3214613811668318e-9 3.739278865109415e-10 5.092192997321735e-10 2.408385980722384e-10 3.2706136296370357e-10 2.4592566439273877e-10
          3.2534123776726114e-10 2.358265467812619e-10 8.474617796966813e-10 5.465587222788766e-10 5.218794593285826e-10 1.5082466245714356e-10
          2.03781264013152e-10 1.218712241038702e-10 1.594634140987809e-10 3.40303907301915e-10 2.356584681636069e-10 1.3271547962819468e-8
          1.2644565082054843e-8 9.06797496083377e-9 8.5661553237415e-9 1.0597357377555591e-8 7.054536740481924e-9 6.025818400777322e-9
          1.326643287389312e-9 1.1690132916226186e-9 4.241841950639026e-9 3.1779808692682444e-9 8.109969307280618e-10 6.945951915986328e-10
          2.626787930081967e-9 3.07971539649417e-9 2.817236571292847e-9 1.9789946902233065e-9 1.7921400325855229e-9 2.165329397948355e-9
          1.3463654832111874e-9 1.515404695893457e-9 1.469898673721166e-9 2.704795381278465e-10 1.8186607931334817e-10 2.0523648768086493e-10
          2.662735380592862e-10 1.8235882528224185e-10 2.574094687514998e-10 2.282440881667201e-10 3.0764402410909326e-10 8.48617469965567e-10
          1.3169042496191081e-9 1.2672307733151775e-9 1.1317512474690944e-9 2.6108268518039e-9 2.4955361147107573e-9 2.185626008781473e-9
          6.541899675183432e-10 9.446890461046043e-10 7.410952073230186e-10 1.768435284137223e-9 1.3355121038876185e-9 4.1416647407953796e-10
          5.528050804708352e-10 4.668526405778997e-10 9.513060936106426e-10 3.5725668099123303e-9 3.4220547520701535e-9 6.710446533200893e-9
          6.389989686868741e-9 3.015185554076057e-9 5.529269742555009e-9 1.1899397150528608e-8 1.12994937747561e-8 9.660061617888504e-9
          2.4616673274507486e-9 4.383667597949008e-9 1.8811026063448116e-9 3.230645889807653e-9 7.467058408634841e-9 5.315328023119631e-9
          6.752064496624112e-11 1.0343383403030818e-10 9.833862401831595e-11 9.547535919819516e-11 2.073084292242976e-10 1.9664460091729584e-10
          2.0551163777723765e-10 1.612332344653789e-10 4.087469858474946e-10 3.878203022872514e-10 3.319787240268541e-10 7.821380055036699e-10
          7.353394875987183e-10 6.135599167508131e-10 2.584721898848902e-10 1.8566707064265564e-10 4.608366238262461e-10 3.186100204929842e-10
          1.41418333174947e-9 1.3218025253759777e-9 1.0813513771952917e-9 3.957085188511035e-9 3.6968736262924397e-9 2.340165939722829e-9
          2.1826605235783972e-9 2.9955469887849913e-9 1.7650992760411871e-9 2.1622821367721536e-9 1.3961522737081055e-9 5.241901673879466e-9
          7.655702463053586e-9 3.408290794897526e-9 3.3161202774061083e-9 4.895230656131279e-9 2.1465077055655726e-9 7.844019486863676e-10
          8.670811731604193e-10 5.193203119614458e-10 2.10853761643487e-9 1.245482696965136e-9 1.3305782200987952e-9 7.922049897817533e-10
          9.356512227942519e-11 1.2499578009492875e-10 9.853796934762658e-11 2.0660056468810323e-10 2.3058117581213865e-10 1.3288091855051005e-9
          8.592262616136356e-10 5.076706773087274e-10 7.863360958543453e-10 5.359708298715143e-10 3.2401566852857693e-10 3.1712740796025343e-10
          1.9357185021602605e-10 2.1780469224136923e-8 1.617510899429589e-8 1.570183271136576e-8 2.1367242157176995e-8 1.1405870057871736e-8
          1.0920026325497074e-8 1.357065708169828e-8 1.88815337329975e-8 9.18340006899537e-9 5.7825280338121404e-9 5.429289239604105e-9
          4.417493606793723e-9 7.4397908091381515e-9 7.050097092311899e-9 5.813596992684746e-9 7.546808179720168e-9 1.0880293388265121e-8
          4.948318930583532e-9 9.781179959568473e-9 1.3934606847364741e-8 6.470107815800224e-9 3.0720149452187322e-9 4.036913459512531e-9
        </DataArray>
        <DataArray type="Float64" Name="gradient_matprop_error" format="ascii" RangeMin="0" RangeMax="0">
          0 0 0 0 0 0
          0 0 0 0 0 0
          0 0 0 0 0 0
          0 0 0 0 0 0
          0 0 0 0 0 0
          0 0 0 0 0 0
          0 0 0 0 0 0
          0 0 0 0 0 0
          0 0 0 0 0 0
          0 0 0 0 0 0
          0 0 0 0 0 0
          0 0 0 0 0 0
          0 0 0 0 0 0
          0 0 0 0 0 0
          0 0 0 0 0 0
          0 0 0 0 0 0
          0 0 0 0 0 0
          0 0 0 0 0 0
          0 0 0 0 0 0
          0 0 0 0 0 0
          0 0 0 0 0 0
          0 0 0 0 0 0
          0 0 0 0 0 0
          0 0 0 0 0 0
          0 0 0 0 0 0
          0 0 0 0 0 0
          0 0 0 0 0 0
          0 0 0 0 0 0
          0 0 0 0 0 0
          0 0 0 0 0 0
          0 0 0 0 0 0
          0 0 0 0 0 0
          0 0 0 0 0 0
          0 0 0 0 0 0
          0 0 0 0 0 0
          0 0 0 0 0 0
          0 0 0 0 0 0
          0 0 0 0 0 0
          0 0 0 0 0 0
          0 0 0 0 0 0
          0 0 0 0 0 0
          0 0 0 0 0 0
          0 0 0 0 0 0
          0 0 0 0 0 0
          0 0 0 0 0 0
          0 0 0 0 0 0
          0 0 0 0 0 0
          0 0 0 0 0 0
          0 0 0 0 0 0
          0 0 0 0 0 0
          0 0 0 0 0 0
          0 0 0 0 0 0
          0 0 0 0 0 0
          0 0 0 0 0 0
          0 0 0 0 0 0
          0 0 0 0 0 0
          0 0 0 0 0 0
          0 0 0 0 0 0
        </DataArray>
        <DataArray type="Float64" Name="initial_marker" format="ascii" RangeMin="0" RangeMax="2">
          2 1.75 2 0 1 0.75
          0 2 0 0 0.5 0.5
          2 2 2 2 2 2
          2 0 0 0 0 0
          0 2 2 1.25 2 2
          2 2 2 0 1.5 0
          0 2 2 2 2 2
          2 2 2 2 1.75 2
          2 2 2 1 1.5 0.5
          1.25 0 1 1 2 2
          2 0 0.5 0 0.5 0
          0 0 1.5 1.6666666666666667 0.6666666666666666 2
          2 2 2 2 2 2
          2 2 2 2 2 2
          2 2 2 2 2 2
          2 2 2 2 2 2
          2 2 2 2 2 2
          1.5 2 2 2 2 2
          1 1 1.5 1.5 0 1
          1 0.5 1.25 1 2 2
          2 2 0 0 1 1
          0 1 2 2 2 0
          1 0 0.75 0 1 0.5
          2 1.75 2 0 0.5 0
          0.5 0 0 0 1.5 1.3333333333333333
          2 2 2 2 2 2
          2 2 2 2 2 2
          2 2 2 2 2 2
          2 2 2 2 2 2
          2 2 2 2 2 2
          2 2 2 2 2 2
          2 2 2 2 2 2
          2 1.5 1.75 1 1.5 0.5
          1 0.6666666666666666 2 2 1.75 1
          1.5 0 1 2 1.6666666666666667 2
          2 2 2 2 2 0
          0 0 0 0 0 0
          0 0 0 1 1 0
          0 0 0 0 0 0
          0 0 0 0.75 0 2
          2 2 2 2 2 2
          1 1.5 1 2 2 0
          0.5 0 1.5 2 2 2
          2 2 2 2 2 2
          2 2 2 2 2 2
          0 1 0.75 0.6666666666666666 2 1.75
          1.5 1.6666666666666667 2 2 2 2
          2 2 2 1.75 2 2
          2 2 2 2 2 2
          2 2 2 2 2 2
          2 2 2 2 2 2
          2 2 2 2 2 2
          0.5 1 0.5 1.75 0.75 2
          2 2 2 2 2 1.75
          1.5 2 2 2 2 2
          2 2 2 2 2 2
          2 2 2 2 2 2
          2 2 2 2 2 2
        </DataArray>
        <DataArray type="Float64" Name="markers_norefine" format="ascii" RangeMin="0" RangeMax="0">
          0 0 0 0 0 0
          0 0 0 0 0 0
          0 0 0 0 0 0
          0 0 0 0 0 0
          0 0 0 0 0 0
          0 0 0 0 0 0
          0 0 0 0 0 0
          0 0 0 0 0 0
          0 0 0 0 0 0
          0 0 0 0 0 0
          0 0 0 0 0 0
          0 0 0 0 0 0
          0 0 0 0 0 0
          0 0 0 0 0 0
          0 0 0 0 0 0
          0 0 0 0 0 0
          0 0 0 0 0 0
          0 0 0 0 0 0
          0 0 0 0 0 0
          0 0 0 0 0 0
          0 0 0 0 0 0
          0 0 0 0 0 0
          0 0 0 0 0 0
          0 0 0 0 0 0
          0 0 0 0 0 0
          0 0 0 0 0 0
          0 0 0 0 0 0
          0 0 0 0 0 0
          0 0 0 0 0 0
          0 0 0 0 0 0
          0 0 0 0 0 0
          0 0 0 0 0 0
          0 0 0 0 0 0
          0 0 0 0 0 0
          0 0 0 0 0 0
          0 0 0 0 0 0
          0 0 0 0 0 0
          0 0 0 0 0 0
          0 0 0 0 0 0
          0 0 0 0 0 0
          0 0 0 0 0 0
          0 0 0 0 0 0
          0 0 0 0 0 0
          0 0 0 0 0 0
          0 0 0 0 0 0
          0 0 0 0 0 0
          0 0 0 0 0 0
          0 0 0 0 0 0
          0 0 0 0 0 0
          0 0 0 0 0 0
          0 0 0 0 0 0
          0 0 0 0 0 0
          0 0 0 0 0 0
          0 0 0 0 0 0
          0 0 0 0 0 0
          0 0 0 0 0 0
          0 0 0 0 0 0
          0 0 0 0 0 0
        </DataArray>
        <DataArray type="Float64" Name="markers_mustrefine" format="ascii" RangeMin="0" RangeMax="2">
          2 1.75 2 0 1 0.75
          0 2 0 0 0.5 0.5
          2 2 2 2 2 2
          2 0 0 0 0 0
          0 2 2 1.25 2 2
          2 2 2 0 1.5 0
          0 2 2 2 2 2
          2 2 2 2 1.75 2
          2 2 2 1 1.5 0.5
          1.25 0 1 1 2 2
          2 0 0.5 0 0.5 0
          0 0 1.5 1.6666666666666667 0.6666666666666666 2
          2 2 2 2 2 2
          2 2 2 2 2 2
          2 2 2 2 2 2
          2 2 2 2 2 2
          2 2 2 2 2 2
          1.5 2 2 2 2 2
          1 1 1.5 1.5 0 1
          1 0.5 1.25 1 2 2
          2 2 0 0 1 1
          0 1 2 2 2 0
          1 0 0.75 0 1 0.5
          2 1.75 2 0 0.5 0
          0.5 0 0 0 1.5 1.3333333333333333
          2 2 2 2 2 2
          2 2 2 2 2 2
          2 2 2 2 2 2
          2 2 2 2 2 2
          2 2 2 2 2 2
          2 2 2 2 2 2
          2 2 2 2 2 2
          2 1.5 1.75 1 1.5 0.5
          1 0.6666666666666666 2 2 1.75 1
          1.5 0 1 2 1.6666666666666667 2
          2 2 2 2 2 0
          0 0 0 0 0 0
          0 0 0 1 1 0
          0 0 0 0 0 0
          0 0 0 0.75 0 2
          2 2 2 2 2 2
          1 1.5 1 2 2 0
          0.5 0 1.5 2 2 2
          2 2 2 2 2 2
          2 2 2 2 2 2
          0 1 0.75 0.6666666666666666 2 1.75
          1.5 1.6666666666666667 2 2 2 2
          2 2 2 1.75 2 2
          2 2 2 2 2 2
          2 2 2 2 2 2
          2 2 2 2 2 2
          2 2 2 2 2 2
          0.5 1 0.5 1.75 0.75 2
          2 2 2 2 2 1.75
          1.5 2 2 2 2 2
          2 2 2 2 2 2
          2 2 2 2 2 2
          2 2 2 2 2 2
        </DataArray>
        <DataArray type="Float64" Name="gradient_marker" format="ascii" RangeMin="1" RangeMax="1">
          1 1 1 1 1 1
          1 1 1 1 1 1
          1 1 1 1 1 1
          1 1 1 1 1 1
          1 1 1 1 1 1
          1 1 1 1 1 1
          1 1 1 1 1 1
          1 1 1 1 1 1
          1 1 1 1 1 1
          1 1 1 1 1 1
          1 1 1 1 1 1
          1 1 1 1 1 1
          1 1 1 1 1 1
          1 1 1 1 1 1
          1 1 1 1 1 1
          1 1 1 1 1 1
          1 1 1 1 1 1
          1 1 1 1 1 1
          1 1 1 1 1 1
          1 1 1 1 1 1
          1 1 1 1 1 1
          1 1 1 1 1 1
          1 1 1 1 1 1
          1 1 1 1 1 1
          1 1 1 1 1 1
          1 1 1 1 1 1
          1 1 1 1 1 1
          1 1 1 1 1 1
          1 1 1 1 1 1
          1 1 1 1 1 1
          1 1 1 1 1 1
          1 1 1 1 1 1
          1 1 1 1 1 1
          1 1 1 1 1 1
          1 1 1 1 1 1
          1 1 1 1 1 1
          1 1 1 1 1 1
          1 1 1 1 1 1
          1 1 1 1 1 1
          1 1 1 1 1 1
          1 1 1 1 1 1
          1 1 1 1 1 1
          1 1 1 1 1 1
          1 1 1 1 1 1
          1 1 1 1 1 1
          1 1 1 1 1 1
          1 1 1 1 1 1
          1 1 1 1 1 1
          1 1 1 1 1 1
          1 1 1 1 1 1
          1 1 1 1 1 1
          1 1 1 1 1 1
          1 1 1 1 1 1
          1 1 1 1 1 1
          1 1 1 1 1 1
          1 1 1 1 1 1
          1 1 1 1 1 1
          1 1 1 1 1 1
        </DataArray>
        <DataArray type="Float64" Name="gradient_matprop_marker" format="ascii" RangeMin="0" RangeMax="0">
          0 0 0 0 0 0
          0 0 0 0 0 0
          0 0 0 0 0 0
          0 0 0 0 0 0
          0 0 0 0 0 0
          0 0 0 0 0 0
          0 0 0 0 0 0
          0 0 0 0 0 0
          0 0 0 0 0 0
          0 0 0 0 0 0
          0 0 0 0 0 0
          0 0 0 0 0 0
          0 0 0 0 0 0
          0 0 0 0 0 0
          0 0 0 0 0 0
          0 0 0 0 0 0
          0 0 0 0 0 0
          0 0 0 0 0 0
          0 0 0 0 0 0
          0 0 0 0 0 0
          0 0 0 0 0 0
          0 0 0 0 0 0
          0 0 0 0 0 0
          0 0 0 0 0 0
          0 0 0 0 0 0
          0 0 0 0 0 0
          0 0 0 0 0 0
          0 0 0 0 0 0
          0 0 0 0 0 0
          0 0 0 0 0 0
          0 0 0 0 0 0
          0 0 0 0 0 0
          0 0 0 0 0 0
          0 0 0 0 0 0
          0 0 0 0 0 0
          0 0 0 0 0 0
          0 0 0 0 0 0
          0 0 0 0 0 0
          0 0 0 0 0 0
          0 0 0 0 0 0
          0 0 0 0 0 0
          0 0 0 0 0 0
          0 0 0 0 0 0
          0 0 0 0 0 0
          0 0 0 0 0 0
          0 0 0 0 0 0
          0 0 0 0 0 0
          0 0 0 0 0 0
          0 0 0 0 0 0
          0 0 0 0 0 0
          0 0 0 0 0 0
          0 0 0 0 0 0
          0 0 0 0 0 0
          0 0 0 0 0 0
          0 0 0 0 0 0
          0 0 0 0 0 0
          0 0 0 0 0 0
          0 0 0 0 0 0
        </DataArray>
        <DataArray type="Float64" Name="combo" format="ascii" RangeMin="1" RangeMax="1">
          1 1 1 1 1 1
          1 1 1 1 1 1
          1 1 1 1 1 1
          1 1 1 1 1 1
          1 1 1 1 1 1
          1 1 1 1 1 1
          1 1 1 1 1 1
          1 1 1 1 1 1
          1 1 1 1 1 1
          1 1 1 1 1 1
          1 1 1 1 1 1
          1 1 1 1 1 1
          1 1 1 1 1 1
          1 1 1 1 1 1
          1 1 1 1 1 1
          1 1 1 1 1 1
          1 1 1 1 1 1
          1 1 1 1 1 1
          1 1 1 1 1 1
          1 1 1 1 1 1
          1 1 1 1 1 1
          1 1 1 1 1 1
          1 1 1 1 1 1
          1 1 1 1 1 1
          1 1 1 1 1 1
          1 1 1 1 1 1
          1 1 1 1 1 1
          1 1 1 1 1 1
          1 1 1 1 1 1
          1 1 1 1 1 1
          1 1 1 1 1 1
          1 1 1 1 1 1
          1 1 1 1 1 1
          1 1 1 1 1 1
          1 1 1 1 1 1
          1 1 1 1 1 1
          1 1 1 1 1 1
          1 1 1 1 1 1
          1 1 1 1 1 1
          1 1 1 1 1 1
          1 1 1 1 1 1
          1 1 1 1 1 1
          1 1 1 1 1 1
          1 1 1 1 1 1
          1 1 1 1 1 1
          1 1 1 1 1 1
          1 1 1 1 1 1
          1 1 1 1 1 1
          1 1 1 1 1 1
          1 1 1 1 1 1
          1 1 1 1 1 1
          1 1 1 1 1 1
          1 1 1 1 1 1
          1 1 1 1 1 1
          1 1 1 1 1 1
          1 1 1 1 1 1
          1 1 1 1 1 1
          1 1 1 1 1 1
        </DataArray>
        <DataArray type="Float64" Name="dHdT" format="ascii" RangeMin="25.824260640913305" RangeMax="34.986662247509486">
          26.115360280698262 25.965480837881415 29.67644490255135 25.877107375329725 25.90533457408573 25.8959392248127
          25.87590489568764 26.06582289765283 25.854984158844616 25.863330475706828 25.9954450230411 25.896678547448474
          28.166529434004424 27.62329776312516 26.943142009450668 26.685350007257487 26.760204953542868 26.264746639453307
          28.46400521945734 25.84656044367572 25.84403969326552 25.854828968937625 25.850879960097842 25.838908179093764
          25.84514779066266 25.939692164150085 25.919310186788774 25.879524990773433 26.28628248247336 26.17938865066935
          26.002842964937052 27.32863242429656 26.894706761162794 25.852256104223805 25.893010984415646 25.834764213644608
          25.840589925868514 25.981967860635528 25.976725852653 26.05076705463639 26.042173678154057 25.924458986757788
          25.97355818761416 25.967781468398947 25.962363346338478 26.01880117622468 25.95207898985699 26.259846901919726
          26.240071994501637 26.10186777578873 26.18729160114335 25.94194087554442 25.98639490585911 25.90126116945872
          25.93054740780125 25.920219859673246 25.952502511992293 25.916982077559542 26.116749889998466 26.017653271158537
          26.045114065203443 25.9015231777216 25.923460969849128 25.886081847064037 25.903133145486912 25.893245539179077
          25.91068467665425 25.89320322843971 25.98453094570406 25.942977657185395 25.95211335947104 27.037137274922017
          26.97187090916573 26.8037011359165 28.010286146494902 26.67434813996322 26.627851121022236 26.400416381196777
          26.368613451030427 26.50783970803313 26.286042080297612 27.46772746514866 27.358828452254606 26.86964859469973
          27.08816912965498 26.59108646922444 26.385562071672325 27.16716435578037 26.355905565566587 26.181219457713393
          26.20945477973769 26.08058049530648 26.766259311137205 26.464278492722528 26.47663856400129 27.93076839727331
          27.766415425574323 27.367728269271463 29.30968945205035 26.918006122157067 26.541381577433693 25.999170257258324
          25.94098840905703 26.11135512177436 26.271437710759614 32.34082582579561 31.668316512287596 30.081781983548495
          25.889560369795937 25.88729563522834 25.919087010375172 25.915328691282387 25.86162646288615 25.88165981939535
          25.879266138249562 25.881021681332953 25.905160064725006 25.87290485773353 26.01159083098054 26.00271906755073
          25.93408404824984 25.979123567293726 25.84552559841331 25.844611482462906 25.856742662034097 25.855261123886663
          25.84227266057564 25.851373527929198 25.891825717227817 25.88837291441981 25.87931567730731 25.87277362171602
          25.891794509106752 25.852942099849496 25.864954841146222 25.86853478142688 25.884839260953093 25.86097242392916
          25.948141079280198 25.900319894699642 25.928802906538294 25.839516687577337 25.84667593661405 25.834276565127436
          25.8394003237904 25.838185420515885 25.844384403108936 25.837731388184963 25.867935209512883 25.8611559484617
          26.200036257884175 26.178956837156004 26.058684094333696 26.045338678824063 26.124360802541887 26.010885332823236
          26.5585167334934 26.510585842719077 26.256042819201852 26.389382843493564 25.963453717013596 25.955436526837307
          25.934719271800045 26.101200187474625 26.08303825572156 26.03692162348742 26.055268809446606 25.967523723896214
          25.989248407844663 25.926319815560078 26.24305865603832 26.086639130456923 26.110737812995826 25.908727560577113
          25.884079141185637 25.980992406946072 25.930464053672285 27.197213328842544 27.093170305774077 26.688239296779113
          26.62346973340325 26.83724227879734 26.463497381788322 28.251476953385495 28.0378129395551 27.20161447527114
          27.52955698418025 26.34408121874039 26.305374249836845 26.209385033313275 26.543790152581934 26.27853235761467
          26.09771163005131 25.90726370846113 25.93598120157279 25.875180756961036 25.892927937559882 25.881387937571382
          25.898000386171354 25.875270109165893 26.009060347741528 25.938580058659277 25.939497042617305 25.85348754020971
          25.864218941903914 25.8478255870802 25.855715515651717 25.891825794485452 25.871178309241657 29.839953594512142
          29.428397922206155 28.22865199447005 28.001845101318203 28.490111580734304 27.46905762836023 25.835948964281847
          25.825333058339773 25.824260640913305 25.8445898287358 25.86589040435865 25.82705962035965 25.82514398726371
          25.854826873163024 25.952250748978965 25.941107661857096 26.005648372828816 25.985763731650767 25.916318382649774
          25.9426374003407 25.89378481953841 25.911729357849296 25.827851350082845 25.83142760585111 25.830086334198207
          25.82840041651992 25.82453487118275 25.826773827327827 25.83961530623314 25.831913477587793 26.051304452855653
          26.15821191563466 26.14589213040508 26.11249844789729 26.455190168971907 26.427271689710533 26.352887197865137
          26.000907280710436 26.06621822015572 26.017076989810654 26.25374621495876 26.152444530200334 25.94103744049829
          25.974120247255073 25.955098404581197 26.064821116660585 26.714046781324264 26.676132950049734 27.50910772883748
          27.420613159978455 26.574938004499494 27.191566271541834 29.096259401286854 28.873598329601414 28.326269048740684
          26.439476628616234 26.901932746886054 26.299851177784554 26.621826777211858 27.691733369408915 27.134466913457814
          25.833637601143035 25.840532113932618 25.839773718919986 25.839699969070182 25.860931602224255 25.858954520973118
          25.852774912577964 25.851600076000732 25.902447806334816 25.89783530180594 25.885885891791656 25.981703536869976
          25.971294040435588 25.944950503311397 25.87086587609084 25.856626682089676 25.912950674901253 25.883799180541843
          26.121303765078245 26.099220192550263 26.04441465623008 26.72570203163806 26.65111078228288 26.339839986759287
          26.297646237773773 26.469708920931502 26.19458665907755 26.294981993657537 26.12037218056074 26.980635047281826
          27.58891910366871 26.55533650211839 26.546869852652605 26.921189036565735 26.281505305077644 25.980452264839776
          26.001887228890375 25.925348473012793 26.26645127518627 26.07825009736048 26.100387934430632 25.982633871561255
          25.83903598773282 25.84531211759561 25.84055363688731 25.861444979782735 25.845565225034985 26.11534833742127
          26.006002779348684 25.93188640644716 25.99807935167322 25.932688866090512 25.885337684750855 25.887936017284396
          25.85927561524045 34.986662247509486 31.837349350429037 31.15325822411733 34.13463974627862 29.287083373517035
          28.92832300139732 29.621305868986 31.92565984995078 28.106378354575224 27.244557621064445 27.116063006239912
          26.80987128658709 27.824940905198556 27.63130013926823 27.176685380725285 27.544238657471368 28.486301232113824
          26.90579908002832 28.154592086557862 29.509880982592772 27.27431167353822 26.478171619979477 26.697974093518102
        </DataArray>
        <DataArray type="Float64" Name="dk/dtemperature" format="ascii" RangeMin="0.008288843723976773" RangeMax="0.015804580349343192">