<?xml version="1.0"?>
<VTKFile type="UnstructuredGrid" version="0.1" byte_order="LittleEndian" header_type="UInt32" compressor="vtkZLibDataCompressor">
  <UnstructuredGrid>
    <Piece NumberOfPoints="355" NumberOfCells="194">
      <PointData>
        <DataArray type="Int32" Name="libmesh_node_id" format="ascii" RangeMin="239" RangeMax="2906">
          239 316 606 608 611 626
          629 631 1123 1124 1137 1138
          1139 1140 1143 1144 1152 1153
          1154 1155 1156 1157 1158 1173
          1174 1175 1176 1177 1178 1179
          1180 1181 1182 1220 1238 1240
          1251 1252 1255 1257 1258 1260
          1271 1273 1275 1277 1426 1428
          1439 1441 1443 1445 2011 2103
          2104 2116 2117 2118 2205 2212
          2215 2217 2218 2219 2220 2233
          2234 2236 2239 2242 2244 2246
          2248 2249 2250 2251 2252 2253
          2254 2296 2298 2300 2302 2303
          2304 2305 2306 2307 2308 2310
          2312 2314 2316 2317 2318 2319
          2320 2321 2322 2324 2326 2328
          2330 2331 2332 2333 2334 2335
          2336 2338 2340 2342 2344 2345
          2346 2347 2348 2349 2350 2375
          2376 2377 2378 2379 2380 2381
          2382 2383 2384 2385 2386 2387
          2388 2389 2390 2391 2392 2393
          2394 2395 2396 2397 2398 2399
          2400 2401 2402 2403 2404 2405
          2406 2407 2408 2527 2528 2529
          2530 2531 2534 2538 2647 2648
          2649 2650 2651 2652 2653 2654
          2656 2658 2660 2661 2662 2665
          2666 2667 2669 2675 2677 2721
          2722 2723 2724 2735 2736 2737
          2738 2739 2740 2741 2744 2748
          2749 2750 2751 2752 2753 2754
          2755 2756 2757 2758 2769 2770
          2771 2772 2773 2774 2775 2778
          2782 2851 2852 2853 2854 2855
          2856 2857 2858 2860 2862 2864
          2865 2866 2867 2868 2869 2870
          2871 2872 2874 2876 2878 2879
          2880 2881 2882 2883 2884 2885
          2886 2888 2890 2892 2893 2894
          2895 2896 2897 2898 2899 2900
          2902 2904 2906 624 628 630
          240 632 782 786 788 790
          1165 1166 1169 1171 651 1427
          1274 1440 1442 656 1444 2211
          2213 2241 2243 2245 2247 2295
          2297 2299 2301 2309 2313 2311
          2315 2323 2325 2327 2329 2337
          2339 2341 2343 607 2111 2357
          2271 2358 2361 1148 2363 2291
          2369 2371 612 2373 2535 2655
          648 2659 2657 1239 2671 2676
          2536 2742 2537 2743 2745 2746
          2747 1256 2731 2732 2759 2760
          2734 2763 2765 2766 2768 2776
          2777 2779 2780 2781 654 2859
          2861 2863 1272 2873 2875 2877
          2887 2889 2891 1276 2901 2903
          2905
        </DataArray>
        <DataArray type="Float64" Name="bounds" format="ascii" RangeMin="0" RangeMax="0">
          0 0 0 0 0 0
          0 0 0 0 0 0
          0 0 0 0 0 0
          0 0 0 0 0 0
          0 0 0 0 0 0
          0 0 0 0 0 0
          0 0 0 0 0 0
          0 0 0 0 0 0
          0 0 0 0 0 0
          0 0 0 0 0 0
          0 0 0 0 0 0
          0 0 0 0 0 0
          0 0 0 0 0 0
          0 0 0 0 0 0
          0 0 0 0 0 0
          0 0 0 0 0 0
          0 0 0 0 0 0
          0 0 0 0 0 0
          0 0 0 0 0 0
          0 0 0 0 0 0
          0 0 0 0 0 0
          0 0 0 0 0 0
          0 0 0 0 0 0
          0 0 0 0 0 0
          0 0 0 0 0 0
          0 0 0 0 0 0
          0 0 0 0 0 0
          0 0 0 0 0 0
          0 0 0 0 0 0
          0 0 0 0 0 0
          0 0 0 0 0 0
          0 0 0 0 0 0
          0 0 0 0 0 0
          0 0 0 0 0 0
          0 0 0 0 0 0
          0 0 0 0 0 0
          0 0 0 0 0 0
          0 0 0 0 0 0
          0 0 0 0 0 0
          0 0 0 0 0 0
          0 0 0 0 0 0
          0 0 0 0 0 0
          0 0 0 0 0 0
          0 0 0 0 0 0
          0 0 0 0 0 0
          0 0 0 0 0 0
          0 0 0 0 0 0
          0 0 0 0 0 0
          0 0 0 0 0 0
          0 0 0 0 0 0
          0 0 0 0 0 0
          0 0 0 0 0 0
          0 0 0 0 0 0
          0 0 0 0 0 0
          0 0 0 0 0 0
          0 0 0 0 0 0
          0 0 0 0 0 0
          0 0 0 0 0 0
          0 0 0 0 0 0
          0
        </DataArray>
        <DataArray type="Float64" Name="gradient_error" format="ascii" RangeMin="1.134155704655142e-10" RangeMax="3.6315923783678983e-8">
          2.41467634147236e-8 1.3244836078432751e-9 4.895230656131279e-9 1.1308494364164072e-9 1.0593881652164442e-8 2.612808043635421e-9
          4.279848349365198e-9 3.045312244979294e-9 1.661610025180895e-9 2.0172883526955244e-9 2.1780469224136923e-8 1.88815337329975e-8
          1.5850449118008237e-8 8.72549769087935e-9 2.2451739181498456e-8 1.897871349191757e-8 5.3189383586739505e-9 2.6850708033339738e-9
          1.6158552085121726e-9 1.173183450377656e-9 6.213451018862555e-9 3.164378073704634e-9 1.8399688848838195e-9 2.2431734238093373e-9
          1.545578090576409e-9 1.25156962159404e-9 1.160336319008566e-9 2.000336181729773e-9 2.46763925663034e-9 1.1117411500672815e-9
          1.6751981802290185e-9 1.2606914508825107e-9 2.6566491797992507e-9 2.1465077055655726e-9 7.184730260118262e-10 7.079829793718131e-10
          1.1405870057871736e-8 9.18340006899537e-9 3.915461211345351e-9 1.3237407255970834e-8 1.1230726640448515e-8 4.809001618558192e-9
          1.166105052981418e-9 9.656329301684203e-10 1.377493256072727e-9 1.0778060972275702e-9 7.898868584624304e-10 4.43581484462519e-10
          1.006552279935098e-9 4.996559952283568e-10 1.099302217841233e-9 5.230978293201719e-10 7.655702463053586e-9 2.906127222805418e-9
          2.4042116968584326e-9 1.3625049867251232e-9 9.324391862299604e-10 8.429633870098816e-10 2.1367242157176995e-8 2.4463730328119196e-8
          1.0880293388265121e-8 6.847709948447301e-9 1.8838716855928507e-8 1.3934606847364741e-8 1.204685144624647e-8 2.363012180652596e-8
          2.3640087817044467e-8 2.1525632352016168e-8 2.4358618355174465e-8 2.8140825283807155e-8 1.8139430154252415e-8 2.947178817174593e-8
          2.1700549850629292e-8 1.6116673813822443e-8 1.3846890124015208e-8 1.0092858834773213e-8 2.2748503286621974e-8 1.6906851364679103e-8
          1.4502115848566927e-8 7.623740663271302e-9 4.388644364041607e-9 9.398094119652922e-9 5.605526967033586e-9 3.951002276079188e-9
          3.1575052202304397e-9 2.1928732626897806e-9 6.968098507152042e-9 4.942163940498484e-9 3.850515940060164e-9 2.473579062517362e-9
          1.3647732931525479e-9 2.952028382441301e-9 1.753922595961672e-9 1.204299033039397e-9 9.472942091944606e-10 7.407339291427457e-10
          2.1047196143263455e-9 1.4499673119210752e-9 1.1257498581771896e-9 1.0661800754548964e-8 5.975820238928782e-9 1.1119980766769538e-8
          7.948837955185421e-9 5.660783234744447e-9 4.342734463951962e-9 3.036541764822606e-9 8.306790360345544e-9 5.924071352106447e-9
          4.521198204024473e-9 3.285607889376733e-9 1.7814622169047412e-9 3.4048022462433303e-9 2.3490006525788053e-9 1.6214801566661467e-9
          1.2427460541004165e-9 9.73491147572143e-10 2.4362584903390573e-9 1.6825128698618734e-9 1.2840968401829712e-9 1.0063469683620849e-9
          1.0993379083817167e-9 7.037655790037858e-10 7.66263632455897e-10 8.031382642722618e-10 8.269704214493603e-10 5.748816370881578e-10
          1.2627844839672254e-9 8.797460471144317e-10 8.960916699448268e-10 4.736212082490293e-10 5.172632242763644e-10 3.942945553187317e-10
          4.203867934040691e-10 3.7807988900834536e-10 3.927583311782908e-10 3.3007031209305193e-10 5.953952318406178e-10 4.752693193161258e-10
          4.3130270545030803e-10 1.373235547438541e-9 9.590531436971036e-10 9.682590107639946e-10 6.75182275978766e-10 1.4132309753439802e-9
          9.873758790733522e-10 9.951372602647945e-10 6.493697902071093e-10 5.194105265012949e-10 4.686081628693489e-10 3.940722798963102e-10
          6.688543570366822e-10 5.347614458597446e-10 4.82047688186318e-10 2.1622821367721536e-9 1.3961522737081055e-9 5.241901673879466e-9
          3.408290794897526e-9 3.3161202774061083e-9 8.670811731604193e-10 1.3305782200987952e-9 1.3288091855051005e-9 8.592262616136356e-10
          7.863360958543453e-10 5.076706773087274e-10 1.9536356099499837e-9 1.2633333835166585e-9 1.1107443264253616e-9 5.359708298715143e-10
          3.1712740796025343e-10 7.87291268169106e-10 4.504963129391708e-10 4.5074109066660716e-10 2.91313984684009e-10 6.164451798493664e-10
          3.9801355104532246e-10 4.3493696332571657e-10 1.828435362732276e-10 2.5129656220395334e-10 1.7766991404378867e-10 1.617510899429589e-8
          1.570183271136576e-8 1.0920026325497074e-8 1.357065708169828e-8 7.546808179720168e-9 4.948318930583532e-9 4.674763633289426e-9
          3.0378147751453792e-9 9.781179959568473e-9 6.470107815800224e-9 5.999420962262264e-9 1.8829536928510216e-9 2.4297759663996264e-9
          1.7701051452426073e-8 1.7509992089204454e-8 1.2805910583834203e-8 1.2434156997734896e-8 1.5597274115398394e-8 1.0691684747458834e-8
          1.8116229659238125e-8 1.8070755889463112e-8 1.2933935403205032e-8 1.6304854221886937e-8 1.1402697440754867e-8 7.595094116803742e-9
          6.9755779628963994e-9 4.567375375229993e-9 1.1993509350227627e-8 8.009980836690101e-9 7.335830798382394e-9 2.838186149375826e-9
          2.990091392253622e-9 2.667848802381502e-9 1.727502802192255e-9 1.4693656547553335e-9 9.50328159494993e-10 3.3506367966576875e-9
          2.1730894971010635e-9 1.802737554349306e-9 1.0748819311647621e-9 5.945711140541523e-10 1.3511911614288802e-9 7.284966770894574e-10
          7.947750831943682e-10 5.107548717240192e-10 5.534730006815968e-10 3.521295454042522e-10 9.569123891091464e-10 6.13586371707144e-10
          6.603835224865446e-10 3.216336247435072e-10 2.2307462025227723e-10 3.851872155297152e-10 2.6324777608024076e-10 3.8487194905364816e-9
          2.4995279825871935e-9 2.041611202351575e-9 1.3209918366602175e-9 4.031797297190871e-9 2.61983501484814e-9 2.1286600368577916e-9
          1.553925712739021e-9 8.246431594688458e-10 1.6287221393199522e-9 8.597374827106823e-10 1.0709082439127107e-9 6.86153313028572e-10
          7.34656515098223e-10 4.6385031777651927e-10 1.1115794810044208e-9 7.122266823680024e-10 7.603642622796837e-10 4.3007975574181596e-10
          2.9150829159163353e-10 4.462856548042045e-10 3.0162378648213617e-10 8.116784643955532e-9 1.1934192986521841e-8 9.360786988075378e-9
          7.002322586892618e-9 1.273978245845195e-8 7.173771886291791e-10 1.1972720808133083e-9 8.196228078143744e-10 1.3405376660736443e-9
          4.7011125639311e-9 3.4042369448662033e-9 5.509350959232744e-9 3.7118863468320692e-9 3.0999190678940496e-10 3.7286780137724284e-10
          4.233012052387222e-10 4.817481524704716e-10 2.8104530650328925e-10 4.704105506389233e-10 5.260166344948976e-10 3.0475505580541055e-8
          2.003487721071172e-8 3.4801615439397596e-8 2.288767812266707e-8 3.6315923783678983e-8 2.3939117151586023e-8 9.961816420404783e-9
          5.907245549063732e-9 1.2154739515609093e-8 7.1021842095730246e-9 3.418019536619362e-9 4.05347027600407e-9 1.92777721059517e-9
          2.2762435557388983e-9 1.370753789739943e-8 7.941005896329204e-9 1.4270564575582501e-8 8.243352632314854e-9 4.4937756470478875e-9
          2.501648622174196e-9 4.650828461140398e-9 2.581391120108514e-9 4.080841721686018e-9 1.7215861432636759e-9 1.4537857507592133e-9
          2.6985072678566543e-9 1.5828218993826804e-9 1.1989028978656308e-9 3.158389451272863e-9 1.8111064356205934e-9 3.4538508461316893e-9
          1.965655176850664e-9 1.403810462867767e-9 3.557325736795205e-9 2.0209555304662897e-9 5.193203119614458e-10 3.2401566852857693e-10
          7.922049897817533e-10 4.739568534906192e-10 1.9357185021602605e-10 2.741091003992207e-10 1.134155704655142e-10 1.5526151568410982e-10
          2.10853761643487e-9 3.0720149452187322e-9 1.245482696965136e-9 1.8120531916975985e-9 1.1169740452789864e-9 4.036913459512531e-9
          2.3835089447563026e-9 1.4387961518981663e-9 7.4397908091381515e-9 7.050097092311899e-9 8.528655942825421e-9 8.159698621395587e-9
          5.813596992684746e-9 6.829648815467324e-9 8.894224586562031e-9 8.545247642951728e-9 7.19947028356341e-9 4.758856151644102e-9
          2.814265499806348e-9 1.679634154787514e-9 5.0269679079739126e-9 2.9750011867148082e-9 1.7693430823424066e-9 6.444000392526406e-10
          3.605055279043613e-10 8.077887043864326e-10 4.404322124015459e-10 1.9822594353408595e-10 1.3998378009195498e-10 2.364325464723214e-10
          9.27675469328303e-10 4.977987832541592e-10 9.719165469991633e-10 5.187346532153209e-10 2.634604832588192e-10 1.812668190407601e-10
          2.7326582346564127e-10
        </DataArray>
        <DataArray type="Float64" Name="gradient_matprop_error" format="ascii" RangeMin="0" RangeMax="0">
          0 0 0 0 0 0
          0 0 0 0 0 0
          0 0 0 0 0 0
          0 0 0 0 0 0
          0 0 0 0 0 0
          0 0 0 0 0 0
          0 0 0 0 0 0
          0 0 0 0 0 0
          0 0 0 0 0 0
          0 0 0 0 0 0
          0 0 0 0 0 0
          0 0 0 0 0 0
          0 0 0 0 0 0
          0 0 0 0 0 0
          0 0 0 0 0 0
          0 0 0 0 0 0
          0 0 0 0 0 0
          0 0 0 0 0 0
          0 0 0 0 0 0
          0 0 0 0 0 0
          0 0 0 0 0 0
          0 0 0 0 0 0
          0 0 0 0 0 0
          0 0 0 0 0 0
          0 0 0 0 0 0
          0 0 0 0 0 0
          0 0 0 0 0 0
          0 0 0 0 0 0
          0 0 0 0 0 0
          0 0 0 0 0 0
          0 0 0 0 0 0
          0 0 0 0 0 0
          0 0 0 0 0 0
          0 0 0 0 0 0
          0 0 0 0 0 0
          0 0 0 0 0 0
          0 0 0 0 0 0
          0 0 0 0 0 0
          0 0 0 0 0 0
          0 0 0 0 0 0
          0 0 0 0 0 0
          0 0 0 0 0 0
          0 0 0 0 0 0
          0 0 0 0 0 0
          0 0 0 0 0 0
          0 0 0 0 0 0
          0 0 0 0 0 0
          0 0 0 0 0 0
          0 0 0 0 0 0
          0 0 0 0 0 0
          0 0 0 0 0 0
          0 0 0 0 0 0
          0 0 0 0 0 0
          0 0 0 0 0 0
          0 0 0 0 0 0
          0 0 0 0 0 0
          0 0 0 0 0 0
          0 0 0 0 0 0
          0 0 0 0 0 0
          0
        </DataArray>
        <DataArray type="Float64" Name="initial_marker" format="ascii" RangeMin="0" RangeMax="2">
          2 1.5 2 1 2 0
          0 0 2 1 2 2
          2 2 2 2 2 2
          2 1.25 2 2 2 0
          0 0 0 0 0 0
          0 0 0 2 2 0.5
          2 2 2 2 2 2
          2 1 2 1 0 0
          0 0 0 0 2 2
          2 2 2 1.3333333333333333 2 2
          2 2 2 2 2 2
          2 2 2 2 2 2
          2 2 2 2 2 2
          2 2 2 2 2 2
          2 2 2 2 2 2
          1.5 2 2 2 1.25 1.3333333333333333
          2 2 1.75 2 2 2
          2 2 2 2 2 2
          2 2 2 2 2 2
          2 2 2 2 2 0.5
          0.75 0 0.5 0 0 0
          1 1 0 0 0.25 0
          0 0 0 0 0.75 0.5
          0 1 1 0 0 1
          1 0 1 1 0 0
          1 1 0 2 2 2
          2 2 2 2 2 2
          2 2 2 2 2 2
          1.75 2 2 1.25 1 1.75
          1.5 1.5 0.75 1.25 0.5 2
          2 2 2 2 2 2
          2 2 2 2 2 2
          2 2 2 2 2 2
          2 2 2 2 2 2
          2 2 2 2 2 2
          2 2 2 2 2 2
          2 2 2 2 2 2
          2 2 2 2 2 2
          2 1.75 1.5 2 2 2
          2 2 2 2 2 2
          2 2 2 2 2 2
          2 2 2 2 2 2
          2 2 2 0 0 0
          0 0 0 0 0 0
          0 0 0 0 0 0
          0.5 0 0 1 0 2
          2 2 2 2 2 2
          2 2 2 2 2 1.75
          2 2 2 2 2 2
          2 2 2 1.5 1.6666666666666667 1
          2 1 0 2 1 2
          1 0 2 1 2 2
          2 2 1.5 2 0.5 1
          2 2 2 2 2 2
          2 2 2 2 2 2
          2 2 2 2 2 2
          2 2 2 2 2 2
          2 2 2 1.25 0.5 1.5
          2 2 2 2 1.75 1.5
          2
        </DataArray>
        <DataArray type="Float64" Name="markers_norefine" format="ascii" RangeMin="0" RangeMax="0">
          0 0 0 0 0 0
          0 0 0 0 0 0
          0 0 0 0 0 0
          0 0 0 0 0 0
          0 0 0 0 0 0
          0 0 0 0 0 0
          0 0 0 0 0 0
          0 0 0 0 0 0
          0 0 0 0 0 0
          0 0 0 0 0 0
          0 0 0 0 0 0
          0 0 0 0 0 0
          0 0 0 0 0 0
          0 0 0 0 0 0
          0 0 0 0 0 0
          0 0 0 0 0 0
          0 0 0 0 0 0
          0 0 0 0 0 0
          0 0 0 0 0 0
          0 0 0 0 0 0
          0 0 0 0 0 0
          0 0 0 0 0 0
          0 0 0 0 0 0
          0 0 0 0 0 0
          0 0 0 0 0 0
          0 0 0 0 0 0
          0 0 0 0 0 0
          0 0 0 0 0 0
          0 0 0 0 0 0
          0 0 0 0 0 0
          0 0 0 0 0 0
          0 0 0 0 0 0
          0 0 0 0 0 0
          0 0 0 0 0 0
          0 0 0 0 0 0
          0 0 0 0 0 0
          0 0 0 0 0 0
          0 0 0 0 0 0
          0 0 0 0 0 0
          0 0 0 0 0 0
          0 0 0 0 0 0
          0 0 0 0 0 0
          0 0 0 0 0 0
          0 0 0 0 0 0
          0 0 0 0 0 0
          0 0 0 0 0 0
          0 0 0 0 0 0
          0 0 0 0 0 0
          0 0 0 0 0 0
          0 0 0 0 0 0
          0 0 0 0 0 0
          0 0 0 0 0 0
          0 0 0 0 0 0
          0 0 0 0 0 0
          0 0 0 0 0 0
          0 0 0 0 0 0
          0 0 0 0 0 0
          0 0 0 0 0 0
          0 0 0 0 0 0
          0
        </DataArray>
        <DataArray type="Float64" Name="markers_mustrefine" format="ascii" RangeMin="0" RangeMax="2">
          2 1.5 2 1 2 0
          0 0 2 1 2 2
          2 2 2 2 2 2
          2 1.25 2 2 2 0
          0 0 0 0 0 0
          0 0 0 2 2 0.5
          2 2 2 2 2 2
          2 1 2 1 0 0
          0 0 0 0 2 2
          2 2 2 1.3333333333333333 2 2
          2 2 2 2 2 2
          2 2 2 2 2 2
          2 2 2 2 2 2
          2 2 2 2 2 2
          2 2 2 2 2 2
          1.5 2 2 2 1.25 1.3333333333333333
          2 2 1.75 2 2 2
          2 2 2 2 2 2
          2 2 2 2 2 2
          2 2 2 2 2 0.5
          0.75 0 0.5 0 0 0
          1 1 0 0 0.25 0
          0 0 0 0 0.75 0.5
          0 1 1 0 0 1
          1 0 1 1 0 0
          1 1 0 2 2 2
          2 2 2 2 2 2
          2 2 2 2 2 2
          1.75 2 2 1.25 1 1.75
          1.5 1.5 0.75 1.25 0.5 2
          2 2 2 2 2 2
          2 2 2 2 2 2
          2 2 2 2 2 2
          2 2 2 2 2 2
          2 2 2 2 2 2
          2 2 2 2 2 2
          2 2 2 2 2 2
          2 2 2 2 2 2
          2 1.75 1.5 2 2 2
          2 2 2 2 2 2
          2 2 2 2 2 2
          2 2 2 2 2 2
          2 2 2 0 0 0
          0 0 0 0 0 0
          0 0 0 0 0 0
          0.5 0 0 1 0 2
          2 2 2 2 2 2
          2 2 2 2 2 1.75
          2 2 2 2 2 2
          2 2 2 1.5 1.6666666666666667 1
          2 1 0 2 1 2
          1 0 2 1 2 2
          2 2 1.5 2 0.5 1
          2 2 2 2 2 2
          2 2 2 2 2 2
          2 2 2 2 2 2
          2 2 2 2 2 2
          2 2 2 1.25 0.5 1.5
          2 2 2 2 1.75 1.5
          2
        </DataArray>
        <DataArray type="Float64" Name="gradient_marker" format="ascii" RangeMin="1" RangeMax="1">
          1 1 1 1 1 1
          1 1 1 1 1 1
          1 1 1 1 1 1
          1 1 1 1 1 1
          1 1 1 1 1 1
          1 1 1 1 1 1
          1 1 1 1 1 1
          1 1 1 1 1 1
          1 1 1 1 1 1
          1 1 1 1 1 1
          1 1 1 1 1 1
          1 1 1 1 1 1
          1 1 1 1 1 1
          1 1 1 1 1 1
          1 1 1 1 1 1
          1 1 1 1 1 1
          1 1 1 1 1 1
          1 1 1 1 1 1
          1 1 1 1 1 1
          1 1 1 1 1 1
          1 1 1 1 1 1
          1 1 1 1 1 1
          1 1 1 1 1 1
          1 1 1 1 1 1
          1 1 1 1 1 1
          1 1 1 1 1 1
          1 1 1 1 1 1
          1 1 1 1 1 1
          1 1 1 1 1 1
          1 1 1 1 1 1
          1 1 1 1 1 1
          1 1 1 1 1 1
          1 1 1 1 1 1
          1 1 1 1 1 1
          1 1 1 1 1 1
          1 1 1 1 1 1
          1 1 1 1 1 1
          1 1 1 1 1 1
          1 1 1 1 1 1
          1 1 1 1 1 1
          1 1 1 1 1 1
          1 1 1 1 1 1
          1 1 1 1 1 1
          1 1 1 1 1 1
          1 1 1 1 1 1
          1 1 1 1 1 1
          1 1 1 1 1 1
          1 1 1 1 1 1
          1 1 1 1 1 1
          1 1 1 1 1 1
          1 1 1 1 1 1
          1 1 1 1 1 1
          1 1 1 1 1 1
          1 1 1 1 1 1
          1 1 1 1 1 1
          1 1 1 1 1 1
          1 1 1 1 1 1
          1 1 1 1 1 1
          1 1 1 1 1 1
          1
        </DataArray>
        <DataArray type="Float64" Name="gradient_matprop_marker" format="ascii" RangeMin="0" RangeMax="0">
          0 0 0 0 0 0
          0 0 0 0 0 0
          0 0 0 0 0 0
          0 0 0 0 0 0
          0 0 0 0 0 0
          0 0 0 0 0 0
          0 0 0 0 0 0
          0 0 0 0 0 0
          0 0 0 0 0 0
          0 0 0 0 0 0
          0 0 0 0 0 0
          0 0 0 0 0 0
          0 0 0 0 0 0
          0 0 0 0 0 0
          0 0 0 0 0 0
          0 0 0 0 0 0
          0 0 0 0 0 0
          0 0 0 0 0 0
          0 0 0 0 0 0
          0 0 0 0 0 0
          0 0 0 0 0 0
          0 0 0 0 0 0
          0 0 0 0 0 0
          0 0 0 0 0 0
          0 0 0 0 0 0
          0 0 0 0 0 0
          0 0 0 0 0 0
          0 0 0 0 0 0
          0 0 0 0 0 0
          0 0 0 0 0 0
          0 0 0 0 0 0
          0 0 0 0 0 0
          0 0 0 0 0 0
          0 0 0 0 0 0
          0 0 0 0 0 0
          0 0 0 0 0 0
          0 0 0 0 0 0
          0 0 0 0 0 0
          0 0 0 0 0 0
          0 0 0 0 0 0
          0 0 0 0 0 0
          0 0 0 0 0 0
          0 0 0 0 0 0
          0 0 0 0 0 0
          0 0 0 0 0 0
          0 0 0 0 0 0
          0 0 0 0 0 0
          0 0 0 0 0 0
          0 0 0 0 0 0
          0 0 0 0 0 0
          0 0 0 0 0 0
          0 0 0 0 0 0
          0 0 0 0 0 0
          0 0 0 0 0 0
          0 0 0 0 0 0
          0 0 0 0 0 0
          0 0 0 0 0 0
          0 0 0 0 0 0
          0 0 0 0 0 0
          0
        </DataArray>
        <DataArray type="Float64" Name="combo" format="ascii" RangeMin="1" RangeMax="1">
          1 1 1 1 1 1
          1 1 1 1 1 1
          1 1 1 1 1 1
          1 1 1 1 1 1
          1 1 1 1 1 1
          1 1 1 1 1 1
          1 1 1 1 1 1
          1 1 1 1 1 1
          1 1 1 1 1 1
          1 1 1 1 1 1
          1 1 1 1 1 1
          1 1 1 1 1 1
          1 1 1 1 1 1
          1 1 1 1 1 1
          1 1 1 1 1 1
          1 1 1 1 1 1
          1 1 1 1 1 1
          1 1 1 1 1 1
          1 1 1 1 1 1
          1 1 1 1 1 1
          1 1 1 1 1 1
          1 1 1 1 1 1
          1 1 1 1 1 1
          1 1 1 1 1 1
          1 1 1 1 1 1
          1 1 1 1 1 1
          1 1 1 1 1 1
          1 1 1 1 1 1
          1 1 1 1 1 1
          1 1 1 1 1 1
          1 1 1 1 1 1
          1 1 1 1 1 1
          1 1 1 1 1 1
          1 1 1 1 1 1
          1 1 1 1 1 1
          1 1 1 1 1 1
          1 1 1 1 1 1
          1 1 1 1 1 1
          1 1 1 1 1 1
          1 1 1 1 1 1
          1 1 1 1 1 1
          1 1 1 1 1 1
          1 1 1 1 1 1
          1 1 1 1 1 1
          1 1 1 1 1 1
          1 1 1 1 1 1
          1 1 1 1 1 1
          1 1 1 1 1 1
          1 1 1 1 1 1
          1 1 1 1 1 1
          1 1 1 1 1 1
          1 1 1 1 1 1
          1 1 1 1 1 1
          1 1 1 1 1 1
          1 1 1 1 1 1
          1 1 1 1 1 1
          1 1 1 1 1 1
          1 1 1 1 1 1
          1 1 1 1 1 1
          1
        </DataArray>
        <DataArray type="Float64" Name="dHdT" format="ascii" RangeMin="25.825344804788866" RangeMax="37.21858830523271">
          36.939410606745355 26.018826880923804 26.921189036565735 25.945193860662712 28.376120098015804 25.855846164973453
          25.84683211325218 25.863652031004467 26.204507089981625 26.10429257011194 34.986662247509486 31.92565984995078
          30.29372541095424 27.860552001634552 33.79178739232453 31.50225182774237 27.112015712179414 26.43681864339403
          26.227731934651658 25.99554522811455 27.336644499224654 26.546421428764567 26.280308351300008 25.948103041012835
          25.9645359912623 25.880561905585424 25.888704038128786 25.9140483951266 25.93171814216116 25.872410357472745
          25.976740728901035 25.89452792148346 25.939530637724943 26.281505305077644 25.978627027117028 25.874020650529438
          29.287083373517035 28.106378354575224 26.66814335016913 30.579740794875867 28.84015888199263 26.869435610322572
          26.07794727599088 25.896387562738916 26.125019527987156 25.90633346217209 25.849760860514863 25.839668348596312
          25.85783477939429 25.84326053549374 25.861331243980427 25.844890400347133 27.58891910366871 26.478502919346184
          26.388827160510356 26.152189718631305 26.04203028504024 26.038101911056483 34.13463974627862 33.508695489877496
          28.486301232113824 27.3837161374178 31.421768749028477 29.509880982592772 28.866804363549583 36.50971385909766
          35.684384429455214 33.30648588465397 36.15487244910037 34.62210518050431 31.176971596351528 34.97598503651814
          32.558728425037245 30.360080274480985 29.470281971309326 28.233362248537915 32.95860910757395 30.689584118789213
          29.707827532002902 27.68426944847181 26.88328848617645 28.168789321656423 27.13004857791423 26.71490960492729
          26.563511993394037 26.325003303645357 27.46556159413042 26.943596255392237 26.725597687511474 26.42958117549331
          26.17392115639424 26.542315473817727 26.23979965653959 26.10170198241663 26.05944718549427 26.000704310162522
          26.31900393524147 26.155839297152276 26.096437104387263 28.536885664229537 27.276358032569746 28.676103185631955
          27.71584789040539 27.112994267652617 26.841899311044116 26.517118514087265 27.809077562478333 27.175740824346917
          26.884440551467996 26.621616443007095 26.26629184455198 26.650339581476075 26.37495723833713 26.19418495163722
          26.123092288853908 26.05053803848948 26.395352928207156 26.208152539161148 26.132930554751297 26.113303731137197
          26.131532449537 26.02057759980408 26.032745874803037 26.04775918949799 26.05911695355828 25.982593350487097
          26.166888550383767 26.05675044181704 26.08195533995966 25.954897033261886 25.963111976186923 25.928331270590682
          25.934839455859155 25.925046904102317 25.929787894639073 25.908825958174244 25.97921496863528 25.947640815576158
          25.939566142685486 26.193782447511673 26.075434698517952 26.099997530126682 26.009481948037386 26.203548962192613
          26.082282663203813 26.106559097952626 25.991880537949328 25.95785994266158 25.94771641838299 25.92338715544688
          25.99665805774006 25.961785895298476 25.950829436570835 26.294981993657537 26.12037218056074 26.980635047281826
          26.55533650211839 26.546869852652605 26.001887228890375 26.100387934430632 26.11534833742127 26.006002779348684
          25.99807935167322 25.93188640644716 26.253516157145107 26.094381393046724 26.07146089051566 25.932688866090512
          25.887936017284396 25.986593705659047 25.9163831513378 25.927445119019726 25.887746099097306 25.964826922955783
          25.911916899382224 25.926329725793103 25.861279721613634 25.876098180089983 25.861845841398438 31.837349350429037
          31.15325822411733 28.92832300139732 29.621305868986 27.544238657471368 26.90579908002832 26.850376480411473
          26.474647211442907 28.154592086557862 27.27431167353822 27.157369805672026 26.218561324050523 26.33657468014863
          33.52010967970086 32.629952845587844 30.205874383996534 29.72187666694481 30.59314326489791 28.63237830695221
          34.1453716362569 33.19556542090014 30.041837486353316 30.980275774152858 28.64999407819077 27.564348741009198
          27.39205257497647 26.814514884180177 28.84454505356244 27.6761609859134 27.48073148157159 26.425506864796606
          26.45877355150164 26.411083478134895 26.195476464499027 26.15178133728753 26.029995992166647 26.56276025891789
          26.292787164494083 26.226390968286275 26.048592655520366 25.947840321369394 26.108398713885784 25.977340147298
          26.004506610984418 25.93752633668043 25.951960946214914 25.905240306642334 26.040584215881474 25.960771879155615
          25.97490693463147 25.89210187002012 25.872754818441297 25.90661196855307 25.882428508907974 26.67467205314338
          26.364242265675678 26.279986949425794 26.11241632417514 26.716232904474474 26.39062090480533 26.29961030870595
          26.152260193738908 25.9985702989713 26.168397346237136 26.006281936227694 26.06617879932893 25.977262878249725
          25.991120294200634 25.930967689147224 26.075539250297076 25.983312459033474 25.997158493350593 25.916841499207436
          25.889153820759386 25.920568479184386 25.891628265001728 25.951025527101613 25.897379162218193 25.983708328159345
          25.838556297811877 25.907558683384796 25.826173935932516 25.825344804788866 25.82816086296765 25.826546394206204
          26.082158455050994 26.122984293509454 26.04321261222276 26.14939843311755 25.839496867340827 25.830945400801113
          25.848750279028376 25.834838975087653 25.828928972663757 25.852806799262737 25.836504857336323 35.45639928476056
          32.029648494398494 36.74217304050575 33.012686133379916 37.21858830523271 33.33840813407997 28.420055372774605
          27.306939527950462 29.120771362613425 27.623902985352892 26.685444403931065 26.841677234635966 26.331301240221375
          26.407477201673434 29.672593747821196 27.854276932064614 29.88655238561116 27.939398893291468 26.951458895546146
          26.4616169617007 26.991276848374063 26.48118570977689 26.406224541430312 26.28691463794166 26.24358285984497
          26.548239395884714 26.270412954241962 26.168363351861462 26.65451437992843 26.32197228137577 26.72937560830754
          26.360607004061272 26.22940819717632 26.7563681197631 26.37451249400997 25.925348473012793 25.885337684750855
          25.982633871561255 25.916854425446907 25.85927561524045 25.875985253990883 25.843753306018094 25.85242801750598
          26.26645127518627 26.478171619979477 26.07825009736048 26.20088031223586 26.05152652918902 26.697974093518102
          26.327691097782385 26.12031587738205 27.824940905198556 27.63130013926823 28.304684873500516 28.053584541627796
          27.176685380725285 27.47033264986679 28.494176903214658 28.219183231009193 27.583827673514122 26.86864292619051
          26.4256186725258 26.172109698144283 26.933636688920938 26.462712438521898 26.191495922052873 25.953110040442695