<?xml version="1.0"?>
<VTKFile type="UnstructuredGrid" version="0.1" byte_order="LittleEndian" header_type="UInt32" compressor="vtkZLibDataCompressor">
  <UnstructuredGrid>
    <Piece NumberOfPoints="391" NumberOfCells="197">
      <PointData>
        <DataArray type="Int32" Name="libmesh_node_id" format="ascii" RangeMin="0" RangeMax="3465">
          0 1 2 3 4 5
          6 7 8 9 10 11
          12 13 14 15 16 17
          18 19 20 21 22 23
          40 41 42 43 44 45
          46 47 48 49 50 51
          60 61 62 63 64 65
          66 67 68 69 70 71
          80 81 82 83 84 85
          90 91 92 93 94 95
          96 97 98 99 100 101
          110 111 112 113 114 115
          120 121 122 123 124 125
          126 127 140 141 142 143
          150 151 152 153 154 155
          156 157 170 171 172 173
          180 181 182 183 184 185
          186 187 200 201 202 203
          3112 3113 3114 3115 3116 3117
          3118 3119 3120 3121 3122 3123
          3124 3125 3126 3127 3128 3129
          3130 3131 3132 3133 3134 3135
          3136 3137 3138 3139 3140 3141
          3142 3143 3144 3145 3146 3147
          3148 3149 3150 3151 3152 3153
          3154 3155 3156 3157 3158 3159
          3160 3161 3162 3163 3164 3165
          3166 3167 3220 3221 3222 3223
          3224 3225 3226 3227 3228 3229
          3230 3231 3232 3233 3236 3237
          3240 3241 3242 3243 3244 3245
          3246 3247 3248 3249 3250 3251
          3252 3253 3254 3255 3256 3257
          3258 3259 3260 3261 3262 3263
          3264 3265 3266 3267 3268 3269
          3270 3271 3272 3273 3274 3275
          3276 3277 3278 3279 3280 3281
          3282 3283 3284 3285 3286 3287
          3288 3289 3290 3291 3292 3293
          3294 3295 3296 3297 3298 3299
          3300 3301 3302 3303 3304 3305
          3306 3307 3308 3309 3310 3311
          3312 3313 3314 3315 3316 3317
          3318 3319 3320 3321 3322 3323
          3324 3325 3326 3327 3328 3329
          3330 3331 3332 3333 3334 3335
          3336 3337 3338 3339 3340 3341
          3342 3343 3344 3345 3346 3347
          3348 3349 3350 3351 3352 3353
          3354 3355 3356 3357 3358 3359
          3360 3361 3362 3363 3364 3365
          3366 3367 3368 3369 3370 3371
          3372 3373 3374 3375 3376 3377
          3378 3379 3380 3381 3382 3383
          3384 3385 3386 3387 3388 3389
          3390 3391 3392 3393 3394 3395
          3396 3397 3398 3399 3400 3401
          3402 3403 3404 3405 3406 3407
          3408 3409 3410 3411 3412 3413
          3414 3415 3416 3417 3418 3419
          3420 3421 3422 3423 3424 3425
          3426 3427 3428 3429 3430 3440
          3441 3442 3443 3444 3445 3446
          3447 3448 3449 3456 3457 3458
          3459 3460 3461 3462 3463 3464
          3465
        </DataArray>
        <DataArray type="Float64" Name="bounds" format="ascii" RangeMin="0" RangeMax="0">
          0 0 0 0 0 0
          0 0 0 0 0 0
          0 0 0 0 0 0
          0 0 0 0 0 0
          0 0 0 0 0 0
          0 0 0 0 0 0
          0 0 0 0 0 0
          0 0 0 0 0 0
          0 0 0 0 0 0
          0 0 0 0 0 0
          0 0 0 0 0 0
          0 0 0 0 0 0
          0 0 0 0 0 0
          0 0 0 0 0 0
          0 0 0 0 0 0
          0 0 0 0 0 0
          0 0 0 0 0 0
          0 0 0 0 0 0
          0 0 0 0 0 0
          0 0 0 0 0 0
          0 0 0 0 0 0
          0 0 0 0 0 0
          0 0 0 0 0 0
          0 0 0 0 0 0
          0 0 0 0 0 0
          0 0 0 0 0 0
          0 0 0 0 0 0
          0 0 0 0 0 0
          0 0 0 0 0 0
          0 0 0 0 0 0
          0 0 0 0 0 0
          0 0 0 0 0 0
          0 0 0 0 0 0
          0 0 0 0 0 0
          0 0 0 0 0 0
          0 0 0 0 0 0
          0 0 0 0 0 0
          0 0 0 0 0 0
          0 0 0 0 0 0
          0 0 0 0 0 0
          0 0 0 0 0 0
          0 0 0 0 0 0
          0 0 0 0 0 0
          0 0 0 0 0 0
          0 0 0 0 0 0
          0 0 0 0 0 0
          0 0 0 0 0 0
          0 0 0 0 0 0
          0 0 0 0 0 0
          0 0 0 0 0 0
          0 0 0 0 0 0
          0 0 0 0 0 0
          0 0 0 0 0 0
          0 0 0 0 0 0
          0 0 0 0 0 0
          0 0 0 0 0 0
          0 0 0 0 0 0
          0 0 0 0 0 0
          0 0 0 0 0 0
          0 0 0 0 0 0
          0 0 0 0 0 0
          0 0 0 0 0 0
          0 0 0 0 0 0
          0 0 0 0 0 0
          0 0 0 0 0 0
          0
        </DataArray>
        <DataArray type="Float64" Name="gradient_error" format="ascii" RangeMin="2.114512871453157e-9" RangeMax="0.0000022279295208877937">
          3.4278980281247102e-9 3.2419797730766545e-9 2.7226976518670796e-9 2.8203764142004724e-9 5.020677195808985e-9 4.376491204400812e-9
          3.262364716144968e-9 3.5847732371222297e-9 2.744342756746709e-9 2.4651630016560246e-9 3.132020105576238e-9 2.6422307186006083e-9
          2.243092028768792e-9 2.210493609978475e-9 2.4916457461422046e-9 2.3247170842071684e-9 2.114512871453157e-9 2.1460333727889745e-9
          2.3295997447898873e-9 2.244691956558442e-9 2.1920419186308652e-9 2.183760361721438e-9 2.1593531865753787e-9 2.1621015972222083e-9
          2.2034155306575047e-9 2.2128548002762342e-9 2.1482382278891238e-9 2.148869278435476e-9 2.1859832465653403e-9 2.152441331624979e-9
          2.177895191188159e-9 2.1577884222721322e-9 2.177553874124792e-9 2.159784168326996e-9 2.1754788048120108e-9 2.1648500078690383e-9
          2.4616733212335717e-8 2.112221597222674e-8 1.2600832518217956e-8 1.453293571008791e-8 1.289744443166864e-8 8.107419549641124e-9
          5.591124805164125e-9 4.162857561824495e-9 2.902191573046551e-9 2.675233869894497e-9 2.7141026587682526e-9 2.5001702349207643e-9
          4.079449064209174e-9 4.449138207840105e-9 3.3173946676136114e-9 2.734590318484863e-9 2.448276166742442e-9 2.2862378110732752e-9
          1.2195306596286825e-7 1.0426706683306624e-7 6.111888350536046e-8 7.126842957348122e-8 6.177063956906206e-8 3.706985989707202e-8
          2.203364255479789e-8 1.4820140693867154e-8 6.349606406850737e-9 5.565873135152871e-9 4.917133737023835e-9 3.979168607040735e-9
          1.7970700177654665e-8 2.05837931840942e-8 1.2369080225081991e-8 7.606638832936417e-9 4.782139863455006e-9 3.0412034770576363e-9
          5.957492063242615e-7 5.075979049119392e-7 3.0138810929445893e-7 3.529163675401745e-7 2.3648197709810948e-7 1.469211877794569e-7
          2.793371723644986e-8 2.8154905581280684e-8 9.517831367697875e-8 1.1008352875608753e-7 6.258997767390648e-8 3.440769426028109e-8
          0.0000015340914951961472 0.000001502845700974328 7.883498784949679e-7 0.0000010250341247516548 8.38158219236284e-7 4.28068739836227e-7
          1.4495989818507508e-7 2.5586197049664074e-7 5.137460652553611e-7 9.245568876978889e-7 6.054149432425686e-8 3.3668148272292295e-8
          1.838302325949124e-7 2.3563536811392582e-7 0.0000016367405218052885 0.0000019269435404644134 3.345354512981258e-7 2.78437104798152e-7
          5.410738961088111e-7 2.0451598054212015e-7 9.071420047676599e-7 0.0000016633009115927056 3.1536781848281334e-8 3.9430616107374225e-8
          0.0000021035469242701834 0.0000016799409414397149 0.000001669390566217603 0.0000012042093482068813 0.000001230622912896359 0.0000014827695581513137
          0.000001463730858300134 0.0000017009431347879482 0.0000012884696726904156 0.0000015235047088980093 0.000001256334958609246 0.0000017401171061297433
          0.0000017256983010814987 0.000001253234492109774 2.0245709491989008e-7 0.000001290027472367674 0.0000012593760456348605 0.0000013557447810624788
          0.0000022238992536502402 0.0000022279295208877937 0.0000017140678910259488 0.0000013570808037006998 0.0000013010108583968596 8.131348584671675e-7
          9.437077096191828e-7 8.177671994898043e-7 6.722669642885231e-7 7.325788218751698e-7 4.377003457451068e-7 2.7562095116168714e-7
          9.210491233163624e-7 4.912451857652537e-7 8.098152436605453e-7 1.6737467611097557e-7 3.376789504206986e-7 5.411409684210645e-7
          5.813398181512546e-7 2.945275871470266e-7 6.201071977593691e-7 5.802873136303873e-7 3.7641975439812003e-7 3.8588338881512407e-7
          3.25457788379638e-7 4.215742897749401e-7 5.625939553915251e-7 6.465567582124381e-7 2.488485173125031e-7 1.186454849903241e-7
          2.472195369375338e-7 7.083497790632703e-7 5.69582150292824e-7 2.7047388278987406e-7 2.624964024138985e-7 7.19813507602232e-7
          7.443259935562022e-7 1.5959832914510532e-7 3.3066015124777775e-8 2.5572905981169422e-8 3.6358654358864656e-8 8.275991188848416e-8
          7.839582733040846e-8 5.3573771978401064e-8 6.004139873739162e-8 1.4210599175946986e-8 6.036080584061423e-8 3.831404115765405e-8
          1.8079796837561062e-8 2.8751716626393683e-8 3.732288558629906e-8 1.626727647469389e-8 3.783292651728711e-8 2.5896364653334266e-8
          9.467677008219394e-8 1.1364352593380698e-7 1.4542146678566587e-7 1.673757352069504e-7 6.54905145266751e-8 1.1651956042975694e-7
          4.5025872751445485e-8 6.735535014116505e-8 1.1085215948373071e-7 2.3831042840301726e-8 1.9616616348913775e-7 2.2110794448009378e-7
          1.6754860633283883e-7 8.96848275308846e-8 4.7009604758090724e-8 9.686956987764243e-8 2.998559769679994e-8 6.901846804408528e-8
          1.2342912721151111e-8 2.49850058558514e-8 2.4916651406827918e-8 1.4672953499719415e-7 1.080513383913706e-7 3.762709899055169e-8
          1.6141845063467084e-8 4.0167846340741956e-8 7.786298267519829e-9 2.0128238288194056e-8 6.419384761801682e-8 3.247017830886829e-8
          3.37930698358592e-7 3.346788494490419e-7 3.280020641173214e-7 2.5713911470017273e-7 2.6368935959864853e-7 2.986566897701263e-7
          2.920000706907888e-7 3.5249799879905976e-7 2.8007799822121244e-7 3.159021959007794e-7 3.314270005394918e-7 3.336240199416041e-7
          3.2686102668140483e-7 3.5172639358034635e-7 1.8944802083870514e-7 2.626345300912107e-7 2.5599807726425615e-7 2.79306393002499e-7
          3.3582103934371634e-7 3.8426857623999854e-7 3.7691703079908854e-7 3.0126303705181024e-7 3.389079885543723e-7 4.0528071130467645e-7
          3.251392085062878e-7 3.653680401356996e-7 3.695654853581785e-7 3.7655294005693426e-7 4.055968717651115e-7 2.1825749786362193e-7
          3.0089894630965596e-7 3.254553689667228e-7 3.8354039475569003e-7 4.484087169238726e-7 4.372266338642094e-7 3.512101015413183e-7
          3.95019446649086e-7 4.7225810143947374e-7 3.809265188376462e-7 4.256065689875763e-7 4.2604455080454626e-7 4.388287917568537e-7
          4.2759661717391683e-7 2.540114861587641e-7 3.528122594339627e-7 3.7895503653567877e-7 4.5161303270916123e-7 5.295272140770499e-7
          5.111555891546635e-7 4.159059684957278e-7 4.5704038087943325e-7 4.781267354666662e-7 4.505258062845619e-7 4.911346794237022e-7
          4.0538108490089583e-7 4.310116693763758e-7 4.6400248621773823e-7 3.0228472291440564e-7 4.0292517260420303e-7 4.3420897226222975e-7
          4.566422538518558e-7 2.708982345567669e-7 2.6554134799992546e-7 3.076280345207347e-7 3.0355870697508174e-7 2.7825036838493455e-7
          3.1460559846323766e-7 2.238182635440192e-7 2.5140752355185654e-7 2.649008007034257e-7 2.3294977705384143e-7 3.443578344847025e-7
          3.415760659502379e-7 3.509608285415407e-7 2.7899678355969393e-7 2.489053716487481e-7 2.2370290590249367e-7 2.4416785583122085e-7
          3.291861331262317e-7 3.292218959992835e-7 2.9281882623567996e-7 2.9121364453043486e-7 1.952154542166688e-7 3.30276550645391e-7
          2.9479097091349e-7 1.985004401562392e-7 2.5641575647207653e-7 2.532411559346381e-7 2.5930539118158906e-7 5.013980698290492e-7
          4.711391365921147e-7 5.07632220228535e-7 4.1330040752677934e-7 1.9706144037014993e-7 1.830653677655002e-7 3.3252138050471564e-7
          2.951980159882677e-7 1.7506277857754552e-7 3.3389817382728986e-7 2.9424982523277257e-7 1.6906929516085045e-7 2.5787465147181985e-7
          2.5460147663825523e-7 5.798827734290541e-7 5.400369411446652e-7 5.721644695564733e-7 4.5887485278287444e-7 4.839861241015992e-7
          5.285736870451321e-7 5.271634190060996e-7 5.739018677691245e-7 4.943006569754805e-7 5.257960666970533e-7 3.747145288949188e-7
          4.768038474749013e-7 5.2690578269149e-7 5.258162390547489e-7 5.836719615341929e-7 6.288928731185952e-7 6.514661640860039e-7
          6.924802650698657e-7 5.5888747572083e-7 5.932886953181592e-7 4.7555969684955897e-7 5.850425281588956e-7 6.540684629147844e-7
          6.028026761587426e-7 2.81573301913066e-7 3.2037585974767887e-7 2.8340947801321486e-7 3.2540866370565253e-7 2.0500578795615435e-7
          2.253116555330619e-7 2.198655105493477e-7 3.591784175822917e-7 3.674078493980901e-7 2.456175231099694e-7 2.834843159948804e-7
          3.288771519664554e-7 2.815579686317993e-7 3.3038158109414765e-7 1.9072629136168975e-7 2.1409313719424856e-7 2.0768013760570446e-7
          3.7426998793803026e-7 3.7920519355649593e-7 2.3745998302680738e-7 1.8308895622713321e-7 1.6755413069491956e-7 3.3274017826468886e-7
          2.909197995053803e-7 1.6105415231725426e-7 3.2820738440207784e-7 2.8449246830817577e-7 1.520193051627059e-7 2.490994207460717e-7
          2.4077755221427374e-7 6.628978169306064e-7 6.053066971951494e-7 6.391404633436672e-7 4.918337629889748e-7 7.323093096407415e-7
          7.664131289808969e-7 8.294104943061158e-7 8.530574541552473e-7 6.292195669184123e-7 6.661382350278925e-7 6.212143857225149e-7
          7.364983318873361e-7 8.357647659222576e-7 6.937782575180812e-7 2.7719813818480765e-7 3.2932361450151473e-7 2.697603467056145e-7
          3.2493394941109883e-7 1.7432614232207547e-7 2.007250434872569e-7 1.9429584277079142e-7 3.814490908182218e-7 3.801075521165831e-7
          2.271239446524384e-7
        </DataArray>
        <DataArray type="Float64" Name="gradient_matprop_error" format="ascii" RangeMin="0" RangeMax="0">
          0 0 0 0 0 0
          0 0 0 0 0 0
          0 0 0 0 0 0
          0 0 0 0 0 0
          0 0 0 0 0 0
          0 0 0 0 0 0
          0 0 0 0 0 0
          0 0 0 0 0 0
          0 0 0 0 0 0
          0 0 0 0 0 0
          0 0 0 0 0 0
          0 0 0 0 0 0
          0 0 0 0 0 0
          0 0 0 0 0 0
          0 0 0 0 0 0
          0 0 0 0 0 0
          0 0 0 0 0 0
          0 0 0 0 0 0
          0 0 0 0 0 0
          0 0 0 0 0 0
          0 0 0 0 0 0
          0 0 0 0 0 0
          0 0 0 0 0 0
          0 0 0 0 0 0
          0 0 0 0 0 0
          0 0 0 0 0 0
          0 0 0 0 0 0
          0 0 0 0 0 0
          0 0 0 0 0 0
          0 0 0 0 0 0
          0 0 0 0 0 0
          0 0 0 0 0 0
          0 0 0 0 0 0
          0 0 0 0 0 0
          0 0 0 0 0 0
          0 0 0 0 0 0
          0 0 0 0 0 0
          0 0 0 0 0 0
          0 0 0 0 0 0
          0 0 0 0 0 0
          0 0 0 0 0 0
          0 0 0 0 0 0
          0 0 0 0 0 0
          0 0 0 0 0 0
          0 0 0 0 0 0
          0 0 0 0 0 0
          0 0 0 0 0 0
          0 0 0 0 0 0
          0 0 0 0 0 0
          0 0 0 0 0 0
          0 0 0 0 0 0
          0 0 0 0 0 0
          0 0 0 0 0 0
          0 0 0 0 0 0
          0 0 0 0 0 0
          0 0 0 0 0 0
          0 0 0 0 0 0
          0 0 0 0 0 0
          0 0 0 0 0 0
          0 0 0 0 0 0
          0 0 0 0 0 0
          0 0 0 0 0 0
          0 0 0 0 0 0
          0 0 0 0 0 0
          0 0 0 0 0 0
          0
        </DataArray>
        <DataArray type="Float64" Name="initial_marker" format="ascii" RangeMin="0" RangeMax="0">
          0 0 0 0 0 0
          0 0 0 0 0 0
          0 0 0 0 0 0
          0 0 0 0 0 0
          0 0 0 0 0 0
          0 0 0 0 0 0
          0 0 0 0 0 0
          0 0 0 0 0 0
          0 0 0 0 0 0
          0 0 0 0 0 0
          0 0 0 0 0 0
          0 0 0 0 0 0
          0 0 0 0 0 0
          0 0 0 0 0 0
          0 0 0 0 0 0
          0 0 0 0 0 0
          0 0 0 0 0 0
          0 0 0 0 0 0
          0 0 0 0 0 0
          0 0 0 0 0 0
          0 0 0 0 0 0
          0 0 0 0 0 0
          0 0 0 0 0 0
          0 0 0 0 0 0
          0 0 0 0 0 0
          0 0 0 0 0 0
          0 0 0 0 0 0
          0 0 0 0 0 0
          0 0 0 0 0 0
          0 0 0 0 0 0
          0 0 0 0 0 0
          0 0 0 0 0 0
          0 0 0 0 0 0
          0 0 0 0 0 0
          0 0 0 0 0 0
          0 0 0 0 0 0
          0 0 0 0 0 0
          0 0 0 0 0 0
          0 0 0 0 0 0
          0 0 0 0 0 0
          0 0 0 0 0 0
          0 0 0 0 0 0
          0 0 0 0 0 0
          0 0 0 0 0 0
          0 0 0 0 0 0
          0 0 0 0 0 0
          0 0 0 0 0 0
          0 0 0 0 0 0
          0 0 0 0 0 0
          0 0 0 0 0 0
          0 0 0 0 0 0
          0 0 0 0 0 0
          0 0 0 0 0 0
          0 0 0 0 0 0
          0 0 0 0 0 0
          0 0 0 0 0 0
          0 0 0 0 0 0
          0 0 0 0 0 0
          0 0 0 0 0 0
          0 0 0 0 0 0
          0 0 0 0 0 0
          0 0 0 0 0 0
          0 0 0 0 0 0
          0 0 0 0 0 0
          0 0 0 0 0 0
          0
        </DataArray>
        <DataArray type="Float64" Name="markers_norefine" format="ascii" RangeMin="0" RangeMax="0">
          0 0 0 0 0 0
          0 0 0 0 0 0
          0 0 0 0 0 0
          0 0 0 0 0 0
          0 0 0 0 0 0
          0 0 0 0 0 0
          0 0 0 0 0 0
          0 0 0 0 0 0
          0 0 0 0 0 0
          0 0 0 0 0 0
          0 0 0 0 0 0
          0 0 0 0 0 0
          0 0 0 0 0 0
          0 0 0 0 0 0
          0 0 0 0 0 0
          0 0 0 0 0 0
          0 0 0 0 0 0
          0 0 0 0 0 0
          0 0 0 0 0 0
          0 0 0 0 0 0
          0 0 0 0 0 0
          0 0 0 0 0 0
          0 0 0 0 0 0
          0 0 0 0 0 0
          0 0 0 0 0 0
          0 0 0 0 0 0
          0 0 0 0 0 0
          0 0 0 0 0 0
          0 0 0 0 0 0
          0 0 0 0 0 0
          0 0 0 0 0 0
          0 0 0 0 0 0
          0 0 0 0 0 0
          0 0 0 0 0 0
          0 0 0 0 0 0
          0 0 0 0 0 0
          0 0 0 0 0 0
          0 0 0 0 0 0
          0 0 0 0 0 0
          0 0 0 0 0 0
          0 0 0 0 0 0
          0 0 0 0 0 0
          0 0 0 0 0 0
          0 0 0 0 0 0
          0 0 0 0 0 0
          0 0 0 0 0 0
          0 0 0 0 0 0
          0 0 0 0 0 0
          0 0 0 0 0 0
          0 0 0 0 0 0
          0 0 0 0 0 0
          0 0 0 0 0 0
          0 0 0 0 0 0
          0 0 0 0 0 0
          0 0 0 0 0 0
          0 0 0 0 0 0
          0 0 0 0 0 0
          0 0 0 0 0 0
          0 0 0 0 0 0
          0 0 0 0 0 0
          0 0 0 0 0 0
          0 0 0 0 0 0
          0 0 0 0 0 0
          0 0 0 0 0 0
          0 0 0 0 0 0
          0
        </DataArray>
        <DataArray type="Float64" Name="markers_mustrefine" format="ascii" RangeMin="0" RangeMax="0">
          0 0 0 0 0 0
          0 0 0 0 0 0
          0 0 0 0 0 0
          0 0 0 0 0 0
          0 0 0 0 0 0
          0 0 0 0 0 0
          0 0 0 0 0 0
          0 0 0 0 0 0
          0 0 0 0 0 0
          0 0 0 0 0 0
          0 0 0 0 0 0
          0 0 0 0 0 0
          0 0 0 0 0 0
          0 0 0 0 0 0
          0 0 0 0 0 0
          0 0 0 0 0 0
          0 0 0 0 0 0
          0 0 0 0 0 0
          0 0 0 0 0 0
          0 0 0 0 0 0
          0 0 0 0 0 0
          0 0 0 0 0 0
          0 0 0 0 0 0
          0 0 0 0 0 0
          0 0 0 0 0 0
          0 0 0 0 0 0
          0 0 0 0 0 0
          0 0 0 0 0 0
          0 0 0 0 0 0
          0 0 0 0 0 0
          0 0 0 0 0 0
          0 0 0 0 0 0
          0 0 0 0 0 0
          0 0 0 0 0 0
          0 0 0 0 0 0
          0 0 0 0 0 0
          0 0 0 0 0 0
          0 0 0 0 0 0
          0 0 0 0 0 0
          0 0 0 0 0 0
          0 0 0 0 0 0
          0 0 0 0 0 0
          0 0 0 0 0 0
          0 0 0 0 0 0
          0 0 0 0 0 0
          0 0 0 0 0 0
          0 0 0 0 0 0
          0 0 0 0 0 0
          0 0 0 0 0 0
          0 0 0 0 0 0
          0 0 0 0 0 0
          0 0 0 0 0 0
          0 0 0 0 0 0
          0 0 0 0 0 0
          0 0 0 0 0 0
          0 0 0 0 0 0
          0 0 0 0 0 0
          0 0 0 0 0 0
          0 0 0 0 0 0
          0 0 0 0 0 0
          0 0 0 0 0 0
          0 0 0 0 0 0
          0 0 0 0 0 0
          0 0 0 0 0 0
          0 0 0 0 0 0
          0
        </DataArray>
        <DataArray type="Float64" Name="gradient_marker" format="ascii" RangeMin="1" RangeMax="1">
          1 1 1 1 1 1
          1 1 1 1 1 1
          1 1 1 1 1 1
          1 1 1 1 1 1
          1 1 1 1 1 1
          1 1 1 1 1 1
          1 1 1 1 1 1
          1 1 1 1 1 1
          1 1 1 1 1 1
          1 1 1 1 1 1
          1 1 1 1 1 1
          1 1 1 1 1 1
          1 1 1 1 1 1
          1 1 1 1 1 1
          1 1 1 1 1 1
          1 1 1 1 1 1
          1 1 1 1 1 1
          1 1 1 1 1 1
          1 1 1 1 1 1
          1 1 1 1 1 1
          1 1 1 1 1 1
          1 1 1 1 1 1
          1 1 1 1 1 1
          1 1 1 1 1 1
          1 1 1 1 1 1
          1 1 1 1 1 1
          1 1 1 1 1 1
          1 1 1 1 1 1
          1 1 1 1 1 1
          1 1 1 1 1 1
          1 1 1 1 1 1
          1 1 1 1 1 1
          1 1 1 1 1 1
          1 1 1 1 1 1
          1 1 1 1 1 1
          1 1 1 1 1 1
          1 1 1 1 1 1
          1 1 1 1 1 1
          1 1 1 1 1 1
          1 1 1 1 1 1
          1 1 1 1 1 1
          1 1 1 1 1 1
          1 1 1 1 1 1
          1 1 1 1 1 1
          1 1 1 1 1 1
          1 1 1 1 1 1
          1 1 1 1 1 1
          1 1 1 1 1 1
          1 1 1 1 1 1
          1 1 1 1 1 1
          1 1 1 1 1 1
          1 1 1 1 1 1
          1 1 1 1 1 1
          1 1 1 1 1 1
          1 1 1 1 1 1
          1 1 1 1 1 1
          1 1 1 1 1 1
          1 1 1 1 1 1
          1 1 1 1 1 1
          1 1 1 1 1 1
          1 1 1 1 1 1
          1 1 1 1 1 1
          1 1 1 1 1 1
          1 1 1 1 1 1
          1 1 1 1 1 1
          1
        </DataArray>
        <DataArray type="Float64" Name="gradient_matprop_marker" format="ascii" RangeMin="0" RangeMax="0">
          0 0 0 0 0 0
          0 0 0 0 0 0
          0 0 0 0 0 0
          0 0 0 0 0 0
          0 0 0 0 0 0
          0 0 0 0 0 0
          0 0 0 0 0 0
          0 0 0 0 0 0
          0 0 0 0 0 0
          0 0 0 0 0 0
          0 0 0 0 0 0
          0 0 0 0 0 0
          0 0 0 0 0 0
          0 0 0 0 0 0
          0 0 0 0 0 0
          0 0 0 0 0 0
          0 0 0 0 0 0
          0 0 0 0 0 0
          0 0 0 0 0 0
          0 0 0 0 0 0
          0 0 0 0 0 0
          0 0 0 0 0 0
          0 0 0 0 0 0
          0 0 0 0 0 0
          0 0 0 0 0 0
          0 0 0 0 0 0
          0 0 0 0 0 0
          0 0 0 0 0 0
          0 0 0 0 0 0
          0 0 0 0 0 0
          0 0 0 0 0 0
          0 0 0 0 0 0
          0 0 0 0 0 0
          0 0 0 0 0 0
          0 0 0 0 0 0
          0 0 0 0 0 0
          0 0 0 0 0 0
          0 0 0 0 0 0
          0 0 0 0 0 0
          0 0 0 0 0 0
          0 0 0 0 0 0
          0 0 0 0 0 0
          0 0 0 0 0 0
          0 0 0 0 0 0
          0 0 0 0 0 0
          0 0 0 0 0 0
          0 0 0 0 0 0
          0 0 0 0 0 0
          0 0 0 0 0 0
          0 0 0 0 0 0
          0 0 0 0 0 0
          0 0 0 0 0 0
          0 0 0 0 0 0
          0 0 0 0 0 0
          0 0 0 0 0 0
          0 0 0 0 0 0
          0 0 0 0 0 0
          0 0 0 0 0 0
          0 0 0 0 0 0
          0 0 0 0 0 0
          0 0 0 0 0 0
          0 0 0 0 0 0
          0 0 0 0 0 0
          0 0 0 0 0 0
          0 0 0 0 0 0
          0
        </DataArray>
        <DataArray type="Float64" Name="combo" format="ascii" RangeMin="1" RangeMax="1">
          1 1 1 1 1 1
          1 1 1 1 1 1
          1 1 1 1 1 1
          1 1 1 1 1 1
          1 1 1 1 1 1
          1 1 1 1 1 1
          1 1 1 1 1 1
          1 1 1 1 1 1
          1 1 1 1 1 1
          1 1 1 1 1 1
          1 1 1 1 1 1
          1 1 1 1 1 1
          1 1 1 1 1 1
          1 1 1 1 1 1
          1 1 1 1 1 1
          1 1 1 1 1 1
          1 1 1 1 1 1
          1 1 1 1 1 1
          1 1 1 1 1 1
          1 1 1 1 1 1
          1 1 1 1 1 1
          1 1 1 1 1 1
          1 1 1 1 1 1
          1 1 1 1 1 1
          1 1 1 1 1 1
          1 1 1 1 1 1
          1 1 1 1 1 1
          1 1 1 1 1 1
          1 1 1 1 1 1
          1 1 1 1 1 1
          1 1 1 1 1 1
          1 1 1 1 1 1
          1 1 1 1 1 1
          1 1 1 1 1 1
          1 1 1 1 1 1
          1 1 1 1 1 1
          1 1 1 1 1 1
          1 1 1 1 1 1
          1 1 1 1 1 1
          1 1 1 1 1 1
          1 1 1 1 1 1
          1 1 1 1 1 1
          1 1 1 1 1 1
          1 1 1 1 1 1
          1 1 1 1 1 1
          1 1 1 1 1 1
          1 1 1 1 1 1
          1 1 1 1 1 1
          1 1 1 1 1 1
          1 1 1 1 1 1
          1 1 1 1 1 1
          1 1 1 1 1 1
          1 1 1 1 1 1
          1 1 1 1 1 1
          1 1 1 1 1 1
          1 1 1 1 1 1
          1 1 1 1 1 1
          1 1 1 1 1 1
          1 1 1 1 1 1
          1 1 1 1 1 1
          1 1 1 1 1 1
          1 1 1 1 1 1
          1 1 1 1 1 1
          1 1 1 1 1 1
          1 1 1 1 1 1
          1
        </DataArray>
        <DataArray type="Float64" Name="dHdT" format="ascii" RangeMin="25.80545570747701" RangeMax="31.21252367508656">
          25.811746240493687 25.811732351714937 25.811692054801448 25.81169936761058 25.811693380936767 25.81171655076952
          25.81177785173044 25.811765495689258 25.811692555019043 25.811671469560075 25.811776456205177 25.81180934894665
          25.811652050412704 25.811650904934123 25.81183376050159 25.81183905783218 25.811643242905316 25.81164650163898
          25.811849908330398 25.811847573840147 25.811650740860216 25.811650167949345 25.811844050962833 25.811844961717394
          25.811651757887958 25.811652494727475 25.81183915269137 25.811837610441746 25.811650384101103 25.811842241688122
          25.81164975945554 25.811844355162776 25.81164976037264 25.811845239349893 25.811649595038475 25.81184587247195
          25.813044306409644 25.812922050432135 25.81260816282364 25.81267413611877 25.812618292661966 25.81244626367454
          25.812334009598292 25.812296359399625 25.812241990821796 25.81224629409883 25.812256171785055 25.812250844725053
          25.812294275215145 25.812303965827894 25.812274234687113 25.812258709200968 25.812250597375865 25.812245517665055
          25.808512743832182 25.809135572107433 25.810702747364758 25.810361473860983 25.810631976997225 25.81151430692993
          25.812010151751892 25.812256815727284 25.812520895793178 25.812543676910295 25.81253214065768 25.812568127253083
          25.81226992262207 25.812210203889787 25.81239663686263 25.812503479702677 25.812566458027405 25.812604113848487
          25.832895015525033 25.829755798621672 25.822423199449318 25.824167227604338 25.81898888414033 25.816914283456555
          25.80896234962382 25.81279656157875 25.815090600276964 25.815439439683644 25.81433820877932 25.81370614262466
          26.272631377145018 26.26520850750061 25.933275509746053 25.940705606948455 26.16274140711196 25.907361627438405
          25.988231632188903 25.874392175696308 25.829723981225218 25.844982110896098 25.813974321591022 25.813455664022268
          28.581634806395947 28.914302500803057 26.327442203423807 26.311117685173983 29.523621346398368 26.134223573052953
          30.468626302281166 26.04150296512342 25.838859898176622 25.87092054470471 25.805504917374094 25.80690164886328
          26.680682906230757 26.44230345732538 26.445847845320692 27.320527435610202 27.346100588134195 26.79194572282069
          26.787683492779284 26.431905095134276 27.39649623912581 26.796597188497966 26.203924008420007 26.477521436074028
          26.48048019840987 26.28115957960439 28.68947467153586 27.410124855569734 27.382454316823615 27.46547491336093
          26.751118863728053 26.660034060655555 26.411440332176436 27.452603884053197 26.81820723477184 26.12852455346
          27.650842076421057 26.857464175909648 26.01229838656282 26.115788062803624 26.026252410728496 29.19257103922861
          27.672921332559763 27.88907229276598 26.257936337216364 26.03196505687077 25.971805945570175 27.85079553290223
          26.85545682155329 25.939447200842437 27.908660189792766 26.813176974345826 25.91533515408048 25.992340798321163
          25.957632271672182 29.93458187655373 27.96851924952562 28.042774484361015 26.090181669653997 25.945403700496765
          25.907822929288344 27.960633134459393 26.749289382228092 25.87499976726284 25.922883843271443 31.21252367508656
          28.1087860117173 25.99111635329868 25.80913484813226 25.811288225451953 25.813628059112467 25.836476574546595
          25.829806475302693 25.825531327952028 25.83064879825548 25.80948157525899 25.818403287649133 25.817098667051333
          25.813441602771647 25.821256180601356 25.82482102196437 25.81579404645354 25.80980152122396 25.811349574523426
          25.836658885364468 25.84106195683473 25.85121097840887 25.857696592638952 25.829060440721253 25.840223099400838
          25.811567601300617 25.808989514893465 25.80918395767705 25.80852802331184 25.865763071453266 25.874331228443175
          25.85138575808042 25.806411428486314 25.82335285439457 25.831389804915364 25.81880375742987 25.82317915248442
          25.811649832257146 25.808552769867077 25.809464591765966 25.83942675543615 25.827554547538963 25.80545570747701
          25.815412792259192 25.81598077123174 25.81255667864295 25.810955907121315 25.816548750204287 25.809355135599677
          27.973877170882446 27.74447423851959 27.733364103294 28.270319779075727 28.292784019060377 28.03249038256036
          28.015489205246983 27.77178769147079 28.350496470786744 28.075545225472215 27.51507130615673 27.77219674606034
          27.76065863141823 27.800593980157682 28.611690867238302 28.32050652660113 28.29761430719996 28.37930275947364
          28.029322185963956 28.061251967893313 27.806717481624524 28.427708368387897 28.132337063871226 27.846022649583006
          28.51613088406105 28.19720127370364 27.552182995355736 27.836965759354552 27.878271663346236 28.79416476888248
          28.457956646117925 28.548379897824283 28.121748523353368 28.180148438514863 27.888435507223406 28.613802033367925
          28.26852379762364 27.934474620309324 28.71887237333972 28.34774407271516 27.59672257593195 27.923245561879355
          27.68324292597139 29.047455628220987 28.648612088023878 28.761013525120987 28.24976854782677 28.31307860172502