<?xml version="1.0"?>
<VTKFile type="UnstructuredGrid" version="0.1" byte_order="LittleEndian" header_type="UInt32" compressor="vtkZLibDataCompressor">
  <UnstructuredGrid>
    <Piece NumberOfPoints="512" NumberOfCells="273">
      <PointData>
        <DataArray type="Int32" Name="libmesh_node_id" format="ascii" RangeMin="204" RangeMax="4923">
          252 253 254 255 278 279
          300 301 302 303 304 326
          327 348 349 350 351 352
          353 374 375 376 384 385
          386 387 388 389 390 391
          392 393 394 395 396 397
          398 399 400 401 402 459
          460 461 462 463 464 465
          466 467 468 469 470 471
          472 473 474 475 476 477
          478 479 480 481 485 486
          488 489 491 576 577 578
          579 580 581 582 583 584
          585 586 587 588 589 591
          593 598 601 624 625 626
          627 628 629 630 631 632
          633 634 635 636 637 692
          693 694 695 696 697 698
          699 700 701 702 703 704
          705 706 707 708 709 710
          711 712 713 714 715 716
          717 718 719 720 721 722
          723 724 725 726 727 728
          729 730 731 732 733 734
          735 736 737 738 739 740
          741 742 746 747 749 750
          752 1035 1036 1037 1038 1039
          1040 1041 1042 1043 1044 1055
          1056 1057 1058 1059 1060 1061
          1062 1063 1064 1065 1066 1067
          1068 1069 1070 1071 1072 1073
          1074 1075 1079 1080 1081 1093
          1094 1095 1096 1097 1098 1149
          1150 1151 1152 1153 1154 1155
          1156 1157 1158 1159 1160 1161
          1162 1163 1164 1165 1166 1167
          1168 1169 1170 1171 1172 1173
          1174 1175 1176 1177 1178 1179
          1180 1184 1185 1187 1188 1189
          1190 1191 1192 1193 1194 1195
          1196 1197 1198 1201 1202 1204
          1206 1323 1324 1325 1326 1327
          1328 1329 1330 1331 1332 1333
          1334 1335 1336 2036 2037 2038
          2039 2040 2041 2042 2043 2044
          2045 2070 2071 2072 2073 2074
          2075 2076 2077 2078 2079 2104
          2105 2106 2107 2108 2109 2110
          2111 2112 2113 2114 2115 2116
          2117 2118 2119 2120 2121 2122
          2123 2124 2125 2126 2127 2128
          2129 2130 2131 2132 2133 4334
          4335 4337 4338 4339 4343 4344
          4345 4347 4348 4349 4350 4351
          4352 4353 4428 4429 4430 4431
          4432 4433 4434 4435 4436 4437
          4438 4439 4440 4441 4442 4443
          4444 4445 4446 4447 4448 4449
          4450 4451 4452 4453 4454 4455
          4456 4457 4458 4459 4460 4461
          4462 4463 4464 4465 4466 4467
          4468 4469 4470 4471 4472 4473
          4474 4475 4476 4477 4478 4479
          4480 4481 4482 4483 4484 4485
          4486 4487 4488 4489 4490 4491
          4492 4493 4494 4495 4496 4497
          4498 4499 4500 4501 4502 4503
          4504 4505 4506 4507 4508 4509
          4510 4511 4512 4513 4514 4515
          4591 4594 4873 4874 4875 4878
          4881 4883 4884 4885 4886 4887
          4888 4889 4890 4891 4894 4895
          4897 4900 4902 4903 4904 4905
          4906 4907 4910 4911 4914 4916
          4918 4919 4920 4921 4922 4923
          204 206 207 205 208 209
          256 257 231 230 232 280
          305 328 404 410 406 411
          482 484 487 590 592 596
          597 416 600 603 483 743
          744 745 748 413 751 490
          1004 1005 1006 1007 403 1012
          1013 1076 1077 1078 1082 405
          639 641 646 414 649 1181
          1182 1183 1186 1199 1200 1203
          1205 1003
        </DataArray>
        <DataArray type="Float64" Name="bounds" format="ascii" RangeMin="0" RangeMax="0">
          0 0 0 0 0 0
          0 0 0 0 0 0
          0 0 0 0 0 0
          0 0 0 0 0 0
          0 0 0 0 0 0
          0 0 0 0 0 0
          0 0 0 0 0 0
          0 0 0 0 0 0
          0 0 0 0 0 0
          0 0 0 0 0 0
          0 0 0 0 0 0
          0 0 0 0 0 0
          0 0 0 0 0 0
          0 0 0 0 0 0
          0 0 0 0 0 0
          0 0 0 0 0 0
          0 0 0 0 0 0
          0 0 0 0 0 0
          0 0 0 0 0 0
          0 0 0 0 0 0
          0 0 0 0 0 0
          0 0 0 0 0 0
          0 0 0 0 0 0
          0 0 0 0 0 0
          0 0 0 0 0 0
          0 0 0 0 0 0
          0 0 0 0 0 0
          0 0 0 0 0 0
          0 0 0 0 0 0
          0 0 0 0 0 0
          0 0 0 0 0 0
          0 0 0 0 0 0
          0 0 0 0 0 0
          0 0 0 0 0 0
          0 0 0 0 0 0
          0 0 0 0 0 0
          0 0 0 0 0 0
          0 0 0 0 0 0
          0 0 0 0 0 0
          0 0 0 0 0 0
          0 0 0 0 0 0
          0 0 0 0 0 0
          0 0 0 0 0 0
          0 0 0 0 0 0
          0 0 0 0 0 0
          0 0 0 0 0 0
          0 0 0 0 0 0
          0 0 0 0 0 0
          0 0 0 0 0 0
          0 0 0 0 0 0
          0 0 0 0 0 0
          0 0 0 0 0 0
          0 0 0 0 0 0
          0 0 0 0 0 0
          0 0 0 0 0 0
          0 0 0 0 0 0
          0 0 0 0 0 0
          0 0 0 0 0 0
          0 0 0 0 0 0
          0 0 0 0 0 0
          0 0 0 0 0 0
          0 0 0 0 0 0
          0 0 0 0 0 0
          0 0 0 0 0 0
          0 0 0 0 0 0
          0 0 0 0 0 0
          0 0 0 0 0 0
          0 0 0 0 0 0
          0 0 0 0 0 0
          0 0 0 0 0 0
          0 0 0 0 0 0
          0 0 0 0 0 0
          0 0 0 0 0 0
          0 0 0 0 0 0
          0 0 0 0 0 0
          0 0 0 0 0 0
          0 0 0 0 0 0
          0 0 0 0 0 0
          0 0 0 0 0 0
          0 0 0 0 0 0
          0 0 0 0 0 0
          0 0 0 0 0 0
          0 0 0 0 0 0
          0 0 0 0 0 0
          0 0 0 0 0 0
          0 0
        </DataArray>
        <DataArray type="Float64" Name="gradient_error" format="ascii" RangeMin="2.911313176226305e-10" RangeMax="0.0000013537529806460578">
          1.107109036830759e-8 5.493665320929519e-9 1.5905928452366257e-8 5.403222740254108e-9 4.145328796270222e-9 3.761212527487655e-9
          9.553262672103993e-8 9.265372150671336e-8 3.576406534193907e-7 5.328588073704628e-8 1.9811610337317683e-8 4.03764404277933e-9
          4.488249121570452e-9 8.723856099107507e-7 1.0293320327816542e-7 0.000001281121822482329 5.5040120894809325e-8 1.6256231927196432e-7
          1.591453915973592e-8 9.09444957057023e-9 2.9216952073916323e-9 2.7376065614637387e-9 1.710447037976815e-7 1.1255657681291167e-7
          2.2773138793296835e-7 9.184858263776965e-7 5.067448998651989e-7 3.752569561700073e-7 4.871845587557562e-7 2.1477194598397387e-8
          1.1055314874016826e-7 2.6699791302564847e-7 4.0776795839195086e-8 3.690274849575026e-8 6.045479562975631e-8 1.7206848789267535e-8
          1.2416454946459763e-7 7.373000106217617e-7 0.0000010252044936035017 3.7449129249838745e-7 3.6153192397123444e-8 1.1541049680905219e-7
          2.7358250796194713e-7 5.479268598822083e-7 4.872052030561889e-7 2.3975204954395014e-7 3.766295886851233e-7 6.756391189054765e-7
          2.602718473270806e-7 2.652904748339408e-7 3.8402326556425974e-7 3.6855605682995957e-7 4.513528737565845e-7 6.463762372033265e-7
          4.27306601020063e-7 1.4110464736794008e-7 2.4893550876425873e-7 5.604937395890197e-7 2.789131455861732e-7 3.8807103339754316e-7
          9.560301740104588e-8 2.433549183817037e-7 2.9435490673411106e-7 3.9276804375341514e-7 3.1669649629482995e-7 3.986612322300544e-7
          1.9166165796955043e-7 3.1572368391521914e-7 3.531048258940671e-7 2.635362190396363e-7 1.9622930157444913e-7 1.3067915094853515e-7
          6.108886489166293e-7 7.821392735147107e-7 4.563664232639604e-7 4.031972833380583e-7 9.619183386315059e-8 8.557068700627496e-8
          1.1319779799060691e-7 0.000001040428993848339 9.437077804007216e-7 8.661238184252384e-7 7.61204510754407e-8 1.7195013612429054e-9
          4.60128113832252e-9 1.7316355752233829e-9 7.483060915402132e-9 0.0000012703107978948857 0.0000010766137715288623 0.00000105768902272563
          0.0000012604835678040365 0.0000010234096600471574 0.000001110318137191459 0.000001205721001685844 5.87027229951535e-7 8.245259551113875e-7
          8.097270936962007e-7 7.584645793393218e-7 0.0000011455142790539265 0.0000013537529806460578 0.00000106202468027124 2.2613846497851276e-7
          2.1920267652320063e-7 2.1777366973757789e-7 1.8158053625984753e-7 1.8925290705212362e-7 2.148328100054613e-7 2.0531838340684866e-7
          2.331000938170136e-7 1.9898456832161457e-7 2.2605764100890422e-7 2.1173653535521607e-7 2.3461052229283178e-7 2.2580310381987988e-7
          2.488010040897496e-7 1.31041962609873e-7 1.7947634872020467e-7 1.729438413740912e-7 1.8877204947703173e-7 2.3742578407719703e-7
          2.522837204709346e-7 2.4488420747996473e-7 2.1168000284426729e-7 2.4030176384261916e-7 2.5651096020126747e-7 2.2633431795017078e-7
          2.5608335982598133e-7 2.374806254562011e-7 2.6258113658869034e-7 2.768187212302186e-7 1.5106506177119985e-7 2.0113742904193245e-7
          2.1558232983778335e-7 2.631074027974355e-7 2.7925798365710727e-7 2.689970992329272e-7 2.4293396151375183e-7 2.7380363339038867e-7
          2.8243905276952116e-7 2.6183259081553214e-7 2.937707339060891e-7 2.577034015219109e-7 2.9236760792644315e-7 3.093769872229611e-7
          1.7595821002681406e-7 2.3210756930473522e-7 2.5110666920735183e-7 2.9637148740306973e-7 3.106679451417232e-7 2.9687631480641324e-7
          2.834983428989671e-7 3.1634827766212274e-7 2.8038329490517833e-7 3.279730318985545e-7 2.103208776265616e-7 2.731229842551732e-7
          3.372201389270588e-7 4.412414479627294e-9 6.83640528413049e-9 6.854481544422209e-9 7.902057703616598e-9 1.7559203969429307e-9
          2.4405749629210508e-9 2.748355292773026e-9 9.296548609217122e-9 8.967710123102704e-9 3.1252295288991704e-9 1.2971178723236275e-7
          1.4852750652549932e-7 2.16201934489668e-7 2.3586269510086268e-7 1.0938254916437773e-7 1.926039958484239e-7 2.0190496812101868e-8
          2.844249528230593e-8 4.34842855933044e-8 1.5842324620848013e-8 3.0269208174697315e-7 3.231978836762261e-7 2.758254425324701e-7
          3.669449375251e-8 1.3086730741051702e-8 8.23897939978994e-9 9.254211546635021e-9 5.820388411927326e-8 4.769620629635933e-8
          2.834501971117584e-8 3.703639003358686e-8 3.3912280585281782e-9 8.993833125992356e-9 1.5868895947900467e-8 8.840071068407316e-8
          1.6674889110143715e-7 6.139640567643283e-9 8.170372993330563e-9 2.450970715188012e-7 1.0201105419017845e-8 2.0567386477045233e-7
          1.99444357560186e-7 2.245363388767505e-7 2.1694316952910402e-7 2.1131858015274746e-7 2.321983435140512e-7 1.7387524215029109e-7
          1.9283392941709128e-7 1.8941504457490273e-7 1.965916462694571e-7 2.433988129830487e-7 2.3444198149802203e-7 2.53078106875355e-7
          2.1179261668389147e-7 1.1320571628921825e-7 1.1400733810610952e-7 1.1697025818331867e-7 1.7860446875510042e-7 1.8090598530137161e-7
          1.6825091954796093e-7 1.6670389438583713e-7 1.1029331827079284e-7 1.828033213785665e-7 1.6936831260250441e-7 1.1480895992300078e-7
          1.5559585379455019e-7 1.5480332001657388e-7 1.559333038264423e-7 1.0362976543725235e-7 1.0565612802469506e-7 1.8414492377466306e-7
          1.6991759328422466e-7 1.076824906121378e-7 1.5569026279378624e-7 2.1684591059997421e-7 2.399954653913655e-7 2.221766740619337e-7
          2.478664124196755e-7 1.7805404625170997e-7 1.9992902019687032e-7 2.0268772739007483e-7 2.6314502018275685e-7 2.7355615077741735e-7
          2.2180399414203067e-7 2.271991972519531e-7 2.5572317075403437e-7 1.7941787873057786e-7 2.046984901362382e-7 2.842471442561157e-7
          2.2997910154189856e-7 2.1657296125244036e-7 2.1216223183501075e-7 1.9395662570938282e-7 1.8215512485112878e-7 1.7998946533046064e-7
          1.9332639729396072e-7 1.8642643047920008e-7 2.0775150241758114e-7 2.0666332925746083e-7 1.906977361072714e-7 1.434059694084809e-7
          1.744905627529107e-7 1.7889623524901736e-7 2.055751560973405e-7 1.585987024665729e-8 9.887328932586368e-9 1.4821020099340154e-8
          7.091834140390919e-8 4.5180161153810516e-8 2.8648106308038192e-8 4.508218612133218e-8 3.914787618515444e-9 1.211605146226587e-8
          1.9246030838755187e-8 2.2478008861996496e-8 1.8418815283502237e-8 2.7363840967527812e-8 6.527874388157032e-8 6.409602811732428e-8
          4.571892881019733e-8 4.915458759644354e-8 1.4359621705007976e-8 2.7341829503070367e-8 3.3030431311316756e-8 1.404373381680706e-7
          1.3520877424112752e-7 1.4370181069651757e-7 1.721836045160142e-7 1.7262520831536097e-7 1.6171242799840544e-7 1.6081848451501944e-7
          1.2364391894166674e-7 1.7387327802903175e-7 1.6325043701745863e-7 1.2998021031418445e-7 1.507996476814499e-7 1.4945336451402462e-7
          1.526275960058855e-7 1.1978680031339417e-7 1.1943952699222103e-7 1.7602964866896438e-7 1.6487092165442234e-7 1.1909225367104789e-7
          1.5371219463988036e-7 1.8960509381790433e-7 1.83152087870467e-7 2.0859242321847652e-7 2.0404489600116723e-7 1.6853435770593744e-7
          1.8837651481008855e-7 1.8879294165039447e-7 2.2757975261904866e-7 2.2493770413186745e-7 2.0821867191423963e-7 4.64912297507874e-8
          3.962657234160154e-8 1.2215690004714252e-8 6.295994838579571e-8 4.6266324867070064e-8 2.9572701348344424e-8 7.633783915901707e-8
          1.4428308549951538e-7 1.462778256824529e-7 2.376417689767069e-8 1.5555823374510483e-8 7.718188271050003e-8 5.123034330168563e-8
          7.347469851350278e-9 2.5278803892871235e-8 5.838225782276601e-7 4.2121302880912147e-7 1.4371255328076628e-7 7.420214864902784e-7
          7.942018475274219e-7 1.3338572723891958e-7 7.12991953100118e-9 5.329446022052824e-9 9.913293088176692e-9 1.503330022397047e-8
          2.432721882635813e-9 3.5333530211093855e-9 5.342281402090217e-9 1.2696666645352203e-8 2.473715442588811e-8 4.633984159582957e-9
          1.6613360953279048e-7 1.8278090486340614e-7 2.5378071611674156e-7 2.7116329371870834e-7 4.1129504325349986e-8 5.885735734739515e-8
          7.383083561266685e-8 3.414278227006927e-7 3.5954568257401053e-7 7.65852103694403e-8 9.280561806459989e-8 7.641813378571125e-8
          6.988534419174707e-8 1.4014093150244967e-7 1.2857276018681772e-7 1.0892947231069263e-7 1.200272101853114e-7 8.047889446330836e-8
          1.226740645512733e-7 1.0325232473834058e-7 6.003064950682263e-8 8.928618443456753e-8 9.99134888681731e-8 8.383058492540786e-8
          6.243751128109151e-7 5.476325732658899e-7 5.4069978135564e-7 7.052770831709239e-7 4.33514515112979e-7 9.477355899685156e-7
          0.0000010171683234445582 0.0000010054307772759147 9.464351126480229e-7 0.0000010924715687127068 0.00000106854716598491 7.476581339503549e-7
          7.248720536255552e-7 7.698796168408873e-7 9.499263235763218e-7 0.0000010570372188557234 9.816397387636413e-7 0.0000011421915847201205
          9.043153549123972e-7 0.0000011950130698371928 0.0000010287626174071677 0.0000011722872023719946 0.0000011345396780008524 5.970876256340104e-7
          7.90592473761297e-7 0.000001149561334906796 0.0000012403167385945372 9.840973218885839e-7 2.2334641317643467e-7 2.3365279866711263e-7
          3.1004044901537654e-7 3.1853647846082375e-7 2.1148479543935034e-7 2.9947813227700045e-7 8.792934845566205e-8 1.1845786123731481e-7
          1.3246348499806744e-7 1.0381979412933941e-7 3.9673448485431843e-7 4.0342015825453487e-7 3.874714691146505e-7 1.4898637401896754e-7
          1.979853960572561e-7 2.866065119885414e-7 6.430770582363439e-8 8.882023008419904e-8 3.752276279198266e-7 1.1333275434476369e-7
          2.338163065980711e-8 4.351623468604425e-8 6.483077145227717e-8 1.6082770013574252e-7 1.3985397990468112e-7 1.188802596736197e-7
          5.24376900041766e-7 7.400143173156975e-8 6.624861392721512e-8 1.5101009447807823e-7 1.3042310397331238e-7 5.849579612286051e-8
          1.0983611346854656e-7 5.974571282181348e-7 5.329667908174984e-7 4.3712134249499386e-7 8.286829631601758e-7 8.429919038038548e-7
          6.799005275519584e-7 8.521071958812626e-7 8.8527506527759e-7 8.925130351222372e-7 7.022311341391306e-7 8.036546313434974e-7
          9.136900826288872e-7 8.293684699428868e-7 2.4996608358001157e-7 3.301839407253081e-7 1.578676707942334e-7 4.1040179787060453e-7
          2.424858455034446e-7 3.2517823222235705e-7 1.1056057035563166e-7 1.4564520113333714e-7 4.078706189412696e-7 1.8072983191104262e-7
          3.5387709139978515e-9 5.052587185959549e-9 2.8701600556624115e-9 2.3238495944477576e-9 3.101023007210401e-9 1.7104627468313206e-9
          5.652515155412078e-9 2.7043210923474407e-9 6.87732925365273e-10 1.108928274897664e-9 3.199024864522404e-10 1.919258682428022e-9
          1.4469247537627572e-8 2.0203157612468557e-9 6.367451846902987e-9 5.853153802644664e-9 2.2108353466166926e-7 5.562368323209305e-9
          2.2647734006579375e-7 3.9893815769355035e-7 3.615556295153149e-7 6.156382342486558e-10 2.190555912518208e-9 2.911313176226305e-10
          8.695555851820427e-10 8.631843442421705e-9 3.76547359078776e-9 1.4479798527414552e-9 3.282192971833985e-7 3.1234139197911584e-7
          3.0855070285671485e-7 3.4199655349395865e-7 3.4829952792256964e-7 2.3291528475655889e-7 2.988984237973048e-7 3.6111791808972626e-7
          1.695169894482564e-8 3.617461304366086e-9 2.9380505481404512e-9 1.1485079137029449e-8 8.896378585541853e-9 2.2586397919148165e-9
          6.0184593292332565e-9 7.600794606257261e-9 3.85704762302394e-8 2.51409127188738e-8 1.171134920750821e-8 8.12146349131147e-8
          6.783129697530572e-8 1.408163805858523e-7 6.768979799042301e-9 3.246296584754785e-7 2.1380146419639892e-7 1.0002045822720244e-7
          1.848063592010998e-7 1.698042794974109e-7 1.5480219979372193e-7 2.3179367913217194e-7 2.634446849299785e-7 2.0573271814602013e-7
          2.950956907277851e-7 4.152820790777036e-9
        </DataArray>
        <DataArray type="Float64" Name="gradient_matprop_error" format="ascii" RangeMin="0" RangeMax="0">
          0 0 0 0 0 0
          0 0 0 0 0 0
          0 0 0 0 0 0
          0 0 0 0 0 0
          0 0 0 0 0 0
          0 0 0 0 0 0
          0 0 0 0 0 0
          0 0 0 0 0 0
          0 0 0 0 0 0
          0 0 0 0 0 0
          0 0 0 0 0 0
          0 0 0 0 0 0
          0 0 0 0 0 0
          0 0 0 0 0 0
          0 0 0 0 0 0
          0 0 0 0 0 0
          0 0 0 0 0 0
          0 0 0 0 0 0
          0 0 0 0 0 0
          0 0 0 0 0 0
          0 0 0 0 0 0
          0 0 0 0 0 0
          0 0 0 0 0 0
          0 0 0 0 0 0
          0 0 0 0 0 0
          0 0 0 0 0 0
          0 0 0 0 0 0
          0 0 0 0 0 0
          0 0 0 0 0 0
          0 0 0 0 0 0
          0 0 0 0 0 0
          0 0 0 0 0 0
          0 0 0 0 0 0
          0 0 0 0 0 0
          0 0 0 0 0 0
          0 0 0 0 0 0
          0 0 0 0 0 0
          0 0 0 0 0 0
          0 0 0 0 0 0
          0 0 0 0 0 0
          0 0 0 0 0 0
          0 0 0 0 0 0
          0 0 0 0 0 0
          0 0 0 0 0 0
          0 0 0 0 0 0
          0 0 0 0 0 0
          0 0 0 0 0 0
          0 0 0 0 0 0
          0 0 0 0 0 0
          0 0 0 0 0 0
          0 0 0 0 0 0
          0 0 0 0 0 0
          0 0 0 0 0 0
          0 0 0 0 0 0
          0 0 0 0 0 0
          0 0 0 0 0 0
          0 0 0 0 0 0
          0 0 0 0 0 0
          0 0 0 0 0 0
          0 0 0 0 0 0
          0 0 0 0 0 0
          0 0 0 0 0 0
          0 0 0 0 0 0
          0 0 0 0 0 0
          0 0 0 0 0 0
          0 0 0 0 0 0
          0 0 0 0 0 0
          0 0 0 0 0 0
          0 0 0 0 0 0
          0 0 0 0 0 0
          0 0 0 0 0 0
          0 0 0 0 0 0
          0 0 0 0 0 0
          0 0 0 0 0 0
          0 0 0 0 0 0
          0 0 0 0 0 0
          0 0 0 0 0 0
          0 0 0 0 0 0
          0 0 0 0 0 0
          0 0 0 0 0 0
          0 0 0 0 0 0
          0 0 0 0 0 0
          0 0 0 0 0 0
          0 0 0 0 0 0
          0 0 0 0 0 0
          0 0
        </DataArray>
        <DataArray type="Float64" Name="initial_marker" format="ascii" RangeMin="0" RangeMax="2">
          0 0 0 0 0 0
          0 0 0 0 0 0
          0 0 0 0 0 2
          0 0 0 0 0 0
          0 0 0 0 0 0
          0 0 0 0 0 0
          1 0 0 0 0 0
          0 0 0 0 0 0
          0 0.5 0 0 0 0
          0 2 0.5 0 1 0
          0 0 1 0 0 0
          2 1 0 0 0 0
          0 0 0 0 0 0
          0 0 0 0 0 0
          0 0 0 0 0 0
          0 0 0 0 0 0
          0 0 0 0 0 0
          0 0 0.5 1 0.5 0.25
          0 1 0.75 0 0 0
          0.25 2 1 0.5 1.5 0
          0 0 1 1 0.25 1.5
          1.25 0 0.5 0.5 2 2
          2 1 1 0.5 2 1.5
          0.5 2 1.5 0 0.5 0.5
          2 2 2 1 1 0.75
          2 1.75 0.3333333333333333 0.75 2 2
          1 0 0 0 0 0
          0 0 0 0 0 0
          0 0 0 0 0 0
          0 0 0 0 0 0
          0 0 0 0 0 0
          0 0 0 0 0 0
          0 0 0 0 0 0
          0 0 0 0 0 0
          0 0 0 0 0 0
          0 0 0 0 0 0
          0 0 0 0 0 0
          0 0 0 0 0 0
          0 0 0 0 0 0
          0 0 0 0 0 0
          0 0 0 0 0 0
          0 0 0 0 0 0
          0 0 0 0 0 0
          0 0 0 0 0 0
          0 0 0 0 0 0
          0 0 0 0 0 0
          0 0 0 0 0 0
          0 0 0 0 0 0
          0 0 0 0 0 0
          0 0 0 0 0 0
          0 0 0 0 0 0
          0 0 0 0 0 0
          0 0 0 0 0 0
          0 0 0 0 0 0
          0 0 0 0 0 0
          0 0 0 0 0 0
          0 0 0 0 0 0
          0 0 0 0 0 0
          0 0 0 0 0 0
          0 0 0 0 0 0
          0 0 0 0 0 0
          0 0 0 0 0 0
          0 0 0 0 0 0
          0 0 0 0 0 0
          0 0 0 0 0 0
          0 0 0 0 0 0
          0 0 0 0 0 0
          0 0 0 0 0 0
          0 0 0 0 0 0
          0 0 0 0 0 0
          0 0 0 0 0 0
          0 0 0 0 0 0
          0 0 0 0 0 0
          0 0 0 0 0 0
          0 0 0 0 0 0
          0 0 0 0 0 0
          0 0 0 0 0 0
          0 0 0 0 0 0
          0 0.5 0 0 0 0
          0 0 0 0 1 1
          2 2 1 2 2 1
          0 0 0 0 0 0
          0 0 0 0 0 0
          0 0 0 0 0 0
          0 0 0 0 0 0
          0 0
        </DataArray>
        <DataArray type="Float64" Name="markers_norefine" format="ascii" RangeMin="0" RangeMax="0">
          0 0 0 0 0 0
          0 0 0 0 0 0
          0 0 0 0 0 0
          0 0 0 0 0 0
          0 0 0 0 0 0
          0 0 0 0 0 0
          0 0 0 0 0 0
          0 0 0 0 0 0
          0 0 0 0 0 0
          0 0 0 0 0 0
          0 0 0 0 0 0
          0 0 0 0 0 0
          0 0 0 0 0 0
          0 0 0 0 0 0
          0 0 0 0 0 0
          0 0 0 0 0 0
          0 0 0 0 0 0
          0 0 0 0 0 0
          0 0 0 0 0 0
          0 0 0 0 0 0
          0 0 0 0 0 0
          0 0 0 0 0 0
          0 0 0 0 0 0
          0 0 0 0 0 0
          0 0 0 0 0 0
          0 0 0 0 0 0
          0 0 0 0 0 0
          0 0 0 0 0 0
          0 0 0 0 0 0
          0 0 0 0 0 0
          0 0 0 0 0 0
          0 0 0 0 0 0
          0 0 0 0 0 0
          0 0 0 0 0 0
          0 0 0 0 0 0
          0 0 0 0 0 0
          0 0 0 0 0 0
          0 0 0 0 0 0
          0 0 0 0 0 0
          0 0 0 0 0 0
          0 0 0 0 0 0
          0 0 0 0 0 0
          0 0 0 0 0 0
          0 0 0 0 0 0
          0 0 0 0 0 0
          0 0 0 0 0 0
          0 0 0 0 0 0
          0 0 0 0 0 0
          0 0 0 0 0 0
          0 0 0 0 0 0
          0 0 0 0 0 0
          0 0 0 0 0 0
          0 0 0 0 0 0
          0 0 0 0 0 0
          0 0 0 0 0 0
          0 0 0 0 0 0
          0 0 0 0 0 0
          0 0 0 0 0 0
          0 0 0 0 0 0
          0 0 0 0 0 0
          0 0 0 0 0 0
          0 0 0 0 0 0
          0 0 0 0 0 0
          0 0 0 0 0 0
          0 0 0 0 0 0
          0 0 0 0 0 0
          0 0 0 0 0 0
          0 0 0 0 0 0
          0 0 0 0 0 0
          0 0 0 0 0 0
          0 0 0 0 0 0
          0 0 0 0 0 0
          0 0 0 0 0 0
          0 0 0 0 0 0
          0 0 0 0 0 0
          0 0 0 0 0 0
          0 0 0 0 0 0
          0 0 0 0 0 0
          0 0 0 0 0 0
          0 0 0 0 0 0
          0 0 0 0 0 0
          0 0 0 0 0 0
          0 0 0 0 0 0
          0 0 0 0 0 0
          0 0 0 0 0 0
          0 0
        </DataArray>
        <DataArray type="Float64" Name="markers_mustrefine" format="ascii" RangeMin="0" RangeMax="2">
          0 0 0 0 0 0
          0 0 0 0 0 0
          0 0 0 0 0 2
          0 0 0 0 0 0
          0 0 0 0 0 0
          0 0 0 0 0 0
          1 0 0 0 0 0
          0 0 0 0 0 0
          0 0.5 0 0 0 0
          0 2 0.5 0 1 0
          0 0 1 0 0 0
          2 1 0 0 0 0
          0 0 0 0 0 0
          0 0 0 0 0 0
          0 0 0 0 0 0
          0 0 0 0 0 0
          0 0 0 0 0 0
          0 0 0.5 1 0.5 0.25
          0 1 0.75 0 0 0
          0.25 2 1 0.5 1.5 0
          0 0 1 1 0.25 1.5
          1.25 0 0.5 0.5 2 2
          2 1 1 0.5 2 1.5
          0.5 2 1.5 0 0.5 0.5
          2 2 2 1 1 0.75
          2 1.75 0.3333333333333333 0.75 2 2
          1 0 0 0 0 0
          0 0 0 0 0 0
          0 0 0 0 0 0
          0 0 0 0 0 0
          0 0 0 0 0 0
          0 0 0 0 0 0
          0 0 0 0 0 0
          0 0 0 0 0 0
          0 0 0 0 0 0
          0 0 0 0 0 0
          0 0 0 0 0 0
          0 0 0 0 0 0
          0 0 0 0 0 0
          0 0 0 0 0 0
          0 0 0 0 0 0
          0 0 0 0 0 0
          0 0 0 0 0 0
          0 0 0 0 0 0
          0 0 0 0 0 0
          0 0 0 0 0 0
          0 0 0 0 0 0
          0 0 0 0 0 0
          0 0 0 0 0 0
          0 0 0 0 0 0
          0 0 0 0 0 0
          0 0 0 0 0 0
          0 0 0 0 0 0
          0 0 0 0 0 0
          0 0 0 0 0 0
          0 0 0 0 0 0
          0 0 0 0 0 0
          0 0 0 0 0 0
          0 0 0 0 0 0
          0 0 0 0 0 0
          0 0 0 0 0 0
          0 0 0 0 0 0
          0 0 0 0 0 0
          0 0 0 0 0 0
          0 0 0 0 0 0
          0 0 0 0 0 0
          0 0 0 0 0 0
          0 0 0 0 0 0
          0 0 0 0 0 0
          0 0 0 0 0 0
          0 0 0 0 0 0
          0 0 0 0 0 0
          0 0 0 0 0 0
          0 0 0 0 0 0
          0 0 0 0 0 0
          0 0 0 0 0 0
          0 0 0 0 0 0
          0 0 0 0 0 0
          0 0.5 0 0 0 0
          0 0 0 0 1 1
          2 2 1 2 2 1
          0 0 0 0 0 0
          0 0 0 0 0 0
          0 0 0 0 0 0
          0 0 0 0 0 0
          0 0
        </DataArray>
        <DataArray type="Float64" Name="gradient_marker" format="ascii" RangeMin="1" RangeMax="1">
          1 1 1 1 1 1
          1 1 1 1 1 1
          1 1 1 1 1 1
          1 1 1 1 1 1
          1 1 1 1 1 1
          1 1 1 1 1 1
          1 1 1 1 1 1
          1 1 1 1 1 1
          1 1 1 1 1 1
          1 1 1 1 1 1
          1 1 1 1 1 1
          1 1 1 1 1 1
          1 1 1 1 1 1
          1 1 1 1 1 1
          1 1 1 1 1 1
          1 1 1 1 1 1
          1 1 1 1 1 1
          1 1 1 1 1 1
          1 1 1 1 1 1
          1 1 1 1 1 1
          1 1 1 1 1 1
          1 1 1 1 1 1
          1 1 1 1 1 1
          1 1 1 1 1 1
          1 1 1 1 1 1
          1 1 1 1 1 1
          1 1 1 1 1 1
          1 1 1 1 1 1
          1 1 1 1 1 1
          1 1 1 1 1 1
          1 1 1 1 1 1
          1 1 1 1 1 1
          1 1 1 1 1 1
          1 1 1 1 1 1
          1 1 1 1 1 1
          1 1 1 1 1 1
          1 1 1 1 1 1
          1 1 1 1 1 1
          1 1 1 1 1 1
          1 1 1 1 1 1
          1 1 1 1 1 1
          1 1 1 1 1 1
          1 1 1 1 1 1
          1 1 1 1 1 1
          1 1 1 1 1 1
          1 1 1 1 1 1
          1 1 1 1 1 1
          1 1 1 1 1 1
          1 1 1 1 1 1
          1 1 1 1 1 1
          1 1 1 1 1 1
          1 1 1 1 1 1
          1 1 1 1 1 1
          1 1 1 1 1 1
          1 1 1 1 1 1
          1 1 1 1 1 1
          1 1 1 1 1 1
          1 1 1 1 1 1
          1 1 1 1 1 1
          1 1 1 1 1 1
          1 1 1 1 1 1
          1 1 1 1 1 1
          1 1 1 1 1 1
          1 1 1 1 1 1
          1 1 1 1 1 1
          1 1 1 1 1 1
          1 1 1 1 1 1
          1 1 1 1 1 1
          1 1 1 1 1 1
          1 1 1 1 1 1
          1 1 1 1 1 1
          1 1 1 1 1 1
          1 1 1 1 1 1
          1 1 1 1 1 1
          1 1 1 1 1 1
          1 1 1 1 1 1
          1 1 1 1 1 1
          1 1 1 1 1 1
          1 1 1 1 1 1
          1 1 1 1 1 1
          1 1 1 1 1 1
          1 1 1 1 1 1
          1 1 1 1 1 1
          1 1 1 1 1 1
          1 1 1 1 1 1
          1 1
        </DataArray>
        <DataArray type="Float64" Name="gradient_matprop_marker" format="ascii" RangeMin="0" RangeMax="0">
          0 0 0 0 0 0
          0 0 0 0 0 0
          0 0 0 0 0 0
          0 0 0 0 0 0
          0 0 0 0 0 0
          0 0 0 0 0 0
          0 0 0 0 0 0
          0 0 0 0 0 0
          0 0 0 0 0 0
          0 0 0 0 0 0
          0 0 0 0 0 0
          0 0 0 0 0 0
          0 0 0 0 0 0
          0 0 0 0 0 0
          0 0 0 0 0 0
          0 0 0 0 0 0
          0 0 0 0 0 0
          0 0 0 0 0 0
          0 0 0 0 0 0
          0 0 0 0 0 0
          0 0 0 0 0 0
          0 0 0 0 0 0
          0 0 0 0 0 0
          0 0 0 0 0 0
          0 0 0 0 0 0
          0 0 0 0 0 0
          0 0 0 0 0 0
          0 0 0 0 0 0
          0 0 0 0 0 0
          0 0 0 0 0 0
          0 0 0 0 0 0
          0 0 0 0 0 0
          0 0 0 0 0 0
          0 0 0 0 0 0
          0 0 0 0 0 0
          0 0 0 0 0 0
          0 0 0 0 0 0
          0 0 0 0 0 0
          0 0 0 0 0 0
          0 0 0 0 0 0
          0 0 0 0 0 0
          0 0 0 0 0 0
          0 0 0 0 0 0
          0 0 0 0 0 0
          0 0 0 0 0 0
          0 0 0 0 0 0
          0 0 0 0 0 0
          0 0 0 0 0 0
          0 0 0 0 0 0
          0 0 0 0 0 0
          0 0 0 0 0 0
          0 0 0 0 0 0
          0 0 0 0 0 0
          0 0 0 0 0 0
          0 0 0 0 0 0
          0 0 0 0 0 0
          0 0 0 0 0 0
          0 0 0 0 0 0
          0 0 0 0 0 0
          0 0 0 0 0 0
          0 0 0 0 0 0
          0 0 0 0 0 0
          0 0 0 0 0 0
          0 0 0 0 0 0
          0 0 0 0 0 0
          0 0 0 0 0 0
          0 0 0 0 0 0
          0 0 0 0 0 0
          0 0 0 0 0 0
          0 0 0 0 0 0
          0 0 0 0 0 0
          0 0 0 0 0 0
          0 0 0 0 0 0
          0 0 0 0 0 0
          0 0 0 0 0 0
          0 0 0 0 0 0
          0 0 0 0 0 0
          0 0 0 0 0 0
          0 0 0 0 0 0
          0 0 0 0 0 0
          0 0 0 0 0 0
          0 0 0 0 0 0
          0 0 0 0 0 0
          0 0 0 0 0 0
          0 0 0 0 0 0
          0 0
        </DataArray>
        <DataArray type="Float64" Name="combo" format="ascii" RangeMin="1" RangeMax="1">
          1 1 1 1 1 1
          1 1 1 1 1 1
          1 1 1 1 1 1