<?xml version="1.0"?>
<VTKFile type="UnstructuredGrid" version="0.1" byte_order="LittleEndian" header_type="UInt32" compressor="vtkZLibDataCompressor">
  <UnstructuredGrid>
    <Piece NumberOfPoints="461" NumberOfCells="271">
      <PointData>
        <DataArray type="Int32" Name="libmesh_node_id" format="ascii" RangeMin="413" RangeMax="4054">
          413 421 518 519 520 813
          814 817 818 819 825 847
          848 849 850 854 1130 1131
          1132 1133 1134 1135 1136 1137
          1138 1139 1147 1148 1149 1150
          1154 1155 1584 1585 1586 1589
          1594 1595 1596 1597 1598 1599
          1600 1601 1602 1603 1604 1605
          1606 1607 1610 1618 1619 1620
          1621 1622 1625 1626 1638 1639
          1640 1641 1642 1643 1644 1645
          1646 1647 1655 1656 1659 1660
          1716 1717 1718 1719 1720 1721
          1722 1723 1724 1725 1726 1727
          1728 1729 1744 1745 1764 1765
          2007 2008 2009 2012 2013 2014
          2015 2016 2017 2018 2019 2020
          2021 2022 2025 2026 2030 2031
          2032 2033 2034 2035 2036 2037
          2038 2039 2040 2041 2042 2043
          2044 2045 2046 3092 3093 3094
          3097 3100 3114 3115 3118 3120
          3134 3135 3137 3150 3152 3156
          3157 3158 3159 3160 3161 3162
          3163 3164 3165 3166 3167 3168
          3169 3170 3171 3172 3173 3174
          3175 3176 3177 3178 3179 3180
          3181 3182 3183 3184 3185 3186
          3187 3188 3189 3190 3191 3192
          3193 3194 3195 3196 3197 3198
          3199 3200 3201 3202 3203 3204
          3205 3206 3207 3208 3209 3210
          3211 3212 3213 3214 3215 3216
          3217 3218 3219 3220 3221 3222
          3223 3224 3225 3226 3227 3228
          3229 3230 3231 3232 3233 3234
          3235 3236 3237 3250 3251 3256
          3266 3292 3293 3294 3295 3296
          3297 3298 3299 3300 3301 3302
          3303 3304 3305 3306 3307 3308
          3309 3310 3311 3312 3313 3314
          3315 3316 3317 3318 3407 3408
          3409 3410 3411 3412 3413 3414
          3415 3416 3417 3418 3419 3420
          3421 3422 3423 3424 3425 3426
          3427 3428 3429 3430 3431 3432
          3433 3434 3435 3436 3437 3438
          3439 3440 3441 3442 3443 3444
          3445 3446 3447 3448 3449 3450
          3451 3452 3453 3454 3455 3456
          3457 3458 3459 3460 3461 3462
          3463 3464 3465 3466 3467 3468
          3469 3470 3471 3472 3473 3474
          3531 3532 3533 3534 3535 3536
          3537 3538 3539 3540 3541 3542
          3543 3544 3559 3560 3561 3562
          3563 3564 3565 3566 3567 3568
          3569 3570 3571 3572 3730 3731
          3732 3733 3734 3735 3736 3737
          3738 3739 3740 3741 3742 3743
          3744 3745 3746 3747 3748 3749
          3750 3751 3752 3753 3754 3755
          3756 3757 3758 3759 3760 3761
          3762 3763 3764 3765 3766 3767
          3768 3769 3770 3771 3772 3773
          3774 3775 3776 3777 3778 3779
          3780 3781 3782 3783 3784 3785
          3786 3787 3788 3789 3790 3791
          3792 3793 3794 3843 3844 3845
          3846 3847 3848 3849 3850 3852
          3883 3884 3885 3886 3887 3888
          3889 3890 3891 3892 3893 3894
          3895 3896 3897 3898 3903 3904
          3905 3906 3907 3908 3909 3910
          3911 3912 3913 3917 3918 3921
          3923 3924 3926 3937 3939 3941
          3943 4019 4023 4050 4054
        </DataArray>
        <DataArray type="Float64" Name="bounds" format="ascii" RangeMin="0" RangeMax="0">
          0 0 0 0 0 0
          0 0 0 0 0 0
          0 0 0 0 0 0
          0 0 0 0 0 0
          0 0 0 0 0 0
          0 0 0 0 0 0
          0 0 0 0 0 0
          0 0 0 0 0 0
          0 0 0 0 0 0
          0 0 0 0 0 0
          0 0 0 0 0 0
          0 0 0 0 0 0
          0 0 0 0 0 0
          0 0 0 0 0 0
          0 0 0 0 0 0
          0 0 0 0 0 0
          0 0 0 0 0 0
          0 0 0 0 0 0
          0 0 0 0 0 0
          0 0 0 0 0 0
          0 0 0 0 0 0
          0 0 0 0 0 0
          0 0 0 0 0 0
          0 0 0 0 0 0
          0 0 0 0 0 0
          0 0 0 0 0 0
          0 0 0 0 0 0
          0 0 0 0 0 0
          0 0 0 0 0 0
          0 0 0 0 0 0
          0 0 0 0 0 0
          0 0 0 0 0 0
          0 0 0 0 0 0
          0 0 0 0 0 0
          0 0 0 0 0 0
          0 0 0 0 0 0
          0 0 0 0 0 0
          0 0 0 0 0 0
          0 0 0 0 0 0
          0 0 0 0 0 0
          0 0 0 0 0 0
          0 0 0 0 0 0
          0 0 0 0 0 0
          0 0 0 0 0 0
          0 0 0 0 0 0
          0 0 0 0 0 0
          0 0 0 0 0 0
          0 0 0 0 0 0
          0 0 0 0 0 0
          0 0 0 0 0 0
          0 0 0 0 0 0
          0 0 0 0 0 0
          0 0 0 0 0 0
          0 0 0 0 0 0
          0 0 0 0 0 0
          0 0 0 0 0 0
          0 0 0 0 0 0
          0 0 0 0 0 0
          0 0 0 0 0 0
          0 0 0 0 0 0
          0 0 0 0 0 0
          0 0 0 0 0 0
          0 0 0 0 0 0
          0 0 0 0 0 0
          0 0 0 0 0 0
          0 0 0 0 0 0
          0 0 0 0 0 0
          0 0 0 0 0 0
          0 0 0 0 0 0
          0 0 0 0 0 0
          0 0 0 0 0 0
          0 0 0 0 0 0
          0 0 0 0 0 0
          0 0 0 0 0 0
          0 0 0 0 0 0
          0 0 0 0 0 0
          0 0 0 0 0
        </DataArray>
        <DataArray type="Float64" Name="gradient_error" format="ascii" RangeMin="4.302179532435186e-12" RangeMax="7.994250893534145e-9">
          3.6524308379798995e-11 2.879304283917115e-9 4.7844051885566586e-11 3.043812447542541e-11 4.5803564049789134e-11 1.620954559827853e-10
          1.0473043631122626e-10 4.979386319418222e-11 5.969818759966357e-10 2.4174264906703204e-10 1.3275688983150398e-9 2.3957654120224876e-11
          2.1758169644988047e-11 7.029176990941249e-11 2.8775961324993477e-11 1.7362462094644333e-11 1.206131189750149e-10 1.0497991699625639e-10
          8.495459193501815e-11 7.11822471897833e-11 2.615413084569432e-11 2.049459943566589e-11 2.3576712600493823e-11 8.25615010426871e-11
          1.194560993124123e-10 3.6570841931679325e-11 6.028365759554842e-12 5.7429927434335236e-12 8.161588284416179e-12 1.3213528835708759e-11
          6.624717428847541e-12 1.533847732894706e-11 1.4526437754896225e-10 4.653477070075326e-10 3.9200738598182927e-10 2.362219137877517e-10
          7.253579177915373e-11 6.458560358659576e-11 2.0740716142465234e-10 1.7433827640341625e-10 2.6593996242323095e-11 8.384072669479228e-11
          7.041373377564602e-11 6.477123360458581e-11 1.191790504684904e-10 6.522500588730536e-11 1.4462068835370448e-9 1.1545180562233151e-9
          4.744391020090318e-10 5.93258526021157e-10 1.2703513140770566e-10 7.45654279040611e-11 8.874014634801209e-11 6.379492580445715e-11
          5.4992156050754574e-11 7.002801276447545e-11 2.0823783658890872e-10 8.433477868916787e-11 5.17644132336516e-9 4.216521213172814e-9
          2.30903798551408e-9 1.8401975501402685e-9 2.095355079408222e-9 8.776533721305397e-10 5.844026637958277e-9 5.461793408515442e-9
          2.5350226644116177e-9 3.0950149493712215e-9 6.218397481709919e-10 2.538185601854439e-10 9.162259644844164e-10 3.7629021671069494e-10
          2.328985220882942e-11 2.0584250119830074e-11 4.0911350873955745e-11 3.4819436606875286e-11 2.3636864920611533e-11 2.5653536694735867e-11
          2.224002410168896e-11 2.728028313164636e-11 2.9110007851897093e-11 1.4767599665304667e-11 2.1725842367394572e-10 1.725648297672089e-10
          5.595612884944328e-11 8.801319943044089e-11 3.419488515102654e-11 2.668070780132664e-11 8.710310163243997e-10 6.849998976030156e-10
          4.5999051015178484e-11 1.4053813469866547e-10 1.2791984591336559e-10 9.600868077547609e-11 2.3768078183610736e-11 2.2524334102394353e-11
          6.424570062442444e-11 5.819887368273096e-11 1.1165631341375945e-11 2.7682041300320882e-11 2.486352403795026e-11 1.9069259036841468e-11
          4.2753159194145554e-11 2.089459067751864e-11 3.113606175749835e-11 6.213899664794062e-11 1.5744450248922553e-11 2.761405320188704e-11
          1.1627795921753343e-11 1.6844223127832607e-11 1.463097244534015e-11 2.1873834756520442e-11 1.5094687774268568e-11 5.596527299856467e-12
          5.817046532111582e-12 1.0515247742125072e-11 9.851359062732482e-12 4.302179532435186e-12 5.036090005643375e-12 5.3471323548855155e-12
          6.037565764366697e-12 9.187470383339894e-12 5.658174704127656e-12 8.9313871533553e-11 1.7252042266431535e-10 1.6615091696803957e-10
          1.4845927156018426e-10 4.4575005817628884e-10 6.853673148911726e-11 1.2324621395348258e-10 9.516717549741839e-11 3.170422118404799e-10
          1.2327013667317823e-9 1.173646872851143e-9 1.013527072059581e-9 7.95622877883169e-10 5.699675881721138e-10 6.15669084131389e-11
          5.940076811429766e-11 1.1560427952590825e-10 1.1128142819252065e-10 3.88400708919994e-11 7.587044712252884e-11 7.298517860614476e-11
          5.380223020817261e-11 9.94485156339867e-11 6.530600771225258e-11 3.14485291155427e-10 3.011690964998231e-10 1.9858910135866758e-10
          2.6457515590916373e-10 2.5954403106034525e-11 2.4964911892584402e-11 4.8705801505416956e-11 4.684506131808835e-11 1.6078691734689133e-11
          3.059121303046818e-11 2.94313566951207e-11 2.270977483515303e-11 4.1926677501235875e-11 2.6331610154680535e-11 1.3350911776781974e-10
          1.27822528370892e-10 8.027346410072887e-11 1.1217132323080568e-10 4.65538905982571e-11 8.249013820483575e-11 3.1786942866318896e-11
          5.4017603781782495e-11 3.843953876052562e-11 6.333698395785465e-11 4.571963000319522e-11 2.1368273996869893e-10 1.4020498887916398e-10
          1.5862046768649602e-10 2.1343310864006763e-11 3.482584754088784e-11 1.3845370601688057e-11 2.203931575381255e-11 2.124249273684175e-11
          3.0782661210063693e-11 1.9686911558037256e-11 8.970324122201975e-11 5.621313296494757e-11 7.783924135877122e-11 8.441316123179255e-10
          8.031213011850264e-10 5.614534428544538e-10 5.339505533389794e-10 6.921851667062477e-10 4.5958892414296937e-10 2.139854685971353e-9
          2.02488815789773e-9 1.3669308983034942e-9 1.7156033368106397e-9 3.631388752297066e-10 3.4525707642652105e-10 2.2864434647448115e-10
          2.1736464145957937e-10 2.969369977935158e-10 1.8687640008877718e-10 9.444718370523054e-10 8.920238211936858e-10 5.635721972298201e-10
          7.518538292718043e-10 5.422847357254399e-10 3.596436317139627e-10 3.8778894456021445e-10 2.5684442897869773e-10 1.3024874060275292e-9
          8.726651638221706e-10 8.896984883863109e-10 2.3195484235241586e-10 1.4574044891820249e-10 1.6512434982993245e-10 1.0348441226097766e-10
          5.667109344438055e-10 3.570675916330426e-10 3.841769377243875e-10 4.311113344511606e-11 6.837300258476217e-11 1.6194563787867173e-10
          3.7513050497533167e-10 3.0479706844126046e-11 4.5461901019419954e-11 2.6112041022216963e-11 3.624302666447035e-11 2.6818284762826254e-11
          3.729165612396176e-11 3.037336777699606e-11 1.0826616468556657e-10 8.403285822116146e-11 8.09518407329651e-11 2.54323040809351e-10
          1.6791843393498625e-10 1.5385243335675705e-10 1.0130989821873035e-10 5.517397688782374e-10 3.6629733036762317e-10 3.148311859016274e-10
          6.514102536754337e-11 1.0764629756864742e-10 4.045387868320315e-11 6.738074527254849e-11 4.065087134312911e-11 6.489345107471291e-11
          4.058695155080818e-11 2.366288592853947e-10 1.4880110260060648e-10 1.342515140992999e-10 4.574443922735254e-9 4.327571326373403e-9
          3.1690531861407606e-9 2.9915275569468327e-9 3.6543462681588325e-9 2.5108517029624018e-9 7.233295960067922e-9 6.916247916082028e-9
          4.928611151761134e-9 5.9829896754294525e-9 2.1085153483199398e-9 1.986887926048346e-9 1.349247874411379e-9 1.269793421643834e-9
          1.6596738146981213e-9 1.0570736010304758e-9 3.5346686873427885e-9 3.3543423297191925e-9 2.1853395551362036e-9 2.8445577392926835e-9
          2.739978388557386e-9 1.8663243025899008e-9 1.8208878620670713e-9 1.2286755409060921e-9 4.582986540885163e-9 3.1831176823435057e-9
          3.0628772647852815e-9 1.225650191245801e-9 7.772017542144788e-10 8.01579660630716e-10 5.062287484643625e-10 2.122386716632532e-9
          1.3606609834029774e-9 1.3807145726928732e-9 7.994250893534145e-9 7.875926182261529e-9 5.965865741434788e-9 5.82364580238141e-9
          7.264361747939991e-9 5.258176512194705e-9 7.620022633423922e-9 7.691789366951495e-9 5.817115808808144e-9 7.44054483037143e-9
          4.211308147253081e-9 4.0823095909004e-9 2.8293844858596727e-9 2.7269922743682745e-9 3.626161509624751e-9 2.3895933947318828e-9
          4.2120826571844266e-9 4.1492570389265874e-9 2.8127142636654233e-9 3.809522440809509e-9 5.8989722032084275e-9 4.170938102869858e-9
          4.083191299497353e-9 2.826420502670884e-9 6.28258366703114e-9 4.478084668955008e-9 4.4495781996882825e-9 2.8229151017641017e-9
          1.831815499540734e-9 1.8799963219252933e-9 1.203523999267244e-9 3.051746870345692e-9 1.9918652502508324e-9 2.0670201967408482e-9
          1.080332388406667e-9 7.228808276673404e-10 5.823707827479026e-10 3.8719443868335177e-10 1.788751701381422e-9 1.207358461276431e-9
          9.305445482409405e-10 4.690625591028132e-10 2.954409468254722e-10 2.5029703840344795e-10 1.574281997227615e-10 7.879340338049431e-10
          4.977376640706442e-10 4.0318331110434413e-10 2.4093235863578503e-9 1.638021194273827e-9 1.2396309248251874e-9 8.317377763864709e-10
          2.650886856451999e-9 1.8074670472858188e-9 1.3634115662176587e-9 1.0746663100131558e-9 6.812720609751336e-10 5.407444374132983e-10
          3.4094442023727925e-10 1.1884835218210141e-9 7.546560941206041e-10 5.963493320325012e-10 1.1208499432235644e-11 1.0794533692543891e-11
          1.8641151985155804e-11 1.7945204812138337e-11 9.022123344726334e-12 1.39307088971328e-11 1.3426317207163589e-11 9.756368738327158e-12
          1.605954696737772e-11 1.1990053904858823e-11 5.128399324991463e-11 4.910993364132062e-11 3.5332839097318064e-11 4.308755417223632e-11
          8.920867689062643e-12 1.3447783381734045e-11 7.167319211982256e-12 1.0156037504709179e-11 8.709565854323106e-12 1.2025730467833528e-11
          9.253892716895092e-12 3.439307034238175e-11 2.4754634110171903e-11 2.97421072932527e-11 1.4045925591011642e-10 1.3353935970349406e-10
          8.389503151418833e-11 7.977708475431164e-11 1.1480950838323199e-10 6.860195735342764e-11 3.65641157236174e-10 3.451077885469709e-10
          2.0505815830614996e-10 2.9038439510477273e-10 2.6298616755618256e-11 2.5150958528024995e-11 4.842909145701663e-11 4.606166293938405e-11
          1.3968939026463585e-11 2.7206113330190187e-11 2.5883098097246426e-11 2.194291348104617e-11 3.9635008346220955e-11 2.2303540230376225e-11
          1.2537283651075537e-10 1.1835376054441428e-10 6.637820970068828e-11 9.966498114979886e-11 8.945406821104975e-11 5.346082354817303e-11
          6.34264627920731e-11 3.7965872035659595e-11 2.184567694967692e-10 1.2988953013551845e-10 1.478829065947574e-10 1.751334908223431e-11
          3.094740969600253e-11 9.83445718935047e-12 1.7471523956681585e-11 1.2857061063281491e-11 2.2048574388177894e-11 1.2486457871041561e-11
          7.511718696726904e-11 4.2263033191022374e-11 5.100752209202824e-11 2.4887664961856033e-11 4.1318780811764725e-11 1.5139780665141347e-11
          2.4689953411736865e-11 1.5739270910463707e-11 2.4780331960910486e-11 1.6956691857459176e-11 9.121436425402218e-11 5.161419554507634e-11
          8.321211585883021e-10 7.824441495390394e-10 4.955668492407673e-10 4.657423597826102e-10 6.499321785793707e-10 3.863981337809391e-10
          1.4465136138298239e-9 1.3660949626117826e-9 8.212564413433692e-10 1.1440654173841698e-9 2.8544057799662253e-10 2.682020542478556e-10
          1.592172374778227e-10 1.4960403418698006e-10 2.2242690445303713e-10 1.241107014421467e-10 4.766130984981429e-10 2.8304384375774843e-10
          3.0982962315918677e-10 1.8395502917044754e-10 8.403452783830192e-10 5.008879358918249e-10 5.390054952542004e-10 1.629584339738115e-10
          9.104879092246587e-11 1.0605283880265562e-10 5.94208936721079e-11 1.8149942697948128e-9 1.7409186706131481e-9 1.5083937754820519e-9
          1.874345644492714e-9 1.8182748660429478e-9 1.61355891676338e-9 1.1420640535686223e-9 7.428206071851021e-10 1.247846903185695e-9
          8.21434369175601e-10 1.8083010164638433e-10 3.046595971821862e-10 4.1785119293432245e-10 4.6336456295067017e-10
        </DataArray>
        <DataArray type="Float64" Name="gradient_matprop_error" format="ascii" RangeMin="0" RangeMax="0">
          0 0 0 0 0 0
          0 0 0 0 0 0
          0 0 0 0 0 0
          0 0 0 0 0 0
          0 0 0 0 0 0
          0 0 0 0 0 0
          0 0 0 0 0 0
          0 0 0 0 0 0
          0 0 0 0 0 0
          0 0 0 0 0 0
          0 0 0 0 0 0
          0 0 0 0 0 0
          0 0 0 0 0 0
          0 0 0 0 0 0
          0 0 0 0 0 0
          0 0 0 0 0 0
          0 0 0 0 0 0
          0 0 0 0 0 0
          0 0 0 0 0 0
          0 0 0 0 0 0
          0 0 0 0 0 0
          0 0 0 0 0 0
          0 0 0 0 0 0
          0 0 0 0 0 0
          0 0 0 0 0 0
          0 0 0 0 0 0
          0 0 0 0 0 0
          0 0 0 0 0 0
          0 0 0 0 0 0
          0 0 0 0 0 0
          0 0 0 0 0 0
          0 0 0 0 0 0
          0 0 0 0 0 0
          0 0 0 0 0 0
          0 0 0 0 0 0
          0 0 0 0 0 0
          0 0 0 0 0 0
          0 0 0 0 0 0
          0 0 0 0 0 0
          0 0 0 0 0 0
          0 0 0 0 0 0
          0 0 0 0 0 0
          0 0 0 0 0 0
          0 0 0 0 0 0
          0 0 0 0 0 0
          0 0 0 0 0 0
          0 0 0 0 0 0
          0 0 0 0 0 0
          0 0 0 0 0 0
          0 0 0 0 0 0
          0 0 0 0 0 0
          0 0 0 0 0 0
          0 0 0 0 0 0
          0 0 0 0 0 0
          0 0 0 0 0 0
          0 0 0 0 0 0
          0 0 0 0 0 0
          0 0 0 0 0 0
          0 0 0 0 0 0
          0 0 0 0 0 0
          0 0 0 0 0 0
          0 0 0 0 0 0
          0 0 0 0 0 0
          0 0 0 0 0 0
          0 0 0 0 0 0
          0 0 0 0 0 0
          0 0 0 0 0 0
          0 0 0 0 0 0
          0 0 0 0 0 0
          0 0 0 0 0 0
          0 0 0 0 0 0
          0 0 0 0 0 0
          0 0 0 0 0 0
          0 0 0 0 0 0
          0 0 0 0 0 0
          0 0 0 0 0 0
          0 0 0 0 0
        </DataArray>
        <DataArray type="Float64" Name="initial_marker" format="ascii" RangeMin="0" RangeMax="2">
          0 2 0 0 0 0
          0 0 2 2 2 0
          0 2 2 0 0 0
          0 0 0 0 0 0
          0 0 0 0 0 0
          0 0 0 2 2 2
          0 0 2 2 0 2
          2 0 1.5 1 2 2
          2 2 0 0 0.5 0
          0.25 0 2 2 2 2
          2 2 2 2 2 2
          2 2 2 2 2 2
          0 0 1.5 1 0 1
          1 0 0.75 0.25 2 2
          2 2 0 0 2 2
          0 0 0 0 0 0
          0 0 0 0 0 0
          0 0 0 0 0 0
          0 0 0 0 0 0
          0 0 0 0 0 0
          0 0 0 0 1 1
          1 2 0 1 1 2
          2 2 2 2 2 0
          0 1 1 0 1 1
          0 1 1 2 2 2
          2 0 0 1 1 0
          1 1 0 1 1 2
          2 2 2 0 1 0
          1 0 0.75 0.6666666666666666 2 2
          1.75 0 0.75 0 0.5 0
          0.5 0 1.75 1.5 1.6666666666666667 2
          2 2 2 2 2 2
          2 2 2 2 2 2
          2 2 2 2 2 2
          2 2 2 2 2 2
          2 2 2 2 2 2
          2 2 2 0 0.5 1.5
          2 0 0.25 0 0 0
          0 0 1.25 1.3333333333333333 1 2
          2 1.75 1.5 2 2 2
          2 2 1.5 1.75 1 1.5
          1.25 2 2 2 2 2
          2 2 2 2 2 2
          2 2 2 2 2 2
          2 2 2 2 2 2
          2 2 2 2 2 2
          2 2 2 2 2 2
          2 2 2 2 2 2
          2 2 2 2 2 2
          2 2 2 2 2 2
          2 2 2 2 2 2
          2 2 2 2 2 2
          2 2 2 2 2 2
          2 2 2 2 2 2
          2 2 2 2 2 2
          2 2 2 2 2 2
          2 2 2 2 2 2
          2 2 2 2 0 0
          1 0.75 0 1 0.5 0
          0.5 0 2 1.75 1.6666666666666667 1.5
          0 0.25 0 0 0 0
          0 1.25 1.3333333333333333 1.3333333333333333 2 2
          2 2 2 2 2 2
          2 2 2 2 2 2
          2 2 2 2 2 2
          2 2 2 2 2 2
          2 1.75 2 2 2 2
          2 1.5 1.75 1 1.5 1.25
          2 2 2 1 1.5 0.5
          1.25 0 0.75 0.6666666666666666 2 1.75
          2 2 2 2 2 2
          2 2 2 2 2 2
          2 2 2 2 2 2
          2 2 2 2 2 2
          2 2 2 2 2 2
          2 2 2 2 2 2
          2 2 2 2 2
        </DataArray>
        <DataArray type="Float64" Name="markers_norefine" format="ascii" RangeMin="0" RangeMax="0">
          0 0 0 0 0 0
          0 0 0 0 0 0
          0 0 0 0 0 0
          0 0 0 0 0 0
          0 0 0 0 0 0
          0 0 0 0 0 0
          0 0 0 0 0 0
          0 0 0 0 0 0
          0 0 0 0 0 0
          0 0 0 0 0 0
          0 0 0 0 0 0
          0 0 0 0 0 0
          0 0 0 0 0 0
          0 0 0 0 0 0
          0 0 0 0 0 0
          0 0 0 0 0 0
          0 0 0 0 0 0
          0 0 0 0 0 0
          0 0 0 0 0 0
          0 0 0 0 0 0
          0 0 0 0 0 0
          0 0 0 0 0 0
          0 0 0 0 0 0
          0 0 0 0 0 0
          0 0 0 0 0 0
          0 0 0 0 0 0
          0 0 0 0 0 0
          0 0 0 0 0 0
          0 0 0 0 0 0
          0 0 0 0 0 0
          0 0 0 0 0 0
          0 0 0 0 0 0
          0 0 0 0 0 0
          0 0 0 0 0 0
          0 0 0 0 0 0
          0 0 0 0 0 0
          0 0 0 0 0 0
          0 0 0 0 0 0
          0 0 0 0 0 0
          0 0 0 0 0 0
          0 0 0 0 0 0
          0 0 0 0 0 0
          0 0 0 0 0 0
          0 0 0 0 0 0
          0 0 0 0 0 0
          0 0 0 0 0 0
          0 0 0 0 0 0
          0 0 0 0 0 0
          0 0 0 0 0 0
          0 0 0 0 0 0
          0 0 0 0 0 0
          0 0 0 0 0 0
          0 0 0 0 0 0
          0 0 0 0 0 0
          0 0 0 0 0 0
          0 0 0 0 0 0
          0 0 0 0 0 0
          0 0 0 0 0 0
          0 0 0 0 0 0
          0 0 0 0 0 0
          0 0 0 0 0 0
          0 0 0 0 0 0
          0 0 0 0 0 0
          0 0 0 0 0 0
          0 0 0 0 0 0
          0 0 0 0 0 0
          0 0 0 0 0 0
          0 0 0 0 0 0
          0 0 0 0 0 0
          0 0 0 0 0 0
          0 0 0 0 0 0
          0 0 0 0 0 0
          0 0 0 0 0 0
          0 0 0 0 0 0
          0 0 0 0 0 0
          0 0 0 0 0 0
          0 0 0 0 0
        </DataArray>
        <DataArray type="Float64" Name="markers_mustrefine" format="ascii" RangeMin="0" RangeMax="2">
          0 2 0 0 0 0
          0 0 2 2 2 0
          0 2 2 0 0 0
          0 0 0 0 0 0
          0 0 0 0 0 0
          0 0 0 2 2 2
          0 0 2 2 0 2
          2 0 1.5 1 2 2
          2 2 0 0 0.5 0
          0.25 0 2 2 2 2
          2 2 2 2 2 2
          2 2 2 2 2 2
          0 0 1.5 1 0 1
          1 0 0.75 0.25 2 2
          2 2 0 0 2 2
          0 0 0 0 0 0
          0 0 0 0 0 0
          0 0 0 0 0 0
          0 0 0 0 0 0
          0 0 0 0 0 0
          0 0 0 0 1 1
          1 2 0 1 1 2
          2 2 2 2 2 0
          0 1 1 0 1 1
          0 1 1 2 2 2
          2 0 0 1 1 0
          1 1 0 1 1 2
          2 2 2 0 1 0
          1 0 0.75 0.6666666666666666 2 2
          1.75 0 0.75 0 0.5 0
          0.5 0 1.75 1.5 1.6666666666666667 2
          2 2 2 2 2 2
          2 2 2 2 2 2
          2 2 2 2 2 2
          2 2 2 2 2 2
          2 2 2 2 2 2
          2 2 2 0 0.5 1.5
          2 0 0.25 0 0 0
          0 0 1.25 1.3333333333333333 1 2
          2 1.75 1.5 2 2 2
          2 2 1.5 1.75 1 1.5
          1.25 2 2 2 2 2
          2 2 2 2 2 2
          2 2 2 2 2 2
          2 2 2 2 2 2
          2 2 2 2 2 2
          2 2 2 2 2 2
          2 2 2 2 2 2
          2 2 2 2 2 2
          2 2 2 2 2 2
          2 2 2 2 2 2
          2 2 2 2 2 2
          2 2 2 2 2 2
          2 2 2 2 2 2
          2 2 2 2 2 2
          2 2 2 2 2 2
          2 2 2 2 2 2
          2 2 2 2 0 0
          1 0.75 0 1 0.5 0
          0.5 0 2 1.75 1.6666666666666667 1.5
          0 0.25 0 0 0 0
          0 1.25 1.3333333333333333 1.3333333333333333 2 2
          2 2 2 2 2 2
          2 2 2 2 2 2
          2 2 2 2 2 2
          2 2 2 2 2 2
          2 1.75 2 2 2 2
          2 1.5 1.75 1 1.5 1.25
          2 2 2 1 1.5 0.5
          1.25 0 0.75 0.6666666666666666 2 1.75
          2 2 2 2 2 2
          2 2 2 2 2 2
          2 2 2 2 2 2
          2 2 2 2 2 2
          2 2 2 2 2 2
          2 2 2 2 2 2
          2 2 2 2 2
        </DataArray>
        <DataArray type="Float64" Name="gradient_marker" format="ascii" RangeMin="1" RangeMax="1">
          1 1 1 1 1 1
          1 1 1 1 1 1
          1 1 1 1 1 1
          1 1 1 1 1 1
          1 1 1 1 1 1
          1 1 1 1 1 1
          1 1 1 1 1 1
          1 1 1 1 1 1
          1 1 1 1 1 1
          1 1 1 1 1 1
          1 1 1 1 1 1
          1 1 1 1 1 1
          1 1 1 1 1 1
          1 1 1 1 1 1
          1 1 1 1 1 1
          1 1 1 1 1 1
          1 1 1 1 1 1
          1 1 1 1 1 1
          1 1 1 1 1 1
          1 1 1 1 1 1
          1 1 1 1 1 1
          1 1 1 1 1 1
          1 1 1 1 1 1
          1 1 1 1 1 1
          1 1 1 1 1 1
          1 1 1 1 1 1
          1 1 1 1 1 1
          1 1 1 1 1 1
          1 1 1 1 1 1
          1 1 1 1 1 1
          1 1 1 1 1 1
          1 1 1 1 1 1
          1 1 1 1 1 1
          1 1 1 1 1 1
          1 1 1 1 1 1
          1 1 1 1 1 1
          1 1 1 1 1 1
          1 1 1 1 1 1
          1 1 1 1 1 1
          1 1 1 1 1 1
          1 1 1 1 1 1
          1 1 1 1 1 1
          1 1 1 1 1 1
          1 1 1 1 1 1
          1 1 1 1 1 1
          1 1 1 1 1 1
          1 1 1 1 1 1
          1 1 1 1 1 1
          1 1 1 1 1 1
          1 1 1 1 1 1
          1 1 1 1 1 1
          1 1 1 1 1 1
          1 1 1 1 1 1
          1 1 1 1 1 1
          1 1 1 1 1 1
          1 1 1 1 1 1
          1 1 1 1 1 1
          1 1 1 1 1 1
          1 1 1 1 1 1
          1 1 1 1 1 1
          1 1 1 1 1 1
          1 1 1 1 1 1
          1 1 1 1 1 1
          1 1 1 1 1 1
          1 1 1 1 1 1
          1 1 1 1 1 1
          1 1 1 1 1 1
          1 1 1 1 1 1
          1 1 1 1 1 1
          1 1 1 1 1 1
          1 1 1 1 1 1
          1 1 1 1 1 1
          1 1 1 1 1 1
          1 1 1 1 1 1
          1 1 1 1 1 1
          1 1 1 1 1 1
          1 1 1 1 1
        </DataArray>
        <DataArray type="Float64" Name="gradient_matprop_marker" format="ascii" RangeMin="0" RangeMax="0">
          0 0 0 0 0 0
          0 0 0 0 0 0
          0 0 0 0 0 0
          0 0 0 0 0 0
          0 0 0 0 0 0
          0 0 0 0 0 0
          0 0 0 0 0 0
          0 0 0 0 0 0
          0 0 0 0 0 0
          0 0 0 0 0 0
          0 0 0 0 0 0
          0 0 0 0 0 0
          0 0 0 0 0 0
          0 0 0 0 0 0
          0 0 0 0 0 0
          0 0 0 0 0 0
          0 0 0 0 0 0
          0 0 0 0 0 0
          0 0 0 0 0 0
          0 0 0 0 0 0
          0 0 0 0 0 0
          0 0 0 0 0 0
          0 0 0 0 0 0
          0 0 0 0 0 0
          0 0 0 0 0 0
          0 0 0 0 0 0
          0 0 0 0 0 0
          0 0 0 0 0 0
          0 0 0 0 0 0
          0 0 0 0 0 0
          0 0 0 0 0 0
          0 0 0 0 0 0
          0 0 0 0 0 0
          0 0 0 0 0 0
          0 0 0 0 0 0
          0 0 0 0 0 0
          0 0 0 0 0 0
          0 0 0 0 0 0
          0 0 0 0 0 0
          0 0 0 0 0 0
          0 0 0 0 0 0
          0 0 0 0 0 0
          0 0 0 0 0 0
          0 0 0 0 0 0
          0 0 0 0 0 0
          0 0 0 0 0 0
          0 0 0 0 0 0
          0 0 0 0 0 0
          0 0 0 0 0 0
          0 0 0 0 0 0
          0 0 0 0 0 0
          0 0 0 0 0 0
          0 0 0 0 0 0
          0 0 0 0 0 0
          0 0 0 0 0 0
          0 0 0 0 0 0
          0 0 0 0 0 0
          0 0 0 0 0 0
          0 0 0 0 0 0
          0 0 0 0 0 0
          0 0 0 0 0 0
          0 0 0 0 0 0
          0 0 0 0 0 0
          0 0 0 0 0 0
          0 0 0 0 0 0
          0 0 0 0 0 0
          0 0 0 0 0 0
          0 0 0 0 0 0
          0 0 0 0 0 0
          0 0 0 0 0 0
          0 0 0 0 0 0
          0 0 0 0 0 0
          0 0 0 0 0 0
          0 0 0 0 0 0
          0 0 0 0 0 0
          0 0 0 0 0 0
          0 0 0 0 0
        </DataArray>
        <DataArray type="Float64" Name="combo" format="ascii" RangeMin="1" RangeMax="1">
          1 1 1 1 1 1
          1 1 1 1 1 1
          1 1 1 1 1 1
          1 1 1 1 1 1
          1 1 1 1 1 1
          1 1 1 1 1 1
          1 1 1 1 1 1
          1 1 1 1 1 1
          1 1 1 1 1 1
          1 1 1 1 1 1
          1 1 1 1 1 1
          1 1 1 1 1 1
          1 1 1 1 1 1
          1 1 1 1 1 1
          1 1 1 1 1 1
          1 1 1 1 1 1
          1 1 1 1 1 1
          1 1 1 1 1 1
          1 1 1 1 1 1
          1 1 1 1 1 1
          1 1 1 1 1 1
          1 1 1 1 1 1
          1 1 1 1 1 1
          1 1 1 1 1 1
          1 1 1 1 1 1
          1 1 1 1 1 1
          1 1 1 1 1 1
          1 1 1 1 1 1
          1 1 1 1 1 1
          1 1 1 1 1 1
          1 1 1 1 1 1
          1 1 1 1 1 1
          1 1 1 1 1 1
          1 1 1 1 1 1
          1 1 1 1 1 1
          1 1 1 1 1 1
          1 1 1 1 1 1
          1 1 1 1 1 1
          1 1 1 1 1 1
          1 1 1 1 1 1
          1 1 1 1 1 1
          1 1 1 1 1 1
          1 1 1 1 1 1
          1 1 1 1 1 1
          1 1 1 1 1 1
          1 1 1 1 1 1
          1 1 1 1 1 1
          1 1 1 1 1 1
          1 1 1 1 1 1
          1 1 1 1 1 1
          1 1 1 1 1 1
          1 1 1 1 1 1
          1 1 1 1 1 1
          1 1 1 1 1 1
          1 1 1 1 1 1
          1 1 1 1 1 1
          1 1 1 1 1 1
          1 1 1 1 1 1
          1 1 1 1 1 1
          1 1 1 1 1 1
          1 1 1 1 1 1
          1 1 1 1 1 1
          1 1 1 1 1 1
          1 1 1 1 1 1
          1 1 1 1 1 1
          1 1 1 1 1 1
          1 1 1 1 1 1
          1 1 1 1 1 1
          1 1 1 1 1 1
          1 1 1 1 1 1
          1 1 1 1 1 1
          1 1 1 1 1 1
          1 1 1 1 1 1
          1 1 1 1 1 1
          1 1 1 1 1 1
          1 1 1 1 1 1
          1 1 1 1 1
        </DataArray>
        <DataArray type="Float64" Name="dHdT" format="ascii" RangeMin="25.81155176401267" RangeMax="33.239375328525725">
          25.811619249930445 27.615117794625327 25.81167481776105 25.816031353700566 25.81325977267922 25.836660511557874
          25.82703702181429 25.815011332263246 26.01688778947254 25.89189505063905 26.340979387498507 25.812629558197088
          25.812298063067004 25.834811468085306 25.820872020357253 25.811885249527396 25.81256360181583 25.812496569102137