<?xml version="1.0"?>
<VTKFile type="UnstructuredGrid" version="0.1" byte_order="LittleEndian" header_type="UInt32" compressor="vtkZLibDataCompressor">
  <UnstructuredGrid>
    <Piece NumberOfPoints="515" NumberOfCells="272">
      <PointData>
        <DataArray type="Int32" Name="libmesh_node_id" format="ascii" RangeMin="168" RangeMax="4752">
          168 169 170 171 172 173
          174 175 176 177 178 179
          196 197 198 199 200 201
          210 211 212 213 214 215
          216 217 218 219 220 221
          238 239 240 241 242 243
          252 253 254 255 256 257
          258 259 260 261 262 263
          280 281 282 283 284 285
          294 295 296 297 298 299
          300 301 302 303 304 305
          322 323 324 325 326 327
          336 337 338 339 340 341
          342 343 344 345 346 347
          364 365 366 367 368 369
          4247 4248 4249 4250 4251 4256
          4257 4259 4260 4261 4262 4269
          4270 4271 4272 4273 4274 4275
          4276 4277 4278 4279 4280 4281
          4282 4283 4284 4285 4286 4287
          4288 4289 4290 4291 4292 4293
          4294 4295 4296 4297 4298 4299
          4300 4301 4302 4303 4304 4305
          4306 4307 4308 4309 4310 4311
          4312 4313 4314 4315 4316 4317
          4318 4319 4320 4321 4322 4323
          4324 4325 4326 4327 4328 4329
          4330 4331 4332 4333 4334 4335
          4336 4337 4338 4339 4340 4341
          4342 4343 4344 4345 4346 4347
          4348 4401 4402 4403 4404 4405
          4406 4407 4408 4409 4410 4411
          4412 4413 4414 4415 4416 4417
          4418 4419 4420 4421 4422 4423
          4424 4425 4426 4427 4428 4429
          4430 4431 4432 4433 4434 4435
          4436 4437 4438 4439 4440 4441
          4442 4443 4444 4445 4446 4447
          4448 4449 4450 4451 4452 4453
          4454 4455 4456 4459 4461 4462
          4463 4464 4465 4466 4467 4468
          4469 4470 4471 4472 4473 4474
          4475 4476 4477 4478 4479 4480
          4481 4482 4483 4484 4485 4486
          4487 4488 4489 4490 4491 4492
          4493 4494 4495 4496 4497 4498
          4499 4500 4501 4502 4503 4504
          4505 4506 4507 4508 4509 4510
          4511 4512 4513 4514 4515 4516
          4517 4518 4519 4520 4521 4522
          4523 4524 4525 4526 4527 4528
          4529 4530 4531 4532 4533 4534
          4535 4536 4537 4538 4539 4540
          4541 4542 4543 4544 4545 4546
          4547 4548 4549 4550 4551 4552
          4553 4554 4555 4556 4557 4558
          4559 4560 4561 4562 4563 4564
          4565 4566 4567 4568 4569 4570
          4571 4572 4573 4574 4575 4576
          4577 4578 4579 4580 4581 4582
          4583 4584 4585 4586 4587 4588
          4589 4590 4591 4592 4593 4594
          4595 4596 4597 4598 4599 4600
          4601 4602 4603 4604 4605 4606
          4607 4608 4609 4610 4611 4612
          4613 4614 4615 4616 4617 4618
          4619 4620 4621 4622 4623 4624
          4625 4626 4627 4628 4629 4630
          4631 4632 4633 4634 4635 4636
          4637 4638 4639 4640 4641 4642
          4643 4644 4645 4646 4647 4648
          4649 4650 4651 4652 4653 4654
          4655 4656 4657 4658 4659 4660
          4661 4662 4663 4664 4665 4666
          4667 4668 4669 4670 4671 4672
          4673 4674 4675 4676 4677 4678
          4679 4680 4681 4682 4683 4684
          4685 4686 4687 4688 4689 4690
          4691 4692 4693 4694 4695 4696
          4697 4698 4699 4700 4701 4702
          4703 4704 4705 4706 4707 4708
          4709 4710 4711 4712 4713 4714
          4715 4716 4717 4727 4728 4729
          4730 4731 4732 4733 4734 4735
          4736 4743 4744 4745 4746 4747
          4748 4749 4750 4751 4752
        </DataArray>
        <DataArray type="Float64" Name="bounds" format="ascii" RangeMin="0" RangeMax="0">
          0 0 0 0 0 0
          0 0 0 0 0 0
          0 0 0 0 0 0
          0 0 0 0 0 0
          0 0 0 0 0 0
          0 0 0 0 0 0
          0 0 0 0 0 0
          0 0 0 0 0 0
          0 0 0 0 0 0
          0 0 0 0 0 0
          0 0 0 0 0 0
          0 0 0 0 0 0
          0 0 0 0 0 0
          0 0 0 0 0 0
          0 0 0 0 0 0
          0 0 0 0 0 0
          0 0 0 0 0 0
          0 0 0 0 0 0
          0 0 0 0 0 0
          0 0 0 0 0 0
          0 0 0 0 0 0
          0 0 0 0 0 0
          0 0 0 0 0 0
          0 0 0 0 0 0
          0 0 0 0 0 0
          0 0 0 0 0 0
          0 0 0 0 0 0
          0 0 0 0 0 0
          0 0 0 0 0 0
          0 0 0 0 0 0
          0 0 0 0 0 0
          0 0 0 0 0 0
          0 0 0 0 0 0
          0 0 0 0 0 0
          0 0 0 0 0 0
          0 0 0 0 0 0
          0 0 0 0 0 0
          0 0 0 0 0 0
          0 0 0 0 0 0
          0 0 0 0 0 0
          0 0 0 0 0 0
          0 0 0 0 0 0
          0 0 0 0 0 0
          0 0 0 0 0 0
          0 0 0 0 0 0
          0 0 0 0 0 0
          0 0 0 0 0 0
          0 0 0 0 0 0
          0 0 0 0 0 0
          0 0 0 0 0 0
          0 0 0 0 0 0
          0 0 0 0 0 0
          0 0 0 0 0 0
          0 0 0 0 0 0
          0 0 0 0 0 0
          0 0 0 0 0 0
          0 0 0 0 0 0
          0 0 0 0 0 0
          0 0 0 0 0 0
          0 0 0 0 0 0
          0 0 0 0 0 0
          0 0 0 0 0 0
          0 0 0 0 0 0
          0 0 0 0 0 0
          0 0 0 0 0 0
          0 0 0 0 0 0
          0 0 0 0 0 0
          0 0 0 0 0 0
          0 0 0 0 0 0
          0 0 0 0 0 0
          0 0 0 0 0 0
          0 0 0 0 0 0
          0 0 0 0 0 0
          0 0 0 0 0 0
          0 0 0 0 0 0
          0 0 0 0 0 0
          0 0 0 0 0 0
          0 0 0 0 0 0
          0 0 0 0 0 0
          0 0 0 0 0 0
          0 0 0 0 0 0
          0 0 0 0 0 0
          0 0 0 0 0 0
          0 0 0 0 0 0
          0 0 0 0 0 0
          0 0 0 0 0
        </DataArray>
        <DataArray type="Float64" Name="gradient_error" format="ascii" RangeMin="3.114027304074317e-10" RangeMax="0.0000014009367092723531">
          7.624146431670558e-9 6.037888785137939e-9 3.5672289339982725e-9 4.4634560718594055e-9 3.3468381644683913e-9 2.039930894899961e-9
          2.36001579863174e-9 1.4332746197045624e-9 1.7794491753569506e-9 1.078935658429481e-9 8.152689600129817e-10 5.633358452102067e-10
          1.096569082858605e-9 1.3027657120482526e-9 7.33023625331531e-10 5.065334407773848e-10 3.784221415020115e-10 3.114027304074317e-10
          3.1207642064594966e-8 2.463849885575235e-8 1.490200274897508e-8 1.8636396453635307e-8 1.3583387043923283e-8 8.557446816693221e-9
          9.567518505067011e-9 6.004080180525004e-9 7.297193803300718e-9 4.549914027134092e-9 3.40841742620986e-9 2.4272867113494883e-9
          5.165506642197809e-9 6.065150842675649e-9 3.5315065894631613e-9 2.4406418559829967e-9 1.8026342509674652e-9 1.4461559964891163e-9
          1.1460088078078777e-7 8.851817580984711e-8 5.441716956200869e-8 6.936860182534755e-8 5.243074289712286e-8 3.284795386758263e-8
          2.9006825113206486e-8 1.7434250611676948e-8 1.1350800979336677e-8 6.424061326272475e-9 5.330323549142743e-9 4.639615743318862e-9
          2.031616331417027e-8 2.413632286990732e-8 1.326516483804239e-8 8.519164246495866e-9 6.032719172980531e-9 5.06351413742053e-9
          6.339449554921349e-7 6.206132757414164e-7 4.173468322435003e-7 4.5252898901195886e-7 6.023434964907544e-7 2.8417480927949674e-7
          3.3494391219554657e-7 1.5905971204773884e-7 4.7597787836317016e-8 1.2100030985420255e-7 4.138675336533938e-8 9.158040067744038e-8
          4.4178546104665186e-7 4.848882642007229e-7 2.09568296401947e-7 9.018521036047447e-9 7.095201338536841e-9 5.433183112038798e-9
          1.1688006525991446e-7 1.3757186206105126e-7 0.0000011048715486453581 0.000001120689010062149 1.7012902328532874e-7 9.457243235600871e-7
          2.172567045306945e-7 1.5329782390044718e-7 3.0209381550910137e-7 1.2426388316980393e-7 4.402610503555405e-7 8.495894218692937e-8
          8.514613861798339e-7 9.31490735816211e-7 4.181275215946346e-7 2.0324955723630134e-8 2.7566981365857123e-8 2.1474730305062025e-8
          4.045065202910369e-9 1.8338496307730227e-8 2.2664437935796627e-8 1.986508969857485e-8 1.7924935984661748e-8 1.7065741461353074e-8
          1.7511375661593262e-8 4.44006670565061e-8 9.359112467741019e-8 1.0841624980209322e-7 9.935183803722577e-8 0.000001093483959264638
          8.756738742785931e-7 8.750792375351706e-7 6.485270934727982e-7 6.562951648830362e-7 8.207059588194343e-7 8.147540574737793e-7
          8.760698810796053e-7 6.724523403660777e-7 8.339593495165019e-7 6.578637892925483e-7 9.909418376692568e-7 9.855956400871586e-7
          0.0000010033232599447098 1.241968267725842e-7 7.679172173550458e-7 7.552521087529031e-7 7.960822555844895e-7 0.0000013240198860459654
          0.000001114798185665864 8.747469377145915e-7 6.909159707943594e-7 8.492432823729078e-7 8.689105456912198e-7 7.095465627035039e-7
          8.627514693529417e-7 6.346956897633187e-7 0.000001017816199517836 7.176588082821125e-7 1.5316854414853824e-7 8.301681180125607e-7
          8.657793802744977e-7 0.0000014009367092723531 0.0000011207488120780835 8.530624099001792e-7 7.269911801707314e-7 7.071817842648736e-7
          3.881144084581512e-7 5.11999198342863e-7 4.269768740786706e-7 3.205330726531102e-7 3.939483640240603e-7 2.1213188041298213e-7
          1.8899567867390635e-7 5.870749793515208e-7 3.0981335838513513e-7 4.812997311710037e-7 5.427130113640278e-8 1.5046396852677355e-7
          3.093483879409164e-7 3.0704254300016865e-7 1.370285580107166e-7 3.3731601529120146e-7 3.0447129145737693e-7 1.772259193847735e-7
          1.894286037983204e-7 1.641395508518172e-7 2.5650287639945825e-7 3.401867761353032e-7 3.740161125644703e-7 1.42577546452793e-7
          4.30864180793e-8 1.232926193245801e-7 3.6558830786579905e-7 2.99944918565521e-7 3.9536250335233033e-7 2.9163047162332026e-7
          1.394381115185571e-7 1.383686619673309e-7 1.1274246509970059e-7 3.615304898188601e-7 4.119899176144797e-7 4.5399436342636865e-7
          1.0404881709734243e-7 4.257644131695831e-7 2.783679565298756e-7 9.501815309224113e-8 5.454247406682466e-7 4.993787633471257e-7
          8.23318337675604e-8 1.397466102678007e-8 8.620985916537827e-9 9.761836802104663e-9 1.8805395540129034e-8 1.974482825613004e-8
          1.621095608548694e-8 1.5289153836316887e-8 6.434193375917364e-9 1.9245649785715762e-8 1.6963886372979033e-8 3.2673108062955875e-9
          1.2677083914843847e-8 1.177291213250474e-8 1.4682122960242305e-8 7.701140660225312e-9 4.930344780030701e-9 1.7603502409103606e-8
          1.710078821975624e-8 2.159548899836091e-9 1.6598074030408878e-8 3.5474724380208364e-8 4.379084928075927e-8 6.249935727744045e-8
          7.025432437971605e-8 2.415123801170378e-8 5.484842807936429e-8 1.5259311176471494e-8 2.764324543634259e-8 4.515092234290071e-8
          1.2683199256038471e-8 8.952399017467255e-8 9.671779947867286e-8 8.55456181470248e-8 4.002717969621369e-8 1.861210605861782e-8
          5.0241464785966446e-8 1.2932677077981953e-8 3.9588709130860504e-8 5.2855744466261215e-9 1.59790757116101e-8 1.6336068009598303e-8
          8.187082351331508e-8 6.624474118373906e-8 2.6672576976594082e-8 7.475094846327438e-9 2.7678492502970456e-8 4.6835397779130415e-9
          1.6994107878146358e-8 4.157319033319195e-9 1.4960317547757977e-8 1.2297251853776512e-8 4.7881890159613475e-8 2.9304675978379675e-8
          2.576331606219676e-8 4.710467025274933e-9 1.4184736775225299e-8 2.3659006525175663e-8 2.1123492881159177e-7 2.062661632728345e-7
          2.0358508912908725e-7 1.6253988650069995e-7 1.6513951916849863e-7 1.838241532946521e-7 1.8116679417895206e-7 2.1328128558801018e-7
          1.7165159863700928e-7 1.906434866531827e-7 2.0129739773407726e-7 2.0250878742080557e-7 1.9979370185720417e-7 2.0963537466935608e-7
          1.190441095254055e-7 1.6138214331646972e-7 1.5874849922881687e-7 1.680056877183552e-7 2.037201771075339e-7 2.295174611080958e-7
          2.2270072290132125e-7 1.8003722187731336e-7 1.9957902082862524e-7 2.332728260736983e-7 1.8935079470626672e-7 2.0950007856663617e-7
          2.158839846945467e-7 2.191208197799371e-7 2.2964936242700568e-7 1.305569826465309e-7 1.764573187559292e-7 1.8572733105957407e-7
          2.2235765486532748e-7 2.535986441466468e-7 2.445911754501148e-7 1.993693493643842e-7 2.2011922725141493e-7 2.5678815035647485e-7
          2.1010115003569648e-7 2.3153609290356412e-7 2.3558370675358276e-7 2.4086910513844573e-7 2.529710357714318e-7 1.4514005458212154e-7
          1.956472790527151e-7 2.062840354506534e-7 2.461545035233087e-7 2.8162311901018434e-7 2.700801579801709e-7 2.2157857155586863e-7
          2.439163344747923e-7 2.846114265491712e-7 2.3379671152351178e-7 2.573710760599968e-7 2.5853719695015744e-7 2.6625409739371603e-7
          2.809454405964819e-7 1.6153402410155293e-7 2.1775251096941378e-7 2.3013072557082246e-7 2.7397099783727457e-7 3.1464666005124495e-7
          3.005635808009604e-7 2.467078348597722e-7 2.720229734022561e-7 3.1732329745480845e-7 2.611146134686429e-7 2.862594511519723e-7
          2.8648050155067584e-7 2.9733811194474e-7 2.791206982278681e-7 1.7876900966829942e-7 2.434823660035518e-7 2.551956048491361e-7
          3.081957223388042e-7 3.534693944000107e-7 3.3497644815368267e-7 2.776492821261062e-7 2.99753614764739e-7 2.898542342058146e-7
          2.9247667867143264e-7 3.1355084293443275e-7 2.551303464297169e-7 2.7452933800980175e-7 2.8994459238685487e-7 2.0182916985220176e-7
          2.6453078137579525e-7 2.774949155449291e-7 2.9392832958988657e-7 1.603296948761691e-7 1.5750559947121455e-7 1.8881393891839875e-7
          1.8722425378009665e-7 1.6391331205378282e-7 1.913873953872868e-7 1.2688219880025903e-7 1.504271492205657e-7 1.5989499054719213e-7
          1.3751061319829668e-7 2.1729818296062842e-7 2.1694290808897874e-7 2.1886147872079074e-7 1.7397209964087239e-7 1.092515863086341e-7
          9.921750148401474e-8 1.1331477932665599e-7 1.6139811737671663e-7 1.6027126130172996e-7 1.4165223610052398e-7 1.4183197064811334e-7
          7.981468246261434e-8 1.5831894252032657e-7 1.4069642901120767e-7 8.91834166593954e-8 1.2303321089931797e-7 1.2226582391951007e-7
          1.2307391550208875e-7 2.923360690092909e-7 2.7176153879399186e-7 2.87264379137361e-7 2.392754087325405e-7 7.313739692977324e-8
          7.191211746829777e-8 1.5684338453132668e-7 1.3906447554918295e-7 6.705529921678253e-8 1.55227971620246e-7 1.370577095144769e-7
          7.068683800682232e-8 1.2128556656703925e-7 1.1888744740870777e-7 3.236231606333904e-7 2.9916897524790583e-7 3.1008166986407716e-7
          2.5759786535374437e-7 3.0474057515268667e-7 3.278025299285097e-7 3.207946870139817e-7 3.450766552122644e-7 3.0264432173533145e-7
          3.15336346986172e-7 2.3609994858161732e-7 2.9616895298606874e-7 3.172027277096076e-7 3.2481703294147236e-7 3.4228893797748554e-7
          3.6610010902979105e-7 3.6697188491395227e-7 3.8942406604178253e-7 3.2851339139720624e-7 3.419722214378985e-7 2.778809268210704e-7
          3.4007910119383844e-7 3.657449121675819e-7 3.5657213232742395e-7 1.6508779741252435e-7 1.934676823028823e-7 1.656058059425307e-7
          1.9544215199786522e-7 1.147233857848127e-7 1.3251120583943436e-7 1.295702334339335e-7 2.2184756719324025e-7 2.252784980531997e-7
          1.50299025894056e-7 1.6551236266870196e-7 1.9696348705841121e-7 1.648426680832007e-7 1.9798170445181663e-7 1.0766070900101337e-7
          1.2681147140450646e-7 1.2389521319744898e-7 2.2841461144812044e-7 2.3112074082043254e-7 1.4596223380799952e-7 6.29931003954357e-8
          6.265072852687801e-8 1.529618830031731e-7 1.3444264114534276e-7 5.840506062231044e-8 1.4992535488264505e-7 1.311299569007788e-7
          6.230835665832033e-8 1.1592339928751241e-7 1.123345589189126e-7 3.5124907342261004e-7 3.2095168532679277e-7 3.318692777308571e-7
          2.693662566159401e-7 5.4668209663922265e-8 5.430470077372777e-8 1.4594209296720084e-7 1.2698614540386284e-7 5.0538079889481356e-8
          1.4086434248513559e-7 1.2189148971129705e-7 5.3941191883533276e-8 1.0803019784052487e-7 1.0291863693745849e-7 3.803225062742502e-7
          3.427765960731626e-7 3.5353297352521564e-7 2.787615903822662e-7 3.946728762804958e-7 4.151379456197418e-7 4.2576168389289304e-7
          4.4353246274013494e-7 3.5588263166895533e-7 3.701871690404667e-7 3.297782713266818e-7 3.9460707434970564e-7 4.271812231978029e-7
          3.9248509937235277e-7 4.607531812467507e-7 4.7499127907956453e-7 5.00256778803992e-7 5.099660548496321e-7 3.847972315950909e-7
          3.9956447557934284e-7 3.9807732621548033e-7 4.6409695604680175e-7 5.061110621819457e-7 4.325116795155407e-7 1.635705117989486e-7
          1.98404894092312e-7 1.6159538127625158e-7 1.981089527855929e-7 1.0035084821202799e-7 1.206475398057013e-7 1.1714680907762923e-7
          2.3323927638567537e-7 2.346225242949342e-7 1.409442313993746e-7 1.588143860592363e-7 1.9694766375275158e-7 1.5511605443078638e-7
          1.9476075610703018e-7 9.180537271582402e-8 1.1353024122769969e-7 1.1006789195064661e-7 2.3508094144626684e-7 2.3440545778327395e-7
          1.3525510973957538e-7 4.877558369096065e-8 4.735212613423763e-8 1.345155342338522e-7 1.1570810294555873e-7 4.5138942733371786e-8
          1.267296529711657e-7 1.0830352377359738e-7 4.592866857751461e-8 9.690067165726525e-8 8.987739457602905e-8 4.105714506397334e-7
          3.6396322967326477e-7 3.738368355128217e-7 2.8413044580227537e-7 5.44963772773258e-7 5.489922252624698e-7 5.956280111104854e-7
          5.926950950016976e-7 4.142979733927737e-7 4.287315679322836e-7 4.890401290437927e-7 5.541220709352899e-7 6.091846237915746e-7
          4.763366154506423e-7 1.5037887427304487e-7 1.913504660333221e-7 1.444766905981091e-7 1.8650826802185116e-7 8.307642855285556e-8
          1.0712566303277821e-7 1.0531557907204491e-7 2.3232205779359925e-7 2.2853984544559322e-7 1.3117489751270087e-7
        </DataArray>
        <DataArray type="Float64" Name="gradient_matprop_error" format="ascii" RangeMin="0" RangeMax="0">
          0 0 0 0 0 0
          0 0 0 0 0 0
          0 0 0 0 0 0
          0 0 0 0 0 0
          0 0 0 0 0 0
          0 0 0 0 0 0
          0 0 0 0 0 0
          0 0 0 0 0 0
          0 0 0 0 0 0
          0 0 0 0 0 0
          0 0 0 0 0 0
          0 0 0 0 0 0
          0 0 0 0 0 0
          0 0 0 0 0 0
          0 0 0 0 0 0
          0 0 0 0 0 0
          0 0 0 0 0 0
          0 0 0 0 0 0
          0 0 0 0 0 0
          0 0 0 0 0 0
          0 0 0 0 0 0
          0 0 0 0 0 0
          0 0 0 0 0 0
          0 0 0 0 0 0
          0 0 0 0 0 0
          0 0 0 0 0 0
          0 0 0 0 0 0
          0 0 0 0 0 0
          0 0 0 0 0 0
          0 0 0 0 0 0
          0 0 0 0 0 0
          0 0 0 0 0 0
          0 0 0 0 0 0
          0 0 0 0 0 0
          0 0 0 0 0 0
          0 0 0 0 0 0
          0 0 0 0 0 0
          0 0 0 0 0 0
          0 0 0 0 0 0
          0 0 0 0 0 0
          0 0 0 0 0 0
          0 0 0 0 0 0
          0 0 0 0 0 0
          0 0 0 0 0 0
          0 0 0 0 0 0
          0 0 0 0 0 0
          0 0 0 0 0 0
          0 0 0 0 0 0
          0 0 0 0 0 0
          0 0 0 0 0 0
          0 0 0 0 0 0
          0 0 0 0 0 0
          0 0 0 0 0 0
          0 0 0 0 0 0
          0 0 0 0 0 0
          0 0 0 0 0 0
          0 0 0 0 0 0
          0 0 0 0 0 0
          0 0 0 0 0 0
          0 0 0 0 0 0
          0 0 0 0 0 0
          0 0 0 0 0 0
          0 0 0 0 0 0
          0 0 0 0 0 0
          0 0 0 0 0 0
          0 0 0 0 0 0
          0 0 0 0 0 0
          0 0 0 0 0 0
          0 0 0 0 0 0
          0 0 0 0 0 0
          0 0 0 0 0 0
          0 0 0 0 0 0
          0 0 0 0 0 0
          0 0 0 0 0 0
          0 0 0 0 0 0
          0 0 0 0 0 0
          0 0 0 0 0 0
          0 0 0 0 0 0
          0 0 0 0 0 0
          0 0 0 0 0 0
          0 0 0 0 0 0
          0 0 0 0 0 0
          0 0 0 0 0 0
          0 0 0 0 0 0
          0 0 0 0 0 0
          0 0 0 0 0
        </DataArray>
        <DataArray type="Float64" Name="initial_marker" format="ascii" RangeMin="0" RangeMax="0">
          0 0 0 0 0 0
          0 0 0 0 0 0
          0 0 0 0 0 0
          0 0 0 0 0 0
          0 0 0 0 0 0
          0 0 0 0 0 0
          0 0 0 0 0 0
          0 0 0 0 0 0
          0 0 0 0 0 0
          0 0 0 0 0 0
          0 0 0 0 0 0
          0 0 0 0 0 0
          0 0 0 0 0 0
          0 0 0 0 0 0
          0 0 0 0 0 0
          0 0 0 0 0 0
          0 0 0 0 0 0
          0 0 0 0 0 0
          0 0 0 0 0 0
          0 0 0 0 0 0
          0 0 0 0 0 0
          0 0 0 0 0 0
          0 0 0 0 0 0
          0 0 0 0 0 0
          0 0 0 0 0 0
          0 0 0 0 0 0
          0 0 0 0 0 0
          0 0 0 0 0 0
          0 0 0 0 0 0
          0 0 0 0 0 0
          0 0 0 0 0 0
          0 0 0 0 0 0
          0 0 0 0 0 0
          0 0 0 0 0 0
          0 0 0 0 0 0
          0 0 0 0 0 0
          0 0 0 0 0 0
          0 0 0 0 0 0
          0 0 0 0 0 0
          0 0 0 0 0 0
          0 0 0 0 0 0
          0 0 0 0 0 0
          0 0 0 0 0 0
          0 0 0 0 0 0
          0 0 0 0 0 0
          0 0 0 0 0 0
          0 0 0 0 0 0
          0 0 0 0 0 0
          0 0 0 0 0 0
          0 0 0 0 0 0
          0 0 0 0 0 0
          0 0 0 0 0 0
          0 0 0 0 0 0
          0 0 0 0 0 0
          0 0 0 0 0 0
          0 0 0 0 0 0
          0 0 0 0 0 0
          0 0 0 0 0 0
          0 0 0 0 0 0
          0 0 0 0 0 0
          0 0 0 0 0 0
          0 0 0 0 0 0
          0 0 0 0 0 0
          0 0 0 0 0 0
          0 0 0 0 0 0
          0 0 0 0 0 0
          0 0 0 0 0 0
          0 0 0 0 0 0
          0 0 0 0 0 0
          0 0 0 0 0 0
          0 0 0 0 0 0
          0 0 0 0 0 0
          0 0 0 0 0 0
          0 0 0 0 0 0
          0 0 0 0 0 0
          0 0 0 0 0 0
          0 0 0 0 0 0
          0 0 0 0 0 0
          0 0 0 0 0 0
          0 0 0 0 0 0
          0 0 0 0 0 0
          0 0 0 0 0 0
          0 0 0 0 0 0
          0 0 0 0 0 0
          0 0 0 0 0 0
          0 0 0 0 0
        </DataArray>
        <DataArray type="Float64" Name="markers_norefine" format="ascii" RangeMin="0" RangeMax="0">
          0 0 0 0 0 0
          0 0 0 0 0 0
          0 0 0 0 0 0
          0 0 0 0 0 0
          0 0 0 0 0 0
          0 0 0 0 0 0
          0 0 0 0 0 0
          0 0 0 0 0 0
          0 0 0 0 0 0
          0 0 0 0 0 0
          0 0 0 0 0 0
          0 0 0 0 0 0
          0 0 0 0 0 0
          0 0 0 0 0 0
          0 0 0 0 0 0
          0 0 0 0 0 0
          0 0 0 0 0 0
          0 0 0 0 0 0
          0 0 0 0 0 0
          0 0 0 0 0 0
          0 0 0 0 0 0
          0 0 0 0 0 0
          0 0 0 0 0 0
          0 0 0 0 0 0
          0 0 0 0 0 0
          0 0 0 0 0 0
          0 0 0 0 0 0
          0 0 0 0 0 0
          0 0 0 0 0 0
          0 0 0 0 0 0
          0 0 0 0 0 0
          0 0 0 0 0 0
          0 0 0 0 0 0
          0 0 0 0 0 0
          0 0 0 0 0 0
          0 0 0 0 0 0
          0 0 0 0 0 0
          0 0 0 0 0 0
          0 0 0 0 0 0
          0 0 0 0 0 0
          0 0 0 0 0 0
          0 0 0 0 0 0
          0 0 0 0 0 0
          0 0 0 0 0 0
          0 0 0 0 0 0
          0 0 0 0 0 0
          0 0 0 0 0 0
          0 0 0 0 0 0
          0 0 0 0 0 0
          0 0 0 0 0 0
          0 0 0 0 0 0
          0 0 0 0 0 0
          0 0 0 0 0 0
          0 0 0 0 0 0
          0 0 0 0 0 0
          0 0 0 0 0 0
          0 0 0 0 0 0
          0 0 0 0 0 0
          0 0 0 0 0 0
          0 0 0 0 0 0
          0 0 0 0 0 0
          0 0 0 0 0 0
          0 0 0 0 0 0
          0 0 0 0 0 0
          0 0 0 0 0 0
          0 0 0 0 0 0
          0 0 0 0 0 0
          0 0 0 0 0 0
          0 0 0 0 0 0
          0 0 0 0 0 0
          0 0 0 0 0 0
          0 0 0 0 0 0
          0 0 0 0 0 0
          0 0 0 0 0 0
          0 0 0 0 0 0
          0 0 0 0 0 0
          0 0 0 0 0 0
          0 0 0 0 0 0
          0 0 0 0 0 0
          0 0 0 0 0 0
          0 0 0 0 0 0
          0 0 0 0 0 0
          0 0 0 0 0 0
          0 0 0 0 0 0
          0 0 0 0 0 0
          0 0 0 0 0
        </DataArray>
        <DataArray type="Float64" Name="markers_mustrefine" format="ascii" RangeMin="0" RangeMax="0">
          0 0 0 0 0 0
          0 0 0 0 0 0
          0 0 0 0 0 0
          0 0 0 0 0 0
          0 0 0 0 0 0
          0 0 0 0 0 0
          0 0 0 0 0 0
          0 0 0 0 0 0
          0 0 0 0 0 0
          0 0 0 0 0 0
          0 0 0 0 0 0
          0 0 0 0 0 0
          0 0 0 0 0 0
          0 0 0 0 0 0
          0 0 0 0 0 0
          0 0 0 0 0 0
          0 0 0 0 0 0
          0 0 0 0 0 0
          0 0 0 0 0 0
          0 0 0 0 0 0
          0 0 0 0 0 0
          0 0 0 0 0 0
          0 0 0 0 0 0
          0 0 0 0 0 0
          0 0 0 0 0 0
          0 0 0 0 0 0
          0 0 0 0 0 0
          0 0 0 0 0 0
          0 0 0 0 0 0
          0 0 0 0 0 0
          0 0 0 0 0 0
          0 0 0 0 0 0
          0 0 0 0 0 0
          0 0 0 0 0 0
          0 0 0 0 0 0
          0 0 0 0 0 0
          0 0 0 0 0 0
          0 0 0 0 0 0
          0 0 0 0 0 0
          0 0 0 0 0 0
          0 0 0 0 0 0
          0 0 0 0 0 0
          0 0 0 0 0 0
          0 0 0 0 0 0
          0 0 0 0 0 0
          0 0 0 0 0 0
          0 0 0 0 0 0
          0 0 0 0 0 0
          0 0 0 0 0 0
          0 0 0 0 0 0
          0 0 0 0 0 0
          0 0 0 0 0 0
          0 0 0 0 0 0
          0 0 0 0 0 0
          0 0 0 0 0 0
          0 0 0 0 0 0
          0 0 0 0 0 0
          0 0 0 0 0 0
          0 0 0 0 0 0
          0 0 0 0 0 0
          0 0 0 0 0 0
          0 0 0 0 0 0
          0 0 0 0 0 0
          0 0 0 0 0 0
          0 0 0 0 0 0
          0 0 0 0 0 0
          0 0 0 0 0 0
          0 0 0 0 0 0
          0 0 0 0 0 0
          0 0 0 0 0 0
          0 0 0 0 0 0
          0 0 0 0 0 0
          0 0 0 0 0 0
          0 0 0 0 0 0
          0 0 0 0 0 0
          0 0 0 0 0 0
          0 0 0 0 0 0
          0 0 0 0 0 0
          0 0 0 0 0 0
          0 0 0 0 0 0
          0 0 0 0 0 0
          0 0 0 0 0 0
          0 0 0 0 0 0
          0 0 0 0 0 0
          0 0 0 0 0 0
          0 0 0 0 0
        </DataArray>
        <DataArray type="Float64" Name="gradient_marker" format="ascii" RangeMin="1" RangeMax="1">
          1 1 1 1 1 1
          1 1 1 1 1 1
          1 1 1 1 1 1
          1 1 1 1 1 1
          1 1 1 1 1 1
          1 1 1 1 1 1
          1 1 1 1 1 1
          1 1 1 1 1 1
          1 1 1 1 1 1
          1 1 1 1 1 1
          1 1 1 1 1 1
          1 1 1 1 1 1
          1 1 1 1 1 1
          1 1 1 1 1 1
          1 1 1 1 1 1
          1 1 1 1 1 1
          1 1 1 1 1 1
          1 1 1 1 1 1
          1 1 1 1 1 1
          1 1 1 1 1 1
          1 1 1 1 1 1
          1 1 1 1 1 1
          1 1 1 1 1 1
          1 1 1 1 1 1
          1 1 1 1 1 1
          1 1 1 1 1 1
          1 1 1 1 1 1
          1 1 1 1 1 1
          1 1 1 1 1 1
          1 1 1 1 1 1
          1 1 1 1 1 1
          1 1 1 1 1 1
          1 1 1 1 1 1
          1 1 1 1 1 1
          1 1 1 1 1 1
          1 1 1 1 1 1
          1 1 1 1 1 1
          1 1 1 1 1 1
          1 1 1 1 1 1
          1 1 1 1 1 1
          1 1 1 1 1 1
          1 1 1 1 1 1
          1 1 1 1 1 1
          1 1 1 1 1 1
          1 1 1 1 1 1
          1 1 1 1 1 1
          1 1 1 1 1 1
          1 1 1 1 1 1
          1 1 1 1 1 1
          1 1 1 1 1 1
          1 1 1 1 1 1
          1 1 1 1 1 1
          1 1 1 1 1 1
          1 1 1 1 1 1
          1 1 1 1 1 1
          1 1 1 1 1 1
          1 1 1 1 1 1
          1 1 1 1 1 1
          1 1 1 1 1 1
          1 1 1 1 1 1
          1 1 1 1 1 1
          1 1 1 1 1 1
          1 1 1 1 1 1
          1 1 1 1 1 1
          1 1 1 1 1 1
          1 1 1 1 1 1
          1 1 1 1 1 1
          1 1 1 1 1 1
          1 1 1 1 1 1
          1 1 1 1 1 1
          1 1 1 1 1 1
          1 1 1 1 1 1
          1 1 1 1 1 1
          1 1 1 1 1 1
          1 1 1 1 1 1
          1 1 1 1 1 1
          1 1 1 1 1 1
          1 1 1 1 1 1
          1 1 1 1 1 1
          1 1 1 1 1 1
          1 1 1 1 1 1
          1 1 1 1 1 1
          1 1 1 1 1 1
          1 1 1 1 1 1
          1 1 1 1 1 1
          1 1 1 1 1
        </DataArray>
        <DataArray type="Float64" Name="gradient_matprop_marker" format="ascii" RangeMin="0" RangeMax="0">
          0 0 0 0 0 0
          0 0 0 0 0 0
          0 0 0 0 0 0
          0 0 0 0 0 0
          0 0 0 0 0 0
          0 0 0 0 0 0
          0 0 0 0 0 0
          0 0 0 0 0 0
          0 0 0 0 0 0
          0 0 0 0 0 0
          0 0 0 0 0 0
          0 0 0 0 0 0
          0 0 0 0 0 0
          0 0 0 0 0 0
          0 0 0 0 0 0
          0 0 0 0 0 0
          0 0 0 0 0 0
          0 0 0 0 0 0
          0 0 0 0 0 0
          0 0 0 0 0 0
          0 0 0 0 0 0
          0 0 0 0 0 0
          0 0 0 0 0 0
          0 0 0 0 0 0
          0 0 0 0 0 0
          0 0 0 0 0 0
          0 0 0 0 0 0
          0 0 0 0 0 0
          0 0 0 0 0 0
          0 0 0 0 0 0
          0 0 0 0 0 0
          0 0 0 0 0 0
          0 0 0 0 0 0
          0 0 0 0 0 0
          0 0 0 0 0 0
          0 0 0 0 0 0
          0 0 0 0 0 0
          0 0 0 0 0 0
          0 0 0 0 0 0
          0 0 0 0 0 0
          0 0 0 0 0 0
          0 0 0 0 0 0
          0 0 0 0 0 0
          0 0 0 0 0 0
          0 0 0 0 0 0
          0 0 0 0 0 0
          0 0 0 0 0 0
          0 0 0 0 0 0
          0 0 0 0 0 0
          0 0 0 0 0 0
          0 0 0 0 0 0
          0 0 0 0 0 0
          0 0 0 0 0 0
          0 0 0 0 0 0
          0 0 0 0 0 0
          0 0 0 0 0 0
          0 0 0 0 0 0
          0 0 0 0 0 0
          0 0 0 0 0 0
          0 0 0 0 0 0
          0 0 0 0 0 0
          0 0 0 0 0 0
          0 0 0 0 0 0
          0 0 0 0 0 0
          0 0 0 0 0 0
          0 0 0 0 0 0
          0 0 0 0 0 0
          0 0 0 0 0 0
          0 0 0 0 0 0
          0 0 0 0 0 0
          0 0 0 0 0 0
          0 0 0 0 0 0
          0 0 0 0 0 0
          0 0 0 0 0 0
          0 0 0 0 0 0
          0 0 0 0 0 0
          0 0 0 0 0 0
          0 0 0 0 0 0
          0 0 0 0 0 0
          0 0 0 0 0 0
          0 0 0 0 0 0
          0 0 0 0 0 0
          0 0 0 0 0 0
          0 0 0 0 0 0
          0 0 0 0 0 0
          0 0 0 0 0
        </DataArray>
        <DataArray type="Float64" Name="combo" format="ascii" RangeMin="1" RangeMax="1">
          1 1 1 1 1 1