<?xml version="1.0"?>
<VTKFile type="UnstructuredGrid" version="0.1" byte_order="LittleEndian" header_type="UInt32" compressor="vtkZLibDataCompressor">
  <UnstructuredGrid>
    <Piece NumberOfPoints="452" NumberOfCells="257">
      <PointData>
        <DataArray type="Int32" Name="libmesh_node_id" format="ascii" RangeMin="409" RangeMax="3688">
          409 506 509 512 515 517
          522 525 527 583 588 591
          597 773 774 778 790 791
          792 795 796 797 800 803
          806 807 808 812 827 828
          829 830 831 832 833 834
          835 836 1121 1123 1124 1126
          1127 1128 1129 1141 1143 1449
          1450 1453 1455 1485 1487 1489
          1491 1492 1493 1494 1495 1496
          1497 1507 1519 1520 1521 1526
          1527 1528 1529 1530 1531 1532
          1533 1534 1535 1536 1537 1538
          1539 1540 1541 1542 1543 1544
          1545 1566 1567 1568 1569 1570
          1571 1572 1573 1574 1575 1576
          1577 1578 1579 1648 1650 1652
          1654 1662 1663 1664 1665 1666
          1667 1668 1669 1670 1671 1672
          1673 1674 1675 1676 1677 1678
          1679 1680 1681 1682 1683 1684
          1685 1686 1687 1688 1689 1690
          1691 1692 1693 1694 1695 1697
          1701 1703 1705 1978 1986 1987
          1988 1991 1992 1995 1996 1997
          1998 1999 2000 2001 2002 2635
          2700 2701 2702 2705 2710 2711
          2712 2715 2753 2755 2756 2757
          2759 2760 2761 2762 2763 2764
          2765 2766 2767 2768 2769 2770
          2771 2772 2773 2774 2775 2776
          2777 2778 2779 2780 2781 2782
          2783 2784 2785 2786 2787 2788
          2789 2790 2791 2792 2793 2794
          2795 2796 2797 2798 2799 2800
          2801 2802 2803 2804 2805 2806
          2807 2808 2809 2810 2811 2812
          2813 2814 2815 2816 2817 2818
          2819 2820 2821 2822 2823 2824
          2825 2826 2827 2828 2829 2830
          2831 2832 2833 2834 2835 2836
          2837 2838 2839 2840 2841 2978
          2979 2980 2981 2982 2983 2984
          2985 2986 2987 2988 2989 2990
          2991 2992 2993 2994 2995 2996
          2997 2998 2999 3000 3001 3002
          3003 3004 3005 3006 3007 3008
          3009 3010 3011 3012 3013 3014
          3015 3016 3017 3018 3019 3020
          3021 3022 3023 3024 3025 3026
          3027 3028 3029 3030 3031 3032
          3033 3034 3035 3036 3037 3038
          3039 3040 3041 3042 3043 3044
          3045 3046 3047 3048 3049 3050
          3051 3052 3053 3054 3055 3056
          3057 3058 3059 3060 3061 3062
          3063 3064 3065 3066 3067 3068
          3069 3070 3071 3072 3073 3479
          3480 3481 3493 3494 3495 3503
          3504 3505 3506 3507 3508 3509
          3517 3518 3519 3520 3521 3522
          3523 3587 3588 3589 3590 3591
          3592 3593 3594 3595 3596 3597
          3598 3599 3600 3601 3602 3603
          3604 3605 3606 3607 3608 3609
          3610 3611 3612 3613 3614 3615
          3616 3617 3618 3619 3620 3621
          3622 3623 3624 3625 3626 3627
          3628 3629 3630 3631 3632 3633
          3634 3635 3636 3637 3638 3639
          3640 3641 3642 3643 3644 3645
          3646 3647 3648 3649 3650 3651
          3652 3653 3654 3655 3656 3657
          3658 3659 3660 3661 3669 3670
          3671 3682 3683 3684 3685 3686
          3687 3688
        </DataArray>
        <DataArray type="Float64" Name="bounds" format="ascii" RangeMin="0" RangeMax="0">
          0 0 0 0 0 0
          0 0 0 0 0 0
          0 0 0 0 0 0
          0 0 0 0 0 0
          0 0 0 0 0 0
          0 0 0 0 0 0
          0 0 0 0 0 0
          0 0 0 0 0 0
          0 0 0 0 0 0
          0 0 0 0 0 0
          0 0 0 0 0 0
          0 0 0 0 0 0
          0 0 0 0 0 0
          0 0 0 0 0 0
          0 0 0 0 0 0
          0 0 0 0 0 0
          0 0 0 0 0 0
          0 0 0 0 0 0
          0 0 0 0 0 0
          0 0 0 0 0 0
          0 0 0 0 0 0
          0 0 0 0 0 0
          0 0 0 0 0 0
          0 0 0 0 0 0
          0 0 0 0 0 0
          0 0 0 0 0 0
          0 0 0 0 0 0
          0 0 0 0 0 0
          0 0 0 0 0 0
          0 0 0 0 0 0
          0 0 0 0 0 0
          0 0 0 0 0 0
          0 0 0 0 0 0
          0 0 0 0 0 0
          0 0 0 0 0 0
          0 0 0 0 0 0
          0 0 0 0 0 0
          0 0 0 0 0 0
          0 0 0 0 0 0
          0 0 0 0 0 0
          0 0 0 0 0 0
          0 0 0 0 0 0
          0 0 0 0 0 0
          0 0 0 0 0 0
          0 0 0 0 0 0
          0 0 0 0 0 0
          0 0 0 0 0 0
          0 0 0 0 0 0
          0 0 0 0 0 0
          0 0 0 0 0 0
          0 0 0 0 0 0
          0 0 0 0 0 0
          0 0 0 0 0 0
          0 0 0 0 0 0
          0 0 0 0 0 0
          0 0 0 0 0 0
          0 0 0 0 0 0
          0 0 0 0 0 0
          0 0 0 0 0 0
          0 0 0 0 0 0
          0 0 0 0 0 0
          0 0 0 0 0 0
          0 0 0 0 0 0
          0 0 0 0 0 0
          0 0 0 0 0 0
          0 0 0 0 0 0
          0 0 0 0 0 0
          0 0 0 0 0 0
          0 0 0 0 0 0
          0 0 0 0 0 0
          0 0 0 0 0 0
          0 0 0 0 0 0
          0 0 0 0 0 0
          0 0 0 0 0 0
          0 0 0 0 0 0
          0 0
        </DataArray>
        <DataArray type="Float64" Name="gradient_error" format="ascii" RangeMin="1.214510294255111e-10" RangeMax="1.4529783481204142e-7">
          6.869927547784302e-9 2.24203232595375e-8 1.0138035508713292e-8 8.383138481895216e-8 3.8999675922059645e-10 7.216880218776849e-10
          1.0425512461827437e-9 1.47517235732144e-9 1.9802835410532827e-9 2.00203752767608e-9 2.866606822899652e-9 7.418725969006752e-10
          9.536814286229766e-10 9.633224389970091e-8 5.175425675606433e-8 1.4529783481204142e-7 7.631244970076133e-8 1.4931721326258825e-8
          3.4191980750992196e-8 7.257081500737489e-9 1.0375896925615575e-7 4.779528820750628e-8 1.4863889783710316e-9 4.3683122277690796e-10
          2.3266670672421267e-9 1.4914298973402568e-9 7.641141902184958e-10 3.6994004928342857e-9 1.9000852643945903e-9 2.96786295231362e-9
          6.702517206930897e-10 1.0964351369730445e-9 2.0879614743949992e-9 3.631398479459499e-9 1.6330117767662631e-9 4.2503413023190096e-9
          1.6279504444090338e-9 4.359528936515323e-9 8.60184991810572e-10 7.353709772467252e-10 3.707898991006204e-10 2.5894101922405473e-10
          1.1616240858341702e-9 1.3447746421954719e-9 4.4849316920721255e-10 1.4396724466498507e-9 4.730934802891712e-10 9.8976467881289e-9
          2.628233169434254e-8 1.4137624548198132e-8 6.436758377923306e-8 8.887267030301195e-8 4.9699413618631826e-8 8.899788041607614e-8
          3.819628562735518e-9 5.545905422046988e-9 3.995295090636371e-9 9.742679503601639e-9 1.479987013379992e-8 1.14842839884106e-8
          1.7386563541755022e-8 2.5886224177421234e-9 8.368616832229345e-10 1.5829201572855566e-9 9.161234907482556e-10 4.7738761034142555e-9
          1.3177088794144861e-8 1.8131404757617458e-9 2.1096528656057236e-9 4.013262367334618e-9 6.902010641512003e-9 1.7738390017081034e-9
          3.268980661279895e-8 4.224403089413367e-9 1.3252525927048896e-8 9.888625311390431e-10 1.1883271863476405e-9 5.208202118665853e-10
          6.499075344382308e-10 1.1625894550030783e-9 1.1275109881084036e-9 7.981828044367935e-10 2.7619512783516547e-9 1.68355495632144e-9
          1.0398352183943463e-9 5.790244920932626e-8 9.14431279898905e-9 2.156376327476146e-8 2.9257566274182375e-9 6.97649052337389e-8
          1.1961973606752518e-8 2.5359344252265483e-8 6.602534773469149e-9 4.374792798061113e-9 1.8645247079764414e-9 1.1110323288085376e-9
          8.845620708894787e-9 6.044277264684579e-9 2.426435708356937e-9 2.5868960594714126e-9 6.043788218451538e-10 3.6795530810085985e-9
          8.139041586153976e-10 2.763422892287296e-9 3.5542243464331446e-9 1.243895209750196e-9 1.1041829071917553e-9 1.8145422689625974e-9
          2.8267089076743337e-9 1.1852850947519382e-9 5.9218904169902e-9 1.4377557421918432e-9 5.255374208932287e-9 5.899430571711658e-10
          7.181202548966669e-10 3.070293434601765e-10 5.811687282579205e-10 3.45128783138677e-10 5.308061549766689e-10 2.6962526010896094e-10
          9.000739312959592e-10 6.73032154237165e-10 1.0907302303642281e-9 9.062386532453326e-9 2.287547614738798e-9 8.166567411921597e-9
          3.566985805289128e-9 1.065114710805565e-8 2.688643462944982e-9 9.661261952364692e-9 1.1633019385515133e-9 6.201483171563219e-10
          1.7471218515397465e-9 9.217804076721089e-10 1.3770301058196701e-9 7.41244997146622e-10 2.029266769165698e-9 3.205997949180836e-10
          4.752299128260986e-10 3.8363051759201513e-10 5.558766481027152e-10 1.4021458415684646e-9 2.787566281982921e-10 7.644336353361204e-10
          3.967958386644628e-10 4.4965690571772243e-10 8.992750457492298e-10 6.470805812274052e-10 2.2690666590150256e-10 4.856538306144791e-10
          1.214510294255111e-10 2.546909773276287e-10 2.1455174468577297e-10 3.5197561030470474e-10 1.8943082867875543e-10 1.2407859780916208e-9
          5.686870224800587e-10 9.326106356579967e-10 7.046528707180551e-10 2.0301214647620737e-9 3.121053119532334e-10 5.272585313756165e-10
          3.8870772906454637e-10 1.2160501394239295e-9 2.9011438690341767e-9 1.2613736476931849e-9 6.232007245254157e-10 9.256330278303351e-10
          1.0588609000064136e-9 7.7061339603446e-10 2.5141061793129265e-9 1.8831084458543127e-9 2.0384217456716507e-9 4.958615874949594e-9
          3.5276162153169815e-9 8.39592192894921e-9 4.483705257739996e-9 3.628026618159272e-9 3.1295420069388684e-9 2.4408164465104103e-9
          7.685762735987582e-9 6.417644137019993e-9 5.187750181817607e-9 1.886793525920975e-9 2.3711103228345204e-9 1.5002766259459121e-9
          3.697134646876076e-9 1.580842758592587e-9 2.058388093737264e-9 1.1090350771418992e-9 1.5401103412784933e-9 9.896085445267122e-10
          1.279689652696259e-9 9.212018513817927e-10 3.293198880134111e-9 2.588990782270413e-9 1.990471749610349e-9 4.5493281938498537e-10
          6.890556406959364e-10 3.3700684374122024e-10 5.169984314433401e-10 4.098062788411995e-10 5.705882393042483e-10 4.266040588347715e-10
          1.4555792367885536e-9 1.1229803133821762e-9 1.1274232541755052e-9 2.465801593662927e-10 3.8382585331368034e-10 1.7893637538944223e-10
          2.81655465334349e-10 2.2067972449060349e-10 3.1467670943353464e-10 2.3033067177254358e-10 8.546800830269299e-10 6.391762653595418e-10
          6.516331163079284e-10 2.926555422266755e-9 2.331361862250308e-9 1.921673151048058e-9 1.5038993063201652e-9 5.364558545112908e-9
          4.417293144955295e-9 3.4336220972991492e-9 1.8234275803064673e-9 1.395195464067692e-9 1.1584515963966591e-9 8.74894959369193e-10
          3.558512779199664e-9 2.796141617645723e-9 2.1810192995793863e-9 8.337272363667832e-10 1.1840468656146771e-9 6.325272460416004e-10
          9.083379041792143e-10 5.034964183416663e-10 6.83849502641615e-10 5.803404800447662e-10 2.0516812636223926e-9 1.6133927663460751e-9
          1.1406761667918753e-9 4.716338170339086e-10 6.850926134582524e-10 3.467305749251828e-10 5.088813036579706e-10 3.5685121030542215e-10
          4.976973417206311e-10 3.645923774536461e-10 1.2445655667248291e-9 9.40975891334492e-10 7.637641663502456e-10 1.3206485050656043e-8
          8.741896090822371e-9 1.734350320683698e-8 1.2113115362646311e-8 1.0281619088498267e-8 7.953648260992743e-9 6.593195353316656e-9
          1.6408463499929138e-8 1.4582532673259033e-8 1.0645474439489888e-8 5.393571780870636e-9 3.2839183634272584e-9 6.8660776860808945e-9
          4.865336660345931e-9 3.935993248595079e-9 2.8734340920771898e-9 2.2013967477482734e-9 6.347352849782957e-9 5.349416509736647e-9
          3.7101740245399303e-9 2.106813475636961e-8 1.3891778284581903e-8 2.2915625340917355e-8 2.0015460354236215e-8 1.794435762261546e-8
          1.292586428707301e-8 1.1180765586700485e-8 2.1576412246646227e-8 1.9169501477414575e-8 1.3940152910394664e-8 8.045957415473326e-9
          4.889208382797245e-9 8.60806084652205e-9 7.518828517843848e-9 6.456427623842662e-9 4.3629846023035855e-9 3.4858802114290677e-9
          8.023160325427358e-9 6.879212766276447e-9 4.641316601326798e-9 8.84444030274424e-9 7.480732000136804e-9 5.520977264240931e-9
          4.563252850769734e-9 1.2790389760876959e-8 1.0997812564493906e-8 7.831662176458e-9 6.191814830769814e-9 4.995351592694819e-9
          3.69121439051282e-9 2.9118163597840553e-9 9.252389163275041e-9 7.603306068883453e-9 5.444987135876547e-9 3.200524831181885e-9
          2.5744356104953593e-9 1.7332972731594575e-9 1.353341455190236e-9 4.445021013423251e-9 3.6380970434693325e-9 2.3491544831909965e-9
          2.0299933515052555e-9 1.5642784664580175e-9 1.0387945440862973e-9 7.833008581538887e-10 2.916792160487643e-9 2.2824698640628097e-9
          1.4545543565697007e-9 1.5881588038279176e-8 1.3769922831293423e-8 9.66622576484385e-9 8.230025660642895e-9 1.7007290903030392e-8
          1.4784851360843775e-8 1.036173403137177e-8 1.166622103915698e-8 9.667157039833045e-9 6.8645673706131845e-9 5.581699391202038e-9
          1.255283439672432e-8 1.042253484469293e-8 7.4033410168598e-9 5.434987402655878e-9 4.501048331519235e-9 2.833390860601962e-9
          2.2707268468213073e-9 5.811986408446813e-9 4.8321368267152e-9 3.0179175544986593e-9 3.646561021722743e-9 2.8804373171319804e-9
          1.7856723401935526e-9 1.3734031051225604e-9 3.928944701913649e-9 3.11357208877615e-9 1.9134505424628502e-9 6.082295541801936e-9
          4.716326280932479e-9 3.4154464711214675e-9 1.7396224568686148e-9 1.2899239152196113e-9 8.293347786144986e-10 7.822592005349217e-9
          6.147272801775162e-9 4.407482643487169e-9 3.372174816506891e-9 8.461666310496705e-9 6.680903918799353e-9 4.792171850795211e-9
          2.213782768323297e-9 1.6532740049588237e-9 1.0311237715174768e-9 7.550080809196232e-10 2.3998873262914693e-9 1.7968105935368213e-9
          1.109748899779565e-9 7.074781534742907e-10 8.78176076279881e-10 7.165101259962942e-10 1.2777546279925824e-9 5.931250758552001e-10
          7.473409607689455e-10 4.0690042595131286e-10 5.289151304151922e-10 4.740355531949281e-10 5.843938604959868e-10 3.8693804321885627e-10
          1.1099336072927843e-9 8.190334809961721e-10 8.518412145800756e-10 2.9678450648155533e-10 3.840948246082962e-10 2.5854015929659446e-10
          3.268652336442181e-10 2.3189520772640326e-10 2.8955957301660716e-10 2.575206545911813e-10 6.065049915246291e-10 5.021761283964345e-10
          4.2964842651047427e-10 1.7487509831670562e-9 1.439462364001332e-9 2.1606886047283462e-9 1.5400045817746258e-9 1.169246575418337e-9
          1.1738241103554967e-9 7.916811233132948e-10 1.9378676583820434e-9 1.5183162924194702e-9 1.4752049302979512e-9 2.4707201737691197e-9
          2.0743174162393756e-9 2.610929847515965e-9 2.2390301397822133e-9 1.7856316850373792e-9 1.7035173639043168e-9 1.1752930964492496e-9
          2.3640237574467136e-9 1.885986808959219e-9 1.7953428265606187e-9 8.893061347270316e-10 6.763463738199486e-10 5.959984668195353e-10
          4.5348761223953775e-10 1.1736936369558992e-9 9.06026294332094e-10 7.642286820855107e-10 4.1251725871808867e-10 5.080226977386492e-10
          3.0406582743738733e-10 3.764979549183248e-10 2.9657299453816226e-10 3.394601221384423e-10 2.4879043627479177e-10 6.892183028519379e-10
          5.150462689137956e-10 4.3295407609950754e-10 1.3933137545631646e-9 1.0825880715249798e-9 8.989191297840233e-10 6.847583600252171e-10
          1.4762476643543727e-9 1.1501472634269381e-9 9.493049143219585e-10 8.283257007361139e-10 6.222280886644366e-10 5.143337059966859e-10
          3.79946575258922e-10 8.817429325275617e-10 6.632937219005442e-10 5.451065095330791e-10 3.7823113145672897e-10 2.7218993255248815e-10
          2.3184277599569488e-10 4.587962194257091e-10 3.3124573427271157e-10 2.774020510425408e-10 1.9906874051868457e-10 4.8968295867416e-10
          3.5390972056105393e-10 2.9437588574872774e-10
        </DataArray>
        <DataArray type="Float64" Name="gradient_matprop_error" format="ascii" RangeMin="0" RangeMax="0">
          0 0 0 0 0 0
          0 0 0 0 0 0
          0 0 0 0 0 0
          0 0 0 0 0 0
          0 0 0 0 0 0
          0 0 0 0 0 0
          0 0 0 0 0 0
          0 0 0 0 0 0
          0 0 0 0 0 0
          0 0 0 0 0 0
          0 0 0 0 0 0
          0 0 0 0 0 0
          0 0 0 0 0 0
          0 0 0 0 0 0
          0 0 0 0 0 0
          0 0 0 0 0 0
          0 0 0 0 0 0
          0 0 0 0 0 0
          0 0 0 0 0 0
          0 0 0 0 0 0
          0 0 0 0 0 0
          0 0 0 0 0 0
          0 0 0 0 0 0
          0 0 0 0 0 0
          0 0 0 0 0 0
          0 0 0 0 0 0
          0 0 0 0 0 0
          0 0 0 0 0 0
          0 0 0 0 0 0
          0 0 0 0 0 0
          0 0 0 0 0 0
          0 0 0 0 0 0
          0 0 0 0 0 0
          0 0 0 0 0 0
          0 0 0 0 0 0
          0 0 0 0 0 0
          0 0 0 0 0 0
          0 0 0 0 0 0
          0 0 0 0 0 0
          0 0 0 0 0 0
          0 0 0 0 0 0
          0 0 0 0 0 0
          0 0 0 0 0 0
          0 0 0 0 0 0
          0 0 0 0 0 0
          0 0 0 0 0 0
          0 0 0 0 0 0
          0 0 0 0 0 0
          0 0 0 0 0 0
          0 0 0 0 0 0
          0 0 0 0 0 0
          0 0 0 0 0 0
          0 0 0 0 0 0
          0 0 0 0 0 0
          0 0 0 0 0 0
          0 0 0 0 0 0
          0 0 0 0 0 0
          0 0 0 0 0 0
          0 0 0 0 0 0
          0 0 0 0 0 0
          0 0 0 0 0 0
          0 0 0 0 0 0
          0 0 0 0 0 0
          0 0 0 0 0 0
          0 0 0 0 0 0
          0 0 0 0 0 0
          0 0 0 0 0 0
          0 0 0 0 0 0
          0 0 0 0 0 0
          0 0 0 0 0 0
          0 0 0 0 0 0
          0 0 0 0 0 0
          0 0 0 0 0 0
          0 0 0 0 0 0
          0 0 0 0 0 0
          0 0
        </DataArray>
        <DataArray type="Float64" Name="initial_marker" format="ascii" RangeMin="0" RangeMax="2">
          0 0.25 0 2 0 0
          0 2 0 0 0 0
          0 1.75 2 2 0.75 0.3333333333333333
          0.5 0 1 0.5 0 0
          0 2 1.5 2 0 0
          0 0 0 0 0 0
          0 0 0 0 0 0
          0 0 0 0 0 0.6666666666666666
          1.5 1 2 2 2 2
          0 0.5 0 1 1 0
          1 2 0 2 2 0.25
          1.5 0 1.5 0 0.5 0
          2 2 2 0 1.5 0
          1.5 0 0 0 2 2
          1.5 2 2 2 2 2
          2 2 2 2 2 2
          2 2 2 2 2 2
          2 0 0.25 0 0 0
          0 0 0.5 0 0 0
          0 0 0 0 0 0
          0 0 0 1 1 0
          0 1 1 0 1 1
          0 0 1 1 0 0.5
          0 1 0 0 0 0
          0 0 0 0 0 0
          0 0 0 0 0 1
          0 1 1 2 0 1
          1 2 2 1 0 1
          1 1 2 2 2 2
          2 2 2 2 2 2
          2 2 2 1 1.5 1
          2 1 1.5 1 1.5 0
          1 1 2 2 2 0
          1 0 1 0 1 1
          2 2 2 0 1 0
          1 0 1 1 2 2
          2 2 2 2 2 2
          2 2 2 2 2 2
          2 2 2 1 1.5 1
          1.5 0 0.75 0.6666666666666666 2 2
          1.75 1 1.5 1 1.5 0
          1 1 2 2 2 2
          2 2 2 2 2 2
          2 2 2 2 2 2
          2 2 2 2 2 2
          2 2 2 2 2 2
          2 2 2 2 2 2
          2 2 2 2 2 2
          2 2 2 2 2 2
          2 2 2 2 2 2
          2 2 2 2 2 2
          2 2 2 2 2 2
          2 2 2 2 2 2
          2 2 2 2 2 2
          2 2 2 2 2 2
          2 2 2 2 2 2
          2 2 2 2 2 2
          2 2 2 2 2 2
          2 2 2 2 2 2
          2 2 2 2 2 2
          2 2 2 2 2 2
          2 0 0.5 0 1 0
          0.5 0 0.5 0 0 0
          1 1 0 0 0.25 0
          0 0 0 0 0.75 0.6666666666666666
          0 1.5 1 2 1.5 1.5
          1 1 2 2 2 2
          2 2 2 2 2 2
          2 2 2 1.5 1.5 1
          1 2 2 2 1 1.5
          1 1.5 0 1 1 2
          2 2 2 2 2 2
          2 2 2 2 2 2
          2 2 2 2 1.75 1.5
          1.5 2 2 2 2 2
          2 2
        </DataArray>
        <DataArray type="Float64" Name="markers_norefine" format="ascii" RangeMin="0" RangeMax="0">
          0 0 0 0 0 0
          0 0 0 0 0 0
          0 0 0 0 0 0
          0 0 0 0 0 0
          0 0 0 0 0 0
          0 0 0 0 0 0
          0 0 0 0 0 0
          0 0 0 0 0 0
          0 0 0 0 0 0
          0 0 0 0 0 0
          0 0 0 0 0 0
          0 0 0 0 0 0
          0 0 0 0 0 0
          0 0 0 0 0 0
          0 0 0 0 0 0
          0 0 0 0 0 0
          0 0 0 0 0 0
          0 0 0 0 0 0
          0 0 0 0 0 0
          0 0 0 0 0 0
          0 0 0 0 0 0
          0 0 0 0 0 0
          0 0 0 0 0 0
          0 0 0 0 0 0
          0 0 0 0 0 0
          0 0 0 0 0 0
          0 0 0 0 0 0
          0 0 0 0 0 0
          0 0 0 0 0 0
          0 0 0 0 0 0
          0 0 0 0 0 0
          0 0 0 0 0 0
          0 0 0 0 0 0
          0 0 0 0 0 0
          0 0 0 0 0 0
          0 0 0 0 0 0
          0 0 0 0 0 0
          0 0 0 0 0 0
          0 0 0 0 0 0
          0 0 0 0 0 0
          0 0 0 0 0 0
          0 0 0 0 0 0
          0 0 0 0 0 0
          0 0 0 0 0 0
          0 0 0 0 0 0
          0 0 0 0 0 0
          0 0 0 0 0 0
          0 0 0 0 0 0
          0 0 0 0 0 0
          0 0 0 0 0 0
          0 0 0 0 0 0
          0 0 0 0 0 0
          0 0 0 0 0 0
          0 0 0 0 0 0
          0 0 0 0 0 0
          0 0 0 0 0 0
          0 0 0 0 0 0
          0 0 0 0 0 0
          0 0 0 0 0 0
          0 0 0 0 0 0
          0 0 0 0 0 0
          0 0 0 0 0 0
          0 0 0 0 0 0
          0 0 0 0 0 0
          0 0 0 0 0 0
          0 0 0 0 0 0
          0 0 0 0 0 0
          0 0 0 0 0 0
          0 0 0 0 0 0
          0 0 0 0 0 0
          0 0 0 0 0 0
          0 0 0 0 0 0
          0 0 0 0 0 0
          0 0 0 0 0 0
          0 0 0 0 0 0
          0 0
        </DataArray>
        <DataArray type="Float64" Name="markers_mustrefine" format="ascii" RangeMin="0" RangeMax="2">
          0 0.25 0 2 0 0
          0 2 0 0 0 0
          0 1.75 2 2 0.75 0.3333333333333333
          0.5 0 1 0.5 0 0
          0 2 1.5 2 0 0
          0 0 0 0 0 0
          0 0 0 0 0 0
          0 0 0 0 0 0.6666666666666666
          1.5 1 2 2 2 2
          0 0.5 0 1 1 0
          1 2 0 2 2 0.25
          1.5 0 1.5 0 0.5 0
          2 2 2 0 1.5 0
          1.5 0 0 0 2 2
          1.5 2 2 2 2 2
          2 2 2 2 2 2
          2 2 2 2 2 2
          2 0 0.25 0 0 0
          0 0 0.5 0 0 0
          0 0 0 0 0 0
          0 0 0 1 1 0
          0 1 1 0 1 1
          0 0 1 1 0 0.5
          0 1 0 0 0 0
          0 0 0 0 0 0
          0 0 0 0 0 1
          0 1 1 2 0 1
          1 2 2 1 0 1
          1 1 2 2 2 2
          2 2 2 2 2 2
          2 2 2 1 1.5 1
          2 1 1.5 1 1.5 0
          1 1 2 2 2 0
          1 0 1 0 1 1
          2 2 2 0 1 0
          1 0 1 1 2 2
          2 2 2 2 2 2
          2 2 2 2 2 2
          2 2 2 1 1.5 1
          1.5 0 0.75 0.6666666666666666 2 2
          1.75 1 1.5 1 1.5 0
          1 1 2 2 2 2
          2 2 2 2 2 2
          2 2 2 2 2 2
          2 2 2 2 2 2
          2 2 2 2 2 2
          2 2 2 2 2 2
          2 2 2 2 2 2
          2 2 2 2 2 2
          2 2 2 2 2 2
          2 2 2 2 2 2
          2 2 2 2 2 2
          2 2 2 2 2 2
          2 2 2 2 2 2
          2 2 2 2 2 2
          2 2 2 2 2 2
          2 2 2 2 2 2
          2 2 2 2 2 2
          2 2 2 2 2 2
          2 2 2 2 2 2
          2 2 2 2 2 2
          2 0 0.5 0 1 0
          0.5 0 0.5 0 0 0
          1 1 0 0 0.25 0
          0 0 0 0 0.75 0.6666666666666666
          0 1.5 1 2 1.5 1.5
          1 1 2 2 2 2
          2 2 2 2 2 2
          2 2 2 1.5 1.5 1
          1 2 2 2 1 1.5
          1 1.5 0 1 1 2
          2 2 2 2 2 2
          2 2 2 2 2 2
          2 2 2 2 1.75 1.5
          1.5 2 2 2 2 2
          2 2
        </DataArray>
        <DataArray type="Float64" Name="gradient_marker" format="ascii" RangeMin="0" RangeMax="1">
          0.5 0.25 0.625 0.75 1 1
          1 1 1 1 1 1
          1 0.75 0.25 1 0.5 0.16666666666666666
          0.25 0 0.5 0.25 0.75 1
          0.5 1 1 1 0.5 0.5
          1 1 0.5 0.5 1 0.5
          1 0.5 0.5 0.5 1 1
          0.5 0.5 1 0.5 1 0
          0 0 0.25 0.625 0.3333333333333333 0.75
          0 0 0 0 0 0
          0 1 1 1 1 0
          0 0.625 0.875 0 0 0.75
          0.125 1 0 1 1 1
          1 1 1 1 1 1
          1 0.375 1 0.125 1 0.5
          1 0.25 1 1 1 1
          1 1 1 1 1 1
          1 0 0 0.5 0.625 0
          0 0.5 0 0.75 0 1
          1 1 1 1 1 1
          1 1 1 0 0.75 0
          0.5 0 0.75 0 1 1
          1 1 1 1 1 1
          1 1 1 0.5 1 1
          1 0.5 0.5 0.5 1 1
          1 1 1 1 1 1
          1 1 1 1 1 1
          1 1 0 0.5 1 1
          0.5 1 0.5 1 0.5 0
          0 0 0.5 1 0.5 1
          0.5 1 0.5 0 0 0
          0 0.5 0.5 1 1 0.5
          0.5 1 0.5 1 0.5 1
          1 1 1 1 1 1
          1 1 1 1 1 1
          1 1 1 1 1 1
          1 1 1 1 1 1
          1 1 1 1 1 1
          1 1 1 1 1 1
          1 1 1 1 1 1
          1 1 1 1 1 1
          1 1 1 1 1 0
          0 0 0.5 1 0.5 1
          0.5 1 0.5 0 0 0
          0.5 1 0.5 1 0.5 1
          0.5 0 0 0 0.5 1
          0.5 1 0.5 1 0.5 0
          0 0 0.5 1 0.5 1
          0.5 1 0.5 1 1 1
          1 1 1 1 1 1
          1 1 1 1 1 1
          1 1 1 1 1 1
          1 1 1 1 1 1
          1 1 1 1 1 1
          1 1 1 1 1 1
          1 1 1 1 1 1
          1 1 1 1 1 1
          1 1 1 1 1 1
          1 1 1 1 1 1
          1 1 1 1 1 1
          1 1 1 1 1 1
          1 0 0 0 0 0.5
          0.5 1 1 0.5 0.5 1
          0.5 1 0.5 1 1 1
          1 1 1 1 1 1
          1 0 0 0 0.5 1
          0.5 1 0.5 1 0.5 0
          0 0 0.5 1 0.5 1
          0.5 1 0.5 1 1 1
          1 1 1 1 1 1
          1 1 1 1 1 1
          1 1 1 1 1 1
          1 1 1 1 1 1
          1 1 1 1 1 1
          1 1 1 1 1 1
          1 1
        </DataArray>
        <DataArray type="Float64" Name="gradient_matprop_marker" format="ascii" RangeMin="0" RangeMax="0">
          0 0 0 0 0 0
          0 0 0 0 0 0
          0 0 0 0 0 0
          0 0 0 0 0 0
          0 0 0 0 0 0
          0 0 0 0 0 0
          0 0 0 0 0 0
          0 0 0 0 0 0
          0 0 0 0 0 0
          0 0 0 0 0 0
          0 0 0 0 0 0
          0 0 0 0 0 0
          0 0 0 0 0 0
          0 0 0 0 0 0
          0 0 0 0 0 0
          0 0 0 0 0 0
          0 0 0 0 0 0
          0 0 0 0 0 0
          0 0 0 0 0 0
          0 0 0 0 0 0
          0 0 0 0 0 0
          0 0 0 0 0 0
          0 0 0 0 0 0
          0 0 0 0 0 0
          0 0 0 0 0 0
          0 0 0 0 0 0
          0 0 0 0 0 0
          0 0 0 0 0 0
          0 0 0 0 0 0
          0 0 0 0 0 0
          0 0 0 0 0 0
          0 0 0 0 0 0
          0 0 0 0 0 0
          0 0 0 0 0 0
          0 0 0 0 0 0
          0 0 0 0 0 0
          0 0 0 0 0 0
          0 0 0 0 0 0
          0 0 0 0 0 0
          0 0 0 0 0 0
          0 0 0 0 0 0
          0 0 0 0 0 0
          0 0 0 0 0 0
          0 0 0 0 0 0
          0 0 0 0 0 0
          0 0 0 0 0 0
          0 0 0 0 0 0
          0 0 0 0 0 0
          0 0 0 0 0 0
          0 0 0 0 0 0
          0 0 0 0 0 0
          0 0 0 0 0 0
          0 0 0 0 0 0
          0 0 0 0 0 0
          0 0 0 0 0 0
          0 0 0 0 0 0
          0 0 0 0 0 0
          0 0 0 0 0 0
          0 0 0 0 0 0
          0 0 0 0 0 0
          0 0 0 0 0 0
          0 0 0 0 0 0
          0 0 0 0 0 0
          0 0 0 0 0 0
          0 0 0 0 0 0
          0 0 0 0 0 0
          0 0 0 0 0 0
          0 0 0 0 0 0
          0 0 0 0 0 0
          0 0 0 0 0 0
          0 0 0 0 0 0
          0 0 0 0 0 0
          0 0 0 0 0 0
          0 0 0 0 0 0
          0 0 0 0 0 0
          0 0
        </DataArray>
        <DataArray type="Float64" Name="combo" format="ascii" RangeMin="0" RangeMax="1">
          0.5 0.25 0.625 0.75 1 1
          1 1 1 1 1 1
          1 0.75 0.25 1 0.5 0.16666666666666666
          0.25 0 0.5 0.25 0.75 1
          0.5 1 1 1 0.5 0.5
          1 1 0.5 0.5 1 0.5
          1 0.5 0.5 0.5 1 1
          0.5 0.5 1 0.5 1 0
          0 0 0.25 0.625 0.3333333333333333 0.75
          0 0 0 0 0 0
          0 1 1 1 1 0
          0 0.625 0.875 0 0 0.75
          0.125 1 0 1 1 1
          1 1 1 1 1 1
          1 0.375 1 0.125 1 0.5
          1 0.25 1 1 1 1
          1 1 1 1 1 1
          1 0 0 0.5 0.625 0
          0 0.5 0 0.75 0 1
          1 1 1 1 1 1
          1 1 1 0 0.75 0
          0.5 0 0.75 0 1 1
          1 1 1 1 1 1
          1 1 1 0.5 1 1
          1 0.5 0.5 0.5 1 1
          1 1 1 1 1 1
          1 1 1 1 1 1
          1 1 0 0.5 1 1
          0.5 1 0.5 1 0.5 0
          0 0 0.5 1 0.5 1
          0.5 1 0.5 0 0 0
          0 0.5 0.5 1 1 0.5
          0.5 1 0.5 1 0.5 1
          1 1 1 1 1 1
          1 1 1 1 1 1
          1 1 1 1 1 1
          1 1 1 1 1 1
          1 1 1 1 1 1
          1 1 1 1 1 1
          1 1 1 1 1 1
          1 1 1 1 1 1
          1 1 1 1 1 0
          0 0 0.5 1 0.5 1
          0.5 1 0.5 0 0 0
          0.5 1 0.5 1 0.5 1
          0.5 0 0 0 0.5 1
          0.5 1 0.5 1 0.5 0
          0 0 0.5 1 0.5 1
          0.5 1 0.5 1 1 1
          1 1 1 1 1 1
          1 1 1 1 1 1
          1 1 1 1 1 1
          1 1 1 1 1 1
          1 1 1 1 1 1
          1 1 1 1 1 1
          1 1 1 1 1 1
          1 1 1 1 1 1
          1 1 1 1 1 1
          1 1 1 1 1 1
          1 1 1 1 1 1
          1 1 1 1 1 1
          1 0 0 0 0 0.5
          0.5 1 1 0.5 0.5 1
          0.5 1 0.5 1 1 1
          1 1 1 1 1 1
          1 0 0 0 0.5 1
          0.5 1 0.5 1 0.5 0
          0 0 0.5 1 0.5 1
          0.5 1 0.5 1 1 1
          1 1 1 1 1 1
          1 1 1 1 1 1
          1 1 1 1 1 1
          1 1 1 1 1 1
          1 1 1 1 1 1
          1 1 1 1 1 1
          1 1
        </DataArray>
        <DataArray type="Float64" Name="dHdT" format="ascii" RangeMin="25.812878837753438" RangeMax="39.287375980340826">
          25.86548245934094 26.155679890295957 25.84624297455853 29.878243550277624 25.812878837753438 25.84366421479705
          25.81753607425281 26.374664710287036 25.824806523297816 25.81553688288915 25.817183957996257 25.812982370156213
          25.813449996891013 28.82990230797107 27.7704399065392 30.989381842274323 26.6308602182956 25.97502335086754
          26.230505652640666 25.895045163529385 26.98156545732462 26.42716592934212 26.05165309774807 25.87829548599903
          25.92409098075234 26.435313030760014 25.996689035368355 27.40212713180413 25.847014570359722 25.902987784083265
          25.82332983216387 25.84056411002138 25.83572644223069 25.853015249667138 25.829152107713924 25.958120239553956