<?xml version="1.0"?>
<VTKFile type="UnstructuredGrid" version="0.1" byte_order="LittleEndian" header_type="UInt32" compressor="vtkZLibDataCompressor">
  <UnstructuredGrid>
    <Piece NumberOfPoints="431" NumberOfCells="266">
      <PointData>
        <DataArray type="Int32" Name="libmesh_node_id" format="ascii" RangeMin="516" RangeMax="3563">
          516 524 799 801 802 804
          805 811 815 816 823 824
          1502 1503 1504 1510 1512 1513
          1514 1515 1516 1517 1518 1522
          1523 1524 1525 1556 1557 1558
          1559 1560 1561 1562 1563 1564
          1565 1590 1591 1592 1593 1628
          1629 1630 1631 1632 1633 1634
          1635 1636 1637 1974 1975 1981
          1982 1984 1985 2615 2616 2617
          2620 2623 2631 2632 2637 2648
          2649 2651 2654 2662 2664 2666
          2668 2669 2670 2671 2672 2673
          2674 2675 2676 2677 2678 2679
          2680 2681 2682 2683 2684 2685
          2686 2687 2688 2689 2690 2691
          2692 2693 2694 2695 2696 2697
          2698 2699 2703 2704 2706 2707
          2708 2709 2713 2714 2716 2717
          2718 2719 2720 2721 2722 2723
          2724 2725 2726 2727 2728 2729
          2730 2731 2732 2733 2734 2735
          2736 2737 2738 2739 2740 2741
          2742 2743 2744 2745 2746 2747
          2748 2749 2854 2855 2857 2870
          2872 2910 2911 2912 2913 2914
          2915 2916 2917 2918 2919 2920
          2921 2922 2923 2924 2925 2926
          2927 2928 2929 2930 2931 2932
          2933 2934 2935 2936 2937 2938
          2939 2940 2941 2942 2943 2944
          2945 2946 2947 2948 2949 2950
          2951 2952 2953 2954 2955 2956
          2957 2958 2959 2960 2961 2962
          2963 2964 2965 2966 2967 2968
          2969 2970 2971 2972 2973 2974
          2975 2976 2977 3122 3123 3124
          3125 3126 3127 3128 3129 3130
          3131 3132 3133 3136 3138 3139
          3140 3141 3142 3143 3144 3145
          3146 3147 3148 3149 3151 3153
          3154 3155 3258 3259 3262 3263
          3265 3269 3270 3339 3340 3341
          3342 3343 3344 3345 3346 3347
          3348 3349 3350 3351 3352 3353
          3354 3355 3356 3357 3358 3359
          3360 3361 3362 3363 3364 3365
          3366 3367 3368 3369 3370 3371
          3372 3373 3374 3375 3376 3377
          3378 3379 3380 3381 3382 3383
          3384 3385 3386 3387 3388 3389
          3390 3391 3392 3393 3394 3395
          3396 3397 3398 3399 3400 3401
          3402 3403 3404 3405 3406 3475
          3476 3482 3483 3486 3487 3510
          3511 3514 3515 1987 1978 1519
          800 1988 803 2700 2701 2635
          2702 2705 1507 1520 2710 2711
          2712 2715 1521 2795 2762 2808
          2768 2796 2809 2812 2772 2813
          2805 2815 2806 2816 2819 2820
          3018 2982 3019 3023 3022 3025
          3026 3029 3030 3047 3046 3051
          3050 3053 3054 3057 3058 3134
          3135 3137 3150 3152 3204 3205
          3210 3211 3208 3213 3224 3228
          3226 3230 3266 3302 3306 3407
          3408 3411 3413 3414 3416 3427
          3429 3431 3433 3441 3442 3445
          3447 3448 3450 3461 3463 3465
          3467 3479 3480 3503 3504 3507
          3508 3531 3535 3559 3563
        </DataArray>
        <DataArray type="Float64" Name="bounds" format="ascii" RangeMin="0" RangeMax="0">
          0 0 0 0 0 0
          0 0 0 0 0 0
          0 0 0 0 0 0
          0 0 0 0 0 0
          0 0 0 0 0 0
          0 0 0 0 0 0
          0 0 0 0 0 0
          0 0 0 0 0 0
          0 0 0 0 0 0
          0 0 0 0 0 0
          0 0 0 0 0 0
          0 0 0 0 0 0
          0 0 0 0 0 0
          0 0 0 0 0 0
          0 0 0 0 0 0
          0 0 0 0 0 0
          0 0 0 0 0 0
          0 0 0 0 0 0
          0 0 0 0 0 0
          0 0 0 0 0 0
          0 0 0 0 0 0
          0 0 0 0 0 0
          0 0 0 0 0 0
          0 0 0 0 0 0
          0 0 0 0 0 0
          0 0 0 0 0 0
          0 0 0 0 0 0
          0 0 0 0 0 0
          0 0 0 0 0 0
          0 0 0 0 0 0
          0 0 0 0 0 0
          0 0 0 0 0 0
          0 0 0 0 0 0
          0 0 0 0 0 0
          0 0 0 0 0 0
          0 0 0 0 0 0
          0 0 0 0 0 0
          0 0 0 0 0 0
          0 0 0 0 0 0
          0 0 0 0 0 0
          0 0 0 0 0 0
          0 0 0 0 0 0
          0 0 0 0 0 0
          0 0 0 0 0 0
          0 0 0 0 0 0
          0 0 0 0 0 0
          0 0 0 0 0 0
          0 0 0 0 0 0
          0 0 0 0 0 0
          0 0 0 0 0 0
          0 0 0 0 0 0
          0 0 0 0 0 0
          0 0 0 0 0 0
          0 0 0 0 0 0
          0 0 0 0 0 0
          0 0 0 0 0 0
          0 0 0 0 0 0
          0 0 0 0 0 0
          0 0 0 0 0 0
          0 0 0 0 0 0
          0 0 0 0 0 0
          0 0 0 0 0 0
          0 0 0 0 0 0
          0 0 0 0 0 0
          0 0 0 0 0 0
          0 0 0 0 0 0
          0 0 0 0 0 0
          0 0 0 0 0 0
          0 0 0 0 0 0
          0 0 0 0 0 0
          0 0 0 0 0 0
          0 0 0 0 0
        </DataArray>
        <DataArray type="Float64" Name="gradient_error" format="ascii" RangeMin="2.54323040809351e-10" RangeMax="2.9743725549527084e-8">
          6.707875503260897e-10 1.4774180539915392e-8 2.1952720262972014e-9 1.762945844979722e-8 9.093368469699227e-9 9.009671837224579e-9
          4.2646711007295285e-9 1.5864437325786222e-8 3.0566121640254405e-9 1.2945611555293067e-9 9.642492360209697e-9 6.137592259611506e-9
          1.9895100827149917e-9 4.543820520174371e-9 3.947241460798328e-9 1.4818018709053929e-8 1.2692925548749274e-9 1.1434512537806664e-9
          2.9015608344817256e-9 2.4923964641202587e-9 6.022632843782128e-10 1.7379933160604134e-9 1.4792083452001288e-9 1.313737673115142e-8
          1.1000003694765967e-8 7.47971760296437e-9 6.512337809595207e-9 2.774683014766874e-8 2.6042388645303892e-8 2.2735230419613205e-8
          2.0236388220435267e-8 1.6673066017715857e-8 1.1849166894175258e-8 1.7357432590153222e-8 2.294870085471623e-8 2.0397103720069746e-8
          2.1601110712363713e-8 5.5971540073714414e-9 4.583497532615644e-9 2.464110305661126e-9 2.497613388026133e-9 1.6104647518555537e-8
          1.3620950211310294e-8 9.676706541400691e-9 8.125918776164835e-9 7.61169213522901e-9 4.30857800123623e-9 1.4891655034889331e-8
          1.575461831922179e-8 9.698400373532779e-9 1.0392002560502427e-8 1.984915717369956e-9 1.8188689451179155e-9 1.100671921970565e-9
          1.0051035708592762e-9 5.754048558337685e-10 5.245227035930961e-10 1.2160920450680786e-9 2.0815590671833447e-9 2.014892166966693e-9
          1.8268839406629447e-9 4.386695273639806e-9 9.56446607767844e-10 1.5532309555664395e-9 3.3105409700673122e-9 9.12921644867212e-9
          8.788408098237626e-9 7.843935827777082e-9 1.6872699948939496e-8 6.5057409889193224e-9 5.027169805395134e-9 1.2029173070787285e-8
          9.382903851931874e-10 9.092696943405387e-10 1.5991479822451927e-9 1.5458180965985582e-9 6.85910987891679e-10 1.2266809618136879e-9
          1.1846095027937355e-9 8.259580116061921e-10 1.3957404714573907e-9 1.0665130787106324e-9 3.6417148687768e-9 3.5109342107123997e-9
          2.7933225509260738e-9 3.146045376920248e-9 5.265478434995897e-10 5.095289589159936e-10 9.287373813356013e-10 8.961942909390739e-10
          3.729502530351203e-10 6.910580238164787e-10 6.664301621150638e-10 4.608569056322349e-10 8.050167055188714e-10 5.975588011214708e-10
          2.2710302953218232e-9 2.183469195043214e-9 1.6692043327960235e-9 1.9409802966600123e-9 7.044908523779199e-10 1.1783454805956136e-9
          5.278319552498441e-10 8.962005255158418e-10 2.6205444088796613e-9 2.0620935344739148e-9 3.9046688329827863e-10 6.739621380263017e-10
          2.850628983714561e-10 4.988752505311155e-10 1.596517036965057e-9 1.2106442248587913e-9 7.721077521830913e-9 7.422892623069736e-9
          6.417811266318886e-9 6.162729479231631e-9 6.598362921518534e-9 5.456679463531568e-9 1.5375724215073917e-8 1.4709750238193553e-8
          1.256481425299921e-8 1.290420368352753e-8 5.224651787890271e-9 5.00988953005273e-9 4.151231722672722e-9 3.973271004688785e-9
          4.415157013128593e-9 3.4827097066577168e-9 1.1008288705865087e-8 1.0517617504761203e-8 8.600332494013822e-9 9.176911396291298e-9
          5.429446328494196e-9 4.454106967024393e-9 4.1378319414216934e-9 3.3508489028151085e-9 1.0418301678085666e-8 8.829220037857682e-9
          7.769608448128399e-9 3.5730385386455133e-9 2.794954523958252e-9 2.65666508813226e-9 2.0567855802826063e-9 7.320035335991879e-9
          5.923067878118203e-9 5.337948393836168e-9 2.779932305684268e-8 2.7059202482068687e-8 2.4571116628952277e-8 2.0208889834299078e-8
          1.499374040878426e-8 2.571426497898931e-8 2.485605262777473e-8 2.2983768447063627e-8 2.2090816122474132e-8 2.219179504646046e-8
          1.9470065093965344e-8 2.9743725549527084e-8 2.953566712694168e-8 2.747105398592282e-8 2.8376223136595488e-8 1.9945551236840263e-8
          1.9087167310714182e-8 1.6802909166921986e-8 1.6031453493956232e-8 1.6661679356895106e-8 1.3893955764205072e-8 2.5369202388214978e-8
          2.498909601221622e-8 2.221435606719656e-8 2.3277019222196442e-8 1.7948973616006715e-8 1.5556727774384947e-8 1.3138096205669328e-8
          1.1273770451734294e-8 2.4948704037508702e-8 2.2332680342863194e-8 1.9082458663655713e-8 1.3182259773320487e-8 1.091255657375489e-8
          9.46506399306481e-9 7.765215298040875e-9 1.9461567566338977e-8 1.6483075295550422e-8 1.4231424258369886e-8 2.3439437095928267e-8
          2.4681715720707894e-8 2.219043243684383e-8 2.32802152411851e-8 2.681174820887565e-8 2.5326586430960506e-8 1.8487235506038583e-8
          2.059098529026603e-8 1.909244812378131e-8 2.4316390890931346e-8 2.0601437040319503e-8 2.1725956475530763e-8 1.9417560630936817e-8
          2.0443469742725747e-8 2.3557287283430816e-8 2.158812977835104e-8 1.5577164270467924e-8 1.754852083151623e-8 1.6888512765923722e-8
          2.162760198201903e-8 2.711296773073102e-8 2.5082573338833474e-8 2.3024029699759535e-8 2.045141347749698e-8 2.6659875210329112e-8
          2.500339742587788e-8 2.4132072789444673e-8 2.2590458584761305e-8 1.9693746684362615e-8 1.7692110454512257e-8 1.4865052994944315e-8
          2.289273130761711e-8 2.0281628369787456e-8 1.8799245238956687e-8 3.206203330283264e-9 3.0632593677008435e-9 2.4024418563178136e-9
          2.2920696814922456e-9 2.671553654123728e-9 1.9911536697724506e-9 7.1971781687751425e-9 6.86206398747615e-9 5.326035572009925e-9
          5.942572225001976e-9 1.7469982261653049e-9 1.6648832464773864e-9 1.4415802070663537e-9 4.2115254203001504e-9 3.9984077459704175e-9
          2.8965134187961895e-9 3.4192251788011407e-9 2.1284390831256117e-9 1.576883838210367e-9 1.552505767070386e-9 1.1414719778997176e-9
          4.663278949048576e-9 3.5602195903282732e-9 3.3126074354453417e-9 1.1358933500717845e-9 8.172457722799577e-10 2.6315917362618715e-9
          1.8821427210802817e-9 1.8262513752828271e-9 1.0424525546958785e-9 7.600174006182103e-10 2.139082706991037e-9 1.5912569502834992e-9
          5.405383356568956e-10 1.1503581372555873e-9 8.081281572632187e-10 1.3693350228068377e-8 1.3051130736773026e-8 1.0871801909725713e-8
          1.03570554494876e-8 1.1280421079125393e-8 8.93385050733879e-9 1.9676188361225413e-8 1.9031821734102406e-8 1.5480328272475156e-8
          1.6942164524166996e-8 8.431552925594176e-9 8.020066613495132e-9 6.334158038926279e-9 6.009001350757083e-9 6.878700236381951e-9
          5.112901126933786e-9 1.2594167890130737e-8 1.2105161330133528e-8 9.288283820769779e-9 1.0650269733324927e-8 8.816572795339641e-9
          6.933119850487055e-9 6.203794855264491e-9 4.807003425774046e-9 1.3532035945252593e-8 1.0800457424458943e-8 9.623045466968762e-9
          5.277870747233892e-9 3.8749236731390935e-9 3.6018668546174714e-9 2.6063731310542285e-9 8.40350686386386e-9 6.329210332577045e-9
          5.832110798597611e-9 1.858355645186951e-8 1.9111172077769073e-8 1.6557096854215116e-8 1.6571323660664983e-8 1.905051109468448e-8
          1.5731667675340105e-8 1.5353767447327064e-8 1.687537337641603e-8 1.5518858807238224e-8 1.866127840710791e-8 1.3299694760627535e-8
          1.317729698206176e-8 1.0326738117947766e-8 1.0235334073526406e-8 1.2374933854841675e-8 9.596693241163816e-9 1.2369474241223554e-8
          1.2583817171982206e-8 9.817857961187278e-9 1.243309585922422e-8 1.6459879290421784e-8 1.3234959597314346e-8 1.2146625600143934e-8
          9.70114242885251e-9 1.7144552168670156e-8 1.384111479019808e-8 1.2983891316327936e-8 1.0398813230725319e-8 7.978786036986808e-9
          7.545357213177007e-9 5.664063349862687e-9 1.0896593267827423e-8 8.419830341440376e-9 8.125012880657335e-9 3.916340106656591e-9
          2.9778544155522695e-9 2.1934745904255884e-9 1.5643653939050365e-9 3.535825387328154e-9 2.5595948291157957e-9 4.667176247447946e-9
          3.41593472680961e-9 5.09599140794999e-9 3.7451588745889925e-9 7.644336353361204e-10 1.4021458415684646e-9 8.368616832229345e-10
          1.4863889783710316e-9 3.967958386644628e-10 4.3683122277690796e-10 5.686870224800587e-10 9.326106356579967e-10 1.2407859780916208e-9
          7.046528707180551e-10 2.0301214647620737e-9 2.5886224177421234e-9 1.5829201572855566e-9 3.121053119532334e-10 5.272585313756165e-10
          3.8870772906454637e-10 1.2160501394239295e-9 9.161234907482556e-10 1.4555792367885536e-9 1.8831084458543127e-9 2.926555422266755e-9
          3.628026618159272e-9 1.1229803133821762e-9 2.331361862250308e-9 5.364558545112908e-9 6.417644137019993e-9 4.417293144955295e-9
          8.546800830269299e-10 1.8234275803064673e-9 6.391762653595418e-10 1.395195464067692e-9 3.558512779199664e-9 2.796141617645723e-9
          8.84444030274424e-9 1.0281619088498267e-8 7.480732000136804e-9 1.0997812564493906e-8 1.2790389760876959e-8 6.191814830769814e-9
          4.995351592694819e-9 9.252389163275041e-9 7.603306068883453e-9 1.3769922831293423e-8 1.5881588038279176e-8 1.4784851360843775e-8
          1.7007290903030392e-8 1.166622103915698e-8 9.667157039833045e-9 1.255283439672432e-8 1.042253484469293e-8 1.2327013667317823e-9
          1.173646872851143e-9 1.013527072059581e-9 7.95622877883169e-10 5.699675881721138e-10 8.441316123179255e-10 8.031213011850264e-10
          2.139854685971353e-9 2.02488815789773e-9 6.921851667062477e-10 1.7156033368106397e-9 5.422847357254399e-10 1.3024874060275292e-9
          3.8778894456021445e-10 8.896984883863109e-10 3.7513050497533167e-10 2.54323040809351e-10 5.517397688782374e-10 4.574443922735254e-9
          4.327571326373403e-9 3.6543462681588325e-9 7.233295960067922e-9 6.916247916082028e-9 5.9829896754294525e-9 2.739978388557386e-9
          1.8208878620670713e-9 4.582986540885163e-9 3.0628772647852815e-9 7.994250893534145e-9 7.875926182261529e-9 7.264361747939991e-9
          7.620022633423922e-9 7.691789366951495e-9 7.44054483037143e-9 5.8989722032084275e-9 4.083191299497353e-9 6.28258366703114e-9
          4.4495781996882825e-9 6.082295541801936e-9 4.716326280932479e-9 7.822592005349217e-9 6.147272801775162e-9 8.461666310496705e-9
          6.680903918799353e-9 1.080332388406667e-9 1.788751701381422e-9 2.4093235863578503e-9 2.650886856451999e-9
        </DataArray>
        <DataArray type="Float64" Name="gradient_matprop_error" format="ascii" RangeMin="0" RangeMax="0">
          0 0 0 0 0 0
          0 0 0 0 0 0
          0 0 0 0 0 0
          0 0 0 0 0 0
          0 0 0 0 0 0
          0 0 0 0 0 0
          0 0 0 0 0 0
          0 0 0 0 0 0
          0 0 0 0 0 0
          0 0 0 0 0 0
          0 0 0 0 0 0
          0 0 0 0 0 0
          0 0 0 0 0 0
          0 0 0 0 0 0
          0 0 0 0 0 0
          0 0 0 0 0 0
          0 0 0 0 0 0
          0 0 0 0 0 0
          0 0 0 0 0 0
          0 0 0 0 0 0
          0 0 0 0 0 0
          0 0 0 0 0 0
          0 0 0 0 0 0
          0 0 0 0 0 0
          0 0 0 0 0 0
          0 0 0 0 0 0
          0 0 0 0 0 0
          0 0 0 0 0 0
          0 0 0 0 0 0
          0 0 0 0 0 0
          0 0 0 0 0 0
          0 0 0 0 0 0
          0 0 0 0 0 0
          0 0 0 0 0 0
          0 0 0 0 0 0
          0 0 0 0 0 0
          0 0 0 0 0 0
          0 0 0 0 0 0
          0 0 0 0 0 0
          0 0 0 0 0 0
          0 0 0 0 0 0
          0 0 0 0 0 0
          0 0 0 0 0 0
          0 0 0 0 0 0
          0 0 0 0 0 0
          0 0 0 0 0 0
          0 0 0 0 0 0
          0 0 0 0 0 0
          0 0 0 0 0 0
          0 0 0 0 0 0
          0 0 0 0 0 0
          0 0 0 0 0 0
          0 0 0 0 0 0
          0 0 0 0 0 0
          0 0 0 0 0 0
          0 0 0 0 0 0
          0 0 0 0 0 0
          0 0 0 0 0 0
          0 0 0 0 0 0
          0 0 0 0 0 0
          0 0 0 0 0 0
          0 0 0 0 0 0
          0 0 0 0 0 0
          0 0 0 0 0 0
          0 0 0 0 0 0
          0 0 0 0 0 0
          0 0 0 0 0 0
          0 0 0 0 0 0
          0 0 0 0 0 0
          0 0 0 0 0 0
          0 0 0 0 0 0
          0 0 0 0 0
        </DataArray>
        <DataArray type="Float64" Name="initial_marker" format="ascii" RangeMin="0" RangeMax="2">
          1 2 1 2 2 2
          2 2 2 2 2 2
          1 2 2 2 1 1
          2 2 1 2 2 2
          2 2 2 2 2 2
          2 2 2 2 2 2
          2 2 2 2 2 2
          2 2 2 2 2 2
          2 2 2 0 0 0
          0 0 0 2 2 2
          2 2 1 1.5 2 2
          2 2 2 2 2 2
          2 2 2 2 2 2
          2 2 2 2 2 2
          2 2 2 2 2 2
          2 2 2 2 2 2
          2 2 2 2 1 1.5
          1 1.5 2 2 1 1.5
          1 1.5 2 2 2 2
          2 2 2 2 2 2
          2 2 2 2 2 2
          2 2 2 2 2 2
          2 2 2 2 2 2
          2 2 2 2 2 2
          2 2 2 2 2 2
          2 2 2 2 2 2
          2 2 2 2 2 2
          2 2 2 2 2 2
          2 2 2 2 2 2
          2 2 2 2 2 2
          2 2 2 2 2 2
          2 2 2 2 2 2
          2 2 2 2 2 2
          2 2 2 2 2 2
          2 2 2 2 2 2
          2 2 2 2 2 2
          2 2 2 2 2 2
          2 2 2 2 2 2
          2 2 2 2 2 2
          2 2 2 2 2 2
          2 2 2 2 2 2
          2 2 2 2 2 2
          2 2 2 2 2 2
          2 2 2 2 2 2
          2 2 2 2 2 2
          2 2 2 2 2 2
          2 2 2 2 2 2
          2 2 2 2 2 2
          2 2 2 2 2 2
          2 2 2 2 2 2
          2 2 2 2 2 2
          2 2 2 2 2 2
          2 2 2 2 2 2
          2 2 2 2 2 2
          2 2 2 2 2 2
          2 2 2 0 0 0
          0 0 0 0 1 1
          1 2 2 2 0 1
          1 2 2 2 2 2
          2 2 2 2 2 2
          2 2 2 2 2 2
          2 2 2 2 2 2
          2 2 2 2 2 2
          2 2 2 2 2 2
          2 2 2 2 2 2
          2 2 2 2 2 2
          2 2 2 2 2 2
          2 2 2 2 2 2
          2 2 2 2 2 2
          2 2 2 2 2 2
          2 2 2 2 2 2
          2 2 2 2 2
        </DataArray>
        <DataArray type="Float64" Name="markers_norefine" format="ascii" RangeMin="0" RangeMax="2">
          0 2 0 0 0 0
          0 0 0 0 0 0
          0 0 0 0 0 0
          0 0 0 0 0 0
          0 0 0 1 0.75 0.5
          0 0 0 2 2 0.5
          0 0 0 0 0 0
          0 0 0 0 0 0
          0 0 0 0 0 0
          0 0 0 0 0 0
          0 0 0 0 0 0
          0 0 0 0 0 0
          0 0 0 0 0 0
          0 0 0 0 0 0
          0 0 0 0 0 0
          0 0 0 0 0 0
          0 0 0 0 0 0
          0 0 0 0 0 0
          0 0 0 0 0 0
          0 0 0 0 0 0
          0 0 0 0 0 0
          0 0 0 0 0 0
          0 0 0 0 0 0
          0 0 0 0 0 0
          0 0 1 0.75 0.25 0
          0 0.5 0.25 0 0 0
          0 1.5 1.25 1 1 0
          0 0 0 0 0 1
          0.75 0.25 0.25 0 0 0
          0 0.5 0.25 0 0 0
          0 0 0 0 0 2
          2 2 2 2 1.75 2
          2 2 2 2 1.75 1.5
          1 1 0.25 2 2 1.5
          1.5 1 0.75 0 0 1
          1 0 0.25 0 0 0
          0.5 0 0 0 0 0
          0 0 0 0 0 0
          0 0 0 0 0 0
          0 0 0 0 0 0
          0 0 0 0 0 0
          0 0 0 0 0 0
          0 0 0 0 0 0
          0 0 0 0 0 0
          0 0 0 0 0 0
          0 0 0 0 0 0
          0 0 0 0 0 0
          0 0 0 0 0 0
          0 0.5 0.25 0 0 0
          0 1 0.5 0 0 0
          0 0 0 0 0 0
          0 0 0 0 0 0
          0 0 0 0 0 0
          0 0 0 0 0 0
          0 0 0 0 0 0
          0 0 0 0 0 0
          0 0 0 0 0 0
          0 0 0 0 0 0
          0 0 0 0 0 0
          0 0 0 0 0 0
          0 0 0 0 0 0
          0 0 0 0 0 0
          0 0 0 0 0 0
          0 0 0 0 0 0
          0 0 0 0 0 0
          0 0 0 0 0 0
          0 0 0 0 0 0
          0 0 0 0 0 0
          0 0 0 0 0 0
          0 0 0 0 0 0
          0 0 0 0 0 0
          0 0 0 0 0
        </DataArray>
        <DataArray type="Float64" Name="markers_mustrefine" format="ascii" RangeMin="0" RangeMax="2">
          1 2 1 2 2 2
          2 2 2 2 2 2
          1 2 2 2 1 1
          2 2 1 2 2 2
          2 2 2 2 2 2
          2 2 2 2 2 2
          2 2 2 2 2 2
          2 2 2 2 2 2
          2 2 2 0 0 0
          0 0 0 2 2 2
          2 2 1 1.5 2 2
          2 2 2 2 2 2
          2 2 2 2 2 2
          2 2 2 2 2 2
          2 2 2 2 2 2
          2 2 2 2 2 2
          2 2 2 2 1 1.5
          1 1.5 2 2 1 1.5
          1 1.5 2 2 2 2
          2 2 2 2 2 2
          2 2 2 2 2 2
          2 2 2 2 2 2
          2 2 2 2 2 2
          2 2 2 2 2 2
          2 2 2 2 2 2
          2 2 2 2 2 2
          2 2 2 2 2 2
          2 2 2 2 2 2
          2 2 2 2 2 2
          2 2 2 2 2 2
          2 2 2 2 2 2
          2 2 2 2 2 2
          2 2 2 2 2 2
          2 2 2 2 2 2
          2 2 2 2 2 2
          2 2 2 2 2 2
          2 2 2 2 2 2
          2 2 2 2 2 2
          2 2 2 2 2 2
          2 2 2 2 2 2
          2 2 2 2 2 2
          2 2 2 2 2 2
          2 2 2 2 2 2
          2 2 2 2 2 2
          2 2 2 2 2 2
          2 2 2 2 2 2
          2 2 2 2 2 2
          2 2 2 2 2 2
          2 2 2 2 2 2
          2 2 2 2 2 2
          2 2 2 2 2 2
          2 2 2 2 2 2
          2 2 2 2 2 2
          2 2 2 2 2 2
          2 2 2 2 2 2
          2 2 2 0 0 0
          0 0 0 0 1 1
          1 2 2 2 0 1
          1 2 2 2 2 2
          2 2 2 2 2 2
          2 2 2 2 2 2
          2 2 2 2 2 2
          2 2 2 2 2 2
          2 2 2 2 2 2
          2 2 2 2 2 2
          2 2 2 2 2 2
          2 2 2 2 2 2
          2 2 2 2 2 2
          2 2 2 2 2 2
          2 2 2 2 2 2
          2 2 2 2 2 2
          2 2 2 2 2
        </DataArray>
        <DataArray type="Float64" Name="gradient_marker" format="ascii" RangeMin="0.5" RangeMax="1">
          1 1 0.75 1 1 1
          1 1 1 1 1 1
          0.75 1 1 1 1 1
          1 1 1 1 1 1
          1 1 1 1 1 1
          1 1 1 1 1 1
          1 1 1 1 1 1
          1 1 1 1 1 1
          1 1 1 0.5 0.5 1
          1 1 1 1 1 1
          1 1 1 1 1 1
          1 1 1 1 1 1
          1 1 1 1 1 1
          1 1 1 1 1 1
          1 1 1 1 1 1
          1 1 1 1 1 1
          1 1 1 1 1 1
          1 1 1 1 1 1
          1 1 1 1 1 1
          1 1 1 1 1 1
          1 1 1 1 1 1
          1 1 1 1 1 1
          1 1 1 1 1 1
          1 1 1 1 1 1
          1 1 1 1 1 1
          1 1 1 1 1 1
          1 1 1 1 1 1
          1 1 1 1 1 1
          1 1 1 1 1 1
          1 1 1 1 1 1
          1 1 1 1 1 1
          1 1 1 1 1 1
          1 1 1 1 1 1
          1 1 1 1 1 1
          1 1 1 1 1 1
          1 1 1 1 1 1
          1 1 1 1 1 1
          1 1 1 1 1 1
          1 1 1 1 1 1
          1 1 1 1 1 1
          1 1 1 1 1 1
          1 1 1 1 1 1
          1 1 1 1 1 1
          1 1 1 1 1 1
          1 1 1 1 1 1
          1 1 1 1 1 1
          1 1 1 1 1 1
          1 1 1 1 1 1
          1 1 1 1 1 1
          1 1 1 1 1 1
          1 1 1 1 1 1
          1 1 1 1 1 1
          1 1 1 1 1 1
          1 1 1 1 1 1
          1 1 1 1 1 1
          1 1 1 1 0.5 1
          0.75 1 1 1 1 1
          1 1 1 1 1 1
          1 1 1 1 1 1
          1 1 1 1 1 1
          1 1 1 1 1 1
          1 1 1 1 1 1
          1 1 1 1 1 1
          1 1 1 1 1 1
          1 1 1 1 1 1
          1 1 1 1 1 1
          1 1 1 1 1 1
          1 1 1 1 1 1
          1 1 1 1 1 1
          1 1 1 1 1 1
          1 1 1 1 1 1
          1 1 1 1 1
        </DataArray>
        <DataArray type="Float64" Name="gradient_matprop_marker" format="ascii" RangeMin="0" RangeMax="0">
          0 0 0 0 0 0
          0 0 0 0 0 0
          0 0 0 0 0 0
          0 0 0 0 0 0
          0 0 0 0 0 0
          0 0 0 0 0 0
          0 0 0 0 0 0
          0 0 0 0 0 0
          0 0 0 0 0 0
          0 0 0 0 0 0
          0 0 0 0 0 0
          0 0 0 0 0 0
          0 0 0 0 0 0
          0 0 0 0 0 0
          0 0 0 0 0 0
          0 0 0 0 0 0
          0 0 0 0 0 0
          0 0 0 0 0 0
          0 0 0 0 0 0
          0 0 0 0 0 0
          0 0 0 0 0 0
          0 0 0 0 0 0
          0 0 0 0 0 0
          0 0 0 0 0 0
          0 0 0 0 0 0
          0 0 0 0 0 0
          0 0 0 0 0 0
          0 0 0 0 0 0
          0 0 0 0 0 0
          0 0 0 0 0 0
          0 0 0 0 0 0
          0 0 0 0 0 0
          0 0 0 0 0 0
          0 0 0 0 0 0
          0 0 0 0 0 0
          0 0 0 0 0 0
          0 0 0 0 0 0
          0 0 0 0 0 0
          0 0 0 0 0 0
          0 0 0 0 0 0
          0 0 0 0 0 0
          0 0 0 0 0 0
          0 0 0 0 0 0
          0 0 0 0 0 0
          0 0 0 0 0 0
          0 0 0 0 0 0
          0 0 0 0 0 0
          0 0 0 0 0 0
          0 0 0 0 0 0
          0 0 0 0 0 0
          0 0 0 0 0 0
          0 0 0 0 0 0
          0 0 0 0 0 0
          0 0 0 0 0 0
          0 0 0 0 0 0
          0 0 0 0 0 0
          0 0 0 0 0 0
          0 0 0 0 0 0
          0 0 0 0 0 0
          0 0 0 0 0 0
          0 0 0 0 0 0
          0 0 0 0 0 0
          0 0 0 0 0 0
          0 0 0 0 0 0
          0 0 0 0 0 0
          0 0 0 0 0 0
          0 0 0 0 0 0
          0 0 0 0 0 0
          0 0 0 0 0 0
          0 0 0 0 0 0
          0 0 0 0 0 0
          0 0 0 0 0
        </DataArray>
        <DataArray type="Float64" Name="combo" format="ascii" RangeMin="0.5" RangeMax="2">
          1 2 0.75 1 1 1
          1 1 1 1 1 1
          0.75 1 1 1 1 1
          1 1 1 1 1 1
          1 1 1 1.5 1.375 1.25
          1 1 1 2 2 1.25
          1 1 1 1 1 1
          1 1 1 1 1 1
          1 1 1 0.5 0.5 1
          1 1 1 1 1 1
          1 1 1 1 1 1
          1 1 1 1 1 1
          1 1 1 1 1 1
          1 1 1 1 1 1
          1 1 1 1 1 1
          1 1 1 1 1 1
          1 1 1 1 1 1
          1 1 1 1 1 1
          1 1 1 1 1 1
          1 1 1 1 1 1
          1 1 1 1 1 1
          1 1 1 1 1 1
          1 1 1 1 1 1
          1 1 1 1 1 1
          1 1 1.5 1.375 1.125 1
          1 1.25 1.125 1 1 1
          1 1.75 1.625 1.5 1.5 1
          1 1 1 1 1 1.5
          1.375 1.125 1.125 1 1 1
          1 1.25 1.125 1 1 1
          1 1 1 1 1 2
          2 2 2 2 1.875 2
          2 2 2 2 1.875 1.75
          1.5 1.5 1.125 2 2 1.75
          1.75 1.5 1.375 1 1 1.5
          1.5 1 1.125 1 1 1
          1.25 1 1 1 1 1
          1 1 1 1 1 1
          1 1 1 1 1 1
          1 1 1 1 1 1
          1 1 1 1 1 1
          1 1 1 1 1 1
          1 1 1 1 1 1
          1 1 1 1 1 1
          1 1 1 1 1 1
          1 1 1 1 1 1
          1 1 1 1 1 1
          1 1 1 1 1 1
          1 1.25 1.125 1 1 1
          1 1.5 1.25 1 1 1
          1 1 1 1 1 1
          1 1 1 1 1 1
          1 1 1 1 1 1
          1 1 1 1 1 1
          1 1 1 1 1 1
          1 1 1 1 0.5 1
          0.75 1 1 1 1 1
          1 1 1 1 1 1
          1 1 1 1 1 1
          1 1 1 1 1 1
          1 1 1 1 1 1
          1 1 1 1 1 1
          1 1 1 1 1 1
          1 1 1 1 1 1
          1 1 1 1 1 1
          1 1 1 1 1 1
          1 1 1 1 1 1
          1 1 1 1 1 1
          1 1 1 1 1 1
          1 1 1 1 1 1
          1 1 1 1 1 1
          1 1 1 1 1
        </DataArray>
        <DataArray type="Float64" Name="dHdT" format="ascii" RangeMin="25.83669790297614" RangeMax="60.48359164830245">
          25.919139522458288 60.48359164830245 26.183717365582943 34.54271298912141 30.403413978732427 30.036097484860505
          27.463156367246395 34.88050766302587 26.926039901032457 26.264346041169766 36.41961842338179 28.635031461175934
          26.144299224861527 27.781212464151228 27.497065468813798 33.480044755655555 26.016864435695176 25.99367735869634
          26.980792022640152 26.80879317922642 25.90666557477796 26.47933605006584 26.377496189322134 32.416641281671644
          31.31610812602051 29.076448879752046 28.635476145315984 48.257413304511985 43.32324285948569 41.04368768784374
          37.52236778918161 34.615141276452995 31.82511578471638 49.912826549481395 54.5126046083466 46.37734708000962
          38.71039504577603 28.03607276644841 27.56490085803629 26.695008444423717 26.71759962488704 35.26274217008694
          33.55721161273215 31.506130184312074 29.911656133699136 29.188325961730122 27.484900894085353 38.6888571796471
          37.10120249136644 33.570743760563 31.662709052297494 25.938655643714434 25.928059149656693 25.880655901081408
          25.874682483667588 25.847630554025322 25.844426287696713 26.333729653582406 26.68450771753519 26.656199121620297
          26.577391757499406 27.705153509124816 26.22471923572342 26.463535095163095 27.20742591089723 30.58172293193894
          30.33514054295035 29.674555875063497 34.26722327560354 28.829270216401227 28.021491795663806 32.1695630138187
          26.215501112273962 26.202949495619855 26.474575656389998 26.452295751510352 26.100394271658637 26.310701291696834
          26.293403531701223 26.168282167833933 26.39025370687311 26.245499849408976 27.3300686740955 27.271269253418666
          26.93492011188389 27.1095126786743 26.029145883829194 26.022012842339336 26.18263499175134 26.16939554459514
          25.963291001605462 26.083180756890833 26.073268908204064 26.0024912811094 26.133014941708552 26.046147151946876
          26.703132085101014 26.667303003172385 26.45212413127973 26.56934015628219 26.11782077092905 26.301028065917045
          26.035871770190973 26.176810640050277 26.882869956360985 26.63199574120158 25.97438410529134 26.081129760558607
          25.928640628844626 26.007601110325773 26.432508342140025 26.273309663107327 29.48198900409659 29.289855685544904
          28.625716789556172 28.486603204681163 28.793201387979167 28.119713743909568 33.4433895305935 33.19279876507045
          32.1506364422159 32.4174309251694 27.967230869948377 27.863004816859412 27.444402133405898 27.366181486600247