<?xml version="1.0"?>
<VTKFile type="UnstructuredGrid" version="0.1" byte_order="LittleEndian" header_type="UInt32" compressor="vtkZLibDataCompressor">
  <UnstructuredGrid>
    <Piece NumberOfPoints="322" NumberOfCells="175">
      <PointData>
        <DataArray type="Int32" Name="libmesh_node_id" format="ascii" RangeMin="369" RangeMax="2747">
          369 371 541 542 543 544
          546 568 569 570 1060 1061
          1063 1072 1081 1082 1083 1086
          1087 1089 1092 1094 1095 1098
          1100 1101 1103 1105 1107 1109
          1111 1112 1113 1114 1115 1116
          1117 1188 1192 1203 1206 1208
          1211 1213 1215 1216 1217 1218
          1219 1408 1412 1894 1895 1896
          1897 1904 1905 1907 1912 1913
          1914 1919 1921 1968 1969 1972
          1974 1990 1991 1992 1999 2000
          2002 2003 2004 2005 2006 2007
          2008 2009 2010 2011 2012 2013
          2014 2015 2016 2017 2018 2019
          2020 2021 2022 2035 2036 2038
          2041 2051 2053 2055 2069 2070
          2072 2075 2085 2087 2089 2091
          2092 2093 2094 2095 2096 2097
          2098 2099 2100 2101 2102 2105
          2107 2108 2110 2111 2112 2113
          2114 2115 2116 2117 2118 2120
          2122 2124 2125 2126 2127 2128
          2129 2130 2131 2132 2133 2134
          2135 2136 2139 2141 2142 2144
          2145 2146 2147 2148 2149 2150
          2151 2152 2154 2156 2158 2167
          2169 2171 2181 2183 2185 2195
          2197 2199 2209 2211 2213 2215
          2216 2217 2218 2219 2220 2221
          2222 2224 2225 2226 2228 2229
          2230 2231 2232 2233 2234 2235
          2236 2237 2238 2239 2240 2241
          2242 2243 2244 2245 2246 2247
          2248 2249 2250 2252 2253 2254
          2256 2257 2258 2259 2260 2261
          2262 2263 2264 2265 2266 2267
          2268 2269 2270 2588 2589 2590
          2615 2616 2617 2618 2619 2620
          2621 2699 2700 2703 2705 2715
          2717 2719 2721 2722 2723 2724
          2725 2726 2727 2728 2729 2730
          2731 2732 2733 2734 2735 2736
          2737 2738 2739 2740 2741 2742
          2743 2744 2745 2746 2747 562
          564 567 566 1212 1210 1202
          1214 1070 1079 1320 1315 1080
          1322 1818 1888 1889 1819 535
          1824 1890 1891 1892 1821 1048
          1893 1898 1899 1902 1908 1834
          1838 1909 1910 1836 536 1911
          1915 1917 1986 1950 1954 1987
          1988 1952 1989 1994 1998 1067
          1985 1075 1997 1077
        </DataArray>
        <DataArray type="Float64" Name="bounds" format="ascii" RangeMin="0" RangeMax="0">
          0 0 0 0 0 0
          0 0 0 0 0 0
          0 0 0 0 0 0
          0 0 0 0 0 0
          0 0 0 0 0 0
          0 0 0 0 0 0
          0 0 0 0 0 0
          0 0 0 0 0 0
          0 0 0 0 0 0
          0 0 0 0 0 0
          0 0 0 0 0 0
          0 0 0 0 0 0
          0 0 0 0 0 0
          0 0 0 0 0 0
          0 0 0 0 0 0
          0 0 0 0 0 0
          0 0 0 0 0 0
          0 0 0 0 0 0
          0 0 0 0 0 0
          0 0 0 0 0 0
          0 0 0 0 0 0
          0 0 0 0 0 0
          0 0 0 0 0 0
          0 0 0 0 0 0
          0 0 0 0 0 0
          0 0 0 0 0 0
          0 0 0 0 0 0
          0 0 0 0 0 0
          0 0 0 0 0 0
          0 0 0 0 0 0
          0 0 0 0 0 0
          0 0 0 0 0 0
          0 0 0 0 0 0
          0 0 0 0 0 0
          0 0 0 0 0 0
          0 0 0 0 0 0
          0 0 0 0 0 0
          0 0 0 0 0 0
          0 0 0 0 0 0
          0 0 0 0 0 0
          0 0 0 0 0 0
          0 0 0 0 0 0
          0 0 0 0 0 0
          0 0 0 0 0 0
          0 0 0 0 0 0
          0 0 0 0 0 0
          0 0 0 0 0 0
          0 0 0 0 0 0
          0 0 0 0 0 0
          0 0 0 0 0 0
          0 0 0 0 0 0
          0 0 0 0 0 0
          0 0 0 0 0 0
          0 0 0 0
        </DataArray>
        <DataArray type="Float64" Name="gradient_error" format="ascii" RangeMin="2.1122802864218203e-10" RangeMax="2.6064199203643e-8">
          8.725584058463087e-10 5.85760844184015e-9 2.1397509525429808e-9 8.748269249255864e-10 1.9967260004464326e-8 1.8054463539943352e-8
          2.494208758436318e-9 7.1603134725198374e-9 1.9064228856109317e-9 1.0565954511840437e-8 7.222539012534751e-9 6.031874397587678e-9
          3.547137146947351e-9 3.0095074833889133e-9 1.5751282458105273e-9 7.134028435962744e-10 1.31239150991897e-9 2.6064199203643e-8
          2.3272811771295465e-8 1.395402773125491e-8 2.562067522040863e-8 1.6798066614251644e-8 1.4516325278646675e-8 8.356196744745563e-9
          1.706874817859998e-8 1.7291275730212788e-8 1.1046707047361773e-8 5.889046177115109e-9 2.0596231307554674e-9 7.463271854200533e-9
          3.2475130606758066e-9 1.5068703314128776e-9 1.2894041867974708e-9 9.964244056130726e-10 4.206958621274235e-9 1.977727373534728e-9
          1.2889625300517333e-9 5.786422398861809e-10 6.724376928203847e-10 2.106653703901226e-9 3.3694658790865145e-9 2.3693293127105867e-9
          1.2882216410056812e-9 1.0330752654028672e-9 1.5853934823802065e-9 7.108629269967049e-10 1.1408729548661142e-9 8.357039399890822e-10
          1.7915148621953116e-9 6.297531288258534e-10 7.049096822582494e-10 9.593572845430772e-9 9.192335780102845e-9 6.90478462111566e-9
          8.083214576512997e-9 5.179399478755275e-9 4.940936509398306e-9 4.290875221987002e-9 6.525905978927578e-9 4.820748177654045e-9
          4.86122581738416e-9 3.4004936595174773e-9 2.477932119561367e-9 9.662356507179494e-10 1.25094122027397e-9 9.829540736132847e-10
          1.92014556828797e-9 3.376234731153376e-9 2.4314019329606926e-9 2.216333479246485e-9 4.298211787317017e-10 1.6818027328874645e-9
          1.0793961778648e-9 6.844002643714983e-10 8.941144963783257e-10 4.766189386098438e-10 6.236257507673741e-10 5.488924924538462e-10
          6.957392731390265e-10 4.838606073572464e-10 1.3936531802277286e-9 9.781745338878997e-10 9.389123347964364e-10 3.1813066886569674e-10
          4.190955310269666e-10 2.1122802864218203e-10 2.7637478287075574e-10 2.5550751932958396e-10 3.2320109306788114e-10 2.143411901178835e-10
          6.612829240778628e-10 4.341018191030952e-10 4.93225134180607e-10 2.0060414460361992e-8 1.923126919845681e-8 1.6890253874830662e-8
          2.5507592388476555e-8 1.3561294063230714e-8 1.000581368327872e-8 1.9040480517289815e-8 2.3808963146219972e-8 2.5008501240245946e-8
          2.578741993247401e-8 2.2476990682611994e-8 2.271613141949626e-8 1.6964375368137535e-8 2.3797108218002358e-8 1.596383154534205e-8
          1.5289106620390574e-8 1.2257703626835762e-8 1.172771875010154e-8 1.3395097246234028e-8 1.0231786593712162e-8 2.16157694549044e-8
          2.096821586421936e-8 1.6256358294385346e-8 1.8796341710880174e-8 9.038464559359896e-9 8.624600062767118e-9 7.464576895093115e-9
          1.263184221106306e-8 1.21974646880035e-8 1.0815316143314894e-8 1.0694138060965887e-8 8.088833375289212e-9 7.789350552017862e-9
          5.801928801148284e-9 1.5187700198414983e-8 1.1665592814610358e-8 1.1025714086396496e-8 5.828160378980971e-9 4.120128157985797e-9
          8.576418751986442e-9 6.030712009090357e-9 2.191695479333953e-8 2.2245453114857413e-8 1.7792235767677352e-8 1.777869369324924e-8
          2.1581244021826618e-8 1.6846957684308314e-8 2.013771874031049e-8 2.127054742204062e-8 1.7491787965549837e-8 2.1967832914444952e-8
          1.3605765731359993e-8 1.353491138280265e-8 1.2720605866216045e-8 1.3194616982250005e-8 1.3419216861843249e-8 1.3121514847714017e-8
          1.8291761582754683e-8 1.4139368907825589e-8 1.3486450661989925e-8 1.0330606951709137e-8 1.927081548715511e-8 1.491953556705173e-8
          1.4372751357345018e-8 1.0546485007821775e-8 7.54905632759648e-9 1.1188122908958287e-8 8.111115017763015e-9 6.849664656263751e-9
          4.4151938469983286e-9 9.373434048438372e-9 2.727296794755692e-9 1.6206407856002037e-9 3.534327613593879e-9 1.1334111211146962e-8
          7.031656744799655e-9 1.2067142776962423e-8 4.147802825498329e-9 2.37715244519224e-9 4.376899666574337e-9 5.231070855916756e-9
          3.828768229701957e-9 3.303496210440687e-9 2.3770240736422146e-9 7.275749108970134e-9 5.402100962153023e-9 4.4649953851092286e-9
          2.6804425432604007e-9 1.642386561211033e-9 1.0899495638244235e-9 3.82510211551076e-9 2.2613229870930368e-9 2.008977517720566e-9
          1.424863296841919e-9 1.1654825233395077e-9 9.287552512005235e-10 2.628548745870701e-9 1.8806012150007755e-9 1.494682729698356e-9
          9.675772915391174e-10 6.350350458945064e-10 7.089127651554269e-10 4.607253579790598e-10 1.2885802306966578e-9 8.488341529837327e-10
          7.878607051110601e-10 8.888685042691843e-9 6.666462966127174e-9 5.378079093152327e-9 3.9410196062089235e-9 9.496065420872879e-9
          7.14821516093646e-9 5.725602656628914e-9 4.760278497430996e-9 2.760044587116056e-9 1.8459965731315113e-9 5.120441287718017e-9
          2.9526130036984378e-9 3.0971260011634684e-9 2.2256776231800908e-9 1.733864196649193e-9 1.2171972650142393e-9 3.2716319139563625e-9
          2.3541629051915735e-9 1.8222525052981381e-9 1.5398689467381361e-9 1.020355695516289e-9 8.253166346510569e-10 6.274132317683055e-10
          1.6352265601937016e-9 1.0864310757472643e-9 8.799771760134327e-10 5.366878598897831e-10 3.28659100041308e-10 3.7909014128586507e-10
          6.435696682191981e-10 3.916850721470102e-10 4.4972808139540255e-10 2.7103553291859287e-10 6.84753448615919e-10 4.1605905238052733e-10
          4.76838344819617e-10 8.31178363279824e-10 9.517363314585999e-10 7.183032465533099e-10 1.1736946088017964e-9 1.332598022573535e-9
          9.48117310495212e-10 1.3901011271808533e-9 5.810604994489235e-10 6.698768900655713e-10 4.868956222809857e-10 5.533721001967829e-10
          4.676614927185465e-10 5.156552807124899e-10 4.428479268483472e-10 8.3530534922702e-10 6.261911630406916e-10 6.118012543314867e-10
          9.551741642559944e-10 6.645271993720629e-10 6.801690708711475e-10 4.856619973497465e-10 9.98430910740168e-10 6.996919432393785e-10
          7.003847017857548e-10 4.241111119361052e-10 4.459595087025131e-10 3.4478661526804594e-10 3.561393594669345e-10 3.4181427320919616e-10
          3.391941244728699e-10 2.8087895217285767e-10 4.67807905468921e-10 3.6749210366582303e-10 3.365739757365437e-10 5.5765036202632894e-9
          1.5507779563311594e-9 2.5503297129840044e-9 8.684673581520057e-9 9.894090826502474e-10 1.5014176590087079e-9 2.552249743277028e-9
          1.1596571338282987e-9 2.970446534805351e-9 1.4400939804024871e-9 1.2258937623457986e-9 2.5285609215195318e-9 6.722659220509636e-10
          5.884409358872547e-10 6.7312683094084105e-9 5.133877450618533e-9 4.936601361314001e-9 6.485621594337927e-9 1.2227508066819598e-8
          1.1732559736593691e-8 3.752654527913334e-9 3.602922757999589e-9 4.392783088949726e-9 5.803550154656797e-9 1.0369795525039861e-8
          3.1914649099731044e-9 2.625849802757467e-9 2.5180943165540344e-9 2.2225899726038355e-9 3.6316109622768628e-9 4.832494643330439e-9
          8.456641849505475e-9 2.6226909633232286e-9 2.8006835952347446e-9 3.759235190969424e-9 6.389146223087029e-9 2.0065959996612965e-9
          1.8146459788181198e-9 1.3756319321557839e-9 2.0241573890775715e-9 2.751327020443296e-9 4.509520899889381e-9 1.4344468892454501e-9
          1.3782091629835105e-9 1.900487941248565e-9 9.673678840659509e-10 9.751739995086106e-10 6.542624732354382e-10 2.010130837161328e-9
          9.031773107476025e-10 1.2406314018753145e-9 4.79335909510943e-10 8.274129091325392e-10
        </DataArray>
        <DataArray type="Float64" Name="gradient_matprop_error" format="ascii" RangeMin="0" RangeMax="0">
          0 0 0 0 0 0
          0 0 0 0 0 0
          0 0 0 0 0 0
          0 0 0 0 0 0
          0 0 0 0 0 0
          0 0 0 0 0 0
          0 0 0 0 0 0
          0 0 0 0 0 0
          0 0 0 0 0 0
          0 0 0 0 0 0
          0 0 0 0 0 0
          0 0 0 0 0 0
          0 0 0 0 0 0
          0 0 0 0 0 0
          0 0 0 0 0 0
          0 0 0 0 0 0
          0 0 0 0 0 0
          0 0 0 0 0 0
          0 0 0 0 0 0
          0 0 0 0 0 0
          0 0 0 0 0 0
          0 0 0 0 0 0
          0 0 0 0 0 0
          0 0 0 0 0 0
          0 0 0 0 0 0
          0 0 0 0 0 0
          0 0 0 0 0 0
          0 0 0 0 0 0
          0 0 0 0 0 0
          0 0 0 0 0 0
          0 0 0 0 0 0
          0 0 0 0 0 0
          0 0 0 0 0 0
          0 0 0 0 0 0
          0 0 0 0 0 0
          0 0 0 0 0 0
          0 0 0 0 0 0
          0 0 0 0 0 0
          0 0 0 0 0 0
          0 0 0 0 0 0
          0 0 0 0 0 0
          0 0 0 0 0 0
          0 0 0 0 0 0
          0 0 0 0 0 0
          0 0 0 0 0 0
          0 0 0 0 0 0
          0 0 0 0 0 0
          0 0 0 0 0 0
          0 0 0 0 0 0
          0 0 0 0 0 0
          0 0 0 0 0 0
          0 0 0 0 0 0
          0 0 0 0 0 0
          0 0 0 0
        </DataArray>
        <DataArray type="Float64" Name="initial_marker" format="ascii" RangeMin="0" RangeMax="2">
          1.5 0 0.5 0.25 2 2
          2 0 0 0 2 2
          2 2 2 2 0.5 2
          2 2 2 2 2 2
          2 2 2 2 2 2
          2 2 1.5 1 2 2
          2 0.75 1 0 0 0
          0 0 0 0 0 0
          0 0 0 2 2 2
          2 2 2 2 2 2
          2 2 2 0 0.5 0
          1.5 2 2 2 1.5 2
          2 0 0.5 0 0.5 0
          0 0 1.5 1.5 0.6666666666666666 0
          0.5 0 0.5 0 0 0
          1.5 1.25 1 2 2 2
          2 2 2 2 2 2
          2 2 2 2 2 2
          2 2 2 2 2 2
          2 2 2 2 2 2
          2 2 2 2 2 2
          2 2 2 2 2 2
          2 2 2 2 2 2
          2 2 2 2 2 2
          2 2 2 2 2 2
          2 2 2 2 2 2
          2 2 2 2 2 2
          2 2 2 1.5 2 2
          2 2 2 2 2 2
          2 2 2 2 2 2
          2 2 2 2 2 2
          2 1.25 1.3333333333333333 2 2 1.75
          2 1.75 2 1.5 2 2
          1.6666666666666667 2 2 2 2 2
          2 2 2 2 2 2
          2 2 2 2 2 2
          2 2 2 2 1.75 1.6666666666666667
          2 2 2 2 1.75 2
          2 2 2 2 2 2
          2 0 0.5 0 1 1
          0 1 0 0.25 0 0
          0 0 0 0.75 0.6666666666666666 0
          1 1 0 0 1 1
          0 0.5 0.75 0 0.5 0
          0 0 1 1 0 0
          0 0 0 0 0 0
          0 0 0 0 0 0
          0 2 2 2 2 2
          2 2 2 2 2 2
          2 2 2 2 2 2
          2 2 2 2 2 2
          2 2 2 2 2 2
          1.5 1.5 1.5 2 1.5 0.5
          0.6666666666666666 0.5 1 0.5
        </DataArray>
        <DataArray type="Float64" Name="markers_norefine" format="ascii" RangeMin="0" RangeMax="1">
          0 0 0 0 1 0
          0 0 0 0 0 0
          0 0 0 0 0 0
          0 0 0 0 0 0
          0 0 0 0 0 0
          0 0 0 0 0 0
          0 0 0 0 0 0
          0 0 0 0 0 0
          0 0 0 0 0 0
          0 0 0 0 0 0
          0 0 0 0 0 0
          0 0 0 0 0 0
          0 0 0 0 0 0
          0 0 0 0 0 0
          0 0 0 0 0 0
          0 0 0 0 0 0
          0 0 0 0 0.5 0.25
          0 0.5 0 0 0 0
          0 0 0 0 0 0
          0 0 0 0 0 0
          0 0 0 0 0 0
          0 0 0 0 0 0
          0 0 0 0 0 0
          0 0 0 0 0 0
          0 0 0 0 0 0
          0 0 0 0 0 0
          0 0 0 0 0 0
          0 0 0 0 0 0
          0 0 0 0 0 0
          0 0 0 0 0 0
          0 0 0 0 0 0
          0 0 0 0 0 0
          0 0 0 0 0 0
          0 0 0 0 0 0
          0 0 0 0 0 0
          0 0 0 0 0 0
          0 0 0 0 0 0
          0 0 0 0 0 0
          0 0 0 0 0 0
          0 0 0 0 0 0
          0 0 0 0 0 0
          0 0 0 0 0 0
          0 0 0 0 0 0
          0 0 0 0 0 0
          0 0 0 0 0 0
          0 0 0 0 0 0
          0 0 0 0 0 0
          0 0 0 0 0 0
          0 0 0 0 0 0
          0 0 0 0 0 0
          0 0 0 0 0 0
          0 0 0 0 0 0
          0 0 0 0 0 0
          0 0 0 0
        </DataArray>
        <DataArray type="Float64" Name="markers_mustrefine" format="ascii" RangeMin="0" RangeMax="2">
          1.5 0 0.5 0.25 2 2
          2 0 0 0 2 2
          2 2 2 2 0.5 2
          2 2 2 2 2 2
          2 2 2 2 2 2
          2 2 1.5 1 2 2
          2 0.75 1 0 0 0
          0 0 0 0 0 0
          0 0 0 2 2 2
          2 2 2 2 2 2
          2 2 2 0 0.5 0
          1.5 2 2 2 1.5 2
          2 0 0.5 0 0.5 0
          0 0 1.5 1.5 0.6666666666666666 0
          0.5 0 0.5 0 0 0
          1.5 1.25 1 2 2 2
          2 2 2 2 2 2
          2 2 2 2 2 2
          2 2 2 2 2 2
          2 2 2 2 2 2
          2 2 2 2 2 2
          2 2 2 2 2 2
          2 2 2 2 2 2
          2 2 2 2 2 2
          2 2 2 2 2 2
          2 2 2 2 2 2
          2 2 2 2 2 2
          2 2 2 1.5 2 2
          2 2 2 2 2 2
          2 2 2 2 2 2
          2 2 2 2 2 2
          2 1.25 1.3333333333333333 2 2 1.75
          2 1.75 2 1.5 2 2
          1.6666666666666667 2 2 2 2 2
          2 2 2 2 2 2
          2 2 2 2 2 2
          2 2 2 2 1.75 1.6666666666666667
          2 2 2 2 1.75 2
          2 2 2 2 2 2
          2 0 0.5 0 1 1
          0 1 0 0.25 0 0
          0 0 0 0.75 0.6666666666666666 0
          1 1 0 0 1 1
          0 0.5 0.75 0 0.5 0
          0 0 1 1 0 0
          0 0 0 0 0 0
          0 0 0 0 0 0
          0 2 2 2 2 2
          2 2 2 2 2 2
          2 2 2 2 2 2
          2 2 2 2 2 2
          2 2 2 2 2 2
          1.5 1.5 1.5 2 1.5 0.5
          0.6666666666666666 0.5 1 0.5
        </DataArray>
        <DataArray type="Float64" Name="gradient_marker" format="ascii" RangeMin="1" RangeMax="1">
          1 1 1 1 1 1
          1 1 1 1 1 1
          1 1 1 1 1 1
          1 1 1 1 1 1
          1 1 1 1 1 1
          1 1 1 1 1 1
          1 1 1 1 1 1
          1 1 1 1 1 1
          1 1 1 1 1 1
          1 1 1 1 1 1
          1 1 1 1 1 1
          1 1 1 1 1 1
          1 1 1 1 1 1
          1 1 1 1 1 1
          1 1 1 1 1 1
          1 1 1 1 1 1
          1 1 1 1 1 1
          1 1 1 1 1 1
          1 1 1 1 1 1
          1 1 1 1 1 1
          1 1 1 1 1 1
          1 1 1 1 1 1
          1 1 1 1 1 1
          1 1 1 1 1 1
          1 1 1 1 1 1
          1 1 1 1 1 1
          1 1 1 1 1 1
          1 1 1 1 1 1
          1 1 1 1 1 1
          1 1 1 1 1 1
          1 1 1 1 1 1
          1 1 1 1 1 1
          1 1 1 1 1 1
          1 1 1 1 1 1
          1 1 1 1 1 1
          1 1 1 1 1 1
          1 1 1 1 1 1
          1 1 1 1 1 1
          1 1 1 1 1 1
          1 1 1 1 1 1
          1 1 1 1 1 1
          1 1 1 1 1 1
          1 1 1 1 1 1
          1 1 1 1 1 1
          1 1 1 1 1 1
          1 1 1 1 1 1
          1 1 1 1 1 1
          1 1 1 1 1 1
          1 1 1 1 1 1
          1 1 1 1 1 1
          1 1 1 1 1 1
          1 1 1 1 1 1
          1 1 1 1 1 1
          1 1 1 1
        </DataArray>
        <DataArray type="Float64" Name="gradient_matprop_marker" format="ascii" RangeMin="0" RangeMax="0">
          0 0 0 0 0 0
          0 0 0 0 0 0
          0 0 0 0 0 0
          0 0 0 0 0 0
          0 0 0 0 0 0
          0 0 0 0 0 0
          0 0 0 0 0 0
          0 0 0 0 0 0
          0 0 0 0 0 0
          0 0 0 0 0 0
          0 0 0 0 0 0
          0 0 0 0 0 0
          0 0 0 0 0 0
          0 0 0 0 0 0
          0 0 0 0 0 0
          0 0 0 0 0 0
          0 0 0 0 0 0
          0 0 0 0 0 0
          0 0 0 0 0 0
          0 0 0 0 0 0
          0 0 0 0 0 0
          0 0 0 0 0 0
          0 0 0 0 0 0
          0 0 0 0 0 0
          0 0 0 0 0 0
          0 0 0 0 0 0
          0 0 0 0 0 0
          0 0 0 0 0 0
          0 0 0 0 0 0
          0 0 0 0 0 0
          0 0 0 0 0 0
          0 0 0 0 0 0
          0 0 0 0 0 0
          0 0 0 0 0 0
          0 0 0 0 0 0
          0 0 0 0 0 0
          0 0 0 0 0 0
          0 0 0 0 0 0
          0 0 0 0 0 0
          0 0 0 0 0 0
          0 0 0 0 0 0
          0 0 0 0 0 0
          0 0 0 0 0 0
          0 0 0 0 0 0
          0 0 0 0 0 0
          0 0 0 0 0 0
          0 0 0 0 0 0
          0 0 0 0 0 0
          0 0 0 0 0 0
          0 0 0 0 0 0
          0 0 0 0 0 0
          0 0 0 0 0 0
          0 0 0 0 0 0
          0 0 0 0
        </DataArray>
        <DataArray type="Float64" Name="combo" format="ascii" RangeMin="1" RangeMax="1.5">
          1 1 1 1 1.5 1
          1 1 1 1 1 1
          1 1 1 1 1 1
          1 1 1 1 1 1
          1 1 1 1 1 1
          1 1 1 1 1 1
          1 1 1 1 1 1
          1 1 1 1 1 1
          1 1 1 1 1 1
          1 1 1 1 1 1
          1 1 1 1 1 1
          1 1 1 1 1 1
          1 1 1 1 1 1
          1 1 1 1 1 1
          1 1 1 1 1 1
          1 1 1 1 1 1
          1 1 1 1 1.25 1.125
          1 1.25 1 1 1 1
          1 1 1 1 1 1
          1 1 1 1 1 1
          1 1 1 1 1 1
          1 1 1 1 1 1
          1 1 1 1 1 1
          1 1 1 1 1 1
          1 1 1 1 1 1
          1 1 1 1 1 1
          1 1 1 1 1 1
          1 1 1 1 1 1
          1 1 1 1 1 1
          1 1 1 1 1 1
          1 1 1 1 1 1
          1 1 1 1 1 1
          1 1 1 1 1 1
          1 1 1 1 1 1
          1 1 1 1 1 1
          1 1 1 1 1 1
          1 1 1 1 1 1
          1 1 1 1 1 1
          1 1 1 1 1 1
          1 1 1 1 1 1
          1 1 1 1 1 1
          1 1 1 1 1 1
          1 1 1 1 1 1
          1 1 1 1 1 1
          1 1 1 1 1 1
          1 1 1 1 1 1
          1 1 1 1 1 1
          1 1 1 1 1 1
          1 1 1 1 1 1
          1 1 1 1 1 1
          1 1 1 1 1 1
          1 1 1 1 1 1
          1 1 1 1 1 1
          1 1 1 1
        </DataArray>
        <DataArray type="Float64" Name="dHdT" format="ascii" RangeMin="25.8383509402477" RangeMax="51.83083721606512">
          25.99432026600158 25.8383509402477 26.24818366261569 25.908992954809015 51.83083721606512 34.237168520936535
          26.693119781618652 25.9789548259874 25.8583893635818 25.916833579345553 28.299665707099244 27.822650952005468
          26.954855344640734 26.855958172167128 26.33332919840328 26.042250311718053 26.018746775965873 39.06909894637217
          36.49555779935272 31.810504019373845 41.302072747923184 34.51172583160954 32.53520401545155 28.758497357791803
          37.49257007179581 35.941615167220675 30.25589111482818 27.87695317152815 26.54486211493944 28.513570653576007
          26.86085378892092 26.281549434253197 26.16227918121579 25.964534026661525 27.182430424267114 26.427029002366005
          26.248786849319234 25.87670107090235 25.888406860227185 26.08736554824401 26.019552541530924 26.12386818735733
          25.94770826048009 25.88329586325714 25.916900508088883 25.863789759112997 25.964424732970958 25.885088184374773
          25.92719307107453 25.84880948021659 25.852912350026124 29.437158350657626 29.231047339488327 28.16713624623311
          28.70512470200035 27.491547155020687 27.404388541186478 27.17663979169055 28.05375863955552 27.382789284474068
          27.43797893502628 26.88188122345889 26.59075528412281 26.194532338375417 26.28523371744894 26.20060251630581
          26.497728916753875 26.935226709943304 26.599553748265674 26.559978577945238 25.95926732699027 26.346955529142086
          26.164311821614078 26.07902738902409 26.144344615056447 25.995258714074524 26.04074850593052 26.036393143126553
          26.08343244438591 25.998600442488904 26.29783341556719 26.14799787940354 26.16023046814637 25.93639753592433
          25.96665092822253 25.89546385589337 25.91468760086983 25.91702041068463 25.93866983191821 25.896896141447105
          26.038779419269083 25.961232844792754 25.98904847623753 34.69685345184288 34.3528640907641 33.28670607718592
          38.21332548475168 31.55020774652595 29.667590082300315 34.46736097240316 46.72925573699288 44.1407200496551
          39.51583280139215 48.10575793373635 36.42908529180119 33.59614828369776 37.11956493354657 32.95116392996822
          32.562014786266644 30.943511295836824 30.595891628890854 31.451585485004056 29.700721516095197 36.25519492213542
          35.90387441832286 34.0029547092245 34.6996682319765 29.157126108784958 28.932590208829644 28.37293079569934
          31.96234325726777 31.489640158577693 30.290838559606286 29.9344754989017 28.63483993530855 28.549209882537834
          27.71929112811664 32.546074442717845 30.5312233933994 30.12065333706472 27.706554934107267 27.109218378457186
          28.909606796927832 27.788023214249844 38.485894035827094 37.97452310139152 36.888600498997725 36.50177828439874
          36.769414898547986 35.03546014904512 39.63277161102701 38.84285854702115 37.23425559383236 37.39389717987659
          34.81752094289992 34.151971398883234 32.35578430435889 35.9723959316876 35.26232218236784 33.270327518663166
          34.68743066268994 32.43370470806372 31.641646200472966 29.796946925414634 35.43326489297718 33.23119126121933
          32.270859479089395 30.1727235746608 28.43616647258046 30.743405083924035 28.71455633829661 28.244697111058777
          27.337506653849672 29.363534254048048 26.761891519043317 26.403687608082862 27.03680908319776 30.420595949533254
          28.331273270184965 30.869308021119558 27.252475398516516 26.652603827016193 27.33559293173886 27.56488533821594
          27.04435277182806 26.91177937459923 26.583087284850983 28.341690226099306 27.582104211835528 27.303314027739145
          26.652456522194285 26.33570021007324 26.155244654856673 27.017716796553927 26.526439011530783 26.489620792049863
          26.28273795606768 26.228518029395353 26.134781107996574 26.691010160500646 26.425367023908326 26.33148682488885
          26.13051684842962 26.021297678428304 26.051412149877148 25.970541627396457 26.227562765870758 26.08467237595302
          26.080697544057077 29.05649117667413 28.06300780564356 27.630081889965677 27.091238802090043 29.358337039023798
          28.262195554331758 27.760150938536633 27.3391961006971 26.68433096332211 26.385926679900944 27.470983834039806
          26.746770107172264 26.85021147273596 26.53868805174408 26.41123789342519 26.227621325616823 26.911639218524776
          26.582360506786316 26.44142836646648 26.30424824093733 26.13433929650976 26.091631421194112 26.020277323887388
          26.333750128974952 26.153374854230865 26.10473982651812 25.985533025468314 25.919403645284223 25.94053718237353
          26.016910374513362 25.938591179462826 25.960099288413506 25.90550041764242 26.028965515453407 25.94598980450632
          25.967561888572007 26.151036062060506 26.187870286847065 26.10722721379801 26.258986061458135 26.313862127135472
          26.192505531708054 26.3344566429883 26.048189727031506 26.07469592195613 26.005148193780407 26.026856368472437
          26.000506906638556 26.018035201739387 25.98123627341079 26.126053721985624 26.047119561653428 26.05196617377867
          26.166005191001403 26.05611547184747 26.07866740833518 25.99545374006417 26.18110505491232 26.065833872797032
          26.088965965953232 25.97217485363565 25.977231845161096 25.941368514146113 25.944692131470426 25.9344734907377
          25.937395054868063 25.914028963173617 25.982288836686543 25.948015748794745 25.94031661899842 25.9368094081895
          25.848489494524255 25.84305427583368 25.9000344912246 25.871041127625865 25.919845061730655 26.024010068521157
          25.895000443019875 26.052245493522925 25.9289742119902 25.892438823210398 25.971533778668068 25.86692319832052
          25.85163588164745 28.248945842949443 27.5654539469351 27.492494256842342 28.1458841677881 30.968947669754392
          30.680775850490384 27.04311585159126 26.992186477267488 27.295428422340905 27.86989386529739 29.91267483500063
          26.854061777557696 26.65035113950985 26.615400694059616 26.520670763047214 27.02724366154141 27.499015115733112
          28.94933944360256 26.664184528986574 26.746023255301935 27.113372722702938 28.068323894685086 26.464123573228413
          26.390793341425244 26.254157660166427 26.49407127040636 26.767956099502086 27.370258291030964 26.285837353690596
          26.292258930543206 26.49004833284429 26.143913368048985 26.132409755555777 26.035915810335496 26.22882713287352
          26.146030433517684 26.008738224392474 25.983622193999715 25.90354228028615
        </DataArray>
        <DataArray type="Float64" Name="dk/dtemperature" format="ascii" RangeMin="0.007053625280049243" RangeMax="0.021551350606467415">
          0.015762814551807676 0.015804580349343192 0.01532785899464189 0.015804580349343195 0.021551350606467415 0.008662597291681649
          0.01475351637823107 0.015762814551807676 0.015804580349343192 0.01580458034934319 0.012952165779449706 0.013409893789844446
          0.014421712217881444 0.014528329919156747 0.015242943593026009 0.015700165855504405 0.015762814551807676 0.007777150530400864
          0.007715039215350408 0.01035131164562605 0.008450045518481275 0.00870061633900315 0.009894011717936068 0.012543567992469948
          0.007241824044779136 0.007585514549498648 0.0114223121543101 0.013330072463813389 0.014901080476150222 0.012669869244300011
          0.014497067622790478 0.01533024920594663 0.015522661215978464 0.015794138899959315 0.01411205235629794 0.015096574600759225
          0.015370819897829773 0.015804580349343192 0.015804580349343192 0.015637517159201135 0.015741931653039918 0.01557486846289786
          0.01580458034934319 0.015804580349343192 0.015804580349343192 0.015804580349343192 0.015804580349343192 0.015804580349343192
          0.015804580349343192 0.015804580349343192 0.015804580349343192 0.012027660600942451 0.012170319324169268 0.013072684446471023
          0.012586340194765358 0.013786225421234415 0.013880765416878892 0.014136835073510276 0.013186972589992 0.013911020459973146
          0.01384428324433281 0.014511346838833566 0.014880322529465324 0.015470453969059075 0.015308171201526503 0.015470453969059075
          0.014976749534034595 0.01442894660060529 0.014851388392618433 0.014905482648462622 0.015794138899959315 0.015202372901142864
          0.015523856321630837 0.01572104875427216 0.015595751361665616 0.01580458034934319 0.0157523731024238 0.015804580349343192
          0.015721048754272163 0.015804580349343192 0.015298924857794997 0.015576063568550234 0.015540063631618264 0.015804580349343192
          0.01579413889995931 0.015804580349343192 0.015804580349343192 0.015804580349343192 0.015804580349343192 0.015804580349343192
          0.01574193165303992 0.015794138899959315 0.015804580349343195 0.008467535387599758 0.008595142298332982 0.00928112137296742