<?xml version="1.0"?>
<VTKFile type="UnstructuredGrid" version="0.1" byte_order="LittleEndian" header_type="UInt32" compressor="vtkZLibDataCompressor">
  <UnstructuredGrid>
    <Piece NumberOfPoints="699" NumberOfCells="360">
      <PointData>
        <DataArray type="Int32" Name="libmesh_node_id" format="ascii" RangeMin="24" RangeMax="2733">
          28 29 30 31 32 33
          34 35 36 37 38 39
          40 41 42 43 44 45
          46 47 48 49 50 51
          86 87 88 89 90 91
          92 93 94 95 96 97
          122 123 124 125 126 127
          128 129 130 131 132 133
          151 152 153 154 155 156
          176 177 178 179 180 181
          182 183 184 185 186 187
          205 206 207 208 209 210
          234 235 236 237 238 239
          240 241 261 262 263 264
          289 290 291 292 293 295
          315 316 317 318 344 345
          347 349 370 371 372 397
          398 399 400 401 402 403
          404 405 406 407 408 409
          410 411 412 413 414 415
          417 418 419 420 421 422
          424 425 426 428 429 432
          433 434 438 504 505 506
          509 512 514 515 516 517
          518 519 520 521 522 523
          524 525 526 527 528 529
          530 531 532 533 534 535
          536 537 538 539 540 541
          542 543 549 550 555 605
          606 607 611 612 613 614
          615 616 617 618 619 620
          621 622 623 624 625 626
          627 628 629 630 631 632
          633 634 635 636 637 638
          639 640 641 666 667 668
          669 670 671 672 673 674
          675 676 677 678 679 680
          681 682 683 684 685 686
          687 688 689 718 719 720
          723 724 725 726 727 728
          729 730 731 732 733 734
          735 736 737 738 739 740
          741 742 743 744 745 746
          747 748 749 750 751 752
          753 754 755 756 757 758
          759 760 761 762 763 764
          765 766 767 768 769 770
          771 772 773 774 775 776
          777 788 789 790 791 792
          793 794 795 796 797 798
          799 800 801 802 803 804
          805 806 807 949 950 951
          954 957 971 972 974 977
          979 980 981 982 983 984
          985 986 987 988 989 990
          991 992 993 994 995 996
          997 998 999 1000 1001 1002
          1003 1004 1005 1006 1007 1008
          1009 1010 1011 1012 1013 1014
          1015 1016 1017 1018 1019 1020
          1021 1022 1023 1024 1025 1026
          1027 1028 1029 1030 1031 1032
          1033 1034 1035 1036 1037 1038
          1039 1040 1041 1042 1043 1044
          1045 1046 1047 1048 1049 1050
          1051 1052 1053 1054 1055 1056
          1057 1058 1059 1060 1061 1062
          1063 1064 1065 1066 1067 1068
          1069 1070 1071 1072 1073 1074
          1075 1076 1077 1078 1079 1080
          1081 1082 1083 1084 1085 1086
          1088 1103 1104 1107 1109 1110
          1112 1123 1124 1125 1126 1127
          1128 1129 1130 1131 1132 1133
          1134 1135 1136 1355 1356 1357
          1358 1359 1360 1387 1388 1391
          1393 1395 1396 1397 1398 1399
          1400 1401 1402 1403 1404 1405
          1406 1407 1408 1409 1410 1459
          1460 1464 1467 1479 1481 1483
          1485 1486 1487 1488 1489 1490
          1491 1492 1493 1494 1495 1496
          1497 1498 1499 1500 1501 1502
          1503 1504 1505 1506 1507 1508
          1509 1510 1511 1512 1513 1514
          1515 1516 1517 1518 1519 1520
          1521 1522 1523 1524 1525 1526
          1527 1528 1529 1530 1531 1532
          1533 1534 1535 1536 1537 1538
          1539 1540 1541 1542 1543 1544
          1545 1546 1547 1548 1549 1550
          1551 1552 1553 1554 1555 1635
          1636 1637 1638 1639 1640 1641
          1642 1643 1644 1645 1646 1647
          1648 1649 1650 1651 1652 1653
          1654 1655 1656 1657 1658 1659
          1660 1661 1662 1663 1664 1665
          1666 1667 1668 1669 1670 1671
          1672 1673 1674 1675 1692 1693
          1694 1695 1696 1697 1698 1699
          1700 1701 1716 1717 1718 1719
          1720 1721 1722 1723 1724 1725
          2650 2651 2652 2653 2654 2655
          2656 2657 2658 2659 2660 2661
          2662 2663 2664 2665 2666 2667
          2668 2669 2670 2671 2672 2673
          2674 2675 2676 2677 2678 2679
          2680 2681 2682 2683 2684 2685
          2686 2687 2696 2697 2698 2699
          2700 2701 2702 2703 2704 2705
          2706 2707 2708 2709 2710 2711
          2712 2714 2715 2716 2717 2718
          2719 2720 2721 2722 2723 2724
          2725 2726 2727 2728 2729 2730
          2731 2732 2733 24 25 26
          27 84 85 120 121 150
          174 175 204
        </DataArray>
        <DataArray type="Float64" Name="bounds" format="ascii" RangeMin="0" RangeMax="0">
          0 0 0 0 0 0
          0 0 0 0 0 0
          0 0 0 0 0 0
          0 0 0 0 0 0
          0 0 0 0 0 0
          0 0 0 0 0 0
          0 0 0 0 0 0
          0 0 0 0 0 0
          0 0 0 0 0 0
          0 0 0 0 0 0
          0 0 0 0 0 0
          0 0 0 0 0 0
          0 0 0 0 0 0
          0 0 0 0 0 0
          0 0 0 0 0 0
          0 0 0 0 0 0
          0 0 0 0 0 0
          0 0 0 0 0 0
          0 0 0 0 0 0
          0 0 0 0 0 0
          0 0 0 0 0 0
          0 0 0 0 0 0
          0 0 0 0 0 0
          0 0 0 0 0 0
          0 0 0 0 0 0
          0 0 0 0 0 0
          0 0 0 0 0 0
          0 0 0 0 0 0
          0 0 0 0 0 0
          0 0 0 0 0 0
          0 0 0 0 0 0
          0 0 0 0 0 0
          0 0 0 0 0 0
          0 0 0 0 0 0
          0 0 0 0 0 0
          0 0 0 0 0 0
          0 0 0 0 0 0
          0 0 0 0 0 0
          0 0 0 0 0 0
          0 0 0 0 0 0
          0 0 0 0 0 0
          0 0 0 0 0 0
          0 0 0 0 0 0
          0 0 0 0 0 0
          0 0 0 0 0 0
          0 0 0 0 0 0
          0 0 0 0 0 0
          0 0 0 0 0 0
          0 0 0 0 0 0
          0 0 0 0 0 0
          0 0 0 0 0 0
          0 0 0 0 0 0
          0 0 0 0 0 0
          0 0 0 0 0 0
          0 0 0 0 0 0
          0 0 0 0 0 0
          0 0 0 0 0 0
          0 0 0 0 0 0
          0 0 0 0 0 0
          0 0 0 0 0 0
          0 0 0 0 0 0
          0 0 0 0 0 0
          0 0 0 0 0 0
          0 0 0 0 0 0
          0 0 0 0 0 0
          0 0 0 0 0 0
          0 0 0 0 0 0
          0 0 0 0 0 0
          0 0 0 0 0 0
          0 0 0 0 0 0
          0 0 0 0 0 0
          0 0 0 0 0 0
          0 0 0 0 0 0
          0 0 0 0 0 0
          0 0 0 0 0 0
          0 0 0 0 0 0
          0 0 0 0 0 0
          0 0 0 0 0 0
          0 0 0 0 0 0
          0 0 0 0 0 0
          0 0 0 0 0 0
          0 0 0 0 0 0
          0 0 0 0 0 0
          0 0 0 0 0 0
          0 0 0 0 0 0
          0 0 0 0 0 0
          0 0 0 0 0 0
          0 0 0 0 0 0
          0 0 0 0 0 0
          0 0 0 0 0 0
          0 0 0 0 0 0
          0 0 0 0 0 0
          0 0 0 0 0 0
          0 0 0 0 0 0
          0 0 0 0 0 0
          0 0 0 0 0 0
          0 0 0 0 0 0
          0 0 0 0 0 0
          0 0 0 0 0 0
          0 0 0 0 0 0
          0 0 0 0 0 0
          0 0 0 0 0 0
          0 0 0 0 0 0
          0 0 0 0 0 0
          0 0 0 0 0 0
          0 0 0 0 0 0
          0 0 0 0 0 0
          0 0 0 0 0 0
          0 0 0 0 0 0
          0 0 0 0 0 0
          0 0 0 0 0 0
          0 0 0 0 0 0
          0 0 0 0 0 0
          0 0 0 0 0 0
          0 0 0 0 0 0
          0 0 0 0 0 0
          0 0 0
        </DataArray>
        <DataArray type="Float64" Name="gradient_error" format="ascii" RangeMin="2.104062776814614e-12" RangeMax="7.841817159539927e-7">
          2.8594340088046386e-10 1.7142554887225382e-10 7.207756390874556e-10 4.4181034587544757e-10 2.8696011963934473e-10 1.6466680970722006e-10
          7.482987331644206e-10 4.3426282063525905e-10 1.5875162943068337e-10 9.546172487232127e-11 4.178661317706735e-10 2.5341829903145574e-10
          2.2565925789633924e-11 2.0369908028066983e-11 5.5526346789182674e-11 5.2719883326292867e-11 9.509817489183419e-12 7.488400347960745e-12
          2.3951023891466968e-11 1.9887947896490983e-11 3.5892023375384674e-12 2.8466325571765405e-12 8.659002156262466e-12 7.072296013393436e-12
          5.6907696864043795e-11 1.6284505266343961e-10 4.2373499775095384e-11 1.202269081060977e-10 3.217182031395914e-11 8.8970466292238e-11
          1.817389026650004e-11 4.9913419863403066e-11 5.466983206738073e-12 1.5824871901515e-11 2.104062776814614e-12 5.485589870524405e-12
          2.8460268086723346e-9 1.8029041629737736e-9 3.045182513797042e-9 1.7998997515201382e-9 1.6999159140024425e-9 1.0490163848583926e-9
          2.205004234883801e-10 2.2094460686548106e-10 9.684347943611655e-11 8.539118029510272e-11 3.501164024240043e-11 3.000849539581015e-11
          7.597815172752129e-10 5.546169892432345e-10 3.9811685571434265e-10 2.2138879024258212e-10 7.393888115408886e-11 2.5005350549219877e-11
          1.1190739468810669e-8 7.362350805619148e-9 1.2313888717860511e-8 7.4314287674469115e-9 6.910329951881007e-9 4.345036929261308e-9
          9.512381463194205e-10 9.668252135473843e-10 3.927196099904773e-10 3.6871321499030163e-10 1.4670271687870777e-10 1.328836652550124e-10
          3.5339621424276242e-9 2.5489688170333108e-9 1.7797439066416082e-9 9.824122807753482e-10 3.44706819990126e-10 1.19064613631317e-10
          8.614189143966866e-9 8.856886931673368e-9 1.7395857005128376e-9 2.5840956485943377e-9 8.148471999207961e-10 8.670903024697368e-10
          1.816894662248369e-10 2.984337394760235e-10 9.667546582431362e-9 3.74108694565012e-9 1.203996837185142e-9 4.083634629065524e-10
          6.936449573394764e-8 2.0836586060796462e-8 1.7609896667252084e-8 7.440703504083951e-9 4.316840360599468e-9 1.1372366073133278e-9
          1.1209158964524479e-8 3.740875360769023e-9 1.1957146767839792e-9 4.019872933464222e-10 4.1301808128903554e-7 1.8755338346784616e-8
          6.044316122462115e-9 4.444898459936489e-10 2.402718554232182e-9 8.658169112289953e-10 1.4625162672751438e-10 2.002657986761285e-8
          3.982798187002412e-8 4.243312088136107e-7 1.6886997414125663e-7 2.02526938748009e-8 3.478339670570817e-7 1.0098645855122566e-7
          4.733607387840561e-8 4.083769359953452e-8 2.0737127836975102e-8 2.72121996811758e-7 3.708392713979851e-7 2.766575962717073e-7
          2.1450655532108606e-8 1.5801238757849103e-8 9.91308791436251e-9 2.4631042355400406e-7 4.442617199156012e-8 5.469158416044823e-9
          8.639534722227456e-8 8.94013277790365e-9 9.544326717147673e-9 5.8827484283634554e-9 3.0383182641025826e-9 1.6547342683060032e-7
          1.1023351127901598e-8 1.8980922872922653e-9 3.128850945212885e-9 5.935753382169825e-8 1.0318151482919663e-9 3.480616122705461e-9
          3.527732717179645e-9 1.0658196380517173e-9 2.6422084664364572e-9 3.0390920922499907e-7 4.6170912685577616e-7 4.07080104676647e-7
          2.664733006423026e-7 4.868990834835368e-7 3.893785939579942e-7 2.7080989930048735e-7 5.187291327826713e-7 4.3707947229007573e-7
          2.332726037706263e-7 5.869354669343256e-7 4.679571742050556e-7 1.5340813906038323e-7 2.2882624950295135e-7 1.8788376827363507e-7
          3.2807843158023185e-7 5.469779539440884e-7 6.175105279943442e-7 3.266808611701252e-7 2.9996107342628645e-7 1.92073093752194e-7
          6.68539044884885e-7 4.978157530174477e-7 1.4869539321074433e-7 5.661720821136335e-7 5.226634870840279e-7 8.378424455031155e-8
          1.4532965383386228e-7 1.040954968547485e-7 2.7651780545940205e-7 6.985297837622514e-7 7.841817159539927e-7 2.2217961200872628e-7
          1.8927667674705627e-7 1.0736075603742552e-7 3.283947320539327e-8 7.572817775311778e-8 1.1438975763936763e-7 5.562607715014445e-9
          2.196007564854622e-8 1.9168701713509822e-8 1.637732777847342e-8 2.6976883761944305e-9 2.7432634617966967e-9 9.813693998930068e-9
          9.43115188389553e-9 1.6167278386005808e-9 6.111265931450011e-9 5.133946358048912e-9 2.788838547398963e-9 9.048609768860993e-9
          4.156626784647812e-9 1.6374394347825472e-9 1.1165438608590512e-9 4.82160713431837e-9 3.346454419931247e-9 7.148864762726556e-10
          2.919763396583772e-9 2.1081567764898066e-9 5.956482869355553e-10 1.871301705544123e-9 1.2965501563958416e-9 3.9154021915501156e-10
          3.587403261775028e-10 1.1959060029256196e-9 1.0668866023654305e-9 1.3308252702273042e-10 3.9404777489124375e-10 3.8291532354148735e-10
          3.2594043319999407e-10 9.378672018052412e-10 3.71782872191731e-10 2.0759589193545705e-9 4.654835759713175e-9 3.301038043980574e-9
          5.77143384369544e-9 1.4833482276194838e-9 1.9373725819266056e-9 6.997087650391975e-10 1.1885070934076923e-9 2.0029976574979136e-9
          7.08485614347518e-10 4.526117168606577e-9 6.888031927677703e-9 2.3913969362337274e-9 1.6773054217761873e-9 1.1373797483729787e-9
          1.1221670434397476e-9 4.5107290215641335e-10 4.360104563848677e-10 4.533239837858183e-10 4.1610978251563773e-10 1.6524246536784126e-10
          1.1069543385065162e-9 4.2094801061332196e-10 3.788955812454572e-10 2.00414472295086e-8 2.8401302997600477e-7 2.11627006118282e-7
          1.3924098226055926e-7 2.9326631369562923e-8 2.2389339330637827e-8 2.497147460475834e-7 1.824658749977967e-7 2.2621292160287497e-8
          2.0912804456679294e-7 1.4983315160745419e-7 1.5452047291712727e-8 1.1521700394801002e-7 9.053825864811542e-8 2.926638257491829e-8
          2.042452602872096e-8 1.6366870979513467e-7 1.147417591818247e-7 1.5937545122699423e-8 1.1623639344637189e-7 7.891023024434321e-8
          1.1582669482523627e-8 6.581480856851473e-8 4.158406704231451e-8 1.6415659600888303e-8 1.0746928358586111e-8 7.264928000078466e-8
          4.6656686443379044e-8 7.03327131718366e-9 3.946914490106286e-8 2.5349456920581874e-8 5.07819711628392e-9 2.066409288597343e-8
          1.1229768940100893e-8 1.602523073948512e-8 2.4961588823529556e-8 2.752429763997581e-8 4.5749661015206614e-8 2.1516735174448905e-8
          2.5826588162137536e-8 5.138111534557752e-9 7.31079132918652e-9 1.0900354041980847e-8 7.260731449145335e-9 3.902336454046649e-8
          6.653773320688368e-8 3.013644114982616e-8 9.483471123815287e-9 4.84789460476711e-9 4.158075685010406e-9 1.7760965518862342e-8
          1.3382417383482235e-8 1.8453159634436854e-9 6.571713588781543e-9 5.6589196198277794e-9 3.4682567652537035e-9 9.003869248102128e-9
          4.746125650874015e-9 2.1143631063931564e-8 2.2437804234752285e-8 1.1371044414393701e-8 1.1789548950995572e-8 6.159404880391143e-9
          6.472722206402991e-9 3.416633606175224e-9 2.3731977405573007e-8 1.2208053487597446e-8 6.786039532414839e-9 3.3828980519976124e-9
          3.4694354897023237e-9 4.6175582881510177e-10 4.447817979496845e-10 1.1151910083645338e-9 1.0549463767187775e-9 2.1771648808367334e-10
          3.5559729274070354e-9 4.278077670842673e-10 9.947017450730213e-10 2.7755461903027435e-7 3.8199981363555515e-7 3.571366832616667e-7
          2.7981789937421717e-7 4.601156538166522e-7 3.6765022052048596e-7 4.345889490040483e-7 4.730146737656696e-7 3.8566533786785133e-7
          3.0668496613598093e-7 2.7881669211615397e-7 3.939288086953796e-7 3.665084062599002e-7 2.790858182201876e-7 4.059598484904217e-7
          3.757108152605143e-7 2.022817296775047e-7 2.82726102605183e-7 2.8493887073717917e-7 4.889257018103076e-7 4.848455993513022e-7
          5.116047483837904e-7 4.2190258311630587e-7 3.094526743235641e-7 2.7814115031508034e-7 4.1799252959022607e-7 3.8460432274992496e-7
          2.7576525982727166e-7 4.299213415337591e-7 3.930432501600758e-7 1.948510284092533e-7 2.8628430420324835e-7 2.8657043387120005e-7
          5.513428921849706e-7 5.40527295598631e-7 5.7170781731644e-7 4.524928821475266e-7 3.97094362541617e-7 4.6632741029465973e-7
          4.311356636775578e-7 5.022069823037564e-7 4.981543458471108e-7 5.251682724929504e-7 2.9750997271739723e-7 4.171637422903615e-7
          4.53540280140773e-7 5.156740009944713e-7 4.709209647728826e-7 5.429774120669422e-7 5.179190132585068e-7 5.895124843277791e-7
          5.540960436680546e-7 5.848921025743434e-7 3.6568853003271204e-7 4.959677281213919e-7 5.459305745155579e-7 5.809239030382995e-7
          3.064069542635172e-7 2.717513143034092e-7 4.415520534376086e-7 4.008272099217396e-7 2.6574472453931814e-7 4.527863214590935e-7
          4.0778906278868705e-7 1.8294218598228384e-7 2.8557970012157275e-7 2.830561766360227e-7 6.260160013437142e-7 6.053799307113177e-7
          6.414269782762923e-7 4.832005341292301e-7 2.945012298219181e-7 2.5729814177541535e-7 4.6373231815184683e-7 4.1385056521889867e-7
          2.460984482070792e-7 4.739761108687303e-7 4.185113262869799e-7 1.6589319843691372e-7 2.786986961940554e-7 2.720550338804617e-7
          7.13191268515653e-7 6.791814204955718e-7 6.20116055732918e-7 5.113596554287805e-7 5.700947759628035e-7 6.411124236666154e-7
          5.069336169368576e-7 6.374082091271083e-7 6.175790194240687e-7 6.515680658472806e-7 4.648547018498787e-7 6.013680914506654e-7
          5.421779743310166e-7 6.569741848505386e-7 4.3876099085754276e-7 6.341661464472138e-7 2.811001957360785e-7 5.859478521134394e-7
          6.860851287216546e-7 7.204532467083135e-7 2.950976081940691e-8 4.801666644364836e-7 5.212692978786566e-7 7.409551405369453e-7
          2.6906425105300935e-7 2.3181283413684243e-7 4.829097175300021e-7 4.2132875360381813e-7 2.1395913255722483e-7 4.899450785972474e-7
          4.2193336636792464e-7 1.4410672186151917e-7 2.6284838842896547e-7 2.507982660820297e-7 4.093888304206462e-7 5.5597287430397e-7
          5.302824678843349e-7 6.413603977996037e-8 4.1841856389293614e-7 6.377322751747983e-7 1.6707097278744911e-9 3.0854506559228206e-7
          5.986946755028194e-7 2.3577797001173745e-7 2.486592521265022e-7 3.6306424316230544e-7 3.713766636604986e-7 2.194821893889836e-7
          3.500207666189878e-7 1.1500105005764899e-7 1.6676290395183603e-7 1.8770957947255514e-7 1.4382684471975243e-7 4.160701611504694e-7
          4.213705713691193e-7 4.057207064458225e-7 1.882729896288104e-7 1.0047271094802235e-8 1.0333133928149813e-8 3.5091140673612047e-9
          3.3794447337602595e-9 1.0618996761497392e-8 3.249775400159314e-9 1.199427508473628e-7 1.7941587214134985e-7 2.1787904285895258e-8
          2.3888899343533686e-7 9.521859304835174e-8 1.467477645626713e-7 7.055323846100128e-8 1.1215594682554336e-7 1.6510323351009686e-8
          2.2029245414277297e-8 2.0080195905329296e-8 1.982769360769909e-7 1.5375865519008543e-7 2.75481674775449e-8 4.684356322927345e-8
          7.758599717912561e-8 1.0954004754087363e-8 1.6178283444869964e-8 1.0832843112897776e-7 2.1402562135652564e-8 1.202412272082533e-7
          1.7266804403305988e-7 1.1797384220546363e-7 2.757703949317833e-7 3.540737487303019e-7 2.6364582741687516e-7 3.8170156845490366e-7
          1.1533900528822495e-7 1.694811663214352e-7 1.0997653022659813e-7 1.655736153154767e-7 7.706296931776756e-8 1.1259813125692508e-7
          1.0673127118720186e-7 2.7732032376561715e-7 2.7793239794503965e-7 1.916009781909193e-7 1.0422245040737005e-7 1.6090148503676836e-7
          9.803224607742626e-8 1.5535680404626005e-7 6.557247030282999e-8 1.0045047757666382e-7 9.37378991365124e-8 2.773963710280029e-7
          2.7548500975653466e-7 1.7951867677324417e-7 3.610002563181848e-7 3.671744969555311e-7 2.6125227898985037e-7 2.5729074985511646e-7
          3.9098319245978077e-7 3.9965489842533806e-7 2.874358947939448e-7 3.7233116817473956e-7 3.761726291995623e-7 2.515041083743718e-7
          2.4366700864748883e-7 4.0745011395964005e-7 4.1405660090114903e-7 2.792993480527529e-7 9.14094096330708e-8 1.488472236366125e-7
          8.455435769473695e-8 1.4136875518038063e-7 5.403012164487512e-8 8.663741343595015e-8 7.941696120699654e-8 2.7194513182300534e-7
          2.664910955607696e-7 1.622330554664716e-7 7.773115969940118e-8 1.3292875230368298e-7 7.118153649988382e-8 1.2355864240050518e-7
          4.377097625388753e-8 7.242892450520577e-8 6.60537587453164e-8 2.5878045824353797e-7 1.4001317810500565e-7 3.783225385942644e-7
          3.784642074998764e-7 2.3361710971081874e-7 2.210874296409062e-7 4.1903985118267225e-7 4.2212937654423804e-7 2.620128137157195e-7
          3.7626274021651543e-7 2.0584594590132235e-7 4.230909088539197e-7 2.3275240834915737e-7 6.525611503066826e-8 1.1337686494000084e-7
          6.070920204422216e-8 1.0267637701501816e-7 3.686020355897373e-8 6.080474269970501e-8 5.767787600457898e-8 1.0974198502972399e-7
          7.199312189012431e-8 6.682494020132741e-8 7.037879761869914e-8 7.393265503607087e-8 6.876447334727397e-8 7.53460823991291e-8
          7.805123948440264e-8 8.818343029083948e-8 8.075639656967618e-8 1.1207298221695715e-7 1.102430689881672e-7 1.0841315575937725e-7
          9.13341504463288e-8 9.536108317305562e-8 1.0360527187108884e-7 9.938801589978244e-8 6.64346295957793e-8 7.366191507365953e-8
          5.7025625730265194e-8 7.452296936734181e-8 8.088920055153973e-8 9.205823328694137e-8 5.7523176792429506e-8 6.92725906629164e-8
          6.098812342058025e-8 8.102200453340329e-8 4.9694379618968254e-8 7.469064722669952e-8 5.1169547781189766e-8 7.82895108503392e-8
          9.933889986821166e-8 1.048155936002934e-7 4.1785284204028804e-9 5.4088128076672716e-8 5.6511111978450004e-8 9.928978383664088e-8
          1.1593441109145462e-7 1.1372996256662133e-7 1.2056934921874737e-7 1.1152551404178805e-7 1.1383291188396969e-7 1.1347141610749204e-7
          1.1871556174383293e-7 1.1986859122614213e-7 1.1310992033101439e-7 1.2102162070845132e-7 8.276148343089434e-8 9.77732266705872e-8
          9.197345327723497e-8 1.127951728068174e-7 2.982666358554382e-8 7.051043560547752e-8 7.095146558308996e-9 4.980231546632834e-8
          1.09802174504149e-7 1.0382484721957476e-7 2.2021443405458022e-9 5.8321291553261784e-8 3.43195372049839e-8 1.0870833001490392e-7
          7.606674915865014e-9 7.24387600534252e-9 7.51297015481694e-9 7.782064304291357e-9 7.419265393768864e-9 7.896981622804663e-9
          8.003098245823884e-9 8.402623757826827e-9 8.109214868843105e-9 7.86500144391998e-9 8.323051895157648e-9 8.119354415738667e-9
          8.781102346395315e-9 6.795822446083774e-9 7.536537099142491e-9 6.1165686060052924e-9 7.46756206319027e-9 8.277251752201204e-9
          8.818555520375247e-9 5.694663269362885e-9 7.069975952461094e-9 6.5325003685537125e-9 8.445288635559303e-9 5.689839949352712e-9
          7.252944621048641e-9 5.281896180323002e-9 6.981526263178266e-9 8.81604929274457e-9 8.68115634603353e-9 3.5146784547854425e-9
          6.1828373469396345e-9 5.843698110617866e-9 8.850996239093826e-9 1.2272411078831018e-8 1.2504451283959476e-8 1.2579697074015683e-8
          1.3017050004296278e-8 1.2654942864071891e-8 1.183685702806093e-8 1.198604853655947e-8 1.2135240045058013e-8 7.065079096224708e-9
          7.90241067302468e-9 8.93347636199921e-9 8.739742249824652e-9 1.1628360235145917e-8 1.199287911572328e-8 1.1313148214352137e-8
          1.1962514762293475e-8 1.2357397996300647e-8 1.2611881310234811e-8 8.01827807133266e-9 9.164255720166398e-9 8.592697282135146e-9
          1.0310233369000135e-8 4.831627260076131e-9 6.685754874857901e-9 4.259938585087165e-9 6.309285130968791e-9 8.539882489639668e-9
          8.358631676850415e-9 2.5981754239275533e-9 5.46909907669112e-9 5.068198716082728e-9 8.340022729454687e-9 3.592648978368142e-9
          5.792534501651375e-9 3.0490696611702925e-9 5.2424945973260315e-9 7.992420024934606e-9 9.505202993636566e-9 1.9010110004033227e-9
          4.662618720400834e-9 4.207574150672442e-9 7.424226440398346e-9 3.507595483444136e-10 2.0504648732201001e-10 9.003532593463213e-10
          5.378501053959999e-10 5.933342629960645e-11 1.7534695144567853e-10 3.517027541517117e-9 2.1835167228275203e-9 8.500059041379234e-10
          1.3381215963186623e-8 8.740262549655851e-9 4.09930913612508e-9
        </DataArray>
        <DataArray type="Float64" Name="gradient_matprop_error" format="ascii" RangeMin="0" RangeMax="0">
          0 0 0 0 0 0
          0 0 0 0 0 0
          0 0 0 0 0 0
          0 0 0 0 0 0
          0 0 0 0 0 0
          0 0 0 0 0 0
          0 0 0 0 0 0
          0 0 0 0 0 0
          0 0 0 0 0 0
          0 0 0 0 0 0
          0 0 0 0 0 0
          0 0 0 0 0 0
          0 0 0 0 0 0
          0 0 0 0 0 0
          0 0 0 0 0 0
          0 0 0 0 0 0
          0 0 0 0 0 0
          0 0 0 0 0 0
          0 0 0 0 0 0
          0 0 0 0 0 0
          0 0 0 0 0 0
          0 0 0 0 0 0
          0 0 0 0 0 0
          0 0 0 0 0 0
          0 0 0 0 0 0
          0 0 0 0 0 0
          0 0 0 0 0 0
          0 0 0 0 0 0
          0 0 0 0 0 0
          0 0 0 0 0 0
          0 0 0 0 0 0
          0 0 0 0 0 0
          0 0 0 0 0 0
          0 0 0 0 0 0
          0 0 0 0 0 0
          0 0 0 0 0 0
          0 0 0 0 0 0
          0 0 0 0 0 0
          0 0 0 0 0 0
          0 0 0 0 0 0
          0 0 0 0 0 0
          0 0 0 0 0 0
          0 0 0 0 0 0
          0 0 0 0 0 0
          0 0 0 0 0 0
          0 0 0 0 0 0
          0 0 0 0 0 0
          0 0 0 0 0 0
          0 0 0 0 0 0
          0 0 0 0 0 0
          0 0 0 0 0 0
          0 0 0 0 0 0
          0 0 0 0 0 0
          0 0 0 0 0 0
          0 0 0 0 0 0
          0 0 0 0 0 0
          0 0 0 0 0 0
          0 0 0 0 0 0
          0 0 0 0 0 0
          0 0 0 0 0 0
          0 0 0 0 0 0
          0 0 0 0 0 0
          0 0 0 0 0 0
          0 0 0 0 0 0
          0 0 0 0 0 0
          0 0 0 0 0 0
          0 0 0 0 0 0
          0 0 0 0 0 0
          0 0 0 0 0 0
          0 0 0 0 0 0
          0 0 0 0 0 0
          0 0 0 0 0 0
          0 0 0 0 0 0
          0 0 0 0 0 0
          0 0 0 0 0 0
          0 0 0 0 0 0
          0 0 0 0 0 0
          0 0 0 0 0 0
          0 0 0 0 0 0
          0 0 0 0 0 0
          0 0 0 0 0 0
          0 0 0 0 0 0
          0 0 0 0 0 0
          0 0 0 0 0 0
          0 0 0 0 0 0
          0 0 0 0 0 0
          0 0 0 0 0 0
          0 0 0 0 0 0
          0 0 0 0 0 0
          0 0 0 0 0 0
          0 0 0 0 0 0
          0 0 0 0 0 0
          0 0 0 0 0 0
          0 0 0 0 0 0
          0 0 0 0 0 0
          0 0 0 0 0 0
          0 0 0 0 0 0
          0 0 0 0 0 0
          0 0 0 0 0 0
          0 0 0 0 0 0
          0 0 0 0 0 0
          0 0 0 0 0 0
          0 0 0 0 0 0
          0 0 0 0 0 0
          0 0 0 0 0 0
          0 0 0 0 0 0
          0 0 0 0 0 0
          0 0 0 0 0 0
          0 0 0 0 0 0
          0 0 0 0 0 0
          0 0 0 0 0 0
          0 0 0 0 0 0
          0 0 0 0 0 0
          0 0 0 0 0 0
          0 0 0 0 0 0
          0 0 0 0 0 0
          0 0 0
        </DataArray>
        <DataArray type="Float64" Name="initial_marker" format="ascii" RangeMin="0" RangeMax="2">
          0 0 0 0 0 0
          0 0 0 0 0 0
          0 0 0 0 0 0
          0 0 0 0 0 0
          0 0 0 0 0 0
          0 0 0 0 0 0
          0 0 0 0 0 0
          0 0 0 0 0 0
          0 0 0 0 0 0
          0 0 0 0 0 0
          0 0 0 0 0 0
          0 0 0 0 0 0
          0 0 0 0 0 0
          0 0 0 0 0 0
          0 0 0 0 0 0
          0 0 0 0 2 0
          0 0 0 0 0 0
          0 0 0 0 0.5 0
          0 0 0 2 0 0
          0 0 0 1 0 0
          0 0 0 0 2 0
          0 0 0 0 0 0
          0 0 0 0 2 1
          0 1 0 0 2 1
          0 2 1 0 0 0
          2 1 1 0 1 0
          2 1 0 2 1 0
          0 0 2 1 1.5 0
          1 0 0 0 0 0
          0 0 0 0 0 0
          0 0 0 0 0 0
          0 0 0 0 0 0
          0 0 0 0 0 0
          0 0 0 0 0 0
          0 0 0 0 0 0
          0 0 0 0 0 0
          0 0 0 0 0 0
          0 0 0 0 0 0
          0 0 0 0 0 0
          0 0 0 0 0 0
          0 0 0 0 0 0
          0 0 0 0 0 0
          0 0 0 0 0 0
          0 0 0 0 0 0
          0 0 0 0 0 0
          0 0 0 0 0 0
          0 0 0 0 0 0
          0 0 0 0 0 0
          0 0 0 0 0 0
          0 0 0 0 0 0
          0 0 0 0 0 0
          0 0 0 0 1 1
          0.5 2 2 2 1 2
          0 0 1 1 0 1
          1 0 0.5 0.5 2 2
          2 1 0 0 1 1
          0.5 1.5 1.25 0 0.5 0.5
          2 2 2 1 2 2
          2 2 1 1 2 2
          2 1 2 2 2 2
          1 1 2 2 2 1
          2 1 2 1.5 1 2
          1.5 0 0.5 0.5 2 2
          2 1 2 1 2 1.5
          1 2 1.5 0 0.5 0.5
          2 2 2 1 2 2
          2 2 1 1 2 2
          2 1 2 2 2 2
          1 1.25 2 2 2 1
          2 1 2 1.5 1 2
          1.5 0 0.5 0.5 2 2
          1 2 2 1.5 2 2
          2 0 0 0.5 0.25 0
          0.5 0 0 0 0 1
          0.5 1 0 0 0 0
          0 0 0 0 0 0
          0 0 0 0 0 0
          0 0 0 0 0 0
          0 0 0 0 0 0
          0 0 0 0 0 0
          0 0 0 0 0 0
          0 0 0 0 0 0
          0 0 0 0 0 0
          0 0 0 0 0 0
          0 0 0 0 0 0
          0 0 0 0 0 0
          0 0 0 0 0 0
          0 0 0 0 0 0
          0 0 0 0 0 0
          0 0 0 0 0 0
          0 0 0 0 0 0
          0 0 0 0 0 2
          2 2 2 2 2 2
          2 2 2 2 2 2
          2 2 2 2 2 2
          2 2 2 2 2 2
          2 2 2 2 2 2
          2 2 2 2 2 2
          2 2 2 2 2 2
          2 2 2 2 2 2
          2 2 2 2 2 2
          2 2 2 2 2 2
          2 2 2 2 2 2
          2 2 2 2 2 2
          2 2 2 2 2 2
          2 2 2 2 2 2
          2 2 2 2 2 2
          2 2 2 2 2 2
          2 2 2 2 2 2
          2 2 2 2 2 2
          2 2 2 2 2 2
          2 2 2 2 2 2
          2 2 2 2 2 2
          2 2 2 2 2 2
          2 2 2 0 0 0
          0 0 0 0 0 0
          0 0 0
        </DataArray>
        <DataArray type="Float64" Name="markers_norefine" format="ascii" RangeMin="0" RangeMax="2">
          0 0 0 0 0 0
          0 0 0 0 0 0
          0 0 0 0 0 0
          0 0 0 0 0 0
          0 0 0 0 0 0
          0 0 0 0 0 0
          0 0 0 0 0 0
          0 0 0 0 0 0
          0 0 0 0 0 0
          0 0 0 0 0 0
          0 0 0 0 0 0
          0 0 0 0 0 0
          0 0 0 0 0 0
          0 0 0 0 0 0
          0 0 0 0 0 0
          0 0 0 0 0 0
          0 0 0 0 0 0
          0 0 0 0 0 0
          0 0 0 0 0 0
          0 0 0 0 0 0
          0 0 0 0 2 0
          0 0 0 0 0 0
          0 0 0 0 0 0
          0 0 0 0 0 0
          0 0 0 0 0 0
          0 0 0 0 0 0
          0 0 0 0 0 0
          0 0 0 0 0 0
          0 0 0 0 0 0
          0 0 0 0 0 0
          0 0 0 0 0 0
          0 0 0 0 0 0
          0 0 0 0 0 0
          0 0 0 0 0 0
          0 0 0 0 0 0
          0 0 0 0 0 0