<?xml version="1.0"?>
<VTKFile type="UnstructuredGrid" version="0.1" byte_order="LittleEndian" header_type="UInt32" compressor="vtkZLibDataCompressor">
  <UnstructuredGrid>
    <Piece NumberOfPoints="598" NumberOfCells="345">
      <PointData>
        <DataArray type="Int32" Name="libmesh_node_id" format="ascii" RangeMin="436" RangeMax="5571">
          437 576 582 583 592 597
          833 839 1242 1257 1258 1262
          1267 1268 1269 1272 1273 1274
          1275 1276 1277 1278 1279 1280
          1281 1282 1291 1296 1315 1320
          1331 1332 1335 1336 1338 1340
          1574 1578 2000 2074 2075 2078
          2079 2080 2081 2082 2083 2084
          2085 2176 2177 2180 2181 2182
          2183 2184 2187 2210 2211 2214
          2217 2218 2221 2222 2223 2224
          2225 2226 2227 2228 2229 2230
          2231 2232 2233 2234 2235 2236
          2237 2238 2239 2240 2241 2242
          2243 2244 2245 2246 2247 2248
          2249 2250 2251 2252 2253 2254
          2255 2256 2257 2258 2259 2260
          2261 2262 2321 2322 2323 2324
          2325 2326 2327 2382 2384 2385
          2388 2418 2419 2422 2488 2489
          2490 2491 2492 2493 2494 2495
          2496 2497 2498 2499 2500 2501
          2502 2503 2504 2623 2624 2625
          2626 2627 2628 2629 2630 2631
          2632 2633 2634 2635 2636 2637
          2638 2639 3618 3620 3621 3622
          3623 3630 3637 3640 3641 3644
          3647 3648 3651 3652 3653 3654
          3655 3656 3657 3658 3659 3660
          3661 3662 3663 3664 3665 3666
          3667 3668 3669 3670 3671 4056
          4058 4059 4060 4064 4065 4066
          4069 4070 4073 4076 4077 4080
          4081 4082 4083 4084 4085 4086
          4087 4088 4089 4090 4091 4092
          4093 4094 4109 4110 4111 4112
          4113 4114 4115 4116 4117 4118
          4119 4120 4121 4122 4262 4263
          4264 4268 4269 4270 4285 4286
          4287 4288 4289 4290 4291 4292
          4293 4294 4295 4296 4297 4298
          4313 4314 4315 4316 4317 4318
          4319 4320 4321 4322 4323 4324
          4325 4326 4327 4328 4329 4330
          4331 4332 4333 4334 4335 4336
          4337 4338 4339 4340 4341 4342
          4343 4344 4345 4346 4347 4348
          4349 4350 4351 4352 4353 4354
          4355 4356 4357 4358 4359 4360
          4361 4362 4363 4364 4365 4366
          4367 4368 4369 4370 4371 4372
          4373 4374 4375 4376 4377 4378
          4379 4380 4381 4382 4383 4384
          4616 4626 4629 4630 4633 4635
          4636 4637 4639 4640 4641 4642
          4643 4644 4645 4646 4647 4648
          4649 4650 4651 4652 4653 4654
          4655 4656 4657 4658 4659 4660
          4894 4895 4898 4906 4907 4908
          4909 4910 4911 4912 4934 4935
          4936 4937 4938 4939 4940 4947
          5160 5161 5162 5163 5164 5165
          5166 5169 5170 5173 5188 5189
          5190 5191 5192 5193 5194 5197
          5198 5201 5531 5532 5533 5534
          5535 5536 5537 5538 5539 5540
          5541 5542 5543 5544 5545 5546
          5547 5548 5549 5550 5551 5552
          5553 5554 5555 5556 5557 5558
          5559 5560 5561 5562 5563 5564
          5565 5566 5567 5568 5569 5570
          5571 565 578 799 791 436
          805 796 579 801 806 1207
          1263 1208 1264 1211 1265 1266
          1213 1270 1271 1224 1237 1567
          1564 573 1571 1565 1569 1572
          1984 2039 2041 1999 2072 2040
          2073 2002 2076 2077 2049 2051
          2050 1238 2114 2174 2116 2175
          2118 2178 1248 2179 2148 2208
          2150 2209 2152 2212 581 2213
          2298 2300 2299 3614 3624 3626
          3615 3616 3628 3625 3627 3629
          3631 3633 3635 3632 3634 3636
          3617 3638 3639 3619 3642 3643
          3645 3646 3649 3650 4055 4067
          4068 4057 4071 4072 4074 4075
          4078 4079 4061 4095 4097 4062
          4096 4098 4102 4104 4103 4105
          4101 2185 4108 2186 4260 4273
          4274 4277 2215 4280 4281 4284
          2216 4266 4301 4302 4305 2219
          4308 4309 4312 2220 4610 4612
          4614 4611 4613 4615 4618 4622
          4624 4620 4623 4625 4627 4628
          4631 4632 4634 4638 4892 4893
          4017 4778 2169 4782 4896 4779
          2366 4897 4920 4922 4921 4923
          4926 2386 5148 5149 5152 2416
          5176 5177 5180 2420
        </DataArray>
        <DataArray type="Float64" Name="bounds" format="ascii" RangeMin="0" RangeMax="0">
          0 0 0 0 0 0
          0 0 0 0 0 0
          0 0 0 0 0 0
          0 0 0 0 0 0
          0 0 0 0 0 0
          0 0 0 0 0 0
          0 0 0 0 0 0
          0 0 0 0 0 0
          0 0 0 0 0 0
          0 0 0 0 0 0
          0 0 0 0 0 0
          0 0 0 0 0 0
          0 0 0 0 0 0
          0 0 0 0 0 0
          0 0 0 0 0 0
          0 0 0 0 0 0
          0 0 0 0 0 0
          0 0 0 0 0 0
          0 0 0 0 0 0
          0 0 0 0 0 0
          0 0 0 0 0 0
          0 0 0 0 0 0
          0 0 0 0 0 0
          0 0 0 0 0 0
          0 0 0 0 0 0
          0 0 0 0 0 0
          0 0 0 0 0 0
          0 0 0 0 0 0
          0 0 0 0 0 0
          0 0 0 0 0 0
          0 0 0 0 0 0
          0 0 0 0 0 0
          0 0 0 0 0 0
          0 0 0 0 0 0
          0 0 0 0 0 0
          0 0 0 0 0 0
          0 0 0 0 0 0
          0 0 0 0 0 0
          0 0 0 0 0 0
          0 0 0 0 0 0
          0 0 0 0 0 0
          0 0 0 0 0 0
          0 0 0 0 0 0
          0 0 0 0 0 0
          0 0 0 0 0 0
          0 0 0 0 0 0
          0 0 0 0 0 0
          0 0 0 0 0 0
          0 0 0 0 0 0
          0 0 0 0 0 0
          0 0 0 0 0 0
          0 0 0 0 0 0
          0 0 0 0 0 0
          0 0 0 0 0 0
          0 0 0 0 0 0
          0 0 0 0 0 0
          0 0 0 0 0 0
          0 0 0 0 0 0
          0 0 0 0 0 0
          0 0 0 0 0 0
          0 0 0 0 0 0
          0 0 0 0 0 0
          0 0 0 0 0 0
          0 0 0 0 0 0
          0 0 0 0 0 0
          0 0 0 0 0 0
          0 0 0 0 0 0
          0 0 0 0 0 0
          0 0 0 0 0 0
          0 0 0 0 0 0
          0 0 0 0 0 0
          0 0 0 0 0 0
          0 0 0 0 0 0
          0 0 0 0 0 0
          0 0 0 0 0 0
          0 0 0 0 0 0
          0 0 0 0 0 0
          0 0 0 0 0 0
          0 0 0 0 0 0
          0 0 0 0 0 0
          0 0 0 0 0 0
          0 0 0 0 0 0
          0 0 0 0 0 0
          0 0 0 0 0 0
          0 0 0 0 0 0
          0 0 0 0 0 0
          0 0 0 0 0 0
          0 0 0 0 0 0
          0 0 0 0 0 0
          0 0 0 0 0 0
          0 0 0 0 0 0
          0 0 0 0 0 0
          0 0 0 0 0 0
          0 0 0 0 0 0
          0 0 0 0 0 0
          0 0 0 0 0 0
          0 0 0 0 0 0
          0 0 0 0 0 0
          0 0 0 0 0 0
          0 0 0 0
        </DataArray>
        <DataArray type="Float64" Name="gradient_error" format="ascii" RangeMin="1.304384749909994e-11" RangeMax="2.4903297746984573e-7">
          7.093190844721735e-10 2.595477106215152e-10 6.452087575454846e-10 3.745578864969819e-9 7.998240564497126e-11 8.159461759867349e-11
          1.0533725667993134e-10 9.634522637122535e-11 4.806242733499777e-9 1.3427602771082405e-8 3.8021317316986067e-10 2.0189187521149316e-8
          1.2537043394906366e-8 7.257230494472495e-9 3.465093298757161e-9 1.9774175940386243e-9 2.0052045440301886e-9 1.5281901322100103e-9
          2.802526605439547e-10 4.285284972844037e-10 1.8302451116345956e-9 1.4955707461112261e-9 6.371484297350193e-10 1.7371335177521745e-9
          5.333205394487739e-10 1.2388488893324391e-9 4.9888601488720054e-11 5.176285489236313e-11 9.78641226279189e-11 1.246515654599578e-10
          6.227282328418577e-11 9.552526030603784e-11 9.42801858912731e-11 1.6457106590874535e-10 1.243677097232134e-10 2.1044814502627424e-10
          6.338831151386684e-11 6.038978778097477e-11 1.3412837845537175e-8 9.414366032109442e-9 2.356604627913487e-9 1.3231128667171075e-8
          5.243749226805242e-10 2.0061157882193852e-10 5.400871429751329e-10 1.9624624855102952e-10 1.050293362615099e-9 4.6382795993011063e-10
          6.391659173960163e-10 1.8775406639583516e-8 8.134724892522596e-9 3.043705722876703e-8 2.7345696397125407e-9 1.275564441855053e-9
          7.481063930698736e-10 3.0792050281939803e-10 9.209291539234961e-10 4.0964225646075245e-8 1.825655682954901e-8 4.524393363607553e-8
          1.3399757284764778e-9 5.651315873262134e-10 1.5162836782098727e-9 4.187758566053953e-9 6.021129999535498e-9 4.245904782355052e-9
          9.312365029248142e-9 1.1987889821020184e-8 9.309007146565386e-9 1.3205551016561125e-8 3.15389189178674e-9 4.553862354921982e-9
          1.360811210983648e-9 1.969972902301594e-9 1.902598824379888e-9 2.862541589454497e-9 1.0533640525190956e-9 7.148041827086865e-9
          2.8347202990312156e-9 4.6738706652311855e-9 6.840378794628071e-10 5.783404433497727e-10 2.6534156777616173e-10 2.3025001503894679e-10
          3.742019266773712e-10 4.2949241049645485e-10 1.5769077011869015e-10 3.8858972934653966e-10 1.475463223383685e-10 5.812438869797271e-10
          9.284035226907625e-9 3.7461272983312294e-9 6.154563837563322e-9 2.0460721110545612e-9 1.0225819617698744e-8 4.127660386315404e-9
          6.78387069919338e-9 5.137551958895887e-10 1.9442741984894879e-10 7.57101531864198e-10 2.8487637767983894e-10 5.639083583706909e-10
          2.1350038256331265e-10 8.24705652911039e-10 7.921522897335604e-11 3.871112604956044e-11 7.331752453699498e-11 4.487992386068016e-11
          1.9506801530654779e-10 8.08093109190863e-11 9.876840494604302e-11 5.48444989349148e-10 1.4141270580932952e-10 7.662061864401441e-11
          1.704897368055731e-10 2.269682712420068e-10 1.1001489672350051e-10 2.5938143260478746e-10 9.915961649075445e-11 1.0959262402843647e-10
          4.552955563220875e-11 6.635207693344488e-11 4.583691187132319e-11 5.670077864825457e-11 2.105976412842223e-11 7.918846785936512e-11
          6.747779477400139e-11 7.75893232365118e-11 7.177784115405808e-11 5.735142764010786e-11 1.0187691243576838e-10 3.4714342471042467e-11
          7.912192757508736e-11 6.370255924771717e-11 1.1123926173877888e-10 4.06518674643857e-10 5.920296752221509e-10 4.1483663492219797e-10
          2.765947004523724e-10 4.0284185411171423e-10 9.70660323961641e-11 1.4460221315922418e-10 1.9109226919726334e-10 2.7675083235059654e-10
          9.247739800653361e-11 3.542668192704936e-11 5.3201940805551956e-11 2.3392025322658224e-11 3.0853488293933046e-11 2.6733125736613475e-11
          3.383473776150823e-11 2.1379709288944468e-11 1.2108884792174462e-9 4.375698827151568e-10 5.576442951088429e-10 4.3177684817114405e-10
          9.300182857377194e-10 6.438898588033837e-10 2.3844480217937006e-10 9.700488187175777e-10 5.983946275745224e-10 1.6665677717350742e-9
          3.8734579629730044e-10 2.53814746372244e-10 6.972370755131359e-10 3.4855910819893535e-10 4.5292893114870297e-10 2.0477324894821804e-10
          2.796992295624712e-10 2.593807186685257e-10 3.2797527455983407e-10 1.7702019910544955e-10 7.565942612128867e-10 4.745426723701254e-10
          5.343451795327891e-10 1.2393613532731675e-10 1.737354872881776e-10 7.880048102031423e-11 1.1101713043312832e-10 8.281848599757908e-11
          1.0717617155162897e-10 6.790823898452972e-11 3.014702161236534e-10 1.9479552262802114e-10 1.7583979713702468e-10 3.2817313462869695e-9
          1.4607028600605606e-9 1.1338223065845616e-9 2.15472653267822e-9 3.015513071742961e-9 1.508230797982889e-9 3.931911213885431e-9
          2.67784360166885e-9 1.7393986595637253e-9 4.1285872854148595e-9 1.1786117811651707e-9 7.941465086216179e-10 1.8752494811881973e-9
          1.1993713482548757e-9 7.680680161434274e-10 8.495717635520463e-10 4.550286001102035e-10 1.793736398916777e-9 1.180966236390416e-9
          1.002159439336843e-9 4.949670146256048e-10 3.231827211277137e-10 2.843845587258093e-10 1.833438768530128e-10 7.705688836451521e-10
          5.060845631764706e-10 3.5738333936192306e-10 2.5376839022429307e-9 1.708206084925048e-9 1.1763429320750114e-9 6.887100949016495e-10
          3.354759524726578e-9 2.3136000045351785e-9 1.5472708852374005e-9 1.1267409577098315e-9 7.42801582318444e-10 4.381876652469968e-10
          2.8073614350285603e-10 1.5391116571631928e-9 1.0184052280671197e-9 5.919859270184069e-10 4.889060587040779e-9 2.438096706574038e-9
          5.678477316357127e-9 6.165234620460886e-9 3.0792316727541414e-9 6.348474288795909e-9 4.20270216245743e-9 2.9365605017670747e-9
          1.914676862298806e-9 1.1463387568186285e-9 4.92023087573383e-9 3.483299648620364e-9 2.2253729309927947e-9 1.9640124053743422e-9
          1.3033477882134954e-9 7.425135522057055e-10 4.790829134122861e-10 2.3396135842555822e-9 1.5557943047563317e-9 8.732632498935459e-10
          5.385428657952106e-9 3.860087389167606e-9 2.4269150988284937e-9 1.470304685486323e-9 5.557028774733011e-9 3.995652070350868e-9
          2.500854494183794e-9 2.5999824057317697e-9 1.7311652671778969e-9 9.626886273212248e-10 6.241664910143662e-10 2.6934117237569744e-9
          1.7940692602651556e-9 9.94518016822688e-10 4.4455594992356305e-10 5.277721052126646e-10 4.2131577220821306e-10 6.777136947999386e-10
          3.715922307521653e-10 4.385645372990744e-10 2.3853878903665964e-10 2.7996534506224127e-10 2.8247612824970585e-10 3.1546168582550637e-10
          1.6857668728516484e-10 5.648087317479157e-10 3.6332206219558443e-10 3.88784931668198e-10 1.4758404364964047e-10 1.7211396637702834e-10
          9.256939162628509e-11 1.0754734389767733e-10 1.0158876901874543e-10 1.0410869158901828e-10 6.526222872838438e-11 2.2326006544685785e-10
          1.397543376887085e-10 1.197964391717391e-10 8.103370383962196e-10 6.401387024881016e-10 9.24144882403252e-10 1.0084016760486744e-9
          8.008805422628075e-10 1.0447485349851731e-9 6.810401215244659e-10 4.4439167173068533e-10 4.668359847723015e-10 2.3609263427041523e-10
          7.806722770316976e-10 5.140096486167214e-10 5.337524882515391e-10 2.7473394363203976e-10 1.7301858279256989e-10 1.4507086776409104e-10
          9.069270024950309e-11 3.1898877210286445e-10 2.0153591138750871e-10 1.6682608221019102e-10 8.521035738304742e-10 5.614805202192956e-10
          5.830313024669433e-10 2.944295959618617e-10 8.808622169966374e-10 5.78472863363173e-10 6.031069780403223e-10 3.4897121513944354e-10
          2.208959209105125e-10 1.8169967519483464e-10 1.1334795010677036e-10 3.5955653154793834e-10 2.2777380542279988e-10 1.8692465731328236e-10
          9.932376176832767e-11 3.935177629284741e-11 1.6483701935697725e-10 1.0504808192010423e-10 3.042929737725132e-10 9.130314351450848e-11
          6.504820238152943e-11 4.653238881873469e-11 1.7705470719198457e-10 1.2149125894761584e-10 4.9432615258718884e-11 7.043792799421134e-11
          3.1452940021114544e-11 4.4539685602028804e-11 3.2377303852538774e-11 4.2435741432435524e-11 2.71358019698175e-11 1.2504018766473697e-10
          7.916388897345306e-11 7.101643984946161e-11 1.9601571362587252e-11 2.740833528502363e-11 1.5435637600665977e-11 2.086497712813174e-11
          1.332829235528176e-11 1.7560592291609976e-11 1.4390231380279484e-11 4.8881503815072135e-11 3.379710745574742e-11 2.8811495507877227e-11
          5.251345289514715e-10 3.3832079581483644e-10 8.485449085789485e-10 2.0893448316631622e-10 1.327659625889262e-10 1.168508276247804e-10
          7.377703938546364e-11 3.288845874257746e-10 2.0931451772496613e-10 1.4572296295418314e-10 4.845210756050176e-10 3.091613022527697e-10
          1.7760416373052305e-10 1.341750751971674e-10 6.654159602829528e-10 4.2525311078292e-10 2.4169859873929627e-10 1.0937958959314441e-10
          8.519322485924574e-10 5.443289431721307e-10 3.0571322233626674e-10 1.912390701243285e-10 1.0177403715876096e-9 6.503614207471017e-10
          3.6128123975637185e-10 1.167574493766177e-10 8.500335952982385e-11 1.3915656546691015e-10 1.1333363124220887e-9 7.246220962903536e-10
          3.993682731821965e-10 2.508877076203265e-10 1.1747292663793159e-9 7.511971633344218e-10 4.129086743568466e-10 1.5378661738262953e-10
          1.1194102353200674e-10 1.5896667586464284e-10 5.639102459905216e-11 6.610975747052446e-11 4.436228675226352e-11 5.07790391607526e-11
          4.040008052340341e-11 4.294998391705236e-11 3.604711842784246e-11 8.702297517250837e-11 5.95031053370131e-11 4.9980062381467415e-11
          1.0866053000056187e-10 6.748329583616404e-11 5.809066843386709e-11 3.8839485847531774e-11 1.2687905128525358e-10 7.893840854373787e-11
          6.525713876274471e-11 3.726952599559678e-11 4.105883599943237e-11 2.866383631223302e-11 3.0862723197941935e-11 2.6846354055922274e-11
          2.664592471934254e-11 2.189854815620251e-11 4.763017506431868e-11 3.522773146908038e-11 2.8006317027852828e-11 1.3910311033334124e-10
          8.641196807520261e-11 7.109880344816567e-11 4.5402262194056203e-11 1.4355171809427906e-10 8.925694851435875e-11 7.340442878634257e-11
          5.213317019686791e-11 3.864364454155814e-11 3.065665637733556e-11 2.5732716186374418e-11 5.385413626836641e-11 3.9893436228606365e-11
          3.1746174081728264e-11 6.663015137789085e-8 1.8502362686220786e-8 3.4694354897023237e-9 1.1789548950995572e-8 1.3395555108192217e-8
          3.5559729274070354e-9 1.2208053487597446e-8 5.542236631675026e-10 4.447817979496845e-10 4.278077670842673e-10 1.0315250813817991e-7
          6.439365920944387e-8 1.353971850002538e-7 8.589093782330857e-8 1.4308162606235172e-8 1.813019906065183e-8 3.3783433573381465e-8
          1.6764186186232773e-7 1.0738821643717326e-7 4.250971776814331e-8 4.386786596389374e-8 2.0918843213655013e-9 2.0339257235899086e-9
          3.552529735479752e-9 6.518814079874482e-8 1.4164701798610346e-9 2.316084464496295e-9 2.8480484692133704e-10 3.059564874627696e-10
          7.325894569732983e-9 5.404384418324165e-9 3.3890437213209505e-9 1.940589394333927e-8 1.5076051638366005e-8 2.031597046980645e-9
          5.859462124688305e-9 4.947426677173764e-8 3.3803506156089204e-8 1.486830709277929e-8 3.6229392632132446e-10 5.290304184822482e-10
          1.3160724861556676e-10 2.5494701508576516e-10 9.469610364906075e-8 7.362169572294164e-8 3.230393936441037e-8 3.388075787519489e-8
          1.64744894803191e-7 1.3254976953954798e-7 6.850395777615893e-8 6.244338960839332e-8 2.2528765354517734e-7 1.8687728516272126e-7
          6.802562209967243e-8 8.972707628583594e-8 2.4903297746984573e-7 2.0896607831033052e-7 9.535977659700003e-8 1.0116373639069824e-7
          5.548063123233601e-11 7.01986910755441e-11 2.6846896948932165e-11 6.209594038111952e-10 5.020023143767152e-10 3.82223754964064e-10
          4.864629650615234e-10 1.2475849099540874e-9 1.007105008278187e-9 3.1187853128279116e-10 2.2131610774053492e-10 6.332709130854941e-10
          1.9896277019878012e-10 1.356156448274282e-10 4.162768227277279e-10 1.294970455122616e-10 8.672458329028794e-11 2.7614975980122316e-10
          2.2213475190717475e-9 1.8395917768767798e-9 1.2220877917591482e-9 3.798104297231347e-9 3.2036675809248937e-9 2.2163947091657715e-9
          8.280508639395388e-10 5.59350684188115e-10 1.5438941653375225e-9 1.0613870620654778e-9 5.998686780764347e-9 5.18929715899858e-9
          3.768141692599215e-9 9.267757357667544e-9 8.085143376210304e-9 6.000185408622869e-9 2.69450708926056e-9 1.8839398476815657e-9
          4.384028301553247e-9 3.111992488407828e-9 1.37164794130231e-8 1.1946516783301838e-8 6.072833500248064e-9 7.3647361506947155e-9
          8.918768070725986e-9 4.042294483493968e-9 6.629931979358648e-9 2.7937695748423988e-9 4.766915202902427e-9 1.9147484671321506e-9
          8.267404972206217e-9 5.572501828146457e-9 3.882508691877533e-9 2.676733323180316e-9 1.2721074949186691e-8 1.0563488366611017e-8
          7.155531392642314e-9 1.256231948277187e-8 8.551087607091594e-9 5.020054051350531e-9 3.4782644374827528e-9 6.031412930347426e-9
          4.19630463031289e-9 1.678350689281466e-8 1.3964429728725018e-8 9.520258615127719e-9 1.4520294348158791e-8 9.87158275939417e-9
          6.732975319152497e-9 4.6966595874169e-9 6.9843457406087985e-9 4.876271997207994e-9 8.388957417718437e-11 5.5215528167731524e-11
          1.8116848871712629e-10 5.3516415225552784e-11 3.509765400001749e-11 1.1642796314180282e-10 3.306762765061998e-11 2.1558422300227886e-11
          7.282163029328261e-11 1.990681479048548e-11 1.304384749909994e-11 4.409824642761101e-11 3.713527836831485e-10 2.401926100140469e-10
          7.1242101512616e-10 4.6375205638575694e-10 1.5074748088313056e-10 2.919262717349047e-10 1.2776363384823562e-9 8.36430817756904e-10
          4.175522275650223e-9 2.914038801146084e-9 7.013540233697438e-9 4.9665533069849304e-9 2.1312686798411533e-9 1.9440968768754035e-9
          3.3480926623903117e-9 1.4030916108637063e-9 3.293325987311777e-9 1.2801274306871304e-9 2.1808839833527065e-9 8.295367990744022e-10
          1.7971857214457258e-9 1.1674742614635545e-9 2.3427105497761768e-9 1.5253146350697235e-9 2.8328425499738937e-9 1.8471675451574349e-9
          3.175974535154315e-9 2.0722707389401073e-9 3.2996222481521887e-9 2.153299341113699e-9
        </DataArray>
        <DataArray type="Float64" Name="gradient_matprop_error" format="ascii" RangeMin="0" RangeMax="0">
          0 0 0 0 0 0
          0 0 0 0 0 0
          0 0 0 0 0 0
          0 0 0 0 0 0
          0 0 0 0 0 0
          0 0 0 0 0 0
          0 0 0 0 0 0
          0 0 0 0 0 0
          0 0 0 0 0 0
          0 0 0 0 0 0
          0 0 0 0 0 0
          0 0 0 0 0 0
          0 0 0 0 0 0
          0 0 0 0 0 0
          0 0 0 0 0 0
          0 0 0 0 0 0
          0 0 0 0 0 0
          0 0 0 0 0 0
          0 0 0 0 0 0
          0 0 0 0 0 0
          0 0 0 0 0 0
          0 0 0 0 0 0
          0 0 0 0 0 0
          0 0 0 0 0 0
          0 0 0 0 0 0
          0 0 0 0 0 0
          0 0 0 0 0 0
          0 0 0 0 0 0
          0 0 0 0 0 0
          0 0 0 0 0 0
          0 0 0 0 0 0
          0 0 0 0 0 0
          0 0 0 0 0 0
          0 0 0 0 0 0
          0 0 0 0 0 0
          0 0 0 0 0 0
          0 0 0 0 0 0
          0 0 0 0 0 0
          0 0 0 0 0 0
          0 0 0 0 0 0
          0 0 0 0 0 0
          0 0 0 0 0 0
          0 0 0 0 0 0
          0 0 0 0 0 0
          0 0 0 0 0 0
          0 0 0 0 0 0
          0 0 0 0 0 0
          0 0 0 0 0 0
          0 0 0 0 0 0
          0 0 0 0 0 0
          0 0 0 0 0 0
          0 0 0 0 0 0
          0 0 0 0 0 0
          0 0 0 0 0 0
          0 0 0 0 0 0
          0 0 0 0 0 0
          0 0 0 0 0 0
          0 0 0 0 0 0
          0 0 0 0 0 0
          0 0 0 0 0 0
          0 0 0 0 0 0
          0 0 0 0 0 0
          0 0 0 0 0 0
          0 0 0 0 0 0
          0 0 0 0 0 0
          0 0 0 0 0 0
          0 0 0 0 0 0
          0 0 0 0 0 0
          0 0 0 0 0 0
          0 0 0 0 0 0
          0 0 0 0 0 0
          0 0 0 0 0 0
          0 0 0 0 0 0
          0 0 0 0 0 0
          0 0 0 0 0 0
          0 0 0 0 0 0
          0 0 0 0 0 0
          0 0 0 0 0 0
          0 0 0 0 0 0
          0 0 0 0 0 0
          0 0 0 0 0 0
          0 0 0 0 0 0
          0 0 0 0 0 0
          0 0 0 0 0 0
          0 0 0 0 0 0
          0 0 0 0 0 0
          0 0 0 0 0 0
          0 0 0 0 0 0
          0 0 0 0 0 0
          0 0 0 0 0 0
          0 0 0 0 0 0
          0 0 0 0 0 0
          0 0 0 0 0 0
          0 0 0 0 0 0
          0 0 0 0 0 0
          0 0 0 0 0 0
          0 0 0 0 0 0
          0 0 0 0 0 0
          0 0 0 0 0 0
          0 0 0 0
        </DataArray>
        <DataArray type="Float64" Name="initial_marker" format="ascii" RangeMin="0" RangeMax="2">
          0 0.5 2 0 0 0
          0 0 0.75 2 2 2
          0 0 0 0 0 0
          0 0 0 0 0 0
          0 0 0 0 1 1
          0 0 0 0 0 0
          0 0 1 1 0.3333333333333333 1.3333333333333333
          1.5 1.5 0 0 2 2
          0.5 1.5 1.25 2 2 2
          1 1 2 2 2 2
          2 2 2 0 0.5 0
          1 1 0 1 0 0.5
          0 0.25 0 0 0 1
          0.5 0 0 0 0 0
          0 0 0 0 0 0
          1 0.5 0 0 1 0.5
          0 0 0 0 0 0
          0 0 1.25 0.75 0 0
          2 1.75 0.25 2 1 0.75
          1.25 2 1 2 0 0
          0 0 0 0 0 0
          0 0 0 0 0 0
          0 0 0 0 0 0
          0 0 0 0 0 0
          0 0 0 0 0 0
          0 0 2 1 1 0
          1.5 2 2 2 2 2
          2 2 2 1 1 1
          1 0 0 0 1.5 1.5
          1 1 1 1 1 0
          0 0 1.5 1.5 1 2
          2 2 2 2 1.5 2
          2 2 2 2 2 2
          2 2 2 2 2 2
          1.3333333333333333 2 2 2 2 2
          2 1.3333333333333333 2 2 1.5 1.5
          2 2 2 2 2 1.5
          1.5 2 2 2 2 2
          2 2 2 2 2 2
          2 2 2 2 2 2
          2 2 2 2 2 2
          2 2 2 2 2 2
          2 2 2 2 2 2
          2 2 0 0.5 0 1
          0 0.5 0 0.5 0 0
          0 1 1 0 0 0.5
          0 0.5 0 0 0 1
          1 0 1 0 1 1
          0 1 1 1 0 0
          1 1 0 1 1 0
          0 1 1 0 1 1
          0 0 1 1 0 1
          1 0 0 1 1 0
          2 1.3333333333333333 2 1.75 2 2
          1.5 1.6666666666666667 2 2 1 1
          0.5 0.75 0 0 0 1.5
          1.25 1 0 0.5 0 0.5
          0 0 0 1 1 0
          2 2 2 2 1.75 2
          1.5 2 2 1.3333333333333333 2 2
          1.25 1.3333333333333333 2 2 1.75 1.3333333333333333
          2 2 2 1.75 2 2
          2 1.25 1.3333333333333333 1.5 2 2
          2 2 2 2 2 1.5
          1.3333333333333333 1.5 0 0.25 0 0
          0 0 0 0.75 0.3333333333333333 0
          1 0.75 0 0 1 1
          0 0 0.25 0 0 0
          0 0 0.5 0 0 1
          1 0 0 1 1 0
          0.5 0 0 0 0.5 0
          0 0 0 0 0 0
          0 0 0 0 0 1
          1 1 1 0 0.3333333333333333 0.5
          1 1 0.5 0.6666666666666666 0 0
          0 1.25 0 0 0 0
          1 1 0 1.5 1.5 0.75
          1.5 2 2 2 0.5 0
          0.5 0 2 2 1.6666666666666667 2
          2 2 2 2 2 2
          2 2 2 2 2 2
          0 0 0 2 2 2
          2 2 2 2 2 2
          2 2 2 2 2 2
          2 2 2 2 2 2
          2 2 2 2 2 2
          2 2 2 2 2 2
          2 2 2 2 2 2
          2 2 2 2 2 2
          2 2 2 2 2 2
          2 2 2 2 2 2
          2 2 2 2 2 2
          2 2 2 2 1.75 1.5
          2 1.5 1 2 1.5 1
          2 1 0.5 1.75 2 2
          2 2 2 2 2 2
          2 2 2 2 2 2
          2 2 2 2 2 2
          2 2 2 2 2 2
          2 2 2 2
        </DataArray>
        <DataArray type="Float64" Name="markers_norefine" format="ascii" RangeMin="0" RangeMax="0">
          0 0 0 0 0 0
          0 0 0 0 0 0
          0 0 0 0 0 0
          0 0 0 0 0 0
          0 0 0 0 0 0
          0 0 0 0 0 0
          0 0 0 0 0 0
          0 0 0 0 0 0
          0 0 0 0 0 0
          0 0 0 0 0 0
          0 0 0 0 0 0
          0 0 0 0 0 0
          0 0 0 0 0 0
          0 0 0 0 0 0
          0 0 0 0 0 0
          0 0 0 0 0 0
          0 0 0 0 0 0
          0 0 0 0 0 0
          0 0 0 0 0 0
          0 0 0 0 0 0
          0 0 0 0 0 0
          0 0 0 0 0 0
          0 0 0 0 0 0
          0 0 0 0 0 0
          0 0 0 0 0 0
          0 0 0 0 0 0
          0 0 0 0 0 0
          0 0 0 0 0 0
          0 0 0 0 0 0
          0 0 0 0 0 0
          0 0 0 0 0 0
          0 0 0 0 0 0
          0 0 0 0 0 0
          0 0 0 0 0 0
          0 0 0 0 0 0
          0 0 0 0 0 0
          0 0 0 0 0 0
          0 0 0 0 0 0
          0 0 0 0 0 0
          0 0 0 0 0 0
          0 0 0 0 0 0
          0 0 0 0 0 0
          0 0 0 0 0 0
          0 0 0 0 0 0
          0 0 0 0 0 0
          0 0 0 0 0 0
          0 0 0 0 0 0
          0 0 0 0 0 0
          0 0 0 0 0 0
          0 0 0 0 0 0
          0 0 0 0 0 0
          0 0 0 0 0 0
          0 0 0 0 0 0
          0 0 0 0 0 0
          0 0 0 0 0 0
          0 0 0 0 0 0
          0 0 0 0 0 0
          0 0 0 0 0 0
          0 0 0 0 0 0
          0 0 0 0 0 0
          0 0 0 0 0 0
          0 0 0 0 0 0
          0 0 0 0 0 0
          0 0 0 0 0 0
          0 0 0 0 0 0
          0 0 0 0 0 0
          0 0 0 0 0 0
          0 0 0 0 0 0
          0 0 0 0 0 0
          0 0 0 0 0 0
          0 0 0 0 0 0
          0 0 0 0 0 0
          0 0 0 0 0 0
          0 0 0 0 0 0
          0 0 0 0 0 0
          0 0 0 0 0 0
          0 0 0 0 0 0
          0 0 0 0 0 0
          0 0 0 0 0 0
          0 0 0 0 0 0
          0 0 0 0 0 0
          0 0 0 0 0 0
          0 0 0 0 0 0
          0 0 0 0 0 0
          0 0 0 0 0 0
          0 0 0 0 0 0
          0 0 0 0 0 0
          0 0 0 0 0 0
          0 0 0 0 0 0
          0 0 0 0 0 0
          0 0 0 0 0 0
          0 0 0 0 0 0
          0 0 0 0 0 0
          0 0 0 0 0 0
          0 0 0 0 0 0
          0 0 0 0 0 0
          0 0 0 0 0 0
          0 0 0 0 0 0
          0 0 0 0 0 0
          0 0 0 0
        </DataArray>
        <DataArray type="Float64" Name="markers_mustrefine" format="ascii" RangeMin="0" RangeMax="2">
          0 0.5 2 0 0 0
          0 0 0.75 2 2 2
          0 0 0 0 0 0
          0 0 0 0 0 0
          0 0 0 0 1 1
          0 0 0 0 0 0
          0 0 1 1 0.3333333333333333 1.3333333333333333
          1.5 1.5 0 0 2 2
          0.5 1.5 1.25 2 2 2
          1 1 2 2 2 2
          2 2 2 0 0.5 0
          1 1 0 1 0 0.5
          0 0.25 0 0 0 1
          0.5 0 0 0 0 0
          0 0 0 0 0 0
          1 0.5 0 0 1 0.5
          0 0 0 0 0 0
          0 0 1.25 0.75 0 0
          2 1.75 0.25 2 1 0.75
          1.25 2 1 2 0 0
          0 0 0 0 0 0
          0 0 0 0 0 0
          0 0 0 0 0 0
          0 0 0 0 0 0
          0 0 0 0 0 0
          0 0 2 1 1 0
          1.5 2 2 2 2 2
          2 2 2 1 1 1
          1 0 0 0 1.5 1.5
          1 1 1 1 1 0
          0 0 1.5 1.5 1 2
          2 2 2 2 1.5 2
          2 2 2 2 2 2
          2 2 2 2 2 2
          1.3333333333333333 2 2 2 2 2
          2 1.3333333333333333 2 2 1.5 1.5
          2 2 2 2 2 1.5
          1.5 2 2 2 2 2
          2 2 2 2 2 2
          2 2 2 2 2 2
          2 2 2 2 2 2
          2 2 2 2 2 2
          2 2 2 2 2 2
          2 2 0 0.5 0 1
          0 0.5 0 0.5 0 0
          0 1 1 0 0 0.5
          0 0.5 0 0 0 1
          1 0 1 0 1 1
          0 1 1 1 0 0
          1 1 0 1 1 0
          0 1 1 0 1 1
          0 0 1 1 0 1
          1 0 0 1 1 0
          2 1.3333333333333333 2 1.75 2 2
          1.5 1.6666666666666667 2 2 1 1
          0.5 0.75 0 0 0 1.5
          1.25 1 0 0.5 0 0.5
          0 0 0 1 1 0
          2 2 2 2 1.75 2
          1.5 2 2 1.3333333333333333 2 2