<?xml version="1.0"?>
<VTKFile type="UnstructuredGrid" version="0.1" byte_order="LittleEndian" header_type="UInt32" compressor="vtkZLibDataCompressor">
  <UnstructuredGrid>
    <Piece NumberOfPoints="360" NumberOfCells="172">
      <PointData>
        <DataArray type="Int32" Name="libmesh_node_id" format="ascii" RangeMin="140" RangeMax="3193">
          173 174 175 176 191 192
          207 208 209 210 224 225
          241 242 243 244 258 259
          266 267 270 276 280 297
          298 299 300 301 302 303
          304 305 306 307 308 309
          310 325 326 327 328 329
          330 331 335 336 337 341
          343 387 389 394 397 434
          435 436 437 438 439 440
          441 442 443 444 445 446
          447 448 449 450 451 452
          453 454 455 458 459 460
          462 463 464 466 467 619
          620 621 622 623 624 625
          629 630 631 643 644 645
          646 647 648 649 650 651
          652 697 698 699 700 701
          702 703 707 708 709 711
          712 714 715 716 717 719
          720 795 796 797 798 800
          801 802 803 807 808 1285
          1286 1287 1288 1289 1290 1291
          1292 1293 1294 2832 2833 2834
          2835 2836 2837 2838 2839 2840
          2841 2893 2903 2904 2905 2906
          2907 2908 2909 2910 2911 2956
          2957 2958 2959 2960 2961 2962
          2963 2964 2965 2966 2967 2968
          2969 2970 2971 2972 2973 2974
          2975 2976 2977 2978 2979 2980
          2981 2982 2983 2984 2985 2986
          2987 2988 2989 2990 2991 2992
          2993 2994 2995 2996 2997 2998
          2999 3000 3001 3002 3003 3004
          3005 3006 3007 3008 3009 3010
          3011 3012 3013 3021 3022 3023
          3027 3028 3029 3030 3031 3032
          3033 3034 3035 3036 3037 3038
          3039 3143 3144 3145 3148 3149
          3150 3151 3152 3153 3154 3155
          3156 3157 3158 3159 3160 3161
          3162 3163 3164 3165 3166 3167
          3168 3169 3170 3171 3172 3173
          3174 3175 3176 3177 3180 3181
          3184 3186 3188 3189 3190 3191
          3192 3193 140 142 143 141
          144 145 177 178 159 158
          160 193 211 226 265 274
          269 275 332 334 338 386
          388 392 393 282 396 399
          456 457 461 339 465 340
          468 469 470 474 475 598
          599 600 601 264 606 607
          626 627 628 632 268 411
          413 418 279 421 704 705
          706 710 333 471 713 510
          476 512 517 480 718 520
          804 805 806 809 810 811
          799 472 812 813 473 597
        </DataArray>
        <DataArray type="Float64" Name="bounds" format="ascii" RangeMin="0" RangeMax="0">
          0 0 0 0 0 0
          0 0 0 0 0 0
          0 0 0 0 0 0
          0 0 0 0 0 0
          0 0 0 0 0 0
          0 0 0 0 0 0
          0 0 0 0 0 0
          0 0 0 0 0 0
          0 0 0 0 0 0
          0 0 0 0 0 0
          0 0 0 0 0 0
          0 0 0 0 0 0
          0 0 0 0 0 0
          0 0 0 0 0 0
          0 0 0 0 0 0
          0 0 0 0 0 0
          0 0 0 0 0 0
          0 0 0 0 0 0
          0 0 0 0 0 0
          0 0 0 0 0 0
          0 0 0 0 0 0
          0 0 0 0 0 0
          0 0 0 0 0 0
          0 0 0 0 0 0
          0 0 0 0 0 0
          0 0 0 0 0 0
          0 0 0 0 0 0
          0 0 0 0 0 0
          0 0 0 0 0 0
          0 0 0 0 0 0
          0 0 0 0 0 0
          0 0 0 0 0 0
          0 0 0 0 0 0
          0 0 0 0 0 0
          0 0 0 0 0 0
          0 0 0 0 0 0
          0 0 0 0 0 0
          0 0 0 0 0 0
          0 0 0 0 0 0
          0 0 0 0 0 0
          0 0 0 0 0 0
          0 0 0 0 0 0
          0 0 0 0 0 0
          0 0 0 0 0 0
          0 0 0 0 0 0
          0 0 0 0 0 0
          0 0 0 0 0 0
          0 0 0 0 0 0
          0 0 0 0 0 0
          0 0 0 0 0 0
          0 0 0 0 0 0
          0 0 0 0 0 0
          0 0 0 0 0 0
          0 0 0 0 0 0
          0 0 0 0 0 0
          0 0 0 0 0 0
          0 0 0 0 0 0
          0 0 0 0 0 0
          0 0 0 0 0 0
          0 0 0 0 0 0
        </DataArray>
        <DataArray type="Float64" Name="gradient_error" format="ascii" RangeMin="6.45629547560793e-10" RangeMax="0.0000010309823631972397">
          2.035533226636495e-8 2.7315410139592494e-8 8.205294534431281e-9 1.061956851903089e-8 3.635303568272071e-8 1.6151814607931145e-8
          2.1233369553057461e-7 7.03708972123488e-8 1.4121314858585295e-7 2.2970286460840978e-7 3.540159829508273e-8 1.5088874466756324e-8
          4.849390776388675e-7 1.5967328939247641e-7 6.76136365457605e-7 5.1658388673648e-8 5.29064311346803e-9 1.8621580454616313e-9
          1.6875152859462699e-7 7.069234226354828e-7 3.6279552508466996e-7 7.525736913732608e-8 5.221840005878046e-7 2.4953543395335824e-7
          2.1217459028582412e-7 1.5395802820055872e-7 4.1791632876465004e-7 6.363715137262698e-7 4.103860029398713e-7 3.555818838300405e-7
          1.2979087221818453e-7 1.3396759091817526e-7 1.9721933407225464e-7 7.700904665335617e-7 6.600258515189968e-7 5.233528192852594e-7
          1.0335424081695533e-7 3.249190072743423e-7 3.1971582446226775e-7 5.755661026449419e-7 8.461166673066701e-7 4.5474393304212383e-7
          4.123128266651795e-7 7.445440841286112e-7 2.62765304675392e-7 2.988227554426273e-7 4.686981690758759e-7 6.768695645468481e-7
          2.4299325021121615e-7 5.2824799042542425e-9 1.3639377395578041e-8 2.104810052449871e-9 2.199627488690184e-8 9.267873362301647e-7
          7.861548138948837e-7 5.264612415207647e-7 7.960863835162815e-7 9.725494048283752e-7 9.085685885460619e-7 7.691325460738122e-7
          4.421863888139852e-7 5.899751267600941e-7 5.481088699792267e-7 0.0000010183114734265858 0.0000010309823631972397 8.221808354172313e-7
          7.37763864706203e-7 2.440605655134329e-7 2.3288832507233635e-7 1.9980104500479178e-7 1.9712930605671986e-7 2.130389310486742e-7
          2.194254030045854e-7 1.9663704448009014e-7 2.4752491339339976e-7 1.9684956641239896e-7 2.0995670317276273e-7 1.8742187162384588e-7
          1.820172965839155e-7 2.059624809368344e-7 1.9347304395538855e-7 2.230638399331265e-7 1.9197883570003108e-7 3.571524333993921e-8
          3.0643147799515096e-8 4.5916103159273245e-8 7.285864747850423e-8 5.60599382524702e-8 4.656939510562182e-8 6.05351746319428e-8
          2.5571052259090982e-8 3.707885195877345e-8 4.821170178538138e-8 8.876821161414419e-8 1.2232000446358226e-7 1.359478144707508e-7
          1.7498260659948516e-7 2.878414320366811e-8 3.2385604997550155e-8 5.296057665817386e-8 1.8312741732735746e-7 2.2764520873538806e-7
          3.59870667914322e-8 9.511398587872183e-8 8.97206458385449e-8 1.0600391463173232e-7 1.4720842527636314e-7 1.4435727819010318e-7
          1.2984397948640315e-7 1.32150670045402e-7 8.4327305798368e-8 1.1533068078270306e-7 1.1709291481444085e-7 1.6520618891608876e-7
          1.6008847216335413e-7 1.8186634326332634e-7 1.1887805142293452e-7 1.360303739405923e-7 1.40516362049328e-7 2.036442143632985e-7
          1.531826964582501e-7 4.603746710320031e-8 4.933510168294907e-8 4.783149093131887e-8 4.6327880179688674e-8 4.908909169302676e-8
          4.789013330211855e-8 5.240820543660749e-8 5.094303612118109e-8 4.669117491121033e-8 4.947786680575468e-8 1.4948585780107273e-7
          1.427762451542411e-7 1.6874966977888207e-7 1.6195750227185225e-7 1.2698866740858726e-7 1.4339780817273523e-7 1.4521604419947316e-7
          1.8801348175669146e-7 1.8113875938946336e-7 1.598069489368832e-7 1.1640455031336328e-8 7.314041742858476e-9 6.432939827953761e-9
          2.8673797444926582e-8 4.449013102588604e-8 2.961079810221506e-8 2.136307766408611e-8 2.9876284543806243e-9 1.473146517854408e-8
          1.4052357883245641e-8 2.0742852638365494e-7 6.854420381407436e-8 1.7949110923447262e-7 3.568101770160926e-7 3.6174341814642036e-7
          2.2285769829166114e-7 2.562232373005816e-7 3.301021917560286e-7 4.1799065405746996e-7 2.101703317670108e-7 1.283105645861804e-8
          2.602303572549751e-8 3.0093724643083834e-8 5.4617550248725774e-8 2.891971827440693e-9 3.302659737642282e-9 4.418936844093551e-9
          4.735639282754963e-8 8.321206477195404e-8 3.7133476478438713e-9 1.0322167801605466e-7 8.998495320418833e-8 8.562865310169633e-8
          1.5976795834092352e-7 1.4732004809157494e-7 1.2828064028658979e-7 1.4124051170869813e-7 9.400856237383209e-8 1.3991321076926795e-7
          1.206118867376701e-7 7.674822839232198e-8 1.0924123248160468e-7 1.2271306507647275e-7 1.0131056270607225e-7 4.5052355346667805e-7
          4.0136935174013747e-7 3.7923973487672e-7 3.260330140108366e-7 5.470904649767097e-7 6.567059187614781e-7 6.532315088692315e-7
          5.585832385189379e-7 5.030100756612618e-7 4.592464378521313e-7 6.037831487566955e-7 6.70300641627179e-7 5.555393776001359e-7
          5.878377485917122e-7 1.865544330952205e-7 1.9528964409693824e-7 2.3786872961431924e-7 2.423395853893759e-7 1.7213558741536414e-7
          2.2644017929861905e-7 9.944012418512507e-8 1.1947440688309966e-7 1.3626230713565567e-7 9.884132727012738e-8 2.8918302613341803e-7
          2.8938952668181367e-7 2.80744771181874e-7 1.3950868958107426e-7 1.509550671546406e-7 2.0562317685464607e-7 6.305964824091352e-8
          7.588387245285209e-8 2.6029128655465154e-7 8.870809666479067e-8 1.0199422175501256e-8 3.665254453141215e-8 2.6074209392638718e-8
          1.5495874253865282e-8 1.143393634938614e-8 8.064777542809538e-9 2.7439642136661567e-8 1.9677622237746797e-8 4.695618736232935e-9
          1.1915602338832031e-8 4.3995952985384454e-8 8.351998369340253e-8 5.4260647994390856e-9 5.481538757171774e-9 1.2304401440142064e-7
          5.537012714904463e-9 9.10774475072558e-8 1.721076287362178e-7 1.549393249643379e-7 1.3777102119245803e-7 3.2887542471045443e-7
          3.0896287001531474e-7 3.320287952493072e-7 2.780756196528095e-7 9.111510217256386e-8 8.702889226219909e-8 1.6781820503119369e-7
          1.4986897817754375e-7 8.294268235183429e-8 1.3191975132389378e-7 3.865986687023744e-7 3.557617387984966e-7 3.075727363885589e-7
          3.4388619985936227e-7 3.708542873400648e-7 3.96575174009995e-7 4.2135120942417995e-7 3.49319571520464e-7 3.8226327646594574e-7
          2.7897029271325803e-7 3.4242083149271564e-7 3.9744603077116537e-7 3.7568933919720826e-7 4.6269046230417494e-7 4.8282530048531e-7
          4.189097457114008e-7 3.967048950934246e-7 4.6683618746651526e-7 4.669087969879399e-7 2.0025580101962632e-7 2.3787317195349383e-7
          1.5734703581346107e-7 2.754905428873613e-7 1.995158161346815e-7 2.4184048396731497e-7 1.261630408929237e-7 1.4882161517827337e-7
          2.841651517999484e-7 1.71480189463623e-7 1.729290384862557e-8 4.447621899040534e-9 4.029377136891583e-9 1.2172457690166836e-8
          2.6097739571607013e-9 2.254357244775081e-9 7.027609409974128e-9 5.338622399717126e-9 3.6111323747426323e-9 7.052011531708097e-9
          1.8989405323894607e-9 7.604257729442128e-9 6.155134910961587e-8 7.460280525815301e-9 3.360255617609318e-8 3.4400235378449856e-8
          1.2398540756618337e-7 3.176353778214877e-8 1.1055609507263112e-7 2.205273739328723e-7 1.8344469158789503e-7 2.4450792873056928e-9
          5.539772719472163e-9 1.2493140372854578e-9 9.474717924231255e-10 1.7599621006497603e-8 8.634466151638633e-9 6.45629547560793e-10
          2.5698503152247613e-7 2.703682159025069e-7 2.5348386237993117e-7 2.0860173828784928e-7 2.485977744444501e-7 2.700817533842492e-7
          2.1403439094245357e-7 1.6658676672379096e-7 2.1101662310495527e-7 2.2838777595924443e-7 2.5244063035456705e-7 3.7849644023207926e-8
          1.4107854739260007e-8 9.744408402559187e-9 2.4414032475354734e-8 1.693686161699285e-8 5.380962065858368e-9 1.097842092750154e-8
          1.0559792998897458e-8 3.316451878885837e-8 2.5673429121198433e-8 1.8182339453538494e-8 5.97414429461538e-8 5.576101274362176e-8
          9.111940906576186e-8 1.75838538683261e-8 1.8902044196533141e-7 1.2647780538790198e-7 6.3809698639442e-8 1.3623208472531152e-7
          1.224934096271086e-7 9.436418355771182e-8 1.3094988215082866e-7 1.5292198562038612e-7 1.9281570148036316e-7 1.3178558367396552e-7
          1.9972926068432945e-7 1.9802309533845e-7 1.2511123160397018e-7 2.367104958079805e-7 2.2042521404463752e-7 2.3198506253733069e-7
          5.1473362493573235e-8 5.908197025132969e-8 5.744791097520587e-8 5.474854956809263e-8 5.333800757964726e-8 5.305274463567817e-8
          4.7450226213648805e-8 6.471041273421228e-8 6.463374784127554e-8 5.3387804516506065e-8 9.980059142414789e-8 6.4434838722825845e-9
        </DataArray>
        <DataArray type="Float64" Name="gradient_matprop_error" format="ascii" RangeMin="0" RangeMax="0">
          0 0 0 0 0 0
          0 0 0 0 0 0
          0 0 0 0 0 0
          0 0 0 0 0 0
          0 0 0 0 0 0
          0 0 0 0 0 0
          0 0 0 0 0 0
          0 0 0 0 0 0
          0 0 0 0 0 0
          0 0 0 0 0 0
          0 0 0 0 0 0
          0 0 0 0 0 0
          0 0 0 0 0 0
          0 0 0 0 0 0
          0 0 0 0 0 0
          0 0 0 0 0 0
          0 0 0 0 0 0
          0 0 0 0 0 0
          0 0 0 0 0 0
          0 0 0 0 0 0
          0 0 0 0 0 0
          0 0 0 0 0 0
          0 0 0 0 0 0
          0 0 0 0 0 0
          0 0 0 0 0 0
          0 0 0 0 0 0
          0 0 0 0 0 0
          0 0 0 0 0 0
          0 0 0 0 0 0
          0 0 0 0 0 0
          0 0 0 0 0 0
          0 0 0 0 0 0
          0 0 0 0 0 0
          0 0 0 0 0 0
          0 0 0 0 0 0
          0 0 0 0 0 0
          0 0 0 0 0 0
          0 0 0 0 0 0
          0 0 0 0 0 0
          0 0 0 0 0 0
          0 0 0 0 0 0
          0 0 0 0 0 0
          0 0 0 0 0 0
          0 0 0 0 0 0
          0 0 0 0 0 0
          0 0 0 0 0 0
          0 0 0 0 0 0
          0 0 0 0 0 0
          0 0 0 0 0 0
          0 0 0 0 0 0
          0 0 0 0 0 0
          0 0 0 0 0 0
          0 0 0 0 0 0
          0 0 0 0 0 0
          0 0 0 0 0 0
          0 0 0 0 0 0
          0 0 0 0 0 0
          0 0 0 0 0 0
          0 0 0 0 0 0
          0 0 0 0 0 0
        </DataArray>
        <DataArray type="Float64" Name="initial_marker" format="ascii" RangeMin="0" RangeMax="2">
          0 0 0 0 0 0
          0 0 0 0 0 0
          0 0 0 0 0 0
          0 0 0 0 0 0
          0 0 0 0 0 0
          0 0 0 0 0 0
          0 0 0 0 0 0.5
          0 0 0 0 0 0
          0 0 0 0 0 0
          0 0 0 0 0 0
          0 0 0 0 0 0
          0 0 0 0 0 0.5
          0.25 0 0.3333333333333333 0 0 0
          1 0.5 0 0 0.5 0
          0 0 0 0 0 0
          0 0 0 0 0 0
          0 0 0 0 0 0
          0 0 0 0 0 0
          0 0 0 0 0 0
          0 0 0 0 0 0
          0 0 1 1 1 0
          0 1 1 0 1 0
          0 0 0 0 0 0
          0 0 0 0 0 0
          0 0 0 0 0 0
          0 0 0 0 0 0
          0 0 0 0 0 0
          0 0 0 0 0 0
          0 0 0 0 0 0
          0 0 0 0 0 0
          0 0 0 0 0 0
          0 0 0 0 0 0
          0 0 0 0 0 0
          0 0 0 0 0 0
          0 0 0 0 0 0
          0 0 0 0 0 0
          0 0 0 0 0 0
          0 0 0 0 0 0
          0 0 0 0 0 0
          0 0 0 0 0 0
          0 0 0 0 0 0
          0 0 0 0 0 0
          0 0 0 0 0 0
          0 0 0 0 0 0
          0 0 0 0 0 0
          0 0 0 0 0 0
          0 0 0 0 0 0
          0 0 0 0 0 0
          0 0 0 0 0 0
          0 0 0 0.25 0 0
          0 0 0 0 0 0
          1.5 1 0.25 2 1.5 0.5
          0.5 2 1.75 0.3333333333333333 0.5 0
          0 0 0 0 0 0
          0 0 0 0 0 0
          0 0 0 0 0 0
          0 0 0 0.25 0 0
          0.75 0 0 1 0 0
          0 1 1 1 2 2
          2 2 2 2 2 0
        </DataArray>
        <DataArray type="Float64" Name="markers_norefine" format="ascii" RangeMin="0" RangeMax="0">
          0 0 0 0 0 0
          0 0 0 0 0 0
          0 0 0 0 0 0
          0 0 0 0 0 0
          0 0 0 0 0 0
          0 0 0 0 0 0
          0 0 0 0 0 0
          0 0 0 0 0 0
          0 0 0 0 0 0
          0 0 0 0 0 0
          0 0 0 0 0 0
          0 0 0 0 0 0
          0 0 0 0 0 0
          0 0 0 0 0 0
          0 0 0 0 0 0
          0 0 0 0 0 0
          0 0 0 0 0 0
          0 0 0 0 0 0
          0 0 0 0 0 0
          0 0 0 0 0 0
          0 0 0 0 0 0
          0 0 0 0 0 0
          0 0 0 0 0 0
          0 0 0 0 0 0
          0 0 0 0 0 0
          0 0 0 0 0 0
          0 0 0 0 0 0
          0 0 0 0 0 0
          0 0 0 0 0 0
          0 0 0 0 0 0
          0 0 0 0 0 0
          0 0 0 0 0 0
          0 0 0 0 0 0
          0 0 0 0 0 0
          0 0 0 0 0 0
          0 0 0 0 0 0
          0 0 0 0 0 0
          0 0 0 0 0 0
          0 0 0 0 0 0
          0 0 0 0 0 0
          0 0 0 0 0 0
          0 0 0 0 0 0
          0 0 0 0 0 0
          0 0 0 0 0 0
          0 0 0 0 0 0
          0 0 0 0 0 0
          0 0 0 0 0 0
          0 0 0 0 0 0
          0 0 0 0 0 0
          0 0 0 0 0 0
          0 0 0 0 0 0
          0 0 0 0 0 0
          0 0 0 0 0 0
          0 0 0 0 0 0
          0 0 0 0 0 0
          0 0 0 0 0 0
          0 0 0 0 0 0
          0 0 0 0 0 0
          0 0 0 0 0 0
          0 0 0 0 0 0
        </DataArray>
        <DataArray type="Float64" Name="markers_mustrefine" format="ascii" RangeMin="0" RangeMax="2">
          0 0 0 0 0 0
          0 0 0 0 0 0
          0 0 0 0 0 0
          0 0 0 0 0 0
          0 0 0 0 0 0
          0 0 0 0 0 0
          0 0 0 0 0 0.5
          0 0 0 0 0 0
          0 0 0 0 0 0
          0 0 0 0 0 0
          0 0 0 0 0 0
          0 0 0 0 0 0.5
          0.25 0 0.3333333333333333 0 0 0
          1 0.5 0 0 0.5 0
          0 0 0 0 0 0
          0 0 0 0 0 0
          0 0 0 0 0 0
          0 0 0 0 0 0
          0 0 0 0 0 0
          0 0 0 0 0 0
          0 0 1 1 1 0
          0 1 1 0 1 0
          0 0 0 0 0 0
          0 0 0 0 0 0
          0 0 0 0 0 0
          0 0 0 0 0 0
          0 0 0 0 0 0
          0 0 0 0 0 0
          0 0 0 0 0 0
          0 0 0 0 0 0
          0 0 0 0 0 0
          0 0 0 0 0 0
          0 0 0 0 0 0
          0 0 0 0 0 0
          0 0 0 0 0 0
          0 0 0 0 0 0
          0 0 0 0 0 0
          0 0 0 0 0 0
          0 0 0 0 0 0
          0 0 0 0 0 0
          0 0 0 0 0 0
          0 0 0 0 0 0
          0 0 0 0 0 0
          0 0 0 0 0 0
          0 0 0 0 0 0
          0 0 0 0 0 0
          0 0 0 0 0 0
          0 0 0 0 0 0
          0 0 0 0 0 0
          0 0 0 0.25 0 0
          0 0 0 0 0 0
          1.5 1 0.25 2 1.5 0.5
          0.5 2 1.75 0.3333333333333333 0.5 0
          0 0 0 0 0 0
          0 0 0 0 0 0
          0 0 0 0 0 0
          0 0 0 0.25 0 0
          0.75 0 0 1 0 0
          0 1 1 1 2 2
          2 2 2 2 2 0
        </DataArray>
        <DataArray type="Float64" Name="gradient_marker" format="ascii" RangeMin="0" RangeMax="1">
          1 1 1 1 1 1
          1 1 1 1 1 1
          1 1 1 1 1 1
          1 1 1 1 1 1
          1 1 1 1 1 1
          1 1 1 1 1 1
          1 1 1 1 1 1
          1 1 1 1 1 1
          1 1 1 1 1 1
          1 1 1 1 1 1
          1 1 1 1 1 1
          1 1 1 1 1 1
          1 1 1 1 1 1
          1 1 1 1 0.75 1
          1 1 1 1 1 1
          1 1 1 1 1 1
          1 1 1 1 1 1
          1 1 1 1 1 1
          1 1 1 1 1 1
          1 1 1 1 1 1
          1 0 0 0 0 0
          0 0.25 0.25 0 0.25 1
          1 1 1 1 1 1
          1 1 1 1 1 1
          1 1 1 1 1 1
          1 1 1 1 1 1
          1 1 1 1 1 1
          1 1 1 1 1 1
          1 1 1 1 1 1
          1 1 1 1 1 1
          1 1 1 1 1 1
          1 1 1 1 1 1
          1 1 1 1 1 1
          1 1 1 1 1 1
          1 1 1 1 1 1
          1 1 1 1 1 1
          1 1 1 1 1 1
          1 1 1 1 1 1
          1 1 1 1 1 1
          1 1 1 1 1 1
          1 1 1 1 1 1
          1 1 1 1 1 1
          1 1 1 1 1 1
          1 1 1 1 1 1
          1 1 1 1 1 1
          1 1 1 1 1 1
          1 1 1 1 1 1
          1 1 1 1 1 1
          1 1 1 1 1 1
          0.875 1 0.875 0.875 0.875 1
          1 1 1 1 1 1
          1 1 1 1 1 1
          0.875 0.5 0.625 1 0.875 1
          1 1 1 1 1 1
          1 1 1 1 0.75 1
          1 1 1 1 0.75 0.75
          0.875 0.8333333333333334 0.5 0.625 1 0.8333333333333334
          0.75 1 1 0.75 1 1
          0 0.5 0.5 0.5 0.5 0.5
          0 1 1 0.5 1 1
        </DataArray>
        <DataArray type="Float64" Name="gradient_matprop_marker" format="ascii" RangeMin="0" RangeMax="0">
          0 0 0 0 0 0
          0 0 0 0 0 0
          0 0 0 0 0 0
          0 0 0 0 0 0
          0 0 0 0 0 0
          0 0 0 0 0 0
          0 0 0 0 0 0
          0 0 0 0 0 0
          0 0 0 0 0 0
          0 0 0 0 0 0
          0 0 0 0 0 0
          0 0 0 0 0 0
          0 0 0 0 0 0
          0 0 0 0 0 0
          0 0 0 0 0 0
          0 0 0 0 0 0
          0 0 0 0 0 0
          0 0 0 0 0 0
          0 0 0 0 0 0
          0 0 0 0 0 0
          0 0 0 0 0 0
          0 0 0 0 0 0
          0 0 0 0 0 0
          0 0 0 0 0 0
          0 0 0 0 0 0
          0 0 0 0 0 0
          0 0 0 0 0 0
          0 0 0 0 0 0
          0 0 0 0 0 0
          0 0 0 0 0 0
          0 0 0 0 0 0
          0 0 0 0 0 0
          0 0 0 0 0 0
          0 0 0 0 0 0
          0 0 0 0 0 0
          0 0 0 0 0 0
          0 0 0 0 0 0
          0 0 0 0 0 0
          0 0 0 0 0 0
          0 0 0 0 0 0
          0 0 0 0 0 0
          0 0 0 0 0 0
          0 0 0 0 0 0
          0 0 0 0 0 0
          0 0 0 0 0 0
          0 0 0 0 0 0
          0 0 0 0 0 0
          0 0 0 0 0 0
          0 0 0 0 0 0
          0 0 0 0 0 0
          0 0 0 0 0 0
          0 0 0 0 0 0
          0 0 0 0 0 0
          0 0 0 0 0 0
          0 0 0 0 0 0
          0 0 0 0 0 0
          0 0 0 0 0 0
          0 0 0 0 0 0
          0 0 0 0 0 0
          0 0 0 0 0 0
        </DataArray>
        <DataArray type="Float64" Name="combo" format="ascii" RangeMin="0" RangeMax="1">
          1 1 1 1 1 1
          1 1 1 1 1 1
          1 1 1 1 1 1
          1 1 1 1 1 1
          1 1 1 1 1 1
          1 1 1 1 1 1
          1 1 1 1 1 1
          1 1 1 1 1 1
          1 1 1 1 1 1
          1 1 1 1 1 1
          1 1 1 1 1 1
          1 1 1 1 1 1
          1 1 1 1 1 1
          1 1 1 1 0.75 1
          1 1 1 1 1 1
          1 1 1 1 1 1
          1 1 1 1 1 1
          1 1 1 1 1 1
          1 1 1 1 1 1
          1 1 1 1 1 1
          1 0 0 0 0 0
          0 0.25 0.25 0 0.25 1
          1 1 1 1 1 1
          1 1 1 1 1 1
          1 1 1 1 1 1
          1 1 1 1 1 1
          1 1 1 1 1 1
          1 1 1 1 1 1
          1 1 1 1 1 1
          1 1 1 1 1 1
          1 1 1 1 1 1
          1 1 1 1 1 1
          1 1 1 1 1 1
          1 1 1 1 1 1
          1 1 1 1 1 1
          1 1 1 1 1 1
          1 1 1 1 1 1
          1 1 1 1 1 1
          1 1 1 1 1 1
          1 1 1 1 1 1
          1 1 1 1 1 1
          1 1 1 1 1 1
          1 1 1 1 1 1
          1 1 1 1 1 1
          1 1 1 1 1 1
          1 1 1 1 1 1
          1 1 1 1 1 1
          1 1 1 1 1 1
          1 1 1 1 1 1
          0.875 1 0.875 0.875 0.875 1
          1 1 1 1 1 1
          1 1 1 1 1 1
          0.875 0.5 0.625 1 0.875 1
          1 1 1 1 1 1
          1 1 1 1 0.75 1
          1 1 1 1 0.75 0.75
          0.875 0.8333333333333334 0.5 0.625 1 0.8333333333333334
          0.75 1 1 0.75 1 1
          0 0.5 0.5 0.5 0.5 0.5
          0 1 1 0.5 1 1
        </DataArray>
        <DataArray type="Float64" Name="dHdT" format="ascii" RangeMin="25.800934936179114" RangeMax="38.2213663978516">
          25.809133998809635 25.81284246977234 25.812469836488035 25.813059094896992 25.8141969277229 25.813349082795863
          25.894861174212654 25.89151830419097 25.858043328566794 25.885165091567803 25.816354553262904 25.81423350047908
          30.6243416459426 26.05631114053758 35.725019651892325 25.89014510613748 25.812503119191042 25.81316013512368
          25.862134416658 27.332117136602893 26.344077814030626 25.856868535721247 27.903505875583633 25.90665839941067
          25.88126931320692 25.88476815124163 27.515532890008952 27.40738078101008 26.506153507175547 26.64010214037629
          25.8513750467938 25.89709650432685 25.944316277184804 32.08307674567517 28.16422734257132 28.06830791777825
          25.970616648333547 26.916127315394203 26.66323769103374 27.27609247588504 31.151672545960203 31.920992797016794
          29.461950010164205 29.536834820528775 26.34549215769523 26.790810642001844 27.223701648715934 32.479696241172775
          27.384904756375988 25.815420951805685 25.81807487302896 25.813342689554105 25.82072879425223 28.573018243606974
          27.958706891020142 27.450564002242288 30.294136235280057 30.809947178280094 29.621895110248936 29.334080806293862
          26.85726977305846 27.527249115891074 27.55898796797686 33.046876112953214 31.285083329477736 30.69916264694979
          28.197228458723682 34.31405934446771 33.26107233630512 32.93456206307206 35.94984132483526 36.26697316021937
          35.106722061247964 34.770702865337014 32.19058854541692 30.967219276074054 32.298490765258315 32.09891323814435
          38.219886975971036 36.95237178619081 36.60684366760198 33.62976225444258 31.98405439054515 25.845570186242135
          25.843810699099723 25.861276933788957 25.99452341851788 25.945700873839858 25.926005048514575 25.96610616394962
          25.842051211957312 25.906309223189304 25.937688909381357 25.994958192403892 26.07659289367062 26.091623115655143
          26.199165805139284 25.872554958931268 25.883971204433404 25.928963134254065 26.188288038906386 26.321738716607943
          25.89538744993554 26.889226277705646 26.818666327032076 26.96259069691092 28.324231434661407 28.144323852901
          27.894373970081023 28.052226580545074 26.748106376358507 27.64442408726104 27.780221726428742 28.42586412534109
          28.636890179594708 29.33039487547009 27.392240523887445 27.714921515860745 27.95238279317025 30.023899571345474
          28.03760250783405 33.74673427237751 36.110264342268486 35.797158272580376 35.48405220289227 34.247485487156084
          33.779881146134066 36.05420277192741 35.756490188986476 33.31227680511205 35.458777606045544 28.763478001410835
          28.80594463206139 29.399355253421277 29.42373846045788 27.800602778816092 28.14819993860248 28.24121485046583
          30.03523250543173 30.041532288854363 28.495797098388877 25.81629710347055 25.814907255720406 25.812910406685113
          25.805030622272376 25.800934936179114 25.805760474986336 25.80812144147995 25.813517407970267 25.810586013793554
          25.811212260687526 25.950292990711183 25.929522819408795 25.917124016516343 27.49386250717326 26.712983068708496
          25.896157276078807 25.991949714750344 29.779380155539638 27.94797174603745 26.13331220809637 25.818172913931086
          25.823004172262422 25.82388497465354 25.833261432098936 25.813774607036777 25.813287273502542 25.813315658838967
          25.829597035376004 25.843518691935444 25.812799939968304 25.970292605025293 25.952789431307387 25.970627315425524
          26.31755148426519 26.271377241895237 26.20424125170182 26.251385375038723 25.946605290635205 26.248220563386425
          26.180149683043098 25.93528625758949 26.137105261508406 26.185219265812243 26.11207880269977 27.50821391929254
          27.213273723459555 27.245369784561653 26.799106073237628 29.502945478721166 29.841450997059944 29.0761868753172
          28.87214443069452 27.57500450696743 27.576378618674475 31.23893603429999 30.181519375811547 29.785692726917663
          28.120812036792074 26.302940236444968 26.36368342907083 26.47307725716884 26.538756725550183 26.23510817306652
          26.394565412233664 26.04522930843018 26.107068253977275 26.166099596419308 26.045180265821273 26.64321427789271
          26.71383002202954 26.554022651400807 26.168907199524373 26.158978418360185 26.302448788854853 25.94781282903676
          25.984242388145336 26.44591915934951 26.02067194725391 25.80990110970167 25.819789515579302 25.818804153786232
          25.81781879199316 25.808668487154314 25.81064873464128 25.81238575357481 25.81295229599987 25.81262898212824
          25.813518838424923 25.829878030394063 25.845663336800804 25.814892036394262 25.814019272256814 25.86144864320755
          25.813146508119363 26.025863930524906 26.402149822101205 26.336088838364866 26.27002785462853 27.47107754816024
          27.26248601850443 27.266523142146387 26.963277769874868 26.01163564976999 25.99635852865171 26.361861526133048
          26.29571207340399 25.98108140753344 26.22956262067494 27.509419219053232 27.26140042611362 26.90725607338696
          28.807694587849262 28.411346928320118 29.002874072253018 28.5468182100576 27.521790123298732 27.546851547689602
          29.472739531713874 28.98518323650027 29.20690388202726 27.886372282486136 29.23112000502596 28.698706482736352
          27.565366929300723 30.155488974441564 29.46967773140173 28.00887166542922 26.464175279332434 26.636685020030477
          26.270429292543927 26.809194760728516 26.417846704166 26.59266594935199 26.14068845451913 26.220891000549265
          26.767485194537976 26.30109354657941 25.811672405347206 25.812336257786054 25.81235323787295 25.811954836941712
          25.812392303605243 25.812414214563546 25.814107161960706 25.812938951865362 25.812370217959852 25.81223726853622
          25.812436125521838 25.812998937012964 25.828957229448207 25.813507337415786 25.820886561072186 25.82208858494293
          26.041286392470703 25.830690188111557 26.220051717395137 28.89994557213142 26.50164679696597 25.81420847089972
          25.815235335032618 25.81326835443098 25.813244960311167 25.838699542682917 25.81626219916552 25.81322156619136
          36.506853549323246 35.442681197805406 32.54345790202875 38.2213663978516 37.170410809575046 33.93931673955734
          31.205340193702536 37.03693553954285 36.08024454113705 30.25928767275323 32.51636217033205 25.803772365429985
          25.80958601571647 25.810881594828693 25.807497496450225 25.81273206942852 25.812177173940913 25.811222627470467
          25.82303433276676 25.87658975468208 25.86719254916557 25.85779534364906 26.2701209672058 25.923602799839323
          25.98984868588323 25.853313928217638 26.983779934947442 26.05609457192714 26.56368222743542 27.79267728983187
          27.569296891722505 27.12970057780605 31.608752917578485 30.648846196214016 29.18258431845827 27.67770908095933