<?xml version="1.0"?>
<VTKFile type="UnstructuredGrid" version="0.1" byte_order="LittleEndian" header_type="UInt32" compressor="vtkZLibDataCompressor">
  <UnstructuredGrid>
    <Piece NumberOfPoints="386" NumberOfCells="221">
      <PointData>
        <DataArray type="Int32" Name="libmesh_node_id" format="ascii" RangeMin="254" RangeMax="3421">
          254 352 354 355 357 358
          359 481 483 487 488 708
          717 718 722 725 726 729
          731 733 734 735 736 737
          738 739 740 741 742 1235
          1236 1237 1266 1268 1270 1300
          1302 1304 1326 1327 1328 1329
          1330 1331 1332 1333 1334 1335
          1336 1337 1338 1339 1360 1361
          1362 1363 1364 1365 1366 1367
          1368 1369 1370 1371 1372 1373
          1374 1375 1376 1377 1378 1379
          1380 1381 1382 1383 1384 1385
          1386 1387 1388 1389 1390 1391
          1392 1393 1394 1395 1396 1397
          1460 1462 1493 1495 1497 1499
          1620 1621 1622 1623 1624 1625
          1626 1627 1628 1629 1630 1631
          1632 1633 1634 1635 1636 1672
          1685 1689 2195 2523 2528 2529
          2530 2534 2542 2543 2544 2545
          2546 2547 2548 2549 2550 2551
          2552 2553 2554 2555 2556 2557
          2558 2559 2560 2561 2562 2563
          2564 2568 2569 2570 2571 2574
          2575 2576 2577 2578 2581 2582
          2585 2586 2587 2588 2589 2590
          2591 2592 2593 2594 2595 2596
          2597 2598 2599 2600 2601 2602
          2603 2604 2605 2606 2607 2608
          2609 2610 2611 2612 2613 2614
          2615 2616 2617 2618 2619 2620
          2621 2622 2623 2624 2625 2626
          2763 2764 2765 2766 2767 2768
          2769 2770 2771 2772 2773 2774
          2775 2776 2777 2778 2779 2780
          2781 2782 2783 2784 2785 2786
          2787 2788 2789 2790 2791 2792
          2793 2794 2795 2796 2797 2798
          2799 2800 2801 2802 2803 2804
          2805 2806 2807 2808 2809 2810
          2811 2812 2813 2814 2815 2816
          2817 2818 2819 2820 2821 2822
          2823 2824 2825 2826 2827 2828
          2829 2830 2831 2832 2833 2834
          2835 2836 2837 2838 2839 2840
          2841 2842 2843 2844 2845 2846
          2847 2848 2849 2850 2851 2852
          2853 2854 2855 2856 2857 2858
          2859 2860 2861 2862 2863 2864
          2865 2866 2867 2868 2869 2870
          2871 2872 2873 2874 2875 2876
          2877 2878 2879 2880 2881 2882
          2883 2884 2885 2886 2887 2888
          2889 2890 2891 2892 2893 2894
          2895 2896 2897 2898 2899 2900
          2901 2902 2903 2904 2905 2906
          2907 2908 2909 2910 2911 2912
          2913 2914 2915 2916 3173 3174
          3175 3187 3188 3189 3373 3374
          3375 3376 3377 3378 3379 3387
          3388 3389 3390 3391 3392 3393
          3401 3402 3403 3404 3405 3406
          3407 3415 3416 3417 3418 3419
          3420 3421
        </DataArray>
        <DataArray type="Float64" Name="bounds" format="ascii" RangeMin="0" RangeMax="0">
          0 0 0 0 0 0
          0 0 0 0 0 0
          0 0 0 0 0 0
          0 0 0 0 0 0
          0 0 0 0 0 0
          0 0 0 0 0 0
          0 0 0 0 0 0
          0 0 0 0 0 0
          0 0 0 0 0 0
          0 0 0 0 0 0
          0 0 0 0 0 0
          0 0 0 0 0 0
          0 0 0 0 0 0
          0 0 0 0 0 0
          0 0 0 0 0 0
          0 0 0 0 0 0
          0 0 0 0 0 0
          0 0 0 0 0 0
          0 0 0 0 0 0
          0 0 0 0 0 0
          0 0 0 0 0 0
          0 0 0 0 0 0
          0 0 0 0 0 0
          0 0 0 0 0 0
          0 0 0 0 0 0
          0 0 0 0 0 0
          0 0 0 0 0 0
          0 0 0 0 0 0
          0 0 0 0 0 0
          0 0 0 0 0 0
          0 0 0 0 0 0
          0 0 0 0 0 0
          0 0 0 0 0 0
          0 0 0 0 0 0
          0 0 0 0 0 0
          0 0 0 0 0 0
          0 0 0 0 0 0
          0 0 0 0 0 0
          0 0 0 0 0 0
          0 0 0 0 0 0
          0 0 0 0 0 0
          0 0 0 0 0 0
          0 0 0 0 0 0
          0 0 0 0 0 0
          0 0 0 0 0 0
          0 0 0 0 0 0
          0 0 0 0 0 0
          0 0 0 0 0 0
          0 0 0 0 0 0
          0 0 0 0 0 0
          0 0 0 0 0 0
          0 0 0 0 0 0
          0 0 0 0 0 0
          0 0 0 0 0 0
          0 0 0 0 0 0
          0 0 0 0 0 0
          0 0 0 0 0 0
          0 0 0 0 0 0
          0 0 0 0 0 0
          0 0 0 0 0 0
          0 0 0 0 0 0
          0 0 0 0 0 0
          0 0 0 0 0 0
          0 0 0 0 0 0
          0 0
        </DataArray>
        <DataArray type="Float64" Name="gradient_error" format="ascii" RangeMin="9.939384522626555e-11" RangeMax="1.7615554746097442e-7">
          1.931069260848745e-9 7.757603023901052e-10 2.547439048371972e-8 1.347278047327821e-9 9.161338680546834e-8 5.904861577896968e-10
          8.587411576173794e-9 3.366873014198655e-9 9.45708290219023e-10 4.620835998205004e-9 1.1778507879441628e-9 6.505308142982766e-8
          2.2856936344608457e-9 4.664470528316382e-10 2.2829236020963393e-9 2.3035089208489817e-8 4.140328654668439e-8 9.854125493242952e-9
          5.238237580177626e-8 4.130045233030624e-9 3.1431114636989563e-9 1.1280331269572107e-9 8.890604675408454e-10 4.086813448893156e-9
          4.338306966373086e-9 1.477545024073026e-9 3.5430273829994204e-9 1.0258470074159521e-9 4.269146041013383e-9 5.849212034390928e-10
          2.4352134028089903e-10 7.928036528298228e-10 5.708760661810659e-8 2.4145652413995104e-8 1.0661072606842613e-7 1.556239725016086e-7
          5.60842755249986e-8 1.7615554746097442e-7 2.661987172930228e-8 2.3088741323640765e-9 1.0566319922618211e-8 2.212164771851057e-9
          5.0640397414888205e-8 4.964007636581186e-9 1.6820743078269977e-8 1.045884307750311e-9 4.4234967179846555e-10 9.467012768678593e-10
          3.888809224267365e-10 2.4033416143102037e-9 1.0434821276835872e-9 9.777861741185164e-10 7.53039419129821e-8 8.023714461482045e-9
          2.2300575016575865e-8 1.992578168011535e-9 8.591115189150272e-8 9.43073325194877e-9 2.4834651483657466e-8 4.03526232186856e-9
          1.78555938079448e-9 8.752405068341139e-10 5.143300129613559e-10 4.807961652203372e-9 2.142868959311665e-9 1.0135135842308392e-9
          1.0699410391839202e-8 1.4025695032885936e-8 1.0927654810780204e-8 1.5624096558207797e-8 7.026989002965493e-9 8.337277682471961e-9
          2.29393636365644e-9 1.5979096702131104e-9 5.505911682679248e-9 7.384139956074228e-9 2.5671945861003903e-9 9.279215841723171e-9
          1.7621735779222165e-9 8.229408199510388e-9 9.252470735020587e-10 5.85396793593031e-10 4.493771498974332e-10 4.044815445216462e-10
          7.35170907699559e-10 9.132994663250196e-10 3.485973730368621e-10 6.39076483338766e-10 4.4364548476567453e-10 9.878235563534735e-10
          3.9508558423312365e-10 2.592478691165518e-10 6.771705248232218e-10 3.7001722808000223e-10 8.134480974407004e-10 4.19230478419391e-10
          4.97721579277039e-9 6.974371534442359e-9 5.0525831472482175e-9 3.705072125604632e-9 5.199442241548209e-9 1.7433388412336225e-9
          2.4415205706384402e-9 2.4728386282680015e-9 3.472895140494215e-9 1.3292744301132636e-9 7.905292660967258e-10 1.0511496728018405e-9
          3.5585391914124813e-10 4.4401004369226503e-10 5.122165780700972e-10 5.718915085863246e-10 2.590015662977291e-10 2.627062289066295e-10
          3.4529943834253134e-10 3.8167330839993785e-10 2.5636302501799657e-10 6.7577355446044565e-9 5.742764882702929e-9 4.0276123087399955e-9
          3.4723558597668413e-9 2.354704708551765e-9 1.945476086072491e-9 1.2649379641532556e-9 1.4797281109076428e-9 9.932380363242257e-9
          6.161428337999651e-9 1.3688787425279334e-8 8.609325291171128e-9 6.290079399508449e-9 5.145028746234402e-9 3.497196312666288e-9
          1.2061522777537824e-8 9.1150378097466e-9 7.115117726770482e-9 3.4126798262919054e-9 2.7515945086850583e-9 4.543459029144631e-9
          2.8346930811404797e-9 1.871429569584807e-9 2.1531549951434933e-9 1.2720860647717536e-9 3.827317413483862e-9 2.5994505207099443e-9
          2.394902475142053e-9 6.206718909902051e-10 2.8175752658694247e-9 1.934709411443996e-9 1.5600921864920205e-9 4.0402234291016687e-10
          2.5825320003508735e-10 1.293334475080477e-9 8.377284243393528e-10 6.887765937425339e-10 2.414594241114156e-10 3.2954086745149074e-10
          2.2499672004753752e-10 8.258534817080839e-10 5.424274631952405e-10 5.574039553098827e-10 1.5948214025163956e-10 2.147388972135648e-10
          1.0587815970755416e-10 1.3920235870775235e-10 1.1930081285981994e-10 1.4911387466048655e-10 9.939384522626555e-11 3.5155547642129903e-10
          2.2445101577489014e-10 2.3217545322969435e-10 4.525079928882735e-9 3.1683358814429013e-9 2.416122747674602e-9 1.6441330214381674e-9
          6.720502890147478e-9 4.789131293909217e-9 3.487070545841333e-9 2.1442470005203208e-9 1.3978637532867448e-9 1.0926368606825426e-9
          7.053484027713466e-10 3.2797908674079417e-9 2.1528315785494585e-9 1.6099341721119778e-9 1.2421911487638056e-9 8.263115090466109e-10
          8.277982565313907e-10 5.45981205678042e-10 1.7491387304185174e-9 1.172724180930201e-9 9.697743192692766e-10 5.393519359136722e-10
          3.449747826358227e-10 3.513477179639096e-10 2.2348707697504092e-10 7.720959937472879e-10 4.955469676984373e-10 4.128020532157817e-10
          1.8244135348171114e-8 1.1034249243879393e-8 2.2113951786413565e-8 1.6046178194448388e-8 1.2206802204980064e-8 9.34433704658628e-9
          6.562424035241355e-9 1.9568362809769754e-8 1.507928564638732e-8 1.1320952921494059e-8 5.718881058953132e-9 3.246934542903591e-9
          6.6868839203296535e-9 4.863772448419733e-9 3.3712269986080846e-9 2.627973624088392e-9 1.664422916602746e-9 5.748961766558902e-9
          4.063479911390888e-9 3.1129055748747388e-9 2.4857027215462832e-8 1.492343058062169e-8 2.6092100133021427e-8 2.208866763548284e-8
          1.714816533738616e-8 1.2707064898533925e-8 9.056094179004229e-9 2.3125885804117068e-8 1.790395641294871e-8 1.3264825791991367e-8
          7.33138822991754e-9 4.207222828997795e-9 7.602571612298163e-9 6.353005262160319e-9 4.5492338534619395e-9 3.4228318460491873e-9
          2.2068359978572215e-9 6.59029000939668e-9 4.724386453522054e-9 3.5426807536393786e-9 9.173413572360274e-9 6.633598816816998e-9
          4.662865808922535e-9 3.2468539890136765e-9 1.1464296149384786e-8 8.381449422817996e-9 5.753151379307814e-9 4.5898735407509365e-9
          3.033311953227771e-9 2.1898806010625644e-9 1.4246816087683122e-9 5.847123523700264e-9 3.8859413702351195e-9 2.7360958778241253e-9
          2.295173285639773e-9 1.5482848681254986e-9 1.0989363966874674e-9 7.233971183266831e-10 2.7903246021070624e-9 1.8920042175583103e-9
          1.3276356875931743e-9 1.0261273885067643e-9 6.605838401568472e-10 4.67700455013073e-10 3.507488880345017e-10 1.2589799373687863e-9
          8.12528936557797e-10 5.677243771719674e-10 1.3104552713979755e-8 9.642095117619182e-9 6.531746993441289e-9 4.6014237390507976e-9
          1.370202043404559e-8 1.0101826427866425e-8 6.814685614932218e-9 6.764876249100588e-9 4.512109077341003e-9 3.130046699435938e-9
          2.047056064470367e-9 7.102136636456295e-9 4.7429468691405394e-9 3.273977592512852e-9 3.138549344186133e-9 2.1352070176225767e-9
          1.4779661988283601e-9 9.771818778882985e-10 3.2639767656002727e-9 2.2229173770134345e-9 1.5316423859854288e-9 1.4237365191540975e-9
          9.200482224300774e-10 6.344554403887135e-10 4.763243234261972e-10 1.4831645262498115e-9 9.586864080911962e-10 6.582956896007573e-10
          1.3306647993562433e-9 1.511464562425352e-9 1.2552728222049059e-9 1.7819902297437462e-9 1.1410505421887195e-9 1.2733621120422117e-9
          7.643939221805515e-10 8.400138042595666e-10 9.269111132014676e-10 9.899091571473751e-10 5.854330434915915e-10 1.488429702176814e-9
          9.764737955078476e-10 1.1160803050454781e-9 1.935379050401104e-9 1.5885705537274382e-9 1.9990419668091765e-9 1.6236091824613287e-9
          1.0717417275229172e-9 1.2179819166722437e-9 6.86341129925688e-10 1.6760326424647325e-9 1.1061695503687211e-9 1.2567104243468138e-9
          4.873993877401496e-10 5.365811387021668e-10 3.1702192111905923e-10 3.4697946319444926e-10 3.6829940199783073e-10 3.721500065452928e-10
          2.403528692771049e-10 6.252500766115161e-10 4.0341084313546133e-10 3.985560706038036e-10 1.9707848757372936e-10 2.172407308032242e-10
          1.5756034904973218e-10 1.6891686576182157e-10 1.5025230885113787e-10 1.5433147275479881e-10 1.2593662515263477e-10 2.5397504439603453e-10
          1.9355013933836537e-10 1.690393157129095e-10 6.87469162442567e-10 4.447313572314513e-10 4.3484244876320056e-10 2.816423360948462e-10
          7.102010613262861e-10 4.595780334618194e-10 4.485733674115487e-10 2.8012404776483754e-10 2.1407956542762492e-10 1.8576466174937206e-10
          1.5264056860112597e-10 2.89700980770325e-10 2.213322346524301e-10 1.9186132873138492e-10 1.353803381248224e-9 8.164593147628144e-10
          6.53336743325967e-10 3.0750360833974726e-10 1.8561614746078937e-10 1.9433738300144453e-10 1.9140006175843668e-9 1.1547936012772988e-9
          8.933713398987425e-10 5.398827552025897e-10 2.460137400813201e-9 1.4855081378966798e-9 1.1209458681948927e-9 4.0918254330611654e-10
          2.45890146447346e-10 2.551384386939789e-10 1.511537385755659e-10 5.032535646134693e-10 3.01859860192237e-10 3.108110336081667e-10
          2.8635279222185854e-9 1.730515952351071e-9 1.2861179199424275e-9 7.768712863320204e-10 3.012704391642949e-9 1.8212997730261316e-9
          1.3466967292436449e-9 5.701458658108059e-10 3.417414747595281e-10 3.4979125507219125e-10 2.059561285287889e-10 5.941746121147442e-10
          3.561256126788558e-10 3.633184316949499e-10
        </DataArray>
        <DataArray type="Float64" Name="gradient_matprop_error" format="ascii" RangeMin="0" RangeMax="0">
          0 0 0 0 0 0
          0 0 0 0 0 0
          0 0 0 0 0 0
          0 0 0 0 0 0
          0 0 0 0 0 0
          0 0 0 0 0 0
          0 0 0 0 0 0
          0 0 0 0 0 0
          0 0 0 0 0 0
          0 0 0 0 0 0
          0 0 0 0 0 0
          0 0 0 0 0 0
          0 0 0 0 0 0
          0 0 0 0 0 0
          0 0 0 0 0 0
          0 0 0 0 0 0
          0 0 0 0 0 0
          0 0 0 0 0 0
          0 0 0 0 0 0
          0 0 0 0 0 0
          0 0 0 0 0 0
          0 0 0 0 0 0
          0 0 0 0 0 0
          0 0 0 0 0 0
          0 0 0 0 0 0
          0 0 0 0 0 0
          0 0 0 0 0 0
          0 0 0 0 0 0
          0 0 0 0 0 0
          0 0 0 0 0 0
          0 0 0 0 0 0
          0 0 0 0 0 0
          0 0 0 0 0 0
          0 0 0 0 0 0
          0 0 0 0 0 0
          0 0 0 0 0 0
          0 0 0 0 0 0
          0 0 0 0 0 0
          0 0 0 0 0 0
          0 0 0 0 0 0
          0 0 0 0 0 0
          0 0 0 0 0 0
          0 0 0 0 0 0
          0 0 0 0 0 0
          0 0 0 0 0 0
          0 0 0 0 0 0
          0 0 0 0 0 0
          0 0 0 0 0 0
          0 0 0 0 0 0
          0 0 0 0 0 0
          0 0 0 0 0 0
          0 0 0 0 0 0
          0 0 0 0 0 0
          0 0 0 0 0 0
          0 0 0 0 0 0
          0 0 0 0 0 0
          0 0 0 0 0 0
          0 0 0 0 0 0
          0 0 0 0 0 0
          0 0 0 0 0 0
          0 0 0 0 0 0
          0 0 0 0 0 0
          0 0 0 0 0 0
          0 0 0 0 0 0
          0 0
        </DataArray>
        <DataArray type="Float64" Name="initial_marker" format="ascii" RangeMin="0" RangeMax="2">
          0 0 0 0 2 1.5
          0 0 0 0 0 1.5
          1.5 1 2 0 0.25 0
          0.5 0 0 0 0 0
          0 0 0 0 0 1.25
          0.5 0 2 1.3333333333333333 2 2
          2 2 2 2 0.75 0.5
          2 2 1.5 2 2 0.5
          0.25 2 2 1.25 2 2
          2 2 2 2 2 2
          2 2 1.25 2 2 2
          0.5 1 0 1 0.25 0.5
          0 0 0 0 0 0.5
          0 0 0 0 0 0
          0 0 0 0 0 0
          2 0.5 2 1 2 1
          0 0 0 0 0 0
          0 0 0 0 0 0
          0 0 0 0 0 0
          0 0 1 2 2 2
          2 1.5 1.5 1.5 1 2
          2 2 2 2 2 2
          2 2 2 2 2 2
          2 2 2 2 2 2
          2 1.75 2 2 2 1.5
          1.5 2 2 2 0.5 0.75
          0 1.5 1.5 1 0 0.5
          0 0.5 0 0 0 1.5
          1.25 1 2 2 2 2
          2 2 2 2 2 2
          2 2 2 2 2 2
          2 2 2 2 2 2
          1.75 2 1.5 2 2 1.3333333333333333
          2 2 2 2 2 2
          2 2 2 2 2 2
          2 2 2 2 2 2
          2 2 2 2 2 2
          2 2 2 2 2 2
          2 2 2 2 2 2
          2 2 2 2 2 2
          2 2 2 2 2 2
          2 2 2 2 2 2
          2 2 2 1.75 2 2
          2 2 2 1.25 1.3333333333333333 2
          2 1.75 2 2 2 2
          2 2 2 2 2 2
          2 2 2 2 2 2
          2 2 2 2 2 2
          2 2 2 2 2 2
          1 1 0 1 1 1
          1 1 0 0 0 1
          1 0 1 0 1 1
          1 0 0 1 1 0
          1 1 0.5 0.75 0 0
          0 1 1 0 0 0.25
          0 0 0 0 0 0.75
          0.5 0 1 1 0 0
          1 1 0 1 1 0
          0 1 1 0 2 2
          2 1.75 1.5 1.5 2 2
          2 2 2 2 2 2
          2 2 2 2 2 2
          2 2 2 2 2 2
          2 2 2 2 2 2
          2 2
        </DataArray>
        <DataArray type="Float64" Name="markers_norefine" format="ascii" RangeMin="0" RangeMax="0">
          0 0 0 0 0 0
          0 0 0 0 0 0
          0 0 0 0 0 0
          0 0 0 0 0 0
          0 0 0 0 0 0
          0 0 0 0 0 0
          0 0 0 0 0 0
          0 0 0 0 0 0
          0 0 0 0 0 0
          0 0 0 0 0 0
          0 0 0 0 0 0
          0 0 0 0 0 0
          0 0 0 0 0 0
          0 0 0 0 0 0
          0 0 0 0 0 0
          0 0 0 0 0 0
          0 0 0 0 0 0
          0 0 0 0 0 0
          0 0 0 0 0 0
          0 0 0 0 0 0
          0 0 0 0 0 0
          0 0 0 0 0 0
          0 0 0 0 0 0
          0 0 0 0 0 0
          0 0 0 0 0 0
          0 0 0 0 0 0
          0 0 0 0 0 0
          0 0 0 0 0 0
          0 0 0 0 0 0
          0 0 0 0 0 0
          0 0 0 0 0 0
          0 0 0 0 0 0
          0 0 0 0 0 0
          0 0 0 0 0 0
          0 0 0 0 0 0
          0 0 0 0 0 0
          0 0 0 0 0 0
          0 0 0 0 0 0
          0 0 0 0 0 0
          0 0 0 0 0 0
          0 0 0 0 0 0
          0 0 0 0 0 0
          0 0 0 0 0 0
          0 0 0 0 0 0
          0 0 0 0 0 0
          0 0 0 0 0 0
          0 0 0 0 0 0
          0 0 0 0 0 0
          0 0 0 0 0 0
          0 0 0 0 0 0
          0 0 0 0 0 0
          0 0 0 0 0 0
          0 0 0 0 0 0
          0 0 0 0 0 0
          0 0 0 0 0 0
          0 0 0 0 0 0
          0 0 0 0 0 0
          0 0 0 0 0 0
          0 0 0 0 0 0
          0 0 0 0 0 0
          0 0 0 0 0 0
          0 0 0 0 0 0
          0 0 0 0 0 0
          0 0 0 0 0 0
          0 0
        </DataArray>
        <DataArray type="Float64" Name="markers_mustrefine" format="ascii" RangeMin="0" RangeMax="2">
          0 0 0 0 2 1.5
          0 0 0 0 0 1.5
          1.5 1 2 0 0.25 0
          0.5 0 0 0 0 0
          0 0 0 0 0 1.25
          0.5 0 2 1.3333333333333333 2 2
          2 2 2 2 0.75 0.5
          2 2 1.5 2 2 0.5
          0.25 2 2 1.25 2 2
          2 2 2 2 2 2
          2 2 1.25 2 2 2
          0.5 1 0 1 0.25 0.5
          0 0 0 0 0 0.5
          0 0 0 0 0 0
          0 0 0 0 0 0
          2 0.5 2 1 2 1
          0 0 0 0 0 0
          0 0 0 0 0 0
          0 0 0 0 0 0
          0 0 1 2 2 2
          2 1.5 1.5 1.5 1 2
          2 2 2 2 2 2
          2 2 2 2 2 2
          2 2 2 2 2 2
          2 1.75 2 2 2 1.5
          1.5 2 2 2 0.5 0.75
          0 1.5 1.5 1 0 0.5
          0 0.5 0 0 0 1.5
          1.25 1 2 2 2 2
          2 2 2 2 2 2
          2 2 2 2 2 2
          2 2 2 2 2 2
          1.75 2 1.5 2 2 1.3333333333333333
          2 2 2 2 2 2
          2 2 2 2 2 2
          2 2 2 2 2 2
          2 2 2 2 2 2
          2 2 2 2 2 2
          2 2 2 2 2 2
          2 2 2 2 2 2
          2 2 2 2 2 2
          2 2 2 2 2 2
          2 2 2 1.75 2 2
          2 2 2 1.25 1.3333333333333333 2
          2 1.75 2 2 2 2
          2 2 2 2 2 2
          2 2 2 2 2 2
          2 2 2 2 2 2
          2 2 2 2 2 2
          1 1 0 1 1 1
          1 1 0 0 0 1
          1 0 1 0 1 1
          1 0 0 1 1 0
          1 1 0.5 0.75 0 0
          0 1 1 0 0 0.25
          0 0 0 0 0 0.75
          0.5 0 1 1 0 0
          1 1 0 1 1 0
          0 1 1 0 2 2
          2 1.75 1.5 1.5 2 2
          2 2 2 2 2 2
          2 2 2 2 2 2
          2 2 2 2 2 2
          2 2 2 2 2 2
          2 2
        </DataArray>
        <DataArray type="Float64" Name="gradient_marker" format="ascii" RangeMin="0" RangeMax="1">
          1 1 0.875 1 0.25 1
          0.75 1 1 1 1 0.125
          1 1 1 0.5 0.375 0.5
          0.5 1 1 1 1 1
          1 1 1 1 1 1
          1 1 0.125 0 0.375 0.5
          0 0.5 0.5 1 0.5 1
          0.625 1 0.5 1 1 1
          1 1 1 1 0.75 1
          0.5 1 0.75 1 0.5 1
          1 1 1 1 1 1
          0 0 0 0 0.5 0.5
          1 1 0.5 0.5 1 0.5
          1 0.5 1 1 1 1
          1 1 1 1 1 1
          1 1 1 1 1 1
          0 0 0 0.5 0.5 1
          1 0.5 0.5 1 1 1
          1 1 1 1 1 1
          1 1 1 1 1 1
          1 1 1 1 1 1
          1 1 1 1 1 1
          1 1 1 1 1 1
          1 1 1 1 1 1
          1 1 1 1 1 1
          1 1 1 1 1 1
          1 1 1 1 1 1
          1 1 1 1 1 1
          1 1 1 1 1 1
          1 1 1 1 1 1
          1 1 1 1 1 1
          1 1 1 1 1 1
          1 1 1 1 1 1
          1 1 1 1 1 1
          1 1 1 1 1 1
          1 1 1 1 1 1
          1 1 1 1 1 1
          1 1 1 1 1 1
          1 1 1 1 1 1
          1 1 1 1 1 1
          1 1 1 1 1 1
          1 1 1 1 1 1
          1 1 1 1 1 1
          1 1 1 1 1 1
          1 1 1 1 1 1
          1 1 1 1 1 1
          1 1 1 1 1 1
          1 1 1 1 1 1
          1 1 1 1 1 1
          1 1 1 1 1 1
          1 1 1 1 1 1
          1 1 1 1 1 1
          1 1 1 1 1 1
          1 1 1 1 1 1
          1 1 1 1 1 1
          1 1 1 1 1 1
          1 1 1 1 1 1
          1 1 1 1 1 1
          1 1 1 1 1 1
          1 1 1 1 1 1
          1 1 1 1 1 1
          1 1 1 1 1 1
          1 1 1 1 1 1
          1 1 1 1 1 1
          1 1
        </DataArray>
        <DataArray type="Float64" Name="gradient_matprop_marker" format="ascii" RangeMin="0" RangeMax="0">
          0 0 0 0 0 0
          0 0 0 0 0 0
          0 0 0 0 0 0
          0 0 0 0 0 0
          0 0 0 0 0 0
          0 0 0 0 0 0
          0 0 0 0 0 0
          0 0 0 0 0 0
          0 0 0 0 0 0
          0 0 0 0 0 0
          0 0 0 0 0 0
          0 0 0 0 0 0
          0 0 0 0 0 0
          0 0 0 0 0 0
          0 0 0 0 0 0
          0 0 0 0 0 0
          0 0 0 0 0 0
          0 0 0 0 0 0
          0 0 0 0 0 0
          0 0 0 0 0 0
          0 0 0 0 0 0
          0 0 0 0 0 0
          0 0 0 0 0 0
          0 0 0 0 0 0
          0 0 0 0 0 0
          0 0 0 0 0 0
          0 0 0 0 0 0
          0 0 0 0 0 0
          0 0 0 0 0 0
          0 0 0 0 0 0
          0 0 0 0 0 0
          0 0 0 0 0 0
          0 0 0 0 0 0
          0 0 0 0 0 0
          0 0 0 0 0 0
          0 0 0 0 0 0
          0 0 0 0 0 0
          0 0 0 0 0 0
          0 0 0 0 0 0
          0 0 0 0 0 0
          0 0 0 0 0 0
          0 0 0 0 0 0
          0 0 0 0 0 0
          0 0 0 0 0 0
          0 0 0 0 0 0
          0 0 0 0 0 0
          0 0 0 0 0 0
          0 0 0 0 0 0
          0 0 0 0 0 0
          0 0 0 0 0 0
          0 0 0 0 0 0
          0 0 0 0 0 0
          0 0 0 0 0 0
          0 0 0 0 0 0
          0 0 0 0 0 0
          0 0 0 0 0 0
          0 0 0 0 0 0
          0 0 0 0 0 0
          0 0 0 0 0 0
          0 0 0 0 0 0
          0 0 0 0 0 0
          0 0 0 0 0 0
          0 0 0 0 0 0
          0 0 0 0 0 0
          0 0
        </DataArray>
        <DataArray type="Float64" Name="combo" format="ascii" RangeMin="0" RangeMax="1">
          1 1 0.875 1 0.25 1
          0.75 1 1 1 1 0.125
          1 1 1 0.5 0.375 0.5
          0.5 1 1 1 1 1
          1 1 1 1 1 1
          1 1 0.125 0 0.375 0.5
          0 0.5 0.5 1 0.5 1
          0.625 1 0.5 1 1 1
          1 1 1 1 0.75 1
          0.5 1 0.75 1 0.5 1
          1 1 1 1 1 1
          0 0 0 0 0.5 0.5
          1 1 0.5 0.5 1 0.5
          1 0.5 1 1 1 1
          1 1 1 1 1 1
          1 1 1 1 1 1
          0 0 0 0.5 0.5 1
          1 0.5 0.5 1 1 1
          1 1 1 1 1 1
          1 1 1 1 1 1
          1 1 1 1 1 1
          1 1 1 1 1 1
          1 1 1 1 1 1
          1 1 1 1 1 1
          1 1 1 1 1 1
          1 1 1 1 1 1
          1 1 1 1 1 1
          1 1 1 1 1 1
          1 1 1 1 1 1
          1 1 1 1 1 1
          1 1 1 1 1 1
          1 1 1 1 1 1
          1 1 1 1 1 1
          1 1 1 1 1 1
          1 1 1 1 1 1
          1 1 1 1 1 1
          1 1 1 1 1 1
          1 1 1 1 1 1
          1 1 1 1 1 1
          1 1 1 1 1 1
          1 1 1 1 1 1
          1 1 1 1 1 1
          1 1 1 1 1 1
          1 1 1 1 1 1
          1 1 1 1 1 1
          1 1 1 1 1 1
          1 1 1 1 1 1
          1 1 1 1 1 1
          1 1 1 1 1 1
          1 1 1 1 1 1
          1 1 1 1 1 1
          1 1 1 1 1 1
          1 1 1 1 1 1
          1 1 1 1 1 1
          1 1 1 1 1 1
          1 1 1 1 1 1
          1 1 1 1 1 1
          1 1 1 1 1 1
          1 1 1 1 1 1
          1 1 1 1 1 1
          1 1 1 1 1 1
          1 1 1 1 1 1
          1 1 1 1 1 1
          1 1 1 1 1 1
          1 1
        </DataArray>
        <DataArray type="Float64" Name="dHdT" format="ascii" RangeMin="25.812696377284695" RangeMax="33.062631463329865">
          25.817981577818685 25.829960247704456 25.846664040864393 25.816178290885127 27.795186595020354 25.8889351099051
          25.843311020722656 25.813993042146556 25.812696377284695 25.814977348420744 25.81286948297523 27.06260213876584
          26.09092613756701 25.85820011294216 26.283513166625035 25.9551362605839 26.074367561562767 25.868216965833007
          26.148931411596674 25.847640652880504 25.85884818277129 25.821748096380176 25.823462624208858 25.83283684425246
          25.8369655088001 25.820815939954475 25.87049134539857 25.82549142612424 25.838674663566216 25.887927851457214
          25.84277435882737 25.85911625005014 27.83764650731519 26.639826545920418 29.6306706257161 31.53207499822131
          27.860171315534483 32.44776399936339 27.05773353022775 26.282334656594557 26.24835107171138 25.973497547364627
          28.32533492961397 26.815202398043514 26.574145591553204 26.01639781960357 25.895170529875394 25.88092643589595
          25.840272562420083 26.272033365622942 26.004138582712777 25.928971792600727 29.63964469598003 27.460334318048552
          26.91835681895707 26.225346535807724 30.200841940224713 27.776592475764513 27.064010302601304 26.58251731919379
          26.140034459628463 25.986495913921978 25.878950638355512 26.731947718015583 26.205775475887123 26.012467577549543
          26.18707605220537 26.30220570761674 26.078243130916896 26.354808775336686 26.081449394837747 26.163565106028237
          25.91697901651643 25.929657523943852 25.96547474442566 26.002915732155998 25.89562713150229 26.201194273033945
          25.941165047137254 26.020211369285867 25.857199339435258 25.86077793927067 25.831747410335048 25.833693229286233
          25.843522096130187 25.849100182282697 25.82804027703786 25.86515108682379 25.835577284917427 25.85172397689363
          25.882910155237223 25.830597430704977 25.933115438153443 25.838844949304494 25.95770558607757 25.84261291012054
          26.00290161609384 26.063725540303892 25.971213507705464 25.95559660765659 25.998515874638173 25.88322159290572
          25.900359828327026 25.912236704151866 25.928783048988528 25.86710050956837 25.84579838832904 25.852006860742623
          25.82716083069897 25.829450905107095 25.836555472549747 25.838561638569182 25.824473728227133 25.821659018405757
          25.82410626539363 25.825208315958786 25.86714056768552 27.231730942063102 27.001853701009725 26.61908093364756
          26.52321300824385 26.32131758936127 26.23161917196475 26.084437531726334 26.12617939970835 27.993228035180806
          27.075000871514224 29.038562978228384 27.653457192516175 27.083750804671826 26.865257936326078 26.518960420975056
          28.54009689871711 27.705868284075457 27.29028504683334 26.534050482846272 26.343122755143966 26.779110281330546
          26.408597785266785 26.20254922059653 26.2464222122691 26.090426907641586 26.615292349555073 26.34425244795696
          26.30949765512395 25.938151369936158 26.360142159083903 26.17920508258805 26.123533485002824 25.892804880635676
          25.862881244199286 26.05204985547372 25.964344274527825 25.943821921785787 25.876154472357463 25.890340512585688
          25.87426091384512 25.98935456923182 25.9268075667809 25.94277262496697 25.852963373287338 25.862067261823857
          25.837415235675806 25.843340434683608 25.846474251788823 25.85181510691114 25.836732539795605 25.88551242514123
          25.85838056198825 25.86590661852344 26.690768146141757 26.40979612788621 26.288335253542606 26.128753259134264
          27.130537675138434 26.716715201661344 26.496009051088002 26.20760325207314 26.065076782008596 26.018046507386327
          25.94252752361374 26.41614190644303 26.201303779962057 26.113797236235726 26.068467290512544 25.978892283418208
          25.99264022150819 25.928350982245746 26.164913354317733 26.043416811017664 26.021003137276185 25.919087997890944
          25.879671978697917 25.886214362162306 25.858975140361327 25.960990866810526 25.90615097084422 25.897694162717546
          30.43770179831811 28.156666753974626 31.849418301777263 29.689504509672666 28.46499789952798 27.774504700768748
          27.145702858968924 30.881766503935907 29.268664116151406 28.243590693756314 27.03584330077601 26.475468822146013
          27.264763452191623 26.83289882749595 26.49525981607716 26.358109959344258 26.166091742382548 27.02836933573665
          26.632797286799477 26.44792110596908 32.762949992228435 29.156709288663613 33.062631463329865 31.725326177505096
          29.904909761812334 28.59694478132863 27.69121003008306 32.01919397621343 30.14559447567514 28.73525653592743
          27.42338254327193 26.659239233429567 27.48337463982483 27.164856588372107 26.729987631184176 26.510975401757527
          26.26802375567297 27.215543627500963 26.765160604934913 26.534326685526153 27.65413269027689 27.07726005072621