<?xml version="1.0"?>
<VTKFile type="UnstructuredGrid" version="0.1" byte_order="LittleEndian" header_type="UInt32" compressor="vtkZLibDataCompressor">
  <UnstructuredGrid>
    <Piece NumberOfPoints="399" NumberOfCells="224">
      <PointData>
        <DataArray type="Int32" Name="libmesh_node_id" format="ascii" RangeMin="245" RangeMax="2588">
          245 346 347 348 349 350
          675 676 677 678 679 680
          681 684 687 689 690 691
          692 693 694 695 696 697
          698 699 700 702 919 922
          924 1173 1174 1175 1176 1179
          1184 1185 1186 1188 1190 1191
          1192 1193 1194 1195 1196 1197
          1198 1199 1200 1201 1202 1203
          1204 1205 1206 1207 1208 1209
          1210 1211 1212 1213 1214 1215
          1217 1218 1219 1220 1221 1222
          1223 1224 1225 1226 1227 1228
          1229 1230 1231 1232 1233 1234
          1250 1569 1570 1574 1575 1577
          1578 1596 1597 1598 1599 1600
          1601 1602 1603 1604 1605 1606
          1607 1608 1609 1610 1611 1612
          1613 1614 1615 1616 1617 1618
          1619 2030 2031 2032 2033 2034
          2035 2036 2037 2038 2039 2040
          2041 2042 2043 2044 2045 2046
          2047 2048 2049 2050 2051 2052
          2053 2054 2055 2056 2057 2058
          2059 2060 2061 2062 2063 2064
          2065 2066 2067 2068 2069 2070
          2071 2072 2073 2074 2075 2076
          2077 2078 2079 2080 2081 2082
          2083 2084 2085 2086 2087 2088
          2089 2090 2091 2092 2093 2094
          2095 2096 2097 2098 2099 2100
          2101 2102 2103 2104 2105 2106
          2107 2108 2109 2110 2111 2112
          2113 2114 2115 2116 2117 2118
          2119 2120 2121 2122 2123 2124
          2125 2126 2127 2128 2129 2130
          2131 2132 2133 2134 2135 2136
          2139 2141 2142 2144 2145 2146
          2147 2148 2149 2150 2151 2152
          2153 2156 2157 2159 2161 2162
          2163 2164 2165 2166 2167 2168
          2169 2170 2171 2172 2173 2174
          2175 2176 2177 2178 2179 2180
          2181 2182 2183 2184 2185 2186
          2187 2190 2191 2193 2400 2401
          2402 2404 2405 2406 2407 2408
          2409 2414 2415 2417 2418 2419
          2420 2453 2454 2455 2456 2457
          2458 2463 2464 2467 2473 2474
          2475 2476 2480 2482 2521 2522
          2524 2525 2526 2527 2531 2532
          2533 2535 2536 2537 2538 2539
          2540 2541 2565 2566 2567 2572
          2579 2580 2583 2584 733 725
          352 735 1235 1237 1236 1306
          1307 1251 1310 1253 1326 1266
          1328 1268 1623 1620 1624 1621
          1625 1329 1626 1630 1335 1631
          2195 2410 2411 2403 1308 2412
          2413 1309 2421 2416 2422 2423
          1311 2459 2460 1316 2461 2462
          1317 2469 2470 2472 2477 2478
          2479 1320 2484 2486 2528 2523
          2529 2530 1327 2542 2534 2543
          2544 2568 2569 2570 2571 1333
          2574 2576 2578 2581 2582 2585
          2586 2587 2588
        </DataArray>
        <DataArray type="Float64" Name="bounds" format="ascii" RangeMin="0" RangeMax="0">
          0 0 0 0 0 0
          0 0 0 0 0 0
          0 0 0 0 0 0
          0 0 0 0 0 0
          0 0 0 0 0 0
          0 0 0 0 0 0
          0 0 0 0 0 0
          0 0 0 0 0 0
          0 0 0 0 0 0
          0 0 0 0 0 0
          0 0 0 0 0 0
          0 0 0 0 0 0
          0 0 0 0 0 0
          0 0 0 0 0 0
          0 0 0 0 0 0
          0 0 0 0 0 0
          0 0 0 0 0 0
          0 0 0 0 0 0
          0 0 0 0 0 0
          0 0 0 0 0 0
          0 0 0 0 0 0
          0 0 0 0 0 0
          0 0 0 0 0 0
          0 0 0 0 0 0
          0 0 0 0 0 0
          0 0 0 0 0 0
          0 0 0 0 0 0
          0 0 0 0 0 0
          0 0 0 0 0 0
          0 0 0 0 0 0
          0 0 0 0 0 0
          0 0 0 0 0 0
          0 0 0 0 0 0
          0 0 0 0 0 0
          0 0 0 0 0 0
          0 0 0 0 0 0
          0 0 0 0 0 0
          0 0 0 0 0 0
          0 0 0 0 0 0
          0 0 0 0 0 0
          0 0 0 0 0 0
          0 0 0 0 0 0
          0 0 0 0 0 0
          0 0 0 0 0 0
          0 0 0 0 0 0
          0 0 0 0 0 0
          0 0 0 0 0 0
          0 0 0 0 0 0
          0 0 0 0 0 0
          0 0 0 0 0 0
          0 0 0 0 0 0
          0 0 0 0 0 0
          0 0 0 0 0 0
          0 0 0 0 0 0
          0 0 0 0 0 0
          0 0 0 0 0 0
          0 0 0 0 0 0
          0 0 0 0 0 0
          0 0 0 0 0 0
          0 0 0 0 0 0
          0 0 0 0 0 0
          0 0 0 0 0 0
          0 0 0 0 0 0
          0 0 0 0 0 0
          0 0 0 0 0 0
          0 0 0 0 0 0
          0 0 0
        </DataArray>
        <DataArray type="Float64" Name="gradient_error" format="ascii" RangeMin="7.093559228253533e-11" RangeMax="1.6613704322097557e-7">
          3.20872075141283e-10 6.191470438253355e-9 2.4965461930301355e-8 1.3747194275318056e-7 5.520540825381375e-8 9.040763416771297e-10
          1.7817953903050124e-8 1.975913208235693e-8 1.641317399253988e-7 1.2700401039258024e-7 5.966832671041481e-9 7.104285857950229e-8
          5.413213266683988e-8 2.7787907288054128e-8 8.863911408947384e-8 3.775439409002062e-10 1.467566729727889e-9 7.412735648637e-10
          1.9757332153803146e-9 5.926008906246123e-10 2.5374316048303435e-10 6.075657784150204e-10 2.882219539615164e-9 4.2041795603473e-9
          1.1479107380838125e-9 4.788325099670633e-9 2.069126388571212e-9 3.2554237897614718e-9 6.427205517385078e-9 4.130458510306059e-9
          1.126901987347792e-9 8.834600744618757e-9 2.4761632878946924e-8 2.157245831728291e-8 1.527409787736285e-8 8.575821848855601e-8
          6.648680894917288e-9 9.430487244944103e-9 6.696062490781407e-9 2.8101536959392798e-8 5.726770963762763e-9 4.969732684677711e-9
          1.3463988070679295e-8 1.1709113035722235e-8 6.492380706548795e-10 1.0475940375444169e-9 8.867482838640716e-10 4.840294440328601e-9
          8.553109019474421e-9 1.0239953771778654e-9 4.1146160632815735e-8 3.547419364770432e-8 3.835481437599343e-9 2.2924101522709276e-8
          2.7606071077935736e-10 3.4300074235157e-10 4.5437014980266624e-10 4.4129451911949463e-10 3.21476676440644e-10 2.607047082433116e-10
          2.947858125957977e-10 5.232965834785243e-10 4.5439201867305865e-10 2.637723974870662e-10 2.4230479783047193e-9 1.885413398427751e-9
          9.427074515219194e-10 4.608784082324086e-9 6.000450500432236e-9 1.7294898994418857e-9 1.6954107339683256e-9 3.0967605038474413e-9
          4.848607408335656e-9 2.064175556745099e-9 1.196883628472827e-8 1.4380609330647167e-9 6.970440094195137e-9 6.483703829883084e-10
          6.524092763372446e-10 2.8070104479500146e-10 2.779040541794929e-10 5.301431075975902e-10 8.342949407250927e-10 3.639389567863548e-10
          1.600341064673663e-7 7.538278923329148e-10 5.775118963253258e-10 4.886646447985616e-10 3.844889065941285e-10 2.2350139726420852e-10
          1.9146591686293113e-10 6.07636730360545e-10 9.642170553392746e-10 9.603499666792445e-10 9.564828780192145e-10 3.09731708959048e-10
          4.436541872668243e-10 9.291795191095994e-10 9.060452649862483e-10 2.4038810939384545e-10 6.441183256279976e-10 6.231313671756476e-10
          5.775766655746005e-10 8.829110108628972e-10 6.021444087232975e-10 1.1557047816816738e-10 1.5794164756432448e-10 2.723161424741363e-10
          2.850536802333826e-10 1.1477872051406172e-10 1.5053761657220188e-10 1.7558518940872219e-10 2.0031281696048162e-10 2.977912179926289e-10
          2.0063276224524255e-10 8.698535609154984e-10 1.120996177685213e-9 1.0753926869675676e-9 9.754507613769687e-10 2.065764538320938e-9
          6.663974637062141e-10 6.408732834522082e-10 8.837024362487145e-10 8.49332910545856e-10 3.2320202073725634e-10 5.14425428358039e-10
          4.959003843590712e-10 5.787150918468489e-10 7.665801809647304e-10 4.4355147415094226e-10 1.714927505969349e-9 1.6396702738452353e-9
          1.0045822711862825e-9 1.460561894658818e-9 6.766728222041175e-10 8.266862028055727e-10 7.322600791071298e-10 1.5278807138204163e-9
          5.077170130209594e-10 6.544142878934447e-10 2.6153681053011055e-10 3.7505630533407196e-10 4.733529455464234e-10 5.90631598700426e-10
          3.403850027263627e-10 1.2087118067313706e-9 7.237088873236431e-10 1.0536506873591897e-9 3.5598167202319337e-9 3.387039705993052e-9
          3.016712660943356e-9 7.48434523890757e-9 3.100885916713804e-9 2.9524039272735806e-9 2.239753733829924e-9 2.131835350790688e-9
          2.6017494646807493e-9 1.84376175957856e-9 6.746052595917386e-9 6.364230498925674e-9 4.526857379046787e-9 5.46978799673956e-9
          2.5150401515794212e-9 1.928221441272503e-9 5.174572397282466e-9 2.1311493406749215e-9 1.4617961215847355e-9 1.611944286734277e-9
          1.0726583600799878e-9 4.3186245139897044e-9 2.9406576891343426e-9 3.1037051583602676e-9 1.9561370467676296e-10 1.9320720660082783e-10
          3.125165613320732e-10 3.0101036139684473e-10 1.2621577638766005e-10 1.9846696461026492e-10 1.903134508301411e-10 1.7797344359474075e-10
          2.665642691148774e-10 1.8246501314055355e-10 6.901898631778567e-10 6.596166561736618e-10 4.309103555714238e-10 5.763877742266816e-10
          8.15085666465117e-11 8.573188367089715e-11 1.2491225860633754e-10 1.2076863722809009e-10 7.093559228253533e-11 9.548154875242939e-11
          9.44034609955895e-11 8.995520069528259e-11 1.1662501584984266e-10 9.332537323874964e-11 2.9495995065217775e-10 2.7790959663819427e-10
          2.0999973029125294e-10 2.757970863786943e-10 1.528047935649319e-10 2.164662015622746e-10 1.2129716990744407e-10 1.6496216543772216e-10
          1.4046340846527498e-10 1.8930802635641062e-10 1.4684916555381812e-10 4.5957918350478447e-10 3.4961127702977217e-10 3.9177758814289234e-10
          1.5502470830740589e-9 1.4721766487192113e-9 1.056290354874423e-9 1.0009185957007363e-9 1.263003219647788e-9 8.529210774430154e-10
          3.4566805973891958e-9 3.2541789902823017e-9 2.2741186430959072e-9 2.721902255451939e-9 7.038754510913596e-10 6.645758001167219e-10
          5.609587174925634e-10 1.6386602429638068e-9 1.5349883514503216e-9 1.2657413751348723e-9 9.852798989819587e-10 6.574852775936112e-10
          7.062122020844006e-10 4.639229064078089e-10 2.043629751177118e-9 1.3966195295881096e-9 1.402971584163692e-9 2.658633120341665e-10
          4.275619400787813e-10 1.897044566321923e-10 2.98538022873392e-10 9.298756854836067e-10 6.213825074463832e-10 1.1309340749627434e-9
          1.3975298026873497e-9 1.149534395855993e-9 2.5696668919397177e-9 8.930772871439582e-10 1.1518662239868377e-9 5.227773199276336e-10
          7.354825849370089e-10 7.466282439428006e-10 9.425655643268214e-10 5.856341414778459e-10 2.1015533809083657e-9 1.3531345159415284e-9
          1.530992648077035e-9 3.2702868688779774e-10 4.705021669578671e-10 2.1091909790613e-10 3.0589361888748846e-10 2.695771447982643e-10
          3.6723950277963763e-10 2.3861666178760054e-10 8.941192637393043e-10 5.912670219666293e-10 6.136663117018951e-10 1.2883821725022693e-10
          1.9285827317766534e-10 1.0432137141674094e-10 1.4712309492306692e-10 3.8394636898186295e-10 1.3959395426644222e-8 1.3118421869342325e-8
          1.1357892637506909e-8 1.2491282845033114e-8 1.1760748148718285e-8 9.716139942057881e-9 9.148233042887543e-9 1.0049949193767036e-8
          7.633384722184059e-9 9.088998023407094e-9 6.4208919067830485e-9 7.836165048801834e-9 5.682009870432641e-9 5.463824283734341e-9
          3.837875736283122e-9 7.298518197863819e-9 6.839390649282265e-9 5.277377914956634e-9 4.927539525791596e-9 5.62530014727173e-9
          4.010020641801337e-9 3.6528675821014155e-9 3.4010933637934875e-9 2.7462931001388863e-9 4.088897815171641e-9 2.866851748972989e-9
          2.6844927394430497e-9 1.8450587701799924e-9 1.9417737075007116e-9 1.234127395552054e-9 4.310586022665607e-9 2.6887354411062626e-9
          3.587648051460188e-9 2.4079076204419324e-9 2.2080274775525238e-9 1.4292885018236051e-9 1.274802819771955e-9 1.5607857588985297e-9
          1.2631479511904518e-9 1.028240358070784e-9 1.2795496581284554e-9 6.210536079305035e-10 8.086980053255358e-10 8.150585349713589e-10
          9.933370590766075e-10 5.764592155358478e-10 1.6374697474270546e-9 1.103006478257545e-9 9.409456376550217e-10 7.278275984742941e-10
          3.7918928626241604e-10 5.109860615752963e-10 2.7223510497312924e-10 3.534933003090942e-10 4.130045233030624e-9 2.3035089208489817e-8
          7.757603023901052e-10 1.1280331269572107e-9 5.849212034390928e-10 7.928036528298228e-10 2.4352134028089903e-10 1.2434415410814397e-7
          1.0542776850189168e-7 1.6613704322097557e-7 6.282105432714819e-8 1.280090021007828e-7 2.661987172930228e-8 5.708760661810659e-8
          1.0566319922618211e-8 2.4145652413995104e-8 3.705072125604632e-9 4.97721579277039e-9 5.199442241548209e-9 6.974371534442359e-9
          1.7433388412336225e-9 2.212164771851057e-9 2.4415205706384402e-9 7.905292660967258e-10 9.467012768678593e-10 1.0511496728018405e-9
          2.5636302501799657e-10 2.2706595304577847e-8 2.121401755203554e-8 2.367507489778273e-8 1.7785988677529327e-8 1.676763294758954e-8
          1.782590323967794e-8 1.3959645490868952e-8 1.3622983360942337e-8 1.558422953664899e-8 1.0229862286176608e-8 9.133821074565768e-9
          6.693250128392456e-9 1.3878652682019456e-8 1.3032503944038402e-8 1.0423010717104123e-8 9.736794062117795e-9 1.0694885540988863e-8
          7.87640784498316e-9 7.428941367801245e-9 6.909720577630153e-9 5.526450558403103e-9 7.626862596907316e-9 5.500916594275156e-9
          4.829789242377674e-9 3.399552661387475e-9 3.800909432461958e-9 2.3097343989327825e-9 5.742764882702929e-9 6.7577355446044565e-9
          4.0276123087399955e-9 3.4723558597668413e-9 2.3088741323640765e-9 1.945476086072491e-9 2.354704708551765e-9 1.2649379641532556e-9
          1.4797281109076428e-9 6.206718909902051e-10 2.8175752658694247e-9 1.934709411443996e-9 1.5600921864920205e-9 1.045884307750311e-9
          4.0402234291016687e-10 1.293334475080477e-9 6.887765937425339e-10 2.414594241114156e-10 3.2954086745149074e-10 2.2499672004753752e-10
          8.258534817080839e-10 5.424274631952405e-10 5.574039553098827e-10
        </DataArray>
        <DataArray type="Float64" Name="gradient_matprop_error" format="ascii" RangeMin="0" RangeMax="0">
          0 0 0 0 0 0
          0 0 0 0 0 0
          0 0 0 0 0 0
          0 0 0 0 0 0
          0 0 0 0 0 0
          0 0 0 0 0 0
          0 0 0 0 0 0
          0 0 0 0 0 0
          0 0 0 0 0 0
          0 0 0 0 0 0
          0 0 0 0 0 0
          0 0 0 0 0 0
          0 0 0 0 0 0
          0 0 0 0 0 0
          0 0 0 0 0 0
          0 0 0 0 0 0
          0 0 0 0 0 0
          0 0 0 0 0 0
          0 0 0 0 0 0
          0 0 0 0 0 0
          0 0 0 0 0 0
          0 0 0 0 0 0
          0 0 0 0 0 0
          0 0 0 0 0 0
          0 0 0 0 0 0
          0 0 0 0 0 0
          0 0 0 0 0 0
          0 0 0 0 0 0
          0 0 0 0 0 0
          0 0 0 0 0 0
          0 0 0 0 0 0
          0 0 0 0 0 0
          0 0 0 0 0 0
          0 0 0 0 0 0
          0 0 0 0 0 0
          0 0 0 0 0 0
          0 0 0 0 0 0
          0 0 0 0 0 0
          0 0 0 0 0 0
          0 0 0 0 0 0
          0 0 0 0 0 0
          0 0 0 0 0 0
          0 0 0 0 0 0
          0 0 0 0 0 0
          0 0 0 0 0 0
          0 0 0 0 0 0
          0 0 0 0 0 0
          0 0 0 0 0 0
          0 0 0 0 0 0
          0 0 0 0 0 0
          0 0 0 0 0 0
          0 0 0 0 0 0
          0 0 0 0 0 0
          0 0 0 0 0 0
          0 0 0 0 0 0
          0 0 0 0 0 0
          0 0 0 0 0 0
          0 0 0 0 0 0
          0 0 0 0 0 0
          0 0 0 0 0 0
          0 0 0 0 0 0
          0 0 0 0 0 0
          0 0 0 0 0 0
          0 0 0 0 0 0
          0 0 0 0 0 0
          0 0 0 0 0 0
          0 0 0
        </DataArray>
        <DataArray type="Float64" Name="initial_marker" format="ascii" RangeMin="0" RangeMax="2">
          0 0 0 2 0.75 0
          0 0 1 1 0 1
          0.75 0.3333333333333333 2 0 0 0
          0 0 0 0 0 0
          0 2 2 0 0 0
          0 1 2 2 1.5 2
          0 0.5 0 1.6666666666666667 0.5 0.5
          2 2 0 2 2 0.3333333333333333
          1.25 1 2 2 2 2
          0 0 2 1.5 0 1
          1 0 0.5 0.25 2 2
          2 0 0.25 0 0 0
          0 0 1.5 1.5 0.3333333333333333 0
          0 0 0 0 0 0
          2 0 0 0 0 0
          0 0 0 0 0 0
          0 0 0 0 0 0
          0 0 0 0 0 0
          0 0 0 0 0 0
          0 0 1 1 1 2
          0 0 1 1 0 1
          1 0 1 1 2 2
          2 2 0 0.5 0 1.5
          0 0.5 0 0.5 0 0
          0 1.5 1.5 1.3333333333333333 2 2
          2 2 2 2 2 2
          2 2 2 2 2 2
          2 2 2 2 2 2
          2 2 2 2 0 0
          1 1 0 1 1 0
          0.75 0.6666666666666666 2 2 2 1.75
          0 0 0.5 0.5 0 0
          0 0 0.5 0 1.5 1.5
          1.3333333333333333 1.6666666666666667 0 0.25 0 0
          0 0 0 1.25 1.3333333333333333 1
          2 2 2 2 2 2
          2 2 2 2 2 2
          2 2 2 2 2 2
          1.75 1.5 2 2 2 2
          2 1 1.5 2 2 1
          1.5 1 2 1 1.5 1
          1.5 0 1 1 2 2
          2 0.5 1.25 0 1 0
          1 1 2 2 2 0
          0.75 0 0.5 1.75 2 2
          2 2 2 2 2 2
          2 2 2 2 2 2
          2 2 2 2 2 2
          2 2 2 2 2 2
          2 2 2 2 2 2
          2 2 2 2 1 1
          0 1 1 1 1 0
          0 0 2 2 2 2
          1 1 0 0 0 0
          0 0 1.25 0 0.5 2
          2 2 2 2 2 2
          0.75 1.3333333333333333 0 0 0 0
          0 0.5 0 0 0.5 0
          1 2 2 2 2 2
          2 2 2 2 2 2
          2 2 2 2 2 2
          2 2 2 2 2 2
          2 2 2 2 2 2
          2 2 2 1.5 1.5 1.5
          1 1.75 2 2 2 2
          1.5 2 2 0.5 0.75 0
          1.5 1.5 1
        </DataArray>
        <DataArray type="Float64" Name="markers_norefine" format="ascii" RangeMin="0" RangeMax="0">
          0 0 0 0 0 0
          0 0 0 0 0 0
          0 0 0 0 0 0
          0 0 0 0 0 0
          0 0 0 0 0 0
          0 0 0 0 0 0
          0 0 0 0 0 0
          0 0 0 0 0 0
          0 0 0 0 0 0
          0 0 0 0 0 0
          0 0 0 0 0 0
          0 0 0 0 0 0
          0 0 0 0 0 0
          0 0 0 0 0 0
          0 0 0 0 0 0
          0 0 0 0 0 0
          0 0 0 0 0 0
          0 0 0 0 0 0
          0 0 0 0 0 0
          0 0 0 0 0 0
          0 0 0 0 0 0
          0 0 0 0 0 0
          0 0 0 0 0 0
          0 0 0 0 0 0
          0 0 0 0 0 0
          0 0 0 0 0 0
          0 0 0 0 0 0
          0 0 0 0 0 0
          0 0 0 0 0 0
          0 0 0 0 0 0
          0 0 0 0 0 0
          0 0 0 0 0 0
          0 0 0 0 0 0
          0 0 0 0 0 0
          0 0 0 0 0 0
          0 0 0 0 0 0
          0 0 0 0 0 0
          0 0 0 0 0 0
          0 0 0 0 0 0
          0 0 0 0 0 0
          0 0 0 0 0 0
          0 0 0 0 0 0
          0 0 0 0 0 0
          0 0 0 0 0 0
          0 0 0 0 0 0
          0 0 0 0 0 0
          0 0 0 0 0 0
          0 0 0 0 0 0
          0 0 0 0 0 0
          0 0 0 0 0 0
          0 0 0 0 0 0
          0 0 0 0 0 0
          0 0 0 0 0 0
          0 0 0 0 0 0
          0 0 0 0 0 0
          0 0 0 0 0 0
          0 0 0 0 0 0
          0 0 0 0 0 0
          0 0 0 0 0 0
          0 0 0 0 0 0
          0 0 0 0 0 0
          0 0 0 0 0 0
          0 0 0 0 0 0
          0 0 0 0 0 0
          0 0 0 0 0 0
          0 0 0 0 0 0
          0 0 0
        </DataArray>
        <DataArray type="Float64" Name="markers_mustrefine" format="ascii" RangeMin="0" RangeMax="2">
          0 0 0 2 0.75 0
          0 0 1 1 0 1
          0.75 0.3333333333333333 2 0 0 0
          0 0 0 0 0 0
          0 2 2 0 0 0
          0 1 2 2 1.5 2
          0 0.5 0 1.6666666666666667 0.5 0.5
          2 2 0 2 2 0.3333333333333333
          1.25 1 2 2 2 2
          0 0 2 1.5 0 1
          1 0 0.5 0.25 2 2
          2 0 0.25 0 0 0
          0 0 1.5 1.5 0.3333333333333333 0
          0 0 0 0 0 0
          2 0 0 0 0 0
          0 0 0 0 0 0
          0 0 0 0 0 0
          0 0 0 0 0 0
          0 0 0 0 0 0
          0 0 1 1 1 2
          0 0 1 1 0 1
          1 0 1 1 2 2
          2 2 0 0.5 0 1.5
          0 0.5 0 0.5 0 0
          0 1.5 1.5 1.3333333333333333 2 2
          2 2 2 2 2 2
          2 2 2 2 2 2
          2 2 2 2 2 2
          2 2 2 2 0 0
          1 1 0 1 1 0
          0.75 0.6666666666666666 2 2 2 1.75
          0 0 0.5 0.5 0 0
          0 0 0.5 0 1.5 1.5
          1.3333333333333333 1.6666666666666667 0 0.25 0 0
          0 0 0 1.25 1.3333333333333333 1
          2 2 2 2 2 2
          2 2 2 2 2 2
          2 2 2 2 2 2
          1.75 1.5 2 2 2 2
          2 1 1.5 2 2 1
          1.5 1 2 1 1.5 1
          1.5 0 1 1 2 2
          2 0.5 1.25 0 1 0
          1 1 2 2 2 0
          0.75 0 0.5 1.75 2 2
          2 2 2 2 2 2
          2 2 2 2 2 2
          2 2 2 2 2 2
          2 2 2 2 2 2
          2 2 2 2 2 2
          2 2 2 2 1 1
          0 1 1 1 1 0
          0 0 2 2 2 2
          1 1 0 0 0 0
          0 0 1.25 0 0.5 2
          2 2 2 2 2 2
          0.75 1.3333333333333333 0 0 0 0
          0 0.5 0 0 0.5 0
          1 2 2 2 2 2
          2 2 2 2 2 2
          2 2 2 2 2 2
          2 2 2 2 2 2
          2 2 2 2 2 2
          2 2 2 1.5 1.5 1.5
          1 1.75 2 2 2 2
          1.5 2 2 0.5 0.75 0
          1.5 1.5 1
        </DataArray>
        <DataArray type="Float64" Name="gradient_marker" format="ascii" RangeMin="0" RangeMax="1">
          1 0.5 0.875 0.75 0.375 1
          0 0 0.5 0.5 0.5 0.25
          0.375 0.6666666666666666 0.25 1 1 1
          1 1 1 1 1 1
          1 1 1 1 1 1
          1 0 0 0 0 0.3333333333333333
          0 0 0 0 0.5 0.5
          0.5 0.5 1 1 1 0.5
          0.5 1 0.75 0.625 1 0.5
          1 1 1 1 1 1
          1 1 1 1 1 1
          1 0.5 0.5 1 1 0.5
          0.5 1 0.5 1 0.5 1
          1 1 1 1 1 1
          0.75 1 1 1 1 1
          1 0 0 0 0 0.5
          0.5 0.5 0.5 1 1 1
          0.5 0.5 1 1 1 1
          1 1 1 1 1 1
          1 1 1 1 1 1
          1 1 1 1 1 1
          1 1 1 1 1 1
          1 1 1 1 1 1
          1 1 1 1 1 1
          1 1 1 1 1 1
          1 1 1 1 1 1
          1 1 1 1 1 1
          1 1 1 1 1 1
          1 1 1 1 1 1
          1 1 1 1 1 1
          1 1 1 1 1 1
          1 1 1 1 1 1
          1 1 1 1 1 1
          1 1 1 1 1 1
          1 1 1 1 1 1
          1 1 1 1 1 1
          1 1 1 1 1 1
          1 1 1 1 1 1
          1 1 1 1 1 1
          1 1 1 1 1 1
          1 1 1 1 1 1
          1 1 1 1 1 1
          1 1 1 1 1 1
          1 1 1 1 1 1
          1 1 1 1 1 1
          1 1 1 1 1 1
          1 1 1 1 1 1
          1 1 1 1 1 1
          1 1 1 1 1 1
          1 1 1 1 1 1
          1 1 1 1 1 1
          1 1 1 1 1 1
          1 1 1 1 1 1
          1 1 1 1 1 0.5
          1 1 1 1 1 1
          0.875 0.625 0.625 0.375 0.5 0.125
          0.5 0 0.5 0 0.5 0
          1 1 1 1 1 1
          1 1 1 1 1 1
          1 1 1 1 1 1
          1 1 1 1 1 1
          1 1 1 1 1 1
          1 1 1 1 1 1
          1 1 1 1 1 1
          1 1 1 1 1 1
          1 1 1 1 1 1
          1 1 1
        </DataArray>
        <DataArray type="Float64" Name="gradient_matprop_marker" format="ascii" RangeMin="0" RangeMax="0">
          0 0 0 0 0 0
          0 0 0 0 0 0
          0 0 0 0 0 0
          0 0 0 0 0 0
          0 0 0 0 0 0
          0 0 0 0 0 0
          0 0 0 0 0 0
          0 0 0 0 0 0
          0 0 0 0 0 0
          0 0 0 0 0 0
          0 0 0 0 0 0
          0 0 0 0 0 0
          0 0 0 0 0 0
          0 0 0 0 0 0
          0 0 0 0 0 0
          0 0 0 0 0 0
          0 0 0 0 0 0
          0 0 0 0 0 0
          0 0 0 0 0 0
          0 0 0 0 0 0
          0 0 0 0 0 0
          0 0 0 0 0 0
          0 0 0 0 0 0
          0 0 0 0 0 0
          0 0 0 0 0 0
          0 0 0 0 0 0
          0 0 0 0 0 0
          0 0 0 0 0 0
          0 0 0 0 0 0
          0 0 0 0 0 0
          0 0 0 0 0 0
          0 0 0 0 0 0
          0 0 0 0 0 0
          0 0 0 0 0 0
          0 0 0 0 0 0
          0 0 0 0 0 0
          0 0 0 0 0 0
          0 0 0 0 0 0
          0 0 0 0 0 0
          0 0 0 0 0 0
          0 0 0 0 0 0
          0 0 0 0 0 0
          0 0 0 0 0 0
          0 0 0 0 0 0
          0 0 0 0 0 0
          0 0 0 0 0 0
          0 0 0 0 0 0
          0 0 0 0 0 0
          0 0 0 0 0 0
          0 0 0 0 0 0
          0 0 0 0 0 0
          0 0 0 0 0 0
          0 0 0 0 0 0
          0 0 0 0 0 0
          0 0 0 0 0 0
          0 0 0 0 0 0
          0 0 0 0 0 0
          0 0 0 0 0 0
          0 0 0 0 0 0
          0 0 0 0 0 0
          0 0 0 0 0 0
          0 0 0 0 0 0
          0 0 0 0 0 0
          0 0 0 0 0 0
          0 0 0 0 0 0
          0 0 0 0 0 0
          0 0 0
        </DataArray>
        <DataArray type="Float64" Name="combo" format="ascii" RangeMin="0" RangeMax="1">
          1 0.5 0.875 0.75 0.375 1
          0 0 0.5 0.5 0.5 0.25
          0.375 0.6666666666666666 0.25 1 1 1
          1 1 1 1 1 1
          1 1 1 1 1 1
          1 0 0 0 0 0.3333333333333333
          0 0 0 0 0.5 0.5
          0.5 0.5 1 1 1 0.5
          0.5 1 0.75 0.625 1 0.5
          1 1 1 1 1 1
          1 1 1 1 1 1
          1 0.5 0.5 1 1 0.5
          0.5 1 0.5 1 0.5 1
          1 1 1 1 1 1
          0.75 1 1 1 1 1
          1 0 0 0 0 0.5
          0.5 0.5 0.5 1 1 1
          0.5 0.5 1 1 1 1
          1 1 1 1 1 1
          1 1 1 1 1 1
          1 1 1 1 1 1
          1 1 1 1 1 1
          1 1 1 1 1 1
          1 1 1 1 1 1
          1 1 1 1 1 1
          1 1 1 1 1 1
          1 1 1 1 1 1
          1 1 1 1 1 1
          1 1 1 1 1 1
          1 1 1 1 1 1
          1 1 1 1 1 1
          1 1 1 1 1 1
          1 1 1 1 1 1
          1 1 1 1 1 1
          1 1 1 1 1 1
          1 1 1 1 1 1
          1 1 1 1 1 1
          1 1 1 1 1 1
          1 1 1 1 1 1
          1 1 1 1 1 1
          1 1 1 1 1 1
          1 1 1 1 1 1
          1 1 1 1 1 1
          1 1 1 1 1 1
          1 1 1 1 1 1
          1 1 1 1 1 1
          1 1 1 1 1 1
          1 1 1 1 1 1
          1 1 1 1 1 1
          1 1 1 1 1 1
          1 1 1 1 1 1
          1 1 1 1 1 1
          1 1 1 1 1 1
          1 1 1 1 1 0.5
          1 1 1 1 1 1
          0.875 0.625 0.625 0.375 0.5 0.125
          0.5 0 0.5 0 0.5 0
          1 1 1 1 1 1
          1 1 1 1 1 1
          1 1 1 1 1 1
          1 1 1 1 1 1
          1 1 1 1 1 1
          1 1 1 1 1 1
          1 1 1 1 1 1
          1 1 1 1 1 1
          1 1 1 1 1 1
          1 1 1
        </DataArray>
        <DataArray type="Float64" Name="dHdT" format="ascii" RangeMin="25.813125551867444" RangeMax="34.7813900022711">
          25.81394091676138 25.838522340635127 25.847371789151477 29.248538353784028 26.226968435376875 25.81580480128166
          25.92369487635446 25.924997847239787 26.756189559736114 26.51639135071676 25.84928835232775 26.288086034752872
          26.159039752332347 25.97645506216121 27.5627031899124 25.818299388634287 25.822433541533616 25.86326575894733
          25.858217839671465 25.816078552853806 25.82069099459664 25.82242471275847 25.827046033374938 25.84880768008985
          25.82160750893124 26.786819837566213 26.230791881269692 25.903118333591127 25.849262903696747 25.836268292075502
          25.819254470199326 26.033307225062778 26.66742783249202 26.557479947000896 26.33526867169052 29.221321042017973
          26.00515109776495 26.128349750076527 26.03369421828178 26.770741307647643 25.983282944217336 25.967556946017556
          26.45966515718817 26.373681058930302 25.85988705498231 26.029814965960686 25.997381412084536 25.95977581821211
          26.194578753925242 25.934462073255048 28.138647169805438 27.708703661644563 26.58395419194938 26.921877931452688
          25.832408305239227 25.8322463910788 25.901165140714085 25.885146443960114 25.824256494684246 25.846136401414718
          25.84129018713896 25.83606409717662 25.85975669816602 25.832210607212133 26.275437557989438 26.16966783228849
          25.993445592638558 25.95222195431267 26.03656397086068 25.87482422076318 25.895839750552774 25.923722981837386
          25.97635075223335 25.8895488540745 26.336335205400683 25.99522570588617 26.078662266839242 25.839857958694736
          25.847668564190787 25.824311317466112 25.827271970268686 25.837316570824488 25.846864651078004 25.82718413156168
          34.7813900022711 25.816456650640475 25.815334184086 25.81482040927979 25.81422986797672 25.813184167919108
          25.813125551867444 25.8335554020984 25.848657940666428 25.851176524231704 25.853695107796973 25.82674390454786
          25.82860184136299 25.8435416615228 25.845014806489345 25.821418317171 25.831593107457138 25.832203603001854
          25.830459778178117 25.84648795145589 25.832814098546567 25.816794215056685 25.817476977488354 25.82112098338556
          25.821802404638753 25.815765601262292 25.817481134236004 25.818050692020787 25.818159739920027 25.822483825891947
          25.818620249805573 25.96153470708508 26.0387792737887 26.03130789515552 26.0114846055424 26.234253899312726
          25.93318236942371 25.929946284149693 25.991784531577146 25.985924378312813 25.881544425275347 25.918962771842615
          25.915490890199475 25.92086704056701 25.97035604004614 25.90649153770618 26.165248984093935 26.15106934158997
          26.02087419931395 26.11475644547988 25.932520799284287 25.985446974201214 25.97176125383998 26.132196819723053
          25.9089610362008 25.950807185420032 25.872028360449754 25.896194154119286 25.902898190143244 25.94096651579627
          25.891424241382545 26.067977647498054 25.96740145643804 26.04261117104501 26.63087775692039 26.59322229005149
          26.499858581858458 27.36219430976607 26.49530561624094 26.463367078391048 26.26968245541698 26.2471901439229
          26.38238954022882 26.188354486577975 27.206192701347874 27.127198651564434 26.729912474080976 26.931904340325826
          26.3772476992715 26.24928851353373 26.857805042772746 26.27660977877247 26.11230608932407 26.168351868946488
          26.037463747172723 26.686671337779707 26.4021111047451 26.447475819727373 25.856017986624018 25.8547891909038
          25.87801130519545 25.875796930794348 25.83872375227152 25.853435658109465 25.852188538188255 25.85233466652247
          25.87041307484391 25.852201634978787 25.950873410879947 25.944826906442664 25.897217153378957 25.92903743985804