<?xml version="1.0"?>
<VTKFile type="UnstructuredGrid" version="0.1" byte_order="LittleEndian" header_type="UInt32" compressor="vtkZLibDataCompressor">
  <UnstructuredGrid>
    <Piece NumberOfPoints="578" NumberOfCells="360">
      <PointData>
        <DataArray type="Int32" Name="libmesh_node_id" format="ascii" RangeMin="254" RangeMax="5319">
          254 440 975 989 990 991
          992 995 996 997 999 1000
          1005 1006 1756 1757 1758 1764
          1784 1792 1793 1794 1795 1812
          1813 1815 1818 1820 1821 1822
          1823 1824 1825 1826 1827 1828
          1829 1844 1845 1846 1847 1848
          1849 1850 1851 1852 1853 1864
          1865 1866 1867 1868 1869 1870
          1871 1872 1873 2157 2158 2159
          2160 2163 2164 2165 4666 4667
          4668 4669 4681 4682 4683 4724
          4725 4726 4727 4728 4729 4730
          4731 4732 4733 4734 4735 4736
          4737 4742 4743 4744 4745 4746
          4747 4748 4749 4750 4751 4874
          4875 4876 4877 4878 4879 4880
          4881 4882 4883 4891 4892 4893
          4894 4895 4896 4897 4908 4909
          4910 4911 4912 4913 4914 4915
          4916 4917 4925 4926 4927 4928
          4929 4930 4931 4932 4933 4934
          4935 4936 4937 4938 4939 4940
          4941 4942 4943 4944 4945 4946
          4947 4948 4949 4950 4951 4952
          4953 4954 4955 4956 4957 4958
          4959 4960 4961 4962 4963 4964
          4965 4966 4967 4968 4969 4970
          4971 4972 4973 4974 4975 4976
          4977 4978 4979 4980 4981 4982
          4983 4984 4985 4986 4987 4988
          4989 4990 4991 4992 4993 4994
          4995 4996 4997 4998 4999 5112
          5113 5114 5115 5116 5117 5118
          5119 5120 5121 5122 5123 5124
          5125 5126 5127 5128 5129 5130
          5131 5132 5133 5134 5135 5136
          5137 5138 5139 5140 5141 5142
          5143 5144 5145 5146 5147 5148
          5149 5150 5151 5152 5153 5154
          5155 5156 5157 5158 5159 5160
          5161 5162 5163 5164 5165 5166
          5167 5168 5169 5170 5171 5172
          5173 5174 5175 5176 5177 5178
          5179 5180 5181 5182 5183 5184
          5185 5186 5187 5188 5190 5191
          5194 5195 5197 5198 5199 5200
          5201 5202 5203 5204 5205 5206
          5217 5218 5219 5220 5221 5222
          5223 5224 5225 5226 5227 5228
          5229 5230 5231 5232 5233 5234
          5235 5236 5237 5238 5239 5240
          5241 5242 5243 5244 5245 5246
          5247 5248 5249 5250 5251 5252
          5253 5254 5255 5256 5257 5258
          5259 5260 5261 5262 5263 5264
          5265 5266 5267 5268 5269 5270
          5271 5272 5273 5274 5275 5276
          5277 5278 5279 5280 5281 5282
          5283 5284 5285 5286 5289 5290
          5292 5293 5294 5295 5296 5297
          5298 5306 5307 5310 5311 5313
          5314 5315 5316 5317 5318 5319
          967 970 971 968 435 977
          976 1752 1753 1754 1755 1759
          1761 1760 1762 1763 1765 1856
          1854 1857 1855 1001 2049 2050
          1002 2057 2058 1007 2133 2134
          2135 2136 2140 2141 2143 2144
          2146 2147 2148 2154 1862 2145
          2161 2162 2166 2167 1875 2171
          1879 4652 4660 4661 4653 1782
          4658 4662 4663 4664 4655 1783
          4665 4677 4671 4675 4678 4679
          4673 1785 4680 4718 4719 4720
          4721 4722 4723 1786 4700 4701
          4692 1788 4702 4703 1787 1789
          4738 4739 4740 4741 4715 4709
          4716 4717 1790 1791 4787 4781
          4791 4785 4788 4792 4836 4840
          4837 4841 4819 4813 4843 4820
          4844 4847 4848 4866 4867 4869
          1810 4872 1811 4885 4887 4889
          1814 4900 4901 4903 1816 4906
          1817 4919 4921 4923 1819 5007
          5001 5008 5011 5005 5012 5035
          5029 5036 5039 5033 5040 5056
          5057 5060 5061 5063 5064 5067
          5068 5084 5085 5088 5089 5091
          5092 5095 5096 432 4575 4576
          4440 4696 4697 4577 4578 1733
          4699 4586 4454 4712 4587 4588
          963 4714 4543 4816 1750 4818
          5189 1804 5192 4846 5193 5196
          1808 1861 5287 5066 5288 5291
          1838 1874 5308 5094 5309 5312
          1842 1878
        </DataArray>
        <DataArray type="Float64" Name="bounds" format="ascii" RangeMin="0" RangeMax="0">
          0 0 0 0 0 0
          0 0 0 0 0 0
          0 0 0 0 0 0
          0 0 0 0 0 0
          0 0 0 0 0 0
          0 0 0 0 0 0
          0 0 0 0 0 0
          0 0 0 0 0 0
          0 0 0 0 0 0
          0 0 0 0 0 0
          0 0 0 0 0 0
          0 0 0 0 0 0
          0 0 0 0 0 0
          0 0 0 0 0 0
          0 0 0 0 0 0
          0 0 0 0 0 0
          0 0 0 0 0 0
          0 0 0 0 0 0
          0 0 0 0 0 0
          0 0 0 0 0 0
          0 0 0 0 0 0
          0 0 0 0 0 0
          0 0 0 0 0 0
          0 0 0 0 0 0
          0 0 0 0 0 0
          0 0 0 0 0 0
          0 0 0 0 0 0
          0 0 0 0 0 0
          0 0 0 0 0 0
          0 0 0 0 0 0
          0 0 0 0 0 0
          0 0 0 0 0 0
          0 0 0 0 0 0
          0 0 0 0 0 0
          0 0 0 0 0 0
          0 0 0 0 0 0
          0 0 0 0 0 0
          0 0 0 0 0 0
          0 0 0 0 0 0
          0 0 0 0 0 0
          0 0 0 0 0 0
          0 0 0 0 0 0
          0 0 0 0 0 0
          0 0 0 0 0 0
          0 0 0 0 0 0
          0 0 0 0 0 0
          0 0 0 0 0 0
          0 0 0 0 0 0
          0 0 0 0 0 0
          0 0 0 0 0 0
          0 0 0 0 0 0
          0 0 0 0 0 0
          0 0 0 0 0 0
          0 0 0 0 0 0
          0 0 0 0 0 0
          0 0 0 0 0 0
          0 0 0 0 0 0
          0 0 0 0 0 0
          0 0 0 0 0 0
          0 0 0 0 0 0
          0 0 0 0 0 0
          0 0 0 0 0 0
          0 0 0 0 0 0
          0 0 0 0 0 0
          0 0 0 0 0 0
          0 0 0 0 0 0
          0 0 0 0 0 0
          0 0 0 0 0 0
          0 0 0 0 0 0
          0 0 0 0 0 0
          0 0 0 0 0 0
          0 0 0 0 0 0
          0 0 0 0 0 0
          0 0 0 0 0 0
          0 0 0 0 0 0
          0 0 0 0 0 0
          0 0 0 0 0 0
          0 0 0 0 0 0
          0 0 0 0 0 0
          0 0 0 0 0 0
          0 0 0 0 0 0
          0 0 0 0 0 0
          0 0 0 0 0 0
          0 0 0 0 0 0
          0 0 0 0 0 0
          0 0 0 0 0 0
          0 0 0 0 0 0
          0 0 0 0 0 0
          0 0 0 0 0 0
          0 0 0 0 0 0
          0 0 0 0 0 0
          0 0 0 0 0 0
          0 0 0 0 0 0
          0 0 0 0 0 0
          0 0 0 0 0 0
          0 0 0 0 0 0
          0 0
        </DataArray>
        <DataArray type="Float64" Name="gradient_error" format="ascii" RangeMin="3.1788058034414594e-12" RangeMax="1.1033805549604437e-8">
          1.063445006062247e-11 3.2358725415215325e-10 1.3017201800181706e-11 2.6415802726377446e-9 1.2496545477289032e-9 1.8491862842308492e-10
          9.182107492957359e-11 4.513766255904578e-9 2.184154369292828e-9 1.5539289207444174e-10 1.489607276200275e-11 9.690758168856017e-12
          2.2818820855506798e-11 1.433234304449736e-11 7.574709134340517e-12 1.267035443064767e-11 1.1615907520734732e-11 1.4164537819989799e-11
          2.2229644987882384e-9 7.72345568395056e-10 6.418108664236726e-10 1.5440041471840957e-10 3.6542222987419904e-10 3.960774216865568e-9
          3.3882008743671678e-9 1.8984985980878045e-9 3.892390725559203e-9 1.1806295334404862e-9 9.851395900877103e-10 2.812136602975582e-10
          2.3412438995598053e-10 5.513814019654634e-10 1.3604475327893068e-10 1.3585437056093846e-9 1.1367682605758253e-9 2.693477848791601e-10
          6.334763445516297e-10 1.998830382277851e-11 2.034445120408055e-11 8.722555400295544e-12 1.1998266146469433e-11 1.6755504386977232e-11
          1.2572170932541128e-11 3.8235188375051506e-11 3.244508846140226e-11 1.3274392799379515e-11 2.0450904539975477e-11 5.69824702337538e-11
          4.8046683642441425e-11 2.0486334935488652e-11 1.817869710327677e-11 2.957086571820481e-11 1.2961642829628654e-11 6.51786856913431e-11
          5.485634823738308e-11 2.0216516843300913e-11 3.3488749380341944e-11 1.7425199366793583e-11 1.584741655649626e-11 8.580185701535048e-12
          7.922936043686817e-12 1.91420630714065e-11 1.7399941962293012e-11 8.617142557521946e-12 4.45639191867176e-9 4.3004188211999045e-9
          2.537136918748735e-9 3.804809090784337e-9 3.0199061466107575e-9 1.751271235670204e-9 2.1583240320788062e-9 1.469499176761026e-9
          1.4070255119555595e-9 7.382869715193956e-10 1.2257444898064692e-9 2.813634764399109e-10 2.689067875977238e-10 1.3545944879902422e-10
          1.296259663855841e-10 2.345036246590075e-10 1.1359798759024514e-10 3.8617716586017617e-10 3.689935347991157e-10 1.7680068919516404e-10
          3.210922175688054e-10 9.634538104640196e-10 5.056437125669538e-10 6.902392031810891e-10 1.8710331505074447e-10 9.156667100363216e-11
          1.3848503649992595e-10 6.882033304655979e-11 2.5453574104906295e-10 1.2353615991080134e-10 1.8627440119128807e-10 5.5894855115611e-9
          5.418231172885804e-9 3.3525373945044454e-9 3.229697605006447e-9 4.834695748581486e-9 2.844746076560414e-9 6.53422163484113e-9
          6.360742060904506e-9 3.826607981669598e-9 5.721355822786548e-9 3.855373105861065e-9 2.244517771287346e-9 2.749375783477537e-9
          1.5941038416349263e-9 4.585558657570416e-9 2.679700336070833e-9 3.2689167680613283e-9 7.155929358288037e-9 6.987090643819274e-9
          4.369760006981379e-9 4.2304538940051454e-9 6.320915437967493e-9 3.760124992224632e-9 7.37206301599893e-9 7.206121760021832e-9
          4.373147764645179e-9 6.532709172059417e-9 5.085429247286692e-9 2.9798708230249626e-9 3.626513258884164e-9 2.1088954782007798e-9
          5.263238691433519e-9 3.0870938297827657e-9 3.754122938380168e-9 1.877893591842757e-9 1.8013775404934941e-9 9.897006513215685e-10
          9.469496337838977e-10 1.573578972128093e-9 8.238260817903228e-10 2.233102021231694e-9 2.1460712712156303e-9 1.1308321751299422e-9
          1.8804196418459016e-9 4.945495234251592e-10 4.726667911675999e-10 2.3604188916204354e-10 2.2562113979769657e-10 4.110069013556863e-10
          1.9667475321470802e-10 5.902010964998627e-10 5.643541938547704e-10 2.6880871659918946e-10 4.907796460802209e-10 1.2356150528448726e-9
          6.471677821138374e-10 8.794390367058693e-10 4.6408262451905033e-10 1.4769611945504824e-9 7.72855547494235e-10 1.0469726504997928e-9
          3.244375524729951e-10 1.5655847171271394e-10 2.354284998741786e-10 1.153608063709506e-10 3.8644479111972363e-10 1.857583157060581e-10
          2.788080080977863e-10 2.475126697510256e-9 2.3819066995849947e-9 1.3118003802901956e-9 1.2575022655940279e-9 2.0919756736588502e-9
          1.0968034727067582e-9 2.560963777687629e-9 2.4657495588842506e-9 1.3027114118908396e-9 2.1675200014837047e-9 6.561956124664816e-10
          6.277213008843342e-10 3.1242566593415936e-10 2.986784608525708e-10 5.460691731493983e-10 2.600595839401536e-10 6.797722403577264e-10
          6.503815102181919e-10 3.09366364910219e-10 5.658740495841715e-10 1.6441415167439262e-9 8.600546753582205e-10 1.162995234707236e-9
          6.118287164608313e-10 1.7040040390718702e-9 8.913076660109771e-10 1.2045440023218572e-9 4.2944200266887905e-10 2.0596244616692805e-10
          3.087939510329793e-10 1.502991874012354e-10 4.44850473207081e-10 2.1319629319021013e-10 3.1952416040322307e-10 2.8780865672495093e-11
          2.7742905178692195e-11 1.329492711932917e-11 1.2688052348690845e-11 2.4813772124284972e-11 1.3012685644930005e-11 4.3688926243582143e-11
          4.204248571207042e-11 1.9093912575921896e-11 3.741813128674577e-11 4.67691160562994e-12 4.585276632232196e-12 6.018032530652831e-12
          5.811278607695347e-12 3.3182847810988275e-12 3.829955910514967e-12 4.040384725795904e-12 4.493641658834451e-12 5.604524684737863e-12
          4.250813541076842e-12 8.995821109578773e-12 8.600511661892212e-12 5.589146380592332e-12 8.210896810422598e-12 2.0608778463950024e-11
          1.3460586198853473e-11 1.6046976320235838e-11 1.0635470203023704e-11 3.086051317013503e-11 1.6497768687256687e-11 2.386229457830513e-11
          6.299108674026769e-11 6.042708669724374e-11 2.8468169928688882e-11 2.731952038493672e-11 5.335549331227083e-11 2.4193623920547926e-11
          8.536094634677264e-11 8.17244549716105e-11 3.6685273841107255e-11 7.175618127607542e-11 1.2598033446896965e-11 1.2098762166081382e-11
          7.666390976201303e-12 7.45583995301998e-12 1.0755868571390462e-11 6.813197804875554e-12 1.6736061638956866e-11 1.610282682097568e-11
          9.733002438991025e-12 1.435723297951705e-11 4.35413984602359e-11 1.9935062143271725e-11 3.325380505357465e-11 1.5464869675648954e-11
          5.8070429980312865e-11 2.66018284578074e-11 4.389114958463951e-11 7.43399460841938e-12 8.954251118834136e-12 5.1989414631440535e-12
          5.7897354062179644e-12 5.8760255541615285e-12 7.054450974074004e-12 4.590941121756193e-12 1.1943494477872898e-11 7.312849745942715e-12
          9.349931592928515e-12 9.373112044579326e-12 1.1832034555151304e-11 6.7371470625231576e-12 8.18983928631689e-12 7.937408516204567e-12
          9.865073834050328e-12 7.154208785608329e-12 1.745507395911025e-11 9.680610143826143e-12 2.4236860033167967e-11 1.143821577127594e-11
          3.171435513340471e-11 1.4939836537598508e-11 4.444065370060328e-12 5.2601667525019305e-12 3.213459912984543e-12 3.5811619572151846e-12
          3.781782845779863e-12 4.407687537008998e-12 3.1788058034414594e-12 6.857128376397192e-12 4.4764427074849475e-12 5.656508566643543e-12
          1.0838231957207853e-10 1.0371159364279167e-10 4.821880570842357e-11 4.622505533256364e-11 9.084835625216796e-11 4.075948980222179e-11
          1.2868573298251096e-10 1.2310347883299765e-10 5.459793940008904e-11 1.0766955357141565e-10 2.0943460312841783e-11 2.012155807060414e-11
          1.2571113537816953e-11 1.2098505390384058e-11 1.786958508445344e-11 1.079677755967413e-11 2.4606573478055883e-11 2.362840706680473e-11
          1.4142710530238783e-11 2.0936237179109392e-11 7.312329049855703e-11 3.323200496996639e-11 5.4804461859374777e-11 2.5344009418547442e-11
          8.633430679106952e-11 3.9012602036028717e-11 6.430857746760625e-11 1.4783503175438138e-11 9.039370462979083e-12 1.148608799562714e-11
          7.10508709989486e-12 1.7239573428778947e-11 1.0476903983407242e-11 1.3307751487226446e-11 1.4270499777573705e-10 1.3649995090804318e-10
          6.302195864891702e-11 6.036822668145601e-11 1.1929369933787865e-10 5.30647264841131e-11 1.477176073307959e-10 1.412912054830822e-10
          6.242882920326033e-11 1.234520418491987e-10 2.7131256057711553e-11 2.60422235063923e-11 1.6176918747378486e-11 1.5553870407935424e-11
          2.3041525910192737e-11 1.381822974961854e-11 2.802774063739328e-11 2.6898876969968895e-11 1.604919747352762e-11 2.378837745450712e-11
          9.54469027912096e-11 4.298244701428426e-11 7.083494728868523e-11 3.246013400691922e-11 9.870425258659901e-11 4.4398538061956816e-11
          7.316264215863578e-11 1.8922007480072052e-11 1.1469601970709794e-11 1.455230343614852e-11 8.916782708378132e-12 1.951939312696559e-11
          1.1818966757969718e-11 1.4994293097227886e-11 3.918577077345824e-11 1.8333665310130664e-11 4.563846160336002e-11 2.1243447050278828e-11
          8.338864520697514e-12 5.430338386039363e-12 6.833045060476639e-12 4.7615856218500785e-12 9.584570677182843e-12 6.191586607111622e-12
          7.810551534805473e-12 5.003970533495302e-11 2.322010337421124e-11 5.159984795713176e-11 2.3917752274797117e-11 1.0432585647915627e-11
          6.7178320426420906e-12 8.47471851836589e-12 5.835665179202789e-12 1.0735770365009744e-11 6.909146229615596e-12 8.71499918302516e-12
          1.9987268507232186e-11 1.6869726777975763e-11 1.5922897585947624e-11 1.8386664916417207e-11 1.5152834015583745e-11 1.0253726947284642e-11
          1.7045864001390212e-11 1.64528464136297e-11 1.518600057234098e-11 1.3944976766729005e-11 1.2656460921060757e-11 1.2257427666419564e-11
          9.561651278987866e-12 1.4556514661346616e-11 1.177992436150867e-11 1.4073222406184741e-11 1.797469388017086e-11 1.1107672381340227e-11
          2.1156900788580176e-11 1.0900656529321987e-11 1.742869178737947e-11 8.095485578982489e-12 6.365091894753764e-12 5.89911547636436e-12
          6.579852368703945e-12 7.595159874843479e-12 6.9109903223171116e-12 8.398104144266507e-12 5.910659563659172e-12 5.591255985940254e-12
          8.244210001786281e-12 7.632805203624302e-12 4.908969221892618e-12 6.276605115309383e-12 1.314304805104703e-11 1.1984622786003926e-11
          9.265778669452897e-12 4.093865976787654e-12 4.905756526444369e-12 6.647617296742351e-12 1.2489091532655781e-11 6.122757521846871e-12
          1.201349154141995e-11 6.279529646505244e-12 1.3139666752660257e-11 8.269165025184939e-12 1.6238174212692453e-11 8.96074253298626e-12
          1.7763222978344804e-11 5.278542628536284e-9 3.2971537480665992e-9 3.169054365641175e-9 5.097111321195585e-9 7.014202833513678e-9
          6.8125586629456995e-9 1.9329872937064033e-9 1.8518677383917905e-9 2.7837123540678034e-9 4.522590359317417e-9 6.112422853405051e-9
          1.6161452962684185e-9 2.203654512573196e-9 3.61220361589476e-9 4.914776688286078e-9 1.274078123379719e-9 1.5832290828643984e-9
          2.606540590312917e-9 3.5398147141219598e-9 9.162969062587685e-10 1.0692143046238296e-9 1.0223556571631033e-9 5.613158551048822e-10
          5.363111931405455e-10 8.894193817083759e-10 4.665205990078949e-10 3.806683760089501e-10 1.9179100743405564e-10 1.8346681590545539e-10
          3.638092329462667e-10 9.308817692497918e-11 8.921678219480272e-11 1.6063455596239814e-10 3.1729330602936034e-10 7.85963021732127e-11
          7.013817546033547e-10 3.694379416657231e-10 5.073633359210389e-10 2.698899674991383e-10 1.2931892069880228e-10 2.532704436841083e-10
          6.396462310991697e-11 9.705933191653876e-11 1.8765148529937855e-10 4.871480109349116e-11 1.060600400870504e-9 1.7456161733594014e-9
          1.4285507731087035e-9 2.34786432711723e-9 6.173042194446423e-10 8.304578655814959e-10 3.453119947425661e-10 4.629888787536936e-10
          1.8626916612167505e-10 2.4846224396839257e-10 6.94658018559158e-11 1.3190408928323138e-10 9.723848606504745e-11 3.5290008309259625e-11
          4.918335154826641e-11 1.2880334235323971e-10 6.474827109842356e-11 8.645120214266443e-9 8.451855314537994e-9 7.679090902325759e-9
          9.943248547532324e-9 9.783430476146835e-9 8.99788921335322e-9 6.227025371802537e-9 4.489337824538238e-9 7.358060555204798e-9
          5.3160004664461625e-9 1.0758560697852223e-8 1.0636100023308984e-8 9.871799847433997e-9 1.1033805549604437e-8 1.0927365160508068e-8
          1.017661226574115e-8 8.124513657945124e-9 5.880912137746898e-9 8.395621692636871e-9 6.08177049425367e-9 1.8048021613199337e-9
          2.9602319706186646e-9 1.0488788886553768e-9 2.1347735072270513e-9 3.494332408419293e-9 1.2409279143972336e-9 2.361734612444943e-9
          3.860048202051272e-9 1.3733142654026475e-9 2.4427265860203545e-9 3.990212074927805e-9 1.4206150227732638e-9 5.834744272657563e-10
          3.11970135990474e-10 6.894068176687292e-10 3.6769848327216844e-10 1.6096895364494e-10 8.047466503162157e-11 1.8908227751290561e-10
          9.4148083623405e-11 7.624483973221495e-10 4.0607677358066236e-10 7.88551198406599e-10 4.197848403424412e-10 2.0839845756593827e-10
          1.0351170603719017e-10 2.1528997472341852e-10 1.0684622495027425e-10 3.7039046665649636e-11 1.7991070603972588e-11 1.736981814855948e-11
          3.564426261574611e-11 6.032389511760684e-11 5.792414396216704e-11 9.468323007797202e-12 1.561777641511792e-11 3.1800400926550906e-11
          5.133867610960474e-11 1.300446431392108e-11 2.6375185269521987e-11 4.225807092588163e-11 8.751323653604875e-12 1.1284232851486482e-11
          2.4404276393879194e-11 3.265079082704493e-11 1.8036111929394575e-11 2.398840402494651e-11 2.2293302466392897e-11 1.96216762142034e-11
          1.3504554201856494e-11 2.916617836241796e-11 1.696035636820185e-11 3.3830336255500634e-11 9.533215823553478e-12 2.2096239822175188e-11
          4.4101526391485175e-11 1.6042176062635786e-11 2.698852334233478e-11 5.418860453653087e-11 1.4829474093606613e-11 3.118471546927124e-11
          6.285749599247914e-11 2.193700564588581e-11 3.402310093497359e-11 6.874842054720725e-11 1.8588417019633388e-11 3.5021588981290905e-11
          7.083765726575829e-11 2.433781037326294e-11
        </DataArray>
        <DataArray type="Float64" Name="gradient_matprop_error" format="ascii" RangeMin="0" RangeMax="0">
          0 0 0 0 0 0
          0 0 0 0 0 0
          0 0 0 0 0 0
          0 0 0 0 0 0
          0 0 0 0 0 0
          0 0 0 0 0 0
          0 0 0 0 0 0
          0 0 0 0 0 0
          0 0 0 0 0 0
          0 0 0 0 0 0
          0 0 0 0 0 0
          0 0 0 0 0 0
          0 0 0 0 0 0
          0 0 0 0 0 0
          0 0 0 0 0 0
          0 0 0 0 0 0
          0 0 0 0 0 0
          0 0 0 0 0 0
          0 0 0 0 0 0
          0 0 0 0 0 0
          0 0 0 0 0 0
          0 0 0 0 0 0
          0 0 0 0 0 0
          0 0 0 0 0 0
          0 0 0 0 0 0
          0 0 0 0 0 0
          0 0 0 0 0 0
          0 0 0 0 0 0
          0 0 0 0 0 0
          0 0 0 0 0 0
          0 0 0 0 0 0
          0 0 0 0 0 0
          0 0 0 0 0 0
          0 0 0 0 0 0
          0 0 0 0 0 0
          0 0 0 0 0 0
          0 0 0 0 0 0
          0 0 0 0 0 0
          0 0 0 0 0 0
          0 0 0 0 0 0
          0 0 0 0 0 0
          0 0 0 0 0 0
          0 0 0 0 0 0
          0 0 0 0 0 0
          0 0 0 0 0 0
          0 0 0 0 0 0
          0 0 0 0 0 0
          0 0 0 0 0 0
          0 0 0 0 0 0
          0 0 0 0 0 0
          0 0 0 0 0 0
          0 0 0 0 0 0
          0 0 0 0 0 0
          0 0 0 0 0 0
          0 0 0 0 0 0
          0 0 0 0 0 0
          0 0 0 0 0 0
          0 0 0 0 0 0
          0 0 0 0 0 0
          0 0 0 0 0 0
          0 0 0 0 0 0
          0 0 0 0 0 0
          0 0 0 0 0 0
          0 0 0 0 0 0
          0 0 0 0 0 0
          0 0 0 0 0 0
          0 0 0 0 0 0
          0 0 0 0 0 0
          0 0 0 0 0 0
          0 0 0 0 0 0
          0 0 0 0 0 0
          0 0 0 0 0 0
          0 0 0 0 0 0
          0 0 0 0 0 0
          0 0 0 0 0 0
          0 0 0 0 0 0
          0 0 0 0 0 0
          0 0 0 0 0 0
          0 0 0 0 0 0
          0 0 0 0 0 0
          0 0 0 0 0 0
          0 0 0 0 0 0
          0 0 0 0 0 0
          0 0 0 0 0 0
          0 0 0 0 0 0
          0 0 0 0 0 0
          0 0 0 0 0 0
          0 0 0 0 0 0
          0 0 0 0 0 0
          0 0 0 0 0 0
          0 0 0 0 0 0
          0 0 0 0 0 0
          0 0 0 0 0 0
          0 0 0 0 0 0
          0 0 0 0 0 0
          0 0 0 0 0 0
          0 0
        </DataArray>
        <DataArray type="Float64" Name="initial_marker" format="ascii" RangeMin="0" RangeMax="2">
          0 2 0 2 2 2
          2 2 2 2 1 0
          1 0.5 0 0 0 0
          2 2 2 2 2 2
          2 2 2 2 2 2
          2 2 2 2 2 2
          2 2 1.75 0 0 1.25
          0 2 2 0.75 2 2
          2 1 1 2 0.5 2
          2 1 2 0 0 0
          0 0 0 0 2 2
          2 2 2 2 2 2
          2 2 2 2 2 2
          2 2 2 2 2 2
          2 2 2 2 2 2
          2 2 2 2 2 2
          2 2 2 2 2 2
          2 2 2 2 2 2
          2 2 2 2 2 2
          2 2 2 2 2 2
          2 2 2 2 2 2
          2 2 2 2 2 2
          2 2 2 2 2 2
          2 2 2 2 2 2
          2 2 2 2 2 2
          2 2 2 2 2 2
          2 2 2 2 2 2
          2 2 2 2 2 2
          2 2 2 2 2 2
          2 2 2 2 2 2
          2 2 2 2 2 2
          2 2 2 2 2 2
          2 2 2 2 2 2
          2 1.5 1.5 2 1.6666666666666667 2
          2 2 2 0 0 0.5
          0.5 0 0 0 0 0.5
          0 1 1 0 1 1.75
          1.5 1.5 1 2 2 2
          2 2 2 2 2 2
          2 2 2 2 1.5 1.5
          1 1 1.25 0.5 2 2
          2 1.75 2 2 2 1.75
          2 2 2 1 1 0
          0 0.5 0.75 0 1.25 0.5
          1 0.5 1 0 0.5 0
          0.5 0 1.75 1 2 1.25
          2 1.5 0 0.25 0 0
          0 0 0 0.5 0 0
          2 2 2 2 2 2
          2 2 2 2 2 2
          2 2 2 2 2 2
          2 2 2 2 2 2
          2 2 2 1.75 1.5 1.25
          0.5 2 2 1.5 2 2
          2 2 2 2 2 2
          2 2 2 2 2 2
          2 2 2 2 2 2
          2 2 2 2 2 2
          2 2 2 1.5 1 2
          2 1.5 2 1.75 2 2
          0.75 0 0.5 0 1 0
          1 2 2 2 2 1
          0 1 0 1 0 1
          0 0 0 0 0 0
          0 0 0 0 0 0
          0 0 0.5 0.5 0 0
          0 0 0.25 0 0 0
          0 0 0 0 0 0
          0 0 0 0 0 0
          0 0 0 0 0 0
          0 0 0 0 0 0
          0 2 2 2 2 2
          2 2 2 2 2 2
          2 2 2 2 2 2
          2 2 2 2 2 2
          2 2 2 2 2 2
          2 2 2 2 2 2
          2 2 2 2 2 2
          2 2 2 2 2 2
          2 2 2 2 2 2
          2 2 2 2 2 2
          2 2 2 2 2 2
          2 2 2 2 2 2
          2 2 2 2 2 2
          2 2 2 2 2 2
          2 2 2 2 2 2
          2 2 2 2 2 2
          2 2 2 2 2 2
          2 2 2 2 2 2
          2 2 2 2 1.5 1.5
          2 2 2 0.6666666666666666 1.5 2
          2 1.25 2 2 0.5 1
          1.75 2 1.6666666666666667 1.75 0.75 1.6666666666666667
          1.3333333333333333 1.75 1.5 2 0.6666666666666666 1.75
          2 0.75 2 2 1.6666666666666667 2
          2 1.5 2 2 2 2
          2 1.5
        </DataArray>
        <DataArray type="Float64" Name="markers_norefine" format="ascii" RangeMin="0" RangeMax="0">
          0 0 0 0 0 0
          0 0 0 0 0 0
          0 0 0 0 0 0
          0 0 0 0 0 0
          0 0 0 0 0 0
          0 0 0 0 0 0
          0 0 0 0 0 0
          0 0 0 0 0 0
          0 0 0 0 0 0
          0 0 0 0 0 0
          0 0 0 0 0 0
          0 0 0 0 0 0
          0 0 0 0 0 0
          0 0 0 0 0 0
          0 0 0 0 0 0
          0 0 0 0 0 0
          0 0 0 0 0 0
          0 0 0 0 0 0
          0 0 0 0 0 0
          0 0 0 0 0 0
          0 0 0 0 0 0
          0 0 0 0 0 0
          0 0 0 0 0 0
          0 0 0 0 0 0
          0 0 0 0 0 0
          0 0 0 0 0 0
          0 0 0 0 0 0
          0 0 0 0 0 0
          0 0 0 0 0 0
          0 0 0 0 0 0
          0 0 0 0 0 0
          0 0 0 0 0 0
          0 0 0 0 0 0
          0 0 0 0 0 0
          0 0 0 0 0 0
          0 0 0 0 0 0
          0 0 0 0 0 0
          0 0 0 0 0 0
          0 0 0 0 0 0
          0 0 0 0 0 0
          0 0 0 0 0 0
          0 0 0 0 0 0
          0 0 0 0 0 0
          0 0 0 0 0 0
          0 0 0 0 0 0
          0 0 0 0 0 0
          0 0 0 0 0 0
          0 0 0 0 0 0
          0 0 0 0 0 0
          0 0 0 0 0 0
          0 0 0 0 0 0
          0 0 0 0 0 0
          0 0 0 0 0 0
          0 0 0 0 0 0
          0 0 0 0 0 0
          0 0 0 0 0 0
          0 0 0 0 0 0
          0 0 0 0 0 0
          0 0 0 0 0 0
          0 0 0 0 0 0
          0 0 0 0 0 0
          0 0 0 0 0 0
          0 0 0 0 0 0
          0 0 0 0 0 0
          0 0 0 0 0 0
          0 0 0 0 0 0
          0 0 0 0 0 0
          0 0 0 0 0 0
          0 0 0 0 0 0
          0 0 0 0 0 0
          0 0 0 0 0 0
          0 0 0 0 0 0
          0 0 0 0 0 0
          0 0 0 0 0 0
          0 0 0 0 0 0
          0 0 0 0 0 0
          0 0 0 0 0 0
          0 0 0 0 0 0
          0 0 0 0 0 0
          0 0 0 0 0 0
          0 0 0 0 0 0
          0 0 0 0 0 0
          0 0 0 0 0 0
          0 0 0 0 0 0
          0 0 0 0 0 0
          0 0 0 0 0 0
          0 0 0 0 0 0
          0 0 0 0 0 0
          0 0 0 0 0 0
          0 0 0 0 0 0
          0 0 0 0 0 0
          0 0 0 0 0 0
          0 0 0 0 0 0
          0 0 0 0 0 0
          0 0 0 0 0 0
          0 0 0 0 0 0
          0 0
        </DataArray>
        <DataArray type="Float64" Name="markers_mustrefine" format="ascii" RangeMin="0" RangeMax="2">
          0 2 0 2 2 2
          2 2 2 2 1 0
          1 0.5 0 0 0 0
          2 2 2 2 2 2
          2 2 2 2 2 2
          2 2 2 2 2 2
          2 2 1.75 0 0 1.25
          0 2 2 0.75 2 2
          2 1 1 2 0.5 2
          2 1 2 0 0 0
          0 0 0 0 2 2
          2 2 2 2 2 2
          2 2 2 2 2 2
          2 2 2 2 2 2
          2 2 2 2 2 2
          2 2 2 2 2 2
          2 2 2 2 2 2
          2 2 2 2 2 2
          2 2 2 2 2 2
          2 2 2 2 2 2
          2 2 2 2 2 2
          2 2 2 2 2 2
          2 2 2 2 2 2
          2 2 2 2 2 2
          2 2 2 2 2 2
          2 2 2 2 2 2
          2 2 2 2 2 2
          2 2 2 2 2 2
          2 2 2 2 2 2
          2 2 2 2 2 2
          2 2 2 2 2 2
          2 2 2 2 2 2
          2 2 2 2 2 2
          2 1.5 1.5 2 1.6666666666666667 2
          2 2 2 0 0 0.5
          0.5 0 0 0 0 0.5
          0 1 1 0 1 1.75
          1.5 1.5 1 2 2 2
          2 2 2 2 2 2
          2 2 2 2 1.5 1.5
          1 1 1.25 0.5 2 2
          2 1.75 2 2 2 1.75
          2 2 2 1 1 0
          0 0.5 0.75 0 1.25 0.5
          1 0.5 1 0 0.5 0
          0.5 0 1.75 1 2 1.25
          2 1.5 0 0.25 0 0
          0 0 0 0.5 0 0
          2 2 2 2 2 2
          2 2 2 2 2 2
          2 2 2 2 2 2
          2 2 2 2 2 2
          2 2 2 1.75 1.5 1.25
          0.5 2 2 1.5 2 2
          2 2 2 2 2 2
          2 2 2 2 2 2
          2 2 2 2 2 2
          2 2 2 2 2 2
          2 2 2 1.5 1 2
          2 1.5 2 1.75 2 2
          0.75 0 0.5 0 1 0
          1 2 2 2 2 1
          0 1 0 1 0 1
          0 0 0 0 0 0
          0 0 0 0 0 0
          0 0 0.5 0.5 0 0
          0 0 0.25 0 0 0
          0 0 0 0 0 0
          0 0 0 0 0 0
          0 0 0 0 0 0
          0 0 0 0 0 0
          0 2 2 2 2 2
          2 2 2 2 2 2
          2 2 2 2 2 2
          2 2 2 2 2 2
          2 2 2 2 2 2
          2 2 2 2 2 2
          2 2 2 2 2 2
          2 2 2 2 2 2
          2 2 2 2 2 2
          2 2 2 2 2 2
          2 2 2 2 2 2
          2 2 2 2 2 2
          2 2 2 2 2 2
          2 2 2 2 2 2
          2 2 2 2 2 2
          2 2 2 2 2 2
          2 2 2 2 2 2
          2 2 2 2 2 2
          2 2 2 2 1.5 1.5
          2 2 2 0.6666666666666666 1.5 2
          2 1.25 2 2 0.5 1
          1.75 2 1.6666666666666667 1.75 0.75 1.6666666666666667
          1.3333333333333333 1.75 1.5 2 0.6666666666666666 1.75
          2 0.75 2 2 1.6666666666666667 2
          2 1.5 2 2 2 2
          2 1.5
        </DataArray>
        <DataArray type="Float64" Name="gradient_marker" format="ascii" RangeMin="1" RangeMax="1">
          1 1 1 1 1 1