<?xml version="1.0"?>
<VTKFile type="UnstructuredGrid" version="0.1" byte_order="LittleEndian" header_type="UInt32" compressor="vtkZLibDataCompressor">
  <UnstructuredGrid>
    <Piece NumberOfPoints="565" NumberOfCells="349">
      <PointData>
        <DataArray type="Int32" Name="libmesh_node_id" format="ascii" RangeMin="252" RangeMax="3498">
          252 311 407 408 411 414
          803 804 806 807 809 810
          811 812 813 814 832 833
          834 846 847 848 849 850
          852 853 854 862 863 864
          865 866 867 868 871 872
          877 879 880 882 904 906
          917 918 921 923 924 926
          937 939 941 943 1160 1162
          1163 1164 1165 1167 1169 1170
          1171 1237 1239 1244 1245 1246
          1247 1248 1249 1250 1251 1252
          1253 1255 1257 1259 1261 1262
          1263 1264 1265 1266 1267 1273
          1278 1279 1280 1281 1282 1283
          1284 1285 1286 1287 1289 1291
          1293 1295 1296 1297 1298 1299
          1300 1301 1307 1309 1310 1311
          1313 1315 1317 1319 1320 1321
          1322 1323 1324 1325 1335 1336
          1337 1338 1342 1343 1345 1346
          1347 1348 1351 1353 1460 1461
          1462 1463 1464 1465 1466 1467
          1468 1469 1470 1471 1474 1476
          1477 1479 1480 1481 1482 1483
          1484 1485 1486 1487 1489 1491
          1493 1494 1495 1496 1497 1498
          1499 1500 1501 1502 1503 1504
          1505 1508 1510 1511 1513 1514
          1515 1516 1517 1518 1519 1520
          1521 1523 1525 1527 1596 1597
          1598 1608 1609 1610 1611 1612
          1613 1614 2420 2448 2450 2452
          2456 2458 2459 2460 2461 2462
          2463 2464 2465 2466 2467 2470
          2471 2473 2476 2478 2479 2480
          2481 2482 2483 2484 2485 2486
          2487 2488 2489 2490 2491 2492
          2493 2494 2495 2496 2497 2498
          2499 2500 2501 2504 2506 2507
          2508 2509 2510 2511 2540 2542
          2544 2574 2576 2578 2582 2583
          2585 2588 2590 2591 2592 2593
          2594 2595 2596 2597 2598 2599
          2600 2601 2602 2603 2604 2605
          2606 2607 2608 2609 2610 2611
          2612 2613 2616 2617 2619 2622
          2624 2625 2626 2627 2628 2629
          2630 2631 2632 2633 2634 2635
          2636 2637 2638 2639 2640 2641
          2642 2643 2644 2645 2646 2647
          2654 2656 2658 2668 2670 2672
          2674 2675 2676 2677 2678 2679
          2680 2681 2682 2683 2684 2685
          2686 2687 2688 2689 2690 2691
          2692 2693 2694 2695 2696 2697
          2698 2699 2700 2701 3206 3207
          3208 3209 3210 3211 3212 3213
          3214 3215 3216 3217 3218 3219
          3220 3221 3222 3223 3224 3225
          3226 3227 3228 3229 3230 3231
          3232 3233 3234 3235 3236 3237
          3238 3239 3240 3241 3242 3243
          3244 3245 3246 3247 3248 3249
          3250 3251 3252 3253 3254 3255
          3256 3257 3262 3263 3264 3268
          3269 3270 3271 3272 3273 3274
          3275 3276 3277 3288 3289 3290
          3291 3292 3293 3294 3302 3303
          3304 3305 3306 3307 3308 3309
          3310 3314 3315 3316 3317 3318
          3319 3320 3321 3322 3323 3324
          3325 3326 3327 3328 3329 3330
          3331 3332 3333 3334 3335 3336
          3337 3338 3339 3340 3341 3342
          3343 3344 3345 3346 3347 3348
          3349 3350 3351 3352 3353 3354
          3355 3356 3357 3358 3359 3360
          3361 3362 3363 3364 3365 3366
          3367 3368 3369 3370 3371 3372
          3373 3374 3375 3376 3377 3378
          3379 3380 3381 3382 3383 3384
          3385 3386 3387 3388 3389 3390
          3391 3402 3403 3404 3405 3406
          3407 3408 3416 3417 3418 3419
          3420 3421 3422 3423 3424 3425
          3436 3437 3438 3439 3440 3441
          3442 3450 3451 3452 3453 3454
          3455 3456 3457 3458 3459 3460
          3461 3462 3463 3464 3465 3466
          3467 3468 3469 3470 3471 3472
          3473 3474 3475 3476 3477 3478
          3479 3480 3481 3482 3483 3484
          3492 3493 3494 3495 3496 3497
          3498
        </DataArray>
        <DataArray type="Float64" Name="bounds" format="ascii" RangeMin="0" RangeMax="0">
          0 0 0 0 0 0
          0 0 0 0 0 0
          0 0 0 0 0 0
          0 0 0 0 0 0
          0 0 0 0 0 0
          0 0 0 0 0 0
          0 0 0 0 0 0
          0 0 0 0 0 0
          0 0 0 0 0 0
          0 0 0 0 0 0
          0 0 0 0 0 0
          0 0 0 0 0 0
          0 0 0 0 0 0
          0 0 0 0 0 0
          0 0 0 0 0 0
          0 0 0 0 0 0
          0 0 0 0 0 0
          0 0 0 0 0 0
          0 0 0 0 0 0
          0 0 0 0 0 0
          0 0 0 0 0 0
          0 0 0 0 0 0
          0 0 0 0 0 0
          0 0 0 0 0 0
          0 0 0 0 0 0
          0 0 0 0 0 0
          0 0 0 0 0 0
          0 0 0 0 0 0
          0 0 0 0 0 0
          0 0 0 0 0 0
          0 0 0 0 0 0
          0 0 0 0 0 0
          0 0 0 0 0 0
          0 0 0 0 0 0
          0 0 0 0 0 0
          0 0 0 0 0 0
          0 0 0 0 0 0
          0 0 0 0 0 0
          0 0 0 0 0 0
          0 0 0 0 0 0
          0 0 0 0 0 0
          0 0 0 0 0 0
          0 0 0 0 0 0
          0 0 0 0 0 0
          0 0 0 0 0 0
          0 0 0 0 0 0
          0 0 0 0 0 0
          0 0 0 0 0 0
          0 0 0 0 0 0
          0 0 0 0 0 0
          0 0 0 0 0 0
          0 0 0 0 0 0
          0 0 0 0 0 0
          0 0 0 0 0 0
          0 0 0 0 0 0
          0 0 0 0 0 0
          0 0 0 0 0 0
          0 0 0 0 0 0
          0 0 0 0 0 0
          0 0 0 0 0 0
          0 0 0 0 0 0
          0 0 0 0 0 0
          0 0 0 0 0 0
          0 0 0 0 0 0
          0 0 0 0 0 0
          0 0 0 0 0 0
          0 0 0 0 0 0
          0 0 0 0 0 0
          0 0 0 0 0 0
          0 0 0 0 0 0
          0 0 0 0 0 0
          0 0 0 0 0 0
          0 0 0 0 0 0
          0 0 0 0 0 0
          0 0 0 0 0 0
          0 0 0 0 0 0
          0 0 0 0 0 0
          0 0 0 0 0 0
          0 0 0 0 0 0
          0 0 0 0 0 0
          0 0 0 0 0 0
          0 0 0 0 0 0
          0 0 0 0 0 0
          0 0 0 0 0 0
          0 0 0 0 0 0
          0 0 0 0 0 0
          0 0 0 0 0 0
          0 0 0 0 0 0
          0 0 0 0 0 0
          0 0 0 0 0 0
          0 0 0 0 0 0
          0 0 0 0 0 0
          0 0 0 0 0 0
          0 0 0 0 0 0
          0
        </DataArray>
        <DataArray type="Float64" Name="gradient_error" format="ascii" RangeMin="8.700996910077294e-9" RangeMax="3.721721448957135e-7">
          1.130928045819991e-8 2.9001691911952227e-7 3.721721448957135e-7 2.9995629904880357e-7 1.7520711912848587e-7 1.5567487667845454e-7
          3.6379505935170924e-7 3.243387005952524e-7 3.4706685786352307e-7 3.017173674548276e-7 2.242427053690203e-7 1.939227783515453e-7
          3.535734879623884e-7 3.144869786171364e-7 3.182992488152969e-7 3.287757290044906e-7 2.7623940192384607e-7 2.3312646193235013e-7
          1.63390642382451e-7 4.757614675919145e-8 1.5777363287247086e-8 6.035369967373949e-8 2.234461607551638e-7 2.2239667178585213e-7
          1.1856204638122425e-8 1.9273499632040908e-8 1.3449914237854136e-7 2.8919843714577354e-7 2.453044984576249e-7 2.730003702299514e-7
          2.1101768904264557e-7 2.0355372788735636e-7 1.6567406430352507e-7 3.2335558825632973e-7 3.057508296861678e-7 2.579348385861262e-7
          1.5244073274673823e-7 3.631515826531813e-7 2.9474426241187295e-7 2.442070382064054e-7 1.7564555955416305e-7 8.152336818446357e-8
          2.4521403890131662e-8 7.284612326094198e-8 1.957964805467958e-7 1.331294058126912e-8 3.129368373701801e-8 1.5905324871408524e-7
          1.8411041289517723e-7 1.435127407445969e-7 1.1756386023431594e-7 1.7478954628911975e-7 1.2934092368243732e-7 1.4875800804889777e-7
          1.440971076297771e-7 1.5935362959804935e-7 1.2873925488035363e-7 1.008001139541848e-7 1.0523456598032159e-7 1.0751583238172474e-7
          9.242682941059234e-8 7.34226032906376e-8 9.813363301868168e-8 8.422051298499982e-8 8.208477570499606e-8 9.411237978023375e-8
          9.123827055315839e-8 1.0807371667312951e-7 1.1782458109385257e-7 1.2470666144517316e-8 1.4682145904045996e-8 1.7840395746719378e-8
          5.361143838718785e-8 1.1512385656680848e-7 1.0571613752531105e-7 1.0472897980773593e-7 1.2354240947131487e-7 1.3036283004647586e-7
          1.1056087258216976e-7 1.1273971951939573e-7 1.1535131440991794e-7 1.2504728873835182e-7 1.300260963756133e-7 1.3656780657964192e-8
          1.0229017285392744e-8 1.222595693762018e-8 1.3526548091326104e-8 1.6741480430155543e-8 1.6041954489215017e-8 1.9895373850871645e-8
          8.700996910077294e-9 1.1626943983381304e-8 1.612998514706618e-8 1.4745109912473236e-8 8.17862731049882e-8 1.2837400701345896e-7
          8.323589295592409e-8 9.165080328971191e-8 1.0128810216619864e-7 1.3833019204096553e-7 1.461676300449655e-7 9.389813035701746e-8
          1.0474748969428366e-7 1.4596869739538472e-7 9.256613372158262e-8 9.262680322511298e-8 9.020059002597888e-8 8.050846304829384e-8
          9.756091550928501e-8 8.302124557890823e-8 1.025556972969874e-7 9.826188243916036e-8 9.630391276828084e-8 8.097596627675438e-8
          7.674259332719737e-8 1.0389696165320775e-7 1.0240723551058282e-7 8.144346950521491e-8 1.828257436744037e-7 1.7316003935957955e-7
          1.8126251466526167e-7 1.4408487952787492e-7 1.9260052561589064e-7 1.7906333853711498e-7 1.3801319151805883e-7 1.0649949553395924e-7
          1.0095615698479209e-7 8.832356705692404e-8 9.061281950932252e-8 7.072540744086674e-8 1.0349480999260126e-7 9.968798007455586e-8
          1.104173346205376e-7 1.0537653774156103e-7 1.2568601768589736e-7 1.2897299486104592e-7 2.0157053049468306e-8 2.2244977972658257e-8
          2.7237021431219174e-8 6.730386629036755e-8 1.1166494204517474e-7 1.0549808784155591e-7 1.2461824846550587e-7 2.790164548877324e-8
          3.184153994104697e-8 7.465228749558408e-8 1.3387502351036134e-7 1.3159674115412153e-7 1.1113426679651758e-7 1.0411095441962144e-7
          1.319418853202901e-7 1.3288630307329964e-7 1.3701924663920114e-7 1.217965164136604e-7 9.166857095878376e-8 1.2464699517327314e-7
          1.1769938617849964e-7 1.6932519961261196e-8 2.2326821287751986e-8 1.9755057493947464e-8 2.8567526927127386e-8 2.5067055864756953e-8
          3.1009178063973725e-8 1.331024362428286e-8 2.180586817118158e-8 2.8134324773185686e-8 2.5034692123483626e-8 2.2161385377550936e-8
          3.45027510410921e-8 3.6669632147038175e-8 1.1227245980973689e-8 3.4165152174791096e-8 3.760406445416818e-8 1.0899713423479969e-7
          1.1178916366927942e-7 1.4980825529170765e-7 1.4641169936653468e-7 1.1412968856531287e-7 1.192206897023341e-7 1.6106012389266913e-7
          1.0637267824863671e-7 1.3358638454395384e-7 1.1531947239815699e-7 1.4692955705850863e-7 8.459601871116946e-8 7.556631805426503e-8
          6.99056134711253e-8 9.089689931888353e-8 8.167728923979255e-8 6.99310135820536e-8 6.059727791792596e-8 9.71977799265976e-8
          8.778826042532008e-8 6.995641369298192e-8 1.7512337522210115e-8 1.7401215797212458e-8 1.772310460976407e-8 1.549847518875492e-8
          1.9713417403824072e-8 2.0876327587009333e-8 2.100590219578014e-8 2.2284733393846764e-8 2.1556200192578455e-8 1.8750225284521753e-8
          2.0105918717412764e-8 1.8510694396069586e-8 2.1624703186071504e-8 2.3260149910754176e-8 2.1272482791537044e-8 1.6472298523732544e-8
          1.6916836051371045e-8 1.8269911925374666e-8 1.3038198376426048e-8 1.7569598201196287e-8 1.8040786797936887e-8 1.8937594942626753e-8
          1.9411427914446253e-8 1.9503175279511928e-8 2.0944358589533003e-8 1.3937103663654739e-8 1.449351946631922e-8 1.6308134383434186e-8
          1.6090949252360723e-8 1.852302227504774e-8 1.9744193659826298e-8 1.897479030789121e-8 2.0309937047912813e-8 1.6344657189824383e-8
          1.742476092091091e-8 1.8554908430419994e-8 2.112231996541807e-8 2.2665716823181325e-8 2.1750264766489783e-8 2.3327977353562396e-8
          1.8788523494652726e-8 2.04691400003899e-8 2.1212892513200628e-8 1.8397421759898107e-8 1.973372538331328e-8 2.1162381918824062e-8
          1.9638062568524355e-8 2.271070102550057e-8 2.4367786316892232e-8 2.2672892018534668e-8 1.2237224650053348e-8 1.5841996916173318e-8
          1.0297068634140857e-8 9.73234380507483e-9 1.2266219383291482e-8 9.638143336679601e-9 1.126065332594463e-8 1.1658778169364258e-8
          1.2673412563759907e-8 1.086623495991997e-8 1.3077455670377471e-8 1.3557722550804142e-8 1.5036322810393928e-8 1.5662710884428293e-8
          1.4656729455450052e-8 1.6947423168003617e-8 1.1823636449037362e-8 1.2644041393129215e-8 1.4603510350433107e-8 1.434058082470912e-8
          1.3188107820886774e-8 1.4553367056890322e-8 1.681530503984777e-8 1.8044257753863143e-8 1.1725359692615082e-8 1.353801193838966e-8
          1.4662548996345356e-8 1.6330731471107668e-8 1.8493708592090022e-8 1.9545396698393493e-8 2.136832003478571e-8 1.571784439997559e-8
          1.8242912476818743e-8 1.7788534005016614e-8 9.158738995822462e-9 1.0006170471456892e-8 1.181447223432976e-8 9.641285307868284e-9
          1.0556670627421559e-8 1.1661123345835248e-8 1.1983902429310872e-8 1.345813107269914e-8 1.3911264306034924e-8 1.6316542747005105e-8
          1.0009641185597111e-8 1.1238241474475544e-8 1.2956516881566017e-8 1.3723077735275668e-8 1.140871980514769e-8 1.3406782794140722e-8
          1.3461379141228363e-8 1.502801570233813e-8 1.1349440752763731e-8 1.3377222585700773e-8 1.3115350833687984e-8 1.5727234747553733e-8
          1.8387321119761503e-8 1.6999452157490058e-8 1.9356192418235342e-8 1.572313339283082e-8 1.8409238204894225e-8 1.6807314302654183e-8
          1.824091473190426e-8 1.868110311992999e-8 1.7498662861480717e-8 1.6535510470197296e-8 1.884283930749789e-8 1.6158102921343575e-8
          1.951890103918305e-8 2.0938053801799928e-8 2.0060319641905554e-8 2.160440409491827e-8 1.8665445373898754e-8 2.0072683720751497e-8
          2.0456576551168044e-8 2.251572997946514e-8 2.4253899229876104e-8 2.3326660024689338e-8 2.5152828196816253e-8 2.171695644012379e-8
          2.3606793725353664e-8 2.407581835796836e-8 1.7680161427407973e-8 1.9120173038142182e-8 2.0430034474484047e-8 2.222253773832135e-8
          1.7333508802071257e-8 1.880870431955715e-8 2.042949256191875e-8 2.0851845243271238e-8 2.2877014104539196e-8 2.4102303118848924e-8
          2.611555983420791e-8 2.0590536539724613e-8 2.2680452901231036e-8 2.4033397552605137e-8 2.2988779890659707e-8 2.3470690219228736e-8
          2.478250348222728e-8 2.465294076148283e-8 2.570461583202366e-8 2.635590054571269e-8 2.8075794679426045e-8 2.7859228208746636e-8
          2.489333264314056e-8 2.6524443087916255e-8 2.443338431111323e-8 2.8088446504275344e-8 2.943304792718042e-8 2.7465621850459137e-8
          2.0481838955970512e-8 2.0969745480405413e-8 2.2216960186899547e-8 2.272344256767792e-8 2.2552029476212122e-8 2.4330093466704334e-8
          1.7896464332429948e-8 1.8433277257768712e-8 2.0750780266207067e-8 1.9913336370982162e-8 2.4114685999117306e-8 2.463399533516832e-8
          2.6022760640573696e-8 2.6570703809654027e-8 2.6249390278948898e-8 2.8205130465879382e-8 2.2404759122416084e-8 2.3116906025817674e-8
          2.5405344001998196e-8 2.4727107409154247e-8 2.4325434138368054e-8 2.609577271738979e-8 2.500446132915218e-8 2.6761283449827204e-8
          2.2456530716959093e-8 2.4700998919082043e-8 2.4770409927267006e-8 2.7923436960279378e-8 2.969558321744766e-8 2.850139803388029e-8
          3.009955248187092e-8 2.7110085132793587e-8 2.959213292393325e-8 2.9098248929584523e-8 2.9133313197081327e-8 2.972564634540803e-8
          3.1206981009136435e-8 3.0911529135638805e-8 3.033842089673867e-8 3.063949470739486e-8 2.9171763015934462e-8 2.774670381985547e-8
          2.8359366635947245e-8 2.9168789829513997e-8 2.9894644294566285e-8 3.0049750775793255e-8 3.163265461119747e-8 2.6392542922794747e-8
          2.748752157009369e-8 2.9247943030949952e-8 2.9657497065125036e-8 3.1223515119064936e-8 3.2307820398516597e-8 3.131955813858237e-8
          3.1970830334256824e-8 3.201874942713907e-8 3.421423828072723e-8 3.342112916289972e-8 2.6067734208123513e-8 2.779315942491128e-8
          2.5937196384568673e-8 2.944972738534313e-8 3.090158898641908e-8 2.879472473492858e-8 3.191642685579215e-8 3.222350023830761e-8
          3.017947610572653e-8 1.707735551197363e-8 1.7926633345674097e-8 1.9166264109852397e-8 2.0301688978400464e-8 1.9499775174592516e-8
          2.2270458907079243e-8 1.5262570976584255e-8 1.6698005122407722e-8 1.8855675126954118e-8 1.9414110755141466e-8 2.1229344919849827e-8
          2.2715396465197872e-8 2.318970201313868e-8 2.5079120851857535e-8 2.5175443660766694e-8 2.8100141323819474e-8 1.8442126644107783e-8
          2.0995967873151643e-8 2.305906779634878e-8 2.5412840669284595e-8 2.0987635925673033e-8 2.374739665459719e-8 2.3519172964394556e-8
          2.592281586417237e-8 2.107245674695927e-8 2.4161893842921824e-8 2.2343598763400682e-8 2.6665581429013986e-8 2.961562271041375e-8
          2.846575528118597e-8 3.106026662853227e-8 2.743125076361514e-8 3.0729506503549115e-8 2.7986771075052983e-8 1.332729174342148e-8
          1.532859392748659e-8 1.4443408681518388e-8 1.717660620393189e-8 1.9021003415980113e-8 2.1982141366983546e-8 1.2466121914043121e-8
          1.4716690527550595e-8 1.6408061231470897e-8 1.883778111983941e-8 1.5185083991793852e-8 1.8890754096190148e-8 1.544181371992179e-8
          2.0367940805965678e-8 2.5119855149515135e-8 2.8311719364170757e-8 1.3659842456450578e-8 1.7898643449461353e-8 1.903091265883448e-8
          2.4950253812837148e-8 2.1386743596863026e-8 2.46853529715519e-8 2.2035662915431454e-8 2.495032033103239e-8 2.1448319750830936e-8
          2.4806816075153785e-8 2.205462851554572e-8 2.820067101260525e-8 3.177835540784961e-8 2.8023472271839555e-8 3.1193364635654145e-8
          2.840826050670445e-8 3.210279588927689e-8 2.8126126670219042e-8 2.5002064424502534e-8 2.730219131333713e-8 2.666484160323616e-8
          2.9305481215544687e-8 3.0891166435120814e-8 3.3353775062534775e-8 2.0940168881121088e-8 2.5038105390453098e-8 2.6969189744837124e-8
          3.164932050886538e-8 3.2460045319024496e-8 3.50690739542342e-8 3.3564711427649465e-8 3.573750038737969e-8 3.3865420772111904e-8
          3.665559651754071e-8 3.3987179523139115e-8 1.5266753890957635e-8 2.160131749499404e-8 1.520770166129029e-8 2.287202432424978e-8
          3.143286143189094e-8 3.440685596880079e-8 1.223230746571827e-8 1.9748850622055235e-8 2.0503053108010924e-8 3.1222393001990385e-8
          3.515972234675647e-8 3.81100191525031e-8 3.438467248114819e-8 3.733834294202679e-8 3.557980427445119e-8 3.859466270657706e-8
          3.452639165758264e-8 2.6107761686464807e-8 2.8031155641349096e-8 2.6928810125676113e-8 2.8607668896337865e-8 2.5712948452726193e-8
          2.796283963421237e-8 2.8188830630517817e-8 2.991179267138147e-8 3.1636989454675144e-8 3.007379832743148e-8 3.11529481160507e-8
          3.023135326414647e-8 3.2421774021751235e-8 3.207579366904356e-8 2.5150146054798155e-8 2.761323498178508e-8 2.8290342752050915e-8
          3.064205623698748e-8 2.5022184368950032e-8 2.756994255293233e-8 2.8123448109849754e-8 3.0151430882837865e-8 3.2604271348555496e-8
          3.3013973148763306e-8 3.5049153405169976e-8 3.021401319480261e-8 3.273738457653973e-8 3.322923087937388e-8 3.302420550976255e-8
          3.383364121049913e-8 3.165906413420525e-8 3.156900025749094e-8 3.4391000834676735e-8 3.597125608598834e-8 3.43758850493534e-8
          3.483212324238921e-8 3.6712385543611014e-8 3.6284504451243565e-8 3.6690758557782316e-8 3.501422897915788e-8 3.6926041097935987e-8
          3.6955890966464297e-8
        </DataArray>
        <DataArray type="Float64" Name="gradient_matprop_error" format="ascii" RangeMin="0" RangeMax="0">
          0 0 0 0 0 0
          0 0 0 0 0 0
          0 0 0 0 0 0
          0 0 0 0 0 0
          0 0 0 0 0 0
          0 0 0 0 0 0
          0 0 0 0 0 0
          0 0 0 0 0 0
          0 0 0 0 0 0
          0 0 0 0 0 0
          0 0 0 0 0 0
          0 0 0 0 0 0
          0 0 0 0 0 0
          0 0 0 0 0 0
          0 0 0 0 0 0
          0 0 0 0 0 0
          0 0 0 0 0 0
          0 0 0 0 0 0
          0 0 0 0 0 0
          0 0 0 0 0 0
          0 0 0 0 0 0
          0 0 0 0 0 0
          0 0 0 0 0 0
          0 0 0 0 0 0
          0 0 0 0 0 0
          0 0 0 0 0 0
          0 0 0 0 0 0
          0 0 0 0 0 0
          0 0 0 0 0 0
          0 0 0 0 0 0
          0 0 0 0 0 0
          0 0 0 0 0 0
          0 0 0 0 0 0
          0 0 0 0 0 0
          0 0 0 0 0 0
          0 0 0 0 0 0
          0 0 0 0 0 0
          0 0 0 0 0 0
          0 0 0 0 0 0
          0 0 0 0 0 0
          0 0 0 0 0 0
          0 0 0 0 0 0
          0 0 0 0 0 0
          0 0 0 0 0 0
          0 0 0 0 0 0
          0 0 0 0 0 0
          0 0 0 0 0 0
          0 0 0 0 0 0
          0 0 0 0 0 0
          0 0 0 0 0 0
          0 0 0 0 0 0
          0 0 0 0 0 0
          0 0 0 0 0 0
          0 0 0 0 0 0
          0 0 0 0 0 0
          0 0 0 0 0 0
          0 0 0 0 0 0
          0 0 0 0 0 0
          0 0 0 0 0 0
          0 0 0 0 0 0
          0 0 0 0 0 0
          0 0 0 0 0 0
          0 0 0 0 0 0
          0 0 0 0 0 0
          0 0 0 0 0 0
          0 0 0 0 0 0
          0 0 0 0 0 0
          0 0 0 0 0 0
          0 0 0 0 0 0
          0 0 0 0 0 0
          0 0 0 0 0 0
          0 0 0 0 0 0
          0 0 0 0 0 0
          0 0 0 0 0 0
          0 0 0 0 0 0
          0 0 0 0 0 0
          0 0 0 0 0 0
          0 0 0 0 0 0
          0 0 0 0 0 0
          0 0 0 0 0 0
          0 0 0 0 0 0
          0 0 0 0 0 0
          0 0 0 0 0 0
          0 0 0 0 0 0
          0 0 0 0 0 0
          0 0 0 0 0 0
          0 0 0 0 0 0
          0 0 0 0 0 0
          0 0 0 0 0 0
          0 0 0 0 0 0
          0 0 0 0 0 0
          0 0 0 0 0 0
          0 0 0 0 0 0
          0 0 0 0 0 0
          0
        </DataArray>
        <DataArray type="Float64" Name="initial_marker" format="ascii" RangeMin="0.5" RangeMax="2">
          2 1 2 2 0.5 2
          2 2 2 2 1.5 1.5
          2 2 2 2 1.25 1.5
          0.5 2 2 2 2 2
          2 2 2 1.75 2 1.5
          2 2 2 2 2 2
          1.5 2 2 2 1.5 1
          2 2 2 2 2 2
          2 2 2 2 2 2
          2 2 2 2 2 2
          2 2 2 2 2 2
          2 2 2 2 2 2
          2 2 2 2 2 2
          2 2 2 2 2 2
          2 2 2 2 2 2
          2 2 2 2 2 2
          2 2 2 2 2 2
          2 2 2 2 2 2
          2 2 2 2 2 2
          2 2 2 2 2 2
          2 2 2 2 2 2
          2 2 2 2 2 2
          2 2 2 2 2 2
          2 2 2 2 2 2
          2 2 2 2 2 2
          2 2 2 2 2 2
          2 2 2 2 2 2
          2 2 2 2 2 2
          2 2 2 2 2 2
          2 2 2 2 2 2
          2 2 2 2 2 2
          2 2 2 2 2 2
          2 2 2 2 2 2
          2 2 2 2 2 2
          2 2 2 2 2 2
          2 2 2 2 2 2
          2 2 2 2 2 2
          2 2 2 2 2 2
          2 2 2 2 2 2
          2 2 2 2 2 2
          2 2 2 2 2 2
          2 2 2 2 2 2
          2 2 2 2 2 2
          2 2 2 2 2 2
          2 2 2 2 2 2
          2 2 2 2 2 2
          2 2 2 2 2 2
          2 2 2 2 2 2
          2 2 2 2 2 2
          2 2 2 2 2 2
          2 2 2 2 2 2
          2 2 2 2 2 2
          2 2 2 2 2 2
          2 2 2 2 2 2
          2 2 2 2 2 2
          2 2 2 2 2 2
          2 2 2 2 2 2
          2 2 2 2 2 2
          2 2 2 2 2 2
          2 2 2 2 2 2
          2 2 2 2 2 2
          2 2 2 2 2 2
          2 2 2 2 2 2
          2 2 2 2 2 2
          2 2 2 2 2 2
          2 2 2 2 2 2
          2 2 2 2 2 2
          2 2 2 2 2 2
          2 2 2 2 2 2
          2 2 2 2 2 2
          2 2 2 2 2 2
          2 2 2 2 2 2
          2 2 2 2 2 2
          2 2 2 2 2 2
          2 2 2 2 2 2
          2 2 2 2 2 2
          2 2 2 2 2 2
          2 2 2 2 2 2
          2 2 2 2 2 2
          2 2 2 2 2 2
          2 2 2 2 2 2
          2 2 2 2 2 2
          2 2 2 2 2 2
          2 2 2 2 2 2
          2 2 2 2 2 2
          2 2 2 2 2 2
          2 2 2 2 2 2
          2 2 2 2 2 2
          2 2 2 2 2 2
          2 2 2 2 2 2
          2 2 2 2 2 2
          2 2 2 2 2 2
          2 2 2 2 2 2
          2 2 2 2 2 2
          2
        </DataArray>
        <DataArray type="Float64" Name="markers_norefine" format="ascii" RangeMin="0" RangeMax="2">
          2 0 0 0 0 0
          0 0 0 0 0 0
          0 0 0 0 0 0
          0 0.5 2 1.5 0 0
          2 2 0 0 0 0
          0 0 0 0 0 0
          0 0 0 0 0 0
          2 1.5 0 2 2 0
          0 0 0 0 0 0
          0 0 0 0 0 0
          0 0 0 0.5 0 1
          0.5 0 0 2 2 2
          0.75 0 0 0 0 0
          0 0 0 0 0 2
          2 2 2 2 2 2
          2 2 2 2 0 0
          0 0.25 0.5 0 0 1
          1 0 0 0 0 0
          0 0 0 0 0 0
          0 0 0 0 0 0
          0 0 0 0 0 0
          0 0 0 0 1 0.5
          1 0.5 0 0 2 2
          2 1.5 1 0.5 0 2
          2 0.75 0 0 0 0
          0 0 0 0 0 0
          0 2 2 2 2 2
          2 2 2 2 2 2
          2 2 2 2 2 0.5
          0.25 0 0 1 1 0
          0 0 0 0 0 0
          0 0 0 0 0 0
          0 0 0 0.5 0 1.5
          0.5 2 1.5 2 0.5 0
          0 0 0 0 0 1.5
          1.25 1 2 2 1.75 2
          2 1.25 1.5 2 2 2
          2 0.5 0.5 0 0 1.5
          1.5 0.6666666666666666 0.75 1 0.5 1
          1.75 2 1.6666666666666667 0 0 0.5
          0 1 1 0 2 1.5
          2 2 2 2 2 2
          2 2 2 2 2 2
          2 2 2 2 2 2
          2 2 1.5 1.75 2 2
          2 2 2 2 2 2
          2 2 2 2 2 2
          2 2 2 2 2 2
          2 2 2 2 2 2
          2 2 2 2 2 2
          2 2 2 2 2 2
          0.5 0 1 1 0 1
          0.5 0.75 0 0 1 1.25
          0 1 1 0 0 1.5
          1.5 1 1.25 1.75 0.5 1.5
          1.5 2 1 2 2 2
          2 2 2 2 2 2
          2 1 2 2 2 1
          0 0 0 0 0 0
          2 2 2 2 1.5 1.5
          2 2 2 2 2 2
          2 2 1.5 1.5 2 2
          2 2 1 1 1 1
          2 2 2 1 1 1
          1 2 2 2 2 2
          2 1 0 0 0 2
          2 2 2 1.5 1.5 2
          2 2 2 1 0.75 1
          0.5 2 1.75 1.6666666666666667 1 1
          0 1 1 0 0.5 0
          0 2 2 2 2 2
          2 2 2 2 2 2
          2 2 2 2 2 2
          2 2 2 2 2 2
          2 2 2 2 2 2
          2 2 2 2 2 2
          2 2 2 2 2 2
          2 2 2 2 2 2
          2 2 2 2 2 2
          2 2 2 2 2 2
          2 2 2 2 2 2
          2 2 2 2 2 2
          2 2 2 2 2 2
          2 2 2 1.75 1.5 2
          2 2 2 2 2 2
          2 2 2 2 2 2
          2 2 2 2 2 2
          2 1 1 0 0 1.5
          1.5 1 1 1 0 0
          1.5 1.25 1 2 2 2
          2 2 2 2 2 1.75
          2 1.5 2 2 2 0.75
          0.5 0 0 1 1 0
          1.25 1 0.5 0 1.5 1
          1
        </DataArray>
        <DataArray type="Float64" Name="markers_mustrefine" format="ascii" RangeMin="0.5" RangeMax="2">
          2 1 2 2 0.5 2
          2 2 2 2 1.5 1.5
          2 2 2 2 1.25 1.5
          0.5 2 2 2 2 2
          2 2 2 1.75 2 1.5
          2 2 2 2 2 2
          1.5 2 2 2 1.5 1
          2 2 2 2 2 2
          2 2 2 2 2 2
          2 2 2 2 2 2
          2 2 2 2 2 2
          2 2 2 2 2 2
          2 2 2 2 2 2
          2 2 2 2 2 2
          2 2 2 2 2 2
          2 2 2 2 2 2
          2 2 2 2 2 2
          2 2 2 2 2 2
          2 2 2 2 2 2
          2 2 2 2 2 2
          2 2 2 2 2 2
          2 2 2 2 2 2
          2 2 2 2 2 2
          2 2 2 2 2 2
          2 2 2 2 2 2
          2 2 2 2 2 2
          2 2 2 2 2 2
          2 2 2 2 2 2
          2 2 2 2 2 2
          2 2 2 2 2 2
          2 2 2 2 2 2
          2 2 2 2 2 2
          2 2 2 2 2 2
          2 2 2 2 2 2
          2 2 2 2 2 2
          2 2 2 2 2 2
          2 2 2 2 2 2
          2 2 2 2 2 2
          2 2 2 2 2 2
          2 2 2 2 2 2
          2 2 2 2 2 2
          2 2 2 2 2 2
          2 2 2 2 2 2
          2 2 2 2 2 2
          2 2 2 2 2 2
          2 2 2 2 2 2
          2 2 2 2 2 2
          2 2 2 2 2 2
          2 2 2 2 2 2
          2 2 2 2 2 2
          2 2 2 2 2 2
          2 2 2 2 2 2
          2 2 2 2 2 2
          2 2 2 2 2 2
          2 2 2 2 2 2
          2 2 2 2 2 2
          2 2 2 2 2 2
          2 2 2 2 2 2
          2 2 2 2 2 2
          2 2 2 2 2 2
          2 2 2 2 2 2
          2 2 2 2 2 2
          2 2 2 2 2 2
          2 2 2 2 2 2
          2 2 2 2 2 2
          2 2 2 2 2 2
          2 2 2 2 2 2
          2 2 2 2 2 2
          2 2 2 2 2 2
          2 2 2 2 2 2
          2 2 2 2 2 2
          2 2 2 2 2 2
          2 2 2 2 2 2
          2 2 2 2 2 2
          2 2 2 2 2 2
          2 2 2 2 2 2
          2 2 2 2 2 2
          2 2 2 2 2 2
          2 2 2 2 2 2
          2 2 2 2 2 2
          2 2 2 2 2 2
          2 2 2 2 2 2
          2 2 2 2 2 2
          2 2 2 2 2 2
          2 2 2 2 2 2
          2 2 2 2 2 2
          2 2 2 2 2 2
          2 2 2 2 2 2
          2 2 2 2 2 2
          2 2 2 2 2 2
          2 2 2 2 2 2
          2 2 2 2 2 2
          2 2 2 2 2 2
          2 2 2 2 2 2
          2
        </DataArray>
        <DataArray type="Float64" Name="gradient_marker" format="ascii" RangeMin="0" RangeMax="1">
          0 1 1 0.75 0.75 1
          1 1 0.75 0.75 0.75 0.625
          1 0.875 1 0.75 0.875 0.75
          0.75 0.25 0 0.25 0.75 0.75
          0 0 1 0.75 0.75 1
          1 0.5 0.5 1 0.5 0.5
          0.5 1 1 0.75 0.625 0.25
          0 0.25 0.75 0 0 1
          0.625 0.75 0.5 1 1 1
          1 1 1 0.25 0.5 0.5
          0 0.5 0.625 0.5 0.5 0.5
          0.5 0.75 0.75 0 0 0
          0.25 0.625 0.5 0.75 0.75 0.75
          0.5 0.5 0.75 0.75 0.6666666666666666 0
          0 0 0 0 0 0
          0 0 0 0 0.5 0.75
          0.5 0.5 0.5 0.75 0.75 0.5
          0.5 1 0 0 0 0
          0.25 0 0.5 0.25 0.25 0
          0 0.5 0.5 0 1 1
          1 1 1 1 0.75 0.5
          0.5 0 0.25 0 0.5 0.5
          0.5 0.5 0.75 0.75 0 0
          0 0.25 0.5 0.5 0.625 0
          0 0.25 0.75 0.75 0.5 0.5
          0.75 0.75 0.6666666666666666 0.5 0.25 0.625
          0.5 0 0 0 0 0
          0 0 0 0 0 0
          0 0 0 0 0 0.5
          0.5 0.75 0.75 0.5 0.5 1
          0.5 0.625 0.5 0.75 0 0
          0 0.25 0.25 0 0 0.5
          0.5 0 0 0 0 0
          0 0 0 0 0 0
          0 0 0 0 0 0
          0 0 0 0 0 0
          0 0 0 0 0 0
          0 0 0 0 0 0
          0 0 0 0 0 0
          0 0 0 0 0 0
          0 0 0 0 0 0
          0 0 0 0 0 0