<?xml version="1.0"?>
<VTKFile type="UnstructuredGrid" version="0.1" byte_order="LittleEndian" header_type="UInt32" compressor="vtkZLibDataCompressor">
  <UnstructuredGrid>
    <Piece NumberOfPoints="594" NumberOfCells="355">
      <PointData>
        <DataArray type="Int32" Name="libmesh_node_id" format="ascii" RangeMin="212" RangeMax="4363">
          212 304 313 315 406 416
          417 420 554 555 556 580
          581 582 583 584 585 586
          805 869 870 873 874 875
          876 878 883 884 885 886
          887 888 889 890 891 951
          952 1060 1061 1062 1063 1078
          1079 1080 1081 1082 1083 1084
          1085 1086 1087 1088 1089 1090
          1091 1092 1093 1094 1095 1096
          1097 1100 1101 1326 1327 1328
          1329 1330 1331 1332 1333 1334
          1339 1340 1341 1349 1350 1354
          1355 1356 1357 1358 1359 1360
          1361 1362 1363 1364 1365 1366
          1367 1368 1369 1370 1371 1372
          1373 1374 1375 1376 1377 1378
          1379 1380 1381 1382 1383 1384
          1385 1386 1387 1388 1389 1390
          1391 1392 1393 1394 1395 1396
          1397 1398 1399 1401 1402 1403
          1404 1405 1406 1407 1412 1413
          1414 1415 1416 1417 1422 1423
          1424 1429 1687 1688 1689 1690
          1694 1695 1697 1698 1700 1711
          1712 1715 2218 2219 2220 2221
          2222 2223 2224 2225 2226 2227
          2228 2229 2230 2231 2232 2233
          2234 2235 2236 2237 2238 2239
          2240 2241 2702 2703 2704 2705
          2706 2707 2708 2709 2710 2711
          2712 2713 2714 2715 2716 2717
          2718 2719 2720 2721 2722 2723
          2724 2725 2726 2727 2728 2729
          2730 2731 2732 2733 2734 2735
          2736 2737 2738 2739 2740 2741
          2742 2743 2744 2745 2746 2747
          2748 2749 2750 2751 2752 2753
          2754 2755 2756 2757 2758 2759
          2760 2761 2762 2763 2764 2765
          2766 2767 2768 2769 2770 2771
          2772 2773 2774 2775 2776 2777
          2778 2779 2780 2781 2782 2783
          2784 2785 2786 2787 2788 2789
          2790 2791 2792 2793 2794 2795
          2796 2797 2798 2799 2800 2801
          2802 2803 2804 2805 2806 2807
          2808 2809 2810 2811 2812 2813
          2814 2815 2816 2817 2818 2819
          2820 2821 2822 2823 2824 2825
          2826 2827 2828 2829 2830 2831
          2832 2833 2834 2835 2836 2837
          2838 2839 2840 2841 2842 2843
          2844 2845 2846 2847 2848 2849
          2850 2851 2852 2853 2854 2855
          2856 2857 2858 2859 2860 2861
          2862 2863 2864 2865 2866 2867
          2868 2869 2870 2871 2872 2873
          2876 2877 2879 2881 2882 2883
          2884 2885 2886 2887 2888 2889
          2890 2891 2892 2893 2896 2897
          2899 2901 2902 2903 2904 2905
          2906 2907 2908 2909 2910 2911
          2912 2913 2914 2915 2916 2917
          2918 2919 2920 2921 2922 2923
          2924 2925 2926 2927 2928 2930
          2931 2934 2940 2941 2943 2945
          2950 2951 2952 2953 2954 2955
          2956 2957 2958 2959 2960 2961
          2962 2963 2964 2965 2966 2967
          2968 2969 2970 2971 2972 2973
          2974 2975 2976 2977 2978 2979
          2980 2981 2982 2983 2994 2995
          2996 2997 2998 2999 3011 3012
          3013 3014 3018 3019 3020 3021
          3022 3023 3024 3025 3026 3027
          3028 3029 3030 3031 3032 3033
          3035 3036 3037 3038 3039 3041
          3042 3043 3044 3058 3059 3060
          3061 3062 3063 3064 3065 3067
          3069 3071 3072 3073 3076 3077
          3079 3083 3086 3088 4238 4239
          4240 4241 4242 4243 4244 4245
          4246 4247 4248 4249 4250 4251
          4266 4267 4268 4269 4270 4271
          4272 4273 4274 4275 4306 4307
          4308 4309 4310 4311 4312 4313
          4314 4315 4326 4327 4328 4329
          4330 4331 4332 4340 4341 4342
          4343 4344 4345 4360 4361 4362
          4363 806 871 872 807 877
          810 879 418 881 880 419
          882 1408 1409 1344 1411 1426
          1352 2932 2933 2935 2936 2937
          2929 893 2938 2939 1410 2944
          2946 2947 2942 2948 2949 894
          2984 2985 2986 2987 2988 2989
          3004 3005 3006 3007 3045 3040
          3046 3047 1427 3010 3090 3092
        </DataArray>
        <DataArray type="Float64" Name="bounds" format="ascii" RangeMin="0" RangeMax="0">
          0 0 0 0 0 0
          0 0 0 0 0 0
          0 0 0 0 0 0
          0 0 0 0 0 0
          0 0 0 0 0 0
          0 0 0 0 0 0
          0 0 0 0 0 0
          0 0 0 0 0 0
          0 0 0 0 0 0
          0 0 0 0 0 0
          0 0 0 0 0 0
          0 0 0 0 0 0
          0 0 0 0 0 0
          0 0 0 0 0 0
          0 0 0 0 0 0
          0 0 0 0 0 0
          0 0 0 0 0 0
          0 0 0 0 0 0
          0 0 0 0 0 0
          0 0 0 0 0 0
          0 0 0 0 0 0
          0 0 0 0 0 0
          0 0 0 0 0 0
          0 0 0 0 0 0
          0 0 0 0 0 0
          0 0 0 0 0 0
          0 0 0 0 0 0
          0 0 0 0 0 0
          0 0 0 0 0 0
          0 0 0 0 0 0
          0 0 0 0 0 0
          0 0 0 0 0 0
          0 0 0 0 0 0
          0 0 0 0 0 0
          0 0 0 0 0 0
          0 0 0 0 0 0
          0 0 0 0 0 0
          0 0 0 0 0 0
          0 0 0 0 0 0
          0 0 0 0 0 0
          0 0 0 0 0 0
          0 0 0 0 0 0
          0 0 0 0 0 0
          0 0 0 0 0 0
          0 0 0 0 0 0
          0 0 0 0 0 0
          0 0 0 0 0 0
          0 0 0 0 0 0
          0 0 0 0 0 0
          0 0 0 0 0 0
          0 0 0 0 0 0
          0 0 0 0 0 0
          0 0 0 0 0 0
          0 0 0 0 0 0
          0 0 0 0 0 0
          0 0 0 0 0 0
          0 0 0 0 0 0
          0 0 0 0 0 0
          0 0 0 0 0 0
          0 0 0 0 0 0
          0 0 0 0 0 0
          0 0 0 0 0 0
          0 0 0 0 0 0
          0 0 0 0 0 0
          0 0 0 0 0 0
          0 0 0 0 0 0
          0 0 0 0 0 0
          0 0 0 0 0 0
          0 0 0 0 0 0
          0 0 0 0 0 0
          0 0 0 0 0 0
          0 0 0 0 0 0
          0 0 0 0 0 0
          0 0 0 0 0 0
          0 0 0 0 0 0
          0 0 0 0 0 0
          0 0 0 0 0 0
          0 0 0 0 0 0
          0 0 0 0 0 0
          0 0 0 0 0 0
          0 0 0 0 0 0
          0 0 0 0 0 0
          0 0 0 0 0 0
          0 0 0 0 0 0
          0 0 0 0 0 0
          0 0 0 0 0 0
          0 0 0 0 0 0
          0 0 0 0 0 0
          0 0 0 0 0 0
          0 0 0 0 0 0
          0 0 0 0 0 0
          0 0 0 0 0 0
          0 0 0 0 0 0
          0 0 0 0 0 0
          0 0 0 0 0 0
          0 0 0 0 0 0
          0 0 0 0 0 0
          0 0 0 0 0 0
          0 0 0 0 0 0
        </DataArray>
        <DataArray type="Float64" Name="gradient_error" format="ascii" RangeMin="2.7038099614112916e-11" RangeMax="3.631515826531813e-7">
          5.012574753483165e-9 9.385834209727889e-8 4.995066154638588e-10 1.3047424455964392e-10 6.910630177780819e-8 1.8382489142539395e-8
          1.6155444794925225e-8 3.863612737825324e-10 2.8697168492495926e-9 3.578755590869557e-8 3.257068374845555e-8 9.663988914455435e-10
          1.1108373646363747e-9 1.1906153763553234e-9 5.291801417298506e-9 5.171723239950559e-10 3.5876731937814665e-10 3.5850922505668953e-10
          7.339520989838001e-8 4.440368516513786e-8 4.015481594672482e-8 1.7062569171531435e-8 1.5213857566881743e-7 1.245860483428497e-7
          3.6787138686285895e-8 6.907025390206803e-8 3.0418870114821604e-10 9.178281015086796e-10 1.1794150263710598e-9 8.083655835238386e-10
          3.329603336052009e-10 2.5705412449335656e-10 1.6108912794131264e-10 1.2440118344100785e-9 6.511769011448575e-10 9.690255132217879e-11
          9.502898287301419e-11 7.049412948307655e-9 1.00402272622226e-8 8.972172719966148e-9 7.904118177709693e-9 4.907607752389604e-9
          4.800838115748148e-9 7.562252086729058e-9 6.887336747428116e-9 1.7143368241205644e-9 2.8613222615522337e-9 3.0607949574520756e-9
          4.694068479106692e-9 6.212421408127175e-9 2.7377273862714246e-9 4.559957958664008e-10 5.760689744728e-10 3.1008803986246413e-10
          8.652138942411166e-10 1.8262178742906131e-10 1.5592785888314994e-10 3.098035821780854e-10 7.160882018298091e-10 1.2543794379431467e-9
          4.2037182009395087e-10 1.021793810927458e-10 1.0847667916851323e-10 2.491487512331299e-9 5.4859831197975454e-9 5.431191480176576e-9
          5.168156708867218e-9 2.371935489221968e-8 3.362553927857601e-9 4.4399804575688895e-9 3.4085656983958385e-9 1.3743631164478206e-8
          5.754571505631778e-8 5.216781567563831e-8 4.105932069906616e-8 2.9587819350838253e-8 1.8120421082761447e-8 1.50702786359963e-9
          1.4622021153318289e-9 3.0515630258886963e-9 3.0074032498251104e-9 2.825179017264517e-10 3.254752259958539e-10 3.021463847054362e-10
          1.8196573497404027e-9 2.9779285043040323e-9 4.6405540563283546e-10 1.4152195540875379e-8 1.2840666950243953e-8 1.0669056192696381e-9
          1.0177467100358493e-8 1.2489519864406553e-10 1.622456820573824e-10 1.444743772218599e-10 1.6362370345725787e-10 1.5263741037380077e-10
          9.260010106399326e-11 1.2125770396523734e-10 2.7844982876567475e-10 2.303029456974862e-10 1.342938805028424e-10 5.650804052313054e-10
          5.027966231738179e-10 2.2700174096951838e-10 3.643060432651504e-10 2.339962412402661e-9 2.677389100764617e-9 9.285853649277937e-10
          5.778725435048502e-10 1.762303244179266e-9 2.2673048427837377e-9 7.701484424420868e-10 7.416706033893366e-9 5.410678389560635e-10
          4.998622899103757e-9 3.914979861145284e-10 2.4239976971737055e-10 1.69151121839691e-10 1.2806085129551335e-10 3.002484410219298e-10
          3.1635633220943666e-10 1.5760034394237986e-10 2.2945333620158777e-10 2.5792577665536874e-10 3.1746045124174034e-8 2.876616269869084e-8
          3.802486385996358e-9 3.3692489944688585e-9 2.2519191406715952e-8 2.3734022746155624e-9 2.0812449952772376e-9 1.8043963736983566e-9
          1.0045873035873236e-9 8.61828135202874e-10 1.2011122505029127e-9 5.598963046647506e-10 1.6090824137992518e-8 1.433756547315408e-9
          9.844013392149195e-9 6.752416324674215e-10 1.1039114091079596e-10 1.0576356530136673e-10 7.182766349352258e-11 6.800105956228835e-11
          9.106387077854816e-11 5.7229696242022486e-11 1.0512656389375934e-10 9.27950663185499e-11 6.571028290888374e-11 4.15119341520071e-10
          3.552231905715858e-10 2.3041226406587583e-10 5.718794035895493e-10 8.174285325398685e-10 7.276448838874949e-10 6.378612352351215e-10
          4.206927113279136e-10 4.0911884762803175e-10 6.387752711529264e-10 5.858697626608624e-10 1.8835192510406673e-10 3.3005745060781636e-10
          3.2289713529322177e-10 3.9754498392814984e-10 5.329642541687987e-10 3.1573681997862724e-10 8.599748091409153e-11 1.0074290599092636e-10
          1.4281449613414464e-10 1.513031951382085e-10 7.114025344023335e-11 8.563610081864077e-11 1.0090676112420339e-10 1.1548833106776121e-10
          1.5979189414227232e-10 1.1617742142976599e-10 2.2666178655881453e-10 2.7032275461878484e-10 2.7036425188136026e-10 2.678502033284079e-10
          6.0820740324816e-10 1.8156638850350105e-10 1.8045830536826653e-10 2.362997086873634e-10 2.3489975613950093e-10 1.1119780091108175e-10
          1.6741862562629675e-10 1.649473552777632e-10 1.7686424322110615e-10 2.294023992733852e-10 1.5764644710744313e-10 5.035546857067863e-10
          4.957931783238479e-10 3.195705441989225e-10 4.735293024495652e-10 2.1625160086427914e-10 2.536435840925729e-10 2.4199251067226563e-10
          5.377480472181368e-10 1.7438255131493713e-10 2.1756431103278842e-10 1.0780925928811521e-10 1.472003130040408e-10 1.7438683842069408e-10
          2.0982362711044486e-10 1.4158381672242503e-10 4.354142746641757e-10 2.7399922329961666e-10 4.442377379604242e-10 1.1107756815326329e-9
          1.0879333681510767e-9 1.0331535208866421e-9 2.094200392897677e-9 9.32759594761195e-10 9.134754020457512e-10 6.301039043970761e-10
          6.164854365506265e-10 8.634631604990517e-10 5.775543521317545e-10 1.7725308344148938e-9 1.7278373861897452e-9 1.150061307280547e-9
          1.6143768112195773e-9 9.50861537518571e-10 8.499950724586946e-10 1.7672614597358116e-9 7.894796464334496e-10 5.204265304072019e-10
          7.005867028638243e-10 4.531806770991413e-10 1.4481524030513472e-9 9.4630054914487e-10 1.2531038945398535e-9 7.480658870255763e-11
          7.48378880838516e-11 1.105671313509053e-10 1.0872750070777126e-10 5.157098983981587e-11 7.337669520561037e-11 7.17309934040437e-11
          7.284917068731074e-11 1.0280425922185761e-10 7.243119792972702e-11 2.1721904286930163e-10 2.1276836001854344e-10 1.4034531218629252e-10
          2.000022364740388e-10 3.403670151423665e-11 3.5922900157123213e-11 4.794689476791606e-11 4.739978780090541e-11 3.02388191578729e-11
          3.771407332977045e-11 3.833314005138096e-11 3.780909880000978e-11 4.685268083389475e-11 3.895220677299147e-11 9.565185510799439e-11
          9.241087761443715e-11 7.04515225398266e-11 9.619239285427861e-11 7.033344308454619e-11 9.383576900275711e-11 5.7561869358457134e-11
          7.475594997043663e-11 6.983773225961646e-11 8.895088962643613e-11 7.238888935664633e-11 1.7931192601418324e-10 1.3731869968608268e-10
          1.7481218638998608e-10 4.2388973079111787e-10 4.142967234167705e-10 2.867758344162573e-10 2.799043340940254e-10 3.868787079462703e-10
          2.603050808615366e-10 8.169665587306524e-10 7.945222000086972e-10 5.485936135838343e-10 7.320500229933502e-10 1.9316892929542144e-10
          1.878608683165407e-10 1.2755112175192756e-10 1.2381545993958602e-10 1.7314225015738993e-10 1.1355895517942815e-10 3.85435234154858e-10
          3.737487782137522e-10 2.4907095149188495e-10 3.4136853895243024e-10 3.454472975763476e-10 2.3080888740827297e-10 2.9617745800799995e-10
          1.9613023072027568e-10 6.421787304998449e-10 4.3740550701444574e-10 5.406162062625487e-10 1.0258801421190336e-10 1.5199550149901322e-10
          6.564018262838466e-11 9.904810929717721e-11 8.722657682579742e-11 1.2811725146573891e-10 8.313075723228363e-11 2.953299210030936e-10
          1.9575249414345333e-10 2.4414859349432136e-10 6.058188436009022e-10 7.436702385405188e-10 6.331522080730674e-10 1.3100242403212712e-9
          4.710367793315626e-10 6.064874321015083e-10 2.7171664208372317e-10 3.826643793656769e-10 3.9751609420664566e-10 5.11159478181574e-10
          3.1559793792406494e-10 1.0601621881066806e-9 6.698033850264184e-10 8.746402763190607e-10 4.193225617032354e-10 5.128207334708176e-10
          4.4719447099252796e-10 8.710105420310769e-10 3.3249923327097714e-10 4.181112924381721e-10 1.9436772119997812e-10 2.5761899902746894e-10
          3.029298536507764e-10 3.7192926818766747e-10 2.3162085199495097e-10 6.989921406644794e-10 4.266581672056779e-10 6.048805996364413e-10
          1.7374297724437295e-10 2.459062738457129e-10 1.1402088663245857e-10 1.61287299012099e-10 1.433284486883809e-10 1.99905381449553e-10
          1.2958078198825802e-10 4.4044959533127283e-10 2.9320349957308905e-10 3.4937183442279364e-10 7.261464469901323e-11 1.0470370105809882e-10
          5.969270463062586e-11 8.339028850224871e-11 1.9515579712880556e-10 1.5155902635519367e-10 1.2067803719247724e-10 1.5970622093138505e-10
          7.839650432514378e-11 1.0313384726876962e-10 1.1162268482312851e-10 1.4090020594166761e-10 9.146071400993603e-11 2.6945908860416177e-10
          1.750452869489961e-10 2.2648450688515013e-10 4.957875886012353e-11 6.537277254644683e-11 4.5486894308157717e-11 5.7397177294022495e-11
          1.1415706593780778e-10 9.450259792920943e-11 3.5261697134933564e-9 3.4285007912673237e-9 3.210337558449782e-9 5.763912824241016e-9
          3.019455390891561e-9 2.9375425537016628e-9 2.157700078372471e-9 2.0977065642516796e-9 2.733042135972983e-9 1.9273312965646443e-9
          5.139650337575567e-9 4.989142158134767e-9 3.6910049717215934e-9 4.614505408148384e-9 2.880109016043595e-9 2.4709592335908125e-9
          4.752642727003147e-9 2.429626459958704e-9 1.6814669352845866e-9 2.0686565794762394e-9 1.4051154476690931e-9 4.051009005680867e-9
          2.8995206893556146e-9 3.3729541993669166e-9 8.907791364265939e-9 8.640177158508055e-9 8.093931722453256e-9 8.046309783924531e-9
          7.814066321453549e-9 7.241611608361301e-9 7.202823001799617e-9 5.9727412095740235e-9 6.3443569731244206e-9 5.215124619786418e-9
          1.5470316520822215e-9 1.4994543959056832e-9 1.09937215215295e-9 1.0634833536011988e-9 1.3670729232616558e-9 9.639323964877073e-10
          2.8471174688594007e-9 2.7534053461882377e-9 2.0083076240193415e-9 2.490202163657228e-9 7.635867400895639e-10 7.376480238921437e-10
          5.148291998803706e-10 4.969249089499001e-10 6.659856511611073e-10 4.4760741159200645e-10 1.473074675851489e-9 1.419076445059857e-9
          9.666544523803211e-10 1.2690550856775719e-9 1.1779650944633422e-9 8.230100755247208e-10 9.683791645510693e-10 6.687752111889272e-10
          2.1119881026024005e-9 1.5147390713935355e-9 1.6964086596438646e-9 5.651959317133469e-10 3.7855524792542965e-10 4.5578494965480127e-10
          3.039349726830334e-10 1.0579589825221975e-9 7.154718331704744e-10 8.318459614375625e-10 2.7140600216909583e-9 2.6120513029908414e-9
          1.8771099850160384e-9 1.8034520722966878e-9 2.3237969755970495e-9 1.5973123947909665e-9 1.911796219036697e-9 1.3065572858806511e-9
          1.4705587830343174e-9 9.98918659415124e-10 2.0829978679941567e-9 1.709995338499325e-9 3.262634798261095e-9 1.720048399989335e-9
          1.135097773051499e-9 1.3948062366652388e-9 8.947203376415101e-10 2.730284417284359e-9 1.8683653452303657e-9 2.148939207541883e-9
          1.3708581191233944e-9 1.0596820097781864e-9 2.0349089153959976e-9 1.1061515580912752e-9 6.90910970352191e-10 8.510824472255066e-10
          1.664965148111828e-9 1.0788879608610716e-9 1.2673021817286701e-9 4.826367427057141e-9 3.7419127161593504e-9 4.144021485203188e-9
          2.991308308076243e-9 3.1802819904025847e-9 2.2374473493576818e-9 7.681642763578513e-10 5.235573875117501e-10 5.93189959738486e-10
          3.9862731766842094e-10 1.3091462423574347e-9 9.134739125147207e-10 9.826680423992508e-10 3.5414723697701243e-10 2.676404414833589e-10
          6.267026130058961e-10 4.5859608610413793e-10 4.4861843376049385e-10 2.9694950388053177e-10 7.232599380969167e-10 4.890847218604105e-10
          1.9733255451438252e-10 3.2867993779457967e-10 2.168724978358359e-9 1.5841969691247826e-9 5.343846317167996e-11 5.1958290184652396e-11
          8.16795798350064e-11 7.93538819770469e-11 3.246790830924937e-11 5.1095558195670735e-11 4.971378787799381e-11 4.788917829242172e-11
          7.292521705675616e-11 4.587011063351033e-11 1.6686265661092889e-10 1.6163008310035977e-10 1.0184696729316358e-10 1.471901239273281e-10
          4.212859415395942e-11 6.377827791455282e-11 2.7038099614112916e-11 4.0364759850217597e-11 3.6042651557176774e-11 5.362605872270975e-11
          3.408869741221785e-11 1.2677444216357976e-10 7.998532857847995e-11 1.0410717367728213e-10 3.358314651908113e-10 3.2402966095183074e-10
          2.117742021582824e-10 2.0434063397698e-10 2.9159306331921747e-10 1.8393702026510508e-10 6.587107978663836e-10 6.334244984348009e-10
          3.99112349535314e-10 5.638570731719931e-10 2.4630255027578993e-10 1.5547906916046796e-10 1.9743362335212395e-10 1.247348153420064e-10
          4.672934027179389e-10 2.945292828053627e-10 3.651070267853376e-10 1.2406439849828038e-9 1.1905309647954261e-9 7.837708796819289e-10
          7.516260489781602e-10 1.0514567728867535e-9 6.630198308912014e-10 8.574338057300987e-10 5.404135909323743e-10 6.539340296066664e-10
          4.124922036176044e-10 3.4706685786352307e-7 3.057508296861678e-7 2.579348385861262e-7 3.017173674548276e-7 1.5244073274673823e-7
          1.939227783515453e-7 3.631515826531813e-7 2.300026379809277e-7 1.7558434632743938e-7 2.9474426241187295e-7 1.1952061080021007e-7
          2.442070382064054e-7 6.574281336835188e-8 6.024728543764992e-8 1.3041073199975232e-7 4.558016425646944e-8 2.95271578510344e-8
          6.38862281819542e-8 6.420668911115906e-9 6.2324357910352075e-9 5.67366268865926e-9 1.2455900171201893e-8 1.2070998518295383e-8
          1.3249651336799491e-8 1.0138902599063757e-8 9.876886984477082e-9 1.1153618360545837e-8 9.039038345800282e-9 4.836045004600257e-9
          3.890123564291966e-9 9.717349448828716e-9 1.0846354197800837e-8 7.694152862874642e-9 7.863006271360449e-9 6.124355914104943e-9
          4.991114025160548e-9 4.8268690317910015e-9 3.755004650633889e-9 3.621948005082469e-9 4.353598949673882e-9 3.241783345439876e-9
          3.655120636558615e-9 2.690043156007453e-9 2.8810341680585365e-9 2.090071729108054e-9 6.142806008910489e-9 7.013288091483448e-9
          4.62609717899501e-9 4.640773330619702e-9 3.388845869463868e-9 4.685064827125624e-9 3.460133445872237e-9 2.4699610528428233e-9
        </DataArray>
        <DataArray type="Float64" Name="gradient_matprop_error" format="ascii" RangeMin="0" RangeMax="0">
          0 0 0 0 0 0
          0 0 0 0 0 0
          0 0 0 0 0 0
          0 0 0 0 0 0
          0 0 0 0 0 0
          0 0 0 0 0 0
          0 0 0 0 0 0
          0 0 0 0 0 0
          0 0 0 0 0 0
          0 0 0 0 0 0
          0 0 0 0 0 0
          0 0 0 0 0 0
          0 0 0 0 0 0
          0 0 0 0 0 0
          0 0 0 0 0 0
          0 0 0 0 0 0
          0 0 0 0 0 0
          0 0 0 0 0 0
          0 0 0 0 0 0
          0 0 0 0 0 0
          0 0 0 0 0 0
          0 0 0 0 0 0
          0 0 0 0 0 0
          0 0 0 0 0 0
          0 0 0 0 0 0
          0 0 0 0 0 0
          0 0 0 0 0 0
          0 0 0 0 0 0
          0 0 0 0 0 0
          0 0 0 0 0 0
          0 0 0 0 0 0
          0 0 0 0 0 0
          0 0 0 0 0 0
          0 0 0 0 0 0
          0 0 0 0 0 0
          0 0 0 0 0 0
          0 0 0 0 0 0
          0 0 0 0 0 0
          0 0 0 0 0 0
          0 0 0 0 0 0
          0 0 0 0 0 0
          0 0 0 0 0 0
          0 0 0 0 0 0
          0 0 0 0 0 0
          0 0 0 0 0 0
          0 0 0 0 0 0
          0 0 0 0 0 0
          0 0 0 0 0 0
          0 0 0 0 0 0
          0 0 0 0 0 0
          0 0 0 0 0 0
          0 0 0 0 0 0
          0 0 0 0 0 0
          0 0 0 0 0 0
          0 0 0 0 0 0
          0 0 0 0 0 0
          0 0 0 0 0 0
          0 0 0 0 0 0
          0 0 0 0 0 0
          0 0 0 0 0 0
          0 0 0 0 0 0
          0 0 0 0 0 0
          0 0 0 0 0 0
          0 0 0 0 0 0
          0 0 0 0 0 0
          0 0 0 0 0 0
          0 0 0 0 0 0
          0 0 0 0 0 0
          0 0 0 0 0 0
          0 0 0 0 0 0
          0 0 0 0 0 0
          0 0 0 0 0 0
          0 0 0 0 0 0
          0 0 0 0 0 0
          0 0 0 0 0 0
          0 0 0 0 0 0
          0 0 0 0 0 0
          0 0 0 0 0 0
          0 0 0 0 0 0
          0 0 0 0 0 0
          0 0 0 0 0 0
          0 0 0 0 0 0
          0 0 0 0 0 0
          0 0 0 0 0 0
          0 0 0 0 0 0
          0 0 0 0 0 0
          0 0 0 0 0 0
          0 0 0 0 0 0
          0 0 0 0 0 0
          0 0 0 0 0 0
          0 0 0 0 0 0
          0 0 0 0 0 0
          0 0 0 0 0 0
          0 0 0 0 0 0
          0 0 0 0 0 0
          0 0 0 0 0 0
          0 0 0 0 0 0
          0 0 0 0 0 0
          0 0 0 0 0 0
        </DataArray>
        <DataArray type="Float64" Name="initial_marker" format="ascii" RangeMin="0" RangeMax="2">
          0 1 0 0 0.5 1
          0.25 0 0 0 0 0
          0 0 0 0 0 0
          1.3333333333333333 1 1 0.75 2 2
          0.6666666666666666 1.5 0 0 2 2
          0 2 2 0 1.5 0
          0 0 0 0 0 0
          0 0 0 0 0 0
          0 0 0 0 0 0
          0 0 0 0 0 0
          0 0 0 1 2 2
          1.5 2 0 1 0.5 2
          2 2 2 2 2 0.5
          0.5 2 2 0 2 2
          0.3333333333333333 1.5 1.25 2 2 2
          2 0 0 2 1.75 0
          1 1 0 1 0.75 2
          2 2 2 0 0.75 0
          0.5 0 0.25 0 2 2
          1.5 0 0.25 0 0 0
          0 0 2 0.75 2 2
          2 2 2 2 2 2
          2 2 2 2 2 2
          2 2 0 0 0.5 0.5
          0 0 2 2 2 2
          2 2 0 0 0 0
          0 0 0 0 0 0
          0 0 0 0 0 0
          0 0 0 0 0 0
          0 0 0 1 1 1
          2 0 0 1 1 0
          1 1 0 1 1 2
          2 2 2 0 1 1
          2 0 1 0 0.75 0
          1 0.5 2 1.75 2 2
          2 2 2 2 2 2
          2 2 2 2 2 2
          2 2 2 2 2 2
          2 2 2 2 2 0
          0 1 1 0 1 1
          0 1 1 2 2 2
          2 0 0 0.5 0.5 0
          0 0 0 0.5 0 1.5
          1.5 1.3333333333333333 1.6666666666666667 0 0.5 0
          0.5 0 0 0 1.5 1.6666666666666667
          1.3333333333333333 2 2 2 2 2
          2 2 2 2 2 2
          2 2 2 2 2 2
          2 2 2 2 2 2
          2 2 2 2 2 2
          2 2 2 2 1.75 2
          2 2 2 2 1.5 2
          2 2 2 2 1 1.5
          1.5 2 2 2 0 1
          1 2 0 1 0 1
          0 1 1 2 2 2
          2 2 1.5 1.75 1 1.5
          1.25 2 2 2 1 1.5
          0 1 2 2 0 0.75
          0 0.5 0 0.5 0 1.75
          1.5 1.6666666666666667 0 0.5 0 0
          1.5 0.6666666666666666 2 2 2 2
          2 2 2 2 2 2
          2 2 2 2 2 2
          2 2 2 2 2 2
          2 2 2 2 2 2
          2 2 2 2 2 2
          2 2 2 2 2 2
          2 2 2 2 2 2
          2 2 2 2 2 2
          2 2 2 2 2 2
          2 2 2 2 2 2
          2 2 2 2 2 2
          2 2 2 2 2 2
          2 2 2 2 2 2
          2 2 2 2 2 2
          2 2 2 2 2 2
          2 2 2 2 2 2
          2 2 2 2 2 2
          2 2 2 2 2 2
          2 2 2 2 2 2
          2 2 2 2 2 2
          2 2 1 1.5 1.5 2
          2 1.5 2 2 2 2
          1.5 1.75 0.5 1.25 0.5 1.25
          1 2 2 2 2 2
          2 2 2 2 2 2
          2 2 2 2 2 2
          2 2 2 2 2 2
          2 2 2 2 2 2
          2 2 2 2 2 1.5
          1.5 2 2 2 2 2
          2 2 2 2 2 2
          2 2 2 2 2 2
          2 2 2 2 2 2
          2 2 2 2 2 2
          2 2 2 2 2 2
          2 2 2 2 2 2
          2 2 2 2 2 2
        </DataArray>
        <DataArray type="Float64" Name="markers_norefine" format="ascii" RangeMin="0" RangeMax="0">
          0 0 0 0 0 0
          0 0 0 0 0 0
          0 0 0 0 0 0
          0 0 0 0 0 0
          0 0 0 0 0 0
          0 0 0 0 0 0
          0 0 0 0 0 0
          0 0 0 0 0 0
          0 0 0 0 0 0
          0 0 0 0 0 0
          0 0 0 0 0 0
          0 0 0 0 0 0
          0 0 0 0 0 0
          0 0 0 0 0 0
          0 0 0 0 0 0
          0 0 0 0 0 0
          0 0 0 0 0 0
          0 0 0 0 0 0
          0 0 0 0 0 0
          0 0 0 0 0 0
          0 0 0 0 0 0
          0 0 0 0 0 0
          0 0 0 0 0 0
          0 0 0 0 0 0
          0 0 0 0 0 0
          0 0 0 0 0 0
          0 0 0 0 0 0
          0 0 0 0 0 0
          0 0 0 0 0 0
          0 0 0 0 0 0
          0 0 0 0 0 0
          0 0 0 0 0 0
          0 0 0 0 0 0
          0 0 0 0 0 0
          0 0 0 0 0 0
          0 0 0 0 0 0
          0 0 0 0 0 0
          0 0 0 0 0 0
          0 0 0 0 0 0
          0 0 0 0 0 0
          0 0 0 0 0 0
          0 0 0 0 0 0
          0 0 0 0 0 0
          0 0 0 0 0 0
          0 0 0 0 0 0
          0 0 0 0 0 0
          0 0 0 0 0 0
          0 0 0 0 0 0
          0 0 0 0 0 0
          0 0 0 0 0 0
          0 0 0 0 0 0
          0 0 0 0 0 0
          0 0 0 0 0 0
          0 0 0 0 0 0
          0 0 0 0 0 0
          0 0 0 0 0 0
          0 0 0 0 0 0
          0 0 0 0 0 0
          0 0 0 0 0 0
          0 0 0 0 0 0
          0 0 0 0 0 0
          0 0 0 0 0 0
          0 0 0 0 0 0
          0 0 0 0 0 0
          0 0 0 0 0 0
          0 0 0 0 0 0
          0 0 0 0 0 0
          0 0 0 0 0 0
          0 0 0 0 0 0
          0 0 0 0 0 0
          0 0 0 0 0 0
          0 0 0 0 0 0
          0 0 0 0 0 0
          0 0 0 0 0 0
          0 0 0 0 0 0
          0 0 0 0 0 0
          0 0 0 0 0 0
          0 0 0 0 0 0
          0 0 0 0 0 0
          0 0 0 0 0 0
          0 0 0 0 0 0
          0 0 0 0 0 0
          0 0 0 0 0 0
          0 0 0 0 0 0
          0 0 0 0 0 0
          0 0 0 0 0 0
          0 0 0 0 0 0
          0 0 0 0 0 0
          0 0 0 0 0 0
          0 0 0 0 0 0
          0 0 0 0 0 0
          0 0 0 0 0 0
          0 0 0 0 0 0
          0 0 0 0 0 0
          0 0 0 0 0 0
          0 0 0 0 0 0
          0 0 0 0 0 0
          0 0 0 0 0 0
          0 0 0 0 0 0
        </DataArray>
        <DataArray type="Float64" Name="markers_mustrefine" format="ascii" RangeMin="0" RangeMax="2">
          0 1 0 0 0.5 1
          0.25 0 0 0 0 0
          0 0 0 0 0 0
          1.3333333333333333 1 1 0.75 2 2
          0.6666666666666666 1.5 0 0 2 2
          0 2 2 0 1.5 0
          0 0 0 0 0 0
          0 0 0 0 0 0
          0 0 0 0 0 0
          0 0 0 0 0 0
          0 0 0 1 2 2
          1.5 2 0 1 0.5 2
          2 2 2 2 2 0.5
          0.5 2 2 0 2 2
          0.3333333333333333 1.5 1.25 2 2 2
          2 0 0 2 1.75 0
          1 1 0 1 0.75 2
          2 2 2 0 0.75 0
          0.5 0 0.25 0 2 2
          1.5 0 0.25 0 0 0
          0 0 2 0.75 2 2
          2 2 2 2 2 2
          2 2 2 2 2 2
          2 2 0 0 0.5 0.5
          0 0 2 2 2 2
          2 2 0 0 0 0
          0 0 0 0 0 0
          0 0 0 0 0 0
          0 0 0 0 0 0
          0 0 0 1 1 1
          2 0 0 1 1 0
          1 1 0 1 1 2
          2 2 2 0 1 1
          2 0 1 0 0.75 0
          1 0.5 2 1.75 2 2
          2 2 2 2 2 2
          2 2 2 2 2 2
          2 2 2 2 2 2
          2 2 2 2 2 0
          0 1 1 0 1 1
          0 1 1 2 2 2
          2 0 0 0.5 0.5 0
          0 0 0 0.5 0 1.5
          1.5 1.3333333333333333 1.6666666666666667 0 0.5 0
          0.5 0 0 0 1.5 1.6666666666666667
          1.3333333333333333 2 2 2 2 2
          2 2 2 2 2 2
          2 2 2 2 2 2
          2 2 2 2 2 2
          2 2 2 2 2 2
          2 2 2 2 1.75 2
          2 2 2 2 1.5 2
          2 2 2 2 1 1.5
          1.5 2 2 2 0 1
          1 2 0 1 0 1
          0 1 1 2 2 2
          2 2 1.5 1.75 1 1.5
          1.25 2 2 2 1 1.5
          0 1 2 2 0 0.75
          0 0.5 0 0.5 0 1.75
          1.5 1.6666666666666667 0 0.5 0 0
          1.5 0.6666666666666666 2 2 2 2
          2 2 2 2 2 2
          2 2 2 2 2 2
          2 2 2 2 2 2
          2 2 2 2 2 2
          2 2 2 2 2 2
          2 2 2 2 2 2
          2 2 2 2 2 2
          2 2 2 2 2 2
          2 2 2 2 2 2
          2 2 2 2 2 2
          2 2 2 2 2 2
          2 2 2 2 2 2
          2 2 2 2 2 2