<?xml version="1.0"?>
<VTKFile type="UnstructuredGrid" version="0.1" byte_order="LittleEndian" header_type="UInt32" compressor="vtkZLibDataCompressor">
  <UnstructuredGrid>
    <Piece NumberOfPoints="937" NumberOfCells="534">
      <PointData>
        <DataArray type="Int32" Name="libmesh_node_id" format="ascii" RangeMin="456" RangeMax="8967">
          532 533 534 535 536 537
          538 539 540 541 542 543
          570 571 572 573 574 575
          589 590 591 592 593 594
          608 609 610 611 612 613
          614 615 616 617 618 619
          620 621 622 623 646 647
          648 649 650 651 652 653
          665 666 667 668 669 670
          671 672 684 685 686 687
          688 689 690 691 692 693
          694 695 696 697 698 699
          722 723 724 725 726 727
          728 729 741 742 743 744
          745 746 747 748 760 761
          762 763 764 765 766 767
          768 769 770 771 772 773
          774 775 776 777 778 779
          780 781 798 799 800 801
          802 803 804 805 806 807
          808 817 818 819 820 821
          822 823 824 825 826 827
          836 837 838 839 840 841
          842 843 844 845 846 847
          848 849 850 851 852 853
          854 855 857 874 875 876
          877 878 879 880 881 882
          883 884 893 894 895 896
          897 898 899 900 901 902
          903 912 913 914 915 916
          917 918 919 920 921 922
          923 924 925 926 927 928
          929 930 931 933 950 951
          952 953 954 955 956 957
          958 959 960 969 970 971
          972 973 974 975 976 977
          978 979 1000 1781 1782 1783
          1784 1787 1788 1790 1791 1792
          1793 1794 1795 1796 1797 1798
          1799 1800 1801 1802 1803 1804
          1805 1806 1808 1809 1810 1811
          1813 1814 8388 8389 8390 8391
          8392 8393 8394 8395 8396 8397
          8398 8399 8400 8401 8402 8403
          8404 8405 8406 8407 8408 8409
          8410 8411 8412 8413 8414 8415
          8416 8417 8418 8419 8420 8421
          8422 8423 8424 8425 8426 8427
          8428 8429 8430 8431 8432 8433
          8434 8435 8436 8437 8438 8439
          8440 8441 8442 8443 8444 8445
          8446 8447 8448 8449 8450 8451
          8452 8453 8454 8455 8456 8457
          8458 8459 8460 8461 8462 8463
          8464 8465 8466 8467 8468 8469
          8470 8471 8472 8473 8474 8475
          8476 8477 8478 8479 8480 8481
          8482 8483 8484 8485 8486 8487
          8488 8489 8490 8491 8492 8493
          8494 8495 8496 8497 8498 8499
          8500 8501 8502 8503 8504 8505
          8506 8507 8508 8509 8510 8511
          8512 8513 8514 8515 8516 8517
          8518 8519 8520 8521 8522 8523
          8524 8525 8526 8527 8528 8529
          8530 8531 8532 8533 8534 8535
          8536 8537 8538 8539 8540 8541
          8542 8543 8544 8545 8546 8547
          8548 8549 8550 8551 8552 8553
          8554 8555 8556 8557 8558 8559
          8560 8561 8562 8563 8564 8565
          8566 8567 8568 8569 8570 8571
          8572 8573 8574 8575 8576 8577
          8578 8579 8580 8581 8582 8583
          8584 8585 8586 8587 8588 8589
          8590 8591 8592 8593 8594 8595
          8596 8597 8598 8599 8600 8601
          8602 8603 8604 8605 8606 8607
          8608 8609 8610 8611 8612 8613
          8614 8615 8616 8617 8618 8619
          8620 8621 8622 8623 8624 8625
          8626 8627 8628 8629 8630 8631
          8632 8633 8634 8635 8636 8637
          8638 8639 8640 8641 8642 8643
          8644 8645 8646 8647 8648 8649
          8650 8651 8652 8653 8654 8655
          8656 8657 8658 8659 8660 8661
          8662 8663 8664 8665 8666 8667
          8668 8669 8670 8671 8672 8673
          8674 8675 8676 8677 8678 8679
          8680 8681 8682 8683 8684 8685
          8686 8687 8688 8689 8690 8691
          8692 8693 8694 8695 8696 8697
          8698 8699 8700 8701 8702 8703
          8704 8705 8706 8707 8708 8709
          8710 8711 8712 8713 8714 8715
          8716 8717 8718 8719 8720 8721
          8722 8723 8724 8725 8726 8727
          8728 8729 8730 8731 8732 8733
          8734 8735 8736 8737 8738 8739
          8740 8741 8742 8743 8744 8745
          8746 8747 8748 8749 8750 8751
          8752 8753 8754 8755 8756 8757
          8758 8759 8760 8761 8762 8763
          8764 8765 8766 8767 8768 8769
          8770 8771 8772 8773 8774 8775
          8776 8777 8778 8779 8780 8781
          8782 8783 8784 8785 8786 8787
          8788 8789 8790 8791 8792 8793
          8794 8795 8796 8797 8798 8799
          8800 8801 8802 8803 8804 8805
          8806 8807 8808 8809 8810 8811
          8812 8813 8814 8815 8816 8817
          8818 8819 8820 8821 8822 8823
          8824 8825 8826 8827 8828 8829
          8830 8831 8832 8833 8834 8835
          8836 8837 8838 8839 8840 8841
          8842 8843 8844 8845 8846 8847
          8848 8849 8850 8851 8852 8853
          8854 8855 8856 8857 8858 8859
          8860 8861 8862 8863 8864 8865
          8866 8867 8868 8869 8870 8871
          8872 8873 8874 8875 8876 8877
          8878 8879 8880 8881 8882 8883
          8884 8885 8886 8887 8888 8889
          8890 8891 8892 8893 8894 8895
          8896 8897 8898 8899 8900 8901
          8902 8903 8904 8905 8906 8907
          8908 8909 8910 8911 8912 8913
          8914 8915 8916 8917 8918 8919
          8920 8921 8922 8923 8924 8925
          8926 8927 8928 8929 8930 8931
          8932 8933 8934 8935 8936 8937
          8938 8939 8940 8941 8942 8943
          8944 8945 8946 8947 8948 8949
          8950 8951 8952 8953 8954 8955
          8956 8957 8958 8959 8960 8961
          8962 8963 8964 8965 8966 8967
          456 457 458 459 460 461
          462 463 464 465 466 467
          468 469 544 545 494 495
          496 497 498 499 500 576
          513 514 515 516 517 518
          519 595 546 547 548 549
          624 625 577 578 654 596
          597 673 700 701 730 749
          702 703 704 705 706 707
          782 783 731 732 733 809
          750 751 752 828 859 885
          904 961 980 990 989 998
          994 993 999 1785 1786 1226
          1227 1230 1789 1236 856 988
          1807 1064 1001 1066 1071 1006
          1812 1074 1836 1838 1837 1844
          1099 1846 1849 1004 1842 1003
          1851 991 1831 1832 1835 932
          1841
        </DataArray>
        <DataArray type="Float64" Name="bounds" format="ascii" RangeMin="0" RangeMax="0">
          0 0 0 0 0 0
          0 0 0 0 0 0
          0 0 0 0 0 0
          0 0 0 0 0 0
          0 0 0 0 0 0
          0 0 0 0 0 0
          0 0 0 0 0 0
          0 0 0 0 0 0
          0 0 0 0 0 0
          0 0 0 0 0 0
          0 0 0 0 0 0
          0 0 0 0 0 0
          0 0 0 0 0 0
          0 0 0 0 0 0
          0 0 0 0 0 0
          0 0 0 0 0 0
          0 0 0 0 0 0
          0 0 0 0 0 0
          0 0 0 0 0 0
          0 0 0 0 0 0
          0 0 0 0 0 0
          0 0 0 0 0 0
          0 0 0 0 0 0
          0 0 0 0 0 0
          0 0 0 0 0 0
          0 0 0 0 0 0
          0 0 0 0 0 0
          0 0 0 0 0 0
          0 0 0 0 0 0
          0 0 0 0 0 0
          0 0 0 0 0 0
          0 0 0 0 0 0
          0 0 0 0 0 0
          0 0 0 0 0 0
          0 0 0 0 0 0
          0 0 0 0 0 0
          0 0 0 0 0 0
          0 0 0 0 0 0
          0 0 0 0 0 0
          0 0 0 0 0 0
          0 0 0 0 0 0
          0 0 0 0 0 0
          0 0 0 0 0 0
          0 0 0 0 0 0
          0 0 0 0 0 0
          0 0 0 0 0 0
          0 0 0 0 0 0
          0 0 0 0 0 0
          0 0 0 0 0 0
          0 0 0 0 0 0
          0 0 0 0 0 0
          0 0 0 0 0 0
          0 0 0 0 0 0
          0 0 0 0 0 0
          0 0 0 0 0 0
          0 0 0 0 0 0
          0 0 0 0 0 0
          0 0 0 0 0 0
          0 0 0 0 0 0
          0 0 0 0 0 0
          0 0 0 0 0 0
          0 0 0 0 0 0
          0 0 0 0 0 0
          0 0 0 0 0 0
          0 0 0 0 0 0
          0 0 0 0 0 0
          0 0 0 0 0 0
          0 0 0 0 0 0
          0 0 0 0 0 0
          0 0 0 0 0 0
          0 0 0 0 0 0
          0 0 0 0 0 0
          0 0 0 0 0 0
          0 0 0 0 0 0
          0 0 0 0 0 0
          0 0 0 0 0 0
          0 0 0 0 0 0
          0 0 0 0 0 0
          0 0 0 0 0 0
          0 0 0 0 0 0
          0 0 0 0 0 0
          0 0 0 0 0 0
          0 0 0 0 0 0
          0 0 0 0 0 0
          0 0 0 0 0 0
          0 0 0 0 0 0
          0 0 0 0 0 0
          0 0 0 0 0 0
          0 0 0 0 0 0
          0 0 0 0 0 0
          0 0 0 0 0 0
          0 0 0 0 0 0
          0 0 0 0 0 0
          0 0 0 0 0 0
          0 0 0 0 0 0
          0 0 0 0 0 0
          0 0 0 0 0 0
          0 0 0 0 0 0
          0 0 0 0 0 0
          0 0 0 0 0 0
          0 0 0 0 0 0
          0 0 0 0 0 0
          0 0 0 0 0 0
          0 0 0 0 0 0
          0 0 0 0 0 0
          0 0 0 0 0 0
          0 0 0 0 0 0
          0 0 0 0 0 0
          0 0 0 0 0 0
          0 0 0 0 0 0
          0 0 0 0 0 0
          0 0 0 0 0 0
          0 0 0 0 0 0
          0 0 0 0 0 0
          0 0 0 0 0 0
          0 0 0 0 0 0
          0 0 0 0 0 0
          0 0 0 0 0 0
          0 0 0 0 0 0
          0 0 0 0 0 0
          0 0 0 0 0 0
          0 0 0 0 0 0
          0 0 0 0 0 0
          0 0 0 0 0 0
          0 0 0 0 0 0
          0 0 0 0 0 0
          0 0 0 0 0 0
          0 0 0 0 0 0
          0 0 0 0 0 0
          0 0 0 0 0 0
          0 0 0 0 0 0
          0 0 0 0 0 0
          0 0 0 0 0 0
          0 0 0 0 0 0
          0 0 0 0 0 0
          0 0 0 0 0 0
          0 0 0 0 0 0
          0 0 0 0 0 0
          0 0 0 0 0 0
          0 0 0 0 0 0
          0 0 0 0 0 0
          0 0 0 0 0 0
          0 0 0 0 0 0
          0 0 0 0 0 0
          0 0 0 0 0 0
          0 0 0 0 0 0
          0 0 0 0 0 0
          0 0 0 0 0 0
          0 0 0 0 0 0
          0 0 0 0 0 0
          0 0 0 0 0 0
          0 0 0 0 0 0
          0 0 0 0 0 0
          0 0 0 0 0 0
          0 0 0 0 0 0
          0 0 0 0 0 0
          0
        </DataArray>
        <DataArray type="Float64" Name="gradient_error" format="ascii" RangeMin="1.8695866117747017e-11" RangeMax="6.107356204313756e-7">
          1.8540071043249364e-9 1.7096526283800728e-9 1.013264883584752e-9 1.108178391891616e-9 1.2627542309399965e-9 7.447722340223836e-10
          8.38853504620743e-10 5.238574318407868e-10 1.0349492284938424e-9 6.644177434004724e-10 1.5027816176728819e-9 9.395968657553976e-10
          2.153944328788902e-10 2.407159654907778e-10 1.6409308682733962e-10 1.5071407505595016e-10 1.9256590662277016e-10 2.3145044691754004e-10
          1.1391172696834891e-10 1.1908225152326e-10 1.0139593654990831e-10 9.256679105106969e-11 9.124555493843765e-11 8.648877999716668e-11
          5.223268642297918e-9 4.516432611926675e-9 2.869105027415407e-9 3.163220324210187e-9 3.152601915038724e-9 2.348163706885469e-9
          3.897327287638234e-9 2.9665215356051845e-9 6.8498748491396775e-9 4.679536047523373e-9 8.626427081316555e-9 5.6310852647839e-9
          8.514453018352625e-9 5.445902369793807e-9 6.327064698214736e-9 4.0696932365820295e-9 7.765956295117609e-10 7.232039944811837e-10
          9.23772952692289e-10 1.1651927980833223e-9 1.4106188560688528e-9 1.4734477975429496e-9 1.3313575383477175e-9 1.0201605685328856e-9
          3.3141381611938313e-10 3.4323598283991104e-10 3.038204066523635e-10 2.946698125945106e-10 3.1204046623063733e-10 3.111521468346549e-10
          2.853633554604474e-10 2.2799936211644746e-10 1.777685441373083e-8 1.8729523801767864e-8 1.815059728847689e-8 1.743985581457403e-8
          2.2885020128605653e-8 2.07328314343574e-8 3.3834216446271544e-8 2.6651000088779216e-8 4.633865641111947e-8 3.287825725525263e-8
          4.9450830592707363e-8 3.351499579152375e-8 4.372785272791808e-8 2.89798247853559e-8 3.029423987745414e-8 2.0162911518924833e-8
          9.604971897811702e-9 9.457459337831647e-9 9.905131734789237e-9 1.0137370071893456e-8 1.0044450963255698e-8 9.178117194717484e-9
          7.533976564645395e-9 5.370865551204449e-9 1.6382730204374853e-9 1.8120614602460616e-9 1.2296207294693246e-9 8.069564125000194e-10
          6.710438271256124e-10 7.770733990948286e-10 8.361562864970708e-10 7.101479420133785e-10 4.05762781274536e-8 4.192812468761021e-8
          1.1398779556909732e-7 1.165687512886738e-7 4.794670801944134e-8 1.0865277677065885e-7 6.130861135074469e-8 1.0430383281305777e-7
          1.898506988796994e-7 1.5890525284614853e-7 2.8388157598339315e-7 1.9629714776162392e-7 2.2957265879668662e-7 1.550549550311882e-7
          1.1387337338783796e-7 8.185641554321431e-8 1.5482098087065713e-8 2.0479807221602702e-8 7.504417854631656e-9 7.46870566847424e-9
          5.22400149621182e-9 2.9393720213069642e-9 1.0487972880830344e-7 1.0890965402502603e-7 9.499325924650761e-8 8.289560847427987e-8
          7.000457744060323e-8 5.587284746901432e-8 4.110151832095306e-8 2.6626310442611454e-8 1.3760001687428095e-8 5.415415325450338e-9
          1.799538041528262e-9 2.3024843951647186e-8 2.5190242605200574e-8 1.7840148332024674e-8 1.1878112806000585e-8 6.644293590188445e-9
          3.032975398173937e-9 1.6657853762163427e-9 1.3934790402597263e-9 9.564177818889653e-10 6.405569138249595e-10 3.7320829932324267e-10
          2.2858968949458497e-7 2.369132630528313e-7 2.3761293374701476e-7 2.3751183203639154e-7 2.5210576755635654e-7 2.359405327188622e-7
          2.683871633667524e-7 2.3172601628433885e-7 3.9716682033874527e-7 2.8290081729684e-7 5.120633340542577e-7 3.242726226507726e-7
          4.867654452307773e-7 2.9050790168237523e-7 2.729712926191099e-7 2.2234896429776554e-7 6.267210147601302e-8 1.6105833721635862e-7
          4.428484729180591e-8 1.3155548665525842e-7 9.8078233846477e-8 1.7086620888398357e-7 1.787795401475266e-7 1.520576215840552e-7
          1.292140515216401e-7 1.0515861086943618e-7 8.028304404487023e-8 5.5962636505286804e-8 3.415100812875335e-8 1.7100012045152274e-8
          7.019037464145084e-9 2.391869129734183e-9 1.198567110888155e-7 1.2793002244116007e-7 1.0034440199419467e-7 7.709457586369529e-8
          5.4064637792744536e-8 3.343272841885364e-8 1.7595313431117427e-8 7.084470537467471e-9 2.591840158477919e-9 1.9331359782855177e-9
          1.0894407925179116e-9 2.0762788477727376e-7 2.265538778224484e-7 3.011525719489404e-7 2.8447681907023266e-7 2.6434848817268236e-7
          3.3358412926741126e-7 3.126571217209073e-7 3.720644734006912e-7 3.7481279956609414e-7 4.166020212462731e-7 4.637926800340241e-7
          4.676886619399576e-7 4.604584768060033e-8 3.6946421539928113e-7 5.993115601340484e-8 2.3578983501566265e-7 8.702517130528268e-8
          2.3264655498605003e-7 1.3556646973506953e-7 2.1168703838926322e-7 1.644450340472356e-7 1.7298656025437639e-7 1.8018498635498378e-7
          1.5629613391274115e-7 1.353081431563134e-7 1.1206424553562056e-7 8.755537994979017e-8 6.284609396824945e-8 3.9508567586373584e-8
          2.109790258299682e-8 8.153954846092231e-9 3.331946032159767e-9 1.9646034257944293e-7 2.0860861257131804e-7 1.6702276063355484e-7
          1.3160623273259778e-7 9.570558456875009e-8 6.187065839473649e-8 3.3084793918669255e-8 1.2445003433294853e-8 3.844642571080668e-9
          2.7586811382276807e-9 1.5064759011079138e-9 1.6208691287402663e-7 8.772170747273106e-9 5.982540994920846e-9 5.037570375439544e-9
          2.9707781212952163e-8 2.169327374703048e-8 3.192911242568586e-9 1.3678766281108792e-8 4.823608831055158e-8 1.1709969147840626e-7
          1.2393413894588683e-7 1.6937341991211608e-7 1.8999665045025636e-7 2.176185429772757e-7 2.1581486874036535e-7 1.5190151144198942e-7
          1.9556666648357296e-7 2.221594268363048e-7 1.7470423417187776e-7 2.3652647092070715e-7 1.975076407562885e-7 1.9176848775098925e-7
          1.5249597247317257e-8 2.613277213047641e-8 6.210640046659351e-8 1.576350016385643e-9 3.5238734035859723e-9 3.791376684329991e-9
          9.80800288027106e-8 5.471396790786302e-9 5.296002763777782e-8 5.2736294543854475e-8 5.3051266295346454e-8 1.0208379980798024e-7
          1.015304976013973e-7 9.2261500402569e-8 9.287145184021876e-8 5.2071671143504536e-8 1.0007492838279099e-7 9.066512170568042e-8
          5.251256144993112e-8 8.299250320374069e-8 8.365910387245727e-8 8.125531502856983e-8 2.3097862734271278e-7 2.1688559242648657e-7
          2.1499327811536697e-7 2.2157363507880413e-7 2.003427406473215e-7 5.313679199558834e-8 5.1608557914853694e-8 9.806346552194475e-8
          8.84969377236705e-8 5.1735822233645744e-8 9.560190415773612e-8 8.58789305891475e-8 5.008032383411903e-8 7.893040992539623e-8
          7.615595702055889e-8 2.442975240631847e-7 2.274653359046831e-7 2.336613942017665e-7 2.0726560794449563e-7 5.714869745143943e-8
          5.2692632478498205e-8 9.262260939409234e-8 8.271925551937813e-8 5.4846437009232134e-8 8.915171306324726e-8 7.898934605391797e-8
          4.823656750555699e-8 7.28159016446639e-8 6.882697904458868e-8 2.601352798521087e-7 2.3980781103911416e-7 2.4580373725917053e-7
          2.1496478196373439e-7 6.795277421760208e-8 5.863310966862444e-8 8.536545633080515e-8 7.473269162920554e-8 6.098206214355032e-8
          8.342316668095009e-8 7.248252201193573e-8 4.93134451196468e-8 6.409992692760589e-8 6.154187734292137e-8 2.7708983822114765e-7
          2.516843492158793e-7 3.194460430862909e-7 2.2049374144204593e-7 6.031878062102171e-9 3.913646632168883e-9 5.67865231286014e-9
          1.7131029282336154e-8 1.7445863293925735e-8 1.3899371905641045e-8 1.2377072985458215e-8 1.7954152022355947e-9 1.0352880517356354e-8
          7.623116688580274e-9 2.568793857203936e-7 2.6244617212381277e-7 2.8118450109121815e-7 2.759181512916652e-7 2.7649468276020445e-7
          2.94496993078131e-7 2.6649328406372557e-7 2.629864022173818e-7 2.7533077695793786e-7 2.1303605712721683e-7 2.6038452359074667e-7
          2.5454138373768755e-7 2.751052882665101e-7 2.8920867963524406e-7 2.9487762903804637e-7 3.1193188042087787e-7 3.1593978092134156e-7
          3.317786217805459e-7 2.8676500639918403e-7 2.9941737848205416e-7 2.4415034899802453e-7 2.9431840656487684e-7 3.1625649410220796e-7
          3.1652184888996133e-7 3.3963517268069653e-7 3.538414447891449e-7 3.6629425460216907e-7 3.783566045455024e-7 3.1292395072851404e-7
          3.2724630535132487e-7 2.8709630699392097e-7 3.4081314606031957e-7 3.6823798967126766e-7 3.520983464033118e-7 3.9639958500905945e-7
          4.057125202462793e-7 4.2927323358089975e-7 4.35442520171182e-7 3.424232735066799e-7 3.5822198360811315e-7 3.413976320198318e-7
          3.9888861565058663e-7 4.337074666530883e-7 3.9354913921807326e-7 5.127300623817737e-7 4.5948241587443924e-7 4.6398125697930085e-7
          4.668045412238518e-7 4.807705303867457e-7 5.021827815300479e-7 5.009036471114224e-7 3.0715194471040754e-7 3.742233740349181e-7
          3.905095879204665e-7 4.15232451576828e-7 4.741266665732642e-7 5.210367638360992e-7 4.412948033594286e-7 5.661624600871661e-7
          5.005373353227053e-7 4.2388858973981825e-7 4.7677717394391126e-7 5.156774902378142e-7 3.383125679037972e-7 3.7181558904086197e-7
          3.1838809989646735e-7 4.065017122719795e-7 3.427605733816262e-7 2.745747127345527e-7 4.530382240778771e-7 2.2693897455745346e-7
          4.946153246474916e-7 6.107356204313756e-7 5.288041272396098e-7 3.5705564223158756e-7 3.1410196719023696e-7 2.7977657828107386e-7
          2.3850309211095493e-7 2.557899483838478e-7 3.165507996468942e-7 2.7186782214068995e-7 2.6958805177051484e-7 5.200984805490751e-8
          9.56504883675329e-8 1.0837582548132555e-7 2.330017303396528e-7 6.539565217910876e-8 1.5030702988111334e-7 1.1887944456436246e-7
          1.9645120190983145e-7 1.4533650616329594e-7 1.3377128693170376e-7 2.0389048830164247e-7 2.1095804176113406e-7 2.640272782996337e-7
          2.553004801533253e-7 7.214578654785164e-8 1.2376251651241053e-7 1.430055805935483e-7 2.359270711659049e-7 5.332423521303423e-8
          1.3514295245038017e-7 1.5052637928074598e-7 2.1086347080915897e-7 1.8602379538960688e-7 2.419310625033772e-7 1.0734004036673162e-7
          1.6705789283307696e-7 2.249338552560523e-7 1.5055503477435993e-7 1.5053528021854864e-7 1.8073391120532825e-7 1.800826690045277e-7
          1.505599021422262e-7 1.823202568502678e-7 1.0566696262727606e-7 1.2840408434182873e-7 1.291494504372286e-7 1.264782631807175e-7
          2.1091278763629658e-7 2.0963005779050676e-7 2.140806115583094e-7 1.5114120605638142e-7 1.506126343290186e-7 1.843590810397182e-7
          1.5053762672899548e-7 1.8641212978825183e-7 1.0069474031691334e-7 1.2417428108477767e-7 1.216069652521454e-7 2.181055277504178e-7
          2.2228663284750818e-7 1.4765382185264197e-7 1.5001869494852207e-7 1.8810839067266684e-7 1.489390290103691e-7 1.8929955019513033e-7
          9.410372845808027e-8 1.1841659678589904e-7 1.1452544417644693e-7 2.261980863968116e-7 2.2966007137989163e-7 1.427294651137178e-7
          1.471640499696857e-7 1.898290256889394e-7 1.4458849775122955e-7 1.8955045268935353e-7 8.540459603445537e-8 1.0983695984801827e-7
          1.04268744923945e-7 2.324940014081931e-7 2.3451240762747745e-7 1.3426932366158117e-7 1.4109224725944116e-7 1.8829323070774065e-7
          1.3654194583880446e-7 1.8585511735604841e-7 7.411537446517183e-8 9.776753881404772e-8 9.031557156396072e-8 2.3549421415604016e-7
          2.3516828887329236e-7 1.2141970316292363e-7 1.30890870240179e-7 1.82239410641694e-7 1.238410523333314e-7 1.7735340253743067e-7
          5.991775124566779e-8 8.182533237449564e-8 7.22890082940388e-8 2.3358795104320897e-7 2.308657527415299e-7 1.037329135033235e-7
          1.1508454070005001e-7 1.706074007965261e-7 1.0514244680635936e-7 1.617496007238111e-7 4.394011615415543e-8 6.199361190733559e-8
          5.1143479542144345e-8 2.2613026089300216e-7 2.1835675464126285e-7 8.004710766051574e-8 9.425935971882404e-8 1.5076590752667243e-7
          8.191183378024956e-8 1.3725585038852155e-7 2.732582988041206e-8 3.9911123837520677e-8 2.896292559778218e-8 2.0727245533452083e-7
          1.9259986699679352e-7 5.2496417794629295e-8 6.82566699729777e-8 1.2110235926170653e-7 5.397527831683806e-8 1.0263663796383015e-7
          1.304698926559507e-8 1.8996407199387364e-8 1.0721389058358215e-8 1.739480485504354e-7 1.512979976108222e-7 2.4945825133179656e-8
          3.963823681684729e-8 8.260367465864354e-8 4.3234476239816655e-9 5.43452305293957e-9 1.255691125004398e-7 6.545598481897475e-9
          1.3790085718099805e-7 1.3865445227008666e-7 1.7213358432911227e-7 1.6893912762322033e-7 8.927019027684079e-8 1.1163496417080137e-7
          1.163869232364062e-7 2.063663114772265e-7 1.9922380297635395e-7 1.3399973806476195e-7 6.414907348691592e-8 6.1660869136353e-8
          6.14026935800925e-8 9.508553577720516e-8 9.466646499122016e-8 8.717612563055166e-8 8.803702938668881e-8 6.319986858348715e-8
          9.34074548661329e-8 8.535202817463535e-8 5.9172664785790065e-8 7.968578626988313e-8 8.098852299617247e-8 7.729660148313784e-8
          1.7947581650429322e-7 1.70714312145414e-7 1.6193701659489015e-7 1.7950142594704689e-7 1.625628302464624e-7 7.447526986420984e-8
          6.703154665342629e-8 9.137519186811091e-8 8.23505780917998e-8 6.964280297242663e-8 9.017858571320545e-8 8.052125686456551e-8
          5.958782344264272e-8 7.33259643154887e-8 7.086392801592554e-8 2.0122194160781242e-7 1.8821030962012243e-7 1.7577648252757945e-7
          1.7344290329572498e-7 1.9369017052893453e-7 2.079852425139738e-7 1.8816684220190103e-7 2.1774747671773927e-7 2.3112112383799044e-7
          2.0476421952186192e-7 1.897089447903779e-7 2.214700393430209e-7 1.5361256454480706e-7 1.8723324286186992e-7 1.6713101640730688e-7
          2.1074358354767072e-7 2.157836475510183e-7 2.46548735581674e-7 2.5841847370098427e-7 2.4011154505543486e-7 1.989287018197351e-7
          2.3808593769189692e-7 2.600904189136679e-7 1.3285245709605784e-7 1.2937234111256578e-7 1.5338966434653812e-7 1.4734792769225078e-7
          1.357502287297342e-7 1.5917870384010388e-7 1.01922039025798e-7 1.1953120414836548e-7 1.1816874691182282e-7 1.1991209995240748e-7
          1.7392687159701836e-7 1.653235142719358e-7 1.8260717895047354e-7 1.3714036927093295e-7 1.3779275690757233e-7 1.6447232849745408e-7
          9.865342149727136e-8 1.1900977870433296e-7 1.9115190008733577e-7 1.3936613591139455e-7 1.5972186111904903e-8 1.4125374965986344e-8
          2.0279140800191394e-8 4.2640022429889355e-8 4.067392182962032e-8 3.1055411493648655e-8 3.361264524297897e-8 8.246697527032956e-9
          3.563881359844071e-8 2.5252324118024437e-8 1.2278563820067786e-8 2.1436901157676993e-8 2.458526805606859e-8 1.4865834637608161e-8
          1.061257032524875e-8 7.80661956631473e-9 2.7323360367458194e-8 1.8261623454125714e-8 5.0006688073807125e-9 9.199886540793234e-9
          7.905791512185224e-8 7.846463400498258e-8 7.17288578328741e-8 6.605720614908092e-8 6.561933374615753e-8 7.097496709427351e-8
          6.823006601667506e-8 8.897659598348979e-8 6.75217310209071e-8 7.62389126499249e-8 7.787135288811292e-8 7.633060044238948e-8
          7.04029258842692e-8 8.680370707796642e-8 5.218075237046281e-8 6.348530018356443e-8 6.473127420047602e-8 6.350122931636e-8
          7.478984799666605e-8 9.632524842926246e-8 9.610431753694964e-8 7.242423490027077e-8 8.115414441985636e-8 1.0318744612422604e-7
          7.769275604335347e-8 8.652338413943269e-8 9.236705256472004e-8 9.17964802967905e-8 9.752514775419849e-8 4.8523221371279076e-8
          6.620397130276306e-8 6.985932215463936e-8 9.122590802886099e-8 1.1124395127824492e-7 1.1089786807356774e-7 8.338600675779472e-8
          9.274139825532647e-8 1.0813622289722232e-7 8.877328324064642e-8 9.897015219349093e-8 1.0570590787447916e-7 1.0369665698266884e-7
          1.1019378338440954e-7 5.55280622373445e-8 7.45849284370852e-8 8.012322661420026e-8 1.0168740609085853e-7 7.16707391331945e-8
          6.924864592849599e-8 7.26703550601705e-8 8.589521279856877e-8 8.63608063060528e-8 8.148831428710817e-8 8.072243410313715e-8
          6.479343653091669e-8 8.753435335248967e-8 8.283811605054419e-8 6.682655272379748e-8 7.661582226816353e-8 7.554965540770551e-8
          7.814187874859871e-8 1.1139722483082137e-7 1.0876647667226402e-7 1.1618480314032586e-7 1.0800164422976235e-7 6.382067083651404e-8
          6.359427705831608e-8 8.918577762346057e-8 8.41654365102855e-8 6.322890804829152e-8 9.099170545103526e-8 8.557379568505536e-8
          6.336788328011812e-8 7.914509539711045e-8 8.015588591907545e-8 1.2617505490821404e-7 1.229583362258674e-7 1.2989479516893126e-7
          1.2105348218968246e-7 9.374221340678864e-8 1.052444453162285e-7 1.001258078912395e-7 1.1276376854314934e-7 1.1723280010853832e-7
          1.250328280467553e-7 6.574085063084565e-8 8.66839199336493e-8 9.404072637581866e-8 1.1566567977869787e-7 1.0841309107066075e-7
          1.2172785694940127e-7 1.1799183839281239e-7 1.3181106405497846e-7 1.3348407579381494e-7 1.4263704161887988e-7 7.90269567353005e-8
          1.0227563740932263e-7 1.1175122109391356e-7 1.3284908206015756e-7 1.006789166685701e-7 9.671391581329201e-8 1.0765564481157927e-7
          1.0282561946562284e-7 1.0476011025593702e-7 1.1272880919757672e-7 8.962435767526643e-8 9.759236663175028e-8 9.4430693308762e-8
          1.0079369149670201e-7 1.1463237295458844e-7 1.0893732311795366e-7 1.206975081392164e-7 1.0556037558823414e-7 1.0887533282294468e-7
          1.1800921112860845e-7 1.1304320866694182e-7 1.2351621155296545e-7 9.407345416388362e-8 1.0409289349772886e-7 1.0738862958531568e-7
          1.2714308943427222e-7 1.3398921443898912e-7 1.1411233283157408e-7 6.298635098461941e-8 6.279241122964213e-8 9.259702908574257e-8
          8.678308198520339e-8 6.22734719598968e-8 9.390248165716634e-8 8.768566873765174e-8 6.259847147466483e-8 8.096913488466418e-8
          8.146885581813714e-8 1.4187896468698536e-7 1.3728233377664116e-7 1.4511917996349088e-7 1.3384081579405086e-7 6.240812185116765e-8
          6.172720771274973e-8 9.477316048532941e-8 8.81449470134783e-8 6.104629357433182e-8 8.151673354162716e-8 1.597057833103321e-7
          1.533642017574324e-7 1.4791850610722108e-7 1.2896109453872045e-7 1.4322421761986054e-7 1.4160107781514585e-7 1.562097903968708e-7
          1.5271814439484602e-7 1.638396624889134e-7 9.637196689033594e-8 1.2265752042720341e-7 1.352790863821666e-7 1.5434496424594756e-7
          1.562741747112911e-7 1.7106617807829537e-7 1.761227189888186e-7 1.2027498192140924e-7 1.499666389559328e-7 1.813612655712668e-7
          1.1726733644792255e-7 1.2925638359923337e-7 1.2146284344055628e-7 1.3518519467351956e-7 9.838363124628648e-8 1.105638191097753e-7
          1.1350956734780815e-7 1.4124543075054418e-7 1.4890754590648282e-7 1.2274400697326412e-7 1.2553205861346236e-7 1.4124276308619445e-7
          1.0135383931432688e-7 1.1609826964005139e-7 1.5695346755892656e-7 1.308426999657759e-7 8.349345692779042e-8 8.005683544883893e-8
          8.917245448338355e-8 8.670414468806547e-8 8.89783306042792e-8 9.383472206076752e-8 7.813619537077758e-8 8.463600231262804e-8
          8.290935670011704e-8 8.797316084864999e-8 9.48514520389767e-8 9.3351453927292e-8 9.869111351725583e-8 9.11358092544785e-8
          9.289996920271257e-8 9.82525492494825e-8 8.493990752535741e-8 9.120857428648556e-8 1.0360512929625243e-7 9.74772410476137e-8
          4.802600757138882e-10 4.6329533469484593e-10 2.8546180323884086e-10 2.9787171749862784e-10 3.927846740062973e-10 2.3902795481706114e-10
          2.541693747240677e-10 1.5456939853791254e-10 1.897350839193456e-10 1.1528728563651031e-10 2.6040137674598613e-10 1.5582596271039724e-10
          3.431682119430345e-10 2.0400292839062633e-10 1.692489867753878e-9 1.0432575766277345e-9 6.733371971085547e-11 7.17961439444453e-11
          5.473315760871068e-11 3.8488195356846155e-11 3.124524322930788e-11 3.592456603887201e-11 4.176675547798259e-11 2.3563212951796936e-10
          2.7039167638875187e-11 2.8108928605523006e-11 2.4195079589596347e-11 2.200696836193493e-11 2.165099910494072e-11 2.0598583402935695e-11
          1.8695866117747017e-11 7.723897353434786e-11 1.3611330230421987e-9 8.465486534493718e-10 6.72063067654583e-10 4.3592575437702037e-10