<?xml version="1.0"?>
<VTKFile type="UnstructuredGrid" version="0.1" byte_order="LittleEndian" header_type="UInt32" compressor="vtkZLibDataCompressor">
  <UnstructuredGrid>
    <Piece NumberOfPoints="830" NumberOfCells="554">
      <PointData>
        <DataArray type="Int32" Name="libmesh_node_id" format="ascii" RangeMin="1165" RangeMax="7760">
          1165 1168 1173 1174 1604 1630
          1639 1640 1644 2443 2444 2447
          2449 2479 2480 2481 2482 2483
          2484 2485 2486 2487 2488 2489
          2490 2491 2492 2493 2494 2495
          2496 2497 2498 2557 2559 2561
          2591 2593 2595 2617 2618 2619
          2620 2621 2622 2623 2624 2625
          2626 2627 2628 2629 2630 2651
          2652 2653 2654 2655 2656 2657
          2658 2659 2660 2661 2662 2663
          2664 2677 2707 2711 2731 2732
          2741 2764 2765 2768 2769 2771
          2775 2883 2894 2896 2898 2900
          2915 2920 2931 2933 2935 2937
          4293 4309 4310 4313 4315 4417
          4418 4419 4422 4427 4428 4429
          4432 4433 4434 4435 4436 4437
          4438 4439 4440 4441 4442 4443
          4444 4445 4446 4447 4448 4449
          4450 4451 4452 4457 4458 4459
          4462 4467 4468 4469 4472 4473
          4474 4475 4476 4477 4478 4479
          4480 4481 4482 4483 4484 4485
          4486 4487 4488 4489 4490 4491
          4492 4519 4520 4523 4525 4527
          4528 4529 4530 4531 4532 4533
          4534 4535 4706 4708 4710 4720
          4722 4724 4734 4736 4738 4748
          4750 4752 4946 4958 4960 4962
          4974 4986 4988 4990 5128 5129
          5130 5131 5132 5133 5134 5135
          5136 5137 5138 5139 5140 5141
          5142 5143 5144 5145 5146 5147
          5148 5149 5150 5151 5152 5153
          5154 5155 5156 5157 5158 5159
          5160 5161 5162 5163 5164 5165
          5166 5167 5168 5169 5170 5171
          5172 5173 5174 5175 5176 5177
          5178 5179 5180 5181 5182 5183
          5184 5185 5186 5187 5188 5189
          5190 5191 5192 5193 5194 5195
          5196 5197 5198 5199 5200 5201
          5202 5203 5204 5205 5206 5207
          5208 5209 5210 5211 5212 5213
          5214 5215 5216 5217 5218 5219
          5220 5221 5222 5223 5224 5225
          5226 5227 5228 5229 5230 5231
          5232 5233 5234 5235 5236 5237
          5238 5239 5376 5377 5378 5379
          5380 5381 5382 5383 5384 5385
          5386 5387 5388 5389 5390 5391
          5392 5393 5394 5395 5396 5397
          5398 5399 5400 5401 5402 5403
          5404 5405 5406 5407 5408 5409
          5410 5411 5412 5413 5414 5415
          5416 5417 5418 5419 5420 5421
          5422 5423 5424 5425 5426 5427
          5428 5429 5430 5431 5432 5433
          5434 5435 5436 5437 5438 5439
          5440 5441 5442 5443 5444 5445
          5446 5447 5448 5449 5450 5451
          5452 5453 5454 5455 5456 5457
          5458 5459 5460 5461 5462 5463
          5464 5465 5466 5467 5468 5469
          5470 5471 5472 5473 5474 5475
          5476 5477 5478 5479 5480 5481
          5482 5483 5484 5485 5486 5487
          5540 5544 5574 5576 5578 5592
          5734 5736 5738 5748 5752 5762
          5764 5766 5776 5780 5878 5879
          5882 5883 5885 5886 5887 5888
          5892 5893 5915 5916 5917 5918
          5919 5920 5921 5922 5923 5924
          5925 5926 5927 5928 5943 5944
          5945 5946 5950 5951 5953 5954
          5955 5956 5960 5961 5983 5984
          5985 5986 5987 5988 5989 5990
          5991 5992 5994 5995 5996 6112
          6113 6114 6115 6116 6117 6118
          6119 6120 6121 6122 6123 6124
          6125 6140 6141 6142 6143 6144
          6145 6146 6147 6148 6149 6150
          6151 6152 6153 6168 6169 6170
          6171 6172 6173 6174 6175 6176
          6177 6179 6180 6181 6196 6197
          6198 6199 6200 6201 6202 6203
          6204 6205 6207 6208 6209 6519
          6586 6590 6676 6678 6680 6682
          6690 6691 6694 6695 6696 6697
          6698 6699 6704 6705 6709 6710
          6712 6713 6714 6715 6716 6724
          6725 6726 6727 6728 6729 6730
          6733 6737 6828 6829 6832 6862
          6863 6866 6942 6943 6944 6945
          6946 6947 6948 6956 6957 6958
          6959 6960 6961 6962 6970 6971
          6972 6973 6974 6975 6976 6984
          6985 6986 6987 6988 6989 6990
          7557 7558 7559 7560 7564 7565
          7567 7568 7574 7597 7598 7601
          7602 7604 7608 7719 7720 7723
          7724 7747 7748 7751 7752 1586
          1599 1600 2519 2511 2520 2512
          2521 2522 2527 2526 2864 2868
          2865 2869 2871 2873 3289 3290
          3291 3292 2734 2736 3409 3410
          1707 3411 2870 3412 3027 1712
          3029 4536 2517 5880 5542 5881
          5884 2673 2727 5889 5890 5891
          5894 2728 5902 5564 5929 5588
          5903 5930 5933 5934 5912 5936
          5913 5937 5940 5941 5947 5948
          5949 5952 2735 5957 5958 5959
          5962 2737 5993 2742 5970 5997
          5971 5998 6001 6002 5980 6004
          5981 6005 6008 6009 6126 6127
          6130 6131 6133 6134 6137 6138
          6154 6155 6158 6159 6161 6162
          6165 6166 6178 2772 6182 6183
          6186 6187 6189 6190 6193 6194
          6206 2776 6210 6211 6214 6215
          6217 6218 6221 6222 6677 6679
          6681 6683 6685 6687 6689 6692
          6693 6700 6701 6702 6703 6706
          6707 6708 2897 6711 6587 6717
          6719 6593 6597 6721 6723 6731
          6732 6734 6735 6736 1717 6835
          6949 6951 6839 6953 6955 6963
          6965 6964 6966 6967 6969 6869
          6977 6979 6873 6981 6983 6991
          6993 6995 6997 7561 7562 7563
          7566 3028 7569 7570 7571 7572
          7573 7575 7576 3030 7599 7600
          7603 3034 7605 7606 7607 7609
          7610 3035 7721 7722 7725 3067
          7726 7727 7728 7729 7730 7732
          7749 7750 7753 3071 7754 7756
          7758 7760
        </DataArray>
        <DataArray type="Float64" Name="bounds" format="ascii" RangeMin="0" RangeMax="0">
          0 0 0 0 0 0
          0 0 0 0 0 0
          0 0 0 0 0 0
          0 0 0 0 0 0
          0 0 0 0 0 0
          0 0 0 0 0 0
          0 0 0 0 0 0
          0 0 0 0 0 0
          0 0 0 0 0 0
          0 0 0 0 0 0
          0 0 0 0 0 0
          0 0 0 0 0 0
          0 0 0 0 0 0
          0 0 0 0 0 0
          0 0 0 0 0 0
          0 0 0 0 0 0
          0 0 0 0 0 0
          0 0 0 0 0 0
          0 0 0 0 0 0
          0 0 0 0 0 0
          0 0 0 0 0 0
          0 0 0 0 0 0
          0 0 0 0 0 0
          0 0 0 0 0 0
          0 0 0 0 0 0
          0 0 0 0 0 0
          0 0 0 0 0 0
          0 0 0 0 0 0
          0 0 0 0 0 0
          0 0 0 0 0 0
          0 0 0 0 0 0
          0 0 0 0 0 0
          0 0 0 0 0 0
          0 0 0 0 0 0
          0 0 0 0 0 0
          0 0 0 0 0 0
          0 0 0 0 0 0
          0 0 0 0 0 0
          0 0 0 0 0 0
          0 0 0 0 0 0
          0 0 0 0 0 0
          0 0 0 0 0 0
          0 0 0 0 0 0
          0 0 0 0 0 0
          0 0 0 0 0 0
          0 0 0 0 0 0
          0 0 0 0 0 0
          0 0 0 0 0 0
          0 0 0 0 0 0
          0 0 0 0 0 0
          0 0 0 0 0 0
          0 0 0 0 0 0
          0 0 0 0 0 0
          0 0 0 0 0 0
          0 0 0 0 0 0
          0 0 0 0 0 0
          0 0 0 0 0 0
          0 0 0 0 0 0
          0 0 0 0 0 0
          0 0 0 0 0 0
          0 0 0 0 0 0
          0 0 0 0 0 0
          0 0 0 0 0 0
          0 0 0 0 0 0
          0 0 0 0 0 0
          0 0 0 0 0 0
          0 0 0 0 0 0
          0 0 0 0 0 0
          0 0 0 0 0 0
          0 0 0 0 0 0
          0 0 0 0 0 0
          0 0 0 0 0 0
          0 0 0 0 0 0
          0 0 0 0 0 0
          0 0 0 0 0 0
          0 0 0 0 0 0
          0 0 0 0 0 0
          0 0 0 0 0 0
          0 0 0 0 0 0
          0 0 0 0 0 0
          0 0 0 0 0 0
          0 0 0 0 0 0
          0 0 0 0 0 0
          0 0 0 0 0 0
          0 0 0 0 0 0
          0 0 0 0 0 0
          0 0 0 0 0 0
          0 0 0 0 0 0
          0 0 0 0 0 0
          0 0 0 0 0 0
          0 0 0 0 0 0
          0 0 0 0 0 0
          0 0 0 0 0 0
          0 0 0 0 0 0
          0 0 0 0 0 0
          0 0 0 0 0 0
          0 0 0 0 0 0
          0 0 0 0 0 0
          0 0 0 0 0 0
          0 0 0 0 0 0
          0 0 0 0 0 0
          0 0 0 0 0 0
          0 0 0 0 0 0
          0 0 0 0 0 0
          0 0 0 0 0 0
          0 0 0 0 0 0
          0 0 0 0 0 0
          0 0 0 0 0 0
          0 0 0 0 0 0
          0 0 0 0 0 0
          0 0 0 0 0 0
          0 0 0 0 0 0
          0 0 0 0 0 0
          0 0 0 0 0 0
          0 0 0 0 0 0
          0 0 0 0 0 0
          0 0 0 0 0 0
          0 0 0 0 0 0
          0 0 0 0 0 0
          0 0 0 0 0 0
          0 0 0 0 0 0
          0 0 0 0 0 0
          0 0 0 0 0 0
          0 0 0 0 0 0
          0 0 0 0 0 0
          0 0 0 0 0 0
          0 0 0 0 0 0
          0 0 0 0 0 0
          0 0 0 0 0 0
          0 0 0 0 0 0
          0 0 0 0 0 0
          0 0 0 0 0 0
          0 0 0 0 0 0
          0 0 0 0 0 0
          0 0 0 0 0 0
          0 0 0 0 0 0
          0 0 0 0 0 0
          0 0 0 0 0 0
          0 0
        </DataArray>
        <DataArray type="Float64" Name="gradient_error" format="ascii" RangeMin="6.539459764547447e-12" RangeMax="5.544181665924762e-9">
          2.1871381411430432e-10 5.461016480466188e-11 3.5816385584598177e-9 8.430007392290959e-10 1.448750501427201e-10 1.5923336443368146e-9
          7.660027678042375e-10 2.766490927734173e-10 2.0218028029967503e-9 4.326004084205976e-10 2.771226650681418e-10 2.0722533614238295e-10
          3.173797536503181e-10 2.6220356525144517e-10 1.6892159996075937e-10 1.5330198149934299e-10 9.872651365779261e-11 1.9308041672907094e-10
          1.6766476611619555e-10 1.4130183853135858e-10 2.0290622746834576e-10 1.228816366288707e-10 1.7558207818076238e-10 8.551497151942334e-11
          5.5317132987010055e-11 4.4518546129985455e-11 3.991725720625852e-11 6.29704220991471e-11 8.070670688060751e-11 5.357069118658097e-11
          7.049000537665734e-11 4.735780064580098e-11 8.30470220430263e-11 9.634553131159593e-10 6.389820982895556e-10 2.4962864921425774e-9
          4.764199323380777e-9 2.990137130269267e-9 5.4290747429530755e-9 6.589435351373091e-10 4.223742885221944e-10 4.274429687638735e-10
          2.6898450382873174e-10 1.850514396512681e-9 1.28026620553163e-9 1.1430316802306432e-9 2.534849365318298e-10 1.424569149326446e-10
          1.591251072449123e-10 8.852577466165281e-11 8.208838338633548e-10 4.861732920789811e-10 4.774228293634354e-10 3.686891846401389e-9
          2.715839566670019e-9 2.276777786427914e-9 1.619930734567454e-9 4.2085259545700745e-9 3.1382788415132445e-9 2.7767811128593477e-9
          1.865236453703194e-9 1.1745703027638934e-9 1.0663112098390005e-9 6.463586107975765e-10 2.2245374023227052e-9 1.4456100567673089e-9
          1.3620866321591557e-9 8.945219684441469e-10 1.6358341459866359e-9 2.0084553852558564e-9 6.182687819001105e-10 4.0066167859972485e-10
          2.4299848375610566e-10 1.190256642127773e-9 8.079404645469545e-10 1.4901622414124895e-9 1.030583590326004e-9 5.096356158774864e-10
          6.608754151832295e-10 4.0751988071133633e-10 7.512277012399475e-11 4.635782266829304e-11 2.6642241898531426e-10 1.4937976191555774e-10
          1.0424732753481564e-9 1.1958712103835956e-9 6.758416335585034e-10 3.6119034798328034e-10 8.553923961027266e-10 4.792072979819486e-10
          1.7400748965599126e-10 1.0451017877240928e-10 1.479722066112775e-10 1.2289916372506188e-10 2.6705032478850886e-10 9.636142512864368e-11
          1.3841641203739052e-10 1.0886265985776979e-10 2.554915583401121e-10 5.812229937362814e-11 8.428329710554181e-11 6.445983899611475e-11
          1.5896988429477965e-10 8.36884411662123e-11 1.173913182831608e-10 6.702210175046944e-11 9.175023557543298e-11 7.187960852623913e-11
          9.684862174743379e-11 8.050471521799511e-11 2.143058303244508e-10 1.6913332123129465e-10 1.7451778847836452e-10 5.236511727111479e-11
          7.07545754189956e-11 3.993506584096984e-11 5.408121896189728e-11 5.034525346466687e-11 6.373356807084488e-11 4.876169492081267e-11
          1.3143972837076353e-10 1.0109744741977548e-10 1.199796813317987e-10 3.335798782487816e-11 4.8808066009371264e-11 3.651694181807651e-11
          9.373192373101156e-11 1.9020782114205275e-11 2.6728495945252766e-11 2.068560151648288e-11 5.219221826844847e-11 3.021627085385953e-11
          4.097127943091492e-11 2.2695731419639715e-11 3.0646320886253245e-11 2.925081156161303e-11 3.699542553069388e-11 2.7695158529069827e-11
          7.694890514912421e-11 5.782366286879854e-11 6.972312202166686e-11 1.7133079922866252e-11 2.2364182041736624e-11 1.505390842180322e-11
          1.8830471369702673e-11 1.6344010595400734e-11 2.0225607561280365e-11 1.7234158334398184e-11 4.268133491686535e-11 3.588374147728436e-11
          3.869851448331608e-11 7.526923141583175e-11 9.908865710275622e-11 8.749345174943177e-11 1.7355744688513992e-10 6.12770371683278e-11
          7.790445192873032e-11 5.610741384157407e-11 6.847946532297173e-11 5.6484419303047046e-11 6.90127178510035e-11 6.12869854519965e-11
          1.3770882807275643e-10 1.2264404468606932e-10 6.558426767285193e-10 5.61980765282181e-10 1.1328046927226034e-9 4.686618233106117e-10
          3.8047516298409864e-10 7.958935997087108e-10 1.8817794198051456e-9 1.5889859641118587e-9 2.9780902876698197e-9 1.3008721292421622e-9
          1.0328657599589513e-9 2.026402903767071e-9 3.6518732845441207e-9 2.9416317026183025e-9 2.2950730469327197e-9 3.831178018761575e-9
          5.339833211029863e-9 4.366321134936733e-9 3.4438481041889382e-9 4.5053581206140345e-9 5.386485555206031e-10 4.3585945125104384e-10
          4.5984591942244806e-10 3.7077263888008087e-10 9.488996116911394e-10 7.82195150113057e-10 8.030970346022043e-10 3.473431947564337e-10
          2.7258222594513444e-10 2.9449508968995194e-10 2.3043084775441796e-10 6.341633335627314e-10 5.055418392637608e-10 5.319283698727391e-10
          3.8247002669815013e-10 3.076879299406439e-10 3.0974713371866414e-10 2.485612261720394e-10 6.597851480842758e-10 5.385529461505872e-10
          5.265673715637718e-10 2.4339530129963346e-10 1.8960687111162755e-10 1.955996674944863e-10 1.515943584099059e-10 4.326904045676315e-10
          3.4211218929388234e-10 3.4172559501453324e-10 1.6101654200759409e-9 1.355337428268758e-9 1.3517596742239e-9 1.1312594177848481e-9
          2.599436941578654e-9 2.2341534967192797e-9 2.1667950942418556e-9 1.1213027557271557e-9 9.11128738874393e-10 9.305931435568886e-10
          7.520531219839865e-10 1.8877825315876555e-9 1.566436705951316e-9 1.5532982116236746e-9 1.099216328205683e-9 9.138390782068772e-10
          8.662432590144793e-10 7.150335613407288e-10 1.7459429781366817e-9 1.4798080201578312e-9 1.3602367999783155e-9 7.46984189550966e-10
          6.001152524882658e-10 5.805841796252961e-10 4.6358551972217185e-10 1.2326448813357468e-9 1.0082705703713908e-9 9.440943261689668e-10
          2.1066032230094443e-10 1.6037181866998423e-10 1.7765879472190957e-10 1.3502431623778043e-10 3.962226007091402e-10 3.053286188426832e-10
          3.298994078497861e-10 1.2035636136171864e-10 8.894017827123833e-11 1.013911961389251e-10 7.494073344095775e-11 2.313511589235302e-10
          1.724022716170117e-10 1.9158213841805062e-10 1.4572255039060844e-10 1.105058809020411e-10 1.1609946566247896e-10 8.780470583282955e-11
          2.6620750144879473e-10 2.0389058164830958e-10 2.084783904173717e-10 8.279814496164085e-11 6.102975303680977e-11 6.549721606693737e-11
          4.8107520732010593e-11 1.536859625850507e-10 1.1402238407143218e-10 1.1960537469895913e-10 7.267733069706902e-10 5.689539134025976e-10
          5.968840154762014e-10 4.6518403231085054e-10 1.2751753314152721e-9 1.0175099255348328e-9 1.0352933566704032e-9 4.3713274371381805e-10
          3.296894830242238e-10 3.560305304336425e-10 2.676615342061912e-10 7.953979684349505e-10 6.090786843819602e-10 6.380344781468686e-10
          4.737524414475559e-10 3.674830378514128e-10 3.639691480760179e-10 2.809796535013131e-10 8.094094029551036e-10 6.374834208697511e-10
          6.10305309773727e-10 2.801235821638757e-10 2.0989196710140292e-10 2.1331470576954828e-10 1.5929618157505575e-10 4.925529417156535e-10
          3.73427538509026e-10 3.6671486444109353e-10 3.883820476261906e-9 3.382861520520309e-9 3.2154143959224917e-9 2.792335024750452e-9
          5.082852095305868e-9 4.444986502777848e-9 4.216095585584016e-9 2.9071364827541582e-9 2.4591414882240644e-9 2.3870942727832986e-9
          2.005041768665436e-9 3.840403684382168e-9 3.284482888257928e-9 3.186845459389183e-9 2.5771193929512864e-9 2.222849974115004e-9
          1.9936629567575896e-9 1.7038101950197227e-9 3.3868667798347103e-9 2.9558601705209367e-9 2.6293975714368245e-9 1.884945297743776e-9
          1.5695105631787818e-9 1.4309760370366043e-9 1.1799512620783207e-9 2.541170685847612e-9 2.146981318433463e-9 1.9382156533944967e-9
          5.544181665924762e-9 4.866377713413394e-9 4.73401909630576e-9 4.138109058866649e-9 5.506278762959377e-9 4.850010347498216e-9
          4.81959102515896e-9 4.198594552029957e-9 3.5974098636599306e-9 3.5863547133186464e-9 3.0805910636175025e-9 4.180850208166969e-9
          3.5784204777402425e-9 3.645434883174274e-9 3.865666519674632e-9 3.389055188661805e-9 3.0473148155333375e-9 2.6591572247735573e-9
          3.986237257699376e-9 3.496633795127757e-9 3.174314902102218e-9 2.936309040029962e-9 2.5044276150670323e-9 2.2829959170571467e-9
          1.9247946745326134e-9 3.0365202905720434e-9 2.5986249247372157e-9 2.390831872611887e-9 2.042364955982998e-9 1.662214478908605e-9
          1.652205857518142e-9 1.3339803336008355e-9 2.771471903985641e-9 2.295394887419377e-9 2.2737684957148058e-9 1.3239545226671128e-9
          1.0312907174162891e-9 1.0543964535836129e-9 8.156400870279324e-10 1.859893620410289e-9 1.4724405217621348e-9 1.4969797271889722e-9
          1.2818301238137136e-9 1.0259631822121274e-9 9.545268932996611e-10 7.571989314397061e-10 1.7793050246085825e-9 1.4444780369598008e-9
          1.327721381871928e-9 8.044226051724527e-10 6.178548204376278e-10 5.889524622004206e-10 4.4923141098590105e-10 1.1477328159120985e-9
          8.923130726570778e-10 8.388202997928179e-10 3.064074863351548e-9 2.5723669317638515e-9 2.607737974889674e-9 2.1642179538961435e-9
          3.0569465710662917e-9 2.5816602234375286e-9 2.6678450614737045e-9 2.1134250144421833e-9 1.6955285070932931e-9 1.7568404996088592e-9
          1.3936286951229353e-9 2.1344586709032673e-9 1.7226710751530637e-9 1.8141764452616995e-9 2.096199968436621e-9 1.7186077061509177e-9
          1.5913685596419208e-9 1.288856250006211e-9 2.1829947878617586e-9 1.7963651198925445e-9 1.676703305951491e-9 1.3786395382424117e-9
          1.081491557983063e-9 1.0219492653678755e-9 7.932183883847795e-10 1.446256914982033e-9 1.1384881115856098e-9 1.0831520514824282e-9
          3.0140402010101864e-10 4.988985349191081e-10 7.959859527730629e-10 5.963055816273346e-10 1.211901182079971e-9 6.418360992103023e-10
          1.7305185533205399e-9 1.2618823411502855e-9 2.253705416221771e-9 8.919511295635271e-10 1.1459758145642295e-9 2.6209061492367495e-9
          1.910508686870058e-9 2.7444122734404427e-9 1.3366895286202688e-9 1.406722434736355e-9 2.4405893039418514e-10 1.9470001762634965e-10
          4.0861679927594544e-10 3.298718230217227e-10 1.1086079166183588e-10 1.524274755884483e-10 8.450719556339997e-11 1.1768028537575024e-10
          2.624013168559131e-10 2.056163356080651e-10 6.623392215650147e-10 5.427168890840742e-10 4.922475517602272e-10 4.004124573777763e-10
          1.0255083374576541e-9 8.538535100734309e-10 7.495175019624389e-10 4.3770159950431997e-10 3.4736979223064814e-10 3.2081346820421907e-10
          2.5312999804661984e-10 6.990768342561415e-10 5.625831860467258e-10 5.01825240832109e-10 6.401463796864462e-11 8.983950353127023e-11
          4.8025948037598966e-11 6.773613390982866e-11 1.5873533916181627e-10 1.2073351302286928e-10 3.5464749742923357e-11 5.0327988326315686e-11
          2.588090044249815e-11 3.688478750316256e-11 9.047588560062312e-11 6.679473983893998e-11 2.71250540277333e-10 2.0841409652276134e-10
          1.966509395476561e-10 1.5039764871205186e-10 4.4491250222505276e-10 3.457579460679122e-10 3.146277547218789e-10 1.5758442072817023e-10
          1.1728090855138178e-10 1.1324484433683722e-10 2.6408170997957934e-10 1.982803876875203e-10 1.846032623431082e-10 1.4878049195700065e-9
          1.258202492520486e-9 1.0726620621052944e-9 8.970880083453525e-10 1.9619870173556977e-9 1.6802640548028526e-9 1.4069804086855312e-9
          1.0456855336920757e-9 8.535045024871801e-10 7.376397705958526e-10 5.960739819046585e-10 1.4139775326996246e-9 1.1680823892553315e-9
          9.895222338809829e-10 2.298914372351759e-9 1.984235452874085e-9 1.655322106137632e-9 1.4106066853731002e-9 2.413124790126955e-9
          2.088190619787059e-9 1.7444052052920215e-9 1.6830329478223685e-9 1.4012697555694033e-9 1.1810937396809172e-9 9.70937021040532e-10
          1.77592295392923e-9 1.4825776539423192e-9 1.2507281003928712e-9 6.838723035091073e-10 5.37807456605956e-10 4.732586261673646e-10
          3.6916647527632293e-10 9.466034620816576e-10 7.522487357129473e-10 6.476537925692807e-10 4.1513100073399396e-10 3.145941248651185e-10
          2.8296045109413564e-10 5.861727264073012e-10 4.479574709547146e-10 3.936958704388772e-10 1.1441562737234452e-9 9.156889673276904e-10
          7.832847102709928e-10 6.199858652315876e-10 1.2137199971766128e-9 9.737869710874161e-10 8.332379813987348e-10 7.181803599016857e-10
          5.52066618024805e-10 4.814920982374604e-10 7.655221456624007e-10 5.897067804840878e-10 5.142083949856979e-10 3.080245375313228e-11
          2.9076348132021813e-10 5.522050445458071e-10 6.46142394272791e-11 5.4267262093390765e-11 1.264015881641399e-10 1.0426503566067048e-10
          3.030766456675103e-11 4.4060257820502674e-11 2.3977080192772017e-11 3.469120725395172e-11 2.4679601714075058e-11 8.329463806004821e-11
          5.991544915094268e-11 6.454155716464034e-11 1.1840375048543423e-11 1.736191067141757e-11 3.280397925744942e-11 2.4419041742542947e-10
          1.977326195257642e-10 1.4360075069473305e-10 4.570306712573333e-10 3.3624556219659055e-10 3.6331822468007016e-10 1.5463770126770354e-10
          1.1206299392415018e-10 1.1704278077325114e-10 8.463880000009289e-11 2.7790684108651426e-10 2.031134847272368e-10 2.0505120910665194e-10
          6.02472838787407e-11 1.0699552999552878e-10 9.559217202474527e-10 7.158829835248536e-10 1.3707626081502515e-9 1.5440101485646007e-9
          1.19136912645964e-9 1.5385189205286184e-9 7.856175163076804e-10 5.85569281280693e-10 6.17621510612103e-10 4.580478480143555e-10
          1.1385549213440806e-9 8.601193661611391e-10 9.009430668740235e-10 4.6502886016346437e-10 3.431583824568436e-10 3.3615214547455684e-10
          2.468777885200662e-10 6.78917540220291e-10 5.057645336326193e-10 4.880082555654237e-10 1.3276878315861565e-9 1.0148725995369158e-9
          1.079986464051482e-9 8.178110524459026e-10 1.3566786433931636e-9 1.0426664483671688e-9 1.1250871939578338e-9 8.296637690647029e-10
          6.226751446052293e-10 6.028326855648773e-10 4.4878175353607295e-10 8.76235473332289e-10 6.595984989100965e-10 6.422585142670701e-10
          1.854987706864891e-11 2.6617915651795503e-11 1.3206362961992563e-11 1.898057638901076e-11 4.8598356353786505e-11 3.4852836871302876e-11
          9.324683352777776e-12 1.3356950260922414e-11 2.4667309135428215e-11 8.593646666888315e-11 6.202078842449006e-11 1.4639468548537287e-10
          1.0631563508623974e-10 4.412349661272475e-11 7.595458514589913e-11 2.341369369707213e-10 1.7119811488262154e-10 3.3584496231831136e-10
          2.4712383997334614e-10 4.160605316104851e-10 3.075486410721599e-10 4.452778164201795e-10 3.2970525471279446e-10 6.069166949780188e-10
          2.091233491529872e-10 6.663810654200249e-11 1.3225333613269535e-10 2.2710375221108126e-10 1.9998157426258151e-10 2.6199954542972065e-10
          7.693869479291369e-11 1.6211290868921595e-10 1.5590848942277998e-10 1.9113966588877112e-10 2.234683684859535e-11 1.7069546019063646e-11
          3.1244478568830413e-11 3.873458974455549e-11 3.428422416879504e-11 3.86461789472254e-11 4.5212352276529256e-11 9.393446027682196e-11
          2.5195215169898695e-11 5.060138569665413e-11 8.967086912445645e-11 4.7880792305885677e-11 1.3899644261800403e-11 2.6523651790942292e-11
          2.020976103646012e-11 7.629546526879654e-12 1.9941140859360326e-11 1.3598153918423717e-11 2.462319614402425e-11 1.9370633305330785e-11
          1.542439515056688e-11 1.1999861073258528e-10 2.4425605844963447e-10 1.8687346125755925e-10 2.3232893649896485e-10 1.4824648481271807e-10
          3.087909640170336e-10 3.79369982238147e-10 2.4790420631544947e-10 8.461222428762354e-11 1.1570543580061868e-10 8.915206042112389e-11
          1.9623477722826847e-10 1.5313419497323188e-10 2.2765161756710353e-10 2.814043818664084e-10 3.5641375940839056e-10 4.3515315629562285e-10
          1.8178923486619511e-10 2.8788050155223564e-10 5.325568626853971e-10 4.3533860727845923e-10 1.4323643791353573e-10 2.2920978148595773e-10
          1.1133661425899268e-10 1.798878727148803e-10 3.504376554582311e-10 2.777263720781761e-10 4.889490612932013e-11 6.792648116620074e-11
          5.1111777846301283e-11 1.177727660970272e-10 8.924737485515785e-11 2.7071053959993223e-11 3.788792258519301e-11 2.771140307435382e-11
          6.664645899879533e-11 4.904690522231322e-11 8.39783886915755e-11 1.379760877369936e-10 8.548980386682865e-11 1.3924857060297165e-10
          6.454077366063359e-11 1.0615775706816404e-10 2.1664505255533058e-10 1.6633500331080992e-10 4.780594765273312e-11 7.952784555222399e-11
          3.496345579979187e-11 5.867187495140993e-11 1.2572220231768784e-10 9.355641226564867e-11 7.494447703911208e-10 6.199023945746421e-10
          9.73023547218474e-10 8.128982158009823e-10 5.045015830221537e-10 4.038530787377191e-10 6.678031317760054e-10 5.392543742472545e-10
          1.1426326037818863e-9 9.608117700729672e-10 1.2052431178209262e-9 1.0157041617838152e-9 7.94193807693262e-10 6.450236250131425e-10
          8.413429354074103e-10 6.84676218294225e-10 2.1315962263984516e-10 2.9863589664645703e-10 3.1794811200698473e-10 2.461882011890528e-10
          4.2794857228641773e-10 3.3376197442190105e-10 1.8749569305833943e-10 1.4047235727593834e-10 2.558450243711769e-10 1.9279298676582575e-10
          3.669672470680252e-10 3.925615153477098e-10 5.146174374633163e-10 4.033029780330031e-10 5.472622108873206e-10 4.296095824057674e-10
          3.1050021890991834e-10 2.3488929830480044e-10 3.312573904491717e-10 2.5093306660779446e-10 4.626185962699447e-11 3.871511625869001e-11
          9.121242622440075e-11 3.276805821095034e-11 2.7319007260458196e-11 6.478591968275382e-11 5.329750682234501e-11 2.1320792336643218e-11
          3.1356592147945556e-11 1.4925992939370615e-11 2.2071669237039204e-11 1.0372276807880889e-11 1.5350533521996624e-11 1.2073212130744002e-11
          4.2456128053454165e-11 2.963935629262427e-11 2.2869349656560966e-11 1.7770363688150867e-10 2.1199262954613258e-10 1.2712366837898946e-10
          1.0256343247821066e-10 1.5187204667151537e-10 2.948821373233488e-10 2.4271955153413215e-10 1.9182188412781131e-10 7.990250124855948e-11
          5.607052116986759e-11 4.2216862412596005e-11 1.45857417432171e-10 1.0295241294502317e-10 7.53691412662587e-11 5.245114928370624e-10
          4.2736535754450495e-10 3.3293112948052383e-10 7.743571562280516e-10 6.352115210158249e-10 4.961294553432574e-10 2.4841824181572583e-10
          1.7803629320827827e-10 1.7651397745870852e-10 1.2611945079362381e-10 3.6911962838730135e-10 2.6219784605310246e-10 8.969485699468761e-10
          7.576286820683553e-10 6.054724560000439e-10 9.065631917781223e-10 7.823257083512918e-10 6.356494331799901e-10 4.5745641237202423e-10
          3.2744582935713573e-10 4.859053086614738e-10 3.503475485704397e-10 1.41658639367334e-11 1.9971693478242315e-11 1.422485913206932e-11
          3.559878613963081e-11 2.547836163104934e-11 6.539459764547447e-12 9.228249133750369e-12 7.193424061700902e-12 9.96438907907079e-12
          7.544554048439573e-12 1.7139333814319668e-11 1.79809232917066e-11 1.520133957246732e-11 6.135663146824023e-11 4.4186788247532815e-11
          1.0148779295073475e-10 7.347888266562557e-11 3.0906921438251765e-11 3.1418229965922594e-11 2.1965546578737236e-11 5.339077248015438e-11
          5.2359959882891424e-11 3.6729624300661724e-11 1.578590231271084e-10 1.1495294887816038e-10 2.2250237386225834e-10 1.6288125290601404e-10
          1.2302042383970118e-10 8.689940992734706e-11 8.232964764664782e-11 5.8002335067088526e-11 1.785420555877186e-10 1.1718197402094304e-10
          2.74557397446469e-10 2.0172366147001198e-10 2.9414572119813857e-10 2.164007880822068e-10 2.2308039468522823e-10 1.4558946656122473e-10
          2.395099477062835e-10 1.5636432805294892e-10
        </DataArray>
        <DataArray type="Float64" Name="gradient_matprop_error" format="ascii" RangeMin="0" RangeMax="0">
          0 0 0 0 0 0
          0 0 0 0 0 0
          0 0 0 0 0 0
          0 0 0 0 0 0
          0 0 0 0 0 0
          0 0 0 0 0 0
          0 0 0 0 0 0
          0 0 0 0 0 0
          0 0 0 0 0 0
          0 0 0 0 0 0
          0 0 0 0 0 0
          0 0 0 0 0 0
          0 0 0 0 0 0
          0 0 0 0 0 0
          0 0 0 0 0 0
          0 0 0 0 0 0
          0 0 0 0 0 0
          0 0 0 0 0 0
          0 0 0 0 0 0
          0 0 0 0 0 0
          0 0 0 0 0 0
          0 0 0 0 0 0
          0 0 0 0 0 0
          0 0 0 0 0 0
          0 0 0 0 0 0
          0 0 0 0 0 0
          0 0 0 0 0 0
          0 0 0 0 0 0
          0 0 0 0 0 0
          0 0 0 0 0 0
          0 0 0 0 0 0
          0 0 0 0 0 0
          0 0 0 0 0 0
          0 0 0 0 0 0
          0 0 0 0 0 0
          0 0 0 0 0 0
          0 0 0 0 0 0
          0 0 0 0 0 0
          0 0 0 0 0 0
          0 0 0 0 0 0