<?xml version="1.0"?>
<VTKFile type="UnstructuredGrid" version="0.1" byte_order="LittleEndian" header_type="UInt32" compressor="vtkZLibDataCompressor">
  <UnstructuredGrid>
    <Piece NumberOfPoints="594" NumberOfCells="323">
      <PointData>
        <DataArray type="Int32" Name="libmesh_node_id" format="ascii" RangeMin="324" RangeMax="2788">
          324 325 384 385 453 454
          455 456 457 458 459 460
          461 462 463 464 465 466
          560 561 562 565 568 570
          571 572 573 574 575 576
          577 578 579 580 581 582
          583 584 585 586 587 591
          592 594 595 597 656 657
          659 660 764 765 766 769
          770 771 772 773 774 775
          776 777 778 779 780 781
          782 783 784 785 786 787
          788 789 790 791 792 793
          796 797 802 814 815 818
          819 821 823 999 1000 1001
          1004 1007 1021 1022 1024 1027
          1029 1030 1031 1032 1033 1034
          1035 1036 1037 1038 1039 1040
          1041 1042 1043 1044 1045 1046
          1047 1048 1049 1050 1051 1052
          1053 1054 1055 1056 1057 1058
          1059 1060 1061 1062 1063 1064
          1065 1066 1067 1068 1069 1070
          1071 1072 1073 1074 1075 1076
          1077 1078 1079 1080 1081 1082
          1083 1084 1085 1086 1087 1088
          1089 1090 1091 1092 1093 1094
          1095 1096 1097 1098 1099 1100
          1101 1102 1103 1104 1119 1120
          1121 1122 1123 1124 1125 1126
          1127 1128 1139 1140 1141 1142
          1143 1144 1145 1146 1147 1148
          1539 1540 1543 1545 1547 1548
          1549 1550 1551 1552 1553 1554
          1555 1556 1557 1558 1559 1560
          1561 1562 1563 1564 1565 1566
          1567 1568 1569 1570 1571 1572
          1573 1574 1575 1576 1638 1639
          1640 1641 1642 1643 1644 1645
          1646 1647 1648 1649 1650 1651
          1652 1653 1654 1655 1656 1657
          1658 1659 1660 1661 1662 1663
          1664 1665 1666 1667 1668 1669
          1670 1671 1672 1673 1674 1675
          1676 1677 1678 1679 1680 1681
          1682 1683 1684 1685 1686 1687
          1688 1689 1690 1691 1692 1693
          1694 1695 1696 1697 1698 1699
          1700 1701 1702 1703 1704 1705
          1706 1707 1708 1709 1710 1711
          1712 1713 1714 1729 1730 1731
          1732 1733 1734 1735 1736 1737
          1738 1739 1740 1741 1742 1743
          1744 1745 1746 1747 1748 1749
          1750 1751 1752 1753 1754 1755
          1756 1757 1758 1759 1760 1761
          1762 1763 1764 1765 1766 1767
          1768 1769 1770 1771 1772 1773
          1774 1775 1776 1777 1778 1779
          1780 1781 1782 1783 1784 1785
          1786 1787 1788 1789 1790 1791
          1792 1793 1794 2564 2565 2566
          2567 2568 2569 2570 2571 2572
          2573 2574 2575 2576 2577 2578
          2579 2580 2581 2582 2583 2584
          2585 2586 2587 2588 2589 2590
          2591 2592 2593 2594 2595 2596
          2597 2598 2599 2600 2601 2602
          2603 2604 2605 2606 2607 2608
          2609 2610 2611 2612 2613 2614
          2615 2616 2617 2618 2619 2620
          2621 2622 2623 2624 2625 2626
          2627 2628 2629 2630 2631 2632
          2633 2634 2635 2636 2637 2638
          2639 2640 2641 2642 2643 2644
          2645 2646 2647 2648 2649 2650
          2651 2652 2653 2654 2655 2656
          2657 2658 2659 2660 2661 2662
          2663 2664 2665 2666 2667 2668
          2669 2670 2671 2672 2673 2674
          2675 2676 2677 2678 2679 2680
          2681 2682 2683 2684 2685 2686
          2687 2688 2689 2690 2691 2692
          2693 2694 2695 2696 2697 2698
          2699 2700 2701 2702 2703 2704
          2705 2706 2707 2708 2709 2710
          2711 2712 2713 2714 2715 2716
          2717 2718 2719 2720 2721 2722
          2723 2724 2725 2726 2727 2728
          2729 2730 2731 2732 2733 2734
          2735 2736 2737 2738 2739 2740
          2741 2742 2743 2744 2745 2746
          2747 2748 2749 2750 2751 2752
          2753 2754 2755 2756 2757 2758
          2759 2760 2761 2762 2763 2764
          2765 2766 2767 2768 2769 2770
          2771 2772 2773 2774 2775 2776
          2777 2778 2779 2780 2781 2782
          2783 2784 2785 2786 2787 2788
        </DataArray>
        <DataArray type="Float64" Name="bounds" format="ascii" RangeMin="0" RangeMax="0">
          0 0 0 0 0 0
          0 0 0 0 0 0
          0 0 0 0 0 0
          0 0 0 0 0 0
          0 0 0 0 0 0
          0 0 0 0 0 0
          0 0 0 0 0 0
          0 0 0 0 0 0
          0 0 0 0 0 0
          0 0 0 0 0 0
          0 0 0 0 0 0
          0 0 0 0 0 0
          0 0 0 0 0 0
          0 0 0 0 0 0
          0 0 0 0 0 0
          0 0 0 0 0 0
          0 0 0 0 0 0
          0 0 0 0 0 0
          0 0 0 0 0 0
          0 0 0 0 0 0
          0 0 0 0 0 0
          0 0 0 0 0 0
          0 0 0 0 0 0
          0 0 0 0 0 0
          0 0 0 0 0 0
          0 0 0 0 0 0
          0 0 0 0 0 0
          0 0 0 0 0 0
          0 0 0 0 0 0
          0 0 0 0 0 0
          0 0 0 0 0 0
          0 0 0 0 0 0
          0 0 0 0 0 0
          0 0 0 0 0 0
          0 0 0 0 0 0
          0 0 0 0 0 0
          0 0 0 0 0 0
          0 0 0 0 0 0
          0 0 0 0 0 0
          0 0 0 0 0 0
          0 0 0 0 0 0
          0 0 0 0 0 0
          0 0 0 0 0 0
          0 0 0 0 0 0
          0 0 0 0 0 0
          0 0 0 0 0 0
          0 0 0 0 0 0
          0 0 0 0 0 0
          0 0 0 0 0 0
          0 0 0 0 0 0
          0 0 0 0 0 0
          0 0 0 0 0 0
          0 0 0 0 0 0
          0 0 0 0 0 0
          0 0 0 0 0 0
          0 0 0 0 0 0
          0 0 0 0 0 0
          0 0 0 0 0 0
          0 0 0 0 0 0
          0 0 0 0 0 0
          0 0 0 0 0 0
          0 0 0 0 0 0
          0 0 0 0 0 0
          0 0 0 0 0 0
          0 0 0 0 0 0
          0 0 0 0 0 0
          0 0 0 0 0 0
          0 0 0 0 0 0
          0 0 0 0 0 0
          0 0 0 0 0 0
          0 0 0 0 0 0
          0 0 0 0 0 0
          0 0 0 0 0 0
          0 0 0 0 0 0
          0 0 0 0 0 0
          0 0 0 0 0 0
          0 0 0 0 0 0
          0 0 0 0 0 0
          0 0 0 0 0 0
          0 0 0 0 0 0
          0 0 0 0 0 0
          0 0 0 0 0 0
          0 0 0 0 0 0
          0 0 0 0 0 0
          0 0 0 0 0 0
          0 0 0 0 0 0
          0 0 0 0 0 0
          0 0 0 0 0 0
          0 0 0 0 0 0
          0 0 0 0 0 0
          0 0 0 0 0 0
          0 0 0 0 0 0
          0 0 0 0 0 0
          0 0 0 0 0 0
          0 0 0 0 0 0
          0 0 0 0 0 0
          0 0 0 0 0 0
          0 0 0 0 0 0
          0 0 0 0 0 0
        </DataArray>
        <DataArray type="Float64" Name="gradient_error" format="ascii" RangeMin="1.1401006663155927e-9" RangeMax="7.204269883314034e-7">
          4.360923760467363e-9 2.0387061343729294e-9 1.5412707334874652e-9 9.391037045067226e-9 9.100810946775681e-9 5.822635033546827e-9
          1.0637616368166102e-7 4.18979219584335e-8 3.4187906424358764e-9 6.178096132579588e-8 2.0918926951587154e-8 3.6403912063623863e-9
          5.457304399738293e-9 3.5571628261037065e-9 4.822044860014217e-7 2.9309972740154334e-7 1.7432969468683072e-7 1.5100561342372755e-8
          6.940709600543508e-8 5.636539864395061e-7 4.184824326677565e-7 1.7552843856859046e-7 6.378482343566014e-7 7.972977392968789e-8
          5.1690917705334876e-8 6.25395187938287e-7 4.3509168968003193e-7 4.654005486675369e-8 4.900014044201e-7 4.411511992649851e-7
          3.452657919553881e-8 1.329715782325445e-7 9.334323061624617e-8 2.9345492360467252e-8 7.204269883314034e-7 3.956614155681809e-7
          2.352614579627397e-7 4.791086157783531e-8 9.294051256119138e-8 3.1216707529267196e-7 2.7414132627805004e-7 8.991197696489018e-8
          1.0737045073085652e-7 1.3661313423412579e-9 4.2267626043318224e-7 1.1510092327297935e-7 4.222487442742637e-9 2.71357588646304e-9
          2.3062962160676693e-9 1.5673094011105667e-9 8.780266460964029e-9 3.564273704204794e-8 2.5759905185408775e-8 1.587707332876961e-8
          6.451795292662644e-9 4.89131284396855e-9 1.89224267577611e-8 1.3710431223498226e-8 4.3150853289308305e-9 1.6330498961371276e-8
          1.4993798727027047e-8 3.330830395274456e-9 8.498435689235359e-9 1.3657098492682818e-8 3.438978047273031e-8 5.468702568907835e-8
          7.373811329059504e-8 1.082604200389033e-7 1.6728055867981283e-8 4.2604999930191346e-8 6.4560443813816824e-9 1.364440742393158e-8
          1.6911508861704344e-8 9.043993539214311e-9 1.1308644610845978e-7 1.6183381438872828e-7 6.848194399240141e-8 2.0832770466481477e-8
          2.250209445490778e-8 2.263249851287164e-8 2.2762902570835496e-8 9.281049784498839e-9 2.2339367267432528e-8 2.9577393131804265e-9
          5.511901028922127e-9 3.5397684750366214e-8 8.066062744663827e-9 1.3650142682484822e-7 3.032082372975467e-7 2.737582732173288e-7
          1.9612025485620476e-7 5.338589449176601e-7 5.779195290520843e-7 6.242638001713029e-7 5.893236190403608e-7 5.91824830117095e-7
          1.4133635382723898e-7 1.261130749159119e-7 3.0279229350510426e-7 2.7129893798366445e-7 1.1449594775767108e-7 3.012182347339227e-7
          2.6744356175695413e-7 8.844990738580491e-8 1.8982730249551542e-7 1.8201084532715114e-7 5.940665931344475e-7 5.589764395062702e-7
          5.845520529137192e-7 4.2750300696190717e-7 1.129386261560844e-7 1.0169614748091748e-7 2.9804254403337543e-7 2.620525576315372e-7
          8.795643924828328e-8 2.930257990721473e-7 2.549896918033148e-7 7.360008467466046e-8 1.727055621778295e-7 1.618656516397292e-7
          6.583375026955538e-7 6.104024862960424e-7 5.330065765524133e-7 4.401187818874551e-7 5.064960213236135e-7 6.131757065821319e-7
          4.31479632948896e-7 6.021751970138368e-7 6.21354665393795e-7 6.537204814224035e-7 2.845625451411376e-7 5.251767338154794e-7
          4.54451743922402e-7 6.789080144690019e-7 4.651278214275446e-7 5.450315469685843e-7 2.751474054945935e-7 3.81797055588792e-7
          5.849843313545791e-7 5.091572882138561e-7 2.884799606585346e-9 2.9086780645710836e-7 6.807365428176617e-8 5.638286261983875e-7
          2.1954735690943262e-7 2.292928993893714e-7 3.7867493310233666e-7 3.8074884443635845e-7 2.0735602357226218e-7 3.7336988655398064e-7
          1.21324619940486e-7 2.0847839606097322e-7 2.2450020260048434e-7 1.8938802374849258e-7 4.459665393021336e-7 4.4307764089492867e-7
          4.454873506040339e-7 2.477797203652756e-7 7.703543378381005e-8 7.426608015376828e-8 2.855188756185025e-7 2.460275529271718e-7
          6.05478211411937e-8 2.742949935286072e-7 2.3445000053551126e-7 6.384414162499624e-8 1.4924293383777112e-7 1.57672393827069e-7
          3.081989155288451e-7 3.535980224632319e-7 2.6187576560985594e-7 3.4096719624337984e-7 7.21890063972524e-8 2.160374474428634e-7
          7.943981843065039e-8 1.1367555609449209e-7 4.2930280135114636e-7 3.4284842301435575e-7 1.1845042894372282e-9 7.49817122908503e-8
          8.216672146186731e-8 4.104761158801427e-7 1.924879493435199e-7 3.6453504250056986e-7 2.0980170975010121e-7 3.507467622101192e-7
          1.0072819181117797e-7 1.6720471383073888e-7 1.418711952455126e-7 4.409363726094465e-7 4.3069101066077857e-7 1.9892969847667887e-7
          2.4217425393038885e-7 3.7787647734263025e-7 2.4771378789506026e-7 4.311657612269634e-7 4.7970589168640426e-8 5.242520023086368e-8
          9.939522517149678e-8 1.0609325731667216e-7 4.418467288789951e-8 9.217521184442704e-8 2.9931159570255885e-8 5.894142781418739e-8
          6.425431405804565e-8 5.399762181453741e-8 2.366989263773837e-7 1.4227812470904596e-7 4.14434313418626e-8 8.457740912909406e-8
          4.0219200333800804e-8 7.683941248719889e-8 2.6140362140154847e-8 4.9806265132228015e-8 4.690110622942171e-8 3.802161068411697e-7
          2.3753801025333138e-7 4.378542221019251e-7 2.784714671466897e-7 4.112736553364193e-8 6.898477591449427e-8 4.219202326835077e-8
          6.499606249986733e-8 2.606317434101789e-8 4.601991438928748e-8 4.6184958603358416e-8 1.1202433172873017e-7 7.299440978427904e-8
          7.791422423044463e-8 7.91749378426261e-8 8.89661543587503e-8 8.043565145480759e-8 6.836933639997893e-8 7.101553618653605e-8
          7.366173597309316e-8 6.903666258879304e-8 6.803185776182754e-8 7.407100013301248e-8 5.829129233859281e-8 7.422160754629724e-8
          8.011014250419741e-8 9.020771883088324e-8 5.814949129321044e-8 6.896706242339884e-8 5.953382754773726e-8 7.978463355358725e-8
          9.243429707455731e-8 9.516649052999653e-8 9.983958208925016e-8 9.789868398543576e-8 1.1860072872687719e-7 1.1520415187333501e-7
          1.1180757501979282e-7 1.0094838750287019e-7 1.042315706861937e-7 9.657420414190066e-8 1.1138876644928543e-7 1.0977339678383761e-7
          1.139821086071842e-7 1.2107076391533702e-7 1.1270143818531477e-7 5.032242622171331e-8 7.353095267844258e-8 5.2304779107847064e-8
          7.666692038713284e-8 9.656861781625698e-8 1.0517671850346835e-7 3.801458056104747e-9 5.177821464098666e-8 5.3196387490232147e-8
          9.52385516470782e-8 5.4061739294893195e-8 6.818487722012888e-8 3.175963676777214e-8 4.7745622623477674e-8 9.924336374817657e-8
          9.290126283287554e-8 2.072075525954478e-9 3.122135066693128e-8 8.044948844712617e-9 8.709852648552234e-8 1.1348368941549601e-7
          1.1289517749099116e-7 1.171939820471544e-7 1.1661918634010267e-7 1.2274322222528997e-7 1.1654381341156932e-7 1.2287093073019486e-7
          1.1925626407302117e-7 1.2441568053524292e-7 1.2038618863782388e-7 1.180314479966576e-7 1.14494028360936e-7 1.1919716235413459e-7
          1.1095660872521439e-7 1.2769338221286085e-7 1.2366368828280426e-7 1.283900772683125e-7 1.1252627886094598e-7 9.566205783306934e-8
          9.646282176176031e-8 9.808325398809076e-8 8.750708015437635e-8 1.2086683352457446e-7 1.184617764905489e-7 1.2613442423504528e-7
          1.2470935692836106e-7 1.1605671945652334e-7 1.2086222887325012e-7 6.876248171800021e-8 9.424172100963279e-8 9.946203908794754e-8
          1.2285017341607146e-7 1.3219833868659097e-7 1.306745456104908e-7 1.3854062196743196e-7 1.3680885453217412e-7 1.2381070220828096e-7
          1.2910077916020787e-7 7.578516634254095e-8 9.032044773871997e-8 8.087276495032536e-8 1.211606155732749e-7 1.0683980337847094e-7
          9.76614993805452e-8 1.2674509480041904e-7 1.2767455986747852e-7 1.2415771945616404e-7 1.086660761165044e-7 1.1208934604917846e-7
          9.886150035083757e-8 1.0105422087485743e-7 1.2972964163126761e-7 1.356365783623241e-7 1.2187616587403868e-7 7.570092104251509e-9
          3.7576692663890535e-8 6.4997915128830204e-9 3.8395175002984924e-8 9.765345619506792e-8 1.0234188928234324e-7 1.3270246512446815e-9
          7.072723846305426e-9 6.2358817146805905e-9 7.158454203979327e-8 5.62287940096702e-9 2.4688388400282678e-8 4.999339315245208e-9
          9.901405893822793e-9 9.294150294848021e-8 8.351831260227551e-8 1.1401006663155927e-9 5.477124148593135e-9 4.895729499754034e-9
          7.84432110417623e-8 1.286687579224147e-7 1.3466619710290873e-7 1.2807568181522683e-7 1.3333748959318802e-7 1.3059242104441036e-7
          1.3682932886653597e-7 1.3199364417428962e-7 1.4099178666172005e-7 1.4787536795307483e-7 1.3899170799010772e-7 1.4517485891180544e-7
          1.4339362053215328e-7 1.5057301729176766e-7 1.4444700477943692e-7 7.501646888908057e-9 6.9150165784999676e-9 7.2093024707155124e-9
          7.503588362931057e-9 6.916958052522968e-9 1.3678576723073e-8 7.917807333099134e-9 7.936031642905879e-9 8.381416687784173e-9
          7.954255952712626e-9 8.109164139184675e-9 8.328942124027416e-9 8.182543422262353e-9 8.548720108870157e-9 6.535929214465965e-9
          7.250867887543276e-9 6.006006712487027e-9 7.2205422666420545e-9 7.965806560620586e-9 8.435077820797082e-9 5.154051095832796e-9
          6.565704132180672e-9 6.059667845499935e-9 7.977357168528546e-9 5.704800853154598e-9 7.034813222325552e-9 5.383629223815602e-9
          6.7841930162555475e-9 8.364825591496504e-9 8.184756808695492e-9 3.3004375671245225e-9 5.740684320623686e-9 5.385842610248741e-9
          8.18093107412285e-9 7.573617161182099e-9 8.034900375388282e-9 7.817690682908066e-9 8.496183589594464e-9 1.2513625940854404e-8
          1.3165640225519226e-8 1.3817654510184047e-8 6.673724482459404e-9 7.4112046984158086e-9 8.79615987166642e-9 1.0257172379372844e-8
          1.2627720691974683e-8 1.281828532371214e-8 1.3039337734773909e-8 1.3270910803050809e-8 5.01960911099137e-9 6.503968231114086e-9
          4.62358330643534e-9 6.14217574902521e-9 7.988327351236802e-9 9.153709906273411e-9 2.46560106080064e-9 4.97303608683989e-9
          4.466660815142352e-9 7.48047111287914e-9 4.21691170738983e-9 5.6607195043202784e-9 3.758585945351373e-9 5.157334019710766e-9
          9.50050640129538e-9 9.046185311318545e-9 1.7600989323202562e-9 3.910234310224747e-9 3.4467800959046288e-9 8.743840423217913e-9
          1.2510975130581414e-8 1.288235692557275e-8 1.2394229569188141e-8 1.2548444943287636e-8 1.2582173480814325e-8 1.320040438523524e-8
          1.3628058433061728e-8 1.2278604562863129e-8 1.212500922685475e-8 1.3129897967419671e-8 1.3326344178384729e-8 1.3773120388124853e-8
          1.3934679633004324e-8 1.4219896597864977e-8 1.4230993868185932e-8 1.4138987235994911e-8 1.4411866485538108e-8 1.4046980603803893e-8
          1.4718669317167889e-8 1.468692022789016e-8 1.4952417021716582e-8 1.4655171138612431e-8 1.498414587556619e-8 1.5188502156257784e-8
          1.537543619470353e-8 1.607068322857871e-8 1.6303946621510634e-8 1.677866565004831e-8 1.7507120862847785e-8 1.6808823279888573e-8
          1.2411087530604995e-8 1.3051964710728697e-8 1.2293685954492698e-8 1.2863565222572057e-8 1.3692841890852398e-8 1.3433444490651416e-8
          8.30108736789309e-9 9.314497511473235e-9 8.79043312516298e-9 1.0983295093714003e-8 1.2199979538025657e-8 1.2758980113546512e-8
          1.2026230684365243e-8 1.2696099386261078e-8 1.3317980689067372e-8 1.3365968088156916e-8 7.016346683817931e-9 8.343377487076125e-9
          7.900883991249768e-9 1.0472635213522952e-8 1.3094151701912445e-8 1.3126469626531833e-8 1.3894233432789641e-8 1.311434770706043e-8
          1.3091249183962066e-8 1.4151606354220644e-8 3.2604134258130976e-9 4.6985934469741815e-9 2.8512906671357203e-9 4.2951934070587765e-9
          8.718659059053669e-9 8.392681083415401e-9 1.4144829986652779e-9 3.0990009043344335e-9 2.801971375931382e-9 7.54526906945624e-9
          2.554192146834202e-9 3.9268633666026345e-9 2.318151937691109e-9 3.5795379010039296e-9 8.026746252370935e-9 7.638396000676381e-9
          1.2446561338979222e-9 2.5459447501511336e-9 2.337640106492376e-9 6.639030071622868e-9 1.2565189346162868e-8 1.2524838752527969e-8
          1.3829834042353664e-8 1.4003411485206968e-8 1.203622699041329e-8 1.1923207878524109e-8 1.3765434651917687e-8 1.245508827253402e-8
          1.2369359435109395e-8 1.4156218626697239e-8 1.430285073318278e-8 1.1795828838007613e-8 1.1647469686256724e-8 1.4160830899173834e-8
          1.1824658847835055e-8 1.2633398216073121e-8 1.1614838403005433e-8 1.2519402674188572e-8 1.3442137584311188e-8 1.4267068501904865e-8
          6.030119972643053e-9 7.477562236691024e-9 7.057862370490344e-9 9.851055562926929e-9 1.1417417377954012e-8 1.2321677143154814e-8
          1.1216236064386725e-8 1.2119897347964164e-8 1.4561779746591822e-8 1.4477737987221502e-8 5.277721932056015e-9 6.633175410086057e-9
          6.262974779035011e-9 1.0417900914574928e-8 1.615458856892674e-8 1.6355905522882316e-8 1.3113483497179053e-8 1.4057395103314893e-8
          1.4523809307055308e-8 1.6364380838194664e-8 1.6742059718610978e-8 1.6831139091561295e-8 1.7552202094320552e-8 1.4437214342602087e-8
          1.4368474877513779e-8 1.6027255744170418e-8 2.1381738014923966e-9 3.2763869766398702e-9 2.0116100934998206e-9 3.046931063140145e-9
          7.254334892589278e-9 6.8599056831781585e-9 1.1467560362009092e-9 2.177525684153776e-9 2.064525711960166e-9 5.8466384557931345e-9
          1.9500602763587937e-9 2.912152793812636e-9 2.0063020864391525e-9 2.8719343115836716e-9 6.466386939891244e-9 6.1304817087857945e-9
          1.1953655689473917e-9 2.0128068975050012e-9 2.0822775663221214e-9 5.149848315237566e-9 1.2288425547235964e-8 1.2169609532959578e-8
          1.4482781461080717e-8 1.4701659732343308e-8 1.1463367597292876e-8 1.1255741669118238e-8 1.4441753615106123e-8 1.1981257072397325e-8
          1.178584631135213e-8 1.490398557627864e-8 1.5048295741860865e-8 1.1038181485931492e-8 1.0811741442050871e-8 1.4606914567450463e-8
        </DataArray>
        <DataArray type="Float64" Name="gradient_matprop_error" format="ascii" RangeMin="0" RangeMax="0">
          0 0 0 0 0 0
          0 0 0 0 0 0
          0 0 0 0 0 0
          0 0 0 0 0 0
          0 0 0 0 0 0
          0 0 0 0 0 0
          0 0 0 0 0 0
          0 0 0 0 0 0
          0 0 0 0 0 0
          0 0 0 0 0 0
          0 0 0 0 0 0
          0 0 0 0 0 0
          0 0 0 0 0 0
          0 0 0 0 0 0
          0 0 0 0 0 0
          0 0 0 0 0 0
          0 0 0 0 0 0
          0 0 0 0 0 0
          0 0 0 0 0 0
          0 0 0 0 0 0
          0 0 0 0 0 0
          0 0 0 0 0 0
          0 0 0 0 0 0
          0 0 0 0 0 0
          0 0 0 0 0 0
          0 0 0 0 0 0
          0 0 0 0 0 0
          0 0 0 0 0 0
          0 0 0 0 0 0
          0 0 0 0 0 0
          0 0 0 0 0 0
          0 0 0 0 0 0
          0 0 0 0 0 0
          0 0 0 0 0 0
          0 0 0 0 0 0
          0 0 0 0 0 0
          0 0 0 0 0 0
          0 0 0 0 0 0
          0 0 0 0 0 0
          0 0 0 0 0 0
          0 0 0 0 0 0
          0 0 0 0 0 0
          0 0 0 0 0 0
          0 0 0 0 0 0
          0 0 0 0 0 0
          0 0 0 0 0 0
          0 0 0 0 0 0
          0 0 0 0 0 0
          0 0 0 0 0 0
          0 0 0 0 0 0
          0 0 0 0 0 0
          0 0 0 0 0 0
          0 0 0 0 0 0
          0 0 0 0 0 0
          0 0 0 0 0 0
          0 0 0 0 0 0
          0 0 0 0 0 0
          0 0 0 0 0 0
          0 0 0 0 0 0
          0 0 0 0 0 0
          0 0 0 0 0 0
          0 0 0 0 0 0
          0 0 0 0 0 0
          0 0 0 0 0 0
          0 0 0 0 0 0
          0 0 0 0 0 0
          0 0 0 0 0 0
          0 0 0 0 0 0
          0 0 0 0 0 0
          0 0 0 0 0 0
          0 0 0 0 0 0
          0 0 0 0 0 0
          0 0 0 0 0 0
          0 0 0 0 0 0
          0 0 0 0 0 0
          0 0 0 0 0 0
          0 0 0 0 0 0
          0 0 0 0 0 0
          0 0 0 0 0 0
          0 0 0 0 0 0
          0 0 0 0 0 0
          0 0 0 0 0 0
          0 0 0 0 0 0
          0 0 0 0 0 0
          0 0 0 0 0 0
          0 0 0 0 0 0
          0 0 0 0 0 0
          0 0 0 0 0 0
          0 0 0 0 0 0
          0 0 0 0 0 0
          0 0 0 0 0 0
          0 0 0 0 0 0
          0 0 0 0 0 0
          0 0 0 0 0 0
          0 0 0 0 0 0
          0 0 0 0 0 0
          0 0 0 0 0 0
          0 0 0 0 0 0
          0 0 0 0 0 0
        </DataArray>
        <DataArray type="Float64" Name="initial_marker" format="ascii" RangeMin="0" RangeMax="2">
          0 0 2 0 0 0
          0 0 0 0 0 0
          0 0 2 0 0 0
          0 2 0.5 0 1 0
          0 2 1 0 2 1
          0 0 0 2 1 2
          0 0 0 2 1 0
          0 2 2 0 0 0
          0 0 0 0 0 0
          0 0 0 0 0 0
          0 0 0 0 0 0
          0 0 0 0 0 0
          0 0 0 0 0 0
          0 0 0 0 0 0
          0 0 0 0 1 0.5
          0 1.5 2 2 1 2
          0 0 1 0.75 0 1
          1 0 0.25 0.5 2 1.75
          2 0.75 0 0 1 1
          0 1 1 0 0.5 0.5
          2 2 2 1 2 2
          2 2 1 1 2 2
          2 1 2 2 2 2
          1.25 1.5 2 2 2 1.5
          0 0 0.25 0 0 0.5
          0 0 0 0 0.5 0
          1 0 0 0 1 1
          0 1 1 0 0.5 0.6666666666666666
          2 2 2 1 2 2
          2 2 1.5 1.5 2 2
          2 2 0 0.5 0 0.5
          0 0 0 1 1 0
          0 0 0 0 0 0
          0 0 0 0 0 0
          0 0 0 0 0 0
          0 0 0 0 0 0
          0 0 0 0 0 0
          0 0 0 0 2 2
          2 2 2 2 2 2
          2 2 2 2 2 2
          2 2 2 2 2 2
          2 2 2 2 2 2
          2 2 2 2 2 2
          2 2 2 2 2 2
          2 2 2 2 2 2
          2 2 2 2 2 2
          2 2 2 2 2 2
          2 2 2 2 2 2
          2 2 2 2 2 2
          2 2 2 2 2 2
          2 2 2 2 2 2
          2 2 2 2 2 2
          2 2 2 2 2 2
          2 2 2 2 2 2
          2 2 2 2 2 2
          2 2 2 2 2 2
          2 2 2 2 2 2
          2 2 2 2 2 2
          2 2 2 2 2 2
          2 2 2 2 2 2
          2 2 2 2 2 2
          2 2 2 2 2 2
          2 2 2 2 2 2
          2 2 2 2 2 2
          2 2 2 2 2 2
          2 2 2 2 2 2
          2 2 2 2 2 2
          2 2 2 2 2 2
          2 2 2 2 2 2
          2 2 2 2 2 2
          2 2 2 2 2 2
          2 2 2 2 2 2
          2 2 2 2 2 2
          2 2 2 2 2 2
          2 2 2 2 2 2
          2 2 2 2 2 2
          2 2 2 2 2 2
          2 2 2 2 2 2
          2 2 2 2 2 2
          2 2 2 2 2 2
          2 2 2 2 2 2
          2 2 2 2 2 2
          2 2 2 2 2 2
          2 2 2 2 2 2
          2 2 2 2 2 2
          2 2 2 2 2 2
          2 2 2 2 2 2
          2 2 2 2 2 2
          2 2 2 2 2 2
          2 2 2 2 2 2
          2 2 2 2 2 2
          2 2 2 2 2 2
          2 2 2 2 2 2
          2 2 2 2 2 2
          2 2 2 2 2 2
          2 2 2 2 2 2
          2 2 2 2 2 2
          2 2 2 2 2 2
          2 2 2 2 2 2
        </DataArray>
        <DataArray type="Float64" Name="markers_norefine" format="ascii" RangeMin="0" RangeMax="2">
          0 0 2 0 0 0
          0 0 0 0 0 0
          0 0 0 0 0 0
          0 0 0 0 0 0
          0 0 0 0 0 0
          0 0 0 1 0 0
          0 0 0 0 0 0
          0 2 0 0 0 0
          0 0 0 0 0 0
          0 0 0 0 0 0
          0 0 0 0 0 0
          0 0 0 0 0 0
          0 0 0 0 0 0
          0 0 0 0 0 0
          0 0 0 0 0 0
          0 0 0 0 0 0
          0 0 0 0 0 0
          0 0 0 0 0 0
          0 0 0 0 0 0
          0 0 0 0 0 0
          0 0 0 0 0 0
          0 0 0 0 0 0
          0 0 0 0 0 0
          0 0 2 0 0 0
          0 0 0 0 0 0
          0 0 0 0 0 0
          0 0 0 0 0 0
          0 0 0 0 0 0
          0 0 0 0 0 0
          0 0 0 0 2 0
          1 0 0 0 0 0
          0 0 0 0 0 0
          0 0 0 0 0 0
          0 0 0 0 0 0
          0 0 0 0 0 0
          0 0 0 0 0 0
          0 0 0 0 0 0
          0 0 0 0 0 0
          0 0 0 0 0 0
          0 0 0 0 0 0
          0 0 0 0 0 0
          0 0 0 0 0 0
          0 0 0 0 0 0
          0 0 0 0.5 0 1
          0 0 0 2 0.5 1
          0 1 0.5 1 0.5 0
          0 2 1 2 0 0
          0 0 0 0 0 0
          0 0 0 0 0 0
          0 0 0 0 0 0
          0 0 0 0 0 0
          0 0 0 0 0 0
          0 0 0 0 0 0
          0 0 0 0 0 0
          0 0 0 0 0 0
          0 0 0 0 0 2
          0.75 2 1.5 0 0 2
          2 2 0 2 1.5 2
          2 0 0 2 2 2
          0 0 0 0 0 0
          0 0 0 0 0 0
          0 0 0 0 1 0.5
          0 1 0 0 0 0.5
          0 2 1 1 0 1
          0.5 1.5 1 0 0.5 2
          1 1.5 0 2 1.5 2
          1.5 1 1 2 2 2
          2 2 1.5 2 1 0
          0 0 2 2 1.3333333333333333 1
          0 0 0 0 2 1.75
          2 2 1.5 1.3333333333333333 2 2
          2 2 2 2 2 2
          1.25 1.5 2 2 2 1.5
          0 0 0 0.25 0.5 0
          0 0.5 1 0 0 0
          0 0 0 0 0 0
          0 0 0 0 0 0
          0 0 0 0 0 0
          0.5 0.25 1 0.5 0 0
          1.5 1.25 1.5 0.6666666666666666 1 0.75
          1 1 0.5 1 2 1.75
          2 1.6666666666666667 0 0.5 0 1
          1 0 2 2 2 2
          1.5 1.75 2 2 2 2
          2 2 2 2 2 2
          2 2 2 2 0.5 0.75
          0 0 1 1 0 1
          1 0 0 1 1 0
          1 1 1 1 1 0.6666666666666666
          2 2 2 2 1 1
          1 1 0.75 1 2 2
          2 1.75 0 0 1 0.6666666666666666
          0 0.25 0.5 0 0 0.75
          1 0 2 2 2 2
          2 2 2 2 2 2
          2 2 2 2 2 2
          2 2 2 2 1 1
          0 0 1 1 0 1.25
          1.5 0.5 1 1.5 2 1
        </DataArray>
        <DataArray type="Float64" Name="markers_mustrefine" format="ascii" RangeMin="0" RangeMax="2">
          0 0 2 0 0 0
          0 0 0 0 0 0
          0 0 2 0 0 0
          0 2 0.5 0 1 0
          0 2 1 0 2 1
          0 0 0 2 1 2
          0 0 0 2 1 0
          0 2 2 0 0 0
          0 0 0 0 0 0
          0 0 0 0 0 0
          0 0 0 0 0 0
          0 0 0 0 0 0
          0 0 0 0 0 0
          0 0 0 0 0 0
          0 0 0 0 1 0.5
          0 1.5 2 2 1 2
          0 0 1 0.75 0 1
          1 0 0.25 0.5 2 1.75
          2 0.75 0 0 1 1
          0 1 1 0 0.5 0.5
          2 2 2 1 2 2
          2 2 1 1 2 2
          2 1 2 2 2 2
          1.25 1.5 2 2 2 1.5
          0 0 0.25 0 0 0.5
          0 0 0 0 0.5 0
          1 0 0 0 1 1
          0 1 1 0 0.5 0.6666666666666666
          2 2 2 1 2 2
          2 2 1.5 1.5 2 2
          2 2 0 0.5 0 0.5
          0 0 0 1 1 0
          0 0 0 0 0 0
          0 0 0 0 0 0
          0 0 0 0 0 0
          0 0 0 0 0 0
          0 0 0 0 0 0
          0 0 0 0 2 2
          2 2 2 2 2 2
          2 2 2 2 2 2
          2 2 2 2 2 2
          2 2 2 2 2 2
          2 2 2 2 2 2
          2 2 2 2 2 2
          2 2 2 2 2 2
          2 2 2 2 2 2
          2 2 2 2 2 2
          2 2 2 2 2 2
          2 2 2 2 2 2
          2 2 2 2 2 2
          2 2 2 2 2 2
          2 2 2 2 2 2
          2 2 2 2 2 2
          2 2 2 2 2 2
          2 2 2 2 2 2
          2 2 2 2 2 2
          2 2 2 2 2 2
          2 2 2 2 2 2
          2 2 2 2 2 2
          2 2 2 2 2 2
          2 2 2 2 2 2
          2 2 2 2 2 2
          2 2 2 2 2 2
          2 2 2 2 2 2
          2 2 2 2 2 2
          2 2 2 2 2 2
          2 2 2 2 2 2
          2 2 2 2 2 2
          2 2 2 2 2 2
          2 2 2 2 2 2
          2 2 2 2 2 2
          2 2 2 2 2 2
          2 2 2 2 2 2
          2 2 2 2 2 2
          2 2 2 2 2 2
          2 2 2 2 2 2
          2 2 2 2 2 2
          2 2 2 2 2 2
          2 2 2 2 2 2
          2 2 2 2 2 2
          2 2 2 2 2 2
          2 2 2 2 2 2
          2 2 2 2 2 2
          2 2 2 2 2 2
          2 2 2 2 2 2
          2 2 2 2 2 2
          2 2 2 2 2 2
          2 2 2 2 2 2
          2 2 2 2 2 2
          2 2 2 2 2 2
          2 2 2 2 2 2
          2 2 2 2 2 2
          2 2 2 2 2 2
          2 2 2 2 2 2
          2 2 2 2 2 2
          2 2 2 2 2 2
          2 2 2 2 2 2
          2 2 2 2 2 2
          2 2 2 2 2 2
        </DataArray>