<?xml version="1.0"?>
<VTKFile type="UnstructuredGrid" version="0.1" byte_order="LittleEndian" header_type="UInt32" compressor="vtkZLibDataCompressor">
  <UnstructuredGrid>
    <Piece NumberOfPoints="526" NumberOfCells="309">
      <PointData>
        <DataArray type="Int32" Name="libmesh_node_id" format="ascii" RangeMin="491" RangeMax="4869">
          491 617 624 1253 1267 1268
          1270 1273 1315 1316 2071 2074
          2094 2174 2175 2176 2177 2179
          2180 2181 2182 2192 2194 2196
          2208 2209 2210 2211 2213 2214
          2215 2216 2226 2228 2230 2249
          2252 2254 2300 2301 2303 2318
          2320 2331 2332 2333 2334 2335
          2336 2337 2338 2339 2340 2351
          2353 2355 2357 2544 2547 2551
          3551 3552 3553 3554 3555 3556
          3557 3558 3559 3560 3561 3562
          3563 3564 3575 3576 3577 3578
          3579 3580 3581 3582 3583 3584
          3609 3610 3611 3612 3613 3614
          3615 3616 3617 3618 3921 3923
          3924 3925 3926 3927 3928 3929
          3930 3931 3932 3940 3941 3942
          3943 3944 3945 3946 3949 3950
          3952 3955 3957 3958 3959 3960
          3961 3962 3963 3964 3965 3966
          3968 3972 3974 3975 3976 3977
          3978 3979 3980 4032 4033 4034
          4035 4036 4037 4038 4049 4050
          4051 4052 4053 4054 4055 4056
          4057 4058 4066 4067 4068 4069
          4070 4071 4072 4080 4081 4082
          4083 4084 4085 4086 4157 4158
          4160 4163 4165 4166 4167 4168
          4169 4170 4171 4172 4173 4174
          4176 4180 4182 4183 4184 4185
          4186 4187 4188 4191 4192 4194
          4197 4199 4200 4201 4202 4203
          4204 4205 4206 4207 4208 4210
          4214 4216 4217 4218 4219 4220
          4221 4222 4270 4271 4272 4273
          4274 4275 4276 4284 4285 4286
          4287 4288 4289 4290 4298 4299
          4300 4301 4302 4303 4304 4312
          4313 4314 4315 4316 4317 4318
          4353 4354 4355 4356 4357 4358
          4359 4360 4361 4362 4370 4371
          4372 4373 4374 4375 4376 4483
          4484 4487 4489 4490 4491 4492
          4503 4505 4507 4508 4509 4622
          4624 4626 4627 4628 4636 4638
          4640 4641 4642 4680 4681 4682
          4683 4684 4685 4686 4687 4688
          4689 4690 4691 4692 4693 4694
          4695 4696 4697 4698 4699 4700
          4701 4702 4703 4704 4705 4706
          4707 4708 4709 4710 4711 4712
          4713 4714 4715 4716 4717 4718
          4719 4720 4721 4722 4723 4724
          4725 4726 4727 4728 4729 4730
          4731 4732 4733 4734 4735 4736
          4737 4738 4739 4740 4741 4742
          4743 4744 4745 4746 4747 4816
          4817 4818 4819 4820 4821 4822
          4823 4825 4827 4829 4830 4831
          4832 4833 4834 4835 4836 4837
          4841 4844 4845 4846 4847 4848
          4849 4850 4851 4853 4855 4857
          4858 4859 4860 4861 4862 4863
          4864 4865 4869 2063 2066 1247
          2069 2065 2068 2070 2088 2086
          2089 2087 2092 2091 2093 618
          2095 2246 2248 1288 2250 2247
          2251 2253 1293 2255 2504 2502
          2193 2505 2503 2197 2064 3539
          3543 3544 2067 3546 2072 3549
          2073 3567 3568 3571 3573 2075
          3601 3602 3605 3607 3913 3915
          3916 3914 3919 3920 3918 3917
          3922 3934 3933 3938 3937 3936
          2178 3947 3948 3951 3953 3954
          3956 3967 3939 3970 3969 3971
          2183 3973 4026 4028 4030 2191
          4041 4042 4045 4047 4060 4062
          4064 2195 4074 4076 4078 4155
          4156 4159 4161 4162 4164 4175
          4178 4177 4179 2212 4181 4189
          4190 4193 4195 4196 4198 4209
          4212 4211 4213 2217 4215 4264
          4266 4268 2225 4278 4280 4282
          2227 4292 4294 4296 2229 4306
          4308 4310 2231 4345 4346 4349
          4351 4364 4366 4368
        </DataArray>
        <DataArray type="Float64" Name="bounds" format="ascii" RangeMin="0" RangeMax="0">
          0 0 0 0 0 0
          0 0 0 0 0 0
          0 0 0 0 0 0
          0 0 0 0 0 0
          0 0 0 0 0 0
          0 0 0 0 0 0
          0 0 0 0 0 0
          0 0 0 0 0 0
          0 0 0 0 0 0
          0 0 0 0 0 0
          0 0 0 0 0 0
          0 0 0 0 0 0
          0 0 0 0 0 0
          0 0 0 0 0 0
          0 0 0 0 0 0
          0 0 0 0 0 0
          0 0 0 0 0 0
          0 0 0 0 0 0
          0 0 0 0 0 0
          0 0 0 0 0 0
          0 0 0 0 0 0
          0 0 0 0 0 0
          0 0 0 0 0 0
          0 0 0 0 0 0
          0 0 0 0 0 0
          0 0 0 0 0 0
          0 0 0 0 0 0
          0 0 0 0 0 0
          0 0 0 0 0 0
          0 0 0 0 0 0
          0 0 0 0 0 0
          0 0 0 0 0 0
          0 0 0 0 0 0
          0 0 0 0 0 0
          0 0 0 0 0 0
          0 0 0 0 0 0
          0 0 0 0 0 0
          0 0 0 0 0 0
          0 0 0 0 0 0
          0 0 0 0 0 0
          0 0 0 0 0 0
          0 0 0 0 0 0
          0 0 0 0 0 0
          0 0 0 0 0 0
          0 0 0 0 0 0
          0 0 0 0 0 0
          0 0 0 0 0 0
          0 0 0 0 0 0
          0 0 0 0 0 0
          0 0 0 0 0 0
          0 0 0 0 0 0
          0 0 0 0 0 0
          0 0 0 0 0 0
          0 0 0 0 0 0
          0 0 0 0 0 0
          0 0 0 0 0 0
          0 0 0 0 0 0
          0 0 0 0 0 0
          0 0 0 0 0 0
          0 0 0 0 0 0
          0 0 0 0 0 0
          0 0 0 0 0 0
          0 0 0 0 0 0
          0 0 0 0 0 0
          0 0 0 0 0 0
          0 0 0 0 0 0
          0 0 0 0 0 0
          0 0 0 0 0 0
          0 0 0 0 0 0
          0 0 0 0 0 0
          0 0 0 0 0 0
          0 0 0 0 0 0
          0 0 0 0 0 0
          0 0 0 0 0 0
          0 0 0 0 0 0
          0 0 0 0 0 0
          0 0 0 0 0 0
          0 0 0 0 0 0
          0 0 0 0 0 0
          0 0 0 0 0 0
          0 0 0 0 0 0
          0 0 0 0 0 0
          0 0 0 0 0 0
          0 0 0 0 0 0
          0 0 0 0 0 0
          0 0 0 0 0 0
          0 0 0 0 0 0
          0 0 0 0
        </DataArray>
        <DataArray type="Float64" Name="gradient_error" format="ascii" RangeMin="1.2019821335507983e-11" RangeMax="5.7271496305463046e-8">
          2.6958635153966657e-8 4.2497278187436543e-10 2.8197920453500266e-10 1.26643906096704e-10 1.3088077108740276e-8 3.695954308032132e-9
          1.565302663141889e-10 1.1136408095755188e-8 4.073253229240646e-9 1.0996838188730307e-9 3.2347028603508196e-11 3.1192489909114554e-10
          4.777705833439419e-11 7.832049339188457e-9 5.824416015991107e-9 3.4207078447637676e-9 2.4760786387469055e-9 8.865860895399851e-10
          2.619391076052616e-8 2.1313660377438903e-8 1.0186439573754471e-8 1.8465782427545802e-10 9.661749422377736e-11 6.618626417454068e-10
          3.9681250565788604e-8 4.066801612167179e-8 2.359233398304978e-8 2.1044704299093672e-8 8.519002969115911e-9 3.665233245706691e-8
          4.731463838571286e-8 2.609979037054527e-8 1.4500981615053925e-9 2.285754931756915e-10 1.886930246558423e-9 1.174482035519934e-10
          7.144915060664873e-11 1.36860541108811e-10 5.013701701248189e-9 3.7088843384746426e-9 1.2584363622148658e-9 2.1994559507375393e-10
          7.874329547666813e-11 1.0353400234094398e-8 8.431252780852955e-9 3.2125869057220014e-9 2.445162400940047e-9 3.001040669254081e-9
          8.224321792677212e-10 1.238275401247974e-8 1.0802861035547489e-8 3.220258166007546e-9 3.993949372690374e-9 4.830659992081824e-10
          1.3759807768880267e-10 6.294952870014679e-10 1.6628615093414439e-10 6.67940555945014e-11 1.061187198527116e-10 1.2443872409667818e-10
          8.693809280131091e-11 8.134650792256993e-11 2.0101597379312834e-10 1.8734166132867594e-10 4.8501850669340123e-11 1.2278397239834207e-10
          1.1433927223730098e-10 6.670659115792902e-11 1.518077971952369e-10 9.24290946369196e-11 6.857468650995505e-10 6.356280620973372e-10
          3.934258477687325e-10 5.05784949389643e-10 4.854027007422406e-11 1.0779289499952434e-10 2.9171720845661713e-11 6.536242780121459e-11
          3.19531053662388e-11 6.818582087162402e-11 4.1041166780592194e-11 3.467252046791779e-10 2.1261301730003173e-10 2.081084171026941e-10
          2.010231754411338e-11 3.897093726352625e-11 1.2019821335507983e-11 2.3175557742885116e-11 1.5720705232168203e-11 2.720777725660284e-11
          1.603002032943572e-11 1.1192554211405794e-10 6.736404098085794e-11 6.623105886851351e-11 7.297524478309219e-9 2.0771041643010142e-9
          1.9210471065802557e-9 1.3044352207904733e-9 1.2039817232398529e-9 1.5117404828557522e-9 9.425090434253667e-10 5.3315049348584105e-9
          4.946315002556037e-9 3.1636947184906636e-9 3.903745488271578e-9 1.007860407262437e-9 6.240318561073585e-10 5.772982047794317e-10
          3.5463369391307306e-10 2.5764798087663717e-9 1.6158877794127482e-9 1.4302106186160938e-9 1.5752018674815314e-8 1.4865555791347374e-8
          1.2191278046826919e-8 2.5130240514246164e-8 1.11731610986486e-8 1.0483793568792176e-8 7.427416351934284e-9 6.925310704334722e-9
          8.457483670465822e-9 5.501357814770482e-9 1.8958333537942853e-8 1.8100682565912065e-8 1.2405491548219971e-8 1.5162308286956144e-8
          8.335082505489718e-9 1.5025695049054355e-8 5.647512355258343e-9 3.6063585590769878e-9 3.101539514176475e-9 1.9457716256672375e-9
          1.0460746641691781e-8 6.839351835446559e-9 5.8068015612513255e-9 2.936639412379741e-10 1.7870463229291156e-10 1.3661143437153915e-10
          8.222910275101072e-11 6.912400601277579e-10 4.23966049815254e-10 3.045775769319634e-10 3.553970511307122e-11 5.878744890438496e-11
          2.2351161137214905e-11 3.568990233595124e-11 2.2434273014444995e-11 3.4313399655643076e-11 2.1637326982774245e-11 1.2558328693392126e-10
          7.529773216197845e-11 7.066401427049304e-11 1.4484872647701486e-9 8.950284215553299e-10 6.077141780199462e-10 3.7077904992300354e-10
          2.6677889338070594e-9 1.6620187333508257e-9 1.0799917915335792e-9 2.395583282455558e-10 1.443342181777606e-10 1.3206721015936055e-10
          7.883047363387472e-11 4.0993508169732156e-10 2.480380877968586e-10 1.7647212856126906e-10 3.595695656287268e-8 3.557839434020717e-8
          3.1798649526143094e-8 4.152755171369402e-8 2.699558236173807e-8 2.6341145453095457e-8 1.893048902056193e-8 1.835689845665371e-8
          2.300391712940451e-8 1.578323877268849e-8 3.249678850185036e-8 3.281107466868575e-8 2.344229184731964e-8 3.026513762153531e-8
          2.321811453484553e-8 3.1294942249253584e-8 1.645175030300058e-8 1.1005192258273716e-8 9.341429920893395e-9 6.042396472480235e-9
          2.2399709224642378e-8 1.5186398416108008e-8 1.2979484863236177e-8 3.799274585483873e-8 4.2368531301492305e-8 4.576242813190075e-8
          4.2037797150946724e-8 3.394615541380792e-8 3.5811762104020245e-8 2.624617571199541e-8 2.668608677688611e-8 3.516441547399972e-8
          2.4769442190664678e-8 3.37543522522738e-8 3.642143268120867e-8 2.7714924092436033e-8 3.683806982437881e-8 3.719817516106086e-8
          3.934689656471316e-8 2.6820928447304745e-8 1.826842446087311e-8 1.573003199213459e-8 1.042218705306105e-8 2.8455826786017625e-8
          1.9401065306884408e-8 1.675580687993222e-8 4.288468247291887e-9 2.6940998275156506e-9 1.6973747435696672e-9 1.0444786207639256e-9
          6.004951173508219e-9 3.800525158672536e-9 2.348107196492202e-9 6.255571935139402e-10 3.797042701318365e-10 2.1956990076849852e-10
          1.591430718070948e-10 8.472489072906482e-10 5.154247244977094e-10 2.9236764992355525e-10 7.334999554950915e-9 4.6677250993139745e-9
          2.853656129057508e-9 1.766642947978519e-9 7.837266154370601e-9 4.997699289867048e-9 3.045360676459581e-9 1.0170187150360293e-9
          6.193366572435603e-10 3.455856298039956e-10 2.5140817823533535e-10 1.0807691144429671e-9 6.582578457279097e-10 3.6536702749326235e-10
          6.627009069803742e-11 7.801754083757705e-11 5.024674105454473e-11 5.7874108291979895e-11 4.6663053295252887e-11 4.9711724468681894e-11
          4.0464746607865035e-11 9.990534810281035e-11 7.302939801414844e-11 5.879548023477872e-11 1.162851685453714e-10 8.5202618272571e-11
          6.845411591505891e-11 5.703248829835924e-11 1.225246318622388e-10 8.984791604626017e-11 7.207766700267127e-11 4.602003940515419e-9
          4.270781404959866e-9 3.3541965941832267e-9 8.429836221882455e-9 7.920492616428478e-9 4.67973379213259e-9 6.372229748499846e-9
          2.170108364096383e-9 1.1579752797007714e-9 4.1835845674551954e-9 2.3977695102158943e-9 2.2192424845085725e-9 5.289934580909027e-10
          2.180236319106577e-10 9.855598247483384e-10 5.566821201681405e-10 3.895610286693218e-10 8.435136235355877e-11 4.607422689669007e-11
          1.4476493469192324e-10 8.146399944326072e-11 7.690114140993106e-11 1.269179417717462e-8 1.2164189692584718e-8 7.843993732977193e-9
          7.429373422454194e-9 1.017145289097662e-8 6.055684904011215e-9 1.608653533466093e-8 1.580197075395224e-8 9.992668118364069e-9
          1.383154249520006e-8 4.438568446371676e-9 4.168952778695168e-9 2.3213608596815756e-9 2.166835764630668e-9 3.3380686806839937e-9
          1.7134819030354554e-9 6.0282541428829606e-9 5.742604132234395e-9 3.0315288330992805e-9 4.719391259810897e-9 6.867551800048214e-9
          3.988060044940178e-9 3.6674871515268005e-9 2.0922735344518758e-9 9.656127296484912e-9 5.684475694739306e-9 5.225697794183399e-9
          2.1628827014862987e-9 1.100220477165744e-9 1.124763686508399e-9 5.716283813323835e-10 3.1087014543263857e-9 1.5874657739757688e-9
          1.6181320854458278e-9 1.795441590535067e-8 1.802958756607987e-8 1.1897365688416834e-8 1.1688540129163446e-8 1.6396158149454838e-8
          1.0171277894001574e-8 1.849292426201184e-8 1.8742466691645864e-8 1.2257446925133291e-8 1.730425693348466e-8 7.105850376430622e-9
          6.855838809810164e-9 3.847785034306181e-9 3.666368243151105e-9 5.7630704657976676e-9 3.0087877168676524e-9 7.474237357570799e-9
          7.249548629152613e-9 3.89676225354093e-9 6.149907864631729e-9 1.1759283315801978e-8 6.997091693331242e-9 6.444526501751224e-9
          3.719604270170556e-9 1.2538691696665622e-8 7.49164018425168e-9 6.907093598398584e-9 3.851328489962239e-9 1.9734838094930474e-9
          2.0110373839271066e-9 1.0227201424883137e-9 4.133464077773696e-9 2.120958471998246e-9 2.1617396862357964e-9 1.6050786409540471e-9
          9.077145912369342e-10 6.157408099421562e-10 3.4759286828091014e-10 2.2748938008817375e-9 1.2888495609128925e-9 8.559530241359754e-10
          4.882245771718322e-10 1.879315956755516e-10 6.927520128497983e-10 2.6073764863934114e-10 2.2131723313785442e-10 1.2416956571715047e-10
          1.1511885138389517e-10 6.353890223171868e-11 3.004293691969663e-10 1.6822654707266818e-10 1.5392047933191283e-10 6.743902393467926e-11
          9.106436593253058e-11 2.8034230487917807e-9 1.5910685073074867e-9 1.0439191377601183e-9 5.891159657903211e-10 3.005218256673024e-9
          1.7068141220050246e-9 1.1154946106790697e-9 8.553571012089864e-10 3.1776278575954717e-10 9.176616589885993e-10 3.394498960554115e-10
          3.6113095112627125e-10 2.0209120561320144e-10 1.8322628031675534e-10 1.0022112248901168e-10 3.8382240826334744e-10 2.1479541841071384e-10
          1.9378355935924906e-10 1.0922416084905438e-10 1.160967576179623e-10 7.326753907381627e-11 5.170591743624591e-11 5.500816777950049e-11
          9.421241477173162e-11 1.1245206475706644e-10 5.5206722469111707e-11 8.724207203783496e-11 2.8722426288613765e-11 7.596393413535986e-11
          3.473367835066033e-11 9.410077788307885e-11 4.887322880971938e-11 1.310860041510747e-10 1.3105531024281355e-10 1.1325875907828446e-10
          1.5733648896975407e-10 2.659185721166516e-10 1.1503061778283911e-10 1.8663654659197904e-10 1.7506496442208533e-10 1.6576523611340073e-10
          2.426120010267335e-10 1.907453980887958e-10 2.4598350275787454e-10 2.7353878718591745e-10 6.257490091034593e-11 1.6910990307566247e-10
          2.7758397379375654e-10 9.725638595194833e-11 2.782312229897514e-10 3.7671284952880247e-10 1.095490075607847e-10 1.0045546772729144e-10
          3.170870665593401e-10 2.9594908471043235e-10 6.69568522695837e-11 2.40998607933871e-10 1.0608037235851273e-9 9.852128286092498e-10
          7.884211832189859e-10 7.914335023367064e-11 1.7267928248720416e-10 1.1060877180035503e-10 5.454937728283443e-10 3.3160087332038e-10
          3.411498612218516e-11 6.46756141880173e-11 4.630613674351547e-11 1.8135348366602083e-10 4.5564810730359e-9 3.1457648086386855e-9
          2.9168274102864928e-9 4.237948513002657e-9 1.0872176880360777e-8 1.0183371050695886e-8 2.3125157903136026e-9 3.391928721424443e-9
          8.24890006087792e-9 1.5594350761861125e-9 2.324960332164955e-9 3.904335531459719e-9 5.6511051442463385e-9 9.05851020585217e-10
          2.2069076065572607e-9 2.1161248877723836e-8 2.003890303333089e-8 1.6631726818881018e-8 3.429515543789092e-8 3.311124274701301e-8
          2.8470246508605663e-8 1.1640918310481427e-8 3.2779774496010176e-9 4.695033167650929e-9 6.774014345213336e-9 2.0455308194787448e-8
          8.606764330675854e-9 1.2077894681700388e-8 4.68267829716588e-10 2.2176328933291998e-10 1.0869324084772112e-9 4.881157104286114e-10
          5.812696226906488e-11 9.660033453633611e-11 5.623629234889267e-11 2.0527916666407785e-10 2.245796371190529e-9 9.634788172589453e-10
          4.080063039419161e-9 1.6969951753101195e-9 3.876382883251668e-10 2.1654717441667448e-10 6.582373351637545e-10 4.398020907718694e-8
          4.44351800113751e-8 4.136413093796403e-8 4.5602753695334474e-8 4.903539916212422e-8 5.1016815118826087e-8 3.118052656224122e-8
          1.3578344341017703e-8 1.8705426248643098e-8 4.1442315757484074e-8 1.8629350376247787e-8 2.5455960922748035e-8 4.3593307783007455e-8
          4.918141261491411e-8 5.5884481619109276e-8 4.263399860749158e-8 4.8886273659773725e-8 5.7271496305463046e-8 4.8511888975003143e-8
          2.245492551267835e-8 3.059112458953131e-8 5.0965714308483685e-8 2.3887618947132038e-8 3.2511418043308014e-8 6.474792277408372e-9
          2.6469450035044395e-9 8.964168908178698e-9 3.640923292864375e-9 9.994771520953844e-10 3.6177705069153535e-10 1.3486847725083457e-9
          4.804209087944893e-10 1.0864123852144493e-8 4.409623938528879e-9 1.157616122369163e-8 4.700405095805125e-9 1.6151015746954871e-9
          5.669546182636107e-10 1.7151051883633282e-9 5.991589033730183e-10 1.1421615864680084e-10 1.32720396060053e-10 7.860899564679174e-11
          1.6844757443812782e-10 1.958369763702163e-10 1.029274739448014e-10 2.060034373374821e-10
        </DataArray>
        <DataArray type="Float64" Name="gradient_matprop_error" format="ascii" RangeMin="0" RangeMax="0">
          0 0 0 0 0 0
          0 0 0 0 0 0
          0 0 0 0 0 0
          0 0 0 0 0 0
          0 0 0 0 0 0
          0 0 0 0 0 0
          0 0 0 0 0 0
          0 0 0 0 0 0
          0 0 0 0 0 0
          0 0 0 0 0 0
          0 0 0 0 0 0
          0 0 0 0 0 0
          0 0 0 0 0 0
          0 0 0 0 0 0
          0 0 0 0 0 0
          0 0 0 0 0 0
          0 0 0 0 0 0
          0 0 0 0 0 0
          0 0 0 0 0 0
          0 0 0 0 0 0
          0 0 0 0 0 0
          0 0 0 0 0 0
          0 0 0 0 0 0
          0 0 0 0 0 0
          0 0 0 0 0 0
          0 0 0 0 0 0
          0 0 0 0 0 0
          0 0 0 0 0 0
          0 0 0 0 0 0
          0 0 0 0 0 0
          0 0 0 0 0 0
          0 0 0 0 0 0
          0 0 0 0 0 0
          0 0 0 0 0 0
          0 0 0 0 0 0
          0 0 0 0 0 0
          0 0 0 0 0 0
          0 0 0 0 0 0
          0 0 0 0 0 0
          0 0 0 0 0 0
          0 0 0 0 0 0
          0 0 0 0 0 0
          0 0 0 0 0 0
          0 0 0 0 0 0
          0 0 0 0 0 0
          0 0 0 0 0 0
          0 0 0 0 0 0
          0 0 0 0 0 0
          0 0 0 0 0 0
          0 0 0 0 0 0
          0 0 0 0 0 0
          0 0 0 0 0 0
          0 0 0 0 0 0
          0 0 0 0 0 0
          0 0 0 0 0 0
          0 0 0 0 0 0
          0 0 0 0 0 0
          0 0 0 0 0 0
          0 0 0 0 0 0
          0 0 0 0 0 0
          0 0 0 0 0 0
          0 0 0 0 0 0
          0 0 0 0 0 0
          0 0 0 0 0 0
          0 0 0 0 0 0
          0 0 0 0 0 0
          0 0 0 0 0 0
          0 0 0 0 0 0
          0 0 0 0 0 0
          0 0 0 0 0 0
          0 0 0 0 0 0
          0 0 0 0 0 0
          0 0 0 0 0 0
          0 0 0 0 0 0
          0 0 0 0 0 0
          0 0 0 0 0 0
          0 0 0 0 0 0
          0 0 0 0 0 0
          0 0 0 0 0 0
          0 0 0 0 0 0
          0 0 0 0 0 0
          0 0 0 0 0 0
          0 0 0 0 0 0
          0 0 0 0 0 0
          0 0 0 0 0 0
          0 0 0 0 0 0
          0 0 0 0 0 0
          0 0 0 0
        </DataArray>
        <DataArray type="Float64" Name="initial_marker" format="ascii" RangeMin="0" RangeMax="2">
          2 2 1.5 2 2 2
          1 2 2 2 0.25 2
          0.5 2 2 2 2 2
          2 2 2 2 0 2
          2 2 2 2 2 2
          2 2 2 1.25 2 0
          0 0 2 2 2 2
          0.5 2 2 2 2 2
          2 2 2 2 2 2
          1 2 1 0 0 0
          2 2 2 2 2 2
          2 2 2 2 2 2
          2 2 2 2 1.5 1.75
          1 1.5 1.25 2 2 2
          0 0.5 0 0.5 0 0
          0 1.5 1.5 0.6666666666666666 2 2
          2 2 2 2 2 2
          2 2 2 2 2 2
          2 2 2 2 2 2
          2 2 2 2 2 2
          2 2 2 2 2 2
          2 2 2 2 2 2
          2 2 2 2 2 1.5
          1.5 2 2 2 0 0.5
          0 0.5 0 0 0 1.25
          1 0.5 2 2 2 2
          2 2 2 1.75 1.5 1.5
          1 2 2 1.3333333333333333 2 2
          2 2 2 2 2 2
          2 2 2 2 2 2
          2 2 2 2 2 2
          2 2 2 2 2 2
          2 2 2 2 2 2
          2 2 2 2 2 2
          2 2 2 2 2 2
          2 2 2 2 2 2
          2 2 2 2 2 1.25
          1.3333333333333333 2 2 1.75 2 2
          2 2 2 2 2 2
          2 2 2 2 2 2
          0 0.25 0 0 0 0
          0 0.75 0.5 0 1 1
          0 0 1 1 0 2
          2 2 2 2 2 2
          2 2 2 2 2 2
          2 2 2 2 1.25 0.5
          1.75 1.5 1.5 2 2 2
          2 2 2 2 2 2
          2 2 2 2 2 2
          2 2 2 2 2 2
          2 2 2 2 2 2
          2 2 2 2 2 2
          2 2 2 2 2 2
          2 2 2 2 2 2
          2 2 2 2 2 2
          2 2 2 2 2 2
          2 2 2 2 2 2
          2 2 2 2 2 2
          2 2 2 2 2 2
          2 2 2 2 2 2
          2 2 2 2 2 1.5
          1.75 2 2 2 2 2
          2 2 2 2 2 2
          2 2 2 2 2 2
          2 2 2 0 0 0
          0 1.25 1 0.5 0 0
          0 0 0 0 1 0
          0 0 0 0 0 0
          0 0 0 0 0 0
          0.5 0 0 1 1.5 2
          2 2 1 2 2 2
          2 2 2 1.5 2 2
          0 0.75 0.5 1.75 2 2
          2 2 2 2 2 2
          2 2 2 2 2 2
          2 2 2 2 2 2
          2 2 2 2 2 2
          2 2 2 1.75 2 2
          0.5 0.75 0 1.5 2 2
          2 2 2 2 2 2
          2 2 2 2 2 2
          2 2 2 2 2 2
          2 2 2 2 2 2
          2 2 2 2 2 2
          2 2 2 2 1.5 2
          2 2 2 2 2 2
          2 2 2 0 0.5 0
          1 1 0 1
        </DataArray>
        <DataArray type="Float64" Name="markers_norefine" format="ascii" RangeMin="0" RangeMax="2">
          0 0 0 0 0 0
          0 0 0 0 0 0
          0 0 0 0 0 0
          0 0 0 0 0 0
          0.5 0 0 0 0 1
          0.5 0 0 0 0 0
          0 0 0 0 0 0
          0 0 0 0 0 0
          0 0 0 0 0 0
          0 0 0 0 0 0
          0 0 0 0 0 0
          0 0 0 0 0 0
          0 0 0 0 0 0
          0 0 0 0 0 0
          0 0 0 0 0 0
          0 0 0 0 0 0
          0 0 0 0 0 0
          0 0 0 0 0 0
          0 0 0 0 0 0
          0 0 0 0 0 0
          0 0 0 0 0 0
          0 0 0 0 0 0
          0 0 0 0 0 0
          0 0 0 0 0 0
          0 0 0 0 0 0
          0 0 0 0 0 0
          0 0 0 0 0 0
          0 0 0 0 0 0
          0 0.25 0 0 0 0
          0 0 0 0 0 0
          0 0 0 0 0 0
          0 0 0 1 0.75 0.25
          1 0 0 0 0 0
          0 0 0 0 0 0
          0 0 0 0 0 0
          0 0 0 0 0 0
          0 0 0 0 0 0
          0 0 0 0 0 0
          0 0 0 0 0 0
          0 0 0 0 0 0
          0 0 0 0 0 0
          0 0 0 0 0 0
          0 0 0 0 0 0
          0 0 0 0 0 0
          0 0 0 0 0 0
          0 0 0 0 0 0
          0 0 0 0 0 0
          0 0 0 0 0 0
          0 0 0 0 0 0
          0 0 0 0 0 0
          0 0 0 0 0 0
          0 0 0 0 0 0
          0 0 0 0 0 0
          0 0 0 0 0 0
          0 0 0 0 0 0
          0 0 0 0 0 0
          0 0 0 0 0 0
          0 0 0 0 0 0
          0 0 0 0 0 0
          0 0 0 0 0 0
          0 0 0 0 0 0
          0 0 0 0 0 0
          0 0 0 0 0 0
          0 0 0 0 0 0
          0 0 0 0 0 0
          0 0 0 0 0 0
          0 0 0 0 0 0
          0 0 0 0 0 0
          0 0 0 0 0 0
          0 0 0 0 0 0
          0 0 0 0 0 0
          0 0 0 0 0 0
          0 0 0 0 0 0
          0 0 0 0 0 0
          0 0 0 0 0 0
          0 0 0 0 0 0
          0 0 0 0 0 0
          0 0 0 0 0 0
          0 0 0 0 0 0
          0 0 0 0 0 0.5
          0.5 0.25 1.5 1.25 0.5 0
          0 0 0 0 0 2
          1.75 1 2 2 1.5 0.25
          0 0 0.5 0 0 0
          0 0 0 0 0 0
          0 0 0 0 0 0
          0 0 0 0 0 0
          0 0 0 0
        </DataArray>
        <DataArray type="Float64" Name="markers_mustrefine" format="ascii" RangeMin="0" RangeMax="2">
          2 2 1.5 2 2 2
          1 2 2 2 0.25 2
          0.5 2 2 2 2 2
          2 2 2 2 0 2
          2 2 2 2 2 2
          2 2 2 1.25 2 0
          0 0 2 2 2 2
          0.5 2 2 2 2 2
          2 2 2 2 2 2
          1 2 1 0 0 0
          2 2 2 2 2 2
          2 2 2 2 2 2
          2 2 2 2 1.5 1.75
          1 1.5 1.25 2 2 2
          0 0.5 0 0.5 0 0
          0 1.5 1.5 0.6666666666666666 2 2
          2 2 2 2 2 2
          2 2 2 2 2 2
          2 2 2 2 2 2
          2 2 2 2 2 2
          2 2 2 2 2 2
          2 2 2 2 2 2
          2 2 2 2 2 1.5
          1.5 2 2 2 0 0.5
          0 0.5 0 0 0 1.25
          1 0.5 2 2 2 2
          2 2 2 1.75 1.5 1.5
          1 2 2 1.3333333333333333 2 2
          2 2 2 2 2 2
          2 2 2 2 2 2
          2 2 2 2 2 2
          2 2 2 2 2 2
          2 2 2 2 2 2
          2 2 2 2 2 2
          2 2 2 2 2 2
          2 2 2 2 2 2
          2 2 2 2 2 1.25
          1.3333333333333333 2 2 1.75 2 2
          2 2 2 2 2 2
          2 2 2 2 2 2
          0 0.25 0 0 0 0
          0 0.75 0.5 0 1 1
          0 0 1 1 0 2
          2 2 2 2 2 2
          2 2 2 2 2 2
          2 2 2 2 1.25 0.5
          1.75 1.5 1.5 2 2 2
          2 2 2 2 2 2
          2 2 2 2 2 2
          2 2 2 2 2 2
          2 2 2 2 2 2
          2 2 2 2 2 2
          2 2 2 2 2 2
          2 2 2 2 2 2
          2 2 2 2 2 2
          2 2 2 2 2 2
          2 2 2 2 2 2
          2 2 2 2 2 2
          2 2 2 2 2 2
          2 2 2 2 2 2
          2 2 2 2 2 1.5
          1.75 2 2 2 2 2
          2 2 2 2 2 2
          2 2 2 2 2 2
          2 2 2 0 0 0
          0 1.25 1 0.5 0 0
          0 0 0 0 1 0
          0 0 0 0 0 0
          0 0 0 0 0 0
          0.5 0 0 1 1.5 2
          2 2 1 2 2 2
          2 2 2 1.5 2 2
          0 0.75 0.5 1.75 2 2
          2 2 2 2 2 2
          2 2 2 2 2 2
          2 2 2 2 2 2
          2 2 2 2 2 2
          2 2 2 1.75 2 2
          0.5 0.75 0 1.5 2 2
          2 2 2 2 2 2
          2 2 2 2 2 2
          2 2 2 2 2 2
          2 2 2 2 2 2
          2 2 2 2 2 2
          2 2 2 2 1.5 2
          2 2 2 2 2 2
          2 2 2 0 0.5 0
          1 1 0 1
        </DataArray>
        <DataArray type="Float64" Name="gradient_marker" format="ascii" RangeMin="1" RangeMax="1">
          1 1 1 1 1 1
          1 1 1 1 1 1
          1 1 1 1 1 1
          1 1 1 1 1 1
          1 1 1 1 1 1
          1 1 1 1 1 1
          1 1 1 1 1 1
          1 1 1 1 1 1
          1 1 1 1 1 1
          1 1 1 1 1 1
          1 1 1 1 1 1
          1 1 1 1 1 1
          1 1 1 1 1 1
          1 1 1 1 1 1
          1 1 1 1 1 1
          1 1 1 1 1 1
          1 1 1 1 1 1
          1 1 1 1 1 1
          1 1 1 1 1 1
          1 1 1 1 1 1
          1 1 1 1 1 1
          1 1 1 1 1 1
          1 1 1 1 1 1
          1 1 1 1 1 1
          1 1 1 1 1 1
          1 1 1 1 1 1
          1 1 1 1 1 1
          1 1 1 1 1 1
          1 1 1 1 1 1
          1 1 1 1 1 1
          1 1 1 1 1 1
          1 1 1 1 1 1
          1 1 1 1 1 1
          1 1 1 1 1 1
          1 1 1 1 1 1
          1 1 1 1 1 1
          1 1 1 1 1 1
          1 1 1 1 1 1
          1 1 1 1 1 1
          1 1 1 1 1 1
          1 1 1 1 1 1
          1 1 1 1 1 1
          1 1 1 1 1 1
          1 1 1 1 1 1
          1 1 1 1 1 1
          1 1 1 1 1 1
          1 1 1 1 1 1
          1 1 1 1 1 1
          1 1 1 1 1 1
          1 1 1 1 1 1
          1 1 1 1 1 1
          1 1 1 1 1 1
          1 1 1 1 1 1
          1 1 1 1 1 1
          1 1 1 1 1 1
          1 1 1 1 1 1
          1 1 1 1 1 1
          1 1 1 1 1 1
          1 1 1 1 1 1
          1 1 1 1 1 1
          1 1 1 1 1 1
          1 1 1 1 1 1
          1 1 1 1 1 1
          1 1 1 1 1 1
          1 1 1 1 1 1
          1 1 1 1 1 1
          1 1 1 1 1 1
          1 1 1 1 1 1
          1 1 1 1 1 1
          1 1 1 1 1 1
          1 1 1 1 1 1
          1 1 1 1 1 1
          1 1 1 1 1 1
          1 1 1 1 1 1
          1 1 1 1 1 1
          1 1 1 1 1 1
          1 1 1 1 1 1
          1 1 1 1 1 1
          1 1 1 1 1 1
          1 1 1 1 1 1
          1 1 1 1 1 1
          1 1 1 1 1 1
          1 1 1 1 1 1
          1 1 1 1 1 1
          1 1 1 1 1 1
          1 1 1 1 1 1
          1 1 1 1 1 1
          1 1 1 1
        </DataArray>
        <DataArray type="Float64" Name="gradient_matprop_marker" format="ascii" RangeMin="0" RangeMax="0">
          0 0 0 0 0 0
          0 0 0 0 0 0
          0 0 0 0 0 0
          0 0 0 0 0 0
          0 0 0 0 0 0
          0 0 0 0 0 0
          0 0 0 0 0 0
          0 0 0 0 0 0
          0 0 0 0 0 0
          0 0 0 0 0 0
          0 0 0 0 0 0
          0 0 0 0 0 0
          0 0 0 0 0 0
          0 0 0 0 0 0
          0 0 0 0 0 0
          0 0 0 0 0 0
          0 0 0 0 0 0
          0 0 0 0 0 0
          0 0 0 0 0 0
          0 0 0 0 0 0
          0 0 0 0 0 0
          0 0 0 0 0 0
          0 0 0 0 0 0
          0 0 0 0 0 0
          0 0 0 0 0 0
          0 0 0 0 0 0
          0 0 0 0 0 0
          0 0 0 0 0 0
          0 0 0 0 0 0
          0 0 0 0 0 0
          0 0 0 0 0 0
          0 0 0 0 0 0
          0 0 0 0 0 0
          0 0 0 0 0 0
          0 0 0 0 0 0
          0 0 0 0 0 0
          0 0 0 0 0 0