<?xml version="1.0"?>
<VTKFile type="UnstructuredGrid" version="0.1" byte_order="LittleEndian" header_type="UInt32" compressor="vtkZLibDataCompressor">
  <UnstructuredGrid>
    <Piece NumberOfPoints="1384" NumberOfCells="948">
      <PointData>
        <DataArray type="Int32" Name="libmesh_node_id" format="ascii" RangeMin="1701" RangeMax="10994">
          1701 1805 1838 1934 1936 1937
          1939 1940 1941 1942 1945 1999
          2000 2001 2002 2004 2005 2006
          2007 2008 2187 2188 2189 2191
          2193 2196 2200 2204 2205 2206
          2207 2208 2209 2210 2211 2212
          2213 2279 2282 2284 2285 2379
          2387 2388 2389 3023 3024 3025
          3026 3027 3029 3030 3031 3032
          3033 3034 3035 3036 3037 3038
          3039 3040 3046 3055 3060 3062
          3064 3066 3068 3069 3070 3071
          3072 3073 3074 3089 3091 3092
          3093 3095 3097 3099 3100 3101
          3102 3103 3104 3105 3106 3107
          3108 3308 3309 3312 3313 3314
          3315 3316 3317 3318 3319 3353
          3354 3357 3359 3361 3362 3363
          3364 3365 3366 3367 3368 3369
          3370 3490 3491 3492 3493 3494
          3495 3496 3497 3498 3499 3500
          3501 3502 3503 3506 3507 3510
          3512 3514 3515 3516 3517 3518
          3519 3520 3521 3522 3523 4413
          4414 4415 4417 4418 4425 4429
          4430 4431 4432 4433 4434 4435
          4436 4437 4438 4443 4444 4445
          4446 4447 4448 4453 4454 4455
          4456 4457 4458 4459 4460 4461
          4462 4463 4464 4465 4466 4467
          4468 4533 4563 4593 4594 4597
          4613 4614 4615 4617 4618 4626
          4627 4628 4629 4630 4631 4632
          4641 4642 4643 4645 4646 4654
          4655 4656 4657 4658 4659 4660
          4661 4662 4663 4664 4665 4666
          4667 4668 4669 4670 4671 4672
          4673 4674 4675 4676 4677 4678
          4679 4680 4681 4682 4683 4684
          4685 4686 4687 4688 4689 4690
          4691 4692 4693 4694 4695 4696
          4697 4698 4699 4700 4701 4702
          4703 4704 4705 4706 4707 4708
          4709 4710 4711 4712 4713 4714
          4715 4716 4717 4718 4719 4760
          4768 4769 4770 4771 4772 4773
          4774 4775 4776 4777 4785 4786
          4787 4788 4789 4790 4791 4802
          4804 4805 4808 4810 4812 4813
          4814 4815 4816 4817 4818 4819
          4820 4821 4822 4823 4824 4825
          4826 4827 4828 4829 4830 4831
          4832 4833 4834 4835 4836 4837
          4838 4839 4840 4841 4842 4843
          4844 4845 4846 4847 4848 4849
          4850 4851 4852 4853 4854 4855
          5719 5720 5721 5722 5723 5724
          5725 5736 5737 5738 5739 5742
          5743 5744 5745 5746 5747 5748
          5749 5750 5751 5752 5753 5754
          5755 5756 5757 5758 5759 5760
          5761 5762 5763 5764 5765 5766
          5878 5879 5882 5883 5884 5885
          5886 5887 5888 5889 5890 5891
          5892 5893 5894 5895 5896 8400
          8408 8409 8410 8412 8413 8436
          8437 8440 8442 8444 8445 8446
          8447 8448 8449 8450 8451 8452
          8453 8463 8473 8478 8479 8480
          8481 8482 8483 8491 8492 8493
          8503 8513 8521 8522 8523 8531
          8532 8533 8534 8535 8536 8537
          8538 8539 8540 8541 8542 8543
          9008 9036 9224 9231 9280 9440
          9441 9444 9447 9448 9451 9468
          9469 9472 9475 9476 9479 9496
          9500 9524 9528 9600 9602 9604
          9609 9614 9615 9616 9618 9619
          9628 9630 9632 9637 9642 9643
          9644 9646 9647 9711 9713 9715
          9717 9718 9719 9720 9721 9722
          9723 9725 9726 9727 9728 9729
          9730 9731 9732 9733 9734 9735
          9736 9737 9738 9739 9740 9741
          9742 9743 9745 9747 9749 9751
          9752 9753 9754 9755 9756 9757
          9758 9759 9760 9761 9762 9763
          9764 9765 9766 9767 9768 9769
          9770 9771 9836 9838 9840 9845
          9850 9851 9852 9854 9855 9864
          9866 9868 9873 9878 9879 9880
          9882 9883 9941 9943 9945 9947
          9948 9949 9950 9951 9952 9953
          9954 9955 9956 9957 9958 9959
          9960 9961 9962 9963 9964 9965
          9966 9967 9969 9971 9973 9975
          9976 9977 9978 9979 9980 9981
          9982 9983 9984 9985 9986 9987
          9988 9989 9990 9991 9992 9993
          9994 9995 9996 9997 9998 9999
          10000 10001 10002 10003 10004 10005
          10006 10007 10008 10009 10010 10011
          10012 10013 10014 10015 10016 10017
          10018 10019 10020 10021 10022 10023
          10024 10025 10026 10027 10028 10029
          10030 10031 10032 10033 10034 10035
          10036 10037 10038 10039 10040 10041
          10042 10043 10044 10045 10046 10047
          10048 10049 10050 10051 10052 10053
          10054 10055 10056 10057 10058 10059
          10060 10061 10062 10063 10064 10065
          10066 10067 10068 10069 10070 10071
          10072 10073 10074 10075 10076 10077
          10078 10079 10080 10081 10082 10083
          10084 10085 10086 10087 10088 10089
          10090 10091 10092 10093 10094 10095
          10096 10097 10098 10099 10100 10101
          10102 10103 10104 10105 10106 10107
          10108 10109 10110 10111 10112 10113
          10114 10115 10116 10117 10118 10119
          10120 10121 10122 10123 10124 10125
          10126 10127 10128 10129 10130 10131
          10132 10133 10134 10135 10136 10137
          10138 10139 10140 10141 10142 10143
          10144 10145 10146 10147 10148 10149
          10150 10151 10152 10153 10154 10155
          10156 10157 10158 10159 10160 10161
          10162 10163 10164 10165 10166 10167
          10168 10169 10170 10171 10172 10173
          10174 10175 10176 10177 10178 10179
          10180 10181 10182 10183 10184 10185
          10186 10187 10188 10189 10190 10191
          10192 10193 10194 10195 10196 10197
          10198 10199 10200 10201 10202 10203
          10204 10205 10206 10207 10208 10209
          10210 10211 10212 10213 10214 10215
          10216 10217 10218 10219 10220 10221
          10222 10223 10224 10225 10226 10227
          10228 10229 10230 10231 10232 10233
          10234 10235 10236 10237 10238 10239
          10240 10241 10242 10243 10244 10245
          10246 10247 10248 10249 10250 10251
          10252 10253 10254 10255 10256 10257
          10258 10259 10260 10261 10262 10263
          10264 10265 10266 10267 10268 10269
          10270 10271 10272 10273 10274 10275
          10276 10277 10278 10279 10280 10281
          10282 10283 10284 10285 10286 10287
          10288 10289 10290 10291 10292 10293
          10294 10295 10296 10297 10298 10299
          10300 10301 10302 10303 10304 10305
          10306 10307 10308 10309 10310 10311
          10312 10313 10314 10315 10316 10317
          10318 10319 10320 10321 10322 10323
          10324 10325 10326 10327 10328 10329
          10330 10331 10332 10333 10334 10335
          10336 10337 10338 10339 10340 10341
          10342 10343 10344 10345 10346 10347
          10348 10349 10350 10351 10352 10353
          10354 10355 10356 10357 10358 10359
          10360 10361 10362 10363 10364 10365
          10366 10367 10368 10369 10370 10371
          10372 10373 10374 10375 10376 10377
          10378 10379 10380 10381 10382 10383
          10384 10385 10386 10387 10388 10389
          10390 10391 10392 10393 10394 10395
          10396 10397 10398 10399 10400 10401
          10402 10403 10404 10405 10406 10407
          10408 10409 10410 10411 10412 10413
          10414 10415 10416 10417 10418 10419
          10420 10421 10422 10423 10424 10425
          10426 10427 10428 10429 10430 10431
          10432 10433 10434 10435 10436 10437
          10438 10439 10440 10441 10442 10443
          10444 10445 10446 10447 10448 10449
          10450 10451 10452 10453 10454 10455
          10456 10457 10458 10459 10460 10461
          10462 10463 10464 10549 10550 10551
          10552 10553 10554 10555 10556 10557
          10558 10559 10560 10561 10562 10563
          10564 10565 10566 10567 10568 10569
          10570 10571 10572 10573 10574 10575
          10576 10577 10578 10579 10580 10581
          10582 10585 10586 10589 10591 10593
          10594 10595 10596 10597 10598 10599
          10600 10601 10602 10659 10660 10661
          10662 10663 10664 10665 10666 10667
          10668 10669 10670 10671 10672 10674
          10676 10678 10680 10681 10682 10683
          10684 10685 10686 10687 10688 10689
          10690 10691 10692 10693 10694 10695
          10696 10697 10698 10699 10700 10702
          10704 10706 10708 10709 10710 10711
          10712 10713 10714 10768 10769 10772
          10774 10776 10777 10778 10779 10780
          10781 10782 10783 10784 10785 10786
          10787 10788 10789 10790 10791 10792
          10793 10794 10795 10796 10797 10798
          10799 10800 10801 10802 10803 10804
          10805 10806 10807 10808 10809 10810
          10811 10812 10813 10814 10815 10816
          10817 10818 10819 10820 10821 10822
          10823 10824 10825 10826 10827 10828
          10829 10830 10831 10832 10833 10834
          10835 10836 10837 10838 10839 10840
          10841 10842 10843 10844 10845 10846
          10847 10848 10849 10850 10851 10852
          10853 10854 10855 10856 10857 10858
          10859 10860 10861 10862 10863 10864
          10865 10866 10867 10868 10869 10870
          10871 10872 10873 10874 10875 10876
          10877 10878 10879 10880 10881 10882
          10883 10884 10885 10886 10887 10888
          10889 10890 10891 10892 10893 10894
          10895 10896 10897 10898 10899 10900
          10901 10902 10903 10904 10905 10906
          10907 10908 10909 10910 10911 10912
          10913 10914 10915 10916 10917 10918
          10919 10920 10921 10922 10923 10924
          10925 10926 10927 10928 10929 10930
          10931 10932 10933 10934 10935 10936
          10937 10938 10939 10940 10941 10942
          10943 10944 10945 10946 10947 10948
          10949 10950 10951 10952 10953 10954
          10955 10956 10957 10958 10959 10960
          10961 10962 10963 10964 10965 10966
          10967 10968 10969 10970 10971 10972
          10973 10974 10975 10976 10977 10978
          10979 10980 10981 10982 10983 10984
          10985 10986 10987 10988 10989 10990
          10991 10992 10993 10994
        </DataArray>
        <DataArray type="Float64" Name="bounds" format="ascii" RangeMin="0" RangeMax="0">
          0 0 0 0 0 0
          0 0 0 0 0 0
          0 0 0 0 0 0
          0 0 0 0 0 0
          0 0 0 0 0 0
          0 0 0 0 0 0
          0 0 0 0 0 0
          0 0 0 0 0 0
          0 0 0 0 0 0
          0 0 0 0 0 0
          0 0 0 0 0 0
          0 0 0 0 0 0
          0 0 0 0 0 0
          0 0 0 0 0 0
          0 0 0 0 0 0
          0 0 0 0 0 0
          0 0 0 0 0 0
          0 0 0 0 0 0
          0 0 0 0 0 0
          0 0 0 0 0 0
          0 0 0 0 0 0
          0 0 0 0 0 0
          0 0 0 0 0 0
          0 0 0 0 0 0
          0 0 0 0 0 0
          0 0 0 0 0 0
          0 0 0 0 0 0
          0 0 0 0 0 0
          0 0 0 0 0 0
          0 0 0 0 0 0
          0 0 0 0 0 0
          0 0 0 0 0 0
          0 0 0 0 0 0
          0 0 0 0 0 0
          0 0 0 0 0 0
          0 0 0 0 0 0
          0 0 0 0 0 0
          0 0 0 0 0 0
          0 0 0 0 0 0
          0 0 0 0 0 0
          0 0 0 0 0 0
          0 0 0 0 0 0
          0 0 0 0 0 0
          0 0 0 0 0 0
          0 0 0 0 0 0
          0 0 0 0 0 0
          0 0 0 0 0 0
          0 0 0 0 0 0
          0 0 0 0 0 0
          0 0 0 0 0 0
          0 0 0 0 0 0
          0 0 0 0 0 0
          0 0 0 0 0 0
          0 0 0 0 0 0
          0 0 0 0 0 0
          0 0 0 0 0 0
          0 0 0 0 0 0
          0 0 0 0 0 0
          0 0 0 0 0 0
          0 0 0 0 0 0
          0 0 0 0 0 0
          0 0 0 0 0 0
          0 0 0 0 0 0
          0 0 0 0 0 0
          0 0 0 0 0 0
          0 0 0 0 0 0
          0 0 0 0 0 0
          0 0 0 0 0 0
          0 0 0 0 0 0
          0 0 0 0 0 0
          0 0 0 0 0 0
          0 0 0 0 0 0
          0 0 0 0 0 0
          0 0 0 0 0 0
          0 0 0 0 0 0
          0 0 0 0 0 0
          0 0 0 0 0 0
          0 0 0 0 0 0
          0 0 0 0 0 0
          0 0 0 0 0 0
          0 0 0 0 0 0
          0 0 0 0 0 0
          0 0 0 0 0 0
          0 0 0 0 0 0
          0 0 0 0 0 0
          0 0 0 0 0 0
          0 0 0 0 0 0
          0 0 0 0 0 0
          0 0 0 0 0 0
          0 0 0 0 0 0
          0 0 0 0 0 0
          0 0 0 0 0 0
          0 0 0 0 0 0
          0 0 0 0 0 0
          0 0 0 0 0 0
          0 0 0 0 0 0
          0 0 0 0 0 0
          0 0 0 0 0 0
          0 0 0 0 0 0
          0 0 0 0 0 0
          0 0 0 0 0 0
          0 0 0 0 0 0
          0 0 0 0 0 0
          0 0 0 0 0 0
          0 0 0 0 0 0
          0 0 0 0 0 0
          0 0 0 0 0 0
          0 0 0 0 0 0
          0 0 0 0 0 0
          0 0 0 0 0 0
          0 0 0 0 0 0
          0 0 0 0 0 0
          0 0 0 0 0 0
          0 0 0 0 0 0
          0 0 0 0 0 0
          0 0 0 0 0 0
          0 0 0 0 0 0
          0 0 0 0 0 0
          0 0 0 0 0 0
          0 0 0 0 0 0
          0 0 0 0 0 0
          0 0 0 0 0 0
          0 0 0 0 0 0
          0 0 0 0 0 0
          0 0 0 0 0 0
          0 0 0 0 0 0
          0 0 0 0 0 0
          0 0 0 0 0 0
          0 0 0 0 0 0
          0 0 0 0 0 0
          0 0 0 0 0 0
          0 0 0 0 0 0
          0 0 0 0 0 0
          0 0 0 0 0 0
          0 0 0 0 0 0
          0 0 0 0 0 0
          0 0 0 0 0 0
          0 0 0 0 0 0
          0 0 0 0 0 0
          0 0 0 0 0 0
          0 0 0 0 0 0
          0 0 0 0 0 0
          0 0 0 0 0 0
          0 0 0 0 0 0
          0 0 0 0 0 0
          0 0 0 0 0 0
          0 0 0 0 0 0
          0 0 0 0 0 0
          0 0 0 0 0 0
          0 0 0 0 0 0
          0 0 0 0 0 0
          0 0 0 0 0 0
          0 0 0 0 0 0
          0 0 0 0 0 0
          0 0 0 0 0 0
          0 0 0 0 0 0
          0 0 0 0 0 0
          0 0 0 0 0 0
          0 0 0 0 0 0
          0 0 0 0 0 0
          0 0 0 0 0 0
          0 0 0 0 0 0
          0 0 0 0 0 0
          0 0 0 0 0 0
          0 0 0 0 0 0
          0 0 0 0 0 0
          0 0 0 0 0 0
          0 0 0 0 0 0
          0 0 0 0 0 0
          0 0 0 0 0 0
          0 0 0 0 0 0
          0 0 0 0 0 0
          0 0 0 0 0 0
          0 0 0 0 0 0
          0 0 0 0 0 0
          0 0 0 0 0 0
          0 0 0 0 0 0
          0 0 0 0 0 0
          0 0 0 0 0 0
          0 0 0 0 0 0
          0 0 0 0 0 0
          0 0 0 0 0 0
          0 0 0 0 0 0
          0 0 0 0 0 0
          0 0 0 0 0 0
          0 0 0 0 0 0
          0 0 0 0 0 0
          0 0 0 0 0 0
          0 0 0 0 0 0
          0 0 0 0 0 0
          0 0 0 0 0 0
          0 0 0 0 0 0
          0 0 0 0 0 0
          0 0 0 0 0 0
          0 0 0 0 0 0
          0 0 0 0 0 0
          0 0 0 0 0 0
          0 0 0 0 0 0
          0 0 0 0 0 0
          0 0 0 0 0 0
          0 0 0 0 0 0
          0 0 0 0 0 0
          0 0 0 0 0 0
          0 0 0 0 0 0
          0 0 0 0 0 0
          0 0 0 0 0 0
          0 0 0 0 0 0
          0 0 0 0 0 0
          0 0 0 0 0 0
          0 0 0 0 0 0
          0 0 0 0 0 0
          0 0 0 0 0 0
          0 0 0 0 0 0
          0 0 0 0 0 0
          0 0 0 0 0 0
          0 0 0 0 0 0
          0 0 0 0 0 0
          0 0 0 0 0 0
          0 0 0 0 0 0
          0 0 0 0 0 0
          0 0 0 0 0 0
          0 0 0 0 0 0
          0 0 0 0 0 0
          0 0 0 0 0 0
          0 0 0 0 0 0
          0 0 0 0 0 0
          0 0 0 0 0 0
          0 0 0 0 0 0
          0 0 0 0 0 0
          0 0 0 0 0 0
          0 0 0 0
        </DataArray>
        <DataArray type="Float64" Name="gradient_error" format="ascii" RangeMin="6.810575680557314e-13" RangeMax="1.8946656034282905e-9">
          6.850333135608518e-12 9.361652977930587e-13 4.5792387730989785e-12 3.7500378516870945e-11 2.963632661912657e-10 2.6364678743935227e-12
          1.1910667001197757e-11 1.5019237368974284e-11 7.381817341930908e-11 4.7092838652447005e-12 2.0187237678707698e-11 9.846580953483906e-12
          8.464159398065358e-12 4.19517218693304e-12 2.9039669225625557e-12 6.725853476072424e-12 2.2090981089228547e-12 1.5365434265635982e-11
          1.8779417842425706e-12 8.673939636012694e-12 5.833057825686223e-11 2.259768762602465e-11 9.45338300587152e-12 1.8863955710570962e-9
          8.863079840041092e-11 1.3106587038279003e-10 9.734490930216616e-11 3.168169028352718e-11 2.6883349269200227e-11 6.116249646162464e-12
          4.248530878303082e-12 2.659914497408945e-11 2.1051092048398488e-11 2.783441363437541e-12 1.617798288159317e-11 2.7059050469171194e-12
          5.623732441114949e-12 1.6849237144722952e-11 2.4633754115867927e-12 1.2367530753956223e-11 2.6617426031112305e-12 1.8729197855933247e-10
          6.070282519277287e-12 4.0482469998278634e-11 9.577458017993302e-12 1.0571804168061201e-10 7.503606396008291e-11 1.0468889563178165e-10
          6.822058328591449e-11 2.728138703566245e-11 3.127956995325414e-11 5.0843085653443067e-11 4.463608476477807e-11 3.124296807346761e-11
          1.7151518535352053e-11 1.1913791650608432e-11 1.60071380973722e-11 1.3642991055092927e-11 8.3677029535514e-12 2.2513000249252684e-11
          8.762161869557184e-12 1.3789991891124992e-11 9.211012328632633e-10 5.211189248335733e-10 1.2270875528549585e-9 2.488247656594776e-10
          4.0483820788451015e-11 6.014004031436411e-10 1.2752629407273008e-10 5.695524405106475e-11 1.9145126865131278e-11 8.040272942499604e-12
          3.4166239225098223e-10 1.6629802250357375e-10 4.501036967717623e-11 4.1959007268251265e-11 1.6335710614904894e-11 1.414343253983296e-11
          3.908875672199999e-11 1.2515403351019127e-11 8.639641521774632e-12 9.363137994051322e-12 6.205518090190712e-12 7.484073791090818e-12
          5.031638851865076e-12 5.030676686515468e-12 5.015498163181617e-12 2.9411886805999574e-12 6.530454206963544e-12 4.500068486582789e-12
          6.617107426093318e-12 2.731830435403355e-11 7.332760124544775e-11 3.40229220504238e-11 3.393495248898709e-12 1.5095504505843085e-11
          1.056280030528107e-12 4.3685289380936155e-12 1.998546074061569e-12 5.781386493199598e-12 1.9302304804745477e-12 1.1464962167466919e-11
          4.551773030544636e-11 1.3773232472270098e-11 7.95704984434258e-11 3.793936527818524e-12 5.284463734028935e-12 9.532649263734225e-13
          1.0452934998839807e-12 2.025407227263665e-12 3.4224190432264213e-12 7.563682384889372e-13 6.7749909402393465e-12 1.1373220733945392e-12
          4.819430859189178e-12 3.98525801699776e-11 4.103216828815693e-11 1.4066707510991507e-11 1.4200236002088464e-11 2.6754007376752332e-11
          4.931832547661749e-11 1.6289240199775586e-11 5.1253853542011215e-12 8.29414619361704e-12 2.001661120867982e-12 6.338611947405672e-12
          3.0433682440000486e-12 5.837635168010137e-12 2.2486086356754783e-12 1.0054788464509037e-11 1.1050686707313536e-11 3.878761511657048e-12
          1.2046584950118036e-11 3.3716886113287068e-12 4.257834696548676e-12 1.2995989489418171e-12 1.6854916199306859e-12 1.7157803239489985e-12
          1.6029381186954638e-12 6.810575680557314e-13 5.143980781768645e-12 2.0713842909195546e-12 1.490095913441929e-12 6.735739258151555e-11
          4.275503515540302e-11 2.8291828729852967e-11 5.839163358737821e-11 4.5484020886965015e-11 5.758303776680975e-11 3.713366299515118e-11
          4.0446721553893807e-11 2.411942900829081e-11 2.6628590743776867e-11 1.987679285979543e-11 3.768066666493489e-11 2.4744667494773246e-11
          3.767579285018083e-11 2.5390446543868262e-11 3.402204091736514e-11 2.8436222740265234e-11 2.4349438208136585e-11 2.1517387039697746e-11
          3.951367790646509e-11 2.596049170243024e-11 2.6132757312485396e-11 1.1116897026978271e-11 1.355922311659337e-11 8.197279320080586e-12
          1.6563959675424038e-11 1.0263018578563057e-11 1.4305368560779555e-11 1.5204691229524525e-11 2.3209404820635008e-11 9.659731029129968e-12
          2.106463398878928e-11 8.39059166792601e-12 1.589628769525721e-11 1.1913038315839972e-11 2.2474448583134062e-11 2.0438809981538014e-11
          1.4524301046995137e-11 1.7549217012809873e-9 7.069084245037303e-10 1.4198060559910354e-9 1.1064074879175396e-9 1.5443229834885502e-9
          1.8716308279673782e-10 1.3244718422067454e-10 9.50778047490243e-11 5.148369847832563e-10 3.3032450489386514e-10 6.141435392446683e-11
          4.3338132906965695e-11 2.588411808045978e-11 1.7961047305907623e-11 1.4406662196677663e-10 1.0570373679077909e-10 5.6498229527434583e-11
          1.0130244172460584e-9 6.227902231370023e-10 4.896348126700354e-10 1.1854210744009593e-9 7.544740043235449e-10 2.636247635510702e-10
          2.002299004741223e-10 9.772914599020907e-11 7.202517173145198e-11 3.241831348645578e-10 2.4919372411389925e-10 1.1900774504888363e-10
          1.323663041960633e-10 9.052028799958505e-11 6.620658624588156e-11 4.469221674453681e-11 3.847874631752845e-10 2.768045154645237e-10
          1.8123051756974625e-10 5.987275161303229e-11 3.831966479224782e-11 2.9246150857910433e-11 1.8558929222269083e-11 1.9160053341551666e-10
          1.2769200633276802e-10 8.669604145697036e-11 2.975090640999628e-11 1.982421343808194e-11 1.2146483849814938e-11 9.873392072915972e-12
          7.52664195018787e-11 5.1953104988091935e-11 2.8241619217791015e-11 1.2936770075779495e-11 1.2820509950037841e-11 7.852686326710903e-12
          8.052514017457557e-12 1.0684357284465269e-11 8.294117881405959e-12 5.1416645106979e-12 3.474861536208109e-11 2.2518109286524553e-11
          1.259629510095417e-11 7.95305306240613e-10 5.994891703215947e-10 3.712627167778448e-10 2.711510993709548e-10 9.451971780299695e-10
          7.237339495799332e-10 4.6207617481336535e-10 4.3312402754271824e-10 2.9991938756809004e-10 1.9070027797879263e-10 1.2918868928903242e-10
          5.307694575033657e-10 3.7260294305434523e-10 2.430087297260603e-10 1.4726578775179176e-10 1.0478560525840499e-10 5.1599453603336074e-11
          3.5883263108256965e-11 1.853307613855133e-10 1.3323324393771899e-10 6.412579142341731e-11 7.21053985051751e-11 4.7969889341140313e-11
          2.4203072486606955e-11 1.5821511690715938e-11 9.255418809783894e-11 6.211359166146699e-11 3.0626246215140326e-11 3.489309048738232e-11
          2.2870246481869772e-11 1.713820597186403e-11 1.5080974982430744e-11 1.1601788646077523e-11 2.0730435752362615e-11 1.9540470768436692e-11
          1.3151864016594367e-11 2.0415231065753998e-11 1.4292001726773211e-11 1.5426475771611562e-11 3.315635864541474e-11 2.3753774204631956e-11
          1.3718118079136713e-11 1.294321147284153e-11 3.947531642731517e-11 2.8548220212169537e-11 1.2299784937552262e-11 1.59677339581641e-11
          1.4557580603664622e-11 1.2512324521130592e-11 9.44980124187687e-12 7.016492048460996e-12 9.718054099801755e-12 7.699286273052756e-12
          9.48367414479088e-12 7.13324237683528e-12 9.082883225034138e-12 8.70393132109631e-12 5.537124359471684e-12 9.766659228233701e-12
          6.488374873089829e-12 9.549888445722606e-12 1.1094374391677541e-11 7.867457586904692e-12 6.925234202513409e-12 6.098383130926316e-12
          4.162070594542807e-12 4.624096319992518e-12 4.960402668896536e-12 5.234526039063584e-12 4.3889042963545186e-12 5.078689412810169e-12
          1.659662082423762e-11 1.1281170481040753e-11 8.811447881276247e-12 7.149375264922898e-12 2.0137139258365684e-11 1.3805066866623644e-11
          5.908559236753351e-12 7.44554103408419e-12 4.7719485495103305e-12 6.00162887870905e-12 3.779846705399534e-12 9.181815546898496e-12
          5.9293292309634444e-12 7.003708303916477e-12 9.888851664480527e-12 8.473382113626456e-12 6.441725546384013e-12 6.934440858498263e-12
          4.682034359187429e-12 6.352230910373239e-12 4.0767198888867416e-12 4.685715641475558e-12 5.8853990548274885e-12 7.1266128853237715e-12
          6.221637549475246e-12 1.3405132077296044e-11 3.794067053617804e-12 8.13333612443294e-12 4.747559774656194e-12 8.944634967521258e-12
          5.423015738762747e-12 8.93892360412124e-12 1.2751594027398151e-11 6.030217418671045e-12 8.65412005046051e-12 4.686347497148932e-12
          3.8666676262989554e-12 5.74161132980151e-12 2.45272698481195e-12 3.6747509570375e-12 2.368709243820448e-12 3.0774645133862993e-12
          1.9759852985291263e-12 1.5605909871040972e-12 2.2752917627117884e-12 1.244337969308877e-12 1.7257714254217293e-12 9.954266391917084e-13
          1.3949764575523595e-12 1.2290155639608016e-12 4.073454484260262e-12 2.903457954064407e-12 2.158473463209568e-12 5.94257648183066e-12
          3.814929708174128e-12 2.6752533872479384e-12 1.8235138908113643e-12 6.728236533460277e-12 4.378274926018935e-12 2.8280861239897517e-12
          1.7649530202314828e-11 2.825385657295775e-11 1.819468343059602e-11 1.0502218857399028e-11 1.771980820419665e-11 6.7229946696959286e-12
          1.1475623627300412e-11 7.116279617094911e-12 1.0944253955542853e-11 7.0281639454781805e-12 4.579510389426097e-12 7.430741284302917e-12
          3.856436922971344e-12 5.8318926884238945e-12 3.187644146803295e-12 4.797013472073585e-12 4.031375775700058e-12 2.550548169259291e-11
          1.4887869136611984e-11 2.1025622863079104e-11 1.722386308233412e-11 4.3333131691985876e-11 3.785770893133459e-11 1.3483404558679148e-11
          1.8216364578734328e-11 1.4997467456644348e-11 3.2095303705228684e-11 1.1044769806366737e-11 1.4979862214055244e-11 9.085360405743966e-12
          1.2258190269356196e-11 9.536334444796766e-12 1.2315088524770348e-11 1.0091842079981351e-11 2.6631268344621513e-11 2.194100894359989e-11
          2.0669797646320752e-11 4.821498218886639e-11 3.214631426719306e-11 1.0261242661403423e-11 1.3962617265345436e-11 1.2167855511724813e-11
          3.570610103530114e-11 2.915667800535113e-11 2.5585977836013657e-11 2.3577325357833287e-11 1.8945660855381977e-11 1.92052517309238e-11
          2.081260061543487e-11 1.3087307466485133e-11 1.514947443662379e-11 1.2040583351475594e-11 1.2242814897482517e-11 9.498196503312014e-12
          7.438274537777842e-12 7.666926165342592e-12 7.738935628572025e-12 9.973357315673216e-12 7.256800709332063e-12 8.938695157662358e-12
          6.6678962211115525e-12 8.334503486213682e-12 7.601414295630811e-12 1.7862312317390743e-11 1.6360891920373585e-11 1.398661507658835e-11
          1.3690246682203232e-9 1.8946656034282905e-9 8.108461928432125e-10 6.101098272887846e-10 4.4041925698706687e-10 1.2237177685586196e-9
          1.0836555732375244e-9 1.584951338347106e-9 9.500841403999616e-10 8.242107929630464e-10 1.259906990430003e-9 1.717889216873652e-9
          1.5482243949438784e-9 1.7108376077134575e-9 1.3836729974347505e-9 1.2241957729478818e-9 1.3833969385461341e-9 7.071713739554266e-10
          9.608611816419074e-10 1.0712049977086856e-9 1.0765522271629305e-9 1.40857806701021e-10 1.0611544460493022e-10 2.5123526003766896e-10
          7.890598498343596e-11 7.777148999311759e-11 6.636851713665005e-11 5.547682842994216e-11 1.353168962759431e-10 1.1261768589879049e-10
          4.3124965936509366e-10 3.183027176325809e-10 7.015051711632779e-10 2.141229201003926e-10 2.273078783087911e-10 1.842429394357915e-10
          1.5731311163588038e-10 3.6423922214473934e-10 2.87868787372033e-10 5.532437735276955e-11 3.7694579962110955e-11 9.134579887116416e-11
          4.636359207140968e-11 3.862247459105229e-11 3.147883003109397e-11 2.6143692651455712e-11 7.732063198348498e-11 6.500818684150051e-11
          5.1755889314698844e-11 3.001638875958817e-11 1.89069331385926e-11 2.508596509530508e-11 1.5158638685610497e-11 1.972126815798492e-11
          1.6418209167487156e-11 4.780781781174568e-11 4.031531662012548e-11 3.0841151507781614e-11 1.5651881771526627e-11 2.087433978330946e-11
          1.289873041560939e-11 1.727835219125741e-11 1.0362392300401578e-11 1.3609827074964982e-11 1.1219149724725192e-11 3.382794046462522e-11
          2.8214173776684742e-11 2.162380423108773e-11 1.4550376072563412e-10 9.621119166630527e-11 2.2144748730396116e-10 1.2449110687555856e-10
          1.0574001594850034e-10 8.187221360349893e-11 6.919490925505394e-11 1.9163425703286214e-10 1.645613673501279e-10 1.2384970848388272e-10
          7.290846959517628e-11 6.206156847238273e-11 4.624924327606173e-11 3.9148322860585206e-11 1.0619399877637918e-10 9.127078636068108e-11
          6.616902400651287e-11 5.253664590548815e-11 4.4188824333243214e-11 3.29708046319341e-11 2.760082901165815e-11 7.797345140032468e-11
          6.616439977424048e-11 4.797710314528933e-11 1.0464649515042844e-9 7.68782763747018e-10 1.3616659976071301e-9 4.765347864548757e-10
          5.422924955581411e-10 4.203769306052675e-10 3.676788743122253e-10 7.203247692199732e-10 5.546415122944948e-10 1.5117647146769067e-9
          1.1524381235195916e-9 1.532004315150494e-9 7.222901009336276e-10 8.344166351841663e-10 6.467154764907964e-10 5.73939262753306e-10
          8.677610020391103e-10 6.765997149332515e-10 3.16485832963992e-10 2.0320401957753705e-10 4.131155401421519e-10 2.7688807946876676e-10
          2.4029417741408287e-10 1.7640152433416438e-10 1.5198107843173574e-10 3.6457189421933824e-10 3.190558524255073e-10 2.3065151268799943e-10
          1.4607475208114308e-10 1.266999028775797e-10 8.951804779001282e-11 7.706590001855388e-11 1.8623060601020936e-10 1.6272650508809611e-10
          1.1276260112398703e-10 1.0919101491294047e-10 9.344077886074003e-11 6.595879440253554e-11 5.6081810540509216e-11 1.4123460317212505e-10
          1.2169254405592924e-10 8.418326498234789e-11 4.823005224805261e-10 3.082112077807407e-10 5.06170051599621e-10 4.2776939828442346e-10
          3.761915242912133e-10 2.70919160178541e-10 2.3624440232573907e-10 4.496232048614467e-10 3.95994573501195e-10 2.853714601543255e-10
          2.161383507746619e-10 1.8971237052181031e-10 1.3014099264728416e-10 1.1326270475824699e-10 2.2706095951650725e-10 1.9958746465775768e-10
          1.3655491178051373e-10 1.6536765014434048e-10 1.4308002973686089e-10 9.795554110463507e-11 8.413480739781513e-11 1.7421542964648049e-10