<?xml version="1.0"?>
<VTKFile type="UnstructuredGrid" version="0.1" byte_order="LittleEndian" header_type="UInt32" compressor="vtkZLibDataCompressor">
  <UnstructuredGrid>
    <Piece NumberOfPoints="1325" NumberOfCells="965">
      <PointData>
        <DataArray type="Int32" Name="libmesh_node_id" format="ascii" RangeMin="1949" RangeMax="14206">
          1957 2219 2220 2226 3133 3134
          3135 3136 3157 3158 3159 3160
          3161 3162 3163 3164 3165 3166
          4908 4909 4910 4913 4916 4918
          4919 4920 4921 4925 4926 4928
          4929 4930 4931 4934 4935 4940
          5030 5031 5032 5033 5034 5035
          5036 5037 5038 5039 5040 5041
          5042 5043 5044 5045 5046 5047
          5048 5049 5050 5051 5052 5053
          5054 5055 5056 5057 5058 5059
          5060 5061 5062 5063 5064 5065
          5066 5067 5068 5069 5070 5071
          5072 5073 5074 5075 5076 5077
          5078 5079 5080 5081 5082 5083
          5084 5085 5086 5087 5088 5089
          5090 5091 5092 5093 5094 5095
          5096 5097 5098 5099 5100 5181
          5211 5215 5231 5232 5233 5234
          5238 5239 5241 5242 5244 5259
          5260 5264 5266 5268 5279 5280
          5283 5285 5286 5288 5299 5301
          5303 5305 5767 5768 11185 11186
          11187 11188 11189 11190 11191 11192
          11193 11194 11195 11196 11197 11198
          11209 11210 11211 11212 11213 11214
          11215 11216 11217 11218 11219 11220
          11221 11222 11223 11224 11225 11226
          11227 11228 11229 11230 11231 11232
          11233 11234 11235 11236 11237 11238
          11239 11240 11241 11242 11253 11254
          11255 11256 11257 11258 11259 11260
          11261 11262 11831 11832 11834 11837
          11839 11840 11841 11842 11843 11844
          11845 11846 11847 11848 11850 11852
          11854 11856 11857 11858 11859 11860
          11861 11862 11865 11866 11868 11871
          11873 11874 11875 11876 11877 11878
          11879 11880 11881 11882 11884 11886
          11888 11890 11891 11892 11893 11894
          11895 11896 11897 11898 11899 11900
          11901 11902 11903 11904 11905 11906
          11907 11908 11909 11910 11911 11912
          11913 11914 11915 11916 11917 11918
          11919 11920 11921 11922 11923 11924
          11925 11926 11927 11928 11929 11930
          11931 11932 11933 11934 11935 11936
          11937 11938 11939 11940 11941 11942
          11943 11944 11945 11946 11947 11948
          11949 11950 11951 11952 11953 11954
          11955 11956 11957 11958 11959 11960
          11961 11962 11963 11964 11965 11966
          11967 11968 11969 11970 11971 11973
          11975 11977 11979 11980 11981 11982
          11983 11984 11985 11987 11989 11991
          11993 11994 11995 11996 11997 11998
          11999 12000 12001 12002 12004 12006
          12008 12010 12011 12012 12013 12014
          12015 12016 12018 12020 12022 12024
          12025 12026 12027 12028 12029 12030
          12031 12032 12033 12034 12035 12036
          12037 12038 12039 12040 12041 12042
          12043 12044 12045 12046 12047 12048
          12049 12050 12051 12052 12053 12054
          12055 12056 12057 12058 12059 12060
          12061 12062 12063 12064 12065 12066
          12067 12068 12069 12070 12071 12072
          12073 12074 12075 12076 12077 12078
          12079 12080 12081 12082 12083 12084
          12085 12086 12087 12088 12089 12090
          12091 12092 12093 12094 12095 12096
          12097 12098 12101 12102 12104 12107
          12109 12110 12111 12112 12113 12114
          12115 12116 12117 12118 12120 12122
          12124 12126 12127 12128 12129 12130
          12131 12132 12135 12136 12138 12141
          12143 12144 12145 12146 12147 12148
          12149 12150 12151 12152 12154 12156
          12158 12160 12161 12162 12163 12164
          12165 12166 12167 12168 12169 12170
          12171 12172 12173 12174 12175 12176
          12177 12178 12179 12180 12181 12182
          12183 12184 12185 12186 12187 12188
          12189 12190 12191 12192 12193 12194
          12195 12196 12197 12198 12199 12200
          12201 12202 12203 12204 12205 12206
          12207 12208 12209 12210 12211 12212
          12213 12214 12215 12216 12217 12218
          12219 12220 12221 12222 12223 12224
          12225 12226 12227 12228 12229 12230
          12231 12232 12233 12234 12236 12238
          12240 12242 12243 12244 12245 12246
          12247 12248 12250 12252 12254 12256
          12257 12258 12259 12260 12261 12262
          12264 12266 12268 12270 12271 12272
          12273 12274 12275 12276 12278 12280
          12282 12284 12285 12286 12287 12288
          12289 12290 12291 12292 12293 12294
          12295 12296 12297 12298 12299 12300
          12301 12302 12303 12304 12305 12306
          12307 12308 12309 12310 12311 12312
          12313 12314 12315 12316 12317 12318
          12319 12320 12321 12322 12323 12324
          12325 12326 12327 12328 12329 12330
          12331 12332 12333 12334 12335 12336
          12337 12338 12339 12340 12341 12342
          12343 12344 12345 12346 12820 12821
          12826 12828 12829 12830 12831 12835
          12836 12859 12863 12865 12866 12869
          12870 12886 12887 12888 12889 12893
          12894 12896 12897 12898 12899 12903
          12904 12926 12927 12930 12931 12933
          12934 12936 12937 12938 13039 13043
          13045 13046 13049 13050 13067 13071
          13073 13074 13077 13078 13094 13095
          13098 13099 13101 13102 13104 13105
          13106 13122 13123 13126 13127 13129
          13130 13132 13133 13134 13265 13266
          13267 13268 13269 13270 13271 13272
          13273 13274 13275 13276 13277 13278
          13279 13280 13281 13282 13286 13287
          13289 13290 13292 13293 13294 13295
          13296 13297 13298 13299 13300 13301
          13302 13303 13304 13307 13308 13310
          13312 13313 13314 13315 13316 13317
          13318 13319 13320 13321 13322 13323
          13324 13327 13329 13330 13332 13333
          13334 13335 13336 13337 13338 13339
          13340 13342 13344 13346 13412 13413
          13414 13415 13416 13417 13418 13419
          13420 13421 13422 13423 13426 13427
          13429 13431 13432 13433 13434 13435
          13436 13437 13438 13439 13440 13441
          13442 13443 13444 13445 13446 13447
          13448 13449 13451 13452 13453 13454
          13455 13456 13457 13458 13459 13461
          13463 13465 13466 13467 13468 13469
          13470 13471 13472 13473 13475 13477
          13479 13527 13528 13529 13530 13531
          13532 13533 13534 13535 13536 13537
          13538 13541 13543 13544 13546 13547
          13548 13549 13550 13551 13552 13553
          13554 13556 13558 13560 13561 13562
          13563 13564 13565 13566 13567 13568
          13569 13570 13571 13572 13575 13577
          13578 13580 13581 13582 13583 13584
          13585 13586 13587 13588 13590 13592
          13594 13663 13664 13665 13666 13667
          13668 13669 13670 13672 13674 13676
          13677 13678 13679 13680 13681 13682
          13683 13684 13686 13688 13690 13691
          13692 13693 13694 13695 13696 13697
          13698 13700 13702 13704 13705 13706
          13707 13708 13709 13710 13711 13712
          13714 13716 13718 14072 14073 14074
          14075 14076 14077 14078 14079 14080
          14081 14082 14083 14084 14086 14087
          14088 14089 14090 14096 14159 14160
          14161 14163 14164 14165 14166 14170
          14187 14188 14189 14191 14192 14193
          14194 14198 3123 1949 3127 3124
          3125 3128 3129 3126 2218 3130
          3132 3131 4904 4905 4906 4907
          4911 4912 4922 4923 4924 4927
          4932 4933 4936 4938 4937 4939
          4941 5263 3191 5380 5378 5265
          5381 5379 5175 5382 3176 5176
          5383 5179 5769 5770 5771 5772
          5773 5900 5898 5165 5163 5905
          5173 5907 5920 5921 5923 5924
          3184 5235 5926 5927 3185 5939
          5941 5261 5943 5944 5953 11175
          11176 11177 11180 4914 11183 4915
          11201 11202 11205 11207 4917 11245
          11246 11249 11251 11181 11182 11829
          11830 11184 11833 11835 11836 11838
          11206 11849 11208 11851 11853 11855
          11863 11864 11867 11869 11870 11872
          11883 11885 11887 11889 11250 11972
          11252 11974 11976 11978 11271 11270
          11986 11272 11988 11990 11992 12003
          12005 12007 12009 12017 12019 12021
          12023 12099 12100 12103 12105 12106
          12108 12119 12121 12123 12125 12133
          12134 12137 12139 12140 12142 12153
          12155 12157 12159 12235 12237 12239
          12241 12249 12251 12253 12255 12263
          12265 12267 12269 12277 12279 12281
          12283 12818 12819 12822 12824 12823
          12825 5164 12827 12832 12833 12834
          12837 5166 12858 12861 12860 12862
          5170 12864 12867 12868 12871 5171
          12890 12891 12892 12895 5174 12900
          12901 12902 12905 12928 12929 12932
          5180 12935 12939 12924 12923 12948
          12947 12952 12951 13038 13041 13040
          13042 5203 13044 13047 13048 13051
          5204 13066 13069 13068 13070 5207
          13072 13075 13076 13079 5208 13096
          13097 13100 5210 13103 13107 13116
          13115 13120 13119 13124 13125 13128
          5214 13131 13135 13144 13143 13148
          13147 13283 13284 13285 13288 5236
          13291 5237 13305 13306 13309 13311
          5240 13325 13326 13328 3186 13331
          5243 13341 13343 13345 3187 13424
          13425 13428 13430 5262 13450 13460
          13462 13464 5267 13474 13476 13478
          3192 13539 13540 13542 5281 13545
          5282 13555 13557 13559 5284 13573
          13574 13576 3194 13579 5287 13589
          13591 13593 3195 13671 13673 13675
          5300 13685 13687 13689 5302 13699
          13701 13703 5304 13713 13715 13717
          3197 14085 5385 14091 14092 14093
          14094 14095 14097 14098 5386 14099
          14100 14101 14102 14106 14107 14162
          5408 14167 14168 14169 14171 14172
          5409 14173 14174 14177 14178 14190
          5412 14195 14196 14197 14199 14200
          5413 14201 14202 14205 14206
        </DataArray>
        <DataArray type="Float64" Name="bounds" format="ascii" RangeMin="0" RangeMax="0">
          0 0 0 0 0 0
          0 0 0 0 0 0
          0 0 0 0 0 0
          0 0 0 0 0 0
          0 0 0 0 0 0
          0 0 0 0 0 0
          0 0 0 0 0 0
          0 0 0 0 0 0
          0 0 0 0 0 0
          0 0 0 0 0 0
          0 0 0 0 0 0
          0 0 0 0 0 0
          0 0 0 0 0 0
          0 0 0 0 0 0
          0 0 0 0 0 0
          0 0 0 0 0 0
          0 0 0 0 0 0
          0 0 0 0 0 0
          0 0 0 0 0 0
          0 0 0 0 0 0
          0 0 0 0 0 0
          0 0 0 0 0 0
          0 0 0 0 0 0
          0 0 0 0 0 0
          0 0 0 0 0 0
          0 0 0 0 0 0
          0 0 0 0 0 0
          0 0 0 0 0 0
          0 0 0 0 0 0
          0 0 0 0 0 0
          0 0 0 0 0 0
          0 0 0 0 0 0
          0 0 0 0 0 0
          0 0 0 0 0 0
          0 0 0 0 0 0
          0 0 0 0 0 0
          0 0 0 0 0 0
          0 0 0 0 0 0
          0 0 0 0 0 0
          0 0 0 0 0 0
          0 0 0 0 0 0
          0 0 0 0 0 0
          0 0 0 0 0 0
          0 0 0 0 0 0
          0 0 0 0 0 0
          0 0 0 0 0 0
          0 0 0 0 0 0
          0 0 0 0 0 0
          0 0 0 0 0 0
          0 0 0 0 0 0
          0 0 0 0 0 0
          0 0 0 0 0 0
          0 0 0 0 0 0
          0 0 0 0 0 0
          0 0 0 0 0 0
          0 0 0 0 0 0
          0 0 0 0 0 0
          0 0 0 0 0 0
          0 0 0 0 0 0
          0 0 0 0 0 0
          0 0 0 0 0 0
          0 0 0 0 0 0
          0 0 0 0 0 0
          0 0 0 0 0 0
          0 0 0 0 0 0
          0 0 0 0 0 0
          0 0 0 0 0 0
          0 0 0 0 0 0
          0 0 0 0 0 0
          0 0 0 0 0 0
          0 0 0 0 0 0
          0 0 0 0 0 0
          0 0 0 0 0 0
          0 0 0 0 0 0
          0 0 0 0 0 0
          0 0 0 0 0 0
          0 0 0 0 0 0
          0 0 0 0 0 0
          0 0 0 0 0 0
          0 0 0 0 0 0
          0 0 0 0 0 0
          0 0 0 0 0 0
          0 0 0 0 0 0
          0 0 0 0 0 0
          0 0 0 0 0 0
          0 0 0 0 0 0
          0 0 0 0 0 0
          0 0 0 0 0 0
          0 0 0 0 0 0
          0 0 0 0 0 0
          0 0 0 0 0 0
          0 0 0 0 0 0
          0 0 0 0 0 0
          0 0 0 0 0 0
          0 0 0 0 0 0
          0 0 0 0 0 0
          0 0 0 0 0 0
          0 0 0 0 0 0
          0 0 0 0 0 0
          0 0 0 0 0 0
          0 0 0 0 0 0
          0 0 0 0 0 0
          0 0 0 0 0 0
          0 0 0 0 0 0
          0 0 0 0 0 0
          0 0 0 0 0 0
          0 0 0 0 0 0
          0 0 0 0 0 0
          0 0 0 0 0 0
          0 0 0 0 0 0
          0 0 0 0 0 0
          0 0 0 0 0 0
          0 0 0 0 0 0
          0 0 0 0 0 0
          0 0 0 0 0 0
          0 0 0 0 0 0
          0 0 0 0 0 0
          0 0 0 0 0 0
          0 0 0 0 0 0
          0 0 0 0 0 0
          0 0 0 0 0 0
          0 0 0 0 0 0
          0 0 0 0 0 0
          0 0 0 0 0 0
          0 0 0 0 0 0
          0 0 0 0 0 0
          0 0 0 0 0 0
          0 0 0 0 0 0
          0 0 0 0 0 0
          0 0 0 0 0 0
          0 0 0 0 0 0
          0 0 0 0 0 0
          0 0 0 0 0 0
          0 0 0 0 0 0
          0 0 0 0 0 0
          0 0 0 0 0 0
          0 0 0 0 0 0
          0 0 0 0 0 0
          0 0 0 0 0 0
          0 0 0 0 0 0
          0 0 0 0 0 0
          0 0 0 0 0 0
          0 0 0 0 0 0
          0 0 0 0 0 0
          0 0 0 0 0 0
          0 0 0 0 0 0
          0 0 0 0 0 0
          0 0 0 0 0 0
          0 0 0 0 0 0
          0 0 0 0 0 0
          0 0 0 0 0 0
          0 0 0 0 0 0
          0 0 0 0 0 0
          0 0 0 0 0 0
          0 0 0 0 0 0
          0 0 0 0 0 0
          0 0 0 0 0 0
          0 0 0 0 0 0
          0 0 0 0 0 0
          0 0 0 0 0 0
          0 0 0 0 0 0
          0 0 0 0 0 0
          0 0 0 0 0 0
          0 0 0 0 0 0
          0 0 0 0 0 0
          0 0 0 0 0 0
          0 0 0 0 0 0
          0 0 0 0 0 0
          0 0 0 0 0 0
          0 0 0 0 0 0
          0 0 0 0 0 0
          0 0 0 0 0 0
          0 0 0 0 0 0
          0 0 0 0 0 0
          0 0 0 0 0 0
          0 0 0 0 0 0
          0 0 0 0 0 0
          0 0 0 0 0 0
          0 0 0 0 0 0
          0 0 0 0 0 0
          0 0 0 0 0 0
          0 0 0 0 0 0
          0 0 0 0 0 0
          0 0 0 0 0 0
          0 0 0 0 0 0
          0 0 0 0 0 0
          0 0 0 0 0 0
          0 0 0 0 0 0
          0 0 0 0 0 0
          0 0 0 0 0 0
          0 0 0 0 0 0
          0 0 0 0 0 0
          0 0 0 0 0 0
          0 0 0 0 0 0
          0 0 0 0 0 0
          0 0 0 0 0 0
          0 0 0 0 0 0
          0 0 0 0 0 0
          0 0 0 0 0 0
          0 0 0 0 0 0
          0 0 0 0 0 0
          0 0 0 0 0 0
          0 0 0 0 0 0
          0 0 0 0 0 0
          0 0 0 0 0 0
          0 0 0 0 0 0
          0 0 0 0 0 0
          0 0 0 0 0 0
          0 0 0 0 0 0
          0 0 0 0 0 0
          0 0 0 0 0 0
          0 0 0 0 0 0
          0 0 0 0 0 0
          0 0 0 0 0 0
          0 0 0 0 0 0
          0 0 0 0 0 0
          0 0 0 0 0 0
          0 0 0 0 0 0
          0 0 0 0 0 0
          0 0 0 0 0 0
          0 0 0 0 0
        </DataArray>
        <DataArray type="Float64" Name="gradient_error" format="ascii" RangeMin="7.116782843175602e-14" RangeMax="2.613713662805533e-10">
          3.080937085563908e-11 9.16402258998774e-13 3.7423719532912583e-13 1.0211389492727663e-11 1.4882301620908914e-12 1.383465830057184e-12
          7.331867681668864e-13 1.4596862147216038e-12 3.8937512858719635e-11 2.8080300297035282e-11 1.0201562468215943e-11 7.333140029694775e-12
          1.0650754637219104e-11 2.7569150232302684e-12 1.0534368735036429e-10 8.590573078977796e-11 2.4341184694130047e-11 3.7579378708418205e-11
          1.0028312051402398e-12 7.272578913480106e-13 6.873993818353325e-13 8.738969067581797e-13 1.3940672726303309e-12 4.915972764367137e-13
          4.631667070410698e-13 7.521001443618791e-13 7.12183561756012e-13 3.9157070405522773e-13 9.00689139464298e-13 1.0898091153486708e-12
          1.0264368915387772e-12 8.658843991657788e-13 1.123047462456242e-12 6.13912043283835e-13 1.3312577412466046e-12 1.627092712039319e-12
          1.4855284775531202e-11 1.3816969115840241e-11 7.871894599407328e-12 7.319279809848217e-12 1.1128140533729573e-11 5.886972635792028e-12
          7.173222927707261e-11 6.613405734994303e-11 3.587678277938196e-11 5.1851724026401835e-11 4.0244992770307216e-12 3.7404833659135e-12
          1.9840395993123438e-12 1.843602189790106e-12 3.0055160094360354e-12 1.4800708415897932e-12 2.0323609612452325e-11 1.8717385834745596e-11
          9.391830998218325e-12 1.463031664079475e-11 7.77501602773611e-12 4.10496832992365e-12 4.730426947684379e-12 2.4906578043889005e-12
          3.4633577217802915e-11 1.8706933021204965e-11 1.9784821682033892e-11 1.1090100965012819e-12 2.0920184225557997e-12 5.569933792757881e-13
          1.0289716783730416e-12 7.572846088318938e-13 1.2667364197965096e-12 6.210819854564892e-13 9.726244207970452e-12 4.866763130265057e-12
          5.522266230508913e-12 1.9762501213633672e-10 1.8283081360666103e-10 1.1051503658358872e-10 1.0206136165987251e-10 1.443446471612377e-10
          8.01997311264682e-11 1.8111298493086835e-10 1.743450137033838e-10 1.0075158888507276e-10 1.5081158253749352e-10 5.908521219293866e-11
          5.4493292023084037e-11 3.02448925023099e-11 2.7866556262455932e-11 4.266941784500411e-11 2.176183729872847e-11 5.832463492836579e-11
          5.548690809792656e-11 2.918061299025709e-11 4.6750202403801225e-11 9.662880531693832e-11 5.335267503189483e-11 5.4579238200892166e-11
          2.993915663305801e-11 1.1119912429445293e-10 6.240640461514576e-11 6.779286896625469e-11 2.8251535321629135e-11 1.4356024162517128e-11
          1.577365863347139e-11 7.983035643718524e-12 3.3541512230187564e-11 1.7281844500399185e-11 1.999230503507625e-11 1.341098260529196e-12
          3.748593067739318e-12 4.993157322068506e-12 4.5147032269972167e-13 4.256433285871867e-13 9.431558190372306e-13 8.762361025031333e-13
          3.569728263187719e-13 7.02984368005975e-13 4.9243572192915465e-12 4.5320974957077536e-12 3.5354697471807265e-12 2.6574591069131387e-13
          4.874900021238639e-13 3.45749490197388e-13 2.34315452328229e-12 1.3240226864634982e-12 1.4839509978595298e-11 1.36619603606274e-11
          1.0646568395956387e-11 1.5554939950563026e-11 1.46777010981022e-11 1.2139562931330827e-11 7.002781212527424e-12 3.881059994685474e-12
          8.5410959659705e-12 5.008208945464236e-12 3.2431655178287654e-13 9.859922250711912e-13 5.421139800583103e-13 5.331478921161412e-13
          9.00158013380525e-13 8.86107484409928e-13 3.8598962105853814e-13 6.407122491342933e-13 6.302770569512237e-13 5.126015800069197e-13
          8.471108769385656e-13 6.035842728964064e-13 2.0797669671372723e-12 2.046504022562917e-12 1.4644610474230856e-12 1.9487115186997326e-12
          4.912740319357855e-13 7.841849430473717e-13 3.7337850902508505e-13 5.582289479243768e-13 4.68124342105277e-13 7.022611831754923e-13
          5.328298916906052e-13 1.7942668371471454e-12 1.2766221699614104e-12 1.5957916067282165e-12 3.056437675569923e-13 3.000855587846929e-13
          4.490482940104184e-13 4.4183307947227255e-13 2.726489159311336e-13 3.671092869847897e-13 3.614207508628742e-13 2.88389923047879e-13
          4.232960784402342e-13 3.45899834924652e-13 1.0503165708839953e-12 1.0336980829213142e-12 8.568742318558077e-13 9.84015327995997e-13
          2.926412960613592e-13 3.9419902897809147e-13 2.5971556455800314e-13 3.2547991797410266e-13 3.0303009603935394e-13 3.764237660098413e-13
          3.148923808398599e-13 8.971595105361244e-13 7.44126398398911e-13 9.229213875465615e-13 4.517270082429821e-13 6.101666234452101e-13
          4.0147036078936486e-13 5.057528449465365e-13 4.4873204030711396e-13 5.620159681963784e-13 4.712784444694473e-13 1.3636404274404971e-12
          1.144975659851902e-12 1.3188181182147765e-12 6.552326717348092e-12 6.4415614580782975e-12 6.121160717267711e-12 1.4588364281872383e-11
          4.7654383960056654e-12 4.684589859935031e-12 3.439454348181781e-12 3.380946112704069e-12 4.450502650238892e-12 3.210726661875965e-12
          1.0860632877057902e-11 1.0665014473136789e-11 7.729745403698335e-12 1.0099951306211432e-11 5.624404420123197e-12 4.997026814641139e-12
          1.2623461458158034e-11 4.0922556477020346e-12 2.953406532132498e-12 3.641640450612125e-12 2.63125392358138e-12 9.225555998073314e-12
          6.683728798643322e-12 8.129759041063503e-12 3.335320077867255e-11 3.2715274726293746e-11 3.087522991562203e-11 7.028928569935797e-11
          2.4528371856390484e-11 2.40580028625342e-11 1.787351126560016e-11 1.7529925931904245e-11 2.2701367961739993e-11 1.653902261677562e-11
          5.3110276460330214e-11 5.203758593314254e-11 3.8148353821707745e-11 4.8949281774412785e-11 2.804000833490886e-11 2.4510839557613056e-11
          5.975300282533799e-11 2.0611432064285036e-11 1.5012839383592707e-11 1.8010797129705567e-11 1.311430948138065e-11 4.4208796416502827e-11
          3.239124250994351e-11 3.8342678409442566e-11 2.46896073264466e-12 2.4270005778878454e-12 1.7546444318583681e-12 1.7249407620658741e-12
          2.304046301321893e-12 1.6371597326234673e-12 5.654438526317954e-12 5.5520719483128505e-12 3.951466190466097e-12 5.256411636917515e-12
          7.412173516302386e-13 7.293942670774061e-13 1.2253725673361077e-12 1.2045577630276887e-12 4.940098215067857e-13 8.463152150559761e-13
          8.318081923740377e-13 6.930002842192282e-13 1.143245626919409e-12 7.896402958697213e-13 2.8387500331443296e-12 2.7871527746671453e-12
          1.947943235372608e-12 2.638056433264891e-12 2.1148922701410633e-12 1.499019323394271e-12 1.8770597784059355e-12 1.3248932446259953e-12
          4.798853830679453e-12 3.4141923097885817e-12 4.225495288236393e-12 6.341636880470447e-13 1.0469178074693665e-12 4.319140865701239e-13
          7.240788763028092e-13 5.601391193234836e-13 9.256922602689791e-13 6.415511017035032e-13 2.407421676155047e-12 1.6821671131874404e-12
          2.1186246670580798e-12 1.2904624508602135e-11 1.2655991572005608e-11 9.231153880981876e-12 9.05292416208849e-12 1.1939011216008632e-11
          8.53901600891172e-12 2.8268682427347562e-11 2.7694042948547212e-11 1.9909384312391772e-11 2.6040211405789257e-11 6.542110562435545e-12
          6.415552802278841e-12 4.593276490258572e-12 4.50425787238942e-12 6.050664720075764e-12 4.2476201899307895e-12 1.4469555396972564e-11
          1.4173951019143017e-11 9.992709816236279e-12 1.3323400427051952e-11 1.083489029114622e-11 7.747727247003353e-12 9.461738782072402e-12
          6.763869655061572e-12 2.350330233947876e-11 1.6889385799011002e-11 2.036697976359999e-11 5.488927460861977e-12 3.852589910791977e-12
          4.7906530187332855e-12 3.3616590457820262e-12 1.2019321618883286e-11 8.4707358049915e-12 1.0408246673676612e-11 4.302751937324814e-12
          3.5886761761236544e-12 9.467014501774334e-12 3.1324545268088067e-12 2.258368425602745e-12 2.6023306925929093e-12 1.867335341173346e-12
          6.913151612605311e-12 5.003480658548756e-12 5.6746171592155815e-12 2.8857462884624862e-12 2.238578502013986e-12 6.1684451320784766e-12
          1.318421867465765e-12 2.0854032233832256e-12 9.327042665009683e-13 1.493105121891266e-12 1.0216042237671794e-12 1.615134162457479e-12
          1.15654949654334e-12 4.498911665345169e-12 3.2524409076733736e-12 3.4473250845438003e-12 2.0630279077366407e-11 1.6727202607001603e-11
          4.322657685417937e-11 1.515234103366016e-11 1.1028266228276578e-11 1.2278738978315986e-11 8.932135199458037e-12 3.194415038029908e-11
          2.338111519658076e-11 2.557503426560923e-11 1.3072922168401765e-11 9.85564708055976e-12 2.6683870792445874e-11 9.590001096947296e-12
          6.9719791670046845e-12 7.22444595672984e-12 5.248511688795018e-12 1.9688188240516637e-11 1.4390140067970546e-11 1.4584354907480624e-11
          9.92924637121579e-13 1.605970060822517e-12 6.904312411547275e-13 1.1310920946072913e-12 8.184288653926798e-13 1.3262181857459592e-12
          9.344522741888523e-13 3.5897151417797047e-12 2.5523711920409754e-12 2.9434429566605224e-12 4.789124040036869e-13 7.911988864218171e-13
          3.3116158232899883e-13 5.495926405969377e-13 3.975335983238979e-13 6.545319992012002e-13 4.554214207248842e-13 1.798626475476324e-12
          1.2561918793386116e-12 1.473778674794893e-12 6.568944800616064e-13 1.0613289881507596e-12 4.610618818694446e-13 7.492620725391318e-13
          5.129151032814398e-13 8.234395781021962e-13 5.824941776215145e-13 2.3308633277678844e-12 1.6558971451817034e-12 1.784013595865163e-12
          3.220693722952187e-13 5.25076855673988e-13 2.2478437392231799e-13 3.6524574719015127e-13 2.5416839151631664e-13 4.0826336261977684e-13
          2.837883800494747e-13 1.166125410602615e-12 8.137636952674685e-13 8.913304950663639e-13 7.953554766582218e-12 5.6836441597563645e-12
          6.438768599705214e-12 4.599146691388199e-12 1.6950038418078517e-11 1.2170282378024679e-11 1.3553424380272809e-11 4.024211840203314e-12
          2.8229587888367728e-12 3.255064877264357e-12 2.2826270924176197e-12 8.654587236342502e-12 6.095335961641984e-12 6.913206313866109e-12
          5.022955975408901e-12 3.5859844946681168e-12 3.77885654845423e-12 2.6962578372022982e-12 1.0418729767877987e-11 7.472078140711824e-12
          7.705411034737276e-12 2.5368526463657835e-12 1.7785327563578553e-12 1.9063387826384675e-12 1.3359059788619928e-12 5.308016461707701e-12
          3.734862196438569e-12 3.920422806883492e-12 1.355064777878325e-10 1.3273705980302703e-10 1.2475995326930194e-10 1.9382775936808314e-10
          1.0107468044231238e-10 9.89951707627356e-11 7.459395270883185e-11 7.305055981729546e-11 9.300791504270128e-11 6.860841770369234e-11
          1.4863538770422954e-10 1.4574391680685753e-10 1.0834253698282169e-10 1.3737769239946093e-10 1.1250582366028065e-10 9.733162518234014e-11
          1.6576585919399803e-10 8.381814028285697e-11 6.179486832224069e-11 7.245153370353605e-11 5.3375622000941564e-11 1.2441723969459373e-10
          9.234478732324897e-11 1.0818629431790155e-10 2.0135896895250625e-10 1.9853394690526132e-10 1.9007324244711156e-10 1.7950605333702094e-10
          1.5319274200794446e-10 1.5096093053271995e-10 1.1513360819249884e-10 1.1340074995386775e-10 1.443048110828399e-10 1.0825151848829427e-10
          1.3900853943449886e-10 1.3765041264115378e-10 1.0422873361308524e-10 1.3335953965134054e-10 1.761601542731356e-10 1.5743382386640677e-10
          1.649175948585555e-10 1.3343586255823417e-10 9.989446741041936e-11 1.18925863901677e-10 8.881623674445426e-11 1.2570075906768133e-10
          9.46614810799998e-11 1.1448702164503561e-10 5.4474744320954445e-11 5.334215222511584e-11 3.937000605788824e-11 3.8548127442754255e-11
          5.00834079338476e-11 3.6183991524148955e-11 8.125451563195136e-11 7.964278565046195e-11 5.790409366975694e-11 7.498588797610121e-11
          2.8161656380970157e-11 2.757171766782889e-11 1.993893294433774e-11 1.951998888832707e-11 2.5875109894121838e-11 1.8315358102280072e-11
          4.2500154730856264e-11 4.164490495100018e-11 2.963274284535696e-11 3.9176317048726063e-11 4.5088057029795064e-11 3.256175874213127e-11
          3.8920679785586453e-11 2.8092705070520366e-11 6.779067436105643e-11 4.922894685233694e-11 5.881214120404149e-11 2.327668405657806e-11
          1.6471043345829092e-11 2.0072613679689564e-11 1.4197948258273942e-11 3.5369646482811144e-11 2.5145112490209243e-11 3.0632242788399255e-11
          8.551068301734198e-11 8.418692102120981e-11 6.277846128808549e-11 6.178204366060473e-11 8.026527255173103e-11 5.883799346277256e-11
          7.885457166654855e-11 7.79625141321114e-11 5.7625968654910684e-11 7.520862554604298e-11 4.5567489510989526e-11 4.4828108500233516e-11
          3.27078014543536e-11 3.21665934855653e-11 4.26486335130406e-11 3.057454514785164e-11 4.263512036988611e-11 4.209846171003979e-11
          3.0404495261873184e-11 4.04667594060102e-11 7.393322155580048e-11 5.4105956544605886e-11 6.558980433472638e-11 4.7904490783824126e-11
          7.045789897215891e-11 5.184330633009323e-11 6.372985948649694e-11 3.915961904876649e-11 2.803491849770254e-11 3.460903936192205e-11
          2.473660755037354e-11 3.7717353503605784e-11 2.7137316357906353e-11 3.3917629263636387e-11 8.077847696424543e-11 6.431807473697791e-11
          1.206100144522373e-10 6.006915988120708e-11 4.421509197316294e-11 4.7775444239498406e-11 3.5132338983648325e-11 9.025115236104074e-11
          6.680988123243884e-11 7.218125223545459e-11 4.914512753993897e-11 3.6054742982135696e-11 7.418956832978077e-11 3.646202884781338e-11
          2.6785354856354787e-11 2.6717313359634377e-11 1.9605554835249407e-11 5.532167852719283e-11 4.0828287862521345e-11 4.062847474624392e-11
          1.35161926747885e-10 1.1114081151440912e-10 1.3245342787345e-10 1.0180698677391825e-10 7.583516838849619e-11 8.347492058234846e-11
          6.201938898463915e-11 1.0014630110706478e-10 7.487239003071419e-11 8.376048443567336e-11 8.735410335798532e-11 6.555871073788411e-11
          8.898706182568013e-11 6.543076186234325e-11 4.8494093308940846e-11 4.898193124794433e-11 3.622158595654676e-11 6.680041132739928e-11
          4.9614622965551686e-11 5.073573575322818e-11 3.2217030854777585e-11 2.3239068041778082e-11 2.5577631409862077e-11 1.8436390501357494e-11
          4.893304563341587e-11 3.5464286918869065e-11 3.9025548245346076e-11 1.6595242638820717e-11 1.1732427133678736e-11 1.315707814153089e-11
          9.296342086458526e-12 2.5436083080462025e-11 1.8055540450425526e-11 2.0242480518483066e-11 1.948308703906701e-11 1.4032150802441908e-11
          1.424686012334053e-11 1.0251961192388003e-11 2.982447794421958e-11 2.1565197250788207e-11 2.1840887796454482e-11 1.0006791338177237e-11