<?xml version="1.0"?>
<VTKFile type="UnstructuredGrid" version="0.1" byte_order="LittleEndian" header_type="UInt32" compressor="vtkZLibDataCompressor">
  <UnstructuredGrid>
    <Piece NumberOfPoints="1443" NumberOfCells="963">
      <PointData>
        <DataArray type="Int32" Name="libmesh_node_id" format="ascii" RangeMin="1597" RangeMax="14603">
          1597 1599 1630 1631 1656 1657
          1703 1734 1735 1760 1761 1807
          1839 1864 1865 1948 1950 1954
          1955 1956 1958 1960 2009 2010
          2011 2012 2013 2014 2015 2016
          2017 2018 2215 2218 2221 2222
          2223 2227 2242 2243 2244 2245
          2246 2247 2248 2249 2250 2251
          2289 2294 2393 2396 2397 2398
          2399 3118 3130 3131 3132 3137
          3138 3139 3140 3141 3142 3143
          3144 3145 3146 3167 3168 3169
          3170 3171 3172 3173 3174 3175
          3176 3177 3178 3179 3180 3181
          3182 3183 3232 3233 3234 3235
          3236 3237 3238 3239 3240 3241
          3242 3243 3244 3245 3246 3247
          3248 3249 3250 3251 3330 3331
          3332 3333 3334 3335 3336 3524
          3525 3526 3527 3528 3529 3530
          3558 3559 3560 3561 3562 3563
          3564 4900 4936 4937 4938 4946
          4947 4948 4951 4954 4955 4956
          4957 4958 4960 4961 5103 5104
          5107 5109 5110 5111 5112 5113
          5114 5115 5116 5117 5118 5119
          5120 5121 5122 5123 5124 5125
          5126 5127 5128 5129 5130 5131
          5132 5133 5134 5137 5138 5141
          5142 5143 5144 5145 5146 5147
          5148 5149 5150 5151 5152 5153
          5154 5155 5156 5157 5158 5159
          5160 5161 5162 5163 5164 5165
          5166 5167 5168 5169 5170 5171
          5172 5173 5174 5175 5176 5177
          5178 5179 5180 5182 5183 5184
          5185 5186 5187 5188 5189 5190
          5191 5192 5193 5194 5195 5196
          5197 5198 5199 5200 5201 5202
          5203 5204 5205 5206 5207 5208
          5209 5210 5212 5213 5214 5216
          5217 5218 5219 5220 5221 5222
          5223 5224 5225 5226 5227 5228
          5229 5230 5449 5450 5451 5452
          5453 5454 5455 5456 5457 5458
          5459 5460 5461 5462 5463 5464
          5465 5466 5467 5468 5469 5470
          5471 5472 5473 5474 5475 5476
          5477 5478 5479 5480 5481 5482
          5483 5484 5485 5486 5487 5488
          5489 5490 5491 5492 5493 5494
          5495 5496 5497 5498 5499 5500
          5501 5502 5570 5571 5572 5573
          5574 5575 5576 5577 5578 5579
          5604 5605 5606 5607 5608 5609
          5610 5611 5612 5613 5614 5615
          5616 5617 5618 5619 5620 5771
          5772 5773 5774 5775 5776 5777
          5778 5779 5780 5781 5782 5783
          5784 5785 5786 5787 5839 5840
          5841 5842 5843 5844 5845 5846
          5847 5848 5849 5850 5851 5852
          5853 5854 5855 5856 5857 5858
          5859 5860 5861 5862 5863 5864
          5865 5866 5867 5868 5869 5870
          5871 5872 5897 5898 5899 5900
          5901 5902 5903 5904 5905 5906
          5907 5908 5909 5910 5911 5912
          5913 5914 5915 5916 5917 11302
          11312 12363 12364 12367 12370 12371
          12374 12391 12392 12395 12398 12399
          12402 12412 12413 12416 12419 12420
          12421 12422 12423 12425 12426 12427
          12428 12429 12430 12431 12432 12433
          12434 12435 12436 12446 12447 12450
          12452 12453 12454 12456 12457 12458
          12459 12460 12461 12462 12463 12464
          12465 12466 12467 12468 12469 12470
          12471 12472 12473 12474 12475 12476
          12477 12478 12479 12480 12481 12482
          12483 12484 12485 12486 12487 12488
          12489 12490 12491 12492 12493 12494
          12495 12496 12497 12498 12499 12500
          12501 12502 12503 12504 12505 12506
          12507 12508 12509 12510 12511 12512
          12513 12514 12515 12516 12517 12518
          12519 12520 12521 12522 12523 12524
          12525 12526 12527 12528 12529 12530
          12531 12532 12533 12534 12535 12536
          12537 12538 12539 12540 12541 12542
          12543 12544 12545 12546 12547 12548
          12549 12550 12551 12552 12553 12554
          12555 12556 12557 12558 12559 12560
          12561 12562 12563 12564 12565 12566
          12567 12568 12569 12570 12571 12572
          12573 12574 12575 12576 12577 12578
          12579 12580 12581 12582 12583 12584
          12585 12586 12587 12588 12589 12590
          12591 12592 12593 12610 12611 12614
          12617 12618 12621 12638 12639 12642
          12645 12646 12649 12652 12653 12656
          12659 12660 12663 12664 12665 12666
          12667 12668 12669 12670 12671 12672
          12673 12674 12675 12676 12677 12680
          12681 12684 12687 12688 12691 12692
          12693 12694 12695 12696 12697 12698
          12699 12700 12701 12702 12703 12704
          12705 12706 12707 12708 12709 12710
          12711 12712 12713 12714 12715 12716
          12717 12718 12719 12720 12721 12722
          12723 12724 12725 12726 12727 12728
          12729 12730 12731 12732 12733 12734
          12735 12736 12737 12738 12739 12740
          12741 12742 12743 12744 12745 12746
          12747 12748 12749 12750 12751 12752
          12753 12754 12755 12756 12757 12758
          12759 12760 12761 12762 12763 12764
          12765 12766 12767 12768 12769 12770
          12771 12772 12773 12774 12775 12776
          12777 12778 12779 12780 12781 12782
          12783 12784 12785 12786 12787 12788
          12789 12790 12791 12792 12793 12794
          12795 12796 12797 12798 12799 12800
          12801 12802 12803 12804 12805 12806
          12807 12808 12809 12810 12811 12812
          12813 12814 12815 12816 12817 12822
          12823 12824 12827 12832 12833 12834
          12837 12838 12839 12840 12841 12842
          12843 12844 12845 12846 12847 12848
          12849 12850 12851 12852 12853 12854
          12855 12856 12857 12860 12861 12864
          12867 12868 12871 12872 12873 12874
          12875 12876 12877 12878 12879 12880
          12881 12882 12883 12884 12885 12890
          12891 12892 12895 12900 12901 12902
          12905 12906 12907 12908 12909 12910
          12911 12912 12913 12914 12915 12916
          12917 12918 12919 12920 12921 12922
          12923 12924 12925 12928 12929 12932
          12935 12939 12940 12941 12942 12943
          12944 12945 12946 12947 12948 12949
          12950 12951 12952 12953 12954 12955
          12956 12957 12958 12959 12960 12961
          12962 12963 12964 12965 12966 12967
          12968 12969 12970 12971 12972 12973
          12974 12975 12976 12977 12978 12979
          12980 12981 12982 12983 12984 12985
          12986 12987 12988 12989 12990 12991
          12992 12993 12994 12995 12996 12997
          12998 12999 13000 13001 13002 13003
          13004 13005 13006 13007 13008 13009
          13010 13011 13012 13013 13014 13015
          13016 13017 13018 13019 13020 13021
          13022 13023 13024 13025 13026 13027
          13028 13029 13030 13031 13032 13033
          13034 13035 13036 13037 13040 13041
          13044 13047 13048 13051 13052 13053
          13054 13055 13056 13057 13058 13059
          13060 13061 13062 13063 13064 13065
          13068 13069 13072 13075 13076 13079
          13080 13081 13082 13083 13084 13085
          13086 13087 13088 13089 13090 13091
          13092 13093 13096 13097 13100 13103
          13107 13108 13109 13110 13111 13112
          13113 13114 13115 13116 13117 13118
          13119 13120 13121 13124 13125 13128
          13131 13135 13136 13137 13138 13139
          13140 13141 13142 13143 13144 13145
          13146 13147 13148 13149 13150 13151
          13152 13153 13154 13155 13156 13157
          13158 13159 13160 13161 13162 13163
          13164 13165 13166 13167 13168 13169
          13170 13171 13172 13173 13174 13175
          13176 13177 13178 13179 13180 13181
          13182 13183 13184 13185 13186 13187
          13188 13189 13190 13191 13192 13193
          13194 13195 13196 13197 13198 13199
          13200 13201 13202 13203 13204 13205
          13206 13207 13208 13209 13210 13211
          13212 13213 13214 13215 13216 13217
          13218 13219 13220 13221 13222 13223
          13224 13225 13226 13227 13228 13229
          13230 13231 13232 13233 13234 13235
          13236 13237 13238 13239 13240 13241
          13242 13243 13244 13245 13246 13247
          13248 13249 13250 13251 13252 13253
          13254 13255 13256 13257 13258 13259
          13260 13261 13262 13263 13264 14403
          14404 14405 14406 14407 14408 14409
          14410 14411 14412 14413 14414 14415
          14416 14417 14418 14419 14420 14421
          14422 14423 14424 14425 14426 14427
          14428 14429 14430 14431 14432 14433
          14434 14435 14436 14437 14438 14439
          14440 14441 14442 14443 14444 14445
          14446 14447 14448 14449 14450 14451
          14452 14453 14454 14455 14456 14457
          14458 14459 14460 14461 14462 14463
          14464 14465 14466 14467 14468 14469
          14470 14471 14472 14473 14474 14475
          14476 14477 14478 14479 14480 14481
          14482 14483 14484 14485 14486 14487
          14488 14489 14490 14491 14492 14493
          14494 14495 14496 14497 14498 14499
          14500 14501 14502 14503 14504 14505
          14506 14507 14508 14509 14510 14511
          14512 14513 14514 14515 14516 14517
          14518 14519 14520 14521 14522 14523
          14524 14525 14526 14527 14528 14529
          14530 14531 14532 14533 14534 14535
          14536 14537 14538 14539 14540 14541
          14542 14543 14544 14545 14546 14547
          14548 14549 14550 14551 14552 14553
          14554 14555 14556 14557 14558 14559
          14560 14561 14562 14563 14564 14565
          14566 14567 14568 14569 14570 14571
          14572 14573 14574 14575 14576 14577
          14578 14579 14580 14581 14582 14583
          14584 14585 14586 14587 14588 14589
          14590 14591 14592 14593 14594 14595
          14596 14597 14598 14599 14600 14601
          14602 14603 1701 1838 2001 1942
          2002 2005 2007 2206 2207 2210
          2282 2285 1937 3033 1939 3034
          3037 3101 3102 3105 3315 2389
          3316 3319 3499 3500 3503 2189
          4824 4688 4825 4828 4830 3363
          3364 3367 1805 3369 3516 3517
          3520 2212 3522 5721 4455 5722
          5725 3039 4684 5758 4842 5761
          5763 3107 5765 10185 10076 10186
          10189 4671 10191 4685 10205 10206
          10209 10211 10104 10221 10223 3069
          10225 4690 10235 10237 10239 3071
          10321 10417 10419 4702 10421 4714
          10431 10433 10435 4716 10349 10445
          10447 3073 10449 4718 10459 10461
          10463 1945 10842 10843 10846 10848
          10924 10926 10928 4840 10939 10940
          10943 10945 10955 10957 10959 4844
          10969 10971 10973
        </DataArray>
        <DataArray type="Float64" Name="bounds" format="ascii" RangeMin="0" RangeMax="0">
          0 0 0 0 0 0
          0 0 0 0 0 0
          0 0 0 0 0 0
          0 0 0 0 0 0
          0 0 0 0 0 0
          0 0 0 0 0 0
          0 0 0 0 0 0
          0 0 0 0 0 0
          0 0 0 0 0 0
          0 0 0 0 0 0
          0 0 0 0 0 0
          0 0 0 0 0 0
          0 0 0 0 0 0
          0 0 0 0 0 0
          0 0 0 0 0 0
          0 0 0 0 0 0
          0 0 0 0 0 0
          0 0 0 0 0 0
          0 0 0 0 0 0
          0 0 0 0 0 0
          0 0 0 0 0 0
          0 0 0 0 0 0
          0 0 0 0 0 0
          0 0 0 0 0 0
          0 0 0 0 0 0
          0 0 0 0 0 0
          0 0 0 0 0 0
          0 0 0 0 0 0
          0 0 0 0 0 0
          0 0 0 0 0 0
          0 0 0 0 0 0
          0 0 0 0 0 0
          0 0 0 0 0 0
          0 0 0 0 0 0
          0 0 0 0 0 0
          0 0 0 0 0 0
          0 0 0 0 0 0
          0 0 0 0 0 0
          0 0 0 0 0 0
          0 0 0 0 0 0
          0 0 0 0 0 0
          0 0 0 0 0 0
          0 0 0 0 0 0
          0 0 0 0 0 0
          0 0 0 0 0 0
          0 0 0 0 0 0
          0 0 0 0 0 0
          0 0 0 0 0 0
          0 0 0 0 0 0
          0 0 0 0 0 0
          0 0 0 0 0 0
          0 0 0 0 0 0
          0 0 0 0 0 0
          0 0 0 0 0 0
          0 0 0 0 0 0
          0 0 0 0 0 0
          0 0 0 0 0 0
          0 0 0 0 0 0
          0 0 0 0 0 0
          0 0 0 0 0 0
          0 0 0 0 0 0
          0 0 0 0 0 0
          0 0 0 0 0 0
          0 0 0 0 0 0
          0 0 0 0 0 0
          0 0 0 0 0 0
          0 0 0 0 0 0
          0 0 0 0 0 0
          0 0 0 0 0 0
          0 0 0 0 0 0
          0 0 0 0 0 0
          0 0 0 0 0 0
          0 0 0 0 0 0
          0 0 0 0 0 0
          0 0 0 0 0 0
          0 0 0 0 0 0
          0 0 0 0 0 0
          0 0 0 0 0 0
          0 0 0 0 0 0
          0 0 0 0 0 0
          0 0 0 0 0 0
          0 0 0 0 0 0
          0 0 0 0 0 0
          0 0 0 0 0 0
          0 0 0 0 0 0
          0 0 0 0 0 0
          0 0 0 0 0 0
          0 0 0 0 0 0
          0 0 0 0 0 0
          0 0 0 0 0 0
          0 0 0 0 0 0
          0 0 0 0 0 0
          0 0 0 0 0 0
          0 0 0 0 0 0
          0 0 0 0 0 0
          0 0 0 0 0 0
          0 0 0 0 0 0
          0 0 0 0 0 0
          0 0 0 0 0 0
          0 0 0 0 0 0
          0 0 0 0 0 0
          0 0 0 0 0 0
          0 0 0 0 0 0
          0 0 0 0 0 0
          0 0 0 0 0 0
          0 0 0 0 0 0
          0 0 0 0 0 0
          0 0 0 0 0 0
          0 0 0 0 0 0
          0 0 0 0 0 0
          0 0 0 0 0 0
          0 0 0 0 0 0
          0 0 0 0 0 0
          0 0 0 0 0 0
          0 0 0 0 0 0
          0 0 0 0 0 0
          0 0 0 0 0 0
          0 0 0 0 0 0
          0 0 0 0 0 0
          0 0 0 0 0 0
          0 0 0 0 0 0
          0 0 0 0 0 0
          0 0 0 0 0 0
          0 0 0 0 0 0
          0 0 0 0 0 0
          0 0 0 0 0 0
          0 0 0 0 0 0
          0 0 0 0 0 0
          0 0 0 0 0 0
          0 0 0 0 0 0
          0 0 0 0 0 0
          0 0 0 0 0 0
          0 0 0 0 0 0
          0 0 0 0 0 0
          0 0 0 0 0 0
          0 0 0 0 0 0
          0 0 0 0 0 0
          0 0 0 0 0 0
          0 0 0 0 0 0
          0 0 0 0 0 0
          0 0 0 0 0 0
          0 0 0 0 0 0
          0 0 0 0 0 0
          0 0 0 0 0 0
          0 0 0 0 0 0
          0 0 0 0 0 0
          0 0 0 0 0 0
          0 0 0 0 0 0
          0 0 0 0 0 0
          0 0 0 0 0 0
          0 0 0 0 0 0
          0 0 0 0 0 0
          0 0 0 0 0 0
          0 0 0 0 0 0
          0 0 0 0 0 0
          0 0 0 0 0 0
          0 0 0 0 0 0
          0 0 0 0 0 0
          0 0 0 0 0 0
          0 0 0 0 0 0
          0 0 0 0 0 0
          0 0 0 0 0 0
          0 0 0 0 0 0
          0 0 0 0 0 0
          0 0 0 0 0 0
          0 0 0 0 0 0
          0 0 0 0 0 0
          0 0 0 0 0 0
          0 0 0 0 0 0
          0 0 0 0 0 0
          0 0 0 0 0 0
          0 0 0 0 0 0
          0 0 0 0 0 0
          0 0 0 0 0 0
          0 0 0 0 0 0
          0 0 0 0 0 0
          0 0 0 0 0 0
          0 0 0 0 0 0
          0 0 0 0 0 0
          0 0 0 0 0 0
          0 0 0 0 0 0
          0 0 0 0 0 0
          0 0 0 0 0 0
          0 0 0 0 0 0
          0 0 0 0 0 0
          0 0 0 0 0 0
          0 0 0 0 0 0
          0 0 0 0 0 0
          0 0 0 0 0 0
          0 0 0 0 0 0
          0 0 0 0 0 0
          0 0 0 0 0 0
          0 0 0 0 0 0
          0 0 0 0 0 0
          0 0 0 0 0 0
          0 0 0 0 0 0
          0 0 0 0 0 0
          0 0 0 0 0 0
          0 0 0 0 0 0
          0 0 0 0 0 0
          0 0 0 0 0 0
          0 0 0 0 0 0
          0 0 0 0 0 0
          0 0 0 0 0 0
          0 0 0 0 0 0
          0 0 0 0 0 0
          0 0 0 0 0 0
          0 0 0 0 0 0
          0 0 0 0 0 0
          0 0 0 0 0 0
          0 0 0 0 0 0
          0 0 0 0 0 0
          0 0 0 0 0 0
          0 0 0 0 0 0
          0 0 0 0 0 0
          0 0 0 0 0 0
          0 0 0 0 0 0
          0 0 0 0 0 0
          0 0 0 0 0 0
          0 0 0 0 0 0
          0 0 0 0 0 0
          0 0 0 0 0 0
          0 0 0 0 0 0
          0 0 0 0 0 0
          0 0 0 0 0 0
          0 0 0 0 0 0
          0 0 0 0 0 0
          0 0 0 0 0 0
          0 0 0 0 0 0
          0 0 0 0 0 0
          0 0 0 0 0 0
          0 0 0 0 0 0
          0 0 0 0 0 0
          0 0 0 0 0 0
          0 0 0 0 0 0
          0 0 0 0 0 0
          0 0 0 0 0 0
          0 0 0 0 0 0
          0 0 0 0 0 0
          0 0 0 0 0 0
          0 0 0
        </DataArray>
        <DataArray type="Float64" Name="gradient_error" format="ascii" RangeMin="5.882320666677027e-14" RangeMax="1.6629802250357375e-10">
          7.730622855103751e-12 3.9308490994477455e-13 6.01001102177354e-12 3.2037323394314106e-13 1.6675177762464554e-12 1.766934101439925e-13
          2.5202087687347525e-13 6.640252167693281e-12 4.0282544899949416e-13 4.6427329539445994e-12 4.948477252105965e-13 5.882320666677027e-14
          4.403031977529107e-13 6.4241423422522514e-12 7.680478803395966e-13 4.1145328128318305e-13 4.8701376406411e-13 5.944367061097075e-13
          4.645653156691921e-13 1.1217695362345887e-13 5.598346606600647e-13 2.9071780407738997e-13 6.056834057402418e-13 4.584937383797779e-13
          7.677413115545264e-14 9.072262443755881e-14 2.1204025210581508e-13 3.4822660899361883e-13 8.647637014249596e-14 3.0782820947102827e-13
          1.04671117719665e-13 4.844129658814225e-13 4.8049791469592105e-12 8.741691111595752e-13 2.290383337108573e-12 1.7261851129052264e-12
          3.930998314784738e-13 2.729850794993188e-12 1.16107427339406e-12 1.134007802778482e-12 3.251754369226146e-13 2.9914241729427664e-13
          8.220759350224928e-13 6.365458134617775e-13 3.0476770827421316e-13 9.434456640759102e-13 4.822273402339518e-13 3.683563465049757e-13
          3.2890791311642244e-13 3.2840888868859334e-13 3.063718157021544e-12 8.162856764328848e-13 7.176359539869687e-13 2.228220959876906e-12
          6.214908769928774e-13 2.8602503286291546e-12 1.2120335383620428e-12 8.352179217155011e-13 2.515434649668198e-13 6.070615677080157e-12
          4.105587664310226e-12 2.0146404006889144e-12 1.3552073145590548e-12 2.299582949561505e-12 3.182917815102579e-12 1.084945349196856e-12
          3.857187882955629e-12 1.7130702695036078e-12 3.448226710724749e-12 2.2194392144955866e-11 7.53696015417902e-12 2.990415471382974e-12
          1.1688267304968671e-12 6.94807619246667e-11 2.4954767353719927e-11 7.950061983919203e-12 7.139338162936103e-13 2.2219402352378644e-12
          4.395177239277385e-13 5.642607586795356e-13 6.325573111633695e-13 5.903321649181375e-13 4.125685747544009e-13 7.696486597942686e-12
          2.033893607604559e-12 8.078527704800288e-13 3.822527997895429e-12 2.6243833969259566e-12 1.349433273378815e-12 1.5528229713645175e-12
          2.470509220492873e-12 1.990045821726053e-12 1.2427175606244328e-12 1.6222027655761903e-12 1.3408715382684892e-12 1.007188555691639e-12
          4.438132229673161e-13 7.343438089156516e-13 2.429416012919914e-13 3.0790375245084596e-13 4.614326448757804e-13 1.0397106310713698e-12
          3.622630361113679e-13 1.1339523570406633e-12 3.59788428914755e-13 1.3847358856851672e-12 4.931875267557361e-13 1.0066461269384066e-12
          2.693485092747121e-13 3.8212468889741246e-13 2.937619438799802e-13 4.86103747213208e-13 2.4150055844353485e-13 6.352728781427403e-13
          5.638357074158857e-13 1.973944658885952e-13 3.0600163226565555e-13 2.7339798387928367e-13 4.735361988064987e-13 3.490008253644014e-13
          8.548231628982125e-13 2.5693670063240852e-12 3.752921282057917e-13 9.24870995895982e-13 6.219026387548575e-13 1.0493440105871787e-12
          4.556098776218293e-13 1.6381068001156796e-12 8.50398602567629e-13 1.7233822301807095e-12 1.3269438189966812e-12 3.8703401378492745e-12
          4.808255555147119e-12 3.6322180527376497e-12 5.209297782085109e-12 1.076972322549709e-12 2.0002076373745007e-12 1.1828060714195748e-12
          2.9763705791633342e-12 1.6852619703311607e-12 2.2519285864584876e-12 3.0719183176308745e-12 1.1418141827854336e-11 6.805445382519526e-12
          3.616450123353891e-11 4.642405819593031e-12 3.925869860648138e-12 2.192542676212192e-12 3.035955062686876e-11 1.7503833458038734e-11
          1.3160985448187085e-11 4.642244111431988e-12 4.910845776498511e-12 2.6714952476917244e-12 2.9023600840952998e-12 3.852723019163766e-12
          3.0810151417354246e-12 1.7938616154180405e-12 1.4133658025358481e-11 8.588128761966153e-12 4.979219818224732e-12 1.9058343358939713e-12
          2.0026546198371437e-12 1.470106985871381e-12 1.4823355004681807e-12 1.7688573931023134e-12 1.3993147090507747e-12 1.4030241496729296e-12
          5.046685801375e-12 2.865286348774231e-12 1.7343075674518133e-12 8.433123131067844e-11 5.305251735898044e-11 1.0954331580742953e-10
          7.790797467215494e-11 4.5922737331354806e-11 3.216296509519449e-11 1.8786855056560227e-11 1.0000368794906917e-10 5.945998885826217e-11
          4.243540250287704e-11 3.084342343980761e-11 1.9158066711003173e-11 1.0018090603767019e-11 6.140835111074166e-12 4.0256979512286104e-11
          2.5188267685833528e-11 1.2880861309355385e-11 1.1489178148414682e-11 6.648444749015692e-12 3.638239118939177e-12 2.0790093249314083e-12
          1.5206824018100586e-11 8.853843333051968e-12 4.7435704966670575e-12 1.6690584124682178e-12 2.521721559701275e-12 8.895184995660571e-13
          1.3229447943963194e-12 9.14582052323071e-13 1.1850815335835517e-12 7.336574427067059e-13 9.733513670143285e-12 5.218214755772001e-12
          4.1669290593642126e-12 4.4968782331961195e-13 6.697149996183574e-13 2.859663358299854e-13 3.8462529697445737e-13 5.106149589291692e-13
          4.956529044430905e-13 3.086262942053782e-13 2.695920481923395e-12 1.1415415107673503e-12 7.908435068551803e-13 8.042631278369777e-13
          6.430230048610488e-13 5.471899542985766e-13 8.475820640842249e-13 1.0057686350219859e-12 5.26789370364161e-13 1.5710757081754034e-12
          8.304170835475531e-13 8.48073671584014e-13 6.582051860067013e-13 5.055499057581042e-13 3.303437726159305e-13 3.4500051908186456e-13
          2.8353205924696657e-13 3.6067187374765354e-13 3.376793058021465e-13 5.008125169098071e-13 3.3021652947746004e-13 5.402879752198442e-13
          2.6031325437537872e-11 1.4190435035117892e-11 1.0569597585327689e-11 5.725394211567915e-12 3.397051568138648e-11 1.8653036550036937e-11
          1.412704007344507e-11 7.438372499325217e-12 2.9849790341984075e-12 1.4975033811653753e-12 9.844292445255151e-12 4.034118825185198e-12
          3.7107021889701726e-12 1.9956219520551656e-12 1.1445523800839916e-12 7.331133420955865e-13 4.9691786982370714e-12 2.6879469719448096e-12
          1.5133930386360441e-12 1.0323023843420473e-12 5.133661494801055e-13 6.327132206546767e-13 4.4205172864529273e-13 1.398287326022649e-12
          6.99121181690044e-13 6.377988091840597e-13 4.1357939863817604e-12 3.66462468101138e-12 2.3859934631053254e-12 2.1085639519640967e-12
          2.388039004557816e-12 3.838462334353107e-12 2.2030236628851848e-12 2.6708799362046852e-12 1.5539025490718263e-12 2.9725205195396897e-12
          1.3150665452757005e-12 1.1686630922926677e-12 7.204369812233018e-13 8.825991562852764e-13 7.734903017771617e-13 1.2293251637286718e-12
          6.757839180415887e-13 1.150335343972926e-12 1.1571000692658483e-12 1.3252165610416397e-12 2.9673389527347774e-12 1.7863344474654163e-12
          2.2877851395164764e-12 1.3450983087348336e-12 3.716467602412378e-12 2.2565690587125575e-12 2.7520437733106886e-12 1.2809651694916359e-12
          1.2113797273330222e-12 1.032407839797887e-12 1.3209317582532605e-12 1.3243984912363223e-12 1.1801897821497905e-12 8.954655117778352e-13
          8.761782149184148e-13 9.055856594818248e-13 6.165360852192132e-13 6.307718550531598e-13 8.116355881237471e-13 1.392739711319582e-12
          7.289997065156675e-13 1.1049933201033869e-12 5.848337259820817e-13 1.6686539560570527e-12 4.746948262515018e-13 6.004374376356588e-13
          2.971495376569046e-13 4.4246483355563043e-13 2.318051929031825e-13 3.615198942444877e-13 1.9854783354718023e-13 5.424544929374725e-13
          5.369069705663571e-13 4.2607803980853024e-13 3.25267069318412e-13 2.8685415588201086e-13 1.870477598454801e-13 1.3723707655387913e-13
          1.8713410372910072e-13 1.944639654523377e-13 1.1065238214916551e-13 2.4844124244560974e-13 8.74263932622782e-14 2.0179382717557465e-13
          1.3563996896613395e-13 3.009485932962373e-13 8.405252325936032e-14 1.4360037851176026e-13 1.0923723995432401e-13 1.6870857662415624e-13
          9.587243524969715e-14 4.4143330013104194e-13 6.117928125286069e-13 2.9734170486915757e-13 3.550476349754115e-13 2.9587449222598096e-13
          2.796580374462616e-13 1.7499375560044841e-13 7.821523249261717e-13 4.127535650816653e-13 2.634415826665422e-13 2.6588677162422876e-13
          7.088133868636323e-13 3.5784695379542877e-13 2.239806208111558e-12 4.801537008860977e-12 1.2989378176223853e-12 2.7619485733551222e-12
          1.7702185720953493e-12 3.2166189661078745e-12 1.865726915650267e-12 7.531450645500006e-13 1.5618396522387802e-12 4.443493584426473e-13
          8.824236898614894e-13 5.933479956486202e-13 1.0216120067816423e-12 5.567781058934065e-13 1.9963394614208052e-12 2.340855224540955e-12
          1.1823634842836845e-12 1.384902832255382e-12 1.1740086080754018e-12 1.1754798089056745e-12 7.190459924283847e-13 2.6853709876611044e-12
          1.5874421802270799e-12 1.1769510097359468e-12 6.602304697537384e-13 7.782612763704016e-13 4.708490720341306e-13 5.49021279174607e-13
          4.531048798450069e-13 4.574094775630024e-13 3.7224716523255685e-13 8.962920829870649e-13 6.271934863150835e-13 4.61714075280998e-13
          4.082930166682065e-13 7.338832457847488e-13 2.362820937796052e-13 4.0030925873863493e-13 2.432266526818085e-13 3.748361811735956e-13
          2.1558823452185102e-13 1.2929586621015637e-13 2.0823052855093639e-13 9.205331914576939e-14 1.437282695133378e-13 8.598866398165878e-14
          1.2631865055378928e-13 9.851050262371655e-14 5.823437416049027e-13 1.5641461228403285e-12 3.505344762286951e-13 8.591139813135217e-13
          4.081836495984304e-13 9.150868615191616e-13 5.725854094719195e-13 2.0064998172540847e-13 4.4659614923928377e-13 1.0783394209525905e-13
          2.17670139107168e-13 1.69754253303083e-13 3.2330353554115196e-13 1.5622217121534788e-13 2.58953120572766e-13 4.777849110114642e-13
          1.9811994530841134e-13 3.283040819365102e-13 1.952401828978509e-13 3.142913153009932e-13 2.3060030613753496e-13 4.6578444636927436e-12
          2.7457545390099947e-12 7.881264331744732e-12 6.115848033795391e-12 1.4613835640680735e-11 4.714294815050999e-12 3.602798283556987e-12
          8.850640876446115e-12 2.632647156272748e-11 2.0723960427073766e-11 4.557785749436993e-11 1.6181529500243986e-11 1.2531959610667852e-11
          2.845224847378596e-11 3.10058242223038e-12 2.3017065149933254e-12 6.220744850789666e-12 1.962067982027695e-12 2.946214168442896e-12
          1.8518441732881973e-12 2.7219001783677403e-12 2.0394702761058498e-12 5.78223153208303e-12 5.1902321993070135e-12 1.456681708775406e-12
          2.198689068395492e-12 1.0787769684535152e-12 1.6307510896950673e-12 1.017614854201345e-12 1.5192702364384724e-12 1.1246410080375253e-12
          4.345625220159721e-12 3.2394004882025647e-12 2.945730864012628e-12 1.2227073311269941e-11 9.183723114324036e-12 2.315619770514615e-11
          1.104558154468548e-11 9.62513453308533e-12 7.330616827971202e-12 2.0317310299678413e-11 1.7164986452097714e-11 8.356127456610415e-12
          6.268084619351978e-12 5.536455154953045e-12 4.146398783490118e-12 1.5470836058121323e-11 1.1676443067309357e-11 1.0003345031402577e-11
          3.720721287441493e-12 5.338485881489968e-12 2.8712019226573187e-12 4.13523479285067e-12 2.4999680693768912e-12 3.5358150532668304e-12
          2.730964179144546e-12 9.733567531558489e-12 7.589751259309473e-12 6.312192937449088e-12 2.198300798130831e-12 3.178529077795464e-12
          1.674550297326478e-12 2.4251485161931635e-12 1.4660062024277686e-12 2.0934887603825843e-12 1.59297179987823e-12 5.872619123894989e-12
          4.508559903773376e-12 3.791506554145525e-12 1.6552834105837432e-12 2.2719297406003867e-12 1.2592024248040421e-12 1.7440417616019088e-12
          1.3410125664186533e-12 1.7612760378081214e-12 1.3440959266179097e-12 3.980113112454382e-12 3.088005797502898e-12 2.7713180055722267e-12
          9.684658694712935e-13 1.338758697036439e-12 7.484860614867521e-13 1.0232803604239962e-12 7.854306842959716e-13 1.035021029548685e-12
          7.983860906919514e-13 2.377474942154007e-12 1.8158982210258036e-12 1.6480558704447765e-12 1.7140126074244048e-11 1.3462373228247295e-11
          1.0864049198623046e-11 8.512064877292846e-12 2.897277356775745e-11 2.2926491784401056e-11 1.7911822960327156e-11 1.0490130164627098e-11
          8.11027115431299e-12 6.6176585393674e-12 5.105813784414361e-12 1.7992250576989853e-11 1.4002594789258677e-11 1.1062428840127659e-11
          6.7214288817362016e-12 5.252533877818614e-12 4.035503206331725e-12 3.1447863621211592e-12 1.0791841141599122e-11 8.489557921679727e-12
          6.351411571523821e-12 4.071933695730903e-12 3.1328916190955393e-12 2.4293976265600574e-12 1.8636910092627425e-12 6.6257278693733025e-12
          5.129602150487516e-12 3.8740722551590976e-12 1.2670083748693535e-12 1.8346175097047757e-12 9.544910429202798e-13 1.3732662366503164e-12
          8.580694203891113e-13 1.1964937951540426e-12 9.894271851242221e-13 3.437510262342318e-12 2.5950793468100752e-12 2.199165097010676e-12
          7.101462786201201e-13 1.0171276799985923e-12 5.226136623115012e-13 7.494008459321705e-13 5.918748697073489e-13 8.049781010950863e-13
          5.90628353504769e-13 1.9359669669282813e-12 1.4335924668296602e-12 1.4152609220609268e-12 5.776413919954956e-13 7.678697327842588e-13
          5.090941504175433e-13 6.554773852032794e-13 4.732013778584462e-13 6.101125219344714e-13 5.326308768856031e-13 1.3697957916030944e-12