<?xml version="1.0"?>
<VTKFile type="UnstructuredGrid" version="0.1" byte_order="LittleEndian" header_type="UInt32" compressor="vtkZLibDataCompressor">
  <UnstructuredGrid>
    <Piece NumberOfPoints="601" NumberOfCells="312">
      <PointData>
        <DataArray type="Int32" Name="libmesh_node_id" format="ascii" RangeMin="16" RangeMax="5866">
          20 21 22 23 24 25
          26 27 28 29 30 31
          32 33 34 35 36 37
          38 39 40 41 42 43
          44 45 46 47 48 49
          50 51 52 53 54 55
          56 57 58 59 60 61
          62 63 94 95 96 97
          98 99 100 101 102 103
          104 105 106 107 108 109
          110 111 112 113 114 115
          138 139 140 141 142 143
          144 145 146 147 148 149
          150 151 152 153 154 155
          156 157 174 175 176 177
          178 179 180 181 182 183
          201 202 203 204 205 206
          207 208 209 210 211 212
          213 214 215 216 217 218
          219 220 237 238 239 240
          241 242 243 244 245 246
          266 267 268 269 270 271
          272 273 282 283 301 302
          303 304 305 306 307 308
          309 329 330 331 332 333
          334 335 336 364 365 366
          367 392 393 394 395 396
          397 427 428 429 430 455
          456 457 458 459 460 490
          491 492 493 581 582 585
          588 591 592 1259 1260 1261
          1269 1270 1271 1317 1318 1319
          1322 5143 5144 5145 5146 5147
          5148 5149 5150 5151 5152 5153
          5154 5155 5156 5157 5158 5159
          5160 5161 5162 5163 5164 5165
          5166 5167 5168 5169 5170 5171
          5172 5173 5174 5268 5269 5272
          5273 5275 5277 5278 5279 5280
          5281 5282 5283 5284 5285 5286
          5287 5288 5289 5290 5291 5292
          5307 5308 5309 5310 5311 5312
          5313 5314 5315 5316 5317 5318
          5319 5320 5321 5322 5323 5324
          5325 5326 5327 5328 5329 5330
          5331 5332 5333 5334 5337 5338
          5339 5341 5342 5344 5365 5366
          5369 5370 5407 5408 5411 5413
          5415 5416 5417 5418 5419 5420
          5421 5422 5423 5424 5425 5426
          5427 5428 5429 5430 5686 5687
          5688 5689 5690 5691 5692 5693
          5694 5695 5696 5697 5698 5699
          5702 5703 5708 5710 5711 5712
          5713 5714 5715 5716 5717 5718
          5719 5730 5731 5732 5733 5734
          5735 5736 5737 5738 5739 5740
          5741 5742 5743 5744 5745 5746
          5747 5748 5749 5750 5751 5752
          5753 5754 5755 5756 5757 5758
          5759 5760 5761 5762 5763 5764
          5765 5766 5767 5768 5769 5770
          5771 5772 5773 5774 5775 5776
          5777 5778 5779 5780 5781 5782
          5783 5784 5785 5786 5787 5788
          5789 5790 5791 5792 5793 5794
          5795 5796 5797 5798 5799 5800
          5801 5802 5803 5804 5805 5806
          5807 5808 5809 5810 5811 5812
          5813 5814 5815 5816 5817 5818
          5819 5820 5821 5822 5823 5824
          5825 5826 5827 5828 5829 5830
          5831 5832 5833 5834 5835 5836
          5837 5838 5839 5840 5841 5842
          5843 5844 5845 5846 5847 5848
          5849 5850 5851 5852 5853 5854
          5855 5856 5857 5858 5859 5860
          5861 5862 5863 5864 5865 5866
          16 17 18 19 92 93
          134 136 137 135 173 172
          199 200 236 262 264 265
          263 274 275 276 277 278
          279 280 281 300 299 327
          328 337 338 363 368 340
          369 342 370 344 371 398
          399 391 426 401 431 579
          580 583 584 586 587 1262
          1263 1264 1265 1266 1267 1268
          1272 506 505 514 511 1314
          1313 1316 1315 753 755 760
          1321 1320 763 494 5265 5270
          5267 5271 516 462 862 863
          866 869 589 872 590 5335
          5336 5340 5343 5346 5348 5349
          5350 5358 5359 5367 5368 5360
          5364 5264 5254 5405 5406 5409
          5410 5276 5412 5414 5676 5677
          5678 5681 5266 5684 5682 5683
          5700 5701 5685 5705 5704 5706
          5707 5274 5709 5722 5723 5726
          5728
        </DataArray>
        <DataArray type="Float64" Name="bounds" format="ascii" RangeMin="0" RangeMax="0">
          0 0 0 0 0 0
          0 0 0 0 0 0
          0 0 0 0 0 0
          0 0 0 0 0 0
          0 0 0 0 0 0
          0 0 0 0 0 0
          0 0 0 0 0 0
          0 0 0 0 0 0
          0 0 0 0 0 0
          0 0 0 0 0 0
          0 0 0 0 0 0
          0 0 0 0 0 0
          0 0 0 0 0 0
          0 0 0 0 0 0
          0 0 0 0 0 0
          0 0 0 0 0 0
          0 0 0 0 0 0
          0 0 0 0 0 0
          0 0 0 0 0 0
          0 0 0 0 0 0
          0 0 0 0 0 0
          0 0 0 0 0 0
          0 0 0 0 0 0
          0 0 0 0 0 0
          0 0 0 0 0 0
          0 0 0 0 0 0
          0 0 0 0 0 0
          0 0 0 0 0 0
          0 0 0 0 0 0
          0 0 0 0 0 0
          0 0 0 0 0 0
          0 0 0 0 0 0
          0 0 0 0 0 0
          0 0 0 0 0 0
          0 0 0 0 0 0
          0 0 0 0 0 0
          0 0 0 0 0 0
          0 0 0 0 0 0
          0 0 0 0 0 0
          0 0 0 0 0 0
          0 0 0 0 0 0
          0 0 0 0 0 0
          0 0 0 0 0 0
          0 0 0 0 0 0
          0 0 0 0 0 0
          0 0 0 0 0 0
          0 0 0 0 0 0
          0 0 0 0 0 0
          0 0 0 0 0 0
          0 0 0 0 0 0
          0 0 0 0 0 0
          0 0 0 0 0 0
          0 0 0 0 0 0
          0 0 0 0 0 0
          0 0 0 0 0 0
          0 0 0 0 0 0
          0 0 0 0 0 0
          0 0 0 0 0 0
          0 0 0 0 0 0
          0 0 0 0 0 0
          0 0 0 0 0 0
          0 0 0 0 0 0
          0 0 0 0 0 0
          0 0 0 0 0 0
          0 0 0 0 0 0
          0 0 0 0 0 0
          0 0 0 0 0 0
          0 0 0 0 0 0
          0 0 0 0 0 0
          0 0 0 0 0 0
          0 0 0 0 0 0
          0 0 0 0 0 0
          0 0 0 0 0 0
          0 0 0 0 0 0
          0 0 0 0 0 0
          0 0 0 0 0 0
          0 0 0 0 0 0
          0 0 0 0 0 0
          0 0 0 0 0 0
          0 0 0 0 0 0
          0 0 0 0 0 0
          0 0 0 0 0 0
          0 0 0 0 0 0
          0 0 0 0 0 0
          0 0 0 0 0 0
          0 0 0 0 0 0
          0 0 0 0 0 0
          0 0 0 0 0 0
          0 0 0 0 0 0
          0 0 0 0 0 0
          0 0 0 0 0 0
          0 0 0 0 0 0
          0 0 0 0 0 0
          0 0 0 0 0 0
          0 0 0 0 0 0
          0 0 0 0 0 0
          0 0 0 0 0 0
          0 0 0 0 0 0
          0 0 0 0 0 0
          0 0 0 0 0 0
          0
        </DataArray>
        <DataArray type="Float64" Name="gradient_error" format="ascii" RangeMin="2.825086698447097e-14" RangeMax="0.0000012725300025713803">
          1.5050996626966773e-10 8.320481886195879e-11 4.5648861675137604e-10 2.4562253357904557e-10 1.222890850898682e-10 6.801314127254938e-11
          3.791273951218288e-10 2.0506423257286174e-10 1.377840139614479e-10 7.729809855956646e-11 4.0996182939123553e-10 2.2481817157777603e-10
          2.1469113540879542e-10 1.1887652144633162e-10 5.914683804052914e-10 3.234869451570687e-10 2.584093961111957e-10 1.4276453201466967e-10
          6.855745660174008e-10 3.755450025407152e-10 2.014663474347119e-10 1.1167798687805357e-10 5.223988121089946e-10 2.8754724451934523e-10
          7.452685009650684e-11 4.159756181615123e-11 1.921513562838596e-10 1.064737630276994e-10 4.974726950542041e-12 2.990546010185997e-12
          1.510053984220056e-11 8.770141323344113e-12 9.262262775889308e-13 6.89129428512991e-13 2.4726057393106118e-12 1.771084117357538e-12
          5.142577627554151e-13 3.829596213276159e-13 1.2843504418554334e-12 9.410072652238689e-13 7.358770860854735e-14 5.0919287796509165e-14
          1.9117223336946512e-13 1.170109743462916e-13 1.5899671454249835e-11 3.475645040671505e-11 1.3737197455230567e-11 3.100107002389468e-11
          1.6812183157685012e-11 3.967451376431656e-11 2.3061907483867818e-11 5.550550990884617e-11 2.7119667918143623e-11 6.551543906402982e-11
          2.1889626321395252e-11 5.269567692969576e-11 8.668273535795612e-12 2.079616977153923e-11 1.0063650698299534e-12 2.4397428044876647e-12
          4.5203257943705135e-13 1.0695624954044646e-12 2.516614798998167e-13 5.976640885923048e-13 2.825086698447097e-14 4.284971532311809e-14
          1.9257666746019787e-9 1.0148253653414161e-9 1.9828354209687906e-9 1.064127770165931e-9 2.6053580123270847e-9 1.4083952410477075e-9
          2.872971636928708e-9 1.5624188112850796e-9 2.1419731239319874e-9 1.1722536466462002e-9 7.959536063893603e-10 4.3801167045819867e-10
          7.683533974678853e-11 4.321566897557167e-11 1.1145817674476934e-11 7.612440353904897e-12 4.1923884579804435e-12 3.238112763244161e-12
          5.549680470799767e-13 3.396453017219321e-13 1.0388405608085354e-10 1.454201193630709e-10 2.1143246976833034e-10 2.5186598564145125e-10
          2.0253416936041308e-10 8.006973452703697e-11 9.59599820435482e-12 4.079063033332862e-12 2.283837068507877e-12 1.2432255636388741e-13
          9.506299547695183e-9 4.90901978660865e-9 9.38155199631185e-9 4.946837636813778e-9 1.1354073505436658e-8 6.073068318330919e-9
          1.1926231152888437e-8 6.443085756326109e-9 8.716967574456167e-9 4.745645041735297e-9 3.2881089378240017e-9 1.7975922259977335e-9
          3.8085408911743003e-10 2.0915272044993974e-10 5.36221614233366e-11 3.4584974245875864e-11 1.2149350989896784e-11 1.0439005774723573e-11
          1.269083309436076e-12 8.884561949604151e-13 3.1174002552211786e-10 5.121232773157045e-10 7.920631312251794e-10 9.59940359763779e-10
          7.743225090144255e-10 3.0707551417146526e-10 3.7451351782449485e-11 1.5547787068415122e-11 8.728660559550363e-12 5.078290804847541e-13
          4.367252875381689e-8 2.2690638243082966e-8 4.930050216807317e-8 2.6102055437978564e-8 4.950095716706562e-8 2.6560575518423527e-8
          3.54956452507966e-8 1.9217439918029036e-8 4.08922819477225e-12 3.0453097893402644e-12 1.7087477323490407e-9 2.903608707883964e-9
          3.6201938697814346e-9 2.9392345852614627e-9 1.1683887245464473e-9 1.4330297716036498e-10 5.848878656858649e-11 3.287252409003872e-11
          2.001391383908279e-12 6.084823710882662e-8 2.4264580378859462e-8 6.522905205705815e-8 2.9343195426035135e-8 1.282915776254675e-7
          6.738247517709502e-8 1.1113781496530547e-7 5.929767433764684e-8 5.255717373508479e-9 1.0278890016489588e-8 1.3833926370846353e-8
          1.1365826298482438e-8 5.002292050177452e-8 1.3484055347129692e-7 4.765388029910183e-8 1.0455943172458379e-7 2.704515182639538e-7
          1.0875420654540695e-7 5.291259536615819e-9 9.094040938732463e-9 1.299778218808476e-8 1.0778975526835311e-8 5.969893621892495e-7
          1.9285582068091854e-7 7.627076211251047e-7 1.3777448267342735e-7 0.0000010033378050198587 8.732344754478046e-8 2.63506664580429e-8
          1.6082567682668947e-8 5.74385276449058e-9 3.0802406176372843e-9 2.0642444801890676e-7 7.489230200319519e-7 4.4540933559714434e-7
          8.520667799447118e-8 9.414473579481972e-7 6.870978537260427e-8 1.784557523340793e-8 1.1947224487737466e-8 1.706861623724039e-8
          6.0488737420670025e-9 1.2194746545970809e-8 1.7806460942837176e-8 1.9054396522250487e-9 2.920292278852435e-9 3.278964919009968e-9
          3.935144905479821e-9 5.043991743458141e-8 3.3004674688474446e-8 3.225619578091044e-8 4.601394715165461e-8 4.32134868893073e-8
          4.0944205550602255e-8 4.2839295876373754e-8 3.350122516811344e-8 4.1949192580971834e-8 3.968283636576033e-8 1.556943194236749e-8
          3.867492421189721e-8 3.9664644601092905e-8 3.741648015054882e-8 4.669220186015557e-8 1.3810890144189285e-7 1.5652916854815265e-7
          1.2050134055303754e-7 1.5491453026302988e-7 4.897488274216995e-8 3.3427774547444224e-8 4.6460933851937907e-8 4.125146081890013e-8
          3.3209774285576184e-8 5.0681397031076117e-8 4.301946243691032e-8 1.78806663527185e-8 3.604198778586235e-8 3.5357527842744515e-8
          5.849133385558843e-8 1.0713367079879964e-7 1.1428897894234788e-7 5.322000822353747e-7 4.3222321348582866e-7 1.9104743495623158e-7
          5.3238577605564e-7 7.085575400320114e-7 5.536860316045234e-7 4.223804502318597e-7 5.747312613348219e-7 4.098247384024963e-7
          1.618176456790813e-7 1.3421222069528757e-7 6.731179942780974e-7 7.601730147976719e-7 8.163276756623847e-7 1.654448664499049e-7
          5.952782029094599e-7 3.943371580299098e-7 1.0857585340179638e-7 8.697279087425787e-7 8.769292597900778e-7 1.1112932298637112e-7
          8.72999328553662e-9 8.758695027280403e-9 9.120995319934434e-9 1.1437406043626006e-8 4.2868161180526625e-9 3.635005858526919e-9
          4.895946090037845e-9 9.511997354332245e-9 1.411611705997161e-8 2.9831955990011766e-9 0.0000011553706350517828 0.0000010025159982130177
          6.878949928988255e-7 0.0000010598111033840813 0.0000011212412791008197 0.0000010944289572220518 0.0000010428710944183188 5.99106720715985e-7
          7.870514361472939e-7 7.695191784055252e-7 0.0000010871119231498565 0.0000011863419162310858 0.0000011099288677290514 9.749961515786028e-7
          2.1131618003659132e-7 2.220285199510212e-7 3.060024699409284e-7 3.156475847735752e-7 7.408028001546516e-8 1.0551870293055292e-7
          1.1818789818865602e-7 4.0068875984526563e-7 4.092666495961291e-7 1.3695712584564067e-7 4.8593676768606876e-8 3.137312306480171e-8
          1.4152569360996541e-8 4.0379316219569305e-8 6.924100083580862e-9 4.5962097986281815e-8 1.4521651544339724e-8 8.500009588898278e-8
          3.939052275395721e-9 3.3646265596520773e-8 4.627313640300995e-9 2.3929983340246e-8 2.046537967432114e-9 1.176665876318255e-8
          9.135438253837551e-9 6.335347891764581e-8 4.3232653040191005e-8 2.1486779558932986e-8 7.039351824170612e-9 1.6600100435054844e-8
          3.08627520421204e-9 6.834187801902676e-9 2.6160849045939077e-8 1.0582100399593312e-8 5.942435808320072e-8 6.321014065918554e-8
          1.7357377799998473e-7 1.54624956522628e-7 6.072596884726351e-8 1.6821440172621704e-7 1.4942519142371538e-7 6.699592323517035e-8
          1.3567613504527125e-7 1.306359811212137e-7 5.213678532733373e-7 4.787958599234043e-7 4.86980032899491e-7 4.203373290447396e-7
          6.292225090458662e-7 6.624114531165252e-7 6.364671579055998e-7 6.5918701904423e-7 6.902983812490563e-7 6.914048297066657e-7
          7.199820551806644e-7 6.063623003538807e-7 6.231675231233736e-7 5.633615294585542e-7 6.690448150373746e-7 7.041284585625138e-7
          6.843967805683376e-7 2.7439367513739764e-7 3.4791383642561874e-7 2.717098881321134e-7 3.4783235435859646e-7 1.6022309628751892e-7
          2.045128155973591e-7 1.9788894312510858e-7 4.2143399771383985e-7 4.2395482058507953e-7 2.4880253490719927e-7 5.712543452513727e-8
          5.8772962333018005e-8 1.6224793433810772e-7 1.4367033302588584e-7 5.74669362970429e-8 1.5562159197734207e-7 1.3731555811483278e-7
          6.042049014089874e-8 1.2509273171366395e-7 1.1900952425232346e-7 5.429827125667382e-7 4.949123025889972e-7 5.025294375401808e-7
          4.2792927559197916e-7 5.884528638897287e-8 5.696243045312933e-8 1.4828250600875034e-7 1.3032129839095734e-7 5.749513493768386e-8
          1.4021066659577176e-7 1.2267549538892492e-7 5.5079574517285804e-8 1.1236009077316433e-7 1.0514032418207803e-7 5.642777559349334e-7
          5.097629753864246e-7 5.165363412129938e-7 4.3289713450686944e-7 7.26047150391769e-7 7.515941631342446e-7 7.63322110454369e-7
          7.852877740118867e-7 6.404090384720458e-7 6.5806342487791e-7 6.334993098011397e-7 7.419314248092485e-7 7.826808528760344e-7
          7.338066501993374e-7 8.034559056242035e-7 8.212324527243002e-7 8.467404812145279e-7 8.596331196784259e-7 6.761014817860176e-7
          6.944783563960741e-7 7.160760250070682e-7 8.266191210045368e-7 8.740494127710303e-7 7.876775653262525e-7 2.68386753486391e-7
          3.470973854731059e-7 2.6436586819188163e-7 3.4562590228214664e-7 1.4666946541935687e-7 1.9051786987884035e-7 1.823783923778775e-7
          4.258080174598207e-7 4.268859363724117e-7 2.3436627433832384e-7 2.595881683444244e-7 3.433277002077497e-7 2.539896196419288e-7
          3.4010240328520316e-7 1.3098132284407186e-7 1.734614366678614e-7 1.6377385192058207e-7 4.270672320710751e-7 4.262151869284774e-7
          2.1594155049165098e-7 6.634597852689388e-8 5.934675315700803e-8 1.3141925175831517e-7 1.1439986564591894e-7 6.287443630002462e-8
          1.220292458228622e-7 1.0558930606499656e-7 5.234752778712218e-8 9.738047953352267e-8 8.914936630713095e-8 5.850409519434013e-7
          5.227897833651745e-7 5.285019163689551e-7 4.3425232766144817e-7 8.217810358560818e-8 6.847691539918911e-8 1.1241040794156629e-7
          9.650923164524385e-8 7.183756835331848e-8 1.076067105406946e-7 9.194795241731138e-8 5.477572721277005e-8 8.060805534892142e-8
          7.628919429392817e-8 6.057447406755781e-7 5.338117346999504e-7 4.309192928411046e-7 8.93607644898475e-7 9.007661804069024e-7
          9.446307528326226e-7 9.449763544619775e-7 7.131351765750233e-7 7.319876024430508e-7 8.13625910899884e-7 9.254057722182855e-7
          9.812530520160136e-7 8.460985772978359e-7 0.0000010004575018520782 9.926655778926724e-7 7.50948441115188e-7 9.320682346505248e-7
          0.0000010422492342767424 9.087381347112556e-7 2.475051880990352e-7 3.358425379961866e-7 2.400631808028466e-7 3.304314335442145e-7
          1.133306227876217e-7 1.5333943875765646e-7 1.4220961829366033e-7 4.24179887893338e-7 4.207996862855824e-7 1.9334825472769123e-7
          2.3159066040950516e-7 3.2374255063711293e-7 9.418089974434216e-8 1.304618729771163e-7 4.158944408647207e-7 1.6674284620989045e-7
          1.0788064702856267e-10 6.403001491403198e-11 3.3548841347195263e-10 1.8960097526520108e-10 2.0179382799501308e-11 4.371353705844957e-11
          1.8040276729525612e-9 2.277572494483732e-9 1.1930654651412083e-9 9.6873066278866e-10 1.0855843579868463e-10 1.3343365262475872e-10
          1.1152792676095462e-8 5.715582769879111e-9 2.7837286366275985e-10 5.37576549640247e-8 4.5870335121906964e-8 2.3317520024809006e-8
          2.7132067587478745e-8 1.3590613336815182e-8 7.379501030680814e-9 1.8397233463746183e-9 9.915131617674917e-10 2.7136817084531477e-10
          1.6492847870695061e-10 3.7298188676336167e-11 3.5085356383187444e-11 7.647049277110479e-10 5.064802109327915e-10 5.989614003243635e-8
          2.4048568955819077e-8 1.4586585897532704e-8 8.060963367333286e-9 2.7732466895479872e-9 4.262097274611553e-9 1.053957285317185e-9
          4.043154552461551e-10 2.9908224390594925e-10 2.608644104008969e-10 8.88076768998923e-11 1.325946406903928e-10 2.1983416032751702e-7
          7.501556381762394e-8 1.6945330979767185e-7 4.7064880522232275e-9 9.052714612124807e-9 3.645943632754735e-9 5.665810246559826e-7
          3.65287491454033e-7 8.78167080050975e-7 4.816787892221782e-7 8.8583564352552e-8 6.426881424316764e-8 3.1834086703798366e-8
          2.2286378202613083e-8 1.7240562374291946e-8 2.482027382331777e-8 4.559275209297859e-9 9.473128449379094e-9 6.917809851252986e-9
          4.362491253126878e-9 1.329830674927925e-7 2.746672436761543e-8 2.605953848164389e-8 1.1125636476949591e-8 6.642179085892977e-9
          3.4349271761891397e-9 8.68286004977127e-9 7.511250139621724e-9 1.1532962806925405e-9 5.247216153675621e-9 2.060977617648488e-9
          1.0723541013649559e-8 1.1587573103054305e-8 9.341136026658702e-9 3.504420695213855e-9 1.7355279584721444e-7 1.9976658674279567e-7
          4.396699225679607e-7 2.2080562783674313e-7 4.43796325054603e-8 5.270000303993554e-8 0.0000010254578236399653 0.0000011873785252778655
          0.0000011489939131056728 8.036558713609965e-7 0.0000011850039151097636 0.0000012725300025713803 0.0000010092416557316696 1.9942249565229342e-7
          2.946627460926186e-7 9.262305039672422e-8 3.8990299653294374e-7 2.8224750404859124e-7 7.930539462649093e-8 3.7792095650943114e-7
          1.0504679261814761e-7 2.927639246205279e-8 5.4428906494472814e-8 4.708147183389153e-8 4.373039402673042e-8 4.806230258276706e-8
          4.1695698671061304e-8 5.384259802702773e-8 1.971618148598429e-7 1.2636152502151092e-8 5.998244960376212e-8 3.938630153582928e-9
          1.7133184785055968e-8 2.1948428443742002e-7 1.0732874670537317e-7 3.0327739416529006e-8 6.639588013344657e-8 1.784792549330812e-7
          1.593812468099703e-7 1.4028323868685936e-7 5.104509113736878e-7 4.7036118090697226e-7 4.992267388895449e-7 4.6151784276386027e-7
          6.014537759657014e-7 6.362568762520481e-7 4.10683076491998e-7 5.900043449634398e-7 5.741065794236566e-7 5.038398987195666e-7
          6.061991275739912e-7 6.612941790715733e-7 6.39216692423305e-7 2.7648791364715695e-7 3.4741361514063097e-7 2.104189375415665e-7
          4.18339316634105e-7
        </DataArray>
        <DataArray type="Float64" Name="gradient_matprop_error" format="ascii" RangeMin="0" RangeMax="0">
          0 0 0 0 0 0
          0 0 0 0 0 0
          0 0 0 0 0 0
          0 0 0 0 0 0
          0 0 0 0 0 0
          0 0 0 0 0 0
          0 0 0 0 0 0
          0 0 0 0 0 0
          0 0 0 0 0 0
          0 0 0 0 0 0
          0 0 0 0 0 0
          0 0 0 0 0 0
          0 0 0 0 0 0
          0 0 0 0 0 0
          0 0 0 0 0 0
          0 0 0 0 0 0
          0 0 0 0 0 0
          0 0 0 0 0 0
          0 0 0 0 0 0
          0 0 0 0 0 0
          0 0 0 0 0 0
          0 0 0 0 0 0
          0 0 0 0 0 0
          0 0 0 0 0 0
          0 0 0 0 0 0
          0 0 0 0 0 0
          0 0 0 0 0 0
          0 0 0 0 0 0
          0 0 0 0 0 0
          0 0 0 0 0 0
          0 0 0 0 0 0
          0 0 0 0 0 0
          0 0 0 0 0 0
          0 0 0 0 0 0
          0 0 0 0 0 0
          0 0 0 0 0 0
          0 0 0 0 0 0
          0 0 0 0 0 0
          0 0 0 0 0 0
          0 0 0 0 0 0
          0 0 0 0 0 0
          0 0 0 0 0 0
          0 0 0 0 0 0
          0 0 0 0 0 0
          0 0 0 0 0 0
          0 0 0 0 0 0
          0 0 0 0 0 0
          0 0 0 0 0 0
          0 0 0 0 0 0
          0 0 0 0 0 0
          0 0 0 0 0 0
          0 0 0 0 0 0
          0 0 0 0 0 0
          0 0 0 0 0 0
          0 0 0 0 0 0
          0 0 0 0 0 0
          0 0 0 0 0 0
          0 0 0 0 0 0
          0 0 0 0 0 0
          0 0 0 0 0 0
          0 0 0 0 0 0
          0 0 0 0 0 0
          0 0 0 0 0 0
          0 0 0 0 0 0
          0 0 0 0 0 0
          0 0 0 0 0 0
          0 0 0 0 0 0
          0 0 0 0 0 0
          0 0 0 0 0 0
          0 0 0 0 0 0
          0 0 0 0 0 0
          0 0 0 0 0 0
          0 0 0 0 0 0
          0 0 0 0 0 0
          0 0 0 0 0 0
          0 0 0 0 0 0
          0 0 0 0 0 0
          0 0 0 0 0 0
          0 0 0 0 0 0
          0 0 0 0 0 0
          0 0 0 0 0 0
          0 0 0 0 0 0
          0 0 0 0 0 0
          0 0 0 0 0 0
          0 0 0 0 0 0
          0 0 0 0 0 0
          0 0 0 0 0 0
          0 0 0 0 0 0
          0 0 0 0 0 0
          0 0 0 0 0 0
          0 0 0 0 0 0
          0 0 0 0 0 0
          0 0 0 0 0 0
          0 0 0 0 0 0
          0 0 0 0 0 0
          0 0 0 0 0 0
          0 0 0 0 0 0
          0 0 0 0 0 0
          0 0 0 0 0 0
          0 0 0 0 0 0
          0
        </DataArray>
        <DataArray type="Float64" Name="initial_marker" format="ascii" RangeMin="0" RangeMax="0">
          0 0 0 0 0 0
          0 0 0 0 0 0
          0 0 0 0 0 0
          0 0 0 0 0 0
          0 0 0 0 0 0
          0 0 0 0 0 0
          0 0 0 0 0 0
          0 0 0 0 0 0
          0 0 0 0 0 0
          0 0 0 0 0 0
          0 0 0 0 0 0
          0 0 0 0 0 0
          0 0 0 0 0 0
          0 0 0 0 0 0
          0 0 0 0 0 0
          0 0 0 0 0 0
          0 0 0 0 0 0
          0 0 0 0 0 0
          0 0 0 0 0 0
          0 0 0 0 0 0
          0 0 0 0 0 0
          0 0 0 0 0 0
          0 0 0 0 0 0
          0 0 0 0 0 0
          0 0 0 0 0 0
          0 0 0 0 0 0
          0 0 0 0 0 0
          0 0 0 0 0 0
          0 0 0 0 0 0
          0 0 0 0 0 0
          0 0 0 0 0 0
          0 0 0 0 0 0
          0 0 0 0 0 0
          0 0 0 0 0 0
          0 0 0 0 0 0
          0 0 0 0 0 0
          0 0 0 0 0 0
          0 0 0 0 0 0
          0 0 0 0 0 0
          0 0 0 0 0 0
          0 0 0 0 0 0
          0 0 0 0 0 0
          0 0 0 0 0 0
          0 0 0 0 0 0
          0 0 0 0 0 0
          0 0 0 0 0 0
          0 0 0 0 0 0
          0 0 0 0 0 0
          0 0 0 0 0 0
          0 0 0 0 0 0
          0 0 0 0 0 0
          0 0 0 0 0 0
          0 0 0 0 0 0
          0 0 0 0 0 0
          0 0 0 0 0 0
          0 0 0 0 0 0
          0 0 0 0 0 0
          0 0 0 0 0 0
          0 0 0 0 0 0
          0 0 0 0 0 0
          0 0 0 0 0 0
          0 0 0 0 0 0
          0 0 0 0 0 0
          0 0 0 0 0 0
          0 0 0 0 0 0
          0 0 0 0 0 0
          0 0 0 0 0 0
          0 0 0 0 0 0
          0 0 0 0 0 0
          0 0 0 0 0 0
          0 0 0 0 0 0
          0 0 0 0 0 0
          0 0 0 0 0 0
          0 0 0 0 0 0
          0 0 0 0 0 0
          0 0 0 0 0 0
          0 0 0 0 0 0
          0 0 0 0 0 0
          0 0 0 0 0 0
          0 0 0 0 0 0
          0 0 0 0 0 0
          0 0 0 0 0 0
          0 0 0 0 0 0
          0 0 0 0 0 0
          0 0 0 0 0 0
          0 0 0 0 0 0
          0 0 0 0 0 0
          0 0 0 0 0 0
          0 0 0 0 0 0
          0 0 0 0 0 0
          0 0 0 0 0 0
          0 0 0 0 0 0
          0 0 0 0 0 0
          0 0 0 0 0 0
          0 0 0 0 0 0
          0 0 0 0 0 0
          0 0 0 0 0 0
          0 0 0 0 0 0
          0 0 0 0 0 0
          0 0 0 0 0 0
          0
        </DataArray>
        <DataArray type="Float64" Name="markers_norefine" format="ascii" RangeMin="0" RangeMax="0">
          0 0 0 0 0 0
          0 0 0 0 0 0
          0 0 0 0 0 0
          0 0 0 0 0 0
          0 0 0 0 0 0
          0 0 0 0 0 0
          0 0 0 0 0 0
          0 0 0 0 0 0
          0 0 0 0 0 0
          0 0 0 0 0 0
          0 0 0 0 0 0
          0 0 0 0 0 0
          0 0 0 0 0 0
          0 0 0 0 0 0
          0 0 0 0 0 0
          0 0 0 0 0 0
          0 0 0 0 0 0
          0 0 0 0 0 0
          0 0 0 0 0 0
          0 0 0 0 0 0
          0 0 0 0 0 0
          0 0 0 0 0 0
          0 0 0 0 0 0
          0 0 0 0 0 0
          0 0 0 0 0 0
          0 0 0 0 0 0
          0 0 0 0 0 0
          0 0 0 0 0 0
          0 0 0 0 0 0
          0 0 0 0 0 0
          0 0 0 0 0 0
          0 0 0 0 0 0
          0 0 0 0 0 0
          0 0 0 0 0 0
          0 0 0 0 0 0
          0 0 0 0 0 0
          0 0 0 0 0 0
          0 0 0 0 0 0
          0 0 0 0 0 0
          0 0 0 0 0 0
          0 0 0 0 0 0
          0 0 0 0 0 0
          0 0 0 0 0 0
          0 0 0 0 0 0
          0 0 0 0 0 0
          0 0 0 0 0 0
          0 0 0 0 0 0
          0 0 0 0 0 0
          0 0 0 0 0 0
          0 0 0 0 0 0
          0 0 0 0 0 0
          0 0 0 0 0 0
          0 0 0 0 0 0
          0 0 0 0 0 0
          0 0 0 0 0 0
          0 0 0 0 0 0
          0 0 0 0 0 0
          0 0 0 0 0 0
          0 0 0 0 0 0
          0 0 0 0 0 0
          0 0 0 0 0 0
          0 0 0 0 0 0
          0 0 0 0 0 0
          0 0 0 0 0 0
          0 0 0 0 0 0
          0 0 0 0 0 0
          0 0 0 0 0 0
          0 0 0 0 0 0
          0 0 0 0 0 0
          0 0 0 0 0 0
          0 0 0 0 0 0
          0 0 0 0 0 0
          0 0 0 0 0 0
          0 0 0 0 0 0
          0 0 0 0 0 0
          0 0 0 0 0 0
          0 0 0 0 0 0
          0 0 0 0 0 0
          0 0 0 0 0 0
          0 0 0 0 0 0
          0 0 0 0 0 0
          0 0 0 0 0 0
          0 0 0 0 0 0
          0 0 0 0 0 0
          0 0 0 0 0 0
          0 0 0 0 0 0
          0 0 0 0 0 0
          0 0 0 0 0 0
          0 0 0 0 0 0
          0 0 0 0 0 0
          0 0 0 0 0 0
          0 0 0 0 0 0
          0 0 0 0 0 0
          0 0 0 0 0 0
          0 0 0 0 0 0
          0 0 0 0 0 0
          0 0 0 0 0 0
          0 0 0 0 0 0
          0 0 0 0 0 0
          0 0 0 0 0 0
          0
        </DataArray>
        <DataArray type="Float64" Name="markers_mustrefine" format="ascii" RangeMin="0" RangeMax="0">
          0 0 0 0 0 0
          0 0 0 0 0 0
          0 0 0 0 0 0
          0 0 0 0 0 0
          0 0 0 0 0 0
          0 0 0 0 0 0
          0 0 0 0 0 0
          0 0 0 0 0 0
          0 0 0 0 0 0
          0 0 0 0 0 0
          0 0 0 0 0 0
          0 0 0 0 0 0
          0 0 0 0 0 0
          0 0 0 0 0 0
          0 0 0 0 0 0
          0 0 0 0 0 0
          0 0 0 0 0 0
          0 0 0 0 0 0
          0 0 0 0 0 0
          0 0 0 0 0 0
          0 0 0 0 0 0
          0 0 0 0 0 0
          0 0 0 0 0 0
          0 0 0 0 0 0
          0 0 0 0 0 0
          0 0 0 0 0 0
          0 0 0 0 0 0
          0 0 0 0 0 0
          0 0 0 0 0 0
          0 0 0 0 0 0
          0 0 0 0 0 0
          0 0 0 0 0 0
          0 0 0 0 0 0
          0 0 0 0 0 0
          0 0 0 0 0 0
          0 0 0 0 0 0
          0 0 0 0 0 0
          0 0 0 0 0 0
          0 0 0 0 0 0
          0 0 0 0 0 0
          0 0 0 0 0 0
          0 0 0 0 0 0
          0 0 0 0 0 0
          0 0 0 0 0 0
          0 0 0 0 0 0
          0 0 0 0 0 0
          0 0 0 0 0 0
          0 0 0 0 0 0
          0 0 0 0 0 0
          0 0 0 0 0 0
          0 0 0 0 0 0
          0 0 0 0 0 0
          0 0 0 0 0 0
          0 0 0 0 0 0
          0 0 0 0 0 0
          0 0 0 0 0 0
          0 0 0 0 0 0
          0 0 0 0 0 0
          0 0 0 0 0 0
          0 0 0 0 0 0
          0 0 0 0 0 0
          0 0 0 0 0 0
          0 0 0 0 0 0
          0 0 0 0 0 0
          0 0 0 0 0 0
          0 0 0 0 0 0
          0 0 0 0 0 0
          0 0 0 0 0 0
          0 0 0 0 0 0
          0 0 0 0 0 0
          0 0 0 0 0 0
          0 0 0 0 0 0
          0 0 0 0 0 0
          0 0 0 0 0 0
          0 0 0 0 0 0
          0 0 0 0 0 0
          0 0 0 0 0 0
          0 0 0 0 0 0
          0 0 0 0 0 0
          0 0 0 0 0 0
          0 0 0 0 0 0
          0 0 0 0 0 0
          0 0 0 0 0 0
          0 0 0 0 0 0
          0 0 0 0 0 0
          0 0 0 0 0 0
          0 0 0 0 0 0
          0 0 0 0 0 0
          0 0 0 0 0 0
          0 0 0 0 0 0
          0 0 0 0 0 0
          0 0 0 0 0 0
          0 0 0 0 0 0
          0 0 0 0 0 0
          0 0 0 0 0 0
          0 0 0 0 0 0
          0 0 0 0 0 0
          0 0 0 0 0 0
          0 0 0 0 0 0
          0 0 0 0 0 0
          0
        </DataArray>