<?xml version="1.0"?>
<VTKFile type="UnstructuredGrid" version="0.1" byte_order="LittleEndian" header_type="UInt32" compressor="vtkZLibDataCompressor">
  <UnstructuredGrid>
    <Piece NumberOfPoints="582" NumberOfCells="355">
      <PointData>
        <DataArray type="Int32" Name="libmesh_node_id" format="ascii" RangeMin="282" RangeMax="4759">
          282 368 373 711 716 724
          725 726 727 728 729 730
          766 767 783 788 799 800
          801 802 803 804 805 1022
          1027 1030 1031 1032 1036 1037
          1125 1219 1225 1226 1253 1279
          1281 1282 1283 1284 1285 1287
          1288 1289 1291 1293 1295 1297
          1298 1299 1300 1301 1302 1303
          1304 1305 1306 1388 1487 1488
          1490 1533 1534 1540 1544 1568
          1574 1578 1647 1648 1649 1650
          1651 1652 1653 1654 1656 1657
          1658 1660 1662 1664 1666 1667
          1668 1669 1670 1671 1672 1673
          1674 1675 1676 1677 1678 1679
          1680 1681 1682 1683 1684 1685
          1686 1687 1688 1690 1691 1692
          1694 1695 1696 1697 1698 1699
          1700 1701 1702 1703 1704 1705
          1706 1707 1708 1930 2981 2983
          2985 2987 2989 3403 3404 3405
          3406 3407 3408 3409 3410 3411
          3412 3413 3414 3415 3416 3436
          3441 3442 3443 3444 3446 3448
          3450 3451 3452 3453 3454 3455
          3456 3457 3458 3459 3460 3461
          3462 3463 3464 3465 3466 3467
          3468 3469 3470 3667 3671 3672
          3675 3687 3691 3692 3711 3712
          3713 3715 3716 3717 3719 3721
          3723 3739 3740 3741 3743 3744
          3745 3747 3749 3751 3906 3930
          3949 3950 3951 3953 3954 3957
          3977 3978 3979 3981 3982 4486
          4487 4488 4489 4490 4491 4492
          4493 4494 4495 4496 4497 4498
          4499 4500 4501 4502 4503 4504
          4505 4506 4507 4508 4509 4510
          4511 4512 4513 4514 4515 4516
          4517 4518 4519 4520 4521 4522
          4523 4524 4525 4526 4527 4528
          4529 4530 4531 4532 4533 4535
          4537 4539 4540 4541 4542 4543
          4544 4545 4546 4547 4548 4549
          4550 4551 4552 4553 4554 4555
          4556 4557 4558 4559 4560 4561
          4563 4565 4567 4568 4569 4570
          4571 4572 4573 4574 4575 4576
          4577 4578 4579 4580 4581 4582
          4583 4584 4585 4586 4587 4588
          4589 4590 4591 4592 4593 4594
          4595 4596 4597 4598 4599 4600
          4601 4602 4603 4604 4605 4606
          4607 4608 4609 4610 4611 4612
          4613 4614 4615 4616 4617 4618
          4619 4620 4621 4622 4623 4624
          4625 4626 4627 4628 4629 4630
          4631 4632 4633 4634 4635 4636
          4637 4638 4639 4640 4641 4642
          4643 4644 4645 4646 4647 4648
          4649 4650 4651 4652 4653 4654
          4655 4656 4657 4658 4659 4660
          4661 4662 4663 4665 4667 4669
          4670 4671 4672 4673 4674 4675
          4676 4677 4678 4679 4680 4681
          4682 4683 4684 4685 4686 4687
          4688 4689 4690 4691 4693 4695
          4697 4698 4699 4700 4701 4702
          4703 4704 4705 4706 4707 4708
          4709 4710 4711 4712 4713 4714
          4715 4716 4717 4718 4719 4720
          4721 4722 4723 4724 4725 4726
          4727 4728 4729 4730 4731 4732
          4733 4734 4735 4736 4737 4738
          4739 4740 4741 4742 4743 4744
          4745 4746 4747 4748 4749 4750
          4751 4752 4753 4754 4755 4756
          4757 4758 4759 676 352 695
          694 712 355 696 768 1029
          1021 1119 1123 1217 1223 1124
          1224 1221 1227 1229 1228 1259
          1260 1263 358 1127 1472 1476
          1128 1129 1478 1480 1379 1381
          1531 1535 1537 1661 1286 1663
          1665 1567 1571 1477 1923 1921
          1486 1928 2976 2977 2979 2978
          2980 2982 3392 3394 3398 1474
          3399 3402 1479 2930 3437 3397
          744 3401 3438 3439 3440 3426
          1482 2926 2931 2933 3666 3669
          2932 3670 3668 3673 3674 3686
          3689 3690 3688 3693 3695 3694
          3710 3714 3738 3742 3903 3904
          3905 3907 3908 3909 3927 3928
          3929 3931 3932 3933 3948 3952
          3976 3980 3400 3395 3901 3925
        </DataArray>
        <DataArray type="Float64" Name="bounds" format="ascii" RangeMin="0" RangeMax="0">
          0 0 0 0 0 0
          0 0 0 0 0 0
          0 0 0 0 0 0
          0 0 0 0 0 0
          0 0 0 0 0 0
          0 0 0 0 0 0
          0 0 0 0 0 0
          0 0 0 0 0 0
          0 0 0 0 0 0
          0 0 0 0 0 0
          0 0 0 0 0 0
          0 0 0 0 0 0
          0 0 0 0 0 0
          0 0 0 0 0 0
          0 0 0 0 0 0
          0 0 0 0 0 0
          0 0 0 0 0 0
          0 0 0 0 0 0
          0 0 0 0 0 0
          0 0 0 0 0 0
          0 0 0 0 0 0
          0 0 0 0 0 0
          0 0 0 0 0 0
          0 0 0 0 0 0
          0 0 0 0 0 0
          0 0 0 0 0 0
          0 0 0 0 0 0
          0 0 0 0 0 0
          0 0 0 0 0 0
          0 0 0 0 0 0
          0 0 0 0 0 0
          0 0 0 0 0 0
          0 0 0 0 0 0
          0 0 0 0 0 0
          0 0 0 0 0 0
          0 0 0 0 0 0
          0 0 0 0 0 0
          0 0 0 0 0 0
          0 0 0 0 0 0
          0 0 0 0 0 0
          0 0 0 0 0 0
          0 0 0 0 0 0
          0 0 0 0 0 0
          0 0 0 0 0 0
          0 0 0 0 0 0
          0 0 0 0 0 0
          0 0 0 0 0 0
          0 0 0 0 0 0
          0 0 0 0 0 0
          0 0 0 0 0 0
          0 0 0 0 0 0
          0 0 0 0 0 0
          0 0 0 0 0 0
          0 0 0 0 0 0
          0 0 0 0 0 0
          0 0 0 0 0 0
          0 0 0 0 0 0
          0 0 0 0 0 0
          0 0 0 0 0 0
          0 0 0 0 0 0
          0 0 0 0 0 0
          0 0 0 0 0 0
          0 0 0 0 0 0
          0 0 0 0 0 0
          0 0 0 0 0 0
          0 0 0 0 0 0
          0 0 0 0 0 0
          0 0 0 0 0 0
          0 0 0 0 0 0
          0 0 0 0 0 0
          0 0 0 0 0 0
          0 0 0 0 0 0
          0 0 0 0 0 0
          0 0 0 0 0 0
          0 0 0 0 0 0
          0 0 0 0 0 0
          0 0 0 0 0 0
          0 0 0 0 0 0
          0 0 0 0 0 0
          0 0 0 0 0 0
          0 0 0 0 0 0
          0 0 0 0 0 0
          0 0 0 0 0 0
          0 0 0 0 0 0
          0 0 0 0 0 0
          0 0 0 0 0 0
          0 0 0 0 0 0
          0 0 0 0 0 0
          0 0 0 0 0 0
          0 0 0 0 0 0
          0 0 0 0 0 0
          0 0 0 0 0 0
          0 0 0 0 0 0
          0 0 0 0 0 0
          0 0 0 0 0 0
          0 0 0 0 0 0
          0 0 0 0 0 0
        </DataArray>
        <DataArray type="Float64" Name="gradient_error" format="ascii" RangeMin="2.5001943771081645e-10" RangeMax="3.119923775746513e-7">
          9.763839062707528e-8 3.536739085399668e-9 6.3405194273792475e-9 2.1641101967639213e-7 1.4435104562705608e-7 2.610425682330016e-7
          1.3488031475972074e-7 1.6204301899839364e-7 8.251270042806318e-8 1.791946780787108e-7 9.816218914648015e-8 1.9008307210243354e-7
          4.273881616959526e-9 1.0784005767622685e-9 8.842733698725308e-9 1.1956942646685269e-8 2.379677150083633e-9 8.709892401519209e-10
          1.6309102264627115e-8 5.413559857210822e-9 3.0762259490165767e-9 9.019858865975166e-10 1.929254189271824e-8 3.453488903701404e-8
          3.918662924254011e-8 1.713347498632474e-8 4.364789164988107e-9 6.3365666959633445e-9 1.9450369576582528e-8 7.222601891254333e-9
          8.500879172301862e-8 1.0758632822486477e-7 1.0425750547683677e-7 8.193832344008774e-8 1.3603920962964266e-7 8.66792346874793e-8
          4.694581543592891e-8 2.9396323774845207e-8 8.05601451690939e-8 6.599478606036723e-8 6.800313740244676e-8 1.632619558415066e-8
          1.3337124041613768e-8 2.0307997738419896e-8 9.182260076203543e-8 7.517329651050921e-8 9.696596683659158e-8 8.584949176814243e-8
          7.640199429105697e-8 6.788285455216889e-8 4.7803142326494183e-8 9.113883836719098e-8 8.1122015757037e-8 6.776257170189102e-8
          2.369590419247265e-8 1.9803449779898786e-8 2.5328830825083862e-8 2.1271821947505302e-9 9.696411797676047e-10 1.1174261694370114e-9
          2.1548418820769145e-9 4.0367318771411125e-8 6.07647435304745e-9 3.7691582694705e-9 5.71605234447648e-9 1.1085659706825084e-8
          7.3493751584839794e-9 7.992640773932801e-9 2.593132665949156e-8 3.30351240546998e-9 1.7292418795729576e-8 3.6040922383826842e-9
          3.372842196861596e-8 4.6806457156326716e-9 2.0037923899603275e-8 1.889860061786946e-9 1.8457974136335625e-9 1.1471295534955069e-9
          2.7792621715485153e-9 1.304614924495175e-9 1.1638113293466212e-8 5.14728214039928e-9 1.0163857241310517e-8 5.287908531499994e-9
          1.3021257684681504e-8 4.091719377468745e-9 1.2940430425314913e-8 2.8424796806751193e-9 2.645908214030659e-9 1.4475025631420386e-9
          1.5690912227855403e-9 2.0349418721465935e-9 2.778087582697898e-9 1.4242672123594068e-9 2.1284218031836793e-9 1.3044412159980036e-9
          3.5438137261411006e-9 3.957491679965186e-8 5.77850970744509e-9 2.221805449077309e-8 2.8859991040949223e-9 4.189575046292103e-8
          6.201033136825852e-9 2.3015772548644392e-8 3.5089277438784308e-9 1.6133697034496323e-9 8.365425016496944e-10 3.7940327374542886e-9
          1.7328892984537314e-9 1.5196267670870805e-8 4.803547364654529e-9 1.5213705977279835e-8 7.996274576765736e-9 1.618571236252272e-8
          5.06037218115724e-9 1.6194478718659657e-8 2.5032951017648328e-9 1.2799993292825617e-9 4.144103543682548e-9 2.1318968603177214e-9
          2.6426061749122244e-9 1.3600367777988109e-9 4.364975690873382e-9 9.48949150173209e-10 2.8842428956110736e-9 1.4996340493911103e-9
          1.1114270508015964e-9 2.16102420500905e-9 1.5744967074776917e-9 1.6413368919408234e-9 1.8926860163557537e-9 1.6583729579279507e-9
          2.442105178916469e-9 1.4157613918181673e-9 1.6284001902915184e-9 9.949815137707652e-10 1.1553396377482087e-9 1.2475475388978798e-9
          1.417106345641855e-9 9.86279213524699e-10 2.104285339356569e-9 1.5147761874376172e-9 1.8196485715720963e-9 4.5410566327115847e-10
          2.0759180402241183e-9 1.5503502433301607e-9 1.5199707625087564e-9 8.144825416042955e-10 5.885925507774612e-10 1.1346525089119862e-9
          8.094929949730189e-10 7.031609199257904e-10 8.24829915536874e-10 5.080702466374429e-10 5.960839702006406e-10 6.111806570480685e-10
          6.99892888239563e-10 5.05007216961549e-10 1.0963153732489618e-9 7.962443393544519e-10 9.129365234824383e-10 3.5679534525121113e-10
          4.224159151093665e-10 2.5177865159030257e-10 2.9802377551916563e-10 3.0699734744155705e-10 3.543521777482076e-10 2.5001943771081645e-10
          5.70329518559983e-10 4.032686949614704e-10 4.687058015141609e-10 6.717259263620316e-9 6.020757387268099e-9 4.772638085366458e-9
          7.514480420320416e-9 1.0047923179485475e-8 9.134251715125464e-9 7.465352139492836e-9 3.964095714174712e-9 3.7517606820394275e-9
          2.8841264272643165e-9 5.2382325762748206e-9 4.8459436501759134e-9 3.003466161771129e-9 2.155091013452806e-9 4.011270325714986e-9
          2.841875981857409e-9 6.64104206433926e-9 6.0279497598855064e-9 4.736809262737736e-9 8.068973132806066e-9 7.211791027197124e-9
          5.134416387037228e-9 3.601165863431155e-9 6.288797292777106e-9 4.377082086997676e-9 1.0088325886010993e-8 1.1733550387272693e-8
          9.391160508111357e-9 8.293545172231572e-9 6.618107379695636e-9 1.0467602124875914e-8 9.164667366321147e-9 5.097445400564192e-9
          1.1172402993767262e-8 9.729941645165138e-9 7.82670718896601e-9 1.141781535334002e-8 9.92580185611555e-9 5.232423543723828e-9
          4.0662824684170304e-9 6.381105109961219e-9 4.633427462515181e-9 3.5749525122178823e-9 3.5390788831868102e-9 2.6430507381377016e-9
          5.717817335803831e-9 4.5092990437790635e-9 4.328052158874361e-9 3.0360686255289107e-9 2.6672685323518253e-9 3.6533579307112037e-9
          2.6404124571936986e-9 1.936919118475695e-9 2.2875069799153106e-9 1.6280765436455789e-9 3.2065404507072036e-9 2.4025857922546893e-9
          2.563241393280751e-9 7.634650989620504e-9 5.816546122317539e-9 8.801183876740637e-9 6.881076124924785e-9 5.498879766869007e-9
          5.158397687520513e-9 3.998653872129778e-9 7.99196133552144e-9 6.475595330759573e-9 5.956920103374404e-9 4.307569479261632e-9
          3.2832675652947623e-9 4.910433474776444e-9 3.7984547972362065e-9 2.8860183181711404e-9 2.8251916618249174e-9 2.0485640188448273e-9
          4.359573858644751e-9 3.3573978550173564e-9 3.2496815514534444e-9 2.745963787341991e-9 2.0748194170893297e-9 1.987451756934286e-9
          1.476756696061134e-9 3.5121839953940067e-9 2.682032229484966e-9 2.5184987999182046e-9 1.5307270107674514e-9 1.0770014748201355e-9
          1.993767965048506e-9 1.3872843529811076e-9 1.4191313277786637e-9 1.0392094349323685e-9 1.1768184877363652e-9 8.547999648060632e-10
          1.7857767751026054e-9 1.3184363290716569e-9 1.348197334643931e-9 7.495029953066046e-10 5.31137000032876e-10 6.123874972761801e-10
          4.337074493190537e-10 9.584579841329448e-10 6.797119042483206e-10 7.082086262698714e-10 4.334791652051584e-9 3.3412638510514252e-9
          3.084652302632132e-9 2.3350639569372454e-9 5.154129582775932e-9 4.004530827050026e-9 3.6452802726541643e-9 2.5013579478082744e-9
          1.724638848504725e-9 3.016559652413117e-9 2.0637240428120135e-9 2.172813574196847e-9 1.6175925831009362e-9 1.5064822961021732e-9
          1.1046735946426959e-9 2.551105289259665e-9 1.9122720073796073e-9 1.770503064633713e-9 1.18596386634974e-9 8.433854635038948e-10
          7.981617448978293e-10 6.291016545343196e-10 1.407800951958745e-9 1.0052646126179784e-9 9.471221436749258e-10 2.1849572684017703e-9
          2.4002481126175398e-9 2.1171961795498496e-9 2.7448609317557746e-9 1.8969449599113784e-9 2.056985668011605e-9 1.3451739131553672e-9
          1.4538278024397155e-9 1.6711868033695086e-9 1.775925944004387e-9 1.2104225899186915e-9 2.341297605238876e-9 1.6649741007533251e-9
          1.988996870088218e-9 9.565961949316899e-10 1.04549520463722e-9 6.975467179929078e-10 7.613848080930034e-10 8.227757414148097e-10
          8.699925900692415e-10 6.325736358838389e-10 1.2120936076666902e-9 8.844751772565955e-10 9.789565578117103e-10 4.90535600070304e-10
          5.37368373118087e-10 4.177549791284242e-10 4.490251578508463e-10 4.194886645768435e-10 4.4573104311205566e-10 3.801105232164579e-10
          6.286320228448926e-10 4.710313964675945e-10 5.054965771242409e-10 9.83680096207575e-9 7.458949034197845e-9 1.0651610572338723e-8
          8.983772356291776e-9 7.356303545853842e-9 6.68238011504785e-9 5.292155761749998e-9 9.769069043274257e-9 8.059729238377728e-9
          7.2569370393144286e-9 5.461638608379281e-9 4.14689582101202e-9 5.901791498301417e-9 4.867463501346562e-9 3.779950841087926e-9
          3.5938889495339457e-9 2.6638646362664623e-9 5.2695415816301314e-9 4.112576755010713e-9 3.8604692419879395e-9 1.1177354332932469e-8
          8.46031763913217e-9 1.1400286564097124e-8 1.027742069251615e-8 8.515905621823317e-9 7.615725155730927e-9 6.092859887160683e-9
          1.0473216985642802e-8 8.67323836066336e-9 7.748223289527726e-9 6.1513983004676726e-9 4.608241801435804e-9 6.2420090026346084e-9
          5.5114310746477875e-9 4.326702054342502e-9 4.024350793901909e-9 3.0278113907226766e-9 5.596680188936065e-9 4.400205246439427e-9
          4.082890118253778e-9 5.899067130115084e-9 4.612590267154803e-9 4.152697646575991e-9 3.1835728815480784e-9 6.4970037019184136e-9
          5.103682673259949e-9 4.558674731105308e-9 3.4923899462837573e-9 2.37405208158793e-9 3.878943426727698e-9 2.624971948124538e-9
          2.892485329602882e-9 2.1784534156847997e-9 1.9950993678675314e-9 1.4767083622296044e-9 3.1633413274387757e-9 2.3908346238394056e-9
          2.1729842994774425e-9 1.6042011300141485e-9 1.14897076376387e-9 1.0732861925401731e-9 7.574717490210735e-10 1.763145368565901e-9
          1.2659352071089267e-9 1.1747129799729824e-9 6.8846831499009245e-9 5.423421126825927e-9 4.821436124892356e-9 3.720565041617582e-9
          7.019052151706786e-9 5.534424904205236e-9 4.912488285282583e-9 4.131657533108989e-9 2.788888663308199e-9 4.219586815097733e-9
          2.8459390165154222e-9 3.3382762763409907e-9 2.5289176817526915e-9 2.287535029441809e-9 1.7020807411038456e-9 3.3988343968867073e-9
          2.5768693254151895e-9 2.3271471806042757e-9 1.86865875568771e-9 1.343942930299486e-9 1.2416561210404515e-9 8.851923087128166e-10
          1.9052223332487812e-9 1.37078037677489e-9 1.2647601300457328e-9 2.9798170406074817e-9 2.612646391287506e-9 3.1499354517804874e-9
          2.5656899371287757e-9 1.8524460500728574e-9 2.1820277024115606e-9 1.4969922182406354e-9 2.732255164793824e-9 1.9987847212049634e-9
          2.323637582463218e-9 3.2566779794722766e-9 2.867748645411639e-9 3.2989362299203013e-9 2.8372910308736724e-9 2.091832501099413e-9
          2.413117836824654e-9 1.6834278156150772e-9 2.8758827720513284e-9 2.1235211501520276e-9 2.4456872580088227e-9 1.356063868997694e-9
          9.931376053591793e-10 1.0920296365879567e-9 7.971947455348051e-10 1.4705561153446451e-9 1.0790332040700644e-9 1.1810232995509802e-9
          7.096434783096422e-10 4.97129269058194e-10 5.642422913102613e-10 3.994306429848194e-10 7.725551745081973e-10 5.461158822565237e-10
          6.086849252519835e-10 1.5440671451300785e-9 1.1349553495878254e-9 1.2382381259723858e-9 9.053187825519621e-10 1.5693567965756243e-9
          1.154392045433789e-9 1.257785249118977e-9 8.135708042916355e-10 5.751043765877659e-10 6.394575500595647e-10 4.4990028065313703e-10
          8.282553166622454e-10 5.858361003641151e-10 6.51010099634471e-10 3.119923775746513e-7 1.6838577610585325e-7 1.2548146449458203e-7
          2.567846709190815e-7 1.5251198713479025e-7 7.15728362295333e-8 1.2410297616356161e-7 1.0209561484705106e-8 1.2096188248325789e-8
          2.4517149825732188e-8 1.04351995896033e-7 1.0286855210059723e-7 1.2446417087402736e-7 1.2644110966431318e-7 8.161249582508181e-8
          1.2146689694647377e-7 1.1730655006464909e-7 1.216861221494459e-7 1.2593932223060856e-7 1.4421337003966305e-7 1.3731566028839025e-7
          1.299796542774869e-7 1.4747544684619512e-7 1.4070507014605869e-7 2.0864000206113332e-8 1.2135610113789071e-8 9.34427035189406e-9
          1.3467095916683301e-8 3.221141830235052e-8 1.7731678142538e-8 1.3288114418752775e-8 4.009586203091298e-8 2.6623996198647913e-8
          6.529034562017135e-8 9.302683692559884e-8 5.573139639680159e-8 9.591853089229973e-9 1.188825061514488e-8 5.510736454516472e-9
          7.235954584872778e-9 6.926347035937256e-8 7.500043362430172e-8 3.8465227470525476e-9 3.4973384517638644e-9 6.2312568187406326e-9
          1.929664456790843e-9 1.8333116847884344e-9 2.6640059168848715e-9 2.024250573309537e-9 1.5163104147073633e-9 2.026164888323311e-9
          3.737543039025091e-9 2.80307439264045e-9 1.743632741187243e-9 2.5144609685255927e-9 2.1561051468629146e-9 2.3176158376302e-9
          1.548242677393314e-9 2.8040347889103057e-9 2.052621845907745e-9 2.6735826925609863e-9 1.5224367979484194e-9 2.0516132359845994e-9
          3.628131681939856e-9 2.7472313926531347e-9 1.1225262503028104e-9 1.126088033837984e-9 8.194862766779035e-10 8.815478407646566e-10
          1.1620722164631249e-9 6.554148960904341e-9 5.912449553046704e-9 4.6707963835606875e-9 8.473250820178126e-9 7.710928153907398e-9
          4.733879478589606e-9 6.297118713907897e-9 1.0557381394291783e-8 9.713534221903725e-9 8.093789632507914e-9 1.2881414607249232e-8
          1.1900424143690157e-8 1.0023487993733505e-8 1.5079812625497376e-8 1.4023440192168716e-8 1.0691512841473032e-8 1.1956231246149864e-8
          5.063194107543769e-9 6.604204846386024e-9 8.28080822763294e-9 9.971987479535882e-9 1.601816398430756e-8 1.3731783966222544e-8
          1.210896282629152e-8 1.765217241004617e-8 1.5178075003978394e-8 1.325117424821968e-8 1.8726093671053182e-8 1.6122721585905665e-8
          1.4004403235050366e-8 1.9145015133533373e-8 1.6446946284018205e-8 1.4298888278840939e-8 1.1529194151299972e-8 1.2795884451772967e-8
          1.3628158191088418e-8 1.3919214490105506e-8 3.6405955931029923e-9 4.155718468797611e-9 1.3205741669017693e-8 1.5251227247545073e-8
        </DataArray>
        <DataArray type="Float64" Name="gradient_matprop_error" format="ascii" RangeMin="0" RangeMax="0">
          0 0 0 0 0 0
          0 0 0 0 0 0
          0 0 0 0 0 0
          0 0 0 0 0 0
          0 0 0 0 0 0
          0 0 0 0 0 0
          0 0 0 0 0 0
          0 0 0 0 0 0
          0 0 0 0 0 0
          0 0 0 0 0 0
          0 0 0 0 0 0
          0 0 0 0 0 0
          0 0 0 0 0 0
          0 0 0 0 0 0
          0 0 0 0 0 0
          0 0 0 0 0 0
          0 0 0 0 0 0
          0 0 0 0 0 0
          0 0 0 0 0 0
          0 0 0 0 0 0
          0 0 0 0 0 0
          0 0 0 0 0 0
          0 0 0 0 0 0
          0 0 0 0 0 0
          0 0 0 0 0 0
          0 0 0 0 0 0
          0 0 0 0 0 0
          0 0 0 0 0 0
          0 0 0 0 0 0
          0 0 0 0 0 0
          0 0 0 0 0 0
          0 0 0 0 0 0
          0 0 0 0 0 0
          0 0 0 0 0 0
          0 0 0 0 0 0
          0 0 0 0 0 0
          0 0 0 0 0 0
          0 0 0 0 0 0
          0 0 0 0 0 0
          0 0 0 0 0 0
          0 0 0 0 0 0
          0 0 0 0 0 0
          0 0 0 0 0 0
          0 0 0 0 0 0
          0 0 0 0 0 0
          0 0 0 0 0 0
          0 0 0 0 0 0
          0 0 0 0 0 0
          0 0 0 0 0 0
          0 0 0 0 0 0
          0 0 0 0 0 0
          0 0 0 0 0 0
          0 0 0 0 0 0
          0 0 0 0 0 0
          0 0 0 0 0 0
          0 0 0 0 0 0
          0 0 0 0 0 0
          0 0 0 0 0 0
          0 0 0 0 0 0
          0 0 0 0 0 0
          0 0 0 0 0 0
          0 0 0 0 0 0
          0 0 0 0 0 0
          0 0 0 0 0 0
          0 0 0 0 0 0
          0 0 0 0 0 0
          0 0 0 0 0 0
          0 0 0 0 0 0
          0 0 0 0 0 0
          0 0 0 0 0 0
          0 0 0 0 0 0
          0 0 0 0 0 0
          0 0 0 0 0 0
          0 0 0 0 0 0
          0 0 0 0 0 0
          0 0 0 0 0 0
          0 0 0 0 0 0
          0 0 0 0 0 0
          0 0 0 0 0 0
          0 0 0 0 0 0
          0 0 0 0 0 0
          0 0 0 0 0 0
          0 0 0 0 0 0
          0 0 0 0 0 0
          0 0 0 0 0 0
          0 0 0 0 0 0
          0 0 0 0 0 0
          0 0 0 0 0 0
          0 0 0 0 0 0
          0 0 0 0 0 0
          0 0 0 0 0 0
          0 0 0 0 0 0
          0 0 0 0 0 0
          0 0 0 0 0 0
          0 0 0 0 0 0
          0 0 0 0 0 0
          0 0 0 0 0 0
        </DataArray>
        <DataArray type="Float64" Name="initial_marker" format="ascii" RangeMin="0" RangeMax="2">
          0.5 0 0 2 2 2
          2 1 0.5 2 2 1
          0.5 0 2 2 2 1.75
          0 0 2 2 0 0
          0 0 0 0 0 0
          2 2 2 2 2 2
          2 1.5 2 2 2 0.5
          0 1 2 2 2 2
          2 2 2 2 2 2
          1 0 1 2 0 2
          0.5 2 2 2 2 2
          2 2 2 2 1.5 1.5
          2 2 2 2 1.25 1
          2 2 0.25 0 0 0
          0.5 0 0 0 0 0
          0 0 0 0 0 0
          0 2 2 2 2 2
          2 2 2 2 2 2
          2 0.5 0 0 0 0.5
          0 0 0 0 0 0
          0 0 0 0 2 2
          2 2 2 1 1 0
          1.5 1 1 1 1 0
          0 0 1.5 1.5 1 1.6666666666666667
          2 2 2 2 1.75 2
          2 1 1 1 1 0
          0 0 1.5 1.5 1 0.5
          0.75 0 0.5 0 0 0
          1.25 1 0.5 2 2 2
          2 2 2 2 2 2
          2 2 2 2 2 2
          2 2 2 2 2 2
          2 2 2 2 2 2
          2 2 2 2 2 2
          2 2 2 2 2 2
          2 2 2 2 2 2
          2 2 2 2 2 2
          2 2 2 2 2 2
          2 2 2 2 2 2
          2 2 2 2 2 2
          2 2 2 2 2 2
          2 2 2 2 2 2
          2 2 2 2 2 2
          2 2 2 2 2 2
          2 2 2 1.75 1.5 1.5
          1 2 2 1.3333333333333333 2 2
          2 2 2 2 2 2
          2 2 2 2 2 2
          1.75 2 2 2 2 2
          1.5 1.6666666666666667 2 2 2 1
          1 0 1 1 1 1
          1 0 0 0 1 1
          0 1 1 0.5 0.75 0
          0 0 1 1 0 0
          0.5 0 0.5 0 0 0
          1 1 0 2 2 2
          2 2 2 2 2 2
          2 2 2 2 2 2
          2 2 2 2 2 2
          2 2 2 2 2 2
          2 2 2 2 2 2
          2 2 2 2 2 2
          2 2 2 2 2 2
          2 2 2 2 2 2
          2 2 2 2 2 2
          2 2 2 2 2 2
          2 2 2 2 2 2
          2 2 2 2 2 2
          2 2 2 2 2 2
          2 2 2 2 2 2
          2 2 2 1 0 1
          1 1 0 0 1 1
          0 1 0 1 1 1
          0 0 1 1 0 1
          1 0 0 1 1 0
          1 1 0 0 1 1
          0 1 1 0 0 1
          1 0 1 1 0 0
          1 1 0 2 2 1.25
          1.5 2 0.25 0.6666666666666666 0 0
          0 2 2 2 2 2
          2 2 2 2 2 2
          2 2 2 1.5 1.5 0.25
          0.5 2 2 0.75 2 2
          2 2 2 0 0 0
          0 2 2 0 0 0
          0 0 2 2 2 2
          2 2 2 2 2 1.5
          2 2 2 2 2 2
          2 2 2 2 2 2
          1.5 2 2 2 2 2
          2 2 2 2 2 2
          2 2 2 2 2 2
          2 2 2 2 2 2
          2 2 2 2 2 2
          2 2 2 2 2 2
          2 2 2 2 2 2
        </DataArray>
        <DataArray type="Float64" Name="markers_norefine" format="ascii" RangeMin="0" RangeMax="0">
          0 0 0 0 0 0
          0 0 0 0 0 0
          0 0 0 0 0 0
          0 0 0 0 0 0
          0 0 0 0 0 0
          0 0 0 0 0 0
          0 0 0 0 0 0
          0 0 0 0 0 0
          0 0 0 0 0 0
          0 0 0 0 0 0
          0 0 0 0 0 0
          0 0 0 0 0 0
          0 0 0 0 0 0
          0 0 0 0 0 0
          0 0 0 0 0 0
          0 0 0 0 0 0
          0 0 0 0 0 0
          0 0 0 0 0 0
          0 0 0 0 0 0
          0 0 0 0 0 0
          0 0 0 0 0 0
          0 0 0 0 0 0
          0 0 0 0 0 0
          0 0 0 0 0 0
          0 0 0 0 0 0
          0 0 0 0 0 0
          0 0 0 0 0 0
          0 0 0 0 0 0
          0 0 0 0 0 0
          0 0 0 0 0 0
          0 0 0 0 0 0
          0 0 0 0 0 0
          0 0 0 0 0 0
          0 0 0 0 0 0
          0 0 0 0 0 0
          0 0 0 0 0 0
          0 0 0 0 0 0
          0 0 0 0 0 0
          0 0 0 0 0 0
          0 0 0 0 0 0
          0 0 0 0 0 0
          0 0 0 0 0 0
          0 0 0 0 0 0
          0 0 0 0 0 0
          0 0 0 0 0 0
          0 0 0 0 0 0
          0 0 0 0 0 0
          0 0 0 0 0 0
          0 0 0 0 0 0
          0 0 0 0 0 0
          0 0 0 0 0 0
          0 0 0 0 0 0
          0 0 0 0 0 0
          0 0 0 0 0 0
          0 0 0 0 0 0
          0 0 0 0 0 0
          0 0 0 0 0 0
          0 0 0 0 0 0
          0 0 0 0 0 0
          0 0 0 0 0 0
          0 0 0 0 0 0
          0 0 0 0 0 0
          0 0 0 0 0 0
          0 0 0 0 0 0
          0 0 0 0 0 0
          0 0 0 0 0 0
          0 0 0 0 0 0
          0 0 0 0 0 0
          0 0 0 0 0 0
          0 0 0 0 0 0
          0 0 0 0 0 0
          0 0 0 0 0 0
          0 0 0 0 0 0
          0 0 0 0 0 0
          0 0 0 0 0 0
          0 0 0 0 0 0
          0 0 0 0 0 0
          0 0 0 0 0 0
          0 0 0 0 0 0
          0 0 0 0 0 0
          0 0 0 0 0 0
          0 0 0 0 0 0
          0 0 0 0 0 0
          0 0 0 0 0 0
          0 0 0 0 0 0
          0 0 0 0 0 0
          0 0 0 0 0 0
          0 0 0 0 0 0
          0 0 0 0 0 0
          0 0 0 0 0 0
          0 0 0 0 0 0
          0 0 0 0 0 0
          0 0 0 0 0 0
          0 0 0 0 0 0
          0 0 0 0 0 0
          0 0 0 0 0 0
          0 0 0 0 0 0
        </DataArray>
        <DataArray type="Float64" Name="markers_mustrefine" format="ascii" RangeMin="0" RangeMax="2">
          0.5 0 0 2 2 2
          2 1 0.5 2 2 1
          0.5 0 2 2 2 1.75
          0 0 2 2 0 0
          0 0 0 0 0 0
          2 2 2 2 2 2
          2 1.5 2 2 2 0.5
          0 1 2 2 2 2
          2 2 2 2 2 2
          1 0 1 2 0 2
          0.5 2 2 2 2 2
          2 2 2 2 1.5 1.5
          2 2 2 2 1.25 1
          2 2 0.25 0 0 0
          0.5 0 0 0 0 0
          0 0 0 0 0 0
          0 2 2 2 2 2
          2 2 2 2 2 2
          2 0.5 0 0 0 0.5
          0 0 0 0 0 0
          0 0 0 0 2 2
          2 2 2 1 1 0
          1.5 1 1 1 1 0
          0 0 1.5 1.5 1 1.6666666666666667
          2 2 2 2 1.75 2
          2 1 1 1 1 0
          0 0 1.5 1.5 1 0.5
          0.75 0 0.5 0 0 0
          1.25 1 0.5 2 2 2
          2 2 2 2 2 2
          2 2 2 2 2 2
          2 2 2 2 2 2
          2 2 2 2 2 2
          2 2 2 2 2 2
          2 2 2 2 2 2
          2 2 2 2 2 2
          2 2 2 2 2 2
          2 2 2 2 2 2
          2 2 2 2 2 2
          2 2 2 2 2 2
          2 2 2 2 2 2
          2 2 2 2 2 2
          2 2 2 2 2 2
          2 2 2 2 2 2
          2 2 2 1.75 1.5 1.5
          1 2 2 1.3333333333333333 2 2
          2 2 2 2 2 2
          2 2 2 2 2 2
          1.75 2 2 2 2 2
          1.5 1.6666666666666667 2 2 2 1
          1 0 1 1 1 1
          1 0 0 0 1 1
          0 1 1 0.5 0.75 0
          0 0 1 1 0 0
          0.5 0 0.5 0 0 0
          1 1 0 2 2 2
          2 2 2 2 2 2
          2 2 2 2 2 2
          2 2 2 2 2 2
          2 2 2 2 2 2
          2 2 2 2 2 2
          2 2 2 2 2 2
          2 2 2 2 2 2
          2 2 2 2 2 2
          2 2 2 2 2 2
          2 2 2 2 2 2
          2 2 2 2 2 2
          2 2 2 2 2 2
          2 2 2 2 2 2
          2 2 2 2 2 2
          2 2 2 1 0 1
          1 1 0 0 1 1
          0 1 0 1 1 1
          0 0 1 1 0 1
          1 0 0 1 1 0
          1 1 0 0 1 1
          0 1 1 0 0 1
          1 0 1 1 0 0
          1 1 0 2 2 1.25
          1.5 2 0.25 0.6666666666666666 0 0
          0 2 2 2 2 2
          2 2 2 2 2 2
          2 2 2 1.5 1.5 0.25
          0.5 2 2 0.75 2 2
          2 2 2 0 0 0
          0 2 2 0 0 0
          0 0 2 2 2 2
          2 2 2 2 2 1.5
          2 2 2 2 2 2
          2 2 2 2 2 2
          1.5 2 2 2 2 2
          2 2 2 2 2 2
          2 2 2 2 2 2
          2 2 2 2 2 2
          2 2 2 2 2 2
          2 2 2 2 2 2
          2 2 2 2 2 2
        </DataArray>
        <DataArray type="Float64" Name="gradient_marker" format="ascii" RangeMin="0" RangeMax="1">
          0.25 1 1 0.75 1 0.75
          0.375 0.625 0.25 0.5 0.25 0.75
          0.75 1 1 1 1 1
          0.5 1 1 1 0.5 0
          0 0.5 1 1 0.5 1
          0 0.5 0.5 0.3333333333333333 0.75 0
          0 0 0 0 0 0
          0 0 0.25 0 0.5 0.25
          0.125 0 0 0.5 0.25 0
          0 0 0 1 1 1
          1 0.125 1 1 1 1
          1 1 0 1 0 0.875
          0 1 0 1 1 1
          1 1 0 0.625 0 0.5