<?xml version="1.0"?>
<VTKFile type="UnstructuredGrid" version="0.1" byte_order="LittleEndian" header_type="UInt32" compressor="vtkZLibDataCompressor">
  <UnstructuredGrid>
    <Piece NumberOfPoints="600" NumberOfCells="342">
      <PointData>
        <DataArray type="Int32" Name="libmesh_node_id" format="ascii" RangeMin="276" RangeMax="5319">
          295 376 384 385 815 816
          818 819 821 822 823 824
          825 826 827 828 829 830
          831 832 833 834 835 836
          957 958 959 960 961 962
          963 964 965 966 967 968
          969 970 1747 1748 1749 1750
          1751 1752 1753 1754 1755 1756
          1757 1758 1759 1760 1761 1762
          1763 1764 1765 1766 1767 1768
          1769 1771 1772 1773 1774 1775
          1776 1777 1778 1779 1780 1781
          1782 1784 1785 1786 1788 1789
          1790 1791 1792 1793 1794 1795
          1796 1797 1798 1799 1800 1801
          1802 1803 1804 1805 1806 1807
          1808 1809 1810 1811 1812 1813
          1815 1816 1817 1821 1822 1825
          1827 1972 1973 1974 1975 1976
          1977 1978 1979 1980 1981 1982
          1983 1984 1985 1986 1987 1988
          1989 1990 1991 1992 1993 1994
          1995 1996 1997 1998 1999 2000
          2001 2002 2003 2004 2005 2006
          2007 2008 2011 2012 2015 4985
          4986 4987 4988 4989 4990 4991
          4992 4993 4994 4995 4996 4997
          4998 4999 5000 5001 5002 5003
          5004 5005 5006 5007 5008 5009
          5010 5011 5012 5013 5014 5015
          5016 5017 5018 5019 5020 5021
          5022 5023 5024 5025 5026 5027
          5028 5029 5030 5031 5032 5033
          5034 5035 5036 5037 5038 5039
          5040 5041 5042 5043 5044 5045
          5046 5047 5048 5049 5050 5051
          5052 5053 5054 5055 5056 5057
          5058 5059 5060 5061 5062 5063
          5064 5065 5066 5067 5068 5069
          5072 5073 5075 5078 5080 5081
          5082 5083 5084 5085 5086 5087
          5088 5089 5091 5093 5095 5097
          5098 5099 5100 5101 5102 5103
          5104 5105 5106 5107 5108 5109
          5110 5111 5112 5113 5114 5115
          5116 5117 5118 5119 5120 5123
          5124 5127 5129 5132 5134 5136
          5138 5139 5140 5141 5142 5143
          5144 5146 5148 5150 5154 5155
          5157 5160 5162 5163 5164 5165
          5166 5167 5168 5169 5170 5171
          5173 5175 5177 5179 5180 5181
          5182 5183 5184 5185 5188 5189
          5191 5194 5196 5197 5198 5199
          5200 5201 5202 5203 5204 5205
          5207 5209 5211 5213 5214 5215
          5216 5217 5218 5219 5220 5221
          5222 5223 5224 5225 5226 5227
          5228 5229 5230 5231 5232 5233
          5234 5235 5236 5237 5238 5239
          5240 5241 5242 5243 5244 5245
          5246 5247 5248 5249 5250 5251
          5252 5253 5254 5255 5256 5257
          5258 5259 5260 5262 5264 5266
          5268 5269 5270 5271 5272 5273
          5274 5276 5280 5282 5283 5284
          5285 5286 5287 5288 5289 5290
          5291 5293 5295 5297 5299 5300
          5301 5302 5303 5304 5305 5307
          5311 5313 5314 5315 5316 5317
          5318 5319 374 287 378 375
          379 380 377 383 382 386
          296 387 813 817 814 749
          820 364 751 754 839 837
          840 838 845 844 883 884
          891 892 950 771 951 772
          952 953 366 777 1415 1450
          1452 1435 1465 1467 1469 1770
          1783 1787 1819 1814 1820 1823
          1824 1818 1826 1828 1000 1892
          1893 1001 276 1407 1408 1409
          1412 750 2009 2010 2013 2014
          3201 3202 3203 3206 1449 3209
          3240 3241 3243 365 3246 1455
          3226 3256 3258 3260 757 3336
          3356 3358 3360 4070 4071 4073
          1591 4076 1592 4086 4088 4090
          1594 4104 5070 5071 4105 5074
          4107 5076 5077 5079 5090 4120
          5092 4122 5094 5096 4190 4192
          4194 1607 5121 3377 5122 4204
          5125 5126 5128 4208 5130 5131
          4218 5133 4220 5135 5137 5145
          4232 5147 5149 5151 5152 5153
          5156 5158 5159 5161 5172 5174
          5176 5178 5186 5187 5190 5192
          5193 5195 5206 5208 5210 5212
          5261 5263 5265 5267 5275 5278
          5277 5279 5281 5292 5294 5296
          5298 5306 5309 5308 5310 5312
        </DataArray>
        <DataArray type="Float64" Name="bounds" format="ascii" RangeMin="0" RangeMax="0">
          0 0 0 0 0 0
          0 0 0 0 0 0
          0 0 0 0 0 0
          0 0 0 0 0 0
          0 0 0 0 0 0
          0 0 0 0 0 0
          0 0 0 0 0 0
          0 0 0 0 0 0
          0 0 0 0 0 0
          0 0 0 0 0 0
          0 0 0 0 0 0
          0 0 0 0 0 0
          0 0 0 0 0 0
          0 0 0 0 0 0
          0 0 0 0 0 0
          0 0 0 0 0 0
          0 0 0 0 0 0
          0 0 0 0 0 0
          0 0 0 0 0 0
          0 0 0 0 0 0
          0 0 0 0 0 0
          0 0 0 0 0 0
          0 0 0 0 0 0
          0 0 0 0 0 0
          0 0 0 0 0 0
          0 0 0 0 0 0
          0 0 0 0 0 0
          0 0 0 0 0 0
          0 0 0 0 0 0
          0 0 0 0 0 0
          0 0 0 0 0 0
          0 0 0 0 0 0
          0 0 0 0 0 0
          0 0 0 0 0 0
          0 0 0 0 0 0
          0 0 0 0 0 0
          0 0 0 0 0 0
          0 0 0 0 0 0
          0 0 0 0 0 0
          0 0 0 0 0 0
          0 0 0 0 0 0
          0 0 0 0 0 0
          0 0 0 0 0 0
          0 0 0 0 0 0
          0 0 0 0 0 0
          0 0 0 0 0 0
          0 0 0 0 0 0
          0 0 0 0 0 0
          0 0 0 0 0 0
          0 0 0 0 0 0
          0 0 0 0 0 0
          0 0 0 0 0 0
          0 0 0 0 0 0
          0 0 0 0 0 0
          0 0 0 0 0 0
          0 0 0 0 0 0
          0 0 0 0 0 0
          0 0 0 0 0 0
          0 0 0 0 0 0
          0 0 0 0 0 0
          0 0 0 0 0 0
          0 0 0 0 0 0
          0 0 0 0 0 0
          0 0 0 0 0 0
          0 0 0 0 0 0
          0 0 0 0 0 0
          0 0 0 0 0 0
          0 0 0 0 0 0
          0 0 0 0 0 0
          0 0 0 0 0 0
          0 0 0 0 0 0
          0 0 0 0 0 0
          0 0 0 0 0 0
          0 0 0 0 0 0
          0 0 0 0 0 0
          0 0 0 0 0 0
          0 0 0 0 0 0
          0 0 0 0 0 0
          0 0 0 0 0 0
          0 0 0 0 0 0
          0 0 0 0 0 0
          0 0 0 0 0 0
          0 0 0 0 0 0
          0 0 0 0 0 0
          0 0 0 0 0 0
          0 0 0 0 0 0
          0 0 0 0 0 0
          0 0 0 0 0 0
          0 0 0 0 0 0
          0 0 0 0 0 0
          0 0 0 0 0 0
          0 0 0 0 0 0
          0 0 0 0 0 0
          0 0 0 0 0 0
          0 0 0 0 0 0
          0 0 0 0 0 0
          0 0 0 0 0 0
          0 0 0 0 0 0
          0 0 0 0 0 0
          0 0 0 0 0 0
        </DataArray>
        <DataArray type="Float64" Name="gradient_error" format="ascii" RangeMin="6.4415721029457844e-12" RangeMax="4.5075008988184904e-10">
          2.0233103919091867e-11 5.384592030932955e-11 2.3345822605890432e-11 8.846107135515561e-11 4.398741362706569e-11 6.17758232461639e-11
          6.267844701049281e-11 6.333132986051394e-11 1.0847332994027942e-10 6.462600095812684e-11 5.092867296561078e-11 4.1857554626802954e-11
          3.761407172358061e-11 8.623120966858599e-11 3.248768258272243e-11 2.6885484742796662e-11 2.037847656604914e-11 1.8420040201976054e-11
          6.073456195563769e-11 4.688230649583408e-11 3.3218568350427276e-11 3.1507213821852926e-11 2.1088817249194664e-11 5.974259829600906e-11
          1.6438515399642418e-11 1.6349441686453032e-11 1.7808192869309488e-11 1.7921940063087957e-11 1.2744683632806618e-11 1.0508877768142195e-11
          1.2659504361335074e-11 1.6260367973263645e-11 1.803568725686643e-11 1.4810130954527953e-11 1.917787033897656e-11 1.9494438439722885e-11
          1.2574325089863529e-11 1.981100654046921e-11 2.8122483504707967e-11 3.848905775262741e-11 3.5382641451193e-11 4.4459093572454395e-11
          2.6133329354591397e-11 5.300949994662838e-11 5.003451108461524e-11 4.9156517524911505e-11 4.659484576414207e-11 4.2392492347899544e-11
          4.4786031774311155e-11 4.0683682542217184e-11 3.559590143265606e-11 3.11705570021608e-11 4.4602359555734985e-11 4.7638809683103554e-11
          2.8753824845566157e-11 3.672509625302281e-11 3.90345581702088e-11 5.5335645060067297e-11 3.572473003284864e-11 4.003245375458998e-11
          3.212583175742358e-11 6.214481127868593e-11 5.488473182526641e-11 3.036238054844103e-11 2.7826138364620677e-11 3.9013524615821964e-11
          2.1990515501104664e-11 1.0667209305145845e-10 9.304812565321406e-11 2.931007579234009e-11 6.392980558455146e-11 3.9445925553435215e-11
          3.3054115259113133e-11 4.8646351315239573e-11 4.655689498987291e-11 3.3019282549816677e-11 1.4890997463681691e-10 1.290563627164731e-10
          2.9891838594120744e-11 2.6419229220072357e-11 8.693468506762934e-11 2.881810703625111e-11 1.66868915938209e-10 1.443266520010148e-10
          2.928069545086239e-11 9.650444174327775e-11 2.3568752199044105e-11 2.194000695302274e-11 1.2632172924566996e-11 1.1875920641710184e-11
          1.4987471314686255e-11 1.711226756461692e-11 1.6379133990147455e-11 2.3415691528258337e-11 2.1984143567875894e-11 1.5140247218822275e-11
          1.3431120698705257e-11 1.2586679834180235e-11 1.707459751460212e-11 2.3512295585695777e-11 5.00907807427661e-11 2.780653562331577e-11
          3.831137662638058e-11 5.505978523388917e-11 3.0110715922191236e-11 5.722379192050376e-11 6.562754857866004e-11 5.5747568581490044e-11
          6.872219239317375e-11 1.9604578344872957e-11 1.9703018066948106e-11 2.7691364191700008e-11 2.665037916740647e-11 1.452783564039572e-11
          1.6110497468606728e-11 1.7678054336789028e-11 1.9801457789023255e-11 2.560939414311293e-11 1.9245611204971328e-11 2.1704929286016566e-11
          2.0323324327119986e-11 2.8373550607989026e-11 2.641124736720952e-11 1.3614397933417578e-11 1.468179944642218e-11 1.3952835048548651e-11
          1.7330671417483994e-11 2.1880053273738468e-11 1.230572430225308e-11 1.4520044359463101e-11 1.7376857955767736e-11 1.0662740719663018e-11
          1.1617291224982626e-11 1.3320465252181619e-11 1.5442553490488536e-11 1.1847004496134216e-11 2.285568360351695e-11 1.3641008791942834e-11
          1.9156827081894505e-11 2.7294432638799672e-11 1.5269989172406414e-11 2.196827090582835e-11 1.590548432284627e-11 2.911116962263781e-11
          1.5829802491229395e-11 2.3187529376663146e-11 4.376825997314245e-11 4.7841469525001817e-11 4.4828644135853366e-11 1.194691093375984e-11
          1.2011593150051333e-11 1.5814278650141313e-11 1.546819075990913e-11 9.441317264171463e-12 1.1305254556079726e-11 1.1747166135010893e-11
          1.2076275366342824e-11 1.512210286967695e-11 1.2189077713942058e-11 2.5684764119510918e-11 2.4799988694000515e-11 1.7759913408672766e-11
          2.4739751909010978e-11 4.038985642626715e-11 3.9214944749406135e-11 2.7449694190152713e-11 2.6786225805952758e-11 3.6007120444052355e-11
          2.487166116668779e-11 6.192541710098055e-11 6.012237793215484e-11 3.405534489116964e-11 5.5101663509118054e-11 2.45760550186372e-11
          3.1563977782330654e-11 1.79395995401932e-11 2.2018391919606033e-11 2.0900384813105077e-11 2.667082525902002e-11 1.8746210595362628e-11
          4.796339034567597e-11 2.752947892786411e-11 4.003037052856597e-11 1.7417348804431094e-11 2.1777629023059216e-11 1.3319437238718961e-11
          1.611904005078664e-11 1.5797208829873716e-11 1.936735527718012e-11 1.5161877838437307e-11 3.2091457285569667e-11 1.922047793428635e-11
          2.702531741034959e-11 9.123751984796794e-11 8.835237208691292e-11 4.4129223237919986e-11 4.2847078728609686e-11 8.039762106165122e-11
          3.928769891513395e-11 1.2915415419299597e-10 1.2481653138047698e-10 6.021331520053479e-11 1.1288227278126938e-10 1.695071992937698e-11
          1.6545381253443532e-11 2.091423426221853e-11 2.03769214944674e-11 1.1891111663194776e-11 1.3979856277014568e-11 1.3658379963252808e-11
          1.538693831392651e-11 1.8854907435870578e-11 1.2714901734894633e-11 2.935744766621497e-11 2.8527144994788527e-11 1.8170299389695235e-11
          2.6211558835785818e-11 6.921978730137212e-11 3.422529366199489e-11 5.696860350488251e-11 2.8562918050571678e-11 9.618607899600894e-11
          4.735716378083628e-11 7.81099871307923e-11 1.3660857262422277e-11 1.663785775279024e-11 9.941698004288046e-12 1.1315615822092784e-11
          1.1663548916592133e-11 1.4090334627454486e-11 9.661497729773617e-12 2.291646231983729e-11 1.4817036150236945e-11 1.9173949113797035e-11
          8.344824311294968e-11 8.071391465673667e-11 7.318409165306653e-11 1.0304084784706975e-10 3.89541584132336e-11 3.777969686191138e-11
          2.4680175877263688e-11 2.398068874392118e-11 3.4525475438292396e-11 2.2020091794536627e-11 4.921813840206295e-11 4.7669992359322596e-11
          2.4211361051900336e-11 4.3381768156942874e-11 6.261260628908297e-11 5.10413878133175e-11 7.907467823596842e-11 2.993530584054064e-11
          1.9268057983034256e-11 2.4810042555712428e-11 1.6138962130224175e-11 3.7406669171740466e-11 1.9224205516172903e-11 3.0833152620285987e-11
          4.535962738982041e-11 2.297503212415618e-11 3.485279555380856e-11 2.0541878834030814e-11 6.153125806736352e-11 3.086693296308377e-11
          4.71644997165276e-11 9.63922995832963e-12 1.142838553818995e-11 7.346385167377278e-12 8.272303244798637e-12 8.639242557976615e-12
          1.008161118202652e-11 7.759942853937391e-12 1.524234931561053e-11 1.0600137482397984e-11 1.3243449695092008e-11 1.550708068113383e-11
          1.828511918551022e-11 1.547330558930859e-11 2.4685918853293658e-11 3.99162075492736e-11 3.4979824212672375e-11 4.962805198345844e-11
          1.955635571276621e-11 1.356887639900866e-11 1.69175224291932e-11 1.26369625251429e-11 2.4241690847444413e-11 1.6484833979573204e-11
          1.9808135145919533e-11 3.1727818066073194e-11 2.7688673383066657e-11 3.174316831711293e-11 1.2943678979780267e-10 1.249151710112314e-10
          1.1247152393138006e-10 1.4362249891707816e-10 5.89067531741335e-11 5.699580066379455e-11 2.5882829898316695e-11 2.5111568642389974e-11
          5.171606480904025e-11 2.295556897363714e-11 6.72129664981805e-11 6.498650854754387e-11 2.8979336489055332e-11 5.884493943991995e-11
          9.510322554678706e-11 7.640578517183783e-11 1.0873008500051598e-10 4.4482337194686666e-11 1.9753155764531632e-11 3.65773138511659e-11
          1.9007732140062816e-11 5.0488030434278764e-11 2.2607310929996023e-11 4.1385422796843924e-11 1.6216218817859743e-10 1.5635194007919747e-10
          1.4032669934136057e-10 1.6087268758563575e-10 7.300987416771084e-11 7.05619917098685e-11 3.2359919481362885e-11 3.1356274495414247e-11
          6.380809729556149e-11 2.8542332629425705e-11 7.504221497229912e-11 7.251614840333016e-11 3.218318520552866e-11 6.554561877830562e-11
          1.1795423532587032e-10 9.400871674903491e-11 1.2122124137054236e-10 5.461576670232947e-11 2.436019712514078e-11 4.4626947414466155e-11
          2.3171378574513063e-11 5.605935386655873e-11 2.49715642978395e-11 4.57606789191519e-11 1.039123274862377e-11 1.0110901564837859e-11
          1.1505450874849645e-11 1.1194815401384107e-11 7.638857914291767e-12 7.776246634935882e-12 7.580871649051517e-12 9.361455740481259e-12
          1.0337691158089387e-11 7.0301199979409475e-12 1.3278433610705398e-11 1.2913178748476784e-11 7.95052260925154e-12 1.1885770117377686e-11
          8.155764252881332e-12 8.962007734387229e-12 6.44833759806019e-12 6.558157717830265e-12 7.419187405852097e-12 8.132813080514255e-12
          6.4415721029457844e-12 1.024100145284479e-11 7.0229163824217186e-12 9.258386557182377e-12 1.4292002838833891e-11 1.3890064262726248e-11
          8.79001725179626e-12 8.56587034561469e-12 1.2764466285631746e-11 7.930976638111177e-12 1.4646807457332503e-11 1.4232500266429288e-11
          8.753580856537567e-12 1.3071318912205633e-11 1.0968336309625713e-11 7.534670355673055e-12 9.895865734606543e-12 7.54911087455688e-12
          1.122292092945497e-11 7.691485784103013e-12 1.0121397110024744e-11 5.90479442028176e-11 4.424398074947649e-11 6.688688533943069e-11
          2.8807116984259624e-11 1.90081552511239e-11 2.2009858290137987e-11 1.5121596027636785e-11 3.253205292394778e-11 2.1161933695203215e-11
          2.4843160130443504e-11 3.2557902460676534e-11 3.671127142202805e-11 1.523742225190607e-11 1.640675724457113e-11 1.1940503163144421e-11
          1.2034907752398327e-11 1.3027888667042137e-11 1.3870797099802184e-11 1.0690699468086917e-11 1.8346066396132876e-11 1.2719902261363275e-11
          1.5345305371211318e-11 7.207464250659195e-11 5.3772101050895134e-11 7.389251672373049e-11 3.493997502612608e-11 2.268538769636782e-11
          2.6563381432649123e-11 1.743383974518394e-11 3.5792250390348644e-11 2.3229249700871945e-11 2.7184019102947326e-11 3.925816373283841e-11
          4.016831512502724e-11 1.9546020983702952e-11 1.3581579848052037e-11 1.632078239098966e-11 1.2128836876724146e-11 1.997600141237634e-11
          1.3852667515029757e-11 1.6664659572118913e-11 5.089883323359107e-11 1.07766946817588e-10 1.0097369765194445e-10 1.3848569625447687e-10
          4.025285669820957e-11 8.179330421517775e-11 9.309637329823957e-11 1.63169208128582e-10 3.777857750930619e-10 7.655249613635592e-11
          2.434567209125182e-10 4.5075008988184904e-10 4.0855451614992273e-11 4.152019626246722e-11 6.395125880220216e-11 1.2631199620755232e-10
          9.042782917064123e-11 2.3965304348935573e-10 7.847770055885257e-11 1.915913215828963e-10 9.739122726507034e-11 1.477276934834047e-10
          1.2292525150432043e-10 1.5548696906581773e-10 1.3447706191173306e-10 1.717168045333865e-10 2.1597250187092432e-11 3.167581897052105e-11
          2.214508436568404e-11 3.624263624248562e-11 9.449474471033959e-11 3.106233234973078e-10 1.2622925562498185e-10 3.2684022835672405e-10
          6.55124890925852e-11 7.446075126290904e-11 1.0392934002114176e-10 2.635929454768716e-10 6.534937214328612e-11 5.2933145595712734e-11
          4.9672654305017224e-11 7.897072688418782e-11 6.193897502732748e-11 1.0582114772707524e-10 5.59951021239537e-11 6.115241507430198e-11
          7.30971851432589e-11 6.375699772903553e-11 8.109404019683965e-11 4.167178139417919e-11 7.026571032194929e-11 7.981882333064694e-11
          9.178456672070783e-11 4.505294518951863e-11 7.395310352855231e-11 9.575603488374582e-11 1.393763033271255e-10 4.714304738878366e-11
          5.136630868053446e-11 1.415584939985239e-10 1.1331247950773265e-10 3.83481969968379e-11 6.803787321324885e-11 6.353424552313889e-11
          6.241943290561275e-11 5.907953446251397e-11 6.337663704629364e-11 7.945806967135323e-11 5.1167438051144994e-11 6.149599307738452e-11
          2.1252181363441328e-11 2.908757573442221e-11 2.808205837675921e-11 2.907238005291883e-11 4.817781988750539e-11 4.659929447449544e-11
          7.757910251284842e-11 7.537184328610816e-11 6.921549100591606e-11 1.2094063770876394e-10 1.1713530450731884e-10 1.066542161096783e-10
          4.423835093650746e-11 6.037811645824004e-11 5.0449719141889616e-11 9.190758040599172e-11 7.569213971938966e-11 3.087161020890486e-11
          4.048489680799036e-11 3.59892102673337e-11 5.998005746126802e-11 1.8159857006056812e-10 1.754614892536889e-10 1.5858414326007283e-10
          2.6148380860168377e-10 2.5215673320600466e-10 2.2647721834975054e-10 1.3500953281499577e-10 1.0955192940695892e-10 1.907111599175447e-10
          1.5255095319685485e-10 3.5910516467087143e-10 1.7554459744930554e-10 1.693738184945595e-10 3.4581859552673765e-10 1.5238160266764237e-10
          3.091001496448038e-10 2.2681280155667288e-10 2.1858676925750955e-10 1.9588141574481317e-10 1.2867445940154834e-10 2.5790470740335474e-10
          1.0325806233184233e-10 2.03652140920406e-10 1.6420382156586902e-10 1.3044448326151615e-10 8.579333817502446e-11 6.534002297719763e-11
          1.1766673536942708e-10 8.84289352924407e-11 2.114321304530598e-11 4.05228738294908e-11 2.5492903253557298e-11 4.880061740169122e-11
          1.754040576046788e-11 2.117381997467295e-11 3.462044906506909e-11 6.504123042141774e-11 2.8840961567662557e-11 8.025104229480112e-11
          1.5482144673176712e-10 6.080170908440487e-11 1.1475173009982453e-10 1.0007828556347959e-10 7.488833325162412e-11 4.433985670583219e-11
          8.332480182762269e-11 3.6851008176397604e-11 5.4376040256685426e-11 4.167269024955789e-11 2.776419456123963e-10 2.67375257905876e-10
          2.389424481974245e-10 3.212714967161147e-10 3.0926222371498935e-10 2.758900920225326e-10 1.992012755268902e-10 1.569945648281353e-10
          2.2912811193831302e-10 1.795448842040721e-10 3.5089621384865066e-10 3.3771155491477565e-10 3.009805801404406e-10 3.6140464536314793e-10
          3.478049027145649e-10 3.098821942299449e-10 2.4940639661023986e-10 1.947557584964067e-10 2.565929325343913e-10 2.0013579377757564e-10
          1.19064638607516e-10 8.803805074936631e-11 1.3512795102903444e-10 9.914630612190078e-11 6.401043839724207e-11 2.7607412263817428e-11
          4.5676858470116423e-11 7.193846455278976e-11 5.1489338209151384e-11 1.4599481816769345e-10 1.0672455295961117e-10 1.498202582704549e-10
          1.0936671326099571e-10 7.714960851351024e-11 3.241902988256175e-11 5.495803282872616e-11 7.897249294588907e-11 5.6195734508219604e-11
        </DataArray>
        <DataArray type="Float64" Name="gradient_matprop_error" format="ascii" RangeMin="0" RangeMax="0">
          0 0 0 0 0 0
          0 0 0 0 0 0
          0 0 0 0 0 0
          0 0 0 0 0 0
          0 0 0 0 0 0
          0 0 0 0 0 0
          0 0 0 0 0 0
          0 0 0 0 0 0
          0 0 0 0 0 0
          0 0 0 0 0 0
          0 0 0 0 0 0
          0 0 0 0 0 0
          0 0 0 0 0 0
          0 0 0 0 0 0
          0 0 0 0 0 0
          0 0 0 0 0 0
          0 0 0 0 0 0
          0 0 0 0 0 0
          0 0 0 0 0 0
          0 0 0 0 0 0
          0 0 0 0 0 0
          0 0 0 0 0 0
          0 0 0 0 0 0
          0 0 0 0 0 0
          0 0 0 0 0 0
          0 0 0 0 0 0
          0 0 0 0 0 0
          0 0 0 0 0 0
          0 0 0 0 0 0
          0 0 0 0 0 0
          0 0 0 0 0 0
          0 0 0 0 0 0
          0 0 0 0 0 0
          0 0 0 0 0 0
          0 0 0 0 0 0
          0 0 0 0 0 0
          0 0 0 0 0 0
          0 0 0 0 0 0
          0 0 0 0 0 0
          0 0 0 0 0 0
          0 0 0 0 0 0
          0 0 0 0 0 0
          0 0 0 0 0 0
          0 0 0 0 0 0
          0 0 0 0 0 0
          0 0 0 0 0 0
          0 0 0 0 0 0
          0 0 0 0 0 0
          0 0 0 0 0 0
          0 0 0 0 0 0
          0 0 0 0 0 0
          0 0 0 0 0 0
          0 0 0 0 0 0
          0 0 0 0 0 0
          0 0 0 0 0 0
          0 0 0 0 0 0
          0 0 0 0 0 0
          0 0 0 0 0 0
          0 0 0 0 0 0
          0 0 0 0 0 0
          0 0 0 0 0 0
          0 0 0 0 0 0
          0 0 0 0 0 0
          0 0 0 0 0 0
          0 0 0 0 0 0
          0 0 0 0 0 0
          0 0 0 0 0 0
          0 0 0 0 0 0
          0 0 0 0 0 0
          0 0 0 0 0 0
          0 0 0 0 0 0
          0 0 0 0 0 0
          0 0 0 0 0 0
          0 0 0 0 0 0
          0 0 0 0 0 0
          0 0 0 0 0 0
          0 0 0 0 0 0
          0 0 0 0 0 0
          0 0 0 0 0 0
          0 0 0 0 0 0
          0 0 0 0 0 0
          0 0 0 0 0 0
          0 0 0 0 0 0
          0 0 0 0 0 0
          0 0 0 0 0 0
          0 0 0 0 0 0
          0 0 0 0 0 0
          0 0 0 0 0 0
          0 0 0 0 0 0
          0 0 0 0 0 0
          0 0 0 0 0 0
          0 0 0 0 0 0
          0 0 0 0 0 0
          0 0 0 0 0 0
          0 0 0 0 0 0
          0 0 0 0 0 0
          0 0 0 0 0 0
          0 0 0 0 0 0
          0 0 0 0 0 0
          0 0 0 0 0 0
        </DataArray>
        <DataArray type="Float64" Name="initial_marker" format="ascii" RangeMin="0" RangeMax="2">
          0 0 0 0 0 0
          0 0 0 0 0 0
          0 0 1.5 1 0 0
          0 0 2 1.5 0 0
          0 0 0 0 0 0
          0 0 0 0 0 0
          0 0 0 0 0.5 0.25
          0 0 0 0 0 0
          1.5 1.5 0 1 0 0
          0 0 0 0 0 0
          0 2 2 1 0.75 2
          0.25 2 2 1.25 2 1
          0 0 1.75 0 2 2
          2 2 2 1.25 2 2
          2 2 0 0 0 0
          0 0 0 0 0 0
          0 0 0 0 2 0.25
          0 2 0.5 0 0 0
          0 0 0 0 0 0
          0 0 0 0 0 0
          0 0 0 0 0 0
          0 0 0 0 0 0
          0 0 0 0 0 0
          0 0 0 0 0 0
          0 0 0 0 0 0
          0 0.5 0.5 0 0 0
          0 0.5 0 1.5 1.5 1
          1.3333333333333333 2 2 2 2 1.75
          1.5 2 2 2 2 1
          1.5 0 1 1 1.25 0.5
          2 2 1.75 0.5 0.75 0
          0 0 0.5 0 1.25 0.3333333333333333
          1 2 2 2 2 2
          2 2 2 2 2 1
          1 1.5 1.5 0 1 1
          1 1.25 0.5 2 2 2
          1.75 2 2 2 1.75 2
          2 2 1 1 0 0
          0.5 0.75 0 1.5 1 1.25
          2 2 2 2 2 2
          2 2 2 2 2 2
          2 2 2 2 2 2
          2 1.75 1.5 2 1.3333333333333333 2
          1.75 1 1.25 0.3333333333333333 2 1.75
          1.75 0 0.25 0 0 0
          0 0 0.75 0 0.5 0
          0 0 0.5 2 2 2
          1.25 0.5 1 0 1.5 1
          1 1 0 1.3333333333333333 2 2
          2 2 2 2 2 2
          2 1.75 2 2 2 2
          2 2 2 2 1.25 2
          1.3333333333333333 2 1.75 2 2 2
          2 2 2 2 2 2
          2 2 2 2 2 2
          2 2 2 2 2 2
          2 2 2 2 1 1
          1 1 0 0 0 0.5
          0.75 0 1 1 0 1
          0 0.25 0 0 0 0
          0 0.75 0 0.5 1 1
          0 0 1 0 1 1
          0 1 1 0 1 0
          1 0 1 2 2 2
          1.5 1 1 0 1.75 1.5
          1.25 1.5 1.5 0.5 0.5 0
          0 0 0 0 0.5 0
          0 2 2 2 2 2
          1.5 1 2 2 1.5 1.5
          1.5 0.5 0 0 0 0.5
          0 0 0 0 0 0
          0 0 0 0 0 0
          0 0 0 0 0 0
          0 0 0 0 0 0
          0 0 0 0 0 0
          0 0 0 0 0 0
          0 0 0.25 0 0.25 1.75
          1.5 0 0.25 0 1.75 0
          0 0.25 0 0.5 0 0
          0 0.5 0 0 0 0
          0 0 0 0 0 0
          0 0.5 0 0 0 0
          1 1.5 1.5 1.3333333333333333 2 2
          2 2 2 2 2 2
          2 2 2 2 2 1.3333333333333333
          1.75 1.3333333333333333 2 2 2 2
          2 2 2 2 2 2
          2 2 2 2 2 2
          2 2 2 2 2 2
          2 2 2 2 2 2
          2 2 0.5 1.3333333333333333 0.5 1.5
          0 0 1 1.75 0.5 2
          2 2 2 2 2 1.5
          2 1 1.75 1.3333333333333333 2 2
          2 2 2 2 2 2
          2 2 2 2 2 2
          2 2 2 2 2 2
          2 2 2 2 2 0.6666666666666666
          1.5 2 1.5 2 2 2
          2 2 0.6666666666666666 1.5 2 1.5
        </DataArray>
        <DataArray type="Float64" Name="markers_norefine" format="ascii" RangeMin="0" RangeMax="0">
          0 0 0 0 0 0
          0 0 0 0 0 0
          0 0 0 0 0 0
          0 0 0 0 0 0
          0 0 0 0 0 0
          0 0 0 0 0 0
          0 0 0 0 0 0
          0 0 0 0 0 0
          0 0 0 0 0 0
          0 0 0 0 0 0
          0 0 0 0 0 0
          0 0 0 0 0 0
          0 0 0 0 0 0
          0 0 0 0 0 0
          0 0 0 0 0 0
          0 0 0 0 0 0
          0 0 0 0 0 0
          0 0 0 0 0 0
          0 0 0 0 0 0
          0 0 0 0 0 0
          0 0 0 0 0 0
          0 0 0 0 0 0
          0 0 0 0 0 0
          0 0 0 0 0 0
          0 0 0 0 0 0
          0 0 0 0 0 0
          0 0 0 0 0 0
          0 0 0 0 0 0
          0 0 0 0 0 0
          0 0 0 0 0 0
          0 0 0 0 0 0
          0 0 0 0 0 0
          0 0 0 0 0 0
          0 0 0 0 0 0
          0 0 0 0 0 0
          0 0 0 0 0 0
          0 0 0 0 0 0
          0 0 0 0 0 0
          0 0 0 0 0 0
          0 0 0 0 0 0
          0 0 0 0 0 0
          0 0 0 0 0 0
          0 0 0 0 0 0
          0 0 0 0 0 0
          0 0 0 0 0 0
          0 0 0 0 0 0
          0 0 0 0 0 0
          0 0 0 0 0 0
          0 0 0 0 0 0
          0 0 0 0 0 0
          0 0 0 0 0 0
          0 0 0 0 0 0
          0 0 0 0 0 0
          0 0 0 0 0 0
          0 0 0 0 0 0
          0 0 0 0 0 0
          0 0 0 0 0 0
          0 0 0 0 0 0
          0 0 0 0 0 0
          0 0 0 0 0 0
          0 0 0 0 0 0
          0 0 0 0 0 0
          0 0 0 0 0 0
          0 0 0 0 0 0
          0 0 0 0 0 0
          0 0 0 0 0 0
          0 0 0 0 0 0
          0 0 0 0 0 0
          0 0 0 0 0 0
          0 0 0 0 0 0
          0 0 0 0 0 0
          0 0 0 0 0 0
          0 0 0 0 0 0
          0 0 0 0 0 0
          0 0 0 0 0 0
          0 0 0 0 0 0
          0 0 0 0 0 0
          0 0 0 0 0 0
          0 0 0 0 0 0
          0 0 0 0 0 0
          0 0 0 0 0 0
          0 0 0 0 0 0
          0 0 0 0 0 0
          0 0 0 0 0 0
          0 0 0 0 0 0
          0 0 0 0 0 0
          0 0 0 0 0 0
          0 0 0 0 0 0
          0 0 0 0 0 0
          0 0 0 0 0 0
          0 0 0 0 0 0
          0 0 0 0 0 0
          0 0 0 0 0 0
          0 0 0 0 0 0
          0 0 0 0 0 0
          0 0 0 0 0 0
          0 0 0 0 0 0
          0 0 0 0 0 0
          0 0 0 0 0 0
          0 0 0 0 0 0
        </DataArray>
        <DataArray type="Float64" Name="markers_mustrefine" format="ascii" RangeMin="0" RangeMax="2">
          0 0 0 0 0 0
          0 0 0 0 0 0
          0 0 1.5 1 0 0
          0 0 2 1.5 0 0
          0 0 0 0 0 0
          0 0 0 0 0 0
          0 0 0 0 0.5 0.25
          0 0 0 0 0 0
          1.5 1.5 0 1 0 0
          0 0 0 0 0 0
          0 2 2 1 0.75 2
          0.25 2 2 1.25 2 1
          0 0 1.75 0 2 2
          2 2 2 1.25 2 2
          2 2 0 0 0 0
          0 0 0 0 0 0
          0 0 0 0 2 0.25
          0 2 0.5 0 0 0
          0 0 0 0 0 0
          0 0 0 0 0 0
          0 0 0 0 0 0
          0 0 0 0 0 0
          0 0 0 0 0 0
          0 0 0 0 0 0
          0 0 0 0 0 0
          0 0.5 0.5 0 0 0
          0 0.5 0 1.5 1.5 1
          1.3333333333333333 2 2 2 2 1.75
          1.5 2 2 2 2 1
          1.5 0 1 1 1.25 0.5
          2 2 1.75 0.5 0.75 0
          0 0 0.5 0 1.25 0.3333333333333333
          1 2 2 2 2 2
          2 2 2 2 2 1
          1 1.5 1.5 0 1 1
          1 1.25 0.5 2 2 2
          1.75 2 2 2 1.75 2
          2 2 1 1 0 0
          0.5 0.75 0 1.5 1 1.25
          2 2 2 2 2 2
          2 2 2 2 2 2
          2 2 2 2 2 2
          2 1.75 1.5 2 1.3333333333333333 2
          1.75 1 1.25 0.3333333333333333 2 1.75
          1.75 0 0.25 0 0 0
          0 0 0.75 0 0.5 0
          0 0 0.5 2 2 2
          1.25 0.5 1 0 1.5 1