<?xml version="1.0"?>
<VTKFile type="UnstructuredGrid" version="0.1" byte_order="LittleEndian" header_type="UInt32" compressor="vtkZLibDataCompressor">
  <UnstructuredGrid>
    <Piece NumberOfPoints="578" NumberOfCells="343">
      <PointData>
        <DataArray type="Int32" Name="libmesh_node_id" format="ascii" RangeMin="226" RangeMax="2539">
          226 337 338 342 344 348
          349 356 357 586 587 590
          591 592 593 594 611 612
          617 619 620 621 622 623
          624 625 626 627 628 651
          652 657 659 660 661 662
          697 698 699 700 701 702
          703 704 705 706 713 714
          1049 1050 1051 1052 1053 1054
          1055 1056 1057 1058 1059 1060
          1061 1062 1063 1064 1065 1066
          1067 1068 1069 1070 1071 1072
          1073 1074 1075 1076 1077 1078
          1079 1080 1081 1082 1083 1084
          1085 1086 1087 1104 1105 1107
          1118 1120 1130 1131 1132 1133
          1134 1135 1136 1137 1138 1139
          1140 1141 1142 1143 1144 1145
          1146 1147 1148 1149 1150 1151
          1152 1153 1154 1155 1156 1157
          1158 1159 1160 1161 1162 1163
          1164 1165 1166 1167 1168 1169
          1170 1171 1172 1173 1174 1175
          1176 1177 1178 1179 1180 1181
          1182 1183 1184 1185 1186 1187
          1188 1189 1190 1191 1192 1193
          1194 1195 1196 1197 1200 1202
          1203 1205 1216 1218 1220 1222
          1230 1231 1232 1233 1234 1235
          1236 1237 1238 1239 1250 1251
          1252 1254 1255 1256 2067 2068
          2069 2070 2071 2072 2073 2074
          2075 2076 2077 2078 2079 2080
          2081 2082 2083 2084 2085 2086
          2087 2088 2089 2090 2091 2092
          2093 2094 2095 2096 2097 2098
          2099 2100 2101 2102 2103 2104
          2105 2106 2107 2108 2109 2110
          2111 2112 2113 2114 2115 2116
          2117 2118 2119 2120 2121 2122
          2123 2124 2125 2126 2127 2128
          2129 2130 2131 2132 2133 2134
          2135 2136 2137 2138 2139 2140
          2141 2142 2143 2144 2145 2146
          2147 2148 2149 2150 2151 2152
          2153 2154 2155 2156 2157 2158
          2159 2160 2161 2162 2163 2164
          2165 2166 2167 2168 2169 2170
          2171 2172 2173 2174 2175 2176
          2177 2178 2179 2180 2181 2182
          2183 2184 2185 2186 2187 2188
          2189 2190 2191 2192 2193 2194
          2195 2196 2197 2198 2199 2200
          2201 2202 2203 2204 2205 2206
          2207 2208 2209 2210 2211 2212
          2213 2214 2215 2216 2217 2218
          2219 2220 2221 2222 2223 2224
          2225 2226 2227 2228 2229 2230
          2231 2232 2233 2234 2235 2236
          2237 2238 2239 2240 2241 2242
          2243 2244 2245 2246 2247 2248
          2249 2250 2251 2252 2254 2255
          2256 2257 2258 2260 2261 2262
          2263 2264 2265 2266 2267 2268
          2269 2270 2271 2272 2275 2277
          2278 2280 2281 2282 2283 2284
          2285 2286 2287 2288 2290 2292
          2294 2343 2344 2345 2346 2347
          2348 2355 2356 2357 2358 2359
          2360 2361 2362 2363 2364 2365
          2366 2367 2368 2369 2370 2371
          2372 2373 2374 2375 2376 2377
          2378 2379 2380 2381 2382 2383
          2384 2385 2386 2387 2388 2389
          2390 2391 2392 2393 2394 2395
          2396 2397 2398 2399 2400 2401
          2402 2403 2404 2405 2406 2407
          2408 2409 2410 2411 2412 2413
          2414 2415 2416 2417 2418 2419
          2420 2421 2422 2491 2492 2493
          2494 2495 2496 2497 2498 2499
          2500 2501 2502 2503 2504 2505
          2506 2507 2508 2509 2510 2511
          2512 2513 2514 2515 2516 2517
          2518 654 655 658 665 666
          673 674 671 676 1106 1198
          1199 1201 1119 1217 1219 708
          1221 711 1253 716 1227 1229
          1257 1259 1261 1263 2253 2273
          2274 2276 707 2279 1204 2259
          2289 2291 2293 2315 2316 2423
          2424 2318 2427 2429 2430 2432
          2333 2443 2335 2445 2447 2449
          2457 2458 2461 2463 2464 2466
          2477 2479 2481 2483 2349 2519
          2351 2521 2523 2525 2533 2535
          2537 2539
        </DataArray>
        <DataArray type="Float64" Name="bounds" format="ascii" RangeMin="0" RangeMax="0">
          0 0 0 0 0 0
          0 0 0 0 0 0
          0 0 0 0 0 0
          0 0 0 0 0 0
          0 0 0 0 0 0
          0 0 0 0 0 0
          0 0 0 0 0 0
          0 0 0 0 0 0
          0 0 0 0 0 0
          0 0 0 0 0 0
          0 0 0 0 0 0
          0 0 0 0 0 0
          0 0 0 0 0 0
          0 0 0 0 0 0
          0 0 0 0 0 0
          0 0 0 0 0 0
          0 0 0 0 0 0
          0 0 0 0 0 0
          0 0 0 0 0 0
          0 0 0 0 0 0
          0 0 0 0 0 0
          0 0 0 0 0 0
          0 0 0 0 0 0
          0 0 0 0 0 0
          0 0 0 0 0 0
          0 0 0 0 0 0
          0 0 0 0 0 0
          0 0 0 0 0 0
          0 0 0 0 0 0
          0 0 0 0 0 0
          0 0 0 0 0 0
          0 0 0 0 0 0
          0 0 0 0 0 0
          0 0 0 0 0 0
          0 0 0 0 0 0
          0 0 0 0 0 0
          0 0 0 0 0 0
          0 0 0 0 0 0
          0 0 0 0 0 0
          0 0 0 0 0 0
          0 0 0 0 0 0
          0 0 0 0 0 0
          0 0 0 0 0 0
          0 0 0 0 0 0
          0 0 0 0 0 0
          0 0 0 0 0 0
          0 0 0 0 0 0
          0 0 0 0 0 0
          0 0 0 0 0 0
          0 0 0 0 0 0
          0 0 0 0 0 0
          0 0 0 0 0 0
          0 0 0 0 0 0
          0 0 0 0 0 0
          0 0 0 0 0 0
          0 0 0 0 0 0
          0 0 0 0 0 0
          0 0 0 0 0 0
          0 0 0 0 0 0
          0 0 0 0 0 0
          0 0 0 0 0 0
          0 0 0 0 0 0
          0 0 0 0 0 0
          0 0 0 0 0 0
          0 0 0 0 0 0
          0 0 0 0 0 0
          0 0 0 0 0 0
          0 0 0 0 0 0
          0 0 0 0 0 0
          0 0 0 0 0 0
          0 0 0 0 0 0
          0 0 0 0 0 0
          0 0 0 0 0 0
          0 0 0 0 0 0
          0 0 0 0 0 0
          0 0 0 0 0 0
          0 0 0 0 0 0
          0 0 0 0 0 0
          0 0 0 0 0 0
          0 0 0 0 0 0
          0 0 0 0 0 0
          0 0 0 0 0 0
          0 0 0 0 0 0
          0 0 0 0 0 0
          0 0 0 0 0 0
          0 0 0 0 0 0
          0 0 0 0 0 0
          0 0 0 0 0 0
          0 0 0 0 0 0
          0 0 0 0 0 0
          0 0 0 0 0 0
          0 0 0 0 0 0
          0 0 0 0 0 0
          0 0 0 0 0 0
          0 0 0 0 0 0
          0 0 0 0 0 0
          0 0
        </DataArray>
        <DataArray type="Float64" Name="gradient_error" format="ascii" RangeMin="2.2004613488243874e-9" RangeMax="4.716493541960778e-7">
          2.4843294930278208e-8 3.68028290557621e-7 4.340631768901582e-7 2.2107770606529852e-7 4.27644047591291e-7 3.4712111320236016e-7
          3.3623199196931566e-7 6.7725011339309515e-9 1.2268127927157096e-7 3.42879175751053e-7 3.2236646488144756e-7 2.6243858043665713e-7
          4.20135934540493e-7 4.184925051700135e-7 4.271243827545617e-7 3.8354134508222473e-7 2.9089353734902787e-7 3.3360547176622983e-7
          2.920415812023026e-7 2.9486853578079034e-7 3.800084435663599e-7 1.737683941551574e-7 3.060141533584849e-7 4.52790393578498e-7
          4.716493541960778e-7 1.4412268264768547e-7 3.038613782105519e-7 1.841998209451866e-7 4.653338364949555e-7 3.677509292832538e-7
          3.400478574761529e-7 2.631277569771395e-7 3.0397166748702563e-7 3.507484784640756e-7 3.1269417681822645e-7 3.991431342997246e-7
          5.212321015644078e-8 1.5359312699712925e-7 1.1471865963810184e-8 7.127602174624886e-8 3.2739266636710387e-7 2.144626057036128e-7
          2.2004613488243874e-9 5.59110670977107e-8 1.3150336388451229e-8 2.2533513392829962e-7 1.1487809583643009e-8 2.066151008511594e-8
          7.456179533068055e-8 4.582810060337801e-8 7.603946481222262e-8 7.542567301011498e-8 7.481188120800735e-8 5.1778371540930736e-8
          5.230224535434009e-8 6.897773781247929e-8 5.282611916774945e-8 8.046914169063253e-8 4.423057243998124e-8 4.525331506242429e-8
          4.627605768486733e-8 4.4678529521470565e-8 4.6996240578764805e-8 5.0099352462468995e-8 4.400446212220868e-8 5.5377731725940824e-8
          5.3202464346173185e-8 7.201310308336056e-8 4.221410961659887e-8 4.78964595705979e-8 4.5606496992716305e-8 5.357880952459693e-8
          8.227669276301618e-8 8.229852875916852e-8 8.408424383539983e-8 8.153018911451842e-8 8.034718227043714e-8 9.181319943544763e-8
          7.916417542635587e-8 1.0613915074531343e-7 1.0445329316926264e-7 1.201663974217641e-7 9.869405501235666e-8 8.427146364841913e-8
          8.812041271161507e-8 9.54652316972984e-8 8.162015099172867e-8 1.423317036134046e-7 1.3782421927683629e-7 1.2305678757675726e-7
          1.0132136410148836e-7 8.984588798973014e-8 8.146773482572661e-8 8.136192658741234e-8 9.327831903517115e-8 9.368127536157193e-8
          8.125611834909807e-8 9.513408170189017e-8 6.050218316173943e-8 7.10474267473116e-8 6.270957818408627e-8 8.384346255978707e-8
          8.181937764718418e-8 9.471399156473139e-8 6.986432965906514e-8 8.137594990991403e-8 1.0550713096220577e-7 1.0446710354169314e-7
          3.363645814966239e-8 4.8575480128908353e-8 2.7243120590133926e-8 8.898712286781442e-8 9.205630390700144e-8 8.687882608427779e-8
          8.770877861942916e-8 1.0090520141562167e-7 8.731058772496419e-8 9.730644939699786e-8 1.0775077100217734e-7 9.130449897479215e-8
          9.946385014037658e-8 1.1096885515302865e-7 1.1007456191801091e-7 1.0119315499301102e-7 2.2767535206128975e-8 4.2054123622151454e-8
          5.045017847431566e-9 1.7857494592348346e-8 7.452107672515356e-8 6.575325729801851e-8 3.5882417959596766e-9 2.3748709459169258e-8
          5.3197272207033494e-9 6.507465532637221e-8 4.744203643401427e-9 7.186199023006588e-9 7.433259986811995e-9 8.788894198808151e-9
          5.1064048228976645e-8 2.8729296296897734e-8 4.113780804300431e-9 5.3318615206902495e-9 8.349547739166306e-9 3.6070703164806844e-8
          8.900557878853434e-8 1.0211372018182497e-7 8.97033514738132e-8 9.830712462917658e-8 9.03023789576395e-8 1.027902103230093e-7
          9.209611522266222e-8 1.0247544768647384e-7 8.811598593649816e-8 1.052270661072053e-7 1.1753931636339521e-7 8.954115634723941e-8
          7.596303828534581e-8 1.0915882320382185e-7 8.092284411623873e-8 7.862200842588216e-8 1.0271433509489363e-7 1.2951749164035992e-8
          1.56243629363946e-8 5.143763800051579e-8 1.1736728871747698e-7 1.0539747321967676e-7 1.0783082122780666e-7 1.21518307291888e-7
          1.0640705336790363e-8 1.2653927219962345e-8 1.372380487704399e-8 1.761166350836647e-8 1.731218972458391e-8 2.131478496769966e-8
          9.46496393526461e-9 1.2414045254292627e-8 1.7328111060511243e-8 1.5947506929491816e-8 8.489487016544601e-8 9.419659916847367e-8
          1.2842224290954124e-7 8.72393353378884e-8 9.78385767628703e-8 1.350415541060622e-7 7.131342781237837e-9 7.496062801221842e-9
          7.345342794072792e-9 7.194622786923742e-9 7.559342806907747e-9 9.879855624760338e-9 1.0390837914073642e-8 1.0259137959347223e-8
          1.0729130905893465e-8 1.0127438004620802e-8 1.2231921621824325e-8 1.4205776304495976e-8 1.5143659150470897e-8 1.4963600491571752e-8
          1.647676294904161e-8 1.4783541832672603e-8 1.6788699941633536e-8 1.4302686718190337e-8 1.420698863597273e-8 1.4111290553755128e-8
          1.0425898625298605e-8 1.0769997418702156e-8 1.1694225230760448e-8 1.1871020154827171e-8 1.468867191360955e-8 1.4711268615635955e-8
          1.5405295680646142e-8 1.5637857799736667e-8 1.473386531766236e-8 1.635921244107625e-8 1.160799327603943e-8 1.2121679577258704e-8
          1.2200045381531988e-8 1.3008345285215484e-8 1.2712460668749399e-8 1.355752433369431e-8 1.2796977239950168e-8 1.7142055421321487e-8
          1.6947313357068602e-8 1.4366408393737835e-8 1.596174671397296e-8 1.497851268878517e-8 1.7529932999060218e-8 9.719347859946164e-9
          9.691382006180624e-9 9.663416152415084e-9 7.261814246035335e-9 7.26664722825507e-9 7.78935863769395e-9 7.271480210474804e-9
          9.404590623758042e-9 9.634681206222039e-9 8.678988971262512e-9 9.291687406116416e-9 9.864771788686038e-9 1.0547722412759455e-8
          6.518475446980112e-9 7.295982655187037e-9 6.04947973411557e-9 8.573909716719857e-9 9.964375331070199e-9 1.2050620399095036e-8
          1.2266845241852345e-8 1.0054233346353992e-8 1.0621296719058302e-8 1.053371726933634e-8 6.644426417374993e-9 7.004287132426525e-9
          4.9614058430936325e-9 5.990921282793742e-9 7.364147847478057e-9 7.86635136139517e-9 6.027038588714652e-9 6.741927036597981e-9
          5.049258802847014e-9 7.456815484481308e-9 3.5307552418987007e-9 4.601495842813321e-9 2.770936337567892e-9 3.577133829820062e-9
          7.338470455236477e-9 6.167367195691282e-9 2.442902923279618e-9 3.6212508283494255e-9 2.909552097748356e-9 6.6171291217688075e-9
          9.967665142434386e-9 1.0377149645670963e-8 9.970954953798574e-9 9.838357441836641e-9 9.48274092373868e-9 1.067201041692827e-8
          1.1014078778167031e-8 9.622481537319292e-9 8.968196357072782e-9 1.0810303564520202e-8 7.968809614773703e-9 8.682715296556905e-9
          7.533696573131644e-9 8.203504094205788e-9 1.055396156133653e-8 1.0243099030928748e-8 4.381873364249224e-9 5.2227744115962854e-9
          5.280613572184164e-9 7.692155800026052e-9 7.531948873470549e-9 8.151232570879579e-9 8.227847163710101e-9 8.775535930195407e-9
          1.0244310773168374e-8 1.066058219392273e-8 5.934220990432493e-9 6.28404989252856e-9 7.784163313992643e-9 7.608468820365623e-9
          1.2257050433492659e-8 1.2675066055311818e-8 1.280279872265237e-8 1.3737245664046068e-8 1.073609298296886e-8 1.0593361192002277e-8
          1.2151549824828962e-8 1.317920824998693e-8 1.3778622781527372e-8 1.4640311221925718e-8 1.6375097011090147e-8 1.0724662760932334e-8
          1.1289259674789316e-8 1.3773730759671802e-8 3.027790740627478e-9 3.5186764300564515e-9 4.202854763637145e-9 4.488437086788131e-9
          5.496841900758544e-9 5.672159027451774e-9 2.8035553570053053e-9 3.1872372113319883e-9 4.385417855203581e-9 4.846275169310869e-9
          5.625810942584189e-9 5.9464880911377375e-9 6.985642831097523e-9 7.45341244584653e-9 6.774215831617338e-9 8.415129865369881e-9
          5.46477577591383e-9 5.8429191241602645e-9 7.288432011466327e-9 6.649692042343013e-9 9.082331288108018e-9 8.86538086130492e-9
          1.1180540894184375e-8 1.2437680878955942e-8 8.49411680851423e-9 8.336647115534606e-9 1.0866602344065395e-8 9.052766551199993e-9
          9.94862232884967e-9 1.3110689535436658e-8 1.3618563065402133e-8 8.64821568677134e-9 9.681056250720727e-9 1.2711837808898752e-8
          1.5200145163647358e-8 1.787311154536845e-8 1.773954380124645e-8 1.586381456142494e-8 1.7519658582293247e-8 1.6138970195350593e-8
          1.519726282826834e-8 1.5402409174959667e-8 1.5194380492889325e-8 1.5790160495817862e-8 1.6990726310508992e-8 1.6183208599619e-8
          1.7732493477768833e-8 1.571650643021078e-8 1.6810109793416458e-8 1.622744700388741e-8 1.809802279172778e-8 1.7935176246401644e-8
          1.9405143048940555e-8 1.7838009296535416e-8 2.1032149672507265e-8 2.097713650477057e-8 2.1110334445671543e-8 1.759756597805605e-8
          1.9204845339899987e-8 1.7291443064116782e-8 2.083082502112719e-8 2.0363104487945156e-8 1.6062454707728302e-8 1.6440205963211122e-8
          1.6894355013620167e-8 1.734479687847998e-8 1.7371834487714873e-8 1.8517043681765487e-8 1.1942665969561615e-8 1.268727188927814e-8
          1.3650650436304129e-8 1.4753471529197232e-8 1.801468061619476e-8 1.8514802358629704e-8 1.988477207217427e-8 1.4317556169533362e-8
          1.5052001127675323e-8 1.7013178793182353e-8 1.7892132212991756e-8 1.943585035747862e-8 1.7858552669247697e-8 1.9632852094766053e-8
          1.7052987846401497e-8 1.827422712114957e-8 1.824595860578536e-8 2.106158532498339e-8 2.136855060668288e-8 1.9817712039779417e-8
          2.1773412755809307e-8 1.84337939377687e-8 2.0201019827237965e-8 1.819153294498771e-8 2.1944589625756595e-8 2.3708913951584956e-8
          2.1359966142108114e-8 9.619556916012842e-9 1.0087962389717735e-8 1.1368391451656736e-8 1.1842724245484639e-8 1.1618294184259444e-8
          1.3169278834988903e-8 9.022771479753716e-9 9.500180478872059e-9 1.1330544518737235e-8 1.0529686858827141e-8 1.3248408495995083e-8
          1.3856482332441908e-8 1.5156117506092946e-8 1.598404805844608e-8 1.5225240448727115e-8 1.7594080677177375e-8 1.2236679512653014e-8
          1.3224939580076726e-8 1.51289356855508e-8 1.5035926491473956e-8 1.4496548946163462e-8 1.566303616435692e-8 1.7562525120416957e-8
          1.8907901402689715e-8 1.239768090804487e-8 1.41246784493542e-8 1.6029606299955846e-8 1.741264041871325e-8 1.9616332806241004e-8
          2.059153168059578e-8 2.2570831411448295e-8 1.6411595727712275e-8 1.906679019723859e-8 1.9110520177615967e-8 8.400685813411524e-9
          9.048014106365635e-9 9.819182312718175e-9 1.0732582458668086e-8 1.0349858372397105e-8 1.2508889054212875e-8 8.136497183946891e-9
          8.842283935886943e-9 1.0472674206242126e-8 1.027564801615868e-8 1.1125729337442103e-8 1.244413730582976e-8 1.2178773366548224e-8
          1.4089020412257031e-8 1.4878793764721158e-8 1.7446463704406292e-8 1.0637015862383884e-8 1.2099826073528075e-8 1.3620614991796764e-8
          1.4769067556260922e-8 1.1603837763186834e-8 1.3801946416962708e-8 1.4671042986919927e-8 1.624651093763398e-8 1.1486134357735307e-8
          1.3799009396688976e-8 1.4251816843273344e-8 1.6377741394226627e-8 1.925221170658727e-8 1.8324920266368414e-8 2.0778176790965268e-8
          1.6414493719735958e-8 1.931764980305609e-8 1.8138742767692802e-8 1.8702969899971814e-8 2.0399160272113564e-8 1.8593766946340376e-8
          2.0287089436896276e-8 1.8739316475963203e-8 2.0299595230483008e-8 1.9132997928440575e-8 2.2158062121129942e-8 2.3983991988261912e-8
          2.197241698992933e-8 2.3682804022553706e-8 2.204967685519749e-8 2.39859670774106e-8 2.2842851475140118e-8 1.8267428003105972e-8
          1.977262678996508e-8 1.93960712132713e-8 2.1284329034779864e-8 1.8028368916460465e-8 1.9543363835953305e-8 1.9522147517354488e-8
          2.1583252537826557e-8 2.365914349134793e-8 2.3277105076144637e-8 2.5372696863093126e-8 2.1438685981761425e-8 2.360542285281352e-8
          2.3453375039759576e-8 3.827720159454045e-7 3.4612811265957854e-7 2.510392051365402e-7 2.460996730024751e-7 2.6291543772516983e-7
          2.514209458012313e-7 2.6019206461763845e-7 2.2003611989699744e-7 3.119923775746513e-7 1.3098753773225648e-7 9.071480759743147e-8
          8.810365115111085e-8 1.1308488892385071e-7 1.04351995896033e-7 1.2446417087402736e-7 1.0758632822486477e-7 5.867937345047918e-8
          1.1730655006464909e-7 2.1641101967639213e-7 1.3603920962964266e-7 1.4435104562705608e-7 1.216861221494459e-7 1.2593932223060856e-7
          9.956918739241422e-8 1.3731566028839025e-7 1.0499547839925133e-7 1.4747544684619512e-7 2.2624350561748188e-8 1.9386013873164986e-8
          1.9949691668335883e-8 2.148712329251857e-8 1.5961238914616233e-8 1.6771341676715716e-8 1.8802185943610017e-8 2.250996982545349e-8
          2.2787853641721274e-8 2.31148301619122e-8 2.1675798143056175e-8 1.7804836150838943e-8 1.8703611197279286e-8 1.696262116122059e-8
          1.8102930031201704e-8 2.0882461762665256e-8 2.0143815748367475e-8 1.5005506926736564e-8 1.6970577719760157e-8 2.0318654234685814e-8
          2.3789490716254246e-8 2.2147404168389527e-8 2.5743986672005468e-8 2.4793626969536646e-8 2.195197552902534e-8 2.3832132793284584e-8
          1.284307691378758e-8 1.557331041151297e-8 2.0159784983133798e-8 1.1852595648756739e-8 1.4928274698509397e-8 2.0032895589564605e-8
          2.233411319310053e-8 2.3506568912950846e-8 2.244382930945967e-8 2.3449175946385372e-8 2.53609800549506e-8 2.5783931213628064e-8
          2.4322888395680022e-8 2.5231024229409755e-8 2.6031456371149743e-8 2.660093825719312e-8 2.587734197208323e-8 2.7393746447436603e-8
          2.589865357417251e-8 2.772477644362646e-8
        </DataArray>
        <DataArray type="Float64" Name="gradient_matprop_error" format="ascii" RangeMin="0" RangeMax="0">
          0 0 0 0 0 0
          0 0 0 0 0 0
          0 0 0 0 0 0
          0 0 0 0 0 0
          0 0 0 0 0 0
          0 0 0 0 0 0
          0 0 0 0 0 0
          0 0 0 0 0 0
          0 0 0 0 0 0
          0 0 0 0 0 0
          0 0 0 0 0 0
          0 0 0 0 0 0
          0 0 0 0 0 0
          0 0 0 0 0 0
          0 0 0 0 0 0
          0 0 0 0 0 0
          0 0 0 0 0 0
          0 0 0 0 0 0
          0 0 0 0 0 0
          0 0 0 0 0 0
          0 0 0 0 0 0
          0 0 0 0 0 0
          0 0 0 0 0 0
          0 0 0 0 0 0
          0 0 0 0 0 0
          0 0 0 0 0 0
          0 0 0 0 0 0
          0 0 0 0 0 0
          0 0 0 0 0 0
          0 0 0 0 0 0
          0 0 0 0 0 0
          0 0 0 0 0 0
          0 0 0 0 0 0
          0 0 0 0 0 0
          0 0 0 0 0 0
          0 0 0 0 0 0
          0 0 0 0 0 0
          0 0 0 0 0 0
          0 0 0 0 0 0
          0 0 0 0 0 0
          0 0 0 0 0 0
          0 0 0 0 0 0
          0 0 0 0 0 0
          0 0 0 0 0 0
          0 0 0 0 0 0
          0 0 0 0 0 0
          0 0 0 0 0 0
          0 0 0 0 0 0
          0 0 0 0 0 0
          0 0 0 0 0 0
          0 0 0 0 0 0
          0 0 0 0 0 0
          0 0 0 0 0 0
          0 0 0 0 0 0
          0 0 0 0 0 0
          0 0 0 0 0 0
          0 0 0 0 0 0
          0 0 0 0 0 0
          0 0 0 0 0 0
          0 0 0 0 0 0
          0 0 0 0 0 0
          0 0 0 0 0 0
          0 0 0 0 0 0
          0 0 0 0 0 0
          0 0 0 0 0 0
          0 0 0 0 0 0
          0 0 0 0 0 0
          0 0 0 0 0 0
          0 0 0 0 0 0
          0 0 0 0 0 0
          0 0 0 0 0 0
          0 0 0 0 0 0
          0 0 0 0 0 0
          0 0 0 0 0 0
          0 0 0 0 0 0
          0 0 0 0 0 0
          0 0 0 0 0 0
          0 0 0 0 0 0
          0 0 0 0 0 0
          0 0 0 0 0 0
          0 0 0 0 0 0
          0 0 0 0 0 0
          0 0 0 0 0 0
          0 0 0 0 0 0
          0 0 0 0 0 0
          0 0 0 0 0 0
          0 0 0 0 0 0
          0 0 0 0 0 0
          0 0 0 0 0 0
          0 0 0 0 0 0
          0 0 0 0 0 0
          0 0 0 0 0 0
          0 0 0 0 0 0
          0 0 0 0 0 0
          0 0 0 0 0 0
          0 0 0 0 0 0
          0 0
        </DataArray>
        <DataArray type="Float64" Name="initial_marker" format="ascii" RangeMin="1.5" RangeMax="2">
          2 2 2 2 2 2
          2 2 2 2 2 1.5
          2 2 2 2 2 2
          2 2 2 2 2 2
          2 2 2 2 2 2
          2 1.5 2 2 2 2
          2 2 2 2 2 2
          2 2 2 2 2 2
          2 2 2 2 2 2
          2 2 2 2 2 2
          2 2 2 2 2 2
          2 2 2 2 2 2
          2 2 2 2 2 2
          2 2 2 2 2 2
          2 2 2 2 2 2
          2 2 2 2 2 2
          2 2 2 2 2 2
          2 2 2 2 2 2
          2 2 2 2 2 2
          2 2 2 2 2 2
          2 2 2 2 2 2
          2 2 2 2 2 2
          2 2 2 2 2 2
          2 2 2 2 2 2
          2 2 2 2 2 2
          2 2 2 2 2 2
          2 2 2 2 2 2
          2 2 2 2 2 2
          2 2 2 2 2 2
          2 2 2 2 2 2
          2 2 2 2 2 2
          2 2 2 2 2 2
          2 2 2 2 2 2
          2 2 2 2 2 2
          2 2 2 2 2 2
          2 2 2 2 2 2
          2 2 2 2 2 2
          2 2 2 2 2 2
          2 2 2 2 2 2
          2 2 2 2 2 2
          2 2 2 2 2 2
          2 2 2 2 2 2
          2 2 2 2 2 2
          2 2 2 2 2 2
          2 2 2 2 2 2
          2 2 2 2 2 2
          2 2 2 2 2 2
          2 2 2 2 2 2
          2 2 2 2 2 2
          2 2 2 2 2 2
          2 2 2 2 2 2
          2 2 2 2 2 2
          2 2 2 2 2 2
          2 2 2 2 2 2
          2 2 2 2 2 2
          2 2 2 2 2 2
          2 2 2 2 2 2
          2 2 2 2 2 2
          2 2 2 2 2 2
          2 2 2 2 2 2
          2 2 2 2 2 2
          2 2 2 2 2 2
          2 2 2 2 2 2
          2 2 2 2 2 2
          2 2 2 2 2 2
          2 2 2 2 2 2
          2 2 2 2 2 2
          2 2 2 2 2 2
          2 2 2 2 2 2
          2 2 2 2 2 2
          2 2 2 2 2 2
          2 2 2 2 2 2
          2 2 2 2 2 2
          2 2 2 2 2 2
          2 2 2 2 2 2
          2 2 2 2 2 2
          2 2 2 2 2 2
          2 2 2 2 2 2
          2 2 2 2 2 2
          2 2 2 2 2 2
          2 2 2 2 2 2
          2 2 2 2 2 2
          2 2 2 2 2 2
          2 2 2 2 2 2
          2 2 2 1.5 2 2
          2 2 1.5 2 2 2
          2 2 2 2 2 2
          2 2 2 2 2 2
          2 2 2 2 2 2
          2 2 2 2 2 2
          2 2 2 2 2 2
          2 2 2 2 2 2
          2 2 2 2 2 2
          2 2 2 2 2 2
          2 2 2 2 2 2
          2 2 2 2 2 2
          2 2
        </DataArray>
        <DataArray type="Float64" Name="markers_norefine" format="ascii" RangeMin="0" RangeMax="2">
          0 0 0 0 0 0
          0 2 0 0 0 0
          0 0 0 0 0 0
          0 0 0 0 0 0
          0 0 0 0 0 0
          0 0 0 0 0 0
          0.5 0 2 0.25 0 0
          2 0.5 2 0 2 2
          0 0 0 0 0 0
          0 0 0 0 0 0
          0 0 0 0 0 0
          0 0 0 0 0 0
          0 0 0 0 0 0
          0 0 0 0 0 0
          0 0 0 0 0 0
          0 0 0 0 0 0
          0 0 0 0 0 0
          0 0 0 0 0 0
          1 0.75 1.25 0 0 0
          0 0 0 0 0 0
          0 0 0 0 1 0.25
          2 1.75 0 0 2 1.5
          2 0 2 2 2 2
          0.75 1.5 2 2 2 1
          0 0 0 0 0 0
          0 0 0 0 0 0
          0 0 0 0 0 2
          2 0.5 0 0 0 0
          2 2 2 2 2 2
          2 2 2 2 0 0
          0 0 0 0 0 0
          0 0 0 0 0 0
          0.5 0 0 0 0 0
          0 0 0 0 0 0
          2 1.5 1.3333333333333333 0.5 0.5 0.25
          1 0.75 0 0.3333333333333333 1.5 1.25
          1.75 1.3333333333333333 0 0.5 0 0
          0 1 1 0 0 0
          0 0 1 0.5 1 0
          0.5 0.5 1.5 1.25 0.5 1
          1.5 1.5 2 1.3333333333333333 0 0.5
          0 0.5 1 0 1 0.75
          2 1.75 0.5 1.3333333333333333 1 1
          2 1 2 2 2 2
          1.75 2 2 2 2 2
          0.5 0 1 0.75 1.25 0
          0.5 1 1.5 0 2 1.75
          2 2 1.25 1.75 2 2
          2 2 2 2 2 2
          2 2 2 2 2 2
          0.5 1 0 0.5 1.25 1.75
          0.5 1.5 1.75 1 1 2
          2 1.6666666666666667 2 2 2 2
          2 2 2 2 2 2
          2 2 2 2 2 2
          2 2 2 2 1.75 2
          1.5 1.3333333333333333 2 2 2 2
          2 1.5 2 2 2 1.5
          0 0 0 0.5 0.6666666666666666 0
          0 0 0 0.5 1 0
          0 0.5 1 0 0 0
          0 0 1 0.5 0 0
          0 0 0 0 1 1
          1 1 0.75 1 2 2
          2 1.75 1.5 1.25 1 2
          2 2 0.25 0.5 0 0
          1.25 1.5 0.6666666666666666 0.5 0 1.5
          0.6666666666666666 0 0 0 0 0
          0 2 2 2 2 2
          2 2 2 2 2 2
          2 2 2 2 2 2
          2 2 2 2 2 1.25
          1.5 2 2 1.75 2 2
          1.5 1.5 2 2 2 2
          2 2 2 2 2 2
          2 2 2 2 2 2
          2 2 2 2 2 2
          2 2 2 2 2 2
          2 2 2 2 2 2
          2 2 2 0.25 0.5 0
          0 0.75 1 0 0.5 0.5
          0 0 1 1 0 1
          1 0 0 1 1 0
          1 1 0 0 1 1
          0 0 0 0 0 0
          0 0 0 0 0 1
          0 0 0 0 0 0.5
          0 0 0 0 0 0
          0 0 0 0 1 2
          1.5 1 2 2 2 0
          0.5 0 1.5 2 2 2
          2 2 2 2 2 2
          1.5 2 0.6666666666666666 1.5 2 2
          2 2 2 2 2 2
          2 2 2 2 0 0.5
          0 0 1 0 1 0
          1 0
        </DataArray>
        <DataArray type="Float64" Name="markers_mustrefine" format="ascii" RangeMin="1.5" RangeMax="2">
          2 2 2 2 2 2
          2 2 2 2 2 1.5
          2 2 2 2 2 2
          2 2 2 2 2 2
          2 2 2 2 2 2
          2 1.5 2 2 2 2
          2 2 2 2 2 2
          2 2 2 2 2 2
          2 2 2 2 2 2
          2 2 2 2 2 2
          2 2 2 2 2 2
          2 2 2 2 2 2
          2 2 2 2 2 2
          2 2 2 2 2 2
          2 2 2 2 2 2
          2 2 2 2 2 2
          2 2 2 2 2 2
          2 2 2 2 2 2
          2 2 2 2 2 2
          2 2 2 2 2 2
          2 2 2 2 2 2
          2 2 2 2 2 2
          2 2 2 2 2 2
          2 2 2 2 2 2
          2 2 2 2 2 2
          2 2 2 2 2 2
          2 2 2 2 2 2
          2 2 2 2 2 2
          2 2 2 2 2 2
          2 2 2 2 2 2
          2 2 2 2 2 2
          2 2 2 2 2 2
          2 2 2 2 2 2
          2 2 2 2 2 2
          2 2 2 2 2 2
          2 2 2 2 2 2
          2 2 2 2 2 2
          2 2 2 2 2 2
          2 2 2 2 2 2
          2 2 2 2 2 2
          2 2 2 2 2 2
          2 2 2 2 2 2
          2 2 2 2 2 2
          2 2 2 2 2 2
          2 2 2 2 2 2
          2 2 2 2 2 2
          2 2 2 2 2 2
          2 2 2 2 2 2
          2 2 2 2 2 2
          2 2 2 2 2 2
          2 2 2 2 2 2
          2 2 2 2 2 2
          2 2 2 2 2 2
          2 2 2 2 2 2
          2 2 2 2 2 2
          2 2 2 2 2 2
          2 2 2 2 2 2
          2 2 2 2 2 2
          2 2 2 2 2 2
          2 2 2 2 2 2
          2 2 2 2 2 2
          2 2 2 2 2 2
          2 2 2 2 2 2
          2 2 2 2 2 2
          2 2 2 2 2 2
          2 2 2 2 2 2
          2 2 2 2 2 2
          2 2 2 2 2 2
          2 2 2 2 2 2
          2 2 2 2 2 2
          2 2 2 2 2 2
          2 2 2 2 2 2
          2 2 2 2 2 2
          2 2 2 2 2 2
          2 2 2 2 2 2
          2 2 2 2 2 2
          2 2 2 2 2 2
          2 2 2 2 2 2
          2 2 2 2 2 2
          2 2 2 2 2 2
          2 2 2 2 2 2
          2 2 2 2 2 2
          2 2 2 2 2 2
          2 2 2 2 2 2
          2 2 2 1.5 2 2
          2 2 1.5 2 2 2
          2 2 2 2 2 2
          2 2 2 2 2 2
          2 2 2 2 2 2
          2 2 2 2 2 2
          2 2 2 2 2 2
          2 2 2 2 2 2
          2 2 2 2 2 2
          2 2 2 2 2 2
          2 2 2 2 2 2
          2 2 2 2 2 2
          2 2
        </DataArray>
        <DataArray type="Float64" Name="gradient_marker" format="ascii" RangeMin="0" RangeMax="1">
          0 0.75 1 1 0.75 1
          0.75 0 1 1 1 1
          1 1 0.875 1 1 1
          1 0.75 0.875 0.25 0.5 1
          0.875 0.5 0.75 0.25 1 1
          1 1 0.5 0.625 0.875 0.875
          0.25 0.5 0 0.5 0.625 0.75
          0 0.25 0 0.5 0 0
          0 0 0 0 0 0
          0 0 0 0 0 0
          0 0 0 0 0 0
          0 0 0 0 0 0
          0 0 0 0 0 0
          0 0.5 0.5 1 0.25 0
          0 0.25 0 1 1 1
          0.5 0 0 0 0.25 0.25
          0 0.3333333333333333 0 0 0.25 0
          0.5 0.625 0.5 0.625 0.625 0.75
          0.25 0.375 0.125 0.75 0.25 0