<?xml version="1.0"?>
<VTKFile type="UnstructuredGrid" version="0.1" byte_order="LittleEndian" header_type="UInt32" compressor="vtkZLibDataCompressor">
  <UnstructuredGrid>
    <Piece NumberOfPoints="1167" NumberOfCells="728">
      <PointData>
        <DataArray type="Int32" Name="libmesh_node_id" format="ascii" RangeMin="1174" RangeMax="11277">
          1264 1381 1382 1383 1386 1393
          1405 1604 1605 1606 1607 1608
          1609 1610 1613 1614 1615 1616
          1617 1784 1785 1786 1788 1789
          1791 1804 1805 1806 1807 1808
          1809 1810 1814 1815 1816 2442
          2443 2444 2445 2446 2447 2448
          2449 2450 2451 2452 2453 2454
          2455 2456 2457 2458 2459 2460
          2461 2462 2463 2464 2465 2466
          2467 2468 2471 2472 2475 2477
          2479 2480 2481 2482 2483 2484
          2485 2486 2487 2488 2583 2584
          2585 2586 2587 2588 2589 2590
          2591 2592 2593 2595 2597 2598
          2599 2709 2710 2711 2712 2713
          2714 2715 2716 2717 2718 2719
          2720 2721 2722 2723 2724 2725
          2726 2727 2728 2729 2730 2731
          2732 2733 2734 2735 2783 2784
          2785 2786 2787 2788 2789 2790
          2791 2792 2793 2794 2795 2796
          4066 4067 4070 4073 4075 4076
          4077 4078 4079 4080 4081 4082
          4083 4084 4085 4086 4087 4088
          4091 4092 4095 4097 4099 4100
          4101 4102 4103 4104 4105 4106
          4107 4108 4111 4112 4114 4117
          4119 4120 4121 4122 4123 4124
          4125 4126 4127 4128 4130 4132
          4134 4136 4137 4138 4139 4140
          4141 4142 4143 4144 4145 4146
          4147 4148 4149 4150 4151 4152
          4153 4154 4155 4156 4157 4158
          4159 4160 4161 4162 4163 4164
          4165 4166 4167 4168 4169 4170
          4171 4172 4173 4174 4175 4176
          4177 4178 4179 4180 4181 4182
          4183 4184 4185 4186 4187 4188
          4189 4190 4191 4192 4193 4194
          4195 4196 4197 4198 4199 4200
          4201 4202 4203 4204 4205 4206
          4207 4218 4219 4220 4221 4222
          4223 4224 4225 4226 4227 4230
          4245 4246 4247 4248 4249 4250
          4251 4259 4260 4261 4262 4263
          4264 4265 4266 4267 4268 4269
          4270 4271 4272 4273 4274 4275
          4276 4277 4278 4445 4446 4447
          4448 4449 4450 4451 4479 4480
          4481 4482 4483 4484 4485 4486
          4487 4488 4489 4490 4491 4492
          4493 4494 4495 4496 4497 4498
          4588 4589 4590 4591 4592 4593
          4594 4595 4596 4597 4598 4599
          4600 4601 4602 4603 4604 4605
          4606 4607 4608 4609 4610 4611
          4612 4613 4614 4615 4616 4617
          4618 4619 4620 4621 4622 4623
          4624 4625 4626 4627 4628 4629
          4630 4631 4632 4633 4634 4635
          4636 4637 4638 4691 4692 4693
          4696 4697 4698 4699 4700 4701
          4702 4703 4704 4705 4706 4711
          4713 4714 4716 4717 4718 4719
          4720 10262 10282 10296 10297 10299
          10302 10312 10314 10316 10328 10329
          10330 10331 10339 10340 10341 10342
          10343 10344 10345 10346 10347 10348
          10349 10350 10351 10352 10353 10354
          10355 10356 10357 10358 10359 10360
          10361 10362 10363 10364 10365 10366
          10367 10368 10369 10370 10371 10372
          10373 10374 10375 10376 10377 10378
          10379 10380 10381 10382 10401 10421
          10431 10433 10435 10445 10447 10449
          10451 10452 10453 10454 10455 10456
          10457 10458 10459 10460 10461 10462
          10463 10464 10465 10466 10467 10468
          10469 10470 10471 10472 10473 10474
          10475 10476 10477 10478 10479 10480
          10481 10482 10483 10484 10485 10486
          10487 10488 10489 10490 10503 10504
          10506 10509 10519 10521 10523 10537
          10538 10540 10543 10553 10555 10557
          10559 10560 10561 10562 10563 10564
          10565 10566 10567 10568 10569 10570
          10571 10572 10573 10574 10575 10576
          10577 10578 10579 10580 10581 10582
          10583 10584 10585 10586 10587 10588
          10589 10590 10591 10592 10593 10594
          10595 10596 10597 10598 10599 10600
          10601 10602 10603 10604 10605 10606
          10607 10608 10609 10610 10611 10612
          10613 10614 10615 10616 10617 10618
          10619 10620 10621 10622 10623 10624
          10625 10626 10635 10637 10639 10649
          10651 10653 10663 10665 10667 10677
          10679 10681 10683 10684 10685 10686
          10687 10688 10689 10690 10691 10692
          10693 10694 10695 10696 10697 10698
          10699 10700 10701 10702 10703 10704
          10705 10706 10707 10708 10709 10710
          10711 10712 10713 10714 10715 10716
          10717 10718 10719 10720 10721 10722
          10723 10724 10725 10726 10727 10728
          10729 10730 10731 10732 10733 10734
          10735 10736 10737 10738 10739 10740
          10741 10742 10743 10744 10745 10746
          10747 10748 10749 10750 10751 10752
          10753 10754 10755 10756 10757 10758
          10759 10760 10761 10762 10763 10764
          10765 10766 10767 10768 10769 10770
          10771 10772 10773 10774 10775 10776
          10777 10778 10779 10780 10781 10782
          10783 10784 10785 10786 10787 10788
          10789 10790 10791 10792 10793 10794
          10795 10796 10797 10798 10799 10800
          10801 10802 10803 10804 10805 10806
          10807 10808 10809 10810 10811 10812
          10813 10814 10815 10816 10817 10818
          10819 10820 10821 10822 10823 10824
          10825 10826 10827 10828 10829 10830
          10831 10832 10833 10834 10835 10836
          10837 10838 10839 10840 10841 10842
          10843 10844 10845 10846 10847 10848
          10849 10850 10851 10852 10853 10854
          10855 10856 10857 10858 10859 10860
          10861 10862 10863 10864 10865 10866
          10867 10868 10869 10870 10871 10872
          10873 10874 10875 10876 10877 10878
          10879 10880 10881 10882 10883 10884
          10885 10886 10887 10888 10889 10890
          10891 10892 10893 10894 10895 10896
          10897 10898 10899 10900 10901 10902
          10903 10904 10905 10906 10907 10908
          10909 10910 10911 10912 10913 10914
          10915 10916 10917 10918 10919 10920
          10921 10922 10923 10924 10925 10926
          10927 10928 10929 10930 10931 10932
          10933 10934 10935 10936 10937 10938
          10939 10940 10941 10942 10943 10944
          10945 10946 10947 10948 10949 10950
          10951 10952 10953 10954 10955 10956
          10957 10958 10959 10960 10961 10962
          10963 10964 10965 10966 10967 10968
          10969 10970 10971 10972 10973 10974
          10975 10976 10977 10978 10979 10980
          11028 11029 11030 11031 11032 11033
          11034 11035 11036 11037 11038 11039
          11040 11041 11042 11043 11044 11045
          11046 11047 11114 11115 11116 11117
          11118 11119 11120 11121 11122 11123
          11124 11125 11126 11127 11128 11129
          11130 11131 11132 11133 11134 11135
          11136 11137 11138 11139 11140 11141
          11142 11143 11144 11145 11146 11147
          11148 11149 11150 11151 11152 11153
          11154 11155 11156 11157 11158 11159
          11160 11161 11162 11163 11164 11165
          11166 11167 11168 11169 11170 11171
          11172 11173 11174 11175 11224 11225
          11226 11227 11228 11229 11230 11231
          11232 11233 11234 11235 11236 11237
          11238 11239 11240 11241 11242 11243
          11244 11245 11246 11247 11248 11249
          11250 11251 11252 11253 11254 11255
          11256 11257 11258 11259 11260 11261
          11262 11263 11264 11265 11266 11267
          11268 11269 11270 11271 11272 11273
          11274 11275 11276 11277 1385 1177
          1388 1384 1387 1390 1389 1176
          1395 1396 1397 1398 1400 1401
          1266 1407 1406 1647 1654 1655
          1648 1174 1371 1657 1658 1660
          1651 1175 1661 1778 1779 1787
          1780 1790 1792 1783 1793 1372
          1590 1591 1560 1594 1611 1796
          1794 1612 1797 1795 1798 1800
          1799 1801 1802 1265 1803 1811
          1812 1813 1817 2578 2594 2579
          2596 2582 1582 1618 1622 1376
          1620 2704 2389 2705 2708 2469
          2433 2473 1599 2775 2773 2474
          2776 2774 2478 2781 2780 4210
          4211 4214 4216 2470 4212 4228
          4213 4231 4229 4232 4234 4233
          4236 4253 4255 4257 4350 4351
          4357 2779 4675 4573 4712 4715
          4676 4679 4093 4208 4005 11000
          11001 11004 11006 11066 11068 11070
          4239 11026 11080 11082 11084 4241
          11094 11096 11098 4243 11108 11110
          11112 2476 11185 11186 11189 11191
          11211 11213 11215
        </DataArray>
        <DataArray type="Float64" Name="bounds" format="ascii" RangeMin="0" RangeMax="0">
          0 0 0 0 0 0
          0 0 0 0 0 0
          0 0 0 0 0 0
          0 0 0 0 0 0
          0 0 0 0 0 0
          0 0 0 0 0 0
          0 0 0 0 0 0
          0 0 0 0 0 0
          0 0 0 0 0 0
          0 0 0 0 0 0
          0 0 0 0 0 0
          0 0 0 0 0 0
          0 0 0 0 0 0
          0 0 0 0 0 0
          0 0 0 0 0 0
          0 0 0 0 0 0
          0 0 0 0 0 0
          0 0 0 0 0 0
          0 0 0 0 0 0
          0 0 0 0 0 0
          0 0 0 0 0 0
          0 0 0 0 0 0
          0 0 0 0 0 0
          0 0 0 0 0 0
          0 0 0 0 0 0
          0 0 0 0 0 0
          0 0 0 0 0 0
          0 0 0 0 0 0
          0 0 0 0 0 0
          0 0 0 0 0 0
          0 0 0 0 0 0
          0 0 0 0 0 0
          0 0 0 0 0 0
          0 0 0 0 0 0
          0 0 0 0 0 0
          0 0 0 0 0 0
          0 0 0 0 0 0
          0 0 0 0 0 0
          0 0 0 0 0 0
          0 0 0 0 0 0
          0 0 0 0 0 0
          0 0 0 0 0 0
          0 0 0 0 0 0
          0 0 0 0 0 0
          0 0 0 0 0 0
          0 0 0 0 0 0
          0 0 0 0 0 0
          0 0 0 0 0 0
          0 0 0 0 0 0
          0 0 0 0 0 0
          0 0 0 0 0 0
          0 0 0 0 0 0
          0 0 0 0 0 0
          0 0 0 0 0 0
          0 0 0 0 0 0
          0 0 0 0 0 0
          0 0 0 0 0 0
          0 0 0 0 0 0
          0 0 0 0 0 0
          0 0 0 0 0 0
          0 0 0 0 0 0
          0 0 0 0 0 0
          0 0 0 0 0 0
          0 0 0 0 0 0
          0 0 0 0 0 0
          0 0 0 0 0 0
          0 0 0 0 0 0
          0 0 0 0 0 0
          0 0 0 0 0 0
          0 0 0 0 0 0
          0 0 0 0 0 0
          0 0 0 0 0 0
          0 0 0 0 0 0
          0 0 0 0 0 0
          0 0 0 0 0 0
          0 0 0 0 0 0
          0 0 0 0 0 0
          0 0 0 0 0 0
          0 0 0 0 0 0
          0 0 0 0 0 0
          0 0 0 0 0 0
          0 0 0 0 0 0
          0 0 0 0 0 0
          0 0 0 0 0 0
          0 0 0 0 0 0
          0 0 0 0 0 0
          0 0 0 0 0 0
          0 0 0 0 0 0
          0 0 0 0 0 0
          0 0 0 0 0 0
          0 0 0 0 0 0
          0 0 0 0 0 0
          0 0 0 0 0 0
          0 0 0 0 0 0
          0 0 0 0 0 0
          0 0 0 0 0 0
          0 0 0 0 0 0
          0 0 0 0 0 0
          0 0 0 0 0 0
          0 0 0 0 0 0
          0 0 0 0 0 0
          0 0 0 0 0 0
          0 0 0 0 0 0
          0 0 0 0 0 0
          0 0 0 0 0 0
          0 0 0 0 0 0
          0 0 0 0 0 0
          0 0 0 0 0 0
          0 0 0 0 0 0
          0 0 0 0 0 0
          0 0 0 0 0 0
          0 0 0 0 0 0
          0 0 0 0 0 0
          0 0 0 0 0 0
          0 0 0 0 0 0
          0 0 0 0 0 0
          0 0 0 0 0 0
          0 0 0 0 0 0
          0 0 0 0 0 0
          0 0 0 0 0 0
          0 0 0 0 0 0
          0 0 0 0 0 0
          0 0 0 0 0 0
          0 0 0 0 0 0
          0 0 0 0 0 0
          0 0 0 0 0 0
          0 0 0 0 0 0
          0 0 0 0 0 0
          0 0 0 0 0 0
          0 0 0 0 0 0
          0 0 0 0 0 0
          0 0 0 0 0 0
          0 0 0 0 0 0
          0 0 0 0 0 0
          0 0 0 0 0 0
          0 0 0 0 0 0
          0 0 0 0 0 0
          0 0 0 0 0 0
          0 0 0 0 0 0
          0 0 0 0 0 0
          0 0 0 0 0 0
          0 0 0 0 0 0
          0 0 0 0 0 0
          0 0 0 0 0 0
          0 0 0 0 0 0
          0 0 0 0 0 0
          0 0 0 0 0 0
          0 0 0 0 0 0
          0 0 0 0 0 0
          0 0 0 0 0 0
          0 0 0 0 0 0
          0 0 0 0 0 0
          0 0 0 0 0 0
          0 0 0 0 0 0
          0 0 0 0 0 0
          0 0 0 0 0 0
          0 0 0 0 0 0
          0 0 0 0 0 0
          0 0 0 0 0 0
          0 0 0 0 0 0
          0 0 0 0 0 0
          0 0 0 0 0 0
          0 0 0 0 0 0
          0 0 0 0 0 0
          0 0 0 0 0 0
          0 0 0 0 0 0
          0 0 0 0 0 0
          0 0 0 0 0 0
          0 0 0 0 0 0
          0 0 0 0 0 0
          0 0 0 0 0 0
          0 0 0 0 0 0
          0 0 0 0 0 0
          0 0 0 0 0 0
          0 0 0 0 0 0
          0 0 0 0 0 0
          0 0 0 0 0 0
          0 0 0 0 0 0
          0 0 0 0 0 0
          0 0 0 0 0 0
          0 0 0 0 0 0
          0 0 0 0 0 0
          0 0 0 0 0 0
          0 0 0 0 0 0
          0 0 0 0 0 0
          0 0 0 0 0 0
          0 0 0 0 0 0
          0 0 0 0 0 0
          0 0 0 0 0 0
          0 0 0 0 0 0
          0 0 0 0 0 0
          0 0 0 0 0 0
          0 0 0 0 0 0
          0 0 0 0 0 0
          0 0 0
        </DataArray>
        <DataArray type="Float64" Name="gradient_error" format="ascii" RangeMin="1.2181984035508077e-14" RangeMax="1.4149016315607731e-10">
          5.432657119183603e-13 2.104382602485845e-12 1.6042777574839045e-12 3.642027685030691e-12 1.3263164363659586e-13 8.797844138167687e-14
          8.95036055842644e-14 5.332457058165622e-13 4.438660227109617e-13 2.93553014117448e-13 2.5910393569357676e-13 1.0016704176656048e-13
          6.063814771041312e-14 5.827568758803126e-14 6.237590783641911e-14 2.7094258395587327e-12 7.402064857352899e-13 2.1987038647375812e-13
          3.886162680012078e-13 2.9832781282554843e-12 2.3069834660700904e-12 1.8563164608007854e-11 1.3473643204543769e-12 3.821123503623399e-12
          1.1570750537128548e-12 2.955372038588854e-14 2.8273708587986034e-14 5.844672474182527e-14 4.179025745306912e-14 1.8951310926983528e-14
          7.107186582318151e-14 5.13901799554384e-14 1.500756054568439e-13 8.291969970815969e-14 8.382904898389326e-14 4.625053839660027e-13
          4.4426301521918405e-12 3.148537922667131e-12 3.1933766412182314e-13 6.537266062793785e-13 4.618627498566177e-13 5.032019481089169e-13
          1.1419333345531142e-12 2.4454325918626226e-13 1.708620572613583e-11 1.2992661247752607e-11 2.012899836587221e-12 4.92290577359658e-12
          1.0062933281921813e-13 8.823497858011769e-14 1.0561889781088714e-13 1.5208195411564596e-13 5.800495381146368e-14 2.7337351533217214e-13
          2.1909019032397965e-13 8.686929816521087e-14 1.665802502837464e-13 1.3702447613239846e-13 3.3938362605888296e-13 2.456560772728704e-13
          4.284132392044193e-13 2.3245728277242334e-13 1.665570878205973e-13 2.6765915750283386e-13 2.7774292844206126e-13 3.774118142970397e-13
          9.712882180080963e-14 1.4027295388236756e-13 6.045900872305955e-14 9.508899469763769e-14 8.972117294709926e-14 1.2428214175733486e-13
          6.962117874333714e-14 1.8627078677983865e-13 1.1481547668211815e-13 1.362760614879505e-13 5.667547246355781e-13 4.655047138211263e-13
          7.47606069993133e-13 6.279679274292881e-13 2.0063773544275148e-13 2.527397031732958e-13 2.2049360900344088e-13 3.642547030066745e-13
          5.083297848654432e-13 1.8824751483358602e-13 1.114450281731669e-12 7.358911687202241e-13 1.5454392599223246e-12 2.8580015701114262e-12
          1.5343877617434987e-12 3.6862921641341694e-13 3.4121777759674174e-13 2.554494533371825e-13 3.1147643500699513e-13 1.2397916758142893e-13
          1.361513000246161e-13 2.061845690282001e-13 2.741126105830266e-13 3.021137572770335e-13 2.2563287513753919e-13 3.743303224299632e-14
          3.316881847723001e-14 8.949435868425759e-14 8.164250963499664e-14 2.5369664716454853e-14 4.586693466309313e-14 3.981590912874484e-14
          2.856659797129342e-14 6.283909012597518e-14 2.7434871733972752e-14 1.899976328232177e-13 2.869597328502544e-13 7.847811988142564e-14
          1.4116829808638283e-13 1.455763832604487e-13 3.331633057888267e-13 1.0509229759235489e-13 8.37641838522632e-14 7.167179466053631e-14
          2.62309576371802e-13 2.1600331834564942e-13 4.3785922883158805e-14 1.1458722327239228e-13 9.561674648306283e-14 4.577253793121922e-14
          1.179999675975264e-13 5.439745704241863e-14 4.408549688913407e-13 3.603348420307625e-13 1.4744757008296685e-13 1.902273972638336e-13
          7.791777624904607e-13 7.228811294812045e-13 6.768904319708798e-13 4.075217953617275e-12 2.767352573126662e-13 2.5773193859143166e-13
          4.25762896188888e-13 3.9637054466692735e-13 3.018972530727371e-13 2.980357006763497e-13 2.7917287868606555e-13 4.0946119515269727e-13
          4.354343057390317e-13 2.304394263604761e-13 1.7529424417498448e-12 1.60754925989685e-12 5.9930731849655e-13 1.241019878991358e-12
          4.913821709982496e-13 5.768228540661152e-13 4.733218699841297e-13 2.056236323594587e-12 6.318133382864567e-13 4.249802459793183e-13
          2.5216501662327344e-13 2.2772402647902556e-13 4.1703180684549363e-13 2.740683815394416e-13 1.9738647234006888e-13 8.093189440199059e-13
          3.4768470263889626e-13 4.4795331204134473e-13 1.466325341163073e-11 1.3437859149237565e-11 1.0323078934361648e-11 1.6025819747731135e-11
          5.852557870262221e-12 5.3594636914438235e-12 2.204795535596531e-12 2.017986346226338e-12 4.109141779359472e-12 1.544663365299245e-12
          7.0118542887836946e-12 6.551313693175492e-12 2.5230223318970514e-12 5.2656997474048985e-12 6.624836712563922e-12 3.5504040845109787e-12
          8.820474430543672e-12 2.6306552332133502e-12 9.863400154913204e-13 1.4061194550363039e-12 5.252813588183644e-13 3.5434781425174263e-12
          1.3444956986626159e-12 1.9637511695009294e-12 1.7297828720709618e-13 1.5872113536609591e-13 1.1541403918136634e-13 1.5256723906216284e-13
          5.4227955312616466e-14 7.429862985323395e-14 1.1566088220464856e-13 1.2729032241775682e-13 1.6300632371877385e-13 1.3854469338165867e-13
          2.2988049682629637e-13 2.4604415636705884e-13 1.400850751508139e-13 2.277306831150111e-13 9.192260555878054e-14 1.7607076195213263e-13
          4.2646345395406906e-14 1.0190235134644573e-13 6.472739864271647e-14 1.669450225642724e-13 7.957520533163223e-14 2.069729231311696e-13
          1.3322600548391354e-13 2.1504831178102507e-13 7.831662432150536e-13 7.161026387523686e-13 2.599647676110296e-13 2.3762065457545255e-13
          5.468649326320488e-13 1.8074538515692163e-13 9.866136206190282e-13 9.158682089701853e-13 3.140151698772376e-13 7.25696685098192e-13
          1.1732814831262045e-13 1.0969355581156182e-13 2.0253402411689374e-13 1.8674394148555685e-13 1.2620182185662343e-13 3.0410100049714944e-13
          2.81109898225145e-13 9.013547665135442e-14 1.4724473913386629e-13 2.2430485813315837e-13 2.6289244538151556e-13 2.4345968738514703e-13
          3.5454385974286897e-13 1.9255845984765043e-13 3.478457671559827e-13 1.8587944547436426e-13 2.1725825455311127e-13 2.1400627805135733e-13
          4.828372787305747e-13 2.5613453027683355e-13 2.620152632067904e-13 9.446470259976969e-14 1.8551038667655604e-13 7.608397478423068e-14
          1.635004534780258e-13 1.0606946966486487e-13 1.918406541209127e-13 1.1079510129463111e-13 2.413010505451886e-13 2.0704191724926015e-13
          2.4732793970048555e-13 2.4506213635471815e-13 3.112769221124898e-13 1.0392853684634527e-13 1.5444164074881823e-13 1.3746302663945562e-13
          3.062479724397476e-13 1.5104403837620017e-13 3.477238476776828e-13 2.0906992433818576e-13 3.467147031723203e-13 1.605125326061217e-13
          6.304968148931862e-13 2.753012939006724e-13 3.7106320393384054e-13 3.3708003815809305e-13 8.962876492225798e-13 3.346215118646324e-13
          5.077565399748639e-13 2.51589540782023e-13 4.063736854927463e-13 1.9503799236675053e-13 3.159557486487309e-13 2.2439302895229193e-13
          4.1367675679228475e-13 1.655363651373295e-13 5.155552836941973e-13 3.997571029516732e-13 5.08477224912612e-13 2.030538195499802e-13
          2.174173751527281e-13 1.5239721996001365e-13 1.8164166256606913e-13 1.7990450961227914e-13 2.147171388564891e-13 1.4354571143421997e-13
          1.778401325187636e-13 1.7776135104881588e-13 2.0807336418182786e-13 3.171819124398898e-14 4.313233886528064e-14 2.5875812228253194e-14
          2.3606130923300262e-14 3.520779125685482e-14 3.437715806434665e-14 2.6107401973051567e-14 4.587120493881981e-14 6.827432941203908e-14
          2.3977453761566122e-14 2.8579713448243903e-14 3.037489618223845e-14 3.8087722293075324e-14 2.2301707970545365e-14 9.067745388525835e-14
          3.318197313492168e-14 4.580054840391219e-14 2.395735469580969e-14 4.469712738627516e-14 1.3188221047020588e-14 2.216531421330598e-14
          1.594903899799038e-14 2.3091379896994377e-14 1.2181984035508077e-14 6.543690007674062e-14 3.114240737959137e-14 3.0233720795998374e-14
          2.718149509919286e-14 2.7325289680719433e-14 6.282085553386563e-14 6.090644279751062e-14 2.2503156820858478e-14 3.5322498772395106e-14
          3.3615431913342186e-14 2.6624056905671726e-14 5.410323036311077e-14 2.9385335249426316e-14 2.4843517436212246e-14 4.1959634641343457e-14
          1.7835484577972967e-14 2.502222221982142e-14 2.3908005323327054e-14 3.470483861762102e-14 2.318213899507947e-14 8.156453938262854e-14
          1.4388758218005607e-13 6.09558725894365e-14 9.088053049905548e-14 6.09276340813956e-14 9.541870165701093e-14 6.316555255615569e-14
          4.876203238590443e-14 9.433770542762684e-14 3.7239893483395006e-14 5.939044261569645e-14 4.179781729351899e-14 6.675184598103235e-14
          4.483998098178328e-14 7.493855063813885e-14 1.0048900526481657e-13 4.6661632737684895e-14 6.316650945993306e-14 5.2932097283854465e-14
          6.778856668759921e-14 4.1252802973479223e-14 1.260394598914943e-13 7.967138618218122e-14 8.264503609134395e-14 9.899760607769693e-14
          1.3100361214803787e-13 6.077168130264544e-14 7.476230805126302e-14 6.595113364880167e-14 8.282838335916584e-14 5.3724210219875265e-14
          1.6300961821837882e-13 8.875293479988064e-14 9.970563306953e-14 1.42016506688839e-13 3.361825009393901e-13 3.1565802856797825e-13
          3.088744407875457e-13 6.9416366547076e-14 7.411249760211309e-14 1.3088656229211154e-13 1.252752153492307e-13 5.363014913228522e-14
          6.495638291100577e-14 6.962541803313686e-14 7.880862865715018e-14 1.1966386840634985e-13 7.429445315526796e-14 1.6036910968518194e-13
          1.966599269389361e-13 1.259329675988291e-13 9.275415924590735e-14 1.327755310150761e-13 1.1446100383288962e-13 1.6939996725911233e-13
          1.1531880796705643e-13 7.648978972191029e-13 6.547368053877483e-13 1.902429188415582e-12 1.8644878131141014e-12 1.7551473137846995e-12
          4.3476676029163674e-12 1.5901601584128288e-12 1.387286341225103e-12 3.659216245564064e-12 4.894811416414148e-13 4.805103083795852e-13
          3.5548678530030814e-13 4.540050414472669e-13 4.0903915359127517e-13 3.0343409851536594e-13 4.152511827870395e-13 1.2062166659608134e-12
          1.1820977262318927e-12 7.532822332226569e-13 7.382015955494789e-13 1.1124351379869546e-12 6.944845421703887e-13 2.8102037825404464e-12
          2.750049215140411e-12 1.7153818631900225e-12 2.5774164522351047e-12 2.6813384923650057e-13 2.6313675939754267e-13 4.599307734438042e-13
          4.5071254092269173e-13 1.564453781191593e-13 2.766501334445921e-13 2.710981567934354e-13 2.481499501745434e-13 4.239314400616049e-13
          2.5494588663559544e-13 1.0783146714764654e-12 1.055197398370931e-12 6.396474381669543e-13 9.888160496154517e-13 1.0059633328013833e-12
          6.269213614686276e-13 8.74332352544275e-13 5.431421493508465e-13 2.3139494773170423e-12 1.4429583331320005e-12 1.9906780827238917e-12
          2.245478404183167e-13 3.8265206060087275e-13 1.347040077555236e-13 2.30115362504495e-13 1.9599163488224396e-13 3.31799189116505e-13
          2.000418220684873e-13 8.874234699582635e-13 5.377636450375031e-13 7.627029533492302e-13 5.800908009865267e-13 3.6913049411212163e-13
          1.1622113688547635e-12 9.34500181297443e-13 2.597599225365772e-12 7.223295901976298e-13 5.378569169775288e-13 1.5631073913454164e-12
          4.398039975790514e-13 7.299674639574768e-13 2.7018063084925106e-13 4.5198874698234714e-13 3.5539806369905764e-13 5.857137188797891e-13
          3.6196877777501407e-13 1.6419055654595118e-12 1.0232499170222072e-12 1.299235213903385e-12 1.6628877825029403e-13 2.761384464426311e-13
          1.0474501008166948e-13 1.661693846857923e-13 1.3773275668671285e-13 2.2050116099469003e-13 1.4707710409629831e-13 6.286864997880608e-13
          3.7877766461007675e-13 4.966148328311538e-13 2.7724982643943553e-13 4.5259320679140155e-13 1.7164123575245582e-13 2.800131751166012e-13
          2.100350875031269e-13 3.373485287949411e-13 2.0903691784649852e-13 9.871028929089691e-13 6.144795529156716e-13 7.203673876555574e-13
          1.104196609343452e-13 1.7060031809855678e-13 8.94893051924931e-14 1.2834835158698676e-13 8.390431673611389e-14 1.2742326575782842e-13
          9.578343937985156e-14 3.764799095944286e-13 2.6776069349631825e-13 2.74471700787772e-13 9.13932590745666e-12 8.93637128691406e-12
          8.354292899201792e-12 1.4347306268650711e-11 7.467821007601257e-12 6.3839236909286025e-12 1.204334574630793e-11 1.7162990640102995e-11
          1.6849570129285482e-11 1.5931190514338367e-11 1.6820394350926358e-11 1.4477904212831494e-11 1.2613691953165873e-11 1.4725695873869368e-11
          5.792542904234732e-12 5.663685412752073e-12 3.619864925963507e-12 3.5392543221143735e-12 5.2941526786997114e-12 3.3080657278618103e-12
          9.330901901928944e-12 9.12891854801172e-12 5.72536298510592e-12 8.547722640879608e-12 2.2302529395809003e-12 2.180618599988578e-12
          1.3546064038712648e-12 1.3246747953467179e-12 2.0381841872976947e-12 1.238541567409497e-12 3.6182731677319625e-12 3.539382707274833e-12
          2.1566129264792874e-12 3.3124587402002223e-12 4.731460785396781e-12 2.9559940674249253e-12 4.0437039115049874e-12 2.5258348884451212e-12
          7.657163929876678e-12 4.799116657196538e-12 6.559647406116294e-12 1.8210826528445676e-12 1.1067262696379192e-12 1.5556834742330134e-12
          9.450333314651483e-13 2.9650438488119245e-12 1.8057212809595437e-12 2.5375709702043677e-12 1.1011963132083987e-11 1.0807370721156865e-11
          6.9613367675396125e-12 6.8299633287554335e-12 1.0209054218025084e-11 6.446445121242228e-12 1.1028844657103226e-11 1.0851462501711995e-11
          6.89568514643152e-12 1.0323587465111728e-11 4.336164614744477e-12 4.253147436360952e-12 2.6614550160081948e-12 2.6098003157725295e-12
          4.011182571505058e-12 2.459472487241331e-12 4.391387127885007e-12 4.316660183855371e-12 2.6621804284137216e-12 4.095896867922823e-12
          9.265443549674757e-12 5.8434359694044896e-12 8.059875203551744e-12 5.075836272679211e-12 9.46610242550611e-12 5.995477870038947e-12
          8.332200201970035e-12 3.6318116901012813e-12 2.224428277781471e-12 3.1505311326855513e-12 1.9272655102291634e-12 3.74161032913475e-12
          2.300865960098153e-12 3.2794881100806998e-12 5.220631950354076e-12 4.0861536326520766e-12 8.45905185674426e-12 3.0632218929437813e-12
          2.201879713538136e-12 4.95917282813138e-12 1.0509572219616782e-11 8.358305062174912e-12 1.0963088547498617e-11 6.338482882301022e-12
          4.582590374173603e-12 6.755385907805385e-12 3.3059846693901543e-12 2.0648922505823753e-12 2.5868499738551324e-12 1.6157508265757172e-12
          5.3717557531180594e-12 3.3631468400340852e-12 4.204175949995535e-12 1.2725742077698284e-12 7.731103561033343e-13 9.971559464060744e-13
          6.058818160532219e-13 2.0756759225818958e-12 1.2626745214656298e-12 1.6225271559577443e-12 1.938529610556136e-12 1.2105648255615815e-12
          1.3925805160943199e-12 8.690765857710104e-13 3.1449767476216356e-12 1.9666680170864412e-12 2.249972441515208e-12 7.473445767548912e-13
          4.5371412407910226e-13 5.360151205144372e-13 3.2484348444134767e-13 1.2121968786153739e-12 7.364223091404098e-13 8.659063376547178e-13
          6.704601480307282e-12 4.216060404102236e-12 5.3239507116370145e-12 3.343067220977328e-12 7.0139805925756314e-12 4.4229086583720806e-12
          5.630808417246976e-12 2.613310508430766e-12 1.5966734772753033e-12 2.0694842257506662e-12 1.262932024127982e-12 2.749032702296242e-12
          1.6842570538957772e-12 2.198265932038352e-12 4.0316394456941994e-12 2.5282232852307517e-12 2.9110515647124956e-12 1.823387326327299e-12
          4.304115418582828e-12 2.703666196061188e-12 3.1312464733588555e-12 1.5631257152643261e-12 9.52846854283063e-13 1.1260406824103344e-12
          6.855794650823594e-13 1.6743679828815983e-12 1.022239997189774e-12 1.2142977437441066e-12 9.515953960614447e-14 9.509826432115781e-14
          1.6510752552331467e-13 1.6151266631439684e-13 6.054459605257574e-14 9.79186373584011e-14 9.539829845814858e-14 9.261070945259817e-14
          1.5125303005468597e-13 9.745376896180353e-14 3.9041825768478887e-13 3.8179052454376186e-13 2.2328382052383164e-13 3.5740345251838237e-13
          3.5815773450926155e-14 3.923671346455275e-14 5.6718995105080944e-14 5.626380084488649e-14 3.0933102753491535e-14 4.0992317482288066e-14
          4.208377979629121e-14 4.265765347817934e-14 5.5808606584692037e-14 4.317524211029435e-14 1.334146272802672e-13 1.2899431108367353e-13
          8.878679752769498e-14 1.3768520148475416e-13 8.526775790836552e-14 1.3620876461908146e-13 6.900378413790706e-14 1.0049878990642298e-13
          7.518521033455541e-14 1.1853260383339862e-13 8.7370723122626e-14 3.205564325435285e-13 2.2350684551675646e-13 2.751790793658221e-13
          6.798455432692364e-14 9.910737441850138e-14 5.449741207008252e-14 7.445385630089432e-14 6.594977393244233e-14 8.897881740447559e-14