<?xml version="1.0"?>
<VTKFile type="UnstructuredGrid" version="0.1" byte_order="LittleEndian" header_type="UInt32" compressor="vtkZLibDataCompressor">
  <UnstructuredGrid>
    <Piece NumberOfPoints="1096" NumberOfCells="772">
      <PointData>
        <DataArray type="Int32" Name="libmesh_node_id" format="ascii" RangeMin="1383" RangeMax="11098">
          1391 1595 1602 2384 2385 2386
          2390 2391 2392 2414 2415 2416
          2417 2419 2420 2421 2422 2441
          3748 3749 3750 3753 3756 3760
          3761 3766 3858 3859 3861 3864
          3866 3867 3868 3869 3870 3871
          3872 3873 3874 3875 3876 3877
          3878 3879 3881 3885 3887 3888
          3889 3890 3893 3894 3895 3896
          3899 3900 3902 3905 3907 3908
          3909 3910 3911 3912 3913 3914
          3915 3916 3918 3922 3924 3925
          3926 3927 3928 3929 3930 4061
          4062 4063 4064 4065 4068 4069
          4071 4072 4074 4089 4090 4094
          4096 4098 4109 4110 4113 4115
          4116 4118 4129 4131 4133 4135
          4557 4558 4559 4560 4561 4562
          4563 4564 4565 4566 4567 4568
          4569 4570 4687 4688 4689 4690
          4694 4695 4707 4708 4709 4710
          8236 8237 8238 8239 8240 8241
          8242 8243 8244 8245 8246 8247
          8248 8249 8260 8261 8262 8263
          8264 8265 8266 8267 8268 8269
          8280 8281 8282 8283 8284 8285
          8286 8287 8288 8289 8826 8827
          8828 8829 8830 8831 8832 8833
          8834 8835 8843 8844 8845 8846
          8847 8848 8849 8860 8861 8862
          8863 8864 8865 8866 8867 8868
          8869 8877 8878 8879 8880 8881
          8882 8883 8884 8885 8886 8887
          8888 8889 8890 8891 8892 8893
          8894 8895 8896 8897 8898 8899
          8900 8901 8902 8903 8904 8905
          8906 8907 8908 8909 8910 8911
          8912 8913 8914 8915 8916 8917
          8918 8919 8920 8921 8922 8923
          8924 8925 8926 8927 8928 8929
          8930 8931 8932 8933 8934 8935
          8936 8937 8938 8939 8940 8941
          8942 8943 8944 8945 8946 8947
          8948 8949 8950 8951 8952 8953
          8954 8955 8956 8957 8958 8959
          8960 8961 8962 8963 8964 8965
          8973 8974 8975 8976 8977 8978
          8979 8990 8991 8992 8993 8997
          8998 9007 9008 9009 9010 9011
          9012 9013 9021 9022 9025 9026
          9028 9029 9030 9031 9032 9033
          9034 9035 9036 9037 9038 9039
          9040 9041 9042 9043 9044 9045
          9046 9047 9048 9049 9050 9051
          9055 9056 9058 9059 9060 9061
          9065 9066 9067 9068 9069 9070
          9071 9072 9073 9074 9075 9076
          9077 9078 9079 9080 9081 9082
          9083 9086 9087 9089 9090 9091
          9092 9093 9094 9095 9106 9107
          9108 9109 9110 9111 9112 9113
          9114 9115 9123 9124 9125 9126
          9127 9128 9129 9140 9141 9142
          9143 9144 9145 9146 9147 9148
          9149 9157 9158 9159 9160 9161
          9162 9163 9164 9165 9166 9167
          9168 9169 9170 9171 9172 9173
          9174 9175 9176 9177 9178 9179
          9180 9181 9182 9183 9184 9185
          9186 9187 9188 9189 9190 9191
          9192 9193 9194 9195 9196 9197
          9198 9199 9200 9201 9202 9203
          9204 9205 9206 9207 9208 9209
          9210 9211 9212 9213 9214 9215
          9216 9217 9218 9219 9220 9221
          9222 9223 9224 9225 9226 9227
          9228 9229 9230 9231 9239 9240
          9241 9242 9243 9244 9245 9253
          9254 9257 9258 9267 9268 9269
          9270 9271 9272 9273 9281 9282
          9285 9286 9288 9289 9290 9291
          9292 9293 9294 9295 9296 9297
          9298 9299 9300 9301 9302 9303
          9305 9306 9307 9309 9310 9311
          9312 9313 9314 9315 9316 9317
          9318 9319 9320 9321 9322 9323
          9324 9325 9326 9327 9328 9329
          9330 9331 9333 9334 9335 9337
          9338 9339 9340 9341 9342 9343
          10236 10237 10238 10239 10240 10241
          10242 10243 10244 10245 10246 10247
          10248 10249 10250 10251 10252 10253
          10254 10255 10256 10257 10258 10259
          10260 10261 10263 10264 10265 10266
          10267 10268 10269 10270 10271 10272
          10273 10274 10275 10276 10277 10278
          10279 10280 10281 10283 10284 10285
          10286 10287 10288 10289 10290 10291
          10292 10293 10294 10295 10298 10300
          10301 10303 10304 10305 10306 10307
          10308 10309 10310 10311 10313 10315
          10317 10318 10319 10320 10321 10322
          10323 10324 10325 10326 10327 10332
          10333 10334 10335 10336 10337 10338
          10383 10384 10385 10386 10387 10388
          10389 10390 10391 10392 10393 10394
          10395 10396 10397 10398 10399 10400
          10402 10403 10404 10405 10406 10407
          10408 10409 10410 10411 10412 10413
          10414 10415 10416 10417 10418 10419
          10420 10422 10423 10424 10425 10426
          10427 10428 10429 10430 10432 10434
          10436 10437 10438 10439 10440 10441
          10442 10443 10444 10446 10448 10450
          10491 10492 10493 10494 10495 10496
          10497 10498 10499 10500 10501 10502
          10505 10507 10508 10510 10511 10512
          10513 10514 10515 10516 10517 10518
          10520 10522 10524 10525 10526 10527
          10528 10529 10530 10531 10532 10533
          10534 10535 10536 10539 10541 10542
          10544 10545 10546 10547 10548 10549
          10550 10551 10552 10554 10556 10558
          10627 10628 10629 10630 10631 10632
          10633 10634 10636 10638 10640 10641
          10642 10643 10644 10645 10646 10647
          10648 10650 10652 10654 10655 10656
          10657 10658 10659 10660 10661 10662
          10664 10666 10668 10669 10670 10671
          10672 10673 10674 10675 10676 10678
          10680 10682 2380 1383 2381 2382
          2383 1594 2387 2389 2388 2709
          2710 2711 2712 2716 2717 3744
          3745 3746 3747 3751 3752 3758
          3759 3762 3764 3763 3765 2393
          3767 2442 4082 4099 4091 4070
          4083 4100 4092 4093 2448 4210
          4208 4095 4211 4209 4571 4572
          4573 3891 1596 4691 4692 4693
          4696 4699 4700 4075 4076 4705
          4711 4712 4713 8226 8227 8228
          8231 3754 8234 3755 8252 8253
          8256 8258 3757 8272 8273 8276
          8278 8818 8819 8821 3856 8824
          3857 8837 8839 8841 3860 8852
          8853 8855 3862 8858 3863 8871
          8873 8875 3865 8967 8969 8971
          3880 8982 8983 8994 8995 8986
          8996 8988 8999 3882 3883 9001
          9003 9005 3884 9015 9023 9017
          9024 9019 9027 3886 2418 9052
          9053 9054 9057 3892 9062 9063
          9064 9084 9085 9088 9098 9099
          9101 3897 9104 3898 9117 9119
          9121 3901 9132 9133 9135 3903
          9138 3904 9151 9153 9155 3906
          9233 9235 9237 3917 9247 9255
          9249 9256 9251 9259 3919 3920
          9261 9263 9265 3921 9275 9283
          9277 9284 9279 9287 3923 2423
          9304 9308 9332 9336 9889 9881
          9895 9886 9891 9896 9909 9908
          9913 9912 9915 9916 9919 9920
          10063 10062 10067 10066 10069 10070
          10073 10074 10091 10090 10095 10094
          10097 10098 10101 10102 4066 10262
          4067 10282 10296 10297 10299 2443
          10302 4073 10312 10314 10316 2444
          10328 10329 4077 10330 10331 4078
          10339 10340 10341 10401 10421 10431
          10433 10435 4097 10445 10447 10449
          2449 10503 10504 10506 4111 10509
          4112 10519 10521 10523 4114 10537
          10538 10540 2451 10543 4117 10553
          10555 10557 2452 10635 10637 10639
          4130 10649 10651 10653 4132 10663
          10665 10667 4134 10677 10679 10681
          2454 10981 9890 10982 10983 10984
          10988 10989 10991 10992 10995 10996
          10998 10999 11000 11001 11005 11006
          11058 11059 11062 11063 11065 11066
          11069 11070 11086 11087 11090 11091
          11093 11094 11097 11098
        </DataArray>
        <DataArray type="Float64" Name="bounds" format="ascii" RangeMin="0" RangeMax="0">
          0 0 0 0 0 0
          0 0 0 0 0 0
          0 0 0 0 0 0
          0 0 0 0 0 0
          0 0 0 0 0 0
          0 0 0 0 0 0
          0 0 0 0 0 0
          0 0 0 0 0 0
          0 0 0 0 0 0
          0 0 0 0 0 0
          0 0 0 0 0 0
          0 0 0 0 0 0
          0 0 0 0 0 0
          0 0 0 0 0 0
          0 0 0 0 0 0
          0 0 0 0 0 0
          0 0 0 0 0 0
          0 0 0 0 0 0
          0 0 0 0 0 0
          0 0 0 0 0 0
          0 0 0 0 0 0
          0 0 0 0 0 0
          0 0 0 0 0 0
          0 0 0 0 0 0
          0 0 0 0 0 0
          0 0 0 0 0 0
          0 0 0 0 0 0
          0 0 0 0 0 0
          0 0 0 0 0 0
          0 0 0 0 0 0
          0 0 0 0 0 0
          0 0 0 0 0 0
          0 0 0 0 0 0
          0 0 0 0 0 0
          0 0 0 0 0 0
          0 0 0 0 0 0
          0 0 0 0 0 0
          0 0 0 0 0 0
          0 0 0 0 0 0
          0 0 0 0 0 0
          0 0 0 0 0 0
          0 0 0 0 0 0
          0 0 0 0 0 0
          0 0 0 0 0 0
          0 0 0 0 0 0
          0 0 0 0 0 0
          0 0 0 0 0 0
          0 0 0 0 0 0
          0 0 0 0 0 0
          0 0 0 0 0 0
          0 0 0 0 0 0
          0 0 0 0 0 0
          0 0 0 0 0 0
          0 0 0 0 0 0
          0 0 0 0 0 0
          0 0 0 0 0 0
          0 0 0 0 0 0
          0 0 0 0 0 0
          0 0 0 0 0 0
          0 0 0 0 0 0
          0 0 0 0 0 0
          0 0 0 0 0 0
          0 0 0 0 0 0
          0 0 0 0 0 0
          0 0 0 0 0 0
          0 0 0 0 0 0
          0 0 0 0 0 0
          0 0 0 0 0 0
          0 0 0 0 0 0
          0 0 0 0 0 0
          0 0 0 0 0 0
          0 0 0 0 0 0
          0 0 0 0 0 0
          0 0 0 0 0 0
          0 0 0 0 0 0
          0 0 0 0 0 0
          0 0 0 0 0 0
          0 0 0 0 0 0
          0 0 0 0 0 0
          0 0 0 0 0 0
          0 0 0 0 0 0
          0 0 0 0 0 0
          0 0 0 0 0 0
          0 0 0 0 0 0
          0 0 0 0 0 0
          0 0 0 0 0 0
          0 0 0 0 0 0
          0 0 0 0 0 0
          0 0 0 0 0 0
          0 0 0 0 0 0
          0 0 0 0 0 0
          0 0 0 0 0 0
          0 0 0 0 0 0
          0 0 0 0 0 0
          0 0 0 0 0 0
          0 0 0 0 0 0
          0 0 0 0 0 0
          0 0 0 0 0 0
          0 0 0 0 0 0
          0 0 0 0 0 0
          0 0 0 0 0 0
          0 0 0 0 0 0
          0 0 0 0 0 0
          0 0 0 0 0 0
          0 0 0 0 0 0
          0 0 0 0 0 0
          0 0 0 0 0 0
          0 0 0 0 0 0
          0 0 0 0 0 0
          0 0 0 0 0 0
          0 0 0 0 0 0
          0 0 0 0 0 0
          0 0 0 0 0 0
          0 0 0 0 0 0
          0 0 0 0 0 0
          0 0 0 0 0 0
          0 0 0 0 0 0
          0 0 0 0 0 0
          0 0 0 0 0 0
          0 0 0 0 0 0
          0 0 0 0 0 0
          0 0 0 0 0 0
          0 0 0 0 0 0
          0 0 0 0 0 0
          0 0 0 0 0 0
          0 0 0 0 0 0
          0 0 0 0 0 0
          0 0 0 0 0 0
          0 0 0 0 0 0
          0 0 0 0 0 0
          0 0 0 0 0 0
          0 0 0 0 0 0
          0 0 0 0 0 0
          0 0 0 0 0 0
          0 0 0 0 0 0
          0 0 0 0 0 0
          0 0 0 0 0 0
          0 0 0 0 0 0
          0 0 0 0 0 0
          0 0 0 0 0 0
          0 0 0 0 0 0
          0 0 0 0 0 0
          0 0 0 0 0 0
          0 0 0 0 0 0
          0 0 0 0 0 0
          0 0 0 0 0 0
          0 0 0 0 0 0
          0 0 0 0 0 0
          0 0 0 0 0 0
          0 0 0 0 0 0
          0 0 0 0 0 0
          0 0 0 0 0 0
          0 0 0 0 0 0
          0 0 0 0 0 0
          0 0 0 0 0 0
          0 0 0 0 0 0
          0 0 0 0 0 0
          0 0 0 0 0 0
          0 0 0 0 0 0
          0 0 0 0 0 0
          0 0 0 0 0 0
          0 0 0 0 0 0
          0 0 0 0 0 0
          0 0 0 0 0 0
          0 0 0 0 0 0
          0 0 0 0 0 0
          0 0 0 0 0 0
          0 0 0 0 0 0
          0 0 0 0 0 0
          0 0 0 0 0 0
          0 0 0 0 0 0
          0 0 0 0 0 0
          0 0 0 0 0 0
          0 0 0 0 0 0
          0 0 0 0 0 0
          0 0 0 0 0 0
          0 0 0 0 0 0
          0 0 0 0 0 0
          0 0 0 0 0 0
          0 0 0 0 0 0
          0 0 0 0 0 0
          0 0 0 0 0 0
          0 0 0 0
        </DataArray>
        <DataArray type="Float64" Name="gradient_error" format="ascii" RangeMin="9.828846618172495e-14" RangeMax="6.097589794241859e-10">
          8.427496842155367e-11 1.950006325650026e-12 2.612603413989369e-11 1.1900177436589895e-12 9.370203483194465e-13 8.382252519722955e-13
          5.0376243145531715e-12 3.97285007951313e-12 1.5547013884870553e-12 1.0640944181655569e-10 7.597258768091161e-11 2.4216345491075363e-11
          1.7206275993547568e-11 6.2931779626496685e-12 3.188905922508215e-10 2.635622676671984e-10 6.622451293262651e-11 3.5717210709263813e-13
          2.051722250852108e-12 3.347788375282978e-12 3.1842610281906176e-12 2.742548964920119e-12 4.746066572613019e-12 1.4860903165736478e-12
          3.203619445398322e-12 3.917597242805747e-12 1.9938226058519094e-11 1.8538627422381408e-11 1.491637855550397e-11 9.779416244947409e-11
          4.108151159392515e-12 3.8800915591285956e-12 9.52917129567213e-12 8.857671309074684e-12 1.842476059318166e-12 4.342708980991176e-12
          4.035766160690188e-12 3.2753452054101177e-12 7.1210448875322274e-12 3.2424188934156775e-12 5.2152830087113545e-11 4.789393490710199e-11
          2.2227434885899562e-11 3.7128239680495023e-11 1.0418227244689958e-11 5.0038093975017666e-11 2.494376970642675e-12 4.966394099848367e-12
          1.17636105341273e-12 2.258615590606936e-12 1.3682498339260778e-12 2.4377826359630416e-11 1.127233346678277e-11 1.3649378133918776e-11
          3.1944005964405787e-10 2.9468938899014783e-10 2.303120805527869e-10 3.070526274810535e-10 1.6215643739268256e-10 1.4921250637290068e-10
          7.728235236084567e-11 7.098488739159117e-11 1.1584814275235477e-10 5.4853549575563415e-11 1.6977942683329299e-10 1.6202572039942152e-10
          7.986176504875067e-11 1.364263772960854e-10 1.5109513988405056e-10 1.8941282282861805e-10 7.536208082199271e-11 3.546982191440105e-11
          4.094608609959819e-11 1.9156535035078372e-11 9.618784955644411e-11 4.598587391561155e-11 5.5302185139991995e-11 8.520716048396487e-13
          8.041677491662983e-13 1.886778209736657e-12 1.7526979300475306e-12 3.315703251440938e-13 6.773034269711801e-13 1.4065267142797288e-12
          1.0655554510963543e-11 9.776969823368555e-12 7.561292771612143e-12 5.090418207103574e-13 9.770774136328721e-13 6.915904506620002e-13
          4.945723226898397e-12 2.7538820079127325e-12 3.4668288521117674e-11 3.180192375491587e-11 2.4492164632483925e-11 3.9162039772860817e-11
          3.69016422871407e-11 3.022427677289921e-11 1.5768833667586217e-11 8.479029010392674e-12 2.0730838489897987e-11 1.1664749837325698e-11
          9.601710378414831e-13 9.24013772846881e-13 3.442455995338268e-12 3.267322864332229e-12 5.463659824578377e-13 1.7229192090626011e-12
          1.6357635698884367e-12 8.36850222315313e-13 2.8068778852930004e-12 1.4012057298481227e-12 7.393344664627176e-13 2.2193338970015436e-12
          4.0376837111076415e-13 1.0886836312551394e-12 2.9695862939620373e-13 2.863020934072232e-13 7.810382196764883e-13 7.408525366167356e-13
          2.5517746978843946e-13 6.314631971357831e-13 2.0902133508211577e-13 4.863144459491793e-13 1.4423447944876064e-13 2.897219048921404e-13
          1.400864609042285e-12 1.380465959533758e-12 2.081879980408248e-12 2.0514513083948037e-12 1.2362335429485114e-12 1.6837049190288847e-12
          1.6587303431314823e-12 1.3218370136657284e-12 1.9642804006003352e-12 1.5889574885280275e-12 4.9896965685046035e-12 4.9125359985839566e-12
          4.029821674151915e-12 4.689109638395308e-12 1.2304602853457088e-12 1.8275988714276636e-12 1.1005244132107551e-12 1.4795358404692876e-12
          1.1263090369767898e-12 1.6567470469208075e-12 1.3398421209623855e-12 4.339165442582763e-12 3.555704143627234e-12 3.8865153684039015e-12
          1.085382166143593e-12 1.4694381194981505e-12 9.41587424635447e-13 1.200333411948403e-12 1.0954601117187977e-12 1.373041723190702e-12
          1.1358950530886349e-12 3.3399282923810758e-12 2.7434309704952607e-12 3.23682301685953e-12 1.2038238274619774e-11 1.1837962608729616e-11
          8.446722465757398e-12 8.305889696011798e-12 1.1257167702197053e-11 7.89727632009292e-12 2.833284048070878e-11 2.7822758106092534e-11
          1.9578412604280682e-11 2.634857173672759e-11 1.0352713343583246e-11 7.2616511224134516e-12 9.205230011908952e-12 6.454495797115914e-12
          2.406789763413345e-11 1.6930135469095434e-11 2.121219539043185e-11 6.640748462585067e-11 6.511307491446153e-11 4.7061807962438866e-11
          4.614119167984715e-11 6.13833802635794e-11 4.348901031986913e-11 1.489090167069771e-10 1.4581601667577124e-10 1.04185795624354e-10
          1.3692212809595778e-10 5.5648649202180654e-11 3.9412458020356495e-11 4.8532789628683645e-11 3.4356625920563004e-11 1.2330459813322595e-10
          8.801489805165097e-11 1.0651906152963406e-10 3.4431862527645425e-12 3.388638273577023e-12 5.810721938842184e-12 5.7136608810906744e-12
          2.2553585502094812e-12 3.943912237088157e-12 3.877979814614613e-12 3.2294294635930485e-12 5.431963142295147e-12 3.686584953425922e-12
          1.3866604397818263e-11 1.361583347130296e-11 9.356514477483405e-12 1.2891225626780098e-11 1.5315120508697212e-12 1.5073545010120553e-12
          2.6584305062207503e-12 2.613960967336434e-12 1.006654570576128e-12 1.7774517772497334e-12 1.7477107117151565e-12 1.4368196211288813e-12
          2.484914032070039e-12 1.6614779428430273e-12 6.471027084916163e-12 6.353589005204813e-12 4.263773519993311e-12 6.014316305852885e-12
          2.9815934789333517e-12 4.993907508698662e-12 1.984353445175469e-12 3.3888277579459334e-12 2.662307267767161e-12 4.438365316855204e-12
          3.012435577669551e-12 1.1770499034476016e-11 8.086318125817614e-12 1.036773973316703e-11 1.3266178359422115e-12 2.2841585790873513e-12
          8.866794136493062e-13 1.5273779240490047e-12 1.186616258378388e-12 2.0306783759310058e-12 1.3578734722065018e-12 5.489802794945874e-12
          3.683328918239046e-12 4.833548280197601e-12 3.293512628893823e-11 3.228894347332335e-11 2.2761896679642303e-11 2.2314191811907502e-11
          3.0427640788944544e-11 2.1024744255127104e-11 7.500323013264621e-11 7.342811669759992e-11 5.1053143054571476e-11 6.890196613410464e-11
          1.5534631091642223e-11 1.5228415643658187e-11 1.0469168238455397e-11 1.026241045718893e-11 1.4346574371262874e-11 9.667078127887174e-12
          3.577781148698168e-11 3.502091988391417e-11 2.3702650260822572e-11 3.2846942682495066e-11 2.7567490422254642e-11 1.9043747539223565e-11
          2.402160831836587e-11 1.658855000434075e-11 6.198087077015416e-11 4.306538390107513e-11 5.346510160205487e-11 1.2992057053098478e-11
          8.75285140603245e-12 1.1313730258828528e-11 7.6203064285922e-12 2.952546799125436e-11 1.997424001556497e-11 2.5443488192839358e-11
          7.915466943799427e-12 5.542981729156259e-12 6.58249711992162e-12 4.6015965867970695e-12 1.804644831487936e-11 1.2684938235487695e-11
          1.4829264334026915e-11 3.2497765154847002e-12 5.295420207169807e-12 2.2643248634795577e-12 3.698222717980482e-12 1.1779269830311493e-11
          8.270303016116365e-12 4.0740171396294174e-11 2.8823321808849387e-11 3.294056931273362e-11 2.3288963145979232e-11 8.830698433055317e-11
          6.292282814002827e-11 7.030016455043396e-11 2.567841259529085e-11 1.8139978677941538e-11 5.37907548129903e-11 3.8242390804754523e-11
          2.297112311889635e-12 3.813128504698972e-12 1.5366671131987203e-12 2.5907740253674315e-12 1.9167146122959086e-12 3.168506546814364e-12
          2.1561214233709598e-12 8.81359666435614e-12 6.051813740960695e-12 7.2353918297227746e-12 1.029637178834095e-12 1.747098556262517e-12
          6.882991857612265e-13 1.1679850799679342e-12 8.657485766980192e-13 1.454723414076034e-12 9.72371476361125e-13 4.106756693331127e-12
          2.754116788021037e-12 3.3691554977243457e-12 1.5487790934397078e-12 2.549010230414552e-12 1.0487061270405569e-12 1.737577812602415e-12
          5.740619964965849e-12 3.938459948210105e-12 7.061078883169218e-13 1.1729859020918944e-12 4.742330851051328e-13 7.841173472799164e-13
          2.6705608811549063e-12 1.7893111909264944e-12 2.045007900069934e-12 2.014272140014498e-11 1.3903840329386503e-11 1.626527053460082e-11
          1.1221391608017e-11 4.424623447025912e-11 3.070603192864798e-11 3.5154237741186786e-11 9.479093566887237e-12 6.382476763342638e-12
          7.646775983247451e-12 5.146727116635743e-12 2.1030748276544153e-11 1.4215499918609611e-11 1.668572954743762e-11 1.2660022282972773e-11
          8.72850570026767e-12 2.684054897318865e-11 1.8596803772109992e-11 5.944703397376803e-12 3.999749938076287e-12 4.458324947511537e-12
          2.99801006479421e-12 1.271954083875905e-11 8.587560319339166e-12 9.327944690684346e-12 2.914670017170357e-10 2.853056942434542e-10
          2.1036751829539638e-10 2.058719288564423e-10 2.6757446212743833e-10 1.929443807428897e-10 4.373797025558806e-10 4.288633202726637e-10
          3.130895398565433e-10 4.0414778290110514e-10 2.403909479670832e-10 1.7315483986698674e-10 2.0684636077871432e-10 1.4878505545309997e-10
          3.656660649796003e-10 2.6612781740223013e-10 3.172099545510397e-10 4.6083844683586345e-10 4.547860484267661e-10 3.418992727192549e-10
          3.371081006928094e-10 4.36304517874833e-10 3.2260261113328484e-10 4.2504272563437117e-10 4.219787349378559e-10 3.161426067402948e-10
          4.114305949792589e-10 4.0502070103975365e-10 2.983781850609444e-10 3.617479442450391e-10 2.653520393733362e-10 3.904953081836262e-10
          2.8986428371387216e-10 3.57196380706538e-10 1.4954321499464843e-10 1.463191359612211e-10 1.0473677693215675e-10 1.0246255812148732e-10
          1.3705401236642444e-10 9.593031220866087e-11 2.294437366098712e-10 2.2480243923370738e-10 1.588288999699819e-10 2.113736255942534e-10
          7.229033016240012e-11 7.07114336995759e-11 4.917997016407411e-11 4.8100708628625576e-11 6.617818998028904e-11 4.500306163495476e-11
          1.1281139414146264e-10 1.1046874589396946e-10 7.566132200691823e-11 1.0370505230402763e-10 1.2288816579254635e-10 8.595230455571786e-11
          1.0547231720556799e-10 7.370120649357676e-11 1.9058375567350656e-10 1.3435723065874302e-10 1.646052052368412e-10 5.925909523980444e-11
          4.027817810638024e-11 5.077315733589896e-11 3.448840206361158e-11 9.327513632673104e-11 6.378468861041184e-11 8.031109492577108e-11
          2.491481144634241e-10 2.454618682027345e-10 1.784313470262025e-10 1.7566850207697104e-10 2.343795421471476e-10 1.6741010695279403e-10
          2.3480402683827005e-10 2.3248579995794176e-10 1.6791399009567795e-10 2.2502325271575406e-10 1.2565811320124622e-10 1.2363646734839075e-10
          8.706367735962034e-11 8.561617992445203e-11 1.1762241819773416e-10 8.132724873752993e-11 1.2063103244542797e-10 1.191866912507336e-10
          8.319187329791905e-11 1.146947509568322e-10 2.160785535119844e-10 1.538997932490614e-10 1.91433541752735e-10 1.358953163241124e-10
          2.1140439003576124e-10 1.5156712738745055e-10 1.911932647751548e-10 1.0786039801717946e-10 7.441153333130541e-11 9.49643022764444e-11
          6.534463100321136e-11 1.0688398571653466e-10 7.416868703345319e-11 9.58008574382113e-11 1.7044897842002524e-10 1.2240765128805302e-10
          1.3453040924228443e-10 9.644550769389202e-11 2.634516436763706e-10 1.9076890693824e-10 2.0924261711274117e-10 1.0175205320717416e-10
          7.281571578063312e-11 1.5883570443960575e-10 1.143826192929835e-10 3.092817448974201e-10 2.258404322128809e-10 2.521734058493323e-10
          1.8332860966451293e-10 3.123362081595621e-10 2.29089820694255e-10 2.5967974819618187e-10 1.9567049783846147e-10 1.416742093258907e-10
          2.0473153301489277e-10 1.4860130191370337e-10 8.665830992420772e-11 6.048768100422691e-11 6.817973592674803e-11 4.753260388753883e-11
          1.3603795769631548e-10 9.556171477714465e-11 1.07494945282717e-10 4.1632607892723886e-11 2.8258435265158942e-11 3.2683464741707297e-11
          2.216579274857302e-11 6.614172655081472e-11 4.511501370993043e-11 5.207410705880442e-11 5.139805131075675e-11 3.5788262394174346e-11
          2.5844495600501826e-11 8.118777824905346e-11 5.680749259438329e-11 2.4582262129695633e-11 1.665682592620141e-11 1.773271026695288e-11
          1.200442978812483e-11 3.9188595675520723e-11 2.6655719583552295e-11 2.820176156792932e-11 1.6228660053885832e-10 1.1480934602609102e-10
          1.3123720115844622e-10 9.253481944763923e-11 1.6530883076206892e-10 1.1740749476343836e-10 1.3601556401366984e-10 7.998591262754677e-11
          5.4890611406215766e-11 6.427878224247943e-11 4.3998378195739617e-11 8.210132506662672e-11 5.654145701048718e-11 6.700375997838966e-11
          1.010618597192818e-10 7.103866743918306e-11 5.19279875667068e-11 1.0625121361899608e-10 7.485180793600766e-11 4.921413287850664e-11
          3.36074920574667e-11 3.58884636780177e-11 2.4455926104819726e-11 5.1964665936155654e-11 3.555695526530758e-11 3.828110911818618e-11
          6.727897688617059e-13 6.623102367078185e-13 1.1740745710602232e-12 1.1544440812076462e-12 4.3203895092288733e-13 7.67012153204657e-13
          7.540917087428559e-13 6.318900552574392e-13 1.0975786341554025e-12 7.170645279741677e-13 2.8800517461197154e-12 2.827590563972985e-12
          1.8522943789558698e-12 2.6761160678174125e-12 2.8333846609241693e-13 2.7805999318993357e-13 4.948516179651089e-13 4.861838031223871e-13
          1.8025280499641202e-13 3.1554290468943234e-13 3.0976611743392216e-13 2.6690353432008677e-13 4.625727590619228e-13 2.951579287972892e-13
          1.220718590893514e-12 1.1983746753099227e-12 1.133247885523793e-12 5.845067642379629e-13 1.0091630750079154e-12 3.846520039327797e-13
          6.598266272833324e-13 5.234078119572008e-13 8.970514196715435e-13 5.865884179763213e-13 2.4420744271863907e-12 1.598840935827859e-12
          2.149313519618745e-12 2.553513684943325e-13 4.261452171029303e-13 1.7475449901856278e-13 2.716386048581275e-13 2.383135710044472e-13
          3.779183238029968e-13 2.6218567122204844e-13 1.0326046647788767e-12 9.069811103337644e-13 6.966476280446062e-12 6.828650795379898e-12
          4.577043647032739e-12 4.48629298012269e-12 6.4319218051205454e-12 4.225304340793003e-12 1.6172009174907157e-11 1.5828177388685306e-11
          1.0428570609272118e-11 1.4840945138849846e-11 2.9691477955337317e-12 2.910110057486611e-12 2.7403275540967963e-12 6.926917338292471e-12
          6.779100428627565e-12 6.3549020029704955e-12 5.822948517434729e-12 3.8253342773528234e-12 5.0687202224440026e-12 3.3302355859856436e-12
          1.3333528279912205e-11 8.78236761483806e-12 1.1482339315227188e-11 2.482329503399546e-12 2.1641316438891844e-12 5.7073704095274546e-12
          4.912437608585119e-12 1.2546167033880505e-13 1.2300195803832425e-13 1.9701728755228944e-13 1.9355644126604708e-13 1.0390434961235288e-13
          1.4993116541137047e-13 1.475187029414719e-13 1.1813997777815175e-13 1.8436582129516834e-13 1.4017855709167045e-13 1.2042752487902606e-13
          1.705498681046416e-13 9.828846618172495e-14 1.3122043496385083e-13 1.25117339939592e-13 1.624636885987511e-13 1.2718999621593416e-13
          4.53596473475448e-13 7.710798540457452e-13 3.008571750036405e-13 5.035582467894704e-13 3.82611042460036e-13 6.418599099891479e-13
          4.191946015521116e-13 1.8250376849941435e-12 1.1936608969283328e-12 1.4955265132905942e-12 2.0955899671247763e-13 3.233690212495191e-13
          1.7878690928797445e-13 2.5108929019121414e-13 1.7623269522235639e-13 2.6872163019216335e-13 2.0811633612610698e-13 7.687206286122148e-13
          6.284951979819033e-13 3.175219703649773e-13 5.172634983799672e-13 2.1668816273381055e-13 3.36386982181106e-13 2.598062058149255e-13
          4.0221287493246866e-13 2.8729801618726846e-13 1.1843925252694908e-12 7.705369931280033e-13 9.038022004922643e-13 1.5202821936658296e-13
          2.1618115470214098e-13 1.2778991167592117e-13 1.694683128802533e-13 1.4375908834045565e-13 1.9048134827468023e-13 1.5222688482475267e-13
          4.921545277769982e-13 4.3448722556310397e-13 4.244244300275174e-12 2.788347599702323e-12 3.421050900624459e-12 2.246307427264428e-12
          9.482809226668124e-12 6.2425756778310585e-12 7.515972143406726e-12 1.813195753827654e-12 1.459724729523163e-12 4.054322322433571e-12
          3.2107065953271774e-12 2.6596109314438068e-12 1.7463766516888944e-12 1.9950702878149422e-12 1.3099516117986823e-12 5.722464838303713e-12
          3.763269173103752e-12 4.190483832682422e-12 1.1318421881538247e-12 8.452992060285177e-13 2.4418637770302304e-12 1.7856338066598833e-12
          3.298307284400942e-11 3.225645769434823e-11 2.1808821540718937e-11 2.1326844899332578e-11 3.017151451733477e-11 1.9944160192632876e-11
          5.214789911716873e-11 5.1044861625631646e-11 3.392975711888115e-11 4.7864974629435053e-11 1.4217946000986367e-11 1.3902899606760882e-11
          1.2999239035263986e-11 2.271146836731699e-11 2.2224692188717954e-11 2.0822910730697437e-11 2.699292842863025e-11 1.783704211791026e-11
          2.3100680944882654e-11 1.5258294717069242e-11 4.297526533058147e-11 2.8533509547222233e-11 3.6920434691092114e-11 1.1622600590541668e-11
          9.938654996535799e-12 1.8671735686356828e-11 1.6015153186469112e-11 5.936918304125811e-11 5.835371962215695e-11 3.985827648715321e-11
          3.915954097509638e-11 5.535524083488635e-11 3.7102349849755436e-11 5.7912903628294733e-11 5.7122974992897734e-11 3.860025796144786e-11
          5.471654985553208e-11 2.635314395283699e-11 2.588105851816307e-11 2.4494686182395104e-11 2.6068631675546026e-11 2.5678109392565077e-11
          2.4504626288932082e-11 5.054802104245092e-11 3.3820481298742365e-11 4.428688974227002e-11 2.957043274852381e-11 5.065987928744951e-11