<?xml version="1.0"?>
<VTKFile type="UnstructuredGrid" version="0.1" byte_order="LittleEndian" header_type="UInt32" compressor="vtkZLibDataCompressor">
  <UnstructuredGrid>
    <Piece NumberOfPoints="546" NumberOfCells="316">
      <PointData>
        <DataArray type="Int32" Name="libmesh_node_id" format="ascii" RangeMin="423" RangeMax="3307">
          423 494 505 624 625 626
          632 634 635 636 637 638
          645 756 757 784 785 787
          788 1019 1020 1022 1023 1024
          1026 1028 1029 1030 1032 1033
          1047 1048 1049 1050 1051 1052
          1054 1055 1056 1067 1068 1069
          1070 1074 1075 1077 1078 1079
          1080 1081 1082 1083 1084 1085
          1086 1087 1088 1089 1090 1091
          1092 1093 1094 1095 1096 1097
          1098 1099 1100 1105 1106 1108
          1109 1110 1111 1112 1114 1125
          1126 1127 1128 1132 1133 1695
          1696 1697 1698 1699 1786 1787
          1790 1793 1795 1796 1797 1798
          1799 1800 1801 1802 1803 1804
          1807 1808 1811 1813 1815 1816
          1817 1818 1819 1820 1821 1822
          1823 1824 1830 1835 1836 1837
          1838 1839 1840 1841 1842 1843
          1844 1846 1848 1850 1852 1853
          1854 1855 1856 1857 1858 1859
          1860 1861 1862 1863 1864 1865
          1866 1879 1880 1881 1882 1883
          1884 1885 1886 1887 1888 1889
          1890 1892 1893 1894 1895 1896
          1898 1899 1900 1901 1902 1903
          1904 1905 1906 1907 1908 1909
          1910 1911 1912 1913 1914 1915
          1916 1917 1918 1919 1920 1921
          1922 1923 1924 1925 1926 1927
          1928 1929 1930 1933 1935 1936
          1938 1939 1940 1941 1942 1943
          1944 1945 1946 1947 1948 1949
          1950 1951 1952 2847 2849 2850
          2851 2852 2853 2854 2855 2856
          2857 2858 2859 2860 2861 2862
          2863 2892 2894 2928 2932 2933
          2934 2935 2936 2937 2938 2939
          2940 2941 2942 2943 2944 2945
          2946 2947 2948 2949 2950 2951
          2952 2953 2954 2955 2956 2957
          2958 2959 2960 2961 2962 2963
          2964 2965 2966 2967 2968 2969
          2970 2971 2972 2973 2974 2975
          2976 2977 2978 2979 2980 2981
          2982 2983 2984 2985 2986 2987
          2988 2989 2990 2991 2992 2993
          2994 2995 2996 2997 2998 2999
          3004 3014 3016 3018 3020 3021
          3022 3023 3024 3025 3026 3027
          3028 3029 3030 3031 3032 3033
          3034 3035 3036 3037 3038 3039
          3040 3041 3042 3043 3044 3045
          3046 3047 3048 3049 3050 3051
          3052 3053 3054 3055 3056 3057
          3058 3059 3060 3061 3062 3063
          3064 3065 3066 3067 3068 3069
          3070 3071 3072 3073 3078 3079
          3080 3081 3082 3083 3084 3085
          3086 3087 3098 3099 3100 3103
          3104 3105 3106 3107 3108 3109
          3110 3111 3112 3113 3114 3115
          3116 3117 3118 3119 3120 3121
          3122 3123 3124 3125 3126 3127
          3128 3129 3130 3131 3132 3133
          3134 3135 3136 3137 3138 3139
          3140 3141 3142 3143 3144 3145
          3146 3147 3148 3149 3150 3151
          3152 3153 3154 3155 3156 3157
          3158 3159 3160 3161 3162 3163
          3164 3165 3166 3167 3168 3169
          3170 3171 3172 3173 3174 3175
          3176 3177 3178 3179 3180 3181
          3182 3183 3184 3185 3186 3187
          3188 3189 3190 3191 3192 3193
          3204 3205 3206 3207 3208 3209
          3210 3213 3217 3218 3219 3220
          3221 3222 3223 3224 3225 3226
          3227 3238 3239 3240 3241 3242
          3243 3244 3247 3251 3252 3253
          3254 3255 3256 3257 3258 3259
          3260 3261 3262 3263 3264 3265
          3266 3267 3268 3269 3270 3271
          3272 3273 3274 3275 3276 3277
          3278 3279 3280 3281 3282 3283
          3284 3285 3286 3287 3288 3289
          3290 3291 3292 3293 3294 3295
          3296 3297 3298 3299 3300 3301
          3302 3303 3304 3305 3306 3307
        </DataArray>
        <DataArray type="Float64" Name="bounds" format="ascii" RangeMin="0" RangeMax="0">
          0 0 0 0 0 0
          0 0 0 0 0 0
          0 0 0 0 0 0
          0 0 0 0 0 0
          0 0 0 0 0 0
          0 0 0 0 0 0
          0 0 0 0 0 0
          0 0 0 0 0 0
          0 0 0 0 0 0
          0 0 0 0 0 0
          0 0 0 0 0 0
          0 0 0 0 0 0
          0 0 0 0 0 0
          0 0 0 0 0 0
          0 0 0 0 0 0
          0 0 0 0 0 0
          0 0 0 0 0 0
          0 0 0 0 0 0
          0 0 0 0 0 0
          0 0 0 0 0 0
          0 0 0 0 0 0
          0 0 0 0 0 0
          0 0 0 0 0 0
          0 0 0 0 0 0
          0 0 0 0 0 0
          0 0 0 0 0 0
          0 0 0 0 0 0
          0 0 0 0 0 0
          0 0 0 0 0 0
          0 0 0 0 0 0
          0 0 0 0 0 0
          0 0 0 0 0 0
          0 0 0 0 0 0
          0 0 0 0 0 0
          0 0 0 0 0 0
          0 0 0 0 0 0
          0 0 0 0 0 0
          0 0 0 0 0 0
          0 0 0 0 0 0
          0 0 0 0 0 0
          0 0 0 0 0 0
          0 0 0 0 0 0
          0 0 0 0 0 0
          0 0 0 0 0 0
          0 0 0 0 0 0
          0 0 0 0 0 0
          0 0 0 0 0 0
          0 0 0 0 0 0
          0 0 0 0 0 0
          0 0 0 0 0 0
          0 0 0 0 0 0
          0 0 0 0 0 0
          0 0 0 0 0 0
          0 0 0 0 0 0
          0 0 0 0 0 0
          0 0 0 0 0 0
          0 0 0 0 0 0
          0 0 0 0 0 0
          0 0 0 0 0 0
          0 0 0 0 0 0
          0 0 0 0 0 0
          0 0 0 0 0 0
          0 0 0 0 0 0
          0 0 0 0 0 0
          0 0 0 0 0 0
          0 0 0 0 0 0
          0 0 0 0 0 0
          0 0 0 0 0 0
          0 0 0 0 0 0
          0 0 0 0 0 0
          0 0 0 0 0 0
          0 0 0 0 0 0
          0 0 0 0 0 0
          0 0 0 0 0 0
          0 0 0 0 0 0
          0 0 0 0 0 0
          0 0 0 0 0 0
          0 0 0 0 0 0
          0 0 0 0 0 0
          0 0 0 0 0 0
          0 0 0 0 0 0
          0 0 0 0 0 0
          0 0 0 0 0 0
          0 0 0 0 0 0
          0 0 0 0 0 0
          0 0 0 0 0 0
          0 0 0 0 0 0
          0 0 0 0 0 0
          0 0 0 0 0 0
          0 0 0 0 0 0
          0 0 0 0 0 0
        </DataArray>
        <DataArray type="Float64" Name="gradient_error" format="ascii" RangeMin="9.755186927416096e-10" RangeMax="3.818333877579323e-7">
          4.942577543681593e-9 1.42649693474582e-8 1.8529698972066448e-9 5.092500400995091e-8 1.7760456321611157e-7 1.5341013077109757e-7
          3.757316702966763e-7 7.778986479376267e-9 1.900786754686668e-8 1.1343950073936934e-7 7.740981967002358e-8 3.781305386488587e-9
          3.061354009816022e-7 1.227541011440697e-8 1.197752473696593e-8 5.003108176909523e-9 4.658427564192956e-9 1.1456701372557967e-9
          9.755186927416096e-10 1.4046870716891627e-7 1.1847678645388331e-7 1.266449262382822e-8 1.171390121446283e-7 9.650152804054732e-8
          9.648486573885037e-8 7.586404393646632e-8 1.9847397619854656e-7 1.596848435762922e-7 1.391075661035346e-7 1.8263900452114492e-7
          8.753636087806259e-8 1.18792125582636e-7 1.0236902655292009e-7 1.1439720480179326e-7 2.8981205933936415e-7 2.74996461023986e-7
          1.3156248610474016e-8 1.5799092579054246e-8 3.818333877579323e-7 1.87863635290733e-7 2.6925440254575554e-7 1.5764300215826108e-7
          2.3711973615476824e-7 3.506451698007781e-7 3.165964701512754e-7 9.051338330466819e-9 1.0281733249464461e-8 8.88861890884561e-8
          7.167110302818176e-8 7.042904097062047e-9 5.810135152183888e-8 4.630184418303926e-8 1.1512128168462103e-8 5.445601696790742e-8
          3.450233684423964e-8 1.4912148934751737e-7 1.1236808255466422e-7 8.106003270479819e-8 1.2214301514198288e-7 4.1040589212426165e-9
          3.783792933324482e-9 3.157173279392187e-8 2.505771661423084e-8 1.5326193228151164e-9 1.0968738086486542e-8 8.586647083872092e-9
          3.4635269454063478e-9 1.8543700434539804e-8 4.274382235356144e-9 2.4495086162607135e-8 1.0680747725393996e-7 1.1735887974452138e-7
          2.4603695479000525e-7 2.0059311423303882e-7 7.643230842961515e-9 2.0748126344581416e-8 3.5251474134955204e-7 1.2264714849501953e-7
          1.9525034279193576e-7 8.574013787795885e-8 1.456793066545591e-7 2.67853537088852e-7 2.0561847543115934e-7 1.263685114121173e-7
          1.1889132411621903e-7 1.1631715923884602e-7 1.2050471540699777e-7 9.86079011617901e-8 1.4205411569236166e-7 1.3775148783634066e-7
          1.2300606812281313e-7 8.803751230447556e-8 1.5020739425644768e-7 1.4510748996259175e-7 1.5890907388495796e-7 1.527657478788456e-7
          1.2770683077250362e-7 1.3205662510429206e-7 9.439848295049585e-8 9.455362636988331e-8 1.0208140194370934e-7 1.2694185526181895e-7
          7.54726236292852e-8 9.690542169415541e-8 8.124756712300424e-8 1.34529978892565e-7 7.352151225597908e-8 9.779817483060327e-8
          7.058051832086308e-8 9.785486502790154e-8 6.124135900869873e-8 8.019027378493509e-8 7.821890171995215e-8 1.4133724977359082e-7
          1.2664041254726128e-7 1.2380251507826375e-7 5.194473326570239e-8 8.396132081142713e-9 1.037494206569982e-8 1.0013424056487709e-8
          1.215072698971608e-8 5.580833066723386e-8 3.915536420695944e-8 4.080442453570358e-9 7.73643918271906e-9 9.283576512047429e-9
          1.4181341904324837e-8 1.204948025597971e-7 1.505635667943023e-7 9.038908460786178e-8 1.2855688173527783e-7 1.1590545072294442e-7
          1.5938657127148195e-7 1.6835735641763388e-7 9.664479958401241e-8 1.0327670369914486e-7 1.7030730094760786e-7 1.303126026695783e-7
          1.207042234053791e-7 1.1869218182035767e-7 9.574919329289712e-8 1.2568854285594962e-7 1.137570040502872e-7 1.0523800550331775e-7
          8.532802907488206e-8 1.2092569914504425e-7 1.3684193331780853e-7 7.856389746203226e-8 1.1842902685155452e-7 1.3567842222091416e-7
          1.3830780831742728e-7 6.465918362391632e-8 8.705028417875406e-8 7.113492471392582e-8 1.008331904096735e-7 7.773373544543241e-8
          1.2011822349909048e-7 1.1961147439563148e-7 1.394287901352924e-7 1.3799840368940766e-7 2.8097447142397157e-8 7.732251067520168e-8
          1.126472261192972e-7 6.648386707226286e-8 9.675182315632148e-8 6.117728895484898e-8 9.443651531875635e-8 5.25651916999114e-8
          7.499832788815715e-8 7.049193158749587e-8 1.099093025950099e-7 1.1178174393172102e-7 1.294112490210568e-7 5.4771728833704594e-8
          9.059473294639905e-8 4.731408312788587e-8 8.462582659075721e-8 4.071286476226983e-8 6.47420832709991e-8 5.7515804039227506e-8
          1.1194337562866723e-7 1.0919344348340989e-7 1.2806117299257418e-7 1.2150877271162234e-8 1.4519412634662873e-8 1.4938360435246755e-8
          1.763334060609839e-8 2.1450833228626505e-8 2.4234380067280938e-8 6.084869658447862e-9 1.1296594364052157e-8 1.39894602101873e-8
          1.789212797782397e-8 1.8642853939933836e-8 2.185050029274526e-8 2.7827846916211385e-8 9.717883498287207e-9 1.7676162239149738e-8
          2.4779849136443987e-8 1.0198939791491943e-7 1.0709745954863464e-7 1.7697487728244204e-7 1.8436583343250093e-7 1.1026359997926345e-7
          1.1722447155942798e-7 1.9255872059917333e-7 1.1114233759406019e-7 1.1291248329775302e-7 1.8927872326315766e-7 1.8951431792896538e-7
          1.2327340593037547e-7 1.2734170054622002e-7 2.1120640232089533e-7 1.9006667903792998e-8 1.4245350783064396e-8 1.495550632415278e-8
          1.5422428329258645e-8 1.729307352868942e-8 1.5293232010056185e-8 1.5975547343997872e-8 1.6615113973050472e-8 1.8391550960927918e-8
          1.970202425034989e-8 2.04477217977949e-8 2.04835633085621e-8 2.1262488794276816e-8 2.218870453497266e-8 2.2399738344637356e-8
          2.3226960725335794e-8 1.6787009137350253e-8 1.8490302148642257e-8 1.4159208270787048e-8 1.1649165607666792e-8 1.2177961451341953e-8
          1.2264045988780325e-8 1.2796341322591089e-8 1.4105870424620248e-8 1.4669577236361223e-8 7.740907284341497e-9 8.216285654122334e-9
          8.925371620376347e-9 9.668575855265026e-9 1.2955551074537493e-8 1.351316942957855e-8 1.3759879256193645e-8 1.4337437488607136e-8
          1.5360359206229595e-8 1.619861242913485e-8 9.142988912749792e-9 9.723787565449485e-9 1.0628377025984903e-8 1.1194692135344714e-8
          1.7328390131112078e-8 1.7955576025924207e-8 1.915179670800077e-8 1.990063423552782e-8 1.2753158259644198e-8 1.3340266021553876e-8
          1.6313592468245543e-8 1.8680291926021373e-8 1.9466093628233802e-8 2.0710653224203167e-8 2.2447475224095148e-8 1.4052442630548105e-8
          1.4874829847739503e-8 1.7468013011177267e-8 5.074937721257478e-9 5.9172647243573e-9 5.5476517192543775e-9 6.468725995312711e-9
          7.749906378036763e-9 8.465382886099205e-9 3.7210413061011512e-9 4.802374719001062e-9 5.256963065796265e-9 7.081328366094549e-9
          6.0759582025889546e-9 7.081592227452661e-9 6.673595784019145e-9 7.77087736314967e-9 9.261643487772637e-9 1.0161914584967602e-8
          4.483808718697124e-9 5.766400839165586e-9 6.344761678493332e-9 8.463070156387114e-9 9.959359687248403e-9 1.0697186152714177e-8
          1.457569008400683e-8 1.5120918227566562e-8 9.367158867082673e-9 1.0177270516374114e-8 1.3591006519365072e-8 1.1537843288658475e-8
          1.2533686517873281e-8 1.5808182251073238e-8 1.6645323555714333e-8 1.106889637398667e-8 1.20611960617625e-8 1.4925129037265067e-8
          1.976153368614251e-8 1.9284200079418233e-8 2.0898245812083575e-8 1.8806866472693954e-8 2.0463971733637382e-8 2.1225111773670933e-8
          2.170882372786116e-8 2.3993536229816272e-8 2.3544563025784146e-8 2.2075213627339086e-8 2.3578032360291917e-8 2.3786562638258274e-8
          1.9911131021774247e-8 2.062001480776906e-8 2.1849380221415228e-8 2.285159996500598e-8 1.9358290309911108e-8 2.0014917841867175e-8
          2.1989936714969294e-8 2.1443248712465917e-8 2.236273963479325e-8 2.39097587768734e-8 2.5046534966249386e-8 2.081128379759275e-8
          2.1738486596297e-8 2.4032954915488528e-8 2.611301896695996e-8 2.669200987394189e-8 2.6621650550805874e-8 2.7665494731714204e-8
          2.6551291227669857e-8 2.6599288684873073e-8 2.636087573518878e-8 2.6122462785504483e-8 1.665585954081347e-8 1.738221322398664e-8
          2.1010848671485617e-8 2.002287647213719e-8 2.7190159036313657e-8 2.7014923468569123e-8 2.843330030883343e-8 2.8303417847608525e-8
          2.6839687900824585e-8 2.817353538638362e-8 2.3042508664826428e-8 2.328692469384263e-8 2.4735465679965306e-8 2.3836125501016447e-8
          2.327380543321017e-8 2.4516334922459918e-8 2.469028092047598e-8 2.587769650127051e-8 2.738305547965907e-8 2.7330735490710916e-8
          2.8669378337396058e-8 2.875320658401046e-8 2.987144193887792e-8 2.883703483062486e-8 2.9765860981960784e-8 2.9601042839084448e-8
          3.1157754075871826e-8 3.0955094106515033e-8 2.9436224696208115e-8 3.075243413715824e-8 2.619229882546764e-8 2.6372746742185716e-8
          2.8206338498457637e-8 2.6935506742628412e-8 2.9056485541253866e-8 3.0921002667824794e-8 3.015649909394476e-8 3.347758294089349e-8
          2.3955385933142186e-8 2.5196651131923094e-8 2.314063485463818e-8 2.6213881392518824e-8 2.725836074676196e-8 2.5075989748825154e-8
          2.835096214006304e-8 2.9469716940009617e-8 2.6801766264666633e-8 3.0558947607384723e-8 3.153294905558982e-8 2.8259199539135567e-8
          1.4717920224610824e-8 1.5295359326613123e-8 1.5788173536674445e-8 1.6372534287245612e-8 1.7197532032036926e-8 1.8343420059229996e-8
          1.1011727488609715e-8 1.1658211606177566e-8 1.2842837627314034e-8 1.3256001368613623e-8 1.699562624748336e-8 1.7613346638114724e-8
          1.8500315133585276e-8 1.9156646476419068e-8 1.9673450035596075e-8 2.126689992176876e-8 1.345401717673227e-8 1.4208035312682777e-8
          1.576924373417643e-8 1.596597182284047e-8 2.03496969267578e-8 2.147109551376702e-8 2.3583348564902368e-8 2.4673018413889694e-8
          1.5832646060817233e-8 1.7009313745546192e-8 2.0478467673531582e-8 2.2831857497705584e-8 2.4384754598130725e-8 2.595417930767899e-8
          2.735742063975935e-8 1.8432604879172858e-8 2.0101082498451737e-8 2.2744955271688314e-8 7.35717207064747e-9 8.557522479552275e-9
          8.145148045186152e-9 9.462481471521131e-9 1.1180297586112071e-8 1.233571210307302e-8 5.4708700724836944e-9 7.0071271759890225e-9
          7.772449507385788e-9 1.0220780026933557e-8 9.058328680819271e-9 1.0510206020235894e-8 1.012437461465352e-8 1.1733919859971314e-8
          1.3657360272632124e-8 1.5188958562758222e-8 6.803166372173296e-9 8.665381689982791e-9 9.713054808000142e-9 1.2539531006240442e-8
          1.37167966237649e-8 1.5057310474304758e-8 1.763186126373028e-8 1.8753243638856655e-8 1.3193889546200754e-8 1.452184956259127e-8
          1.678320338972616e-8 1.657006499148313e-8 1.8314573011876783e-8 2.0050921268515053e-8 2.1588537687539645e-8 1.6060938718761203e-8
          1.7813434743452476e-8 1.9189555118300544e-8 2.035245647202517e-8 2.102309704319315e-8 2.253892222216103e-8 2.3205956875932694e-8
          2.3133268230121698e-8 2.5302862185198315e-8 1.6649313235729113e-8 1.7570939714214137e-8 1.966873535195628e-8 1.9576755733221903e-8
          2.6145008041219055e-8 2.8143378380981798e-8 2.889679619148846e-8 3.059295149741165e-8 2.2047741371602817e-8 2.4304683856461972e-8
          2.591328909662153e-8 3.2475258177835746e-8 3.004114639670743e-8 1.1366824207392945e-8 1.3166175365904204e-8 1.279203055089933e-8
          1.482718819988227e-8 1.6981024099671296e-8 1.9074269281217826e-8 8.617680862968241e-9 1.0940050999553449e-8 1.2354888724954252e-8
          1.5689520360095255e-8 2.0342083348023925e-8 2.269529836540619e-8 2.339838161019095e-8 2.5507270508467557e-8 1.9822214494026463e-8
          2.2146983112027245e-8 2.260727831617099e-8 2.7946550211319984e-8 2.728374104400312e-8 2.458912482622459e-8 2.5741136847183483e-8
          2.418868074070159e-8 2.5348482813478417e-8 2.4593867128041347e-8 2.569549239970868e-8 2.568878401717217e-8 2.6869903793471134e-8
          2.8054925865041577e-8 2.63793309245494e-8 2.744369762254126e-8 2.6981142659971744e-8 2.8381117490758712e-8 2.836769433786492e-8
          2.3367400572455453e-8 2.451323000888663e-8 2.630194958121309e-8 2.7742984380379528e-8 2.2769930608135208e-8 2.392109778079978e-8
          2.6463057754846843e-8 2.584225555630892e-8 2.7347076860742756e-8 2.937016137294225e-8 3.111177234993246e-8 2.524815198709779e-8
          2.6783409723289296e-8 2.9687606170428304e-8 2.930715921278352e-8 3.062767162728317e-8 2.853794327914596e-8 2.9623464181014378e-8
          2.988489768540984e-8 3.152933093298669e-8 3.1377754647037595e-8 3.199222437049983e-8 3.334338605400706e-8 3.063607087392201e-8
          3.150870063775778e-8 3.334381386193103e-8 3.531671172848278e-8 3.466987624808082e-8 2.90137145550379e-8 3.087816080455014e-8
          3.2918310910814624e-8 3.4846184609407124e-8 2.8520990024760124e-8 3.048328605768363e-8 3.335523282117935e-8 3.2974907507440256e-8
          3.52959119229821e-8 3.6917660685914295e-8 3.9078647559228693e-8 3.268768842463336e-8 3.511222344142294e-8 3.750851108437541e-8
        </DataArray>
        <DataArray type="Float64" Name="gradient_matprop_error" format="ascii" RangeMin="0" RangeMax="0">
          0 0 0 0 0 0
          0 0 0 0 0 0
          0 0 0 0 0 0
          0 0 0 0 0 0
          0 0 0 0 0 0
          0 0 0 0 0 0
          0 0 0 0 0 0
          0 0 0 0 0 0
          0 0 0 0 0 0
          0 0 0 0 0 0
          0 0 0 0 0 0
          0 0 0 0 0 0
          0 0 0 0 0 0
          0 0 0 0 0 0
          0 0 0 0 0 0
          0 0 0 0 0 0
          0 0 0 0 0 0
          0 0 0 0 0 0
          0 0 0 0 0 0
          0 0 0 0 0 0
          0 0 0 0 0 0
          0 0 0 0 0 0
          0 0 0 0 0 0
          0 0 0 0 0 0
          0 0 0 0 0 0
          0 0 0 0 0 0
          0 0 0 0 0 0
          0 0 0 0 0 0
          0 0 0 0 0 0
          0 0 0 0 0 0
          0 0 0 0 0 0
          0 0 0 0 0 0
          0 0 0 0 0 0
          0 0 0 0 0 0
          0 0 0 0 0 0
          0 0 0 0 0 0
          0 0 0 0 0 0
          0 0 0 0 0 0
          0 0 0 0 0 0
          0 0 0 0 0 0
          0 0 0 0 0 0
          0 0 0 0 0 0
          0 0 0 0 0 0
          0 0 0 0 0 0
          0 0 0 0 0 0
          0 0 0 0 0 0
          0 0 0 0 0 0
          0 0 0 0 0 0
          0 0 0 0 0 0
          0 0 0 0 0 0
          0 0 0 0 0 0
          0 0 0 0 0 0
          0 0 0 0 0 0
          0 0 0 0 0 0
          0 0 0 0 0 0
          0 0 0 0 0 0
          0 0 0 0 0 0
          0 0 0 0 0 0
          0 0 0 0 0 0
          0 0 0 0 0 0
          0 0 0 0 0 0
          0 0 0 0 0 0
          0 0 0 0 0 0
          0 0 0 0 0 0
          0 0 0 0 0 0
          0 0 0 0 0 0
          0 0 0 0 0 0
          0 0 0 0 0 0
          0 0 0 0 0 0
          0 0 0 0 0 0
          0 0 0 0 0 0
          0 0 0 0 0 0
          0 0 0 0 0 0
          0 0 0 0 0 0
          0 0 0 0 0 0
          0 0 0 0 0 0
          0 0 0 0 0 0
          0 0 0 0 0 0
          0 0 0 0 0 0
          0 0 0 0 0 0
          0 0 0 0 0 0
          0 0 0 0 0 0
          0 0 0 0 0 0
          0 0 0 0 0 0
          0 0 0 0 0 0
          0 0 0 0 0 0
          0 0 0 0 0 0
          0 0 0 0 0 0
          0 0 0 0 0 0
          0 0 0 0 0 0
          0 0 0 0 0 0
        </DataArray>
        <DataArray type="Float64" Name="initial_marker" format="ascii" RangeMin="0" RangeMax="2">
          2 0 0 0 2 0.25
          2 0 0 2 0.5 0
          2 0 0 0 0 0
          0 0.5 0.25 0 1 0.5
          0 0 1.5 1.25 1.5 0
          2 2 2 2 1.5 1.5
          2 2 2 0 0.5 0
          0.5 1 1 0 0 1
          0.5 0 1 0.5 0 0
          0 2 1.5 1.5 0.6666666666666666 0
          0 1 0.5 0 0.5 0.25
          0 0 0 2 2 2
          1.5 1.5 2 2 2 0
          0.5 0 0.5 1 1 2
          2 2 2 2 2 2
          2 2 2 2 2 2
          2 2 2 2 2 2
          1 1.5 1 2 1 1.5
          1.5 1.75 0 1 1.5 2
          2 2 2 2 2 2
          2 2 2 2 2 2
          2 2 2 2 2 2
          2 2 2 2 2 2
          2 2 2 2 2 2
          2 2 2 2 2 2
          2 2 2 2 2 2
          2 2 2 2 2 2
          2 2 2 2 2 2
          2 2 2 2 2 2
          2 2 2 2 2 2
          2 2 2 2 2 2
          2 2 2 2 2 2
          2 2 2 2 2 2
          2 2 2 2 2 2
          2 2 2 2 2 2
          2 2 2 2 2 2
          2 2 2 2 2 2
          2 2 2 2 2 2
          2 2 2 2 2 2
          2 2 2 2 2 2
          2 2 2 2 2 2
          2 2 2 2 2 2
          2 2 2 2 2 2
          2 2 2 2 2 2
          2 2 2 2 2 2
          2 2 2 2 2 2
          2 2 2 2 2 2
          2 2 2 2 2 2
          2 2 2 2 2 2
          2 2 2 2 2 2
          2 2 2 2 2 2
          2 2 2 2 2 2
          2 2 2 2 2 2
          2 2 2 2 2 2
          2 2 2 2 2 2
          2 2 2 2 2 2
          2 2 2 2 2 2
          2 2 2 2 2 2
          2 2 2 2 2 2
          2 2 2 2 2 2
          2 2 2 2 2 2
          2 2 2 2 2 2
          2 2 2 2 2 2
          2 2 2 2 2 2
          2 2 2 2 2 2
          2 2 2 2 2 2
          2 2 2 2 2 2
          2 2 2 2 2 2
          2 2 2 2 2 2
          2 2 2 2 2 2
          2 2 2 2 2 2
          2 2 2 2 2 2
          2 2 2 2 2 2
          2 2 2 2 2 2
          2 2 2 2 2 2
          2 2 2 2 2 2
          2 2 2 2 2 2
          2 2 2 2 2 2
          2 2 2 2 2 2
          2 2 2 2 2 2
          2 2 2 2 2 2
          2 2 2 2 2 2
          2 2 2 2 2 2
          2 2 2 2 2 2
          2 2 2 2 2 2
          2 2 2 2 2 2
          2 2 2 2 2 2
          2 2 2 2 2 2
          2 2 2 2 2 2
          2 2 2 2 2 2
          2 2 2 2 2 2
        </DataArray>
        <DataArray type="Float64" Name="markers_norefine" format="ascii" RangeMin="0" RangeMax="2">
          2 0 0 0 0 0
          0 0 0 0 0 0
          0 0 0 0 0 0
          0 0 0 0 0 0
          0 0 0 0 0 0
          1 0 1 0 0 0
          2 2 0 0 0 0
          0 0 0 0 0 0
          0 0 0 0 0 0
          0 0 0 0 0 0
          0 0 0 0 0 0
          0 0 0 2 0.5 0.5
          0 0 2 2 0 0
          0 0 0 0 0 0
          0 0 0 0 0 0
          0 1 0 0 0 0
          0 0 1 1 1 0
          0 0 0 0 0 0
          0 0 0 0 0 0
          0 0 1.5 2 2 2
          2 1.5 1.5 2 2 2
          2 0 0 0 0 0
          0 0 0 0 0 0
          0 0 0 0 0 0
          0 0 0 0 0 0
          0 1.5 1 1 0.25 0
          0 0 0 0 2 1.25
          0.5 0 0 0 0 0
          0 0 0 0 0 0
          0 0 0 0 0 0
          0 0 0 2 2 2
          2 2 2 2 2 2
          2 2 2 2 2 2
          2 0 0 0 0 0
          0 0 0 0 0 0
          0 0 0 1 2 2
          2 2 2 2 2 2
          1 1 0 1 1 0
          0 1.5 1 2 2 2
          2 2 2 2 2 2
          2 2 2 2 2 2
          2 2 2 2 2 2
          1.5 1.5 1 1 2 2
          2 1.5 1.5 1 0.6666666666666666 2
          2 2 2 2 2 2
          2 2 2 2 2 2
          2 2 2 2 2 2
          2 2 2 2 2 2
          2 2 2 2 2 2
          2 2 2 2 2 2
          1 1 0 1 1 1
          0 0 0 1 0.6666666666666666 0
          1 1 0 0 1 1
          0 1 1 0 0 1
          1 0 0 0 0 0
          0 1 0.5 0 2 2
          1.6666666666666667 2 1 0.5 1 0.5
          0 0 2 1.5 1.5 1.3333333333333333
          1 1.5 0 2 2 1
          0 0 0 0 1 0.5
          1 0.75 0 0.5 2 1.5
          1.75 1.3333333333333333 2 2 1 1
          0 0 0 0 0 0
          0 0 0 0 0 0
          2 2 2 2 2 2
          2 2 2 2 2 2
          2 2 2 2 2 2
          2 2 1.5 1.75 0.75 1.25
          2 2 1.75 2 2 1.5
          1.5 2 2 2 2 2
          2 2 2 2 2 2
          2 2 2 2 2 2
          2 2 2 2 2 2
          2 2 2 2 2 2
          2 2 2 2 2 2
          2 2 2 2 2 2
          2 2 2 2 2 2
          2 2 1.5 1.5 2 2
          2 1.5 2 2 2 2
          2 2 2 2 2 2
          2 2 2 2 2 2
          2 2 2 2 0.25 0.5
          0 0 0.75 1 0 0.5
          0.5 0 0 1 1 0
          1 1 0 0 1 1
          0 1 1 0 0 1
          1 0 0.5 0.5 0 0
          1 1 0 0.5 0.5 0
          0 1 1 0 1 1
          0 0 1 1 0 1
          1 0 0 1 1 0
        </DataArray>
        <DataArray type="Float64" Name="markers_mustrefine" format="ascii" RangeMin="0" RangeMax="2">
          2 0 0 0 2 0.25
          2 0 0 2 0.5 0
          2 0 0 0 0 0
          0 0.5 0.25 0 1 0.5
          0 0 1.5 1.25 1.5 0
          2 2 2 2 1.5 1.5
          2 2 2 0 0.5 0
          0.5 1 1 0 0 1
          0.5 0 1 0.5 0 0
          0 2 1.5 1.5 0.6666666666666666 0
          0 1 0.5 0 0.5 0.25
          0 0 0 2 2 2
          1.5 1.5 2 2 2 0
          0.5 0 0.5 1 1 2
          2 2 2 2 2 2
          2 2 2 2 2 2
          2 2 2 2 2 2
          1 1.5 1 2 1 1.5
          1.5 1.75 0 1 1.5 2
          2 2 2 2 2 2
          2 2 2 2 2 2
          2 2 2 2 2 2
          2 2 2 2 2 2
          2 2 2 2 2 2
          2 2 2 2 2 2
          2 2 2 2 2 2
          2 2 2 2 2 2
          2 2 2 2 2 2
          2 2 2 2 2 2
          2 2 2 2 2 2
          2 2 2 2 2 2
          2 2 2 2 2 2
          2 2 2 2 2 2
          2 2 2 2 2 2
          2 2 2 2 2 2
          2 2 2 2 2 2
          2 2 2 2 2 2
          2 2 2 2 2 2
          2 2 2 2 2 2
          2 2 2 2 2 2
          2 2 2 2 2 2
          2 2 2 2 2 2
          2 2 2 2 2 2
          2 2 2 2 2 2
          2 2 2 2 2 2
          2 2 2 2 2 2
          2 2 2 2 2 2
          2 2 2 2 2 2
          2 2 2 2 2 2
          2 2 2 2 2 2
          2 2 2 2 2 2
          2 2 2 2 2 2
          2 2 2 2 2 2
          2 2 2 2 2 2
          2 2 2 2 2 2
          2 2 2 2 2 2
          2 2 2 2 2 2
          2 2 2 2 2 2
          2 2 2 2 2 2
          2 2 2 2 2 2
          2 2 2 2 2 2
          2 2 2 2 2 2
          2 2 2 2 2 2
          2 2 2 2 2 2
          2 2 2 2 2 2
          2 2 2 2 2 2
          2 2 2 2 2 2
          2 2 2 2 2 2
          2 2 2 2 2 2
          2 2 2 2 2 2
          2 2 2 2 2 2
          2 2 2 2 2 2
          2 2 2 2 2 2
          2 2 2 2 2 2
          2 2 2 2 2 2
          2 2 2 2 2 2
          2 2 2 2 2 2
          2 2 2 2 2 2
          2 2 2 2 2 2
          2 2 2 2 2 2
          2 2 2 2 2 2
          2 2 2 2 2 2
          2 2 2 2 2 2
          2 2 2 2 2 2
          2 2 2 2 2 2
          2 2 2 2 2 2
          2 2 2 2 2 2
          2 2 2 2 2 2
          2 2 2 2 2 2
          2 2 2 2 2 2
          2 2 2 2 2 2
        </DataArray>
        <DataArray type="Float64" Name="gradient_marker" format="ascii" RangeMin="0" RangeMax="1">
          0 0.5 0.5 0.75 1 0.75
          1 0.5 0.75 0.75 0.5 0.625
          1 1 1 1 1 1
          1 0.5 0.5 0 0.5 0.5
          0.5 0.5 1 0.75 0.75 0.6666666666666666
          0.5 0.75 0.5 0.625 0.75 0.75
          0 0 1 0.5 0.625 0.5
          0.5 0.75 0.5 0 0 0.5
          0.375 0 0.25 0.125 0 0.25
          0 1 0.625 0.125 0.5 0
          0 0 0 0 0 0
          0 0 0 0 0.5 0.5
          0.75 0.75 0 0 1 0.5
          0.5 0.5 0.5 0.5 0.5 1
          1 1 1 0.5 1 1
          0.75 0.5 1 1 1 1
          0.75 0.75 0.5 0.5 0.5 0.75
          0 0.25 0 0.75 0 0.25
          0 0.25 0 0 0 0.75
          0.625 0.5 0.25 0 0 0
          0 0.25 0.125 0 0 0
          0 0.75 1 0.5 0.75 0.625
          1 1 0.5 0.5 1 1
          1 1 0.5 1 0.75 0.5
          0.25 0.75 0.875 0.5 0.75 0.75
          0.75 0.25 0.375 0.25 0.5 0.5
          0.625 0.5 0.625 0.5 0 0.25
          0.5 0 0.25 0 0.25 0
          0 0 0.5 0.5 0.5 0
          0.25 0 0.25 0 0 0
          0.5 0.5 0.5 0 0 0
          0 0 0 0 0 0
          0 0 0 0 0 0
          0 0.5 0.5 1 1 0.5
          0.5 1 0.5 0.5 1 1
          0.5 0.5 1 0 0 0
          0 0 0 0 0 0
          0 0 0 0 0 0
          0 0 0 0 0 0
          0 0 0 0 0 0
          0 0 0 0 0 0
          0 0 0 0 0 0
          0 0 0 0 0 0
          0 0 0 0 0 0
          0 0 0 0 0 0
          0 0 0 0 0 0
          0 0 0 0 0 0
          0 0 0 0 0 0
          0 0 0 0 0 0
          0 0 0 0 0 0
          0 0 0 0 0 0
          0 0 0 0 0 0
          0 0 0 0 0 0
          0 0 0 0 0 0
          0 0 0 0 0 0
          0 0 0 0 0 0
          0 0 0 0 0 0
          0 0 0 0 0 0
          0 0 0 0 0 0
          0 0 0 0 0 0
          0 0 0 0 0 0
          0 0 0 0 0 0
          0 0 0 0 0 0
          0 0 0 0 0 0
          0 0 0 0 0 0
          0 0 0 0 0 0
          0 0 0 0 0 0
          0 0 0 0 0 0
          0 0 0 0 0 0
          0 0 0 0 0 0
          0 0 0 0 0 0
          0 0 0 0 0 0
          0 0 0 0 0 0
          0 0 0 0 0 0
          0 0 0 0 0 0
          0 0 0 0 0 0
          0 0 0 0 0 0
          0 0 0 0 0 0
          0 0 0 0 0 0
          0 0 0 0 0 0
          0 0 0 0 0 0
          0 0 0 0 0 0
          0 0 0 0 0 0
          0 0 0 0 0 0