<?xml version="1.0"?>
<VTKFile type="UnstructuredGrid" version="0.1" byte_order="LittleEndian" header_type="UInt32" compressor="vtkZLibDataCompressor">
  <UnstructuredGrid>
    <Piece NumberOfPoints="523" NumberOfCells="313">
      <PointData>
        <DataArray type="Int32" Name="libmesh_node_id" format="ascii" RangeMin="514" RangeMax="4685">
          659 1156 1158 1160 1163 1164
          1166 1168 1184 1188 1190 1192
          2027 2028 2029 2030 2058 2064
          2073 2078 2079 2080 2081 2082
          2083 2084 2085 2086 2087 2088
          2089 2090 2092 2093 2094 2096
          2097 2098 2104 2113 2118 2119
          2120 2121 2122 2123 2124 2125
          2126 2127 2128 2129 2130 2131
          2132 2215 2216 2217 2218 2219
          2220 2221 2222 2223 2224 2225
          2226 2228 2229 2230 2231 2232
          2233 2234 2391 2392 2393 2408
          2409 2410 2411 2412 2413 2414
          2415 2416 2419 2420 3634 3663
          3691 3692 3693 3696 3701 3702
          3706 3729 3730 3733 3736 3740
          3743 3747 3748 3749 3750 3751
          3753 3754 3755 3756 3757 3758
          3759 3760 3761 3762 3763 3764
          3765 3766 3767 3768 3770 3773
          3774 3775 3777 3778 3779 3780
          3781 3782 3783 3784 3785 3786
          3787 3788 3789 3790 3791 3792
          3793 3794 3795 3796 3797 3798
          3799 3800 3801 3802 3803 3804
          3805 3806 3807 3808 3809 3810
          3811 3812 3813 3814 3815 3816
          3817 3818 3819 3820 3821 3822
          3823 3824 3825 3826 3827 3828
          3829 3830 3831 3832 3833 3834
          3835 3836 3837 3838 3839 3840
          3841 3842 3843 3844 3845 3846
          3847 3848 3849 3850 3851 3852
          3853 3854 3855 3856 3887 3921
          3947 3948 3951 3954 3958 3981
          3982 3985 3988 3992 3994 3999
          4000 4001 4003 4004 4005 4006
          4007 4008 4009 4010 4011 4012
          4013 4014 4018 4023 4024 4025
          4027 4028 4029 4030 4031 4032
          4033 4034 4035 4036 4037 4038
          4039 4040 4041 4042 4043 4044
          4045 4046 4047 4048 4049 4050
          4051 4052 4053 4054 4055 4056
          4057 4058 4059 4060 4061 4062
          4063 4064 4065 4066 4067 4068
          4069 4070 4071 4072 4073 4074
          4075 4076 4077 4078 4079 4080
          4081 4082 4083 4084 4085 4086
          4087 4088 4089 4090 4091 4092
          4093 4094 4263 4293 4294 4297
          4298 4300 4302 4500 4502 4504
          4506 4528 4530 4532 4534 4601
          4602 4603 4604 4605 4606 4607
          4608 4609 4610 4611 4612 4613
          4614 4615 4616 4617 4618 4619
          4620 4621 4622 4623 4624 4625
          4626 4627 4628 4629 4630 4631
          4632 4633 4634 4635 4636 4637
          4638 4639 4640 4641 4642 4643
          4644 4645 4646 4647 4648 4649
          4650 4651 4652 4653 4654 4655
          4656 4657 4658 4659 4660 4663
          4664 4666 4668 4679 4681 4683
          4685 643 656 813 805 514
          661 819 810 1137 1183 1187
          1138 1141 1185 1186 1189 1143
          1191 1985 640 1986 1989 1991
          1120 2021 2023 2025 646 2091
          2161 2165 651 2162 2166 2095
          2227 2235 2239 2236 2240 2242
          2244 1100 1153 2375 2372 1154
          2377 2389 2395 2399 2390 2397
          2400 2040 2053 2402 2054 2404
          1157 2406 2407 2417 2418 2421
          2423 2170 2474 2487 2140 3703
          2074 3737 1162 3955 2114 3989
          1167 4127 4259 4128 4260 4264
          4261 4262 4265 4132 4266 4268
          4165 4279 4281 4169 4283 4285
          4295 4282 4296 4299 2168 4301
          4372 4486 4488 4376 4490 4492
          4489 4501 4503 2201 4505 2203
          4406 4514 4516 4410 4518 4520
          4517 4529 4531 2205 4533 2207
          4661 4662 4665 4667 4680 4682
          4684
        </DataArray>
        <DataArray type="Float64" Name="bounds" format="ascii" RangeMin="0" RangeMax="0">
          0 0 0 0 0 0
          0 0 0 0 0 0
          0 0 0 0 0 0
          0 0 0 0 0 0
          0 0 0 0 0 0
          0 0 0 0 0 0
          0 0 0 0 0 0
          0 0 0 0 0 0
          0 0 0 0 0 0
          0 0 0 0 0 0
          0 0 0 0 0 0
          0 0 0 0 0 0
          0 0 0 0 0 0
          0 0 0 0 0 0
          0 0 0 0 0 0
          0 0 0 0 0 0
          0 0 0 0 0 0
          0 0 0 0 0 0
          0 0 0 0 0 0
          0 0 0 0 0 0
          0 0 0 0 0 0
          0 0 0 0 0 0
          0 0 0 0 0 0
          0 0 0 0 0 0
          0 0 0 0 0 0
          0 0 0 0 0 0
          0 0 0 0 0 0
          0 0 0 0 0 0
          0 0 0 0 0 0
          0 0 0 0 0 0
          0 0 0 0 0 0
          0 0 0 0 0 0
          0 0 0 0 0 0
          0 0 0 0 0 0
          0 0 0 0 0 0
          0 0 0 0 0 0
          0 0 0 0 0 0
          0 0 0 0 0 0
          0 0 0 0 0 0
          0 0 0 0 0 0
          0 0 0 0 0 0
          0 0 0 0 0 0
          0 0 0 0 0 0
          0 0 0 0 0 0
          0 0 0 0 0 0
          0 0 0 0 0 0
          0 0 0 0 0 0
          0 0 0 0 0 0
          0 0 0 0 0 0
          0 0 0 0 0 0
          0 0 0 0 0 0
          0 0 0 0 0 0
          0 0 0 0 0 0
          0 0 0 0 0 0
          0 0 0 0 0 0
          0 0 0 0 0 0
          0 0 0 0 0 0
          0 0 0 0 0 0
          0 0 0 0 0 0
          0 0 0 0 0 0
          0 0 0 0 0 0
          0 0 0 0 0 0
          0 0 0 0 0 0
          0 0 0 0 0 0
          0 0 0 0 0 0
          0 0 0 0 0 0
          0 0 0 0 0 0
          0 0 0 0 0 0
          0 0 0 0 0 0
          0 0 0 0 0 0
          0 0 0 0 0 0
          0 0 0 0 0 0
          0 0 0 0 0 0
          0 0 0 0 0 0
          0 0 0 0 0 0
          0 0 0 0 0 0
          0 0 0 0 0 0
          0 0 0 0 0 0
          0 0 0 0 0 0
          0 0 0 0 0 0
          0 0 0 0 0 0
          0 0 0 0 0 0
          0 0 0 0 0 0
          0 0 0 0 0 0
          0 0 0 0 0 0
          0 0 0 0 0 0
          0 0 0 0 0 0
          0
        </DataArray>
        <DataArray type="Float64" Name="gradient_error" format="ascii" RangeMin="2.4164727340083362e-11" RangeMax="1.320400609086902e-7">
          8.770906585280221e-10 8.841799706837404e-10 4.932115556330751e-10 1.725976598670673e-8 1.8685726802357844e-9 3.538878845535001e-10
          5.169215229089155e-8 3.881501534837077e-9 1.201460557389469e-9 1.1945674094971883e-9 2.0545168525322516e-9 1.6735196429711528e-9
          8.999776681721429e-9 1.5016941656578326e-8 1.1247576902987705e-8 1.8119106462070878e-8 4.2665907366250785e-10 3.6910802556174966e-9
          1.8882443931400136e-9 1.0650953489087902e-8 3.9364433128763925e-9 1.889423720014876e-8 4.5076424476986563e-10 1.313715603205581e-9
          2.4917567015736216e-9 7.0750414820215095e-9 1.2102882601733047e-9 5.8337442613807226e-8 5.775641669297992e-9 1.759447689367139e-8
          2.037885060610881e-10 6.070771716168161e-10 2.830852900871829e-10 1.745116000230036e-10 5.032032663369773e-10 3.106770477914466e-9
          1.4493506366172235e-9 8.470215833897592e-10 4.1483679311572814e-8 2.7648970604856416e-8 3.662546763398685e-8 6.86244594810906e-8
          1.396845114633904e-8 3.1793451649137795e-8 2.925362028014075e-9 5.142606551162327e-8 1.8617960365044905e-8 3.935268938479766e-8
          8.320699131581116e-9 4.176006086875168e-9 1.4510840017071307e-9 6.398676395258944e-10 1.1425153742051856e-8 5.905864171704616e-9
          1.9628821487660463e-9 5.607143504247222e-9 8.68718939750142e-9 1.4720786883389778e-9 1.337204576227603e-9 4.21614272652717e-9
          7.1838806818790685e-9 2.026491508563791e-9 1.0495120339223574e-8 1.6316025790095202e-9 8.80875956118925e-9 5.703094861093499e-10
          4.6499748013949656e-10 1.8310152220758654e-10 3.904920717674755e-10 6.479032434445997e-10 2.5264259759341817e-10 5.657016997637759e-10
          2.244153251244413e-10 7.63238152601125e-10 2.9845928569352725e-9 4.534684684646177e-9 3.216985850837777e-9 1.9641998807758125e-9
          3.1803288241560474e-9 6.355613667246565e-10 1.272056194400445e-9 1.2276277702161857e-9 2.0504557103508186e-9 5.816500270255589e-10
          2.280082798475981e-10 5.027276045204674e-10 1.3846911473992312e-10 1.9344246199339997e-10 1.3281245308151518e-9 8.661366471292748e-9
          4.244443061610226e-10 9.086179001345017e-10 6.198521165477558e-10 2.660651615750306e-9 1.8625703663157877e-10 4.132196135190363e-10
          1.298551626926281e-9 6.6406595363719905e-9 4.939359576388802e-9 1.381186541422938e-8 3.5237061241036175e-9 7.873359951520274e-9
          9.592836909115093e-10 4.35782769642244e-10 8.604153783065717e-10 5.178161990979918e-10 7.923979057017453e-10 5.158492707234104e-10
          2.2996357417767862e-9 2.031977627442584e-9 4.2932884580889e-10 5.629255379278005e-10 4.5038872050967144e-10 1.3620074199158332e-9
          3.175782729211611e-10 4.5808394235105674e-10 1.631222682035615e-10 2.865284140001748e-10 2.5354048060207163e-10 3.495045013834282e-10
          1.9850538716478586e-10 1.0995069753237504e-9 6.917938561193311e-10 7.948811767941239e-10 5.046080429222489e-9 5.315845232440359e-9
          4.238834699689866e-9 2.9451156472585697e-9 1.0550586296801695e-8 7.787516360596945e-9 2.7271815680460644e-9 2.1034502824871723e-9
          4.6762648478597546e-9 2.2458180214607508e-9 1.483877586633508e-9 1.620447953185876e-9 9.462767466237874e-10 3.996401370305994e-9
          2.8359354323953642e-9 2.3596653479977003e-9 2.8193012083613877e-10 5.767469617213096e-10 1.8700014440772653e-10 3.872953868527108e-10
          1.7380562055170168e-10 3.373761261697929e-10 2.221486250709907e-10 1.6160412388843206e-9 1.1235558249666966e-9 8.941497199344836e-10
          1.2233244633673702e-10 2.550707960336495e-10 7.872060692309854e-11 1.6307637212748476e-10 7.670802988925401e-11 1.4356064522955394e-10
          1.0440792173008878e-10 7.60847709480698e-10 4.972661767551519e-10 4.0244465561775095e-10 9.844219721385303e-11 1.807887618923382e-10
          6.347206666057234e-11 1.1660785254814643e-10 7.068558132958593e-11 1.2130060323021233e-10 7.743449603478958e-11 4.555237133081663e-10
          3.020582823368852e-10 2.966756112651799e-10 4.5093861531349543e-11 7.560772317496719e-11 3.9711147795569596e-11 5.976278381228143e-11
          3.264820905545493e-11 5.230057709880633e-11 4.3942876516071404e-11 1.961308917869404e-10 1.4813917345459463e-10 1.267477314344919e-10
          3.948484827827663e-9 2.856487048352899e-9 2.1023447178136884e-9 1.4768234179894015e-9 8.194321830251916e-9 6.1479183553842074e-9
          4.290674266153871e-9 1.9922487075690856e-9 1.3331408727595502e-9 1.0074626882647152e-9 6.623420288308929e-10 4.419865547627016e-9
          3.0289100818422747e-9 2.1668355720370227e-9 1.0160758213577333e-9 6.943413113683734e-10 6.331543246070821e-10 4.259844069511414e-10
          2.0105031552503575e-9 1.40688288130761e-9 1.0167517845011921e-9 4.633917953024529e-10 2.9908189049348247e-10 2.8065984180928916e-10
          1.792691816273072e-10 9.553445229361266e-10 6.252849208770908e-10 4.611900991326008e-10 2.9349722903996954e-8 4.926464797864855e-8
          2.3950406166904034e-8 1.884733866827756e-8 3.458496937118292e-8 1.4252582208062345e-8 2.121268645906493e-8 4.211073643950347e-8
          3.4236676974140683e-8 4.468142297734175e-8 2.6578878377274235e-8 2.858131953426392e-8 1.4503773436265923e-8 1.7868861645118287e-8
          1.2717219693672728e-8 9.70703440822039e-9 2.5958080655074753e-8 1.7427360622395962e-8 7.22787116665072e-9 3.819348069849584e-9
          9.703803504652283e-9 6.32687284367738e-9 4.710376812149472e-9 3.117630613240547e-9 2.054616946377794e-9 8.670558120488806e-9
          6.719218441008535e-9 4.296793977710461e-9 2.7148142778804465e-8 3.240622489118042e-8 2.0795162071600503e-8 1.733546418503688e-8
          3.485030613714257e-8 2.2075703321360713e-8 1.1966371288350429e-8 6.3820933887482605e-9 1.3055218731285399e-8 1.0656025224062215e-8
          8.293246330550603e-9 5.291134283839655e-9 3.6129794384187393e-9 1.1523088857944545e-8 8.891040559417493e-9 5.732744854217078e-9
          1.426770913998335e-8 1.0986563882146537e-8 7.451223682852629e-9 5.543087330899449e-9 2.0997275407503247e-8 1.6391009272247782e-8
          1.0974745802113388e-8 8.108531353102078e-9 5.699838670922161e-9 3.952869199940958e-9 2.690017491011183e-9 1.2300210320328898e-8
          8.81264020019109e-9 6.042468846191273e-9 3.4434353115827624e-9 2.4592122346211165e-9 1.4363075810495267e-9 9.896930447354775e-10
          5.042560885557403e-9 3.6638564289134935e-9 2.081954133924439e-9 1.6956884714929102e-9 1.123277249258921e-9 6.631374320645583e-10
          4.2980006923099004e-10 2.55832518764113e-9 1.7115543929166304e-9 9.809162565420352e-10 2.6351557827856778e-8 2.0696307024913936e-8
          1.3791590303983431e-8 1.056214289166264e-8 2.8391790440663094e-8 2.2341339634927066e-8 1.4872124464683893e-8 1.5654296274976012e-8
          1.1325546580022198e-8 7.754674538759668e-9 5.419310201095228e-9 1.6936114662151688e-8 1.2286851467162652e-8 8.416927966808444e-9
          6.328743746066327e-9 4.652026225809722e-9 2.5898342083429458e-9 1.8198895340940915e-9 6.822469576352616e-9 5.035307996918165e-9
          2.7856841600916005e-9 3.2762394825543275e-9 2.2055137741188232e-9 1.2372998088919199e-9 8.10422641852051e-10 3.5571598787895718e-9
          2.3997656498876157e-9 1.3371454030758608e-9 4.030553074797863e-11 1.1163935086240446e-10 1.8600126723483667e-10 7.08794966487431e-11
          1.1080031492058963e-10 3.938881911045354e-10 1.8460203284481504e-10 7.13551321198473e-10 2.686478860214443e-10 1.0951118204007386e-9
          4.017227424389695e-10 1.418131007072317e-9 5.101657620640144e-10 1.5457278171383002e-9 5.52639328621974e-10 1.2240565423717385e-9
          1.5319142422927602e-9 1.2018778271300903e-9 2.0358178447969593e-9 1.0267879813477879e-9 1.284497659776617e-9 6.837415828110777e-10
          8.59219829260693e-10 7.61079008935514e-10 9.065121656388802e-10 5.087367236374032e-10 1.7336073812869752e-9 1.1938699153519753e-9
          1.1844013321623836e-9 2.3711916941186413e-9 1.864643375384887e-9 2.5105196408571454e-9 2.0539681686815936e-9 1.4540748895998082e-9
          1.3946124923502806e-9 7.79898345301463e-10 2.1829289129946833e-9 1.5551080242059738e-9 1.4723676427180404e-9 4.5051723393102007e-10
          5.700394016615607e-10 2.984779270356161e-10 3.800016696931748e-10 2.991662995788051e-10 3.3580097354194773e-10 2.1828545107210445e-10
          8.013670035166367e-10 5.385725145313003e-10 4.310834926164342e-10 1.9293753373944035e-10 2.478135058459712e-10 1.226025182073845e-10
          1.5756168560300767e-10 1.2328519764661862e-10 1.3982200000641888e-10 8.747750505167524e-11 3.541857640750294e-10 2.258304515369111e-10
          1.8196941681606715e-10 9.835492359661103e-10 6.638419963266581e-10 5.256163105168247e-10 3.447767651068279e-10 1.0539260342910484e-9
          7.120643759414489e-10 5.615012833058713e-10 4.380856318653543e-10 2.8014006902401247e-10 2.2280326689128148e-10 1.3940025692777482e-10
          4.704892135331516e-10 3.011400879728336e-10 2.3802650251664777e-10 7.547648439498217e-11 9.725258833713096e-11 4.759129166960429e-11
          5.3795048460317935e-11 1.3979272580654337e-10 7.000096145553237e-11 1.7371556375305422e-10 8.602878426177647e-11 1.8687436817230147e-10
          9.205445086351981e-11 3.7046883923610254e-9 3.584176718049952e-10 3.0960842007796893e-10 6.764566301303002e-10 2.1456869534119882e-9
          7.131675622983902e-10 3.7952223790937664e-10 7.876883959096166e-10 1.2898303362597832e-8 4.5522483042182444e-10 4.5919207246454944e-10
          3.7306401506318625e-8 2.405696408838094e-9 1.6714000335312168e-10 3.477245295399274e-10 5.455752201065751e-10 5.615316368204054e-8
          5.426744498205273e-10 1.1142944234565058e-8 1.7331455753352467e-8 4.127890688605317e-8 1.6719942928925567e-8 1.2001352859754451e-7
          6.768212013447504e-8 1.320400609086902e-7 8.145928012335228e-8 9.165217964468889e-8 1.2621282643578887e-7 1.1172552358721676e-10
          7.16549972937595e-11 8.216549106596052e-11 1.432191827256587e-10 1.33159162643785e-10 1.1745405898162668e-10 2.3130172550268272e-10
          2.2560888534225508e-10 8.498355213672857e-11 5.6096753035707815e-11 6.87158047286673e-11 9.454851020055754e-11 8.460298566140416e-11
          1.1262510254785182e-10 4.274382235356144e-9 2.557735114716622e-10 2.532869391131846e-10 3.4938175767298746e-10 8.011869338929582e-11
          9.13875847297733e-11 1.202919250784297e-9 8.608139582704033e-10 6.196538952968054e-10 8.807702526951839e-10 3.811037558813873e-10
          2.5450150932917075e-10 6.597004967252314e-10 3.0685358066322866e-10 1.715979801124593e-10 1.2177986517296299e-10 6.752521228798913e-11
          1.7070282667800723e-10 1.0712768720194216e-10 4.0774807096386324e-11 8.825029233236657e-11 1.9896173769510238e-10 7.394506644905932e-11
          7.543681608017996e-11 1.328486776936406e-10 4.722696967763978e-11 2.4164727340083362e-11 6.48493238662145e-11 2.671118821822559e-10
          8.596386632217415e-10 2.399196918650143e-9 5.541491015761097e-9 1.0300993722291651e-8 1.5569531087297878e-8 1.9658017516190982e-8
          2.1190912580452276e-8 7.310708595474409e-11 4.9379370534091096e-11 1.668690654005701e-10 1.0094283153637197e-10 7.278368449022837e-11
          2.9696052210860094e-11 6.050793549036402e-11 4.350641912535072e-11 5.460521920429058e-10 3.1220330201984817e-10 1.9544384489484693e-10
          1.5568253153613193e-9 8.529195195188616e-10 4.1767656327391317e-10 3.6918727035444656e-9 1.9751669287092617e-9 9.275177693098448e-10
          6.633009296959543e-11 2.52777426489328e-10 1.1159020328988084e-10 6.611301836079611e-11 5.67366006875413e-10 2.383981012947083e-10
          7.063946547446114e-9 3.793299874113976e-9 1.7442462827183566e-9 1.0898833867203846e-8 5.976863865654577e-9 2.7393049083036685e-9
          1.076529818626545e-9 4.34418399785057e-10 1.6161826035443103e-10 1.7048678567227806e-9 6.698505255027838e-10 2.4219253861751723e-10
          1.3875879858117997e-8 7.781655542881846e-9 3.5837112097473034e-9 1.498041696111482e-8 8.479787972800643e-9 3.917087908026088e-9
          2.243781731330456e-9 8.701595768567345e-10 3.0817878931979005e-10 2.457781386440596e-9 9.495090132987647e-10 3.340406311416626e-10
          4.533783427303782e-11 5.823487780774438e-11 3.279147150459307e-11 8.361627958352408e-11 1.0403542674979971e-10 5.282122916015174e-11
          1.1197021567500221e-10
        </DataArray>
        <DataArray type="Float64" Name="gradient_matprop_error" format="ascii" RangeMin="0" RangeMax="0">
          0 0 0 0 0 0
          0 0 0 0 0 0
          0 0 0 0 0 0
          0 0 0 0 0 0
          0 0 0 0 0 0
          0 0 0 0 0 0
          0 0 0 0 0 0
          0 0 0 0 0 0
          0 0 0 0 0 0
          0 0 0 0 0 0
          0 0 0 0 0 0
          0 0 0 0 0 0
          0 0 0 0 0 0
          0 0 0 0 0 0
          0 0 0 0 0 0
          0 0 0 0 0 0
          0 0 0 0 0 0
          0 0 0 0 0 0
          0 0 0 0 0 0
          0 0 0 0 0 0
          0 0 0 0 0 0
          0 0 0 0 0 0
          0 0 0 0 0 0
          0 0 0 0 0 0
          0 0 0 0 0 0
          0 0 0 0 0 0
          0 0 0 0 0 0
          0 0 0 0 0 0
          0 0 0 0 0 0
          0 0 0 0 0 0
          0 0 0 0 0 0
          0 0 0 0 0 0
          0 0 0 0 0 0
          0 0 0 0 0 0
          0 0 0 0 0 0
          0 0 0 0 0 0
          0 0 0 0 0 0
          0 0 0 0 0 0
          0 0 0 0 0 0
          0 0 0 0 0 0
          0 0 0 0 0 0
          0 0 0 0 0 0
          0 0 0 0 0 0
          0 0 0 0 0 0
          0 0 0 0 0 0
          0 0 0 0 0 0
          0 0 0 0 0 0
          0 0 0 0 0 0
          0 0 0 0 0 0
          0 0 0 0 0 0
          0 0 0 0 0 0
          0 0 0 0 0 0
          0 0 0 0 0 0
          0 0 0 0 0 0
          0 0 0 0 0 0
          0 0 0 0 0 0
          0 0 0 0 0 0
          0 0 0 0 0 0
          0 0 0 0 0 0
          0 0 0 0 0 0
          0 0 0 0 0 0
          0 0 0 0 0 0
          0 0 0 0 0 0
          0 0 0 0 0 0
          0 0 0 0 0 0
          0 0 0 0 0 0
          0 0 0 0 0 0
          0 0 0 0 0 0
          0 0 0 0 0 0
          0 0 0 0 0 0
          0 0 0 0 0 0
          0 0 0 0 0 0
          0 0 0 0 0 0
          0 0 0 0 0 0
          0 0 0 0 0 0
          0 0 0 0 0 0
          0 0 0 0 0 0
          0 0 0 0 0 0
          0 0 0 0 0 0
          0 0 0 0 0 0
          0 0 0 0 0 0
          0 0 0 0 0 0
          0 0 0 0 0 0
          0 0 0 0 0 0
          0 0 0 0 0 0
          0 0 0 0 0 0
          0 0 0 0 0 0
          0
        </DataArray>
        <DataArray type="Float64" Name="initial_marker" format="ascii" RangeMin="0" RangeMax="2">
          2 1 0 2 1.5 1.5
          2 2 0 0 0 0
          0.5 1 0 1 1 2
          2 2 0.5 2 0 2
          0.3333333333333333 0.75 0.5 2 2 1.5
          0 2 1.5 0 0.5 2
          2 1.5 2 2 2 2
          2 2 2 2 2 2
          2 2 2 2 2 2
          2 0.25 0.75 0 0.5 0
          0 0 1 1 0 0
          0 0 0 0 0 0.5
          0 0 0 0 0 0
          0 0 0 0 0 0
          0 0 0 0 2 2
          2 2 2 2 2 2
          2 2 2 2 2 2
          1 1 1.5 0 1 1
          2 2 0 0.5 0 1.5
          0 0.5 0 0.5 0 0
          0 1.5 1.5 1 2 2
          2 2 2 2 2 2
          2 2 2 2 2 2
          2 2 1 1.5 1 1.5
          0 1 1 2 2 2
          1 1.5 0.5 1.25 0 0.75
          0.6666666666666666 2 2 1.75 0 0.5
          0 0.5 0 0 0 1.5
          1.5 1 0 0.25 0 0
          0 0 0 1 0.6666666666666666 0.5
          2 2 2 2 2 2
          2 2 2 2 2 2
          2 2 2 2 2 2
          2 2 2 1.75 1.5 1.5
          1 2 2 2 2 2
          2 2 2 2 2 2
          2 2 2 2 2 2
          2 2 2 2 2 2
          2 2 2 2 2 2
          2 2 2 2 2 2
          2 2 2 2 2 2
          2 2 2 2 2 2
          2 2 2 2 2 2
          2 2 2 2 2 2
          2 2 2 2 2 2
          2 2 2 2 2 2
          2 2 2 2 2 2
          2 2 2 2 2 2
          2 2 2 2 2 2
          2 2 2 2 2 2
          2 2 2 2 2 2
          2 2 0 1 1.5 0
          1 2 1.6666666666666667 2 1.75 2
          2 2 2 2 2 1
          1 0 1.5 1 1 1
          1 0 0 0 1.5 1.5
          1 2 2 2 2 2
          2 2 2 2 2 1
          1 1 1 0 0 0
          1.25 1 0.5 1 1 1
          1 0 0 0 1 1
          0 1.75 1.25 1.5 0.5 2
          1.5 2 1 1 0 0
          1 1 0 0.5 0.75 0
          0 1 0 1 0 1
          0 0 0 0 0 0
          0 0 0 0 0 0
          0.25 0 0 0 0 0.5
          0 1.3333333333333333 0.5 2 1.3333333333333333 2
          1.5 2 2 2 2 0
          0 0 0 1.5 0 0
          0 0 0 0 0 0
          0 0 0 0 0 0
          0 0 0 0 0 0
          0 0 0 0 0 0
          0.75 0 0 0 0 0
          0 1 0 0 0.5 1.75
          2 2 2 2 2 2
          2 1 0 1.5 1 1
          0 1 1 2 2 2
          2 2 2 2 2 2
          1 2 1.5 1 2 2
          2 2 2 2 2 2
          2 2 1.5 2 2 2
          2 2 2 2 2 2
          2 2 2 2 2 2
          0 0.5 0 1 1 0
          1
        </DataArray>
        <DataArray type="Float64" Name="markers_norefine" format="ascii" RangeMin="0" RangeMax="1">
          0 0 0 0 0 0
          1 0 0 0 0 0
          0 0 0 0 0 0
          0 0 0 0 0 0
          0 0 0 0 0 0
          0 0 0 0 0 0
          0 0 0.25 0 0 0
          0 0 0 0 0 0
          0 0 0 0 0 0
          0 0 0 0 0 0
          0 0 0 0 0 0
          0 0 0 0 0 0
          0 0 0 0 0 0
          0 0 0 0 0 0
          0 0 0 0 0 0
          0 0 0 0 0 0
          0 0 0 0 0 0
          0 0 0 0 0 0
          0 0 0 0 0 0
          0 0 0 0 0 0
          0 0 0 0 0 0
          0 0 0 0 0 0
          0 0 0 0 0 0
          0 0 0 0 0 0
          0 0 0 0 0 0
          0 0 0 0 0 0
          0 0 0 0 0 0
          0 0 0 0 0 0
          0 0 0 0 0 0
          0 0 0 0 0 0
          0 0 0 0 0 0
          0 0 0 0 0 0
          0 0 0 0 0 0
          0 0 0 0 0 0
          0 0 0 0 0 0.75
          0 0 0 0 0 0.25
          0 0.5 0 0 0 0
          0 0 0 0 0 0
          0 0 0 0 0 0
          0 0 0 0 0 0
          0 0 0 0 0 0
          0 0 0 0 0 0
          0 0 0 0 0 0
          0 0 0 0 0 0
          0 0 0 0 0 0
          0 0 0 0 0 0
          0 0 0 0 0 0
          0 0 0 0 0 0
          0 0 0 0 0 0
          0 0 0 0 0 0
          0 0 0 0 0 0
          0 0 0 0 0 0
          0 0 0 0 0 0
          0 0 0 0 0 0
          0 0 0 0 0 0
          0 0 0 0 0 0
          0 0 0 0 0 0
          0 0 0 0 0 0
          0 0 0 0 0 0
          0 0 0 0 0 0
          0 0 0 0 0 0
          0 0 0 0 0 0
          0 0 0 0 0 0
          0 0 0 0 0 0
          0 0 0 0 0 0
          0 0 0 0 0 0
          0 0 0 0 0 0
          0 0 0 0 0 0
          0 0 0 0 0 0
          0 0 0 0 0 0
          0 0 0 0 0 0
          0 0 0 0 0 0
          0 0 0 0 0 0
          0 0 0 0 0 0
          0 0 0 0 0 0
          0 0 0 0 0 0
          0 0 0 0 0 0
          0 0 0 0 0 0
          0 0 0 0 0 0
          0 0 0 0 0 0
          0 0 0 0 0 0
          0 0 0 0 0 0
          0 0 0 0 0 0
          0 0 0 0 0 0
          0 0 0 0 0 0
          0 0 0 0 0 0
          0 0 0 0 0 0
          0
        </DataArray>
        <DataArray type="Float64" Name="markers_mustrefine" format="ascii" RangeMin="0" RangeMax="2">
          2 1 0 2 1.5 1.5
          2 2 0 0 0 0
          0.5 1 0 1 1 2
          2 2 0.5 2 0 2
          0.3333333333333333 0.75 0.5 2 2 1.5
          0 2 1.5 0 0.5 2
          2 1.5 2 2 2 2
          2 2 2 2 2 2
          2 2 2 2 2 2
          2 0.25 0.75 0 0.5 0
          0 0 1 1 0 0
          0 0 0 0 0 0.5
          0 0 0 0 0 0
          0 0 0 0 0 0
          0 0 0 0 2 2
          2 2 2 2 2 2
          2 2 2 2 2 2
          1 1 1.5 0 1 1
          2 2 0 0.5 0 1.5
          0 0.5 0 0.5 0 0
          0 1.5 1.5 1 2 2
          2 2 2 2 2 2
          2 2 2 2 2 2
          2 2 1 1.5 1 1.5
          0 1 1 2 2 2
          1 1.5 0.5 1.25 0 0.75
          0.6666666666666666 2 2 1.75 0 0.5
          0 0.5 0 0 0 1.5
          1.5 1 0 0.25 0 0
          0 0 0 1 0.6666666666666666 0.5
          2 2 2 2 2 2
          2 2 2 2 2 2
          2 2 2 2 2 2
          2 2 2 1.75 1.5 1.5
          1 2 2 2 2 2
          2 2 2 2 2 2
          2 2 2 2 2 2
          2 2 2 2 2 2
          2 2 2 2 2 2
          2 2 2 2 2 2
          2 2 2 2 2 2
          2 2 2 2 2 2
          2 2 2 2 2 2
          2 2 2 2 2 2
          2 2 2 2 2 2
          2 2 2 2 2 2
          2 2 2 2 2 2
          2 2 2 2 2 2
          2 2 2 2 2 2
          2 2 2 2 2 2
          2 2 2 2 2 2
          2 2 0 1 1.5 0
          1 2 1.6666666666666667 2 1.75 2
          2 2 2 2 2 1
          1 0 1.5 1 1 1
          1 0 0 0 1.5 1.5
          1 2 2 2 2 2
          2 2 2 2 2 1
          1 1 1 0 0 0
          1.25 1 0.5 1 1 1
          1 0 0 0 1 1
          0 1.75 1.25 1.5 0.5 2
          1.5 2 1 1 0 0
          1 1 0 0.5 0.75 0
          0 1 0 1 0 1
          0 0 0 0 0 0
          0 0 0 0 0 0
          0.25 0 0 0 0 0.5
          0 1.3333333333333333 0.5 2 1.3333333333333333 2
          1.5 2 2 2 2 0
          0 0 0 1.5 0 0
          0 0 0 0 0 0
          0 0 0 0 0 0
          0 0 0 0 0 0
          0 0 0 0 0 0
          0.75 0 0 0 0 0
          0 1 0 0 0.5 1.75
          2 2 2 2 2 2
          2 1 0 1.5 1 1
          0 1 1 2 2 2
          2 2 2 2 2 2
          1 2 1.5 1 2 2
          2 2 2 2 2 2
          2 2 1.5 2 2 2
          2 2 2 2 2 2
          2 2 2 2 2 2
          0 0.5 0 1 1 0
          1
        </DataArray>
        <DataArray type="Float64" Name="gradient_marker" format="ascii" RangeMin="0" RangeMax="1">
          1 0.75 0.625 1 0.875 1
          1 1 0.5 0.5 0.5 0.5
          0 0 0 0 1 1
          1 1 0 0 0.75 1
          0 0 0.75 0.125 1 0
          1 1 1 1 1 1
          1 1 1 1 1 0.25
          1 0.125 1 0.25 1 0.25
          1 1 1 1 1 1
          1 0 0 0.625 0.75 0
          0 0.5 0 0.75 0 1
          1 1 1 1 1 1
          1 1 0 0 0 0
          0 0.5 0.5 0 0 0.5
          1 1 1 1 1 1
          1 1 1 1 1 1
          1 1 1 1 1 1
          0 1 1 0.5 0.5 1
          1 0.5 0 0 0 0
          0.5 0.5 1 1 0.5 0.5
          1 0.5 1 0.5 0 1
          0.5 1 1 0.5 0 0
          0 0.5 1 0.5 1 0.5
          1 0.5 1 1 1 1
          1 1 1 1 1 1
          1 1 1 1 1 1
          1 1 1 1 1 1
          1 1 1 1 1 1
          1 1 1 1 1 1
          1 1 1 1 1 1
          1 1 1 1 1 1
          1 1 1 1 1 1
          1 1 1 1 1 1
          1 1 1 1 1 1
          1 1 1 1 1 1
          1 1 1 1 1 1
          1 1 1 1 0 1
          0.5 1 1 0.5 0 0
          0 0.5 1 0.5 1 0.5
          1 0.5 0 1 0.5 1
          1 0.5 0 0 0 0.5
          1 0.5 1 0.5 1 0.5
          1 1 1 1 1 1
          1 1 1 1 1 1
          1 1 1 1 1 1
          1 1 1 1 1 1
          1 1 1 1 1 1
          1 1 1 1 1 1
          1 1 1 1 1 1
          1 1 1 1 1 1
          1 1 1 1 1 1
          1 1 1 1 1 1
          1 1 1 1 1 1
          1 1 1 1 1 0
          0 0 0 0.5 0.5 1
          1 0.5 0.5 1 0.5 1
          0.5 0 0 0 0.5 1
          0.5 1 0.5 1 0.5 1
          1 1 1 1 1 1
          1 1 1 1 1 1
          1 1 1 1 1 1
          1 1 1 1 1 1
          1 1 1 1 1 1
          1 1 1 1 1 1
          1 1 1 1 1 1
          1 0.625 1 1 1 0.5
          1 1 1 0 0.5 0.5
          0.125 0 1 1 1 0.25
          1 0 0.125 0.125 0 0.375
          0.125 0.5 0.3333333333333333 0.5 0.75 1
          1 1 1 1 1 1
          1 1 1 1 1 1
          1 0 0.5 0.5 0 1
          1 0 0 0 0 0.5
          0.5 0.5 1 1 1 1
          1 1 1 1 1 1
          1 1 1 1 1 1
          1 1 1 1 1 1
          1 1 1 1 1 1
          1 1 1 1 1 1
          1 1 1 1 1 1
          1 1 1 1 1 1
          1 1 1 1 1 1
          1 1 1 1 1 1
          1 1 1 1 1 1
          1 1 1 1 1 1
          1 1 1 1 1 1
          1
        </DataArray>
        <DataArray type="Float64" Name="gradient_matprop_marker" format="ascii" RangeMin="0" RangeMax="0">
          0 0 0 0 0 0
          0 0 0 0 0 0
          0 0 0 0 0 0
          0 0 0 0 0 0
          0 0 0 0 0 0
          0 0 0 0 0 0
          0 0 0 0 0 0
          0 0 0 0 0 0
          0 0 0 0 0 0
          0 0 0 0 0 0
          0 0 0 0 0 0
          0 0 0 0 0 0
          0 0 0 0 0 0
          0 0 0 0 0 0
          0 0 0 0 0 0
          0 0 0 0 0 0
          0 0 0 0 0 0
          0 0 0 0 0 0
          0 0 0 0 0 0
          0 0 0 0 0 0
          0 0 0 0 0 0
          0 0 0 0 0 0
          0 0 0 0 0 0
          0 0 0 0 0 0
          0 0 0 0 0 0
          0 0 0 0 0 0