<?xml version="1.0"?>
<VTKFile type="UnstructuredGrid" version="0.1" byte_order="LittleEndian" header_type="UInt32" compressor="vtkZLibDataCompressor">
  <UnstructuredGrid>
    <Piece NumberOfPoints="553" NumberOfCells="307">
      <PointData>
        <DataArray type="Int32" Name="libmesh_node_id" format="ascii" RangeMin="360" RangeMax="5097">
          360 361 362 363 417 418
          419 420 456 457 458 459
          460 461 462 463 464 465
          466 467 468 469 470 471
          472 473 474 476 477 478
          482 483 485 486 488 531
          532 535 536 538 539 541
          542 544 545 546 547 548
          549 550 551 552 553 554
          555 556 557 558 559 560
          561 562 563 564 565 566
          567 568 569 570 571 572
          573 574 575 576 577 578
          579 580 581 582 583 584
          585 586 587 588 589 590
          591 592 593 594 595 599
          600 602 603 605 702 703
          710 711 734 735 736 737
          740 741 742 744 745 747
          822 823 824 825 826 827
          828 829 830 831 832 833
          834 835 836 837 838 839
          840 841 842 843 844 845
          846 847 848 849 850 851
          852 853 854 855 856 857
          858 859 860 861 862 863
          864 865 866 867 868 869
          870 871 872 873 874 875
          876 877 878 879 880 881
          882 883 884 885 886 887
          888 889 890 891 892 893
          894 895 896 897 898 899
          900 901 902 903 904 905
          906 907 908 909 910 911
          912 913 914 915 916 917
          918 919 920 921 922 923
          924 925 926 927 928 929
          930 931 932 933 934 935
          936 937 938 939 940 946
          947 952 953 954 955 956
          959 960 961 963 964 966
          1220 1221 1222 1223 1225 1226
          1263 1264 1268 1269 1281 1282
          1283 1284 1285 1286 1287 1288
          1289 1290 1291 1292 1293 1294
          1295 1296 1297 1298 1299 1300
          1301 1302 1303 1304 1305 1306
          1307 1308 1309 1310 1311 1312
          1313 1314 1315 1316 1317 1318
          1319 1320 1321 1322 1324 1325
          1326 1327 1328 1331 1332 1337
          1339 1340 1341 1342 1343 1344
          1385 1386 1387 1388 1389 1390
          1391 1392 1393 1394 1395 1396
          1397 1398 1399 1400 1401 1402
          1403 1404 1405 1406 1407 1408
          1409 1410 1411 1412 1413 1414
          1415 1416 1417 1418 1419 1420
          1421 1422 1423 1424 1425 1426
          1427 1428 1429 1430 1431 1432
          1433 1434 1435 1436 1437 1438
          1439 1440 1441 1442 1443 1444
          1445 1446 1447 1448 1449 1450
          1451 1452 1453 1454 1455 1456
          1457 1458 1459 1460 1461 1462
          1463 1464 1465 1466 1467 1468
          1469 1470 1471 1472 1473 1474
          1475 1476 1477 1478 1479 1480
          1481 1482 1483 1484 1485 1486
          1487 1488 1489 1490 1491 1492
          1493 1494 1495 1496 1500 1501
          1503 1504 1505 1506 1507 1508
          1579 1580 1581 1582 1583 1584
          1585 1586 1587 1588 1589 1590
          1591 1592 2300 2301 2302 2303
          2304 2305 2306 2307 2308 2309
          2310 2311 2312 2313 2314 2315
          2316 2317 2318 2319 2320 2321
          2322 2323 2324 2325 2326 2327
          2328 2329 2330 2331 2332 2333
          2334 2335 2336 2337 2338 2339
          2340 2341 2342 2343 2344 2345
          2346 2347 2348 2349 2350 2351
          2354 2355 5042 5047 5082 5083
          5087 5090 5092 5093 5094 5095
          5096 5097 479 365 481 484
          705 422 712 738 601 739
          743 487 746 941 942 597
          943 944 945 598 948 949
          950 951 604 957 958 962
          965 1334 1335 480 596 1338
          1497 1498 1499 1502 2352 2353
          2356
        </DataArray>
        <DataArray type="Float64" Name="bounds" format="ascii" RangeMin="0" RangeMax="0">
          0 0 0 0 0 0
          0 0 0 0 0 0
          0 0 0 0 0 0
          0 0 0 0 0 0
          0 0 0 0 0 0
          0 0 0 0 0 0
          0 0 0 0 0 0
          0 0 0 0 0 0
          0 0 0 0 0 0
          0 0 0 0 0 0
          0 0 0 0 0 0
          0 0 0 0 0 0
          0 0 0 0 0 0
          0 0 0 0 0 0
          0 0 0 0 0 0
          0 0 0 0 0 0
          0 0 0 0 0 0
          0 0 0 0 0 0
          0 0 0 0 0 0
          0 0 0 0 0 0
          0 0 0 0 0 0
          0 0 0 0 0 0
          0 0 0 0 0 0
          0 0 0 0 0 0
          0 0 0 0 0 0
          0 0 0 0 0 0
          0 0 0 0 0 0
          0 0 0 0 0 0
          0 0 0 0 0 0
          0 0 0 0 0 0
          0 0 0 0 0 0
          0 0 0 0 0 0
          0 0 0 0 0 0
          0 0 0 0 0 0
          0 0 0 0 0 0
          0 0 0 0 0 0
          0 0 0 0 0 0
          0 0 0 0 0 0
          0 0 0 0 0 0
          0 0 0 0 0 0
          0 0 0 0 0 0
          0 0 0 0 0 0
          0 0 0 0 0 0
          0 0 0 0 0 0
          0 0 0 0 0 0
          0 0 0 0 0 0
          0 0 0 0 0 0
          0 0 0 0 0 0
          0 0 0 0 0 0
          0 0 0 0 0 0
          0 0 0 0 0 0
          0 0 0 0 0 0
          0 0 0 0 0 0
          0 0 0 0 0 0
          0 0 0 0 0 0
          0 0 0 0 0 0
          0 0 0 0 0 0
          0 0 0 0 0 0
          0 0 0 0 0 0
          0 0 0 0 0 0
          0 0 0 0 0 0
          0 0 0 0 0 0
          0 0 0 0 0 0
          0 0 0 0 0 0
          0 0 0 0 0 0
          0 0 0 0 0 0
          0 0 0 0 0 0
          0 0 0 0 0 0
          0 0 0 0 0 0
          0 0 0 0 0 0
          0 0 0 0 0 0
          0 0 0 0 0 0
          0 0 0 0 0 0
          0 0 0 0 0 0
          0 0 0 0 0 0
          0 0 0 0 0 0
          0 0 0 0 0 0
          0 0 0 0 0 0
          0 0 0 0 0 0
          0 0 0 0 0 0
          0 0 0 0 0 0
          0 0 0 0 0 0
          0 0 0 0 0 0
          0 0 0 0 0 0
          0 0 0 0 0 0
          0 0 0 0 0 0
          0 0 0 0 0 0
          0 0 0 0 0 0
          0 0 0 0 0 0
          0 0 0 0 0 0
          0 0 0 0 0 0
          0 0 0 0 0 0
          0
        </DataArray>
        <DataArray type="Float64" Name="gradient_error" format="ascii" RangeMin="1.3762464612809415e-9" RangeMax="0.0000014193110889312705">
          2.886218304684056e-7 5.536091827041733e-8 1.5971451128084563e-8 1.435442513700442e-8 1.1555624565443046e-7 5.1970574210581145e-8
          1.8730906725764392e-7 1.2170521371018814e-8 3.443372719848079e-8 4.486379774863939e-8 1.9043041545922052e-7 6.527102313864723e-7
          1.7241635831596722e-7 3.54223857383533e-7 4.924164156611112e-7 1.7495584573319782e-8 1.3929289653845773e-7 3.042091269039982e-7
          4.003606444009664e-8 3.605832069297861e-8 6.214688388128018e-8 1.6302638283092636e-8 1.431240487542725e-7 4.3432184058179585e-7
          7.97936756992802e-7 4.0066950535661385e-7 3.0059139478395255e-8 6.847762580779041e-9 9.864359973544739e-8 1.5557690618526836e-7
          5.978641385059572e-9 5.919027414147019e-9 2.6966335514693924e-7 3.4179942287417784e-7 1.206635795691579e-8 3.1632492243730096e-7
          2.2465670720350016e-7 9.405261016676094e-7 5.240567338604319e-7 1.0263966206446281e-7 8.855518226919641e-8 0.0000012726552076274345
          0.0000010960569590852088 7.122884257615125e-8 1.7135730271559453e-7 3.5123869082185857e-7 6.435266594766989e-7 5.230744614577319e-7
          2.3651381369671785e-7 4.155721677246936e-7 7.365078576024016e-7 3.45106296526995e-7 2.580146786825421e-7 4.2524095713901673e-7
          4.6067421781125163e-7 5.349209457671933e-7 7.289533183971416e-7 5.188013922931842e-7 1.2797618421137277e-7 2.4043376625782915e-7
          5.690605736187969e-7 2.6423823344096984e-7 4.4231431802711177e-7 1.574416107869814e-7 3.296506379980979e-7 2.823758580545429e-7
          4.375545719368384e-7 3.0940010201672647e-7 3.107455348254272e-7 4.486600523453584e-7 4.19630781623102e-7 5.000818152642947e-7
          4.7452160290543034e-7 1.6239188769537363e-7 2.9267079574876374e-7 3.2669310509724347e-7 4.2028139592895414e-7 1.2031681887686667e-7
          2.867402342561936e-7 3.437140178723576e-7 4.581461417953629e-7 1.7084231948208915e-7 3.8138706529102077e-7 3.8500866847974513e-7
          3.610964759079881e-7 4.4130283748586655e-7 3.126648311253885e-7 2.210010667999876e-7 3.675973463662152e-7 4.1708047700975476e-7
          3.746397658878716e-7 7.497866688103923e-8 5.0221249846750786e-8 4.2350807365231025e-7 3.2218968308943807e-7 4.9905623990873316e-8
          1.8190017275602772e-7 3.4194663225448006e-7 4.774935819981534e-7 3.020910775386342e-7 2.2591529546566953e-9 5.101333173536955e-9
          3.7311213462400235e-9 8.045035819690505e-9 5.742814409081129e-8 7.170602158727588e-8 1.2060747344396836e-7 1.4670366152875675e-7
          5.3591273595272465e-9 1.368035930168025e-8 1.083306165982136e-8 1.8378680279712542e-7 2.2170130147023766e-7 2.2001591243833256e-8
          0.0000014193110889312705 0.0000012157468376671291 8.411173204657655e-7 0.0000013248274609577506 0.0000010913043494461272 0.0000011907498847031837
          0.0000012837731249824075 6.846691918162467e-7 9.085161221921653e-7 8.912233830605159e-7 7.453463636126758e-7 0.0000011666993830656753
          0.0000013806659418719086 0.000001132363052568084 2.2559373039001722e-7 2.2114265074081373e-7 2.17253775300656e-7 1.7139147048169135e-7
          1.7716794320692244e-7 2.043317855348336e-7 1.966531225664106e-7 2.3296491768789093e-7 1.8447135479887018e-7 2.131874530817348e-7
          2.162307880729605e-7 2.3089292355836805e-7 2.2196924476725145e-7 2.429064796214171e-7 1.2035184151999675e-7 1.6910912040639182e-7
          1.6453289637132683e-7 1.7588112656207364e-7 2.3156880788255432e-7 2.47049696833052e-7 2.4316873694495096e-7 1.9395883916026795e-7
          2.2426364509569875e-7 2.531807037981577e-7 2.0475149147720188e-7 2.3625658032097862e-7 2.394870074130307e-7 2.5438109553709595e-7
          2.6599537227073896e-7 1.3512354642089436e-7 1.850486406516455e-7 1.9559183788826359e-7 2.517378734215646e-7 2.697442067686668e-7
          2.639290512399922e-7 2.167155047046476e-7 2.4949013271971383e-7 2.7548514445182035e-7 2.3001649092195673e-7 2.641281883913827e-7
          2.57605002772685e-7 2.7855984692317586e-7 2.9217589563902744e-7 1.521707096922373e-7 2.0735683306405551e-7 2.2051254674534599e-7
          2.7783280288179867e-7 2.9601698158907476e-7 2.8790085594542997e-7 2.44857980598621e-7 2.803495136641559e-7 3.0124972024068326e-7
          2.6149801376898526e-7 2.9837874277500946e-7 2.7812145754304627e-7 3.06930427553903e-7 3.22938298559473e-7 1.7399895255648212e-7
          2.3528342851947987e-7 2.519480490789231e-7 3.089063046065698e-7 3.266298778087978e-7 3.155978887560411e-7 2.802568259212193e-7
          3.18479668349681e-7 3.310138489889356e-7 3.0153271234602986e-7 3.409695462744726e-7 3.0118960540073024e-7 3.4031342884395917e-7
          3.5918142387072614e-7 2.0276592626970995e-7 2.7087432174120036e-7 2.925558396980437e-7 3.461971971183097e-7 3.6199787971801757e-7
          3.4754612788313756e-7 3.2585637108590047e-7 3.6621617269550727e-7 3.6485554603459467e-7 3.542831399516087e-7 3.938640494260757e-7
          3.2728801091125286e-7 3.7965246009684606e-7 4.009030844904837e-7 2.4295076573533546e-7 3.1765411447165657e-7 3.474432898871057e-7
          3.91070037173945e-7 4.0182097766778964e-7 3.827626752514525e-7 3.8791849000670275e-7 4.245309917943004e-7 4.014641020147196e-7
          4.258704021891596e-7 4.599120503340137e-7 3.0974573436538605e-7 4.2292220620194127e-7 4.4738602982436765e-7 3.0290813251089656e-7
          3.831455463198176e-7 4.2382872869838914e-7 4.459213542186187e-7 4.467914184416741e-7 4.209098722419348e-7 3.3075167584052044e-7
          4.744805818112505e-7 5.12010921361099e-7 1.980169849269887e-7 2.0061249686377312e-7 3.172575564164954e-7 3.120077104811016e-7
          1.2955894421513209e-7 2.1841795883758993e-7 2.231970597923358e-7 3.6337805357871636e-7 3.5394323979042965e-7 2.5573524616673335e-7
          7.697200033495376e-8 3.2462788858880916e-8 2.2167411721647426e-8 4.850009015700424e-8 7.881034562213345e-9 6.804458917925705e-9
          8.676359614961462e-9 1.1030426591827028e-8 1.2135690706310123e-8 1.3161714677446703e-8 1.947515182712292e-8 1.5265070362926963e-8
          1.572797124562636e-8 1.0610374642147868e-7 9.369623801166274e-8 6.464513393330164e-8 7.790010400416739e-8 1.3380141012290114e-8
          7.775332280442032e-8 4.948404410238934e-8 1.1054988898731009e-8 3.5594029854940556e-8 4.9696461586856086e-8 2.1214765400358358e-8
          1.7382766951007464e-7 1.9160256096788233e-7 2.6946723032517547e-7 2.869543171988655e-7 1.541662012244867e-7 2.481052622955394e-7
          3.4652674197834744e-8 4.739620437110126e-8 6.422391358701846e-8 3.199130390249288e-8 3.6510679114027636e-7 3.823060734298486e-7
          3.4204432336659207e-7 6.01397345443678e-8 1.3314343473178255e-7 2.2351139539554805e-7 1.1148445520767937e-7 1.975575303851596e-7
          1.504159632228411e-8 1.8844144849314665e-8 9.805255188918132e-9 3.138793560593136e-7 2.836306055626398e-7 2.2646693376345218e-8
          1.76997341228008e-8 1.0822712886518997e-8 6.19203904840776e-8 3.6075137026226997e-8 4.408992021768069e-8 2.539905182544475e-8
          3.945691650237195e-9 1.0229883568376381e-8 6.708183433208807e-9 2.48278450313027e-8 1.576332331749567e-8 6.698801603688641e-9
          8.981959218464378e-8 1.7178006421730396e-7 3.992184161520474e-9 7.830399842993753e-9 2.537405362499641e-7 1.1668615524467031e-8
          2.135232149367508e-7 2.0731267363839947e-7 2.2869191515020965e-7 2.215653997994303e-7 2.1928968942728255e-7 2.3591803972835362e-7
          1.8716096174810943e-7 2.0319009025735695e-7 1.992213917206259e-7 2.076070040799847e-7 2.438606153636685e-7 2.3581812596046112e-7
          2.5254639002942476e-7 2.1921921876660446e-7 1.4815969880155026e-7 1.459546076022732e-7 1.4648191831346714e-7 1.9928130352204209e-7
          2.0319390631091296e-7 1.910946388534427e-7 1.879610015780445e-7 1.4500202672296235e-7 2.0703825966915313e-7 1.9411424279459178e-7
          1.4374951640299617e-7 1.7899537139597244e-7 1.7664069963404696e-7 1.811902259200304e-7 1.45080614589007e-7 1.43402939579209e-7
          2.1069878456319833e-7 1.9689452633061852e-7 1.4107493725731354e-7 2.141133984456202e-7 1.993824706337922e-7 1.4172526456941103e-7
          1.8309026809803866e-7 1.8465154282196414e-7 2.2512215216792276e-7 2.4337112222268526e-7 2.309856966945121e-7 2.510326380517149e-7
          1.936570874404258e-7 2.118873113337989e-7 2.1595337068618355e-7 2.6162009227744776e-7 2.7107957940891767e-7 2.30117535227172e-7
          2.3682578570271388e-7 2.588704593033859e-7 2.426022725762224e-7 2.668504184772503e-7 1.988566593798593e-7 2.1972111022865656e-7
          2.2308371161658824e-7 2.809151329040579e-7 2.910985643782783e-7 2.405855610774538e-7 1.389200949157008e-7 1.3793222316671142e-7
          2.1721606248028385e-7 2.0152149286031589e-7 1.3383502678580093e-7 2.1992813438051101e-7 2.0323973595638533e-7 1.369443514177221e-7
          1.858269232403479e-7 1.8655133753225956e-7 1.2911826202660465e-7 1.2865362594976417e-7 2.221760225130872e-7 2.0448382539834064e-7
          1.2100931824981467e-7 2.2350328373710377e-7 2.0521780067697922e-7 1.281889898729237e-7 1.8679162828359407e-7 1.6672753488961603e-7
          2.482645787484195e-7 2.7492234784181217e-7 2.537261978356499e-7 2.8300088765197817e-7 2.020921407012167e-7 2.259203487738489e-7
          2.2804530776541931e-7 3.015801169352049e-7 3.122755774683064e-7 2.4974855684648113e-7 2.5890418594667553e-7 2.909902145535068e-7
          2.1992684752140467e-7 2.9867769943756906e-7 2.0213309125610733e-7 2.292514832184354e-7 2.2899418879471324e-7 3.2307624316033797e-7
          3.3366085279876277e-7 2.563698751807635e-7 1.1673216452430769e-7 1.1043444580782134e-7 2.2372263617868904e-7 2.050216795209715e-7
          9.99079821080216e-8 2.231857492888176e-7 2.034204070839111e-7 9.078167884211064e-8 1.5517504469380933e-7 1.5114262831325424e-7
          1.0001337906952855e-7 9.078628908026082e-8 2.215826147549707e-7 2.0051351079065604e-7 6.715529599601655e-8 1.4585420270782774e-7
          2.0035326120206716e-7 3.0576159987163257e-7 1.4491942650847768e-7 2.2682228092128057e-7 3.4390461081011184e-7 2.5934947331172496e-7
          2.0780518466244552e-7 2.0575754309408171e-7 1.8913813481036555e-7 1.7553838849462716e-7 1.720461961838167e-7 1.867848331063544e-7
          1.811089629626487e-7 2.0370990152571793e-7 2.0152347002889214e-7 1.8667953743067024e-7 1.362872077051879e-7 1.6781212311862714e-7
          1.7307979111493183e-7 1.9933703853206638e-7 4.0523445531470225e-8 3.4441861070841816e-8 5.3279121854460975e-8 1.1976611350678918e-7
          1.1525465334204843e-7 8.879257412967247e-8 9.392654586656891e-8 2.8360276610213407e-8 6.23304949172965e-8 6.808697822634864e-8
          1.6502700917102902e-7 1.5862559679772147e-7 1.6554705969776173e-7 1.909240227766708e-7 1.9111521252860767e-7 1.806782238080368e-7
          1.798808440383706e-7 1.4933882890096493e-7 1.9239492314281524e-7 1.8238744233767542e-7 1.5222418442441386e-7 1.702412350874659e-7
          1.6883766530007042e-7 1.7237996153253563e-7 1.4950976129488483e-7 1.468317139162773e-7 1.9540751153067368e-7 1.8484526913321365e-7
          1.4415366653766977e-7 1.7428302673575364e-7 1.9770758700396162e-7 1.9144967279344727e-7 2.1372800579934424e-7 2.094634762362706e-7
          1.801059519722622e-7 1.9716579234469703e-7 1.9684876747304645e-7 2.2974842459472682e-7 2.2747727967909395e-7 2.1422563271713189e-7
          5.914664756062424e-8 6.954857402331176e-8 9.611729051580269e-8 1.0097001221738759e-7 4.5106776851207076e-8 8.812979470348989e-8
          4.086666452836221e-8 6.820521450724068e-8 7.562205499963621e-8 5.762939765947594e-8 3.964388497698598e-8 8.227039778834449e-8
          2.6536377052931977e-8 5.227679698737483e-8 1.1675257616119574e-8 1.2487693616647037e-8 2.2365744267463524e-7 3.180369672677811e-7
          9.634595742159451e-8 4.1241649186092695e-7 2.0809818755689299e-7 3.026988948501017e-7 5.9040577884280453e-8 8.07367152923974e-8
          3.9729960214331033e-7 1.0243285270051435e-7 2.804569587084953e-9 1.560230328067183e-9 2.8765816951067068e-8 3.322945776862523e-9
          1.3762464612809415e-9 1.2583589242683172e-8 2.2827051228919885e-9 4.1063789129352895e-8 1.452161249672745e-7 9.074674707601546e-8
          1.3584087870904823e-8 2.548335520828083e-7 1.40429705022678e-7 4.6556624186543355e-7 4.992151257462668e-7 4.7056563873108077e-7
          4.4042013392138394e-7 4.111858795490623e-7 4.929763246326632e-7 3.376796781627911e-7 5.028220655347929e-7 3.8070149728793174e-7
          4.6685123950971523e-7 4.160958502092299e-7 5.483926777567065e-7 1.9380378543365908e-7 3.213323588121993e-7 2.117940169572787e-7
          3.7185153561885074e-7 1.270375458603075e-8 9.780243037529635e-9 5.514384863940557e-8 3.8498845490747014e-8 6.8567314890285214e-9
          8.16635028493185e-8 2.187544701743284e-7 1.9643512702826854e-7 1.3965771457285758e-7 3.6488466097535975e-8 7.664142747965314e-8
          4.808320969579981e-8
        </DataArray>
        <DataArray type="Float64" Name="gradient_matprop_error" format="ascii" RangeMin="0" RangeMax="0">
          0 0 0 0 0 0
          0 0 0 0 0 0
          0 0 0 0 0 0
          0 0 0 0 0 0
          0 0 0 0 0 0
          0 0 0 0 0 0
          0 0 0 0 0 0
          0 0 0 0 0 0
          0 0 0 0 0 0
          0 0 0 0 0 0
          0 0 0 0 0 0
          0 0 0 0 0 0
          0 0 0 0 0 0
          0 0 0 0 0 0
          0 0 0 0 0 0
          0 0 0 0 0 0
          0 0 0 0 0 0
          0 0 0 0 0 0
          0 0 0 0 0 0
          0 0 0 0 0 0
          0 0 0 0 0 0
          0 0 0 0 0 0
          0 0 0 0 0 0
          0 0 0 0 0 0
          0 0 0 0 0 0
          0 0 0 0 0 0
          0 0 0 0 0 0
          0 0 0 0 0 0
          0 0 0 0 0 0
          0 0 0 0 0 0
          0 0 0 0 0 0
          0 0 0 0 0 0
          0 0 0 0 0 0
          0 0 0 0 0 0
          0 0 0 0 0 0
          0 0 0 0 0 0
          0 0 0 0 0 0
          0 0 0 0 0 0
          0 0 0 0 0 0
          0 0 0 0 0 0
          0 0 0 0 0 0
          0 0 0 0 0 0
          0 0 0 0 0 0
          0 0 0 0 0 0
          0 0 0 0 0 0
          0 0 0 0 0 0
          0 0 0 0 0 0
          0 0 0 0 0 0
          0 0 0 0 0 0
          0 0 0 0 0 0
          0 0 0 0 0 0
          0 0 0 0 0 0
          0 0 0 0 0 0
          0 0 0 0 0 0
          0 0 0 0 0 0
          0 0 0 0 0 0
          0 0 0 0 0 0
          0 0 0 0 0 0
          0 0 0 0 0 0
          0 0 0 0 0 0
          0 0 0 0 0 0
          0 0 0 0 0 0
          0 0 0 0 0 0
          0 0 0 0 0 0
          0 0 0 0 0 0
          0 0 0 0 0 0
          0 0 0 0 0 0
          0 0 0 0 0 0
          0 0 0 0 0 0
          0 0 0 0 0 0
          0 0 0 0 0 0
          0 0 0 0 0 0
          0 0 0 0 0 0
          0 0 0 0 0 0
          0 0 0 0 0 0
          0 0 0 0 0 0
          0 0 0 0 0 0
          0 0 0 0 0 0
          0 0 0 0 0 0
          0 0 0 0 0 0
          0 0 0 0 0 0
          0 0 0 0 0 0
          0 0 0 0 0 0
          0 0 0 0 0 0
          0 0 0 0 0 0
          0 0 0 0 0 0
          0 0 0 0 0 0
          0 0 0 0 0 0
          0 0 0 0 0 0
          0 0 0 0 0 0
          0 0 0 0 0 0
          0 0 0 0 0 0
          0
        </DataArray>
        <DataArray type="Float64" Name="initial_marker" format="ascii" RangeMin="0" RangeMax="2">
          0 0 0 0 1 0
          2 0 0 0 0 0
          0 0 0 0 0 0
          0 0 0 0 2 0
          0 0 0 0 0 0
          0 0 2 0 0 0
          0 0 0 0 0 0
          0 0 0 0 0 0
          0 0 0 0 0.5 0
          0 0 0 0 2 0
          0 1 0 0 0 1
          0 0 1 0.5 0 0
          0 2 1 1 0 0
          0 1 0.5 0 1 0.5
          0 0 0 2 1 1
          0 0 0 1 0.5 0
          0 2 1 0 0 0
          0 0 0 0 0 0
          0 0 0 0 0 0
          0 0 0 0 0 0
          0 0 0 0 0 0
          0 0 0 0 0 0.5
          1 0.5 0.25 0 1 0.5
          0 0 0 0 2 1
          0.5 1 0 0 0 1
          0.75 0.25 1.5 1.25 0 0.25
          0.5 2 1.5 2 0.5 1
          0.5 2 1.5 0.5 2 1.5
          0 0.5 0.5 2 2 2
          1 1 0.75 2 1.75 1
          2 2 0.3333333333333333 0.75 1 2
          2 2 1 1 1 2
          2 1 2 2 0.6666666666666666 1
          1 2 2 2 1 1
          1 2 2 1 2 2
          0.6666666666666666 1 1 2 2 2
          1 1 1 2 2 1
          2 2 0.5 1 1 2
          2 2 1 1 1 0.5
          1.25 1.5 0 0 0.25 0
          0 0 0 0.5 0 0
          0 0 0 0 0 0
          0 0 0 0 0 0
          0 0 0 0 0 0
          0 0 0 0 0 0
          0 0 0 0 0 0
          0 0 0 0 0 0
          0 0 0 0 0 0
          0 0 0 0 0 0
          0 0 0 0 0 0
          0 0 0 0 0 0
          0 0 0 0 0 0
          0 0 0 0 0 0
          0 0 0 0 0 0
          0 0 0 0 0 0
          0 0 0 0 0 0
          0 0 0 0 0 0
          0 0 0 0 0 0
          0 0 0 0 0 0
          0 0 0 0 0 0
          0 0 0 0 0 0
          0 0 0 0 0 0
          0 0 0 0 0 0
          0 0 0 0 0 0
          0 0 0 0 0 0
          0 0 0 0 0 0
          0 0 0 0 0 0
          0 0 0 0 0 0
          0 0 0 0 0 0
          0 0 0 0 0 0
          0 0 0 0 0 0
          0 0 0 0 0 0
          0 0 0 0 0 0
          0 0 0 0 0 0
          0 0 0 0 0 0
          0 0 0 0 0 0
          0 0 0 0 0 0
          0 0 0 0 0 0
          0 0 0 0 0 0
          0 0 0 0 0 0
          0 0 0 0 0 0
          0 0 0 0 0 0
          0 0 0 0 0 0
          0 0 0 0 0 0
          0 0 0 0 0 0
          0 0 0 0 0 0
          0 0 0 0 0 0
          0 0 0 2 2 1
          1 2 2 0.5 1.5 2
          2 2 2 0 0.5 0
          1 0 0 0 0 0
          0 0 0 0 0 0
          0
        </DataArray>
        <DataArray type="Float64" Name="markers_norefine" format="ascii" RangeMin="0" RangeMax="0">
          0 0 0 0 0 0
          0 0 0 0 0 0
          0 0 0 0 0 0
          0 0 0 0 0 0
          0 0 0 0 0 0
          0 0 0 0 0 0
          0 0 0 0 0 0
          0 0 0 0 0 0
          0 0 0 0 0 0
          0 0 0 0 0 0
          0 0 0 0 0 0
          0 0 0 0 0 0
          0 0 0 0 0 0
          0 0 0 0 0 0
          0 0 0 0 0 0
          0 0 0 0 0 0
          0 0 0 0 0 0
          0 0 0 0 0 0
          0 0 0 0 0 0
          0 0 0 0 0 0
          0 0 0 0 0 0
          0 0 0 0 0 0
          0 0 0 0 0 0
          0 0 0 0 0 0
          0 0 0 0 0 0
          0 0 0 0 0 0
          0 0 0 0 0 0
          0 0 0 0 0 0
          0 0 0 0 0 0
          0 0 0 0 0 0
          0 0 0 0 0 0
          0 0 0 0 0 0
          0 0 0 0 0 0
          0 0 0 0 0 0
          0 0 0 0 0 0
          0 0 0 0 0 0
          0 0 0 0 0 0
          0 0 0 0 0 0
          0 0 0 0 0 0
          0 0 0 0 0 0
          0 0 0 0 0 0
          0 0 0 0 0 0
          0 0 0 0 0 0
          0 0 0 0 0 0
          0 0 0 0 0 0
          0 0 0 0 0 0
          0 0 0 0 0 0
          0 0 0 0 0 0
          0 0 0 0 0 0
          0 0 0 0 0 0
          0 0 0 0 0 0
          0 0 0 0 0 0
          0 0 0 0 0 0
          0 0 0 0 0 0
          0 0 0 0 0 0
          0 0 0 0 0 0
          0 0 0 0 0 0
          0 0 0 0 0 0
          0 0 0 0 0 0
          0 0 0 0 0 0
          0 0 0 0 0 0
          0 0 0 0 0 0
          0 0 0 0 0 0
          0 0 0 0 0 0
          0 0 0 0 0 0
          0 0 0 0 0 0
          0 0 0 0 0 0
          0 0 0 0 0 0
          0 0 0 0 0 0
          0 0 0 0 0 0
          0 0 0 0 0 0
          0 0 0 0 0 0
          0 0 0 0 0 0
          0 0 0 0 0 0
          0 0 0 0 0 0
          0 0 0 0 0 0
          0 0 0 0 0 0
          0 0 0 0 0 0
          0 0 0 0 0 0
          0 0 0 0 0 0
          0 0 0 0 0 0
          0 0 0 0 0 0
          0 0 0 0 0 0
          0 0 0 0 0 0
          0 0 0 0 0 0
          0 0 0 0 0 0
          0 0 0 0 0 0
          0 0 0 0 0 0
          0 0 0 0 0 0
          0 0 0 0 0 0
          0 0 0 0 0 0
          0 0 0 0 0 0
          0
        </DataArray>
        <DataArray type="Float64" Name="markers_mustrefine" format="ascii" RangeMin="0" RangeMax="2">
          0 0 0 0 1 0
          2 0 0 0 0 0
          0 0 0 0 0 0
          0 0 0 0 2 0
          0 0 0 0 0 0
          0 0 2 0 0 0
          0 0 0 0 0 0
          0 0 0 0 0 0
          0 0 0 0 0.5 0
          0 0 0 0 2 0
          0 1 0 0 0 1
          0 0 1 0.5 0 0
          0 2 1 1 0 0
          0 1 0.5 0 1 0.5
          0 0 0 2 1 1
          0 0 0 1 0.5 0
          0 2 1 0 0 0
          0 0 0 0 0 0
          0 0 0 0 0 0
          0 0 0 0 0 0
          0 0 0 0 0 0
          0 0 0 0 0 0.5
          1 0.5 0.25 0 1 0.5
          0 0 0 0 2 1
          0.5 1 0 0 0 1
          0.75 0.25 1.5 1.25 0 0.25
          0.5 2 1.5 2 0.5 1
          0.5 2 1.5 0.5 2 1.5
          0 0.5 0.5 2 2 2
          1 1 0.75 2 1.75 1
          2 2 0.3333333333333333 0.75 1 2
          2 2 1 1 1 2
          2 1 2 2 0.6666666666666666 1
          1 2 2 2 1 1
          1 2 2 1 2 2
          0.6666666666666666 1 1 2 2 2
          1 1 1 2 2 1
          2 2 0.5 1 1 2
          2 2 1 1 1 0.5
          1.25 1.5 0 0 0.25 0
          0 0 0 0.5 0 0
          0 0 0 0 0 0
          0 0 0 0 0 0
          0 0 0 0 0 0
          0 0 0 0 0 0
          0 0 0 0 0 0
          0 0 0 0 0 0
          0 0 0 0 0 0
          0 0 0 0 0 0
          0 0 0 0 0 0
          0 0 0 0 0 0
          0 0 0 0 0 0
          0 0 0 0 0 0
          0 0 0 0 0 0
          0 0 0 0 0 0
          0 0 0 0 0 0
          0 0 0 0 0 0
          0 0 0 0 0 0
          0 0 0 0 0 0
          0 0 0 0 0 0
          0 0 0 0 0 0
          0 0 0 0 0 0
          0 0 0 0 0 0
          0 0 0 0 0 0
          0 0 0 0 0 0
          0 0 0 0 0 0
          0 0 0 0 0 0
          0 0 0 0 0 0
          0 0 0 0 0 0
          0 0 0 0 0 0
          0 0 0 0 0 0
          0 0 0 0 0 0
          0 0 0 0 0 0
          0 0 0 0 0 0
          0 0 0 0 0 0
          0 0 0 0 0 0
          0 0 0 0 0 0
          0 0 0 0 0 0
          0 0 0 0 0 0
          0 0 0 0 0 0
          0 0 0 0 0 0
          0 0 0 0 0 0
          0 0 0 0 0 0
          0 0 0 0 0 0
          0 0 0 0 0 0
          0 0 0 0 0 0
          0 0 0 0 0 0
          0 0 0 2 2 1
          1 2 2 0.5 1.5 2
          2 2 2 0 0.5 0
          1 0 0 0 0 0
          0 0 0 0 0 0
          0
        </DataArray>
        <DataArray type="Float64" Name="gradient_marker" format="ascii" RangeMin="0" RangeMax="1">
          1 1 1 1 1 1
          1 1 1 1 1 1
          1 1 1 1 1 1
          1 1 1 1 1 1
          1 1 1 1 1 0.875
          1 1 1 1 1 1
          1 1 1 1 1 1
          1 1 1 1 1 1
          1 1 1 1 1 1
          1 1 1 1 1 1
          1 1 1 1 1 1
          1 1 1 1 1 1
          1 1 1 1 1 1
          1 1 1 0.875 1 1
          1 1 0.875 1 1 1
          1 0.75 0.5 1 1 0.6666666666666666
          0.75 1 1 1 1 1
          1 1 1 1 1 1
          1 1 1 1 1 1
          1 1 1 1 1 1
          1 1 1 1 1 1
          1 1 1 1 1 1
          1 1 1 1 1 1
          1 1 1 1 1 1
          1 1 1 1 1 1
          1 1 1 1 1 1
          1 1 1 1 1 1
          1 1 1 1 1 1
          1 1 1 1 1 1
          1 1 1 1 1 1
          1 1 1 1 1 1
          1 1 1 1 1 1
          1 1 1 1 1 1
          1 1 1 1 1 1
          1 1 1 1 1 1
          1 1 1 1 1 1
          1 1 1 1 1 1
          1 1 1 1 1 1
          1 1 1 1 1 1
          1 1 0.75 0.75 1 1
          0.5 1 1 1 1 1
          1 1 1 1 1 1
          1 1 1 1 1 1
          1 1 1 1 1 1
          1 1 1 1 1 1
          1 1 1 1 1 1
          1 1 1 1 1 1
          1 1 1 1 1 1
          1 1 1 1 1 1
          1 1 1 1 1 1
          1 1 1 1 1 1
          1 1 1 1 1 1
          1 1 1 1 1 1
          1 1 1 1 1 1
          1 1 1 1 1 1
          1 1 1 1 1 1
          1 1 1 1 1 1
          1 1 1 1 1 1
          1 1 1 1 1 1
          1 1 1 1 1 1
          1 1 1 1 1 1
          1 1 1 1 1 1
          1 1 1 1 1 1
          1 1 1 1 1 1
          1 1 1 1 1 0.8333333333333334
          1 1 1 1 1 1
          1 1 1 1 1 1
          0.8333333333333334 1 1 1 1 1
          1 1 1 0.75 1 0.875
          0.25 0.75 0.625 0.25 0.625 0.5
          0 0 0.5 0.5 0 0.5
          0.75 1 0.5 1 1 1
          1 1 1 1 1 1
          1 1 1 1 1 1
          1 1 1 1 1 1
          1 1 1 1 1 1
          1 1 1 1 1 1
          1 1 1 1 1 1
          1 1 1 1 1 1
          1 1 1 1 1 1
          1 1 1 1 1 1
          0 0 0.25 0.25 0 0.25
          0 0 0 0 0 0.25
          0 0 1 1 1 1
          1 1 1 1 1 1
          1 1 1 1 0.75 1
          1 1 1 1 0.75 1