<?xml version="1.0"?>
<VTKFile type="UnstructuredGrid" version="0.1" byte_order="LittleEndian" header_type="UInt32" compressor="vtkZLibDataCompressor">
  <UnstructuredGrid>
    <Piece NumberOfPoints="529" NumberOfCells="297">
      <PointData>
        <DataArray type="Int32" Name="libmesh_node_id" format="ascii" RangeMin="400" RangeMax="2844">
          400 470 573 574 580 582
          585 923 924 925 926 927
          928 929 930 931 932 933
          934 935 936 947 948 949
          950 951 952 953 954 955
          956 957 958 959 960 964
          965 967 968 970 985 986
          989 990 992 994 1383 1384
          1385 1386 1387 1388 1389 1390
          1391 1392 1393 1394 1395 1396
          1397 1398 1399 1400 1401 1402
          1533 1534 1535 1569 1570 1571
          1572 1573 1574 1575 1576 1577
          1578 1579 1580 1581 1582 1583
          1584 1585 1586 1587 1588 1589
          1590 1591 1592 1593 1594 1595
          1596 1597 1598 1599 1600 1601
          1602 1603 1604 1605 1606 1607
          1608 1609 1610 1611 1612 1613
          1614 1615 1616 1617 1618 1619
          1620 1621 1622 1623 1624 1625
          1626 1627 1628 1629 1630 1631
          1632 1633 1634 1635 1636 1637
          1638 1639 1640 1641 1642 1643
          1644 1645 1646 1647 1648 1649
          1650 1651 1652 1653 1654 1655
          1656 1657 1658 1659 1660 1661
          1662 1663 1664 1665 1666 1667
          1668 1683 1684 1685 1686 1687
          1688 1689 1690 1691 1692 1703
          1704 1705 1706 1707 1708 1709
          1710 1711 1712 1723 1724 1725
          1726 1727 1728 1729 1819 1820
          1821 1822 1823 1824 1825 1826
          1827 1828 2437 2474 2475 2476
          2521 2522 2523 2524 2525 2526
          2527 2528 2529 2530 2531 2532
          2533 2534 2535 2536 2537 2538
          2539 2540 2541 2542 2543 2544
          2545 2546 2547 2548 2549 2550
          2551 2552 2553 2554 2555 2556
          2557 2558 2559 2560 2561 2562
          2563 2564 2565 2566 2567 2568
          2569 2570 2571 2572 2573 2574
          2575 2576 2577 2578 2579 2580
          2581 2582 2583 2584 2585 2586
          2587 2588 2589 2590 2591 2592
          2593 2594 2595 2596 2597 2598
          2599 2600 2601 2602 2603 2604
          2605 2606 2607 2608 2609 2610
          2611 2612 2613 2614 2615 2616
          2617 2618 2619 2620 2621 2622
          2623 2624 2625 2626 2627 2628
          2629 2630 2631 2632 2633 2634
          2635 2636 2637 2638 2639 2640
          2641 2642 2643 2644 2645 2646
          2647 2648 2649 2650 2651 2652
          2653 2654 2655 2656 2657 2658
          2659 2660 2661 2662 2663 2664
          2665 2666 2667 2668 2669 2670
          2671 2672 2673 2674 2675 2676
          2677 2678 2679 2680 2695 2696
          2697 2698 2699 2700 2701 2702
          2703 2704 2705 2706 2707 2708
          2709 2710 2711 2712 2713 2714
          2715 2716 2717 2718 2719 2720
          2721 2722 2723 2724 2725 2726
          2727 2728 2729 2730 2731 2732
          2733 2734 2735 2736 2737 2738
          2739 2740 2741 2742 2743 2744
          2745 2746 2747 2748 2749 2750
          2751 2752 2753 2754 2755 2756
          2757 2758 2759 2760 2761 2762
          2763 2764 2767 2769 2770 2772
          2783 2787 2797 2798 2801 2803
          2804 2806 2817 2821 2831 2832
          2833 2834 2835 2836 2837 2838
          2839 2840 2841 2842 2843 2844
          569 572 471 575 571 577
          576 583 589 590 717 715
          581 477 722 721 939 918
          940 943 579 945 1221 1224
          1225 1222 568 1231 1232 1377
          1378 1379 1382 570 913 1522
          1523 1524 1527 914 1530 915
          1537 1552 1554 1563 1565 921
          1567 1551 2479 2499 2500 2502
          578 2505 1557 2485 2515 2517
          2519
        </DataArray>
        <DataArray type="Float64" Name="bounds" format="ascii" RangeMin="0" RangeMax="0">
          0 0 0 0 0 0
          0 0 0 0 0 0
          0 0 0 0 0 0
          0 0 0 0 0 0
          0 0 0 0 0 0
          0 0 0 0 0 0
          0 0 0 0 0 0
          0 0 0 0 0 0
          0 0 0 0 0 0
          0 0 0 0 0 0
          0 0 0 0 0 0
          0 0 0 0 0 0
          0 0 0 0 0 0
          0 0 0 0 0 0
          0 0 0 0 0 0
          0 0 0 0 0 0
          0 0 0 0 0 0
          0 0 0 0 0 0
          0 0 0 0 0 0
          0 0 0 0 0 0
          0 0 0 0 0 0
          0 0 0 0 0 0
          0 0 0 0 0 0
          0 0 0 0 0 0
          0 0 0 0 0 0
          0 0 0 0 0 0
          0 0 0 0 0 0
          0 0 0 0 0 0
          0 0 0 0 0 0
          0 0 0 0 0 0
          0 0 0 0 0 0
          0 0 0 0 0 0
          0 0 0 0 0 0
          0 0 0 0 0 0
          0 0 0 0 0 0
          0 0 0 0 0 0
          0 0 0 0 0 0
          0 0 0 0 0 0
          0 0 0 0 0 0
          0 0 0 0 0 0
          0 0 0 0 0 0
          0 0 0 0 0 0
          0 0 0 0 0 0
          0 0 0 0 0 0
          0 0 0 0 0 0
          0 0 0 0 0 0
          0 0 0 0 0 0
          0 0 0 0 0 0
          0 0 0 0 0 0
          0 0 0 0 0 0
          0 0 0 0 0 0
          0 0 0 0 0 0
          0 0 0 0 0 0
          0 0 0 0 0 0
          0 0 0 0 0 0
          0 0 0 0 0 0
          0 0 0 0 0 0
          0 0 0 0 0 0
          0 0 0 0 0 0
          0 0 0 0 0 0
          0 0 0 0 0 0
          0 0 0 0 0 0
          0 0 0 0 0 0
          0 0 0 0 0 0
          0 0 0 0 0 0
          0 0 0 0 0 0
          0 0 0 0 0 0
          0 0 0 0 0 0
          0 0 0 0 0 0
          0 0 0 0 0 0
          0 0 0 0 0 0
          0 0 0 0 0 0
          0 0 0 0 0 0
          0 0 0 0 0 0
          0 0 0 0 0 0
          0 0 0 0 0 0
          0 0 0 0 0 0
          0 0 0 0 0 0
          0 0 0 0 0 0
          0 0 0 0 0 0
          0 0 0 0 0 0
          0 0 0 0 0 0
          0 0 0 0 0 0
          0 0 0 0 0 0
          0 0 0 0 0 0
          0 0 0 0 0 0
          0 0 0 0 0 0
          0 0 0 0 0 0
          0
        </DataArray>
        <DataArray type="Float64" Name="gradient_error" format="ascii" RangeMin="9.373170023037781e-10" RangeMax="3.6469945594607144e-7">
          1.766588119366494e-9 2.0668895070483052e-8 1.775301223620955e-7 1.976600268128521e-7 2.2515026895513573e-7 1.348770373825227e-8
          1.3934709185120527e-7 1.8522474188865303e-7 1.5511196983135867e-7 6.18440628109457e-8 1.0555351448453579e-7 1.4674811595864235e-7
          6.950598864296967e-8 9.290112895277947e-8 1.9270265518642856e-7 2.6836620788049484e-7 2.0801202201175517e-7 9.373170023037781e-10
          5.8693516674638304e-8 6.446120444568171e-8 3.341311161453615e-7 2.1841754633947666e-7 2.9060728876334306e-7 2.0029472960126904e-7
          2.14465808972111e-7 1.0364719094426687e-7 1.365435484877141e-7 1.1502082443712684e-7 3.6279703118720944e-7 2.3146773387016066e-7
          1.6943990603116127e-7 1.6498297191350917e-7 1.3408389922977632e-7 7.874055558705578e-8 1.0410848141737969e-7 1.6241509946114425e-7
          1.4468473068404719e-7 2.744273439171461e-9 1.226323675597043e-8 1.1696264212449267e-7 1.7621799018349967e-7 1.3173231903436505e-7
          6.374904384550188e-8 9.227274070934026e-8 9.033715528008737e-8 1.207964375731786e-7 1.7018799404544928e-8 2.7368915225710624e-8
          1.4792420991211339e-7 1.291639990758424e-7 1.942196246704194e-8 1.3289786302707293e-7 1.1526355515011305e-7 3.771903104687633e-8
          1.1040378823957144e-7 9.762924727315321e-8 5.922949841984598e-9 1.4341194623198275e-8 1.1590905837689266e-7 9.905871704715151e-8
          1.1698933022672152e-8 9.646228162903195e-8 8.07464250905502e-8 2.275943940441195e-8 8.220837571741033e-8 6.503056855206844e-8
          6.913564553222627e-8 7.68779511677662e-8 7.055497549404224e-8 8.835918490966308e-8 8.556510784945578e-8 9.647209467653447e-8
          9.456922288565048e-8 8.809995917060256e-8 1.0129128061093722e-7 9.915039670736568e-8 7.853295375479578e-8 8.858924427190316e-8
          9.207587086779324e-8 5.8262052354241976e-8 7.908900608892279e-8 8.349631068288979e-8 1.0010824827108778e-7 9.491014737437056e-8
          9.093975971915698e-8 1.0634123370414395e-7 1.0379715626367954e-7 9.381353752500043e-8 1.1160319232307584e-7 1.0864135919124091e-7
          8.08274760653002e-8 9.556705737694382e-8 9.919930029427374e-8 6.557304235953288e-8 7.631635137242556e-8 6.907784377425072e-8
          9.916773812454707e-8 6.850579250437911e-8 7.765866430574941e-8 6.789058844111898e-8 7.926355302513621e-8 6.271670828841513e-8
          7.080519116245898e-8 7.13848771184801e-8 9.433059418290038e-8 9.893179340109544e-8 8.846107309264558e-8 6.78927104427303e-8
          8.08968273720991e-8 6.770643885433428e-8 8.253300783292943e-8 6.109984081880363e-8 7.191261881352567e-8 7.234694113671734e-8
          1.0348731945562728e-7 1.0824442127560066e-7 9.572150189095002e-8 6.585887696414707e-9 3.0690752370758206e-8 5.849681117885779e-9
          3.128891184677317e-8 7.888723423394382e-8 8.257470940077016e-8 9.839148078806531e-10 4.4764065970637905e-9 3.807278483998716e-9
          5.6086550087053044e-8 5.298770727046272e-9 2.0103445772531282e-8 5.180028823156712e-9 8.084037814442951e-9 7.49383430688833e-8
          6.745129214665269e-8 1.2093448573354637e-9 3.3720619704660955e-9 3.5302936636992683e-9 6.13754703127374e-8 1.0289736107801519e-7
          1.083446015192599e-7 1.0213256310463e-7 1.0764630677343662e-7 1.0394506989734935e-7 1.0946213384548236e-7 1.0623665406047167e-7
          1.143127081668631e-7 1.2043422347552098e-7 1.1375897914273401e-7 1.0585983768360247e-7 1.1555172172393952e-7 1.2173918121136524e-7
          1.1880035131181565e-7 6.498201602617856e-8 7.204110463758479e-8 6.477647476333538e-8 7.910019324899102e-8 1.0128584240011751e-7
          9.646634401322702e-8 1.172106156150085e-7 1.1380180623181962e-7 9.87295425865248e-8 1.2323210878260518e-7 1.192695616795787e-7
          8.36289376193445e-8 1.0294569077881511e-7 1.0671488991256347e-7 7.385495600371073e-8 7.336850515801625e-8 7.818994180242709e-8
          9.82613753006918e-8 6.715756525302343e-8 8.416139467731651e-8 6.614792977529521e-8 8.552445536099107e-8 5.8704100893694404e-8
          7.282440464563353e-8 7.292614547340743e-8 1.1329012556335884e-7 1.1882125508848736e-7 9.30557742077601e-8 5.439629776008766e-9
          8.067985548359187e-9 6.047790363544968e-9 8.417757887412472e-9 5.7252251377144774e-8 4.653044836843694e-8 2.231677194013666e-9
          4.156743357220404e-9 5.018541892678099e-9 3.929800547878997e-8 1.1244686538740848e-7 1.0500076332848307e-7 1.0344094659855511e-7
          1.087565073370971e-7 9.952999984338389e-8 7.726745608616587e-8 1.1077058608425639e-7 6.534190237126054e-8 7.2154639260742e-8
          6.514931486031327e-8 7.19304926367099e-8 5.6953470825859894e-8 6.132076927978425e-8 5.67873655921392e-8 7.896737615022345e-8
          7.871167041310651e-8 6.568806773370862e-8 1.0971511603019443e-8 1.070689016014236e-8 1.070669326831357e-8 1.0706496376484782e-8
          1.1413898428455658e-8 1.1308280587730372e-8 1.1838678819661317e-8 1.1202662747005082e-8 1.2347416971538237e-8 1.2211438561926038e-8
          1.2569157423576612e-8 1.2075460152313838e-8 1.3066142128936483e-8 1.2922769797100453e-8 1.3301450482648862e-8 1.277939746526442e-8
          1.3677091269819101e-8 1.3721964746285572e-8 1.4123323321047036e-8 1.407264714791129e-8 1.3827697850556408e-8 1.4320183822128795e-8
          1.5093040867604857e-8 1.4261911571187052e-8 1.0692521111734913e-8 1.0808015527741828e-8 1.0700510730154325e-8 1.0969691865708726e-8
          1.092350994374874e-8 1.1238873001263126e-8 7.107411620215663e-9 7.686267804812655e-9 7.343620041465315e-9 8.566213474908534e-9
          1.0723941169448089e-8 1.1066361156560331e-8 1.070838812967845e-8 1.112892379694181e-8 1.1408781143672572e-8 1.1549459464205167e-8
          6.207902601838916e-9 7.045855541285667e-9 6.737280454797307e-9 8.236652412627848e-9 9.884163449728613e-9 9.921370633731407e-9
          1.059993445355092e-8 9.91777896342407e-9 9.888779284505224e-9 1.0893217650429437e-8 2.644344767218769e-9 3.518451136267856e-9
          2.3468845027397693e-9 3.1831059865688378e-9 6.179431862172516e-9 5.876310727780584e-9 1.0450100890203804e-9 1.972117130663684e-9
          1.77967680196318e-9 4.83172208222843e-9 2.127864098533293e-9 2.900096433993937e-9 1.972665368179771e-9 2.66197021046616e-9
          5.557597553600166e-9 5.2283713406006175e-9 9.403883607466968e-10 1.6297655366111633e-9 1.5380696816447126e-9 4.131267555774214e-9
          9.248631944736866e-9 9.184932526355942e-9 1.0530957670445646e-8 1.063657106754862e-8 8.613100439745122e-9 8.448494418980476e-9
          1.0461980887340371e-8 9.084120686362218e-9 8.956033695449901e-9 1.0725375034978688e-8 1.0806599762451116e-8 8.250462409300367e-9
          8.023288106394579e-9 1.0557532419527935e-8 1.0661606076902045e-8 1.1173486949817308e-8 1.0610573769368123e-8 1.1177103493264753e-8
          1.168536782273257e-8 1.230433411865666e-8 5.534070305792661e-9 6.443666522689266e-9 6.17473898724026e-9 7.730471580312501e-9
          1.0590937200830518e-8 1.114777353944698e-8 1.0617612888752256e-8 1.116645709007372e-8 1.2574535763195736e-8 1.26510682393812e-8
          5.1779962317874e-9 5.964588652731325e-9 5.883227186168577e-9 8.387059920134402e-9 1.35756092440418e-8 1.3725482566436393e-8
          9.845810606961608e-9 1.0935169290373624e-8 1.1206731952157453e-8 1.3801425239838546e-8 1.42202081341357e-8 1.4158388831349065e-8
          1.4853581080904182e-8 1.1422682286339968e-8 1.1376338345727741e-8 1.2822425806086382e-8 1.9104710484307526e-9 2.5001311112453278e-9
          1.9797517289200785e-9 2.483627319205906e-9 4.917951065814226e-9 4.668461482675184e-9 1.0098715101437889e-9 1.5371332796462856e-9
          1.6705331678119365e-9 3.535863851260059e-9 2.174531048947385e-9 2.642123300877003e-9 2.436560801064516e-9 2.8986257280882096e-9
          4.533250422090191e-9 4.5413697524214095e-9 1.4978527661619009e-9 1.9286516288997443e-9 2.2403879429396703e-9 3.3688053823917656e-9
          8.811624023313304e-9 8.635559546412223e-9 1.087713708905806e-8 1.0921699036965808e-8 7.777437439665e-9 7.530125476027603e-9
          1.0547542225958664e-8 8.437640542642079e-9 8.281941272907531e-9 1.0918495793910397e-8 1.0841833696084144e-8 7.312583170152525e-9
          7.158581255026124e-9 1.0247006067159108e-8 1.4280010037835227e-8 1.4472242297943042e-8 1.4806982173587098e-8 1.515178300070766e-8
          1.4851839750938348e-8 1.5144568042956987e-8 1.5461364430018542e-8 1.607511222928198e-8 1.5637240087209917e-8 1.617144107330718e-8
          1.5635388731055375e-8 1.672906220606523e-8 1.73394732200844e-8 1.674519628854213e-8 1.069709002943951e-8 1.1254961973985357e-8
          1.0815775283915084e-8 1.1381755099335208e-8 1.2822590454473225e-8 1.3021296285282284e-8 5.276678886047229e-9 5.9373547351688e-9
          6.080091417276691e-9 8.023959583671293e-9 1.09657817901161e-8 1.1544827864179046e-8 1.1180676747144944e-8 1.1760745152569235e-8
          1.3259834538447028e-8 1.3537200331210939e-8 5.685171272712196e-9 6.298850076327509e-9 6.615288531167869e-9 8.198062267570899e-9
          1.4598815979189355e-8 1.498630037388685e-8 1.5365284967963454e-8 1.5877743091964464e-8 1.1435116523861046e-8 1.1519247847827489e-8
          1.342034446466988e-8 1.5410583488560412e-8 1.5863923088195616e-8 1.642537183846876e-8 1.6994259071962887e-8 1.1656665321849093e-8
          1.1868184976393908e-8 1.4680440962618669e-8 2.718788017997109e-9 3.192580810163689e-9 3.0269546778614866e-9 3.52589366676911e-9
          4.68190249269435e-9 4.9249318744972525e-9 1.9983882849435568e-9 2.5481338000174448e-9 2.848132524068158e-9 3.809283726284905e-9
          3.384907709830813e-9 3.9064044727140515e-9 3.783085598045138e-9 4.332105390020825e-9 5.2550245144609296e-9 5.674979918651381e-9
          2.4791967035310852e-9 3.160196478174192e-9 3.493759592825841e-9 4.558481341392136e-9 8.200548698585253e-9 8.159320509640724e-9
          1.0703666014112079e-8 1.2312922388853881e-8 7.0912562206172065e-9 7.081304998092992e-9 9.661824303755935e-9 8.169989975059436e-9
          8.320845867365853e-9 1.3145934527812826e-8 1.3262265767222514e-8 7.118754077476279e-9 7.293694738250723e-9 1.2323981305895342e-8
          1.1489331957617106e-8 1.2053048513654091e-8 1.3861396559538098e-8 6.533082258928554e-9 7.048324202158336e-9 8.740367188524195e-9
          1.6336920444984898e-8 1.2122081016915078e-8 4.197350029366608e-9 4.794883412360211e-9 6.188395626967818e-9 3.0318361419381317e-9
          3.853013444312871e-9 5.541131916297413e-9 8.621156770597285e-9 7.65564187533909e-9 1.633216739056537e-8 1.678032444569073e-8
          1.7555302639656046e-8 1.7178795980523873e-8 1.631207516887296e-8 1.6672603023111634e-8 1.6291982947180553e-8 1.663190699358222e-8
          1.7249655779047692e-8 1.7229777088333097e-8 1.8147637103075815e-8 1.6483489541473706e-8 1.6944008918439335e-8 1.7280758196142314e-8
          7.246646136493239e-8 8.582516705256522e-8 7.168879401576955e-8 7.210916111145182e-8 2.6561420036107384e-7 9.775784550622252e-8
          1.082317924138702e-7 4.802200404863359e-8 5.2200526780764775e-8 4.95663779389704e-8 1.6273256400796722e-8 3.657757146485302e-8
          1.5367594205076616e-7 1.0042055577042486e-7 3.060144808621598e-8 6.414048794463224e-8 1.757031930689121e-7 3.276965399158771e-7
          2.977231105146784e-7 1.5597435055645458e-7 3.194364179374983e-7 3.6469945594607144e-7 2.0703883256662203e-8 1.94190546724247e-8
          1.9184876439911818e-8 2.0592358022802886e-8 3.150493318654467e-8 1.2039119835875655e-8 1.166676547564783e-8 3.578610462961732e-8
          1.596258878283016e-7 1.3966622846507038e-7 1.0043890282939264e-7 1.883431059319966e-7 2.2644808653759906e-7 8.342691054162314e-8
          9.206679244698037e-8 9.020786318853678e-8 8.663293156722549e-8 7.292882685828587e-8 8.374092406093102e-8 1.5867257149343395e-7
          9.260350037085074e-8 3.909736223950886e-8 7.531283083086666e-8 9.770231079532779e-8 9.701664462982517e-8 5.358355613016055e-8
          9.880949943603253e-8 2.5793815789313895e-8 7.203295802714857e-9 3.0027145876873807e-9 3.894824234551794e-9 6.484236631744017e-9
          1.1345590396998866e-9 2.20564223183515e-9 5.19899139779852e-9 9.856254553664784e-9 9.306162695166143e-9 1.0430786008260458e-8
          8.756070836667499e-9
        </DataArray>
        <DataArray type="Float64" Name="gradient_matprop_error" format="ascii" RangeMin="0" RangeMax="0">
          0 0 0 0 0 0
          0 0 0 0 0 0
          0 0 0 0 0 0
          0 0 0 0 0 0
          0 0 0 0 0 0
          0 0 0 0 0 0
          0 0 0 0 0 0
          0 0 0 0 0 0
          0 0 0 0 0 0
          0 0 0 0 0 0
          0 0 0 0 0 0
          0 0 0 0 0 0
          0 0 0 0 0 0
          0 0 0 0 0 0
          0 0 0 0 0 0
          0 0 0 0 0 0
          0 0 0 0 0 0
          0 0 0 0 0 0
          0 0 0 0 0 0
          0 0 0 0 0 0
          0 0 0 0 0 0
          0 0 0 0 0 0
          0 0 0 0 0 0
          0 0 0 0 0 0
          0 0 0 0 0 0
          0 0 0 0 0 0
          0 0 0 0 0 0
          0 0 0 0 0 0
          0 0 0 0 0 0
          0 0 0 0 0 0
          0 0 0 0 0 0
          0 0 0 0 0 0
          0 0 0 0 0 0
          0 0 0 0 0 0
          0 0 0 0 0 0
          0 0 0 0 0 0
          0 0 0 0 0 0
          0 0 0 0 0 0
          0 0 0 0 0 0
          0 0 0 0 0 0
          0 0 0 0 0 0
          0 0 0 0 0 0
          0 0 0 0 0 0
          0 0 0 0 0 0
          0 0 0 0 0 0
          0 0 0 0 0 0
          0 0 0 0 0 0
          0 0 0 0 0 0
          0 0 0 0 0 0
          0 0 0 0 0 0
          0 0 0 0 0 0
          0 0 0 0 0 0
          0 0 0 0 0 0
          0 0 0 0 0 0
          0 0 0 0 0 0
          0 0 0 0 0 0
          0 0 0 0 0 0
          0 0 0 0 0 0
          0 0 0 0 0 0
          0 0 0 0 0 0
          0 0 0 0 0 0
          0 0 0 0 0 0
          0 0 0 0 0 0
          0 0 0 0 0 0
          0 0 0 0 0 0
          0 0 0 0 0 0
          0 0 0 0 0 0
          0 0 0 0 0 0
          0 0 0 0 0 0
          0 0 0 0 0 0
          0 0 0 0 0 0
          0 0 0 0 0 0
          0 0 0 0 0 0
          0 0 0 0 0 0
          0 0 0 0 0 0
          0 0 0 0 0 0
          0 0 0 0 0 0
          0 0 0 0 0 0
          0 0 0 0 0 0
          0 0 0 0 0 0
          0 0 0 0 0 0
          0 0 0 0 0 0
          0 0 0 0 0 0
          0 0 0 0 0 0
          0 0 0 0 0 0
          0 0 0 0 0 0
          0 0 0 0 0 0
          0 0 0 0 0 0
          0
        </DataArray>
        <DataArray type="Float64" Name="initial_marker" format="ascii" RangeMin="0" RangeMax="2">
          2 0 1 0 2 0
          0 1 1 2 2 1
          2 2 0 1.5 1.5 2
          2 2 2 0 0.5 0
          0.25 0 0 0 1 0.5
          0 1 1 2 2 0
          1.5 2 2 2 0 0
          0 0 0 0 0 0
          0 0 0 0 0 0
          0 0 0 0 0 0
          0 0 0 0 0 0
          1 1.5 1 2 2 2
          2 2 2 2 2 2
          2 2 2 2 2 2
          2 2 2 2 2 2
          2 2 2 2 2 2
          2 1 1.5 1 1.5 0
          1 1 2 2 2 1
          1.5 1 1.5 0 1 1
          2 2 2 2 2 2
          2 2 2 2 2 2
          2 2 2 2 2 2
          2 2 2 2 2 2
          2 2 2 2 2 2
          2 2 2 2 2 2
          2 1 1 0 1 2
          2 2 2 2 2 2
          2 2 2 2 2 2
          2 1 1.5 1 1.5 0
          1 1 2 2 2 2
          2 2 2 2 2 2
          2 2 2 2 2 2
          2 2 2 2 1 1
          1 1 0 0 0 1
          1 0 2 2 2 2
          2 2 2 2 2 2
          2 2 2 2 2 2
          2 2 2 2 2 2
          2 2 2 2 2 2
          2 2 2 2 2 2
          2 2 2 2 2 2
          2 2 2 2 2 2
          2 2 2 2 2 2
          2 2 2 2 2 2
          2 2 2 2 2 2
          2 2 2 2 2 2
          2 2 2 2 2 2
          2 2 2 2 2 2
          2 2 2 2 2 2
          2 2 2 2 2 2
          2 2 2 2 2 2
          2 2 2 2 2 2
          2 2 2 2 2 2
          2 2 2 2 2 2
          2 2 2 2 2 2
          2 2 2 2 2 2
          2 2 2 2 2 2
          2 2 2 2 2 2
          2 2 2 2 2 2
          2 2 2 2 2 2
          2 2 2 2 2 2
          2 2 2 2 2 2
          2 2 2 2 2 2
          2 2 2 2 2 2
          2 2 2 2 2 2
          2 2 2 2 2 2
          2 2 2 2 2 2
          2 2 2 2 2 2
          2 2 2 2 2 2
          2 2 2 2 2 2
          2 2 2 2 2 2
          2 2 2 2 2 2
          2 2 2 2 2 2
          2 2 2 2 2 2
          2 2 2 2 2 2
          2 2 2 2 2 2
          2 2 2 2 2 2
          2 2 2 2 2 2
          0 0 0 0 0.25 0
          0 0 0 0 0 0
          0 0 0 0 0 1.5
          0.5 0 2 1 0 0
          0 0 0 0 0 0
          0 0 0 1 1 2
          2 2 2 2 2 2
          2 2 2 2 2 2
          2 2 2 2 2 2
          2 2 2 2 2 2
          2
        </DataArray>
        <DataArray type="Float64" Name="markers_norefine" format="ascii" RangeMin="0" RangeMax="2">
          2 0 0 0 0 0
          0 0 0 0 0 0
          0 0 0 0 0 2
          1 1 0 0 0 0
          0 0 0 0 0 0
          0 0 0 1 0 0
          0 2 2 0 0 0
          0 0 0 0 0 0
          0 0 0 0 0 0
          0 0 0 0 0 0
          0 0 0 0 0 0
          0 0 0 0 0 0
          0 0 0 0 0 0
          0 0 0 0 0 0
          0 0 0 0 0 0
          0 0 0 0 0 0
          0 0 0 0 0 0
          0 0 0 0 0 0
          0 0 0 0 0 0
          0 0 0 2 1 2
          1.5 0 0 2 2 2
          0 2 1.75 2 2 0.25
          0.5 2 2 2 1 0
          0 0 0 0 0 0
          0 0 0 0 0 0
          0 0 0 0 0 0
          0 0 0 0 0 0
          0 0 0 0.5 0 0.25
          0 0 0 0 0 0
          0 0 0 0 0 2
          2 2 2 0.5 0.75 2
          2 2 1 0 0 0
          0 0 0 0 0 0
          0 0 0 0 0 0
          0 0 0 0 0 0
          0 0 0 0 0 0
          0 0 0 0 0 0
          0 0 0 0 0 0
          0 0 0.5 0.25 1 0.5
          0 0 1.5 1.25 1.5 1.3333333333333333
          1 0.75 1 1 0.5 1
          2 1.75 2 1.6666666666666667 1 1
          0 1 1 0 2 2
          2 2 2 2 2 2
          2 2 2 2 2 2
          2 2 2 2 2 2
          1 1 0 0 1 1
          0 1.25 1.5 0.5 1 1.5
          2 1 1 1 1 1
          1 1 2 2 2 2
          1 1 1 1 1 1
          2 2 2 2 0.5 0
          1 1.3333333333333333 0 0.5 0.5 0
          0 1.5 1.5 1 2 2
          2 2 2 2 2 2
          2 2 2 2 2 2
          2 2 2 2 2 2
          1.5 1.75 1 1.5 2 2
          2 2 2 2 2 2
          2 2 0 0 0.5 0
          2 1 1.5 0 0 0
          0 0 0 0 1 1
          1.5 1.25 1 1 2 2
          2 2 2 1.5 2 1.75
          1 1.25 2 2 2 2
          0.5 0.5 0 0 1.5 1.5
          1 0.5 0.75 0 0.5 1.5
          1.75 0.6666666666666666 2 2 2 2
          2 2 2 2 2 2
          2 2 2 2 2 2
          2 2 2 2 2 2
          2 1.3333333333333333 2 2 2 2
          2 1.25 1.5 2 2 1.5
          2 2 1.5 2 2 2
          1 2 2 2 2 2
          2 2 2 2 0 0
          0 0 0 0 0 0.25
          0.5 0 0 0.5 1 0
          0 0 0 0 0 0
          0 0 0 0 0 0
          0 0 0 0 0 0
          0 0 0 0 0 0
          0 0 0 0 0 0
          0 0 0 0 0 0
          0 0 0 0 0 0
          0 0.75 0 0 0 0
          0 1 1.3333333333333333 2 2 1.75
          2 2 2 0.5 0.75 0
          1
        </DataArray>
        <DataArray type="Float64" Name="markers_mustrefine" format="ascii" RangeMin="0" RangeMax="2">
          2 0 1 0 2 0
          0 1 1 2 2 1
          2 2 0 1.5 1.5 2
          2 2 2 0 0.5 0
          0.25 0 0 0 1 0.5
          0 1 1 2 2 0
          1.5 2 2 2 0 0
          0 0 0 0 0 0
          0 0 0 0 0 0
          0 0 0 0 0 0
          0 0 0 0 0 0
          1 1.5 1 2 2 2
          2 2 2 2 2 2
          2 2 2 2 2 2
          2 2 2 2 2 2
          2 2 2 2 2 2
          2 1 1.5 1 1.5 0
          1 1 2 2 2 1
          1.5 1 1.5 0 1 1
          2 2 2 2 2 2
          2 2 2 2 2 2
          2 2 2 2 2 2
          2 2 2 2 2 2
          2 2 2 2 2 2
          2 2 2 2 2 2
          2 1 1 0 1 2
          2 2 2 2 2 2
          2 2 2 2 2 2
          2 1 1.5 1 1.5 0
          1 1 2 2 2 2
          2 2 2 2 2 2
          2 2 2 2 2 2
          2 2 2 2 1 1
          1 1 0 0 0 1
          1 0 2 2 2 2
          2 2 2 2 2 2
          2 2 2 2 2 2
          2 2 2 2 2 2
          2 2 2 2 2 2
          2 2 2 2 2 2
          2 2 2 2 2 2
          2 2 2 2 2 2
          2 2 2 2 2 2
          2 2 2 2 2 2
          2 2 2 2 2 2
          2 2 2 2 2 2
          2 2 2 2 2 2
          2 2 2 2 2 2
          2 2 2 2 2 2
          2 2 2 2 2 2
          2 2 2 2 2 2
          2 2 2 2 2 2
          2 2 2 2 2 2
          2 2 2 2 2 2
          2 2 2 2 2 2
          2 2 2 2 2 2
          2 2 2 2 2 2
          2 2 2 2 2 2
          2 2 2 2 2 2
          2 2 2 2 2 2
          2 2 2 2 2 2
          2 2 2 2 2 2
          2 2 2 2 2 2
          2 2 2 2 2 2
          2 2 2 2 2 2
          2 2 2 2 2 2
          2 2 2 2 2 2
          2 2 2 2 2 2
          2 2 2 2 2 2
          2 2 2 2 2 2
          2 2 2 2 2 2
          2 2 2 2 2 2
          2 2 2 2 2 2
          2 2 2 2 2 2
          2 2 2 2 2 2
          2 2 2 2 2 2
          2 2 2 2 2 2
          2 2 2 2 2 2
          0 0 0 0 0.25 0
          0 0 0 0 0 0
          0 0 0 0 0 1.5
          0.5 0 2 1 0 0
          0 0 0 0 0 0
          0 0 0 1 1 2
          2 2 2 2 2 2
          2 2 2 2 2 2
          2 2 2 2 2 2
          2 2 2 2 2 2
          2
        </DataArray>
        <DataArray type="Float64" Name="gradient_marker" format="ascii" RangeMin="0" RangeMax="1">
          0 0.5 1 0.75 0.75 0.5
          0.75 0.75 0.5 0.5 1 0.5
          0.5 0.75 0.6666666666666666 0.75 0.625 0
          0.5 0.5 1 1 1 0.75
          0.75 1 1 0.75 1 0.75
          1 1 0.75 0.5 0.75 0.6666666666666666
          0.5 0 0 1 0.5 0.5
          0 0.5 0.5 1 0 0
          0.5 0.5 0 0.5 0.5 0
          0.5 0.5 0 0 0.5 0.5
          0 0.5 0.5 0 0.5 0.5
          0 0 0 0 0 0.5
          0.5 0.25 0.75 0.625 0 0.375
          0.5 0.5 0.75 0.75 0.875 1
          0.5 1 0.75 0.5 1 0.75
          0 0.5 0.5 0.5 0.625 0.5
          0.875 0 0.125 0 0.25 0
          0 0 0.625 0.75 0.5 0
          0.25 0 0.25 0 0 0
          0.75 0.75 0.5 0 0.25 0
          0.25 0.75 0.75 0 0 0
          0.5 0 0.125 0 0 0.625
          0.5 0 0 0 0.5 1
          1 1 1 1 1 1
          1 1 1 0.6666666666666666 1 1
          1 0 0 0 0 1
          0.75 1 0.875 1 1 1
          0.25 0.625 0.75 0.5 0.5 0.5
          0.75 0 0.25 0 0.25 0
          0 0 0.75 0.75 0.3333333333333333 0
          0 0 0 0.375 0.25 0
          0 0 0.25 0.875 0.75 0.625
          0.75 0.75 0.5 0.75 0 0.125
          0 0.25 0 0 0 0.25
          0.5 0 0 0 0 0
          0 0 0 0 0 0
          0 0 0 0 0 0
          0 0 0 0 0 0
          0 0 0 0 0 0
          0 0 0 0 0 0
          0 0 0 0 0 0
          0 0 0 0 0 0
          0 0 0 0 0 0
          0 0 0 0 0 0
          0 0 0 0 0 0
          0 0 0 0 0 0
          0 0 0 0 0 0
          0 0 0 0 0 0
          0 0 0 0 0 0
          0 0 0 0 0 0
          0 0 0 0 0 0
          0 0 0 0 0 0
          0 0 0 0 0 0
          0 0 0 0 0 0
          0 0 0 0 0 0
          0 0 0 0 0 0
          0 0 0 0 0 0
          0 0 0 0 0 0
          0 0 0 0 0 0
          0 0 0 0 0 0
          0 0 0 0 0 0
          0 0 0 0 0 0
          0 0 0 0 0 0
          0 0 0 0 0 0
          0 0 0 0 0 0
          0 0 0 0 0 0
          0 0 0 0 0 0
          0 0 0 0 0 0
          0 0 0 0 0 0
          0 0 0 0 0 0
          0 0 0 0 0 0
          0 0 0 0 0 0
          0 0 0 0 0 0
          0 0 0 0 0 0
          0 0 0 0 0 0
          0 0 0 0 0 0
          0 0 0 0 0 0
          0 0 0 0 0 0
          0.625 0.75 1 0.8333333333333334 0.75 0.875
          0.875 0.75 1 0.75 1 1
          1 1 1 1 0.6666666666666666 0.75
          1 1 1 1 1 1
          1 1 0.5 1 1 0
          0.5 0.5 0.3333333333333333 0.5 0.625 0
          0.5 0.375 0.16666666666666666 0.5 0.5 0.625
          0.5 0.125 0.625 0.875 0.75 0.5
          1 0 0 0 0 0
          0 0 0 0 0 0
          0
        </DataArray>
        <DataArray type="Float64" Name="gradient_matprop_marker" format="ascii" RangeMin="0" RangeMax="0">
          0 0 0 0 0 0
          0 0 0 0 0 0
          0 0 0 0 0 0
          0 0 0 0 0 0
          0 0 0 0 0 0
          0 0 0 0 0 0
          0 0 0 0 0 0
          0 0 0 0 0 0
          0 0 0 0 0 0
          0 0 0 0 0 0
          0 0 0 0 0 0
          0 0 0 0 0 0
          0 0 0 0 0 0
          0 0 0 0 0 0
          0 0 0 0 0 0
          0 0 0 0 0 0
          0 0 0 0 0 0
          0 0 0 0 0 0
          0 0 0 0 0 0
          0 0 0 0 0 0
          0 0 0 0 0 0
          0 0 0 0 0 0
          0 0 0 0 0 0