<?xml version="1.0"?>
<VTKFile type="UnstructuredGrid" version="0.1" byte_order="LittleEndian" header_type="UInt32" compressor="vtkZLibDataCompressor">
  <UnstructuredGrid>
    <Piece NumberOfPoints="489" NumberOfCells="289">
      <PointData>
        <DataArray type="Int32" Name="libmesh_node_id" format="ascii" RangeMin="481" RangeMax="3310">
          481 489 586 587 588 594
          596 597 598 599 606 607
          973 975 976 977 980 981
          983 997 998 1003 1005 1006
          1007 1008 1009 1010 1011 1012
          1013 1014 1015 1016 1017 1018
          1033 1034 1035 1036 1040 1041
          1234 1235 1241 1242 1407 1408
          1409 1412 1413 1414 1415 1416
          1417 1418 1419 1420 1421 1422
          1742 1743 1749 1753 1754 1755
          1756 1757 1759 1760 1761 1762
          1763 1764 1777 1778 1781 1783
          1787 1788 1793 1795 1796 1797
          1798 1799 1800 1801 1802 1803
          1804 1813 1815 1817 1849 1850
          1851 1852 1853 1854 1855 1856
          1857 1858 1859 1860 1861 1862
          1863 1864 1865 1866 1867 1868
          1869 1870 1871 1872 1873 1874
          1875 1876 1877 1878 1879 1880
          1881 1882 1883 1884 1885 1886
          1887 1888 1889 1890 1891 1892
          1893 1894 1895 1896 1897 1898
          1899 1900 1901 1902 1903 1904
          1905 1906 1907 1908 1909 1910
          1911 1912 1913 1914 1915 1916
          1917 1918 1919 1920 1921 1922
          1923 1924 1925 1926 1927 1928
          1929 1930 2871 2879 2880 2881
          2882 2883 2884 2885 2886 2888
          2890 2891 2892 2898 2912 2913
          2915 2918 2946 2947 2949 2952
          2968 2969 2970 2971 2972 2973
          2974 2975 2976 2977 2978 2979
          2980 2981 2982 2983 2984 2985
          2986 2987 2989 2991 2993 2995
          2996 2997 2998 2999 3000 3001
          3002 3003 3004 3005 3006 3007
          3008 3009 3010 3011 3012 3013
          3014 3015 3016 3017 3018 3019
          3020 3021 3023 3025 3027 3029
          3030 3031 3032 3033 3034 3035
          3066 3068 3070 3080 3082 3084
          3086 3087 3088 3089 3090 3091
          3092 3093 3094 3095 3096 3097
          3098 3099 3100 3101 3102 3103
          3104 3105 3106 3107 3108 3109
          3110 3111 3112 3113 3114 3115
          3116 3117 3118 3119 3120 3121
          3122 3123 3124 3125 3126 3127
          3128 3129 3130 3131 3132 3133
          3134 3135 3136 3137 3138 3139
          3140 3141 3142 3143 3144 3145
          3146 3147 3148 3149 3150 3151
          3152 3153 3154 3155 3156 3157
          3158 3159 3160 3161 3162 3163
          3164 3165 3166 3167 3168 3169
          3170 3171 3172 3173 3174 3175
          3176 3177 3178 3179 3180 3181
          3182 3183 3184 3185 3186 3187
          3188 3189 3190 3191 3192 3193
          3194 3195 3196 3197 3198 3199
          3200 3201 3202 3203 3204 3205
          3206 3207 3208 3209 3210 3211
          3212 3213 3214 3215 3216 3217
          3218 3219 3220 3221 3222 3223
          3224 3225 3226 3227 3228 3229
          3230 3231 3232 3233 3234 3235
          3236 3237 3238 3239 3240 3241
          3242 3243 3244 3245 3246 3247
          3248 3249 3250 3251 3252 3253
          3254 3255 3256 3257 3258 3259
          3260 3261 3262 3263 3264 3265
          3266 3267 3268 3269 3270 3271
          3272 3273 3274 3275 3276 3277
          3278 3279 3280 3281 3282 3283
          3284 3285 3286 3287 3288 3289
          3290 3291 3292 3293 3294 3295
          3296 3297 3298 3299 3300 3301
          3302 3303 3304 3305 3306 3307
          3308 3309 3310
        </DataArray>
        <DataArray type="Float64" Name="bounds" format="ascii" RangeMin="0" RangeMax="0">
          0 0 0 0 0 0
          0 0 0 0 0 0
          0 0 0 0 0 0
          0 0 0 0 0 0
          0 0 0 0 0 0
          0 0 0 0 0 0
          0 0 0 0 0 0
          0 0 0 0 0 0
          0 0 0 0 0 0
          0 0 0 0 0 0
          0 0 0 0 0 0
          0 0 0 0 0 0
          0 0 0 0 0 0
          0 0 0 0 0 0
          0 0 0 0 0 0
          0 0 0 0 0 0
          0 0 0 0 0 0
          0 0 0 0 0 0
          0 0 0 0 0 0
          0 0 0 0 0 0
          0 0 0 0 0 0
          0 0 0 0 0 0
          0 0 0 0 0 0
          0 0 0 0 0 0
          0 0 0 0 0 0
          0 0 0 0 0 0
          0 0 0 0 0 0
          0 0 0 0 0 0
          0 0 0 0 0 0
          0 0 0 0 0 0
          0 0 0 0 0 0
          0 0 0 0 0 0
          0 0 0 0 0 0
          0 0 0 0 0 0
          0 0 0 0 0 0
          0 0 0 0 0 0
          0 0 0 0 0 0
          0 0 0 0 0 0
          0 0 0 0 0 0
          0 0 0 0 0 0
          0 0 0 0 0 0
          0 0 0 0 0 0
          0 0 0 0 0 0
          0 0 0 0 0 0
          0 0 0 0 0 0
          0 0 0 0 0 0
          0 0 0 0 0 0
          0 0 0 0 0 0
          0 0 0 0 0 0
          0 0 0 0 0 0
          0 0 0 0 0 0
          0 0 0 0 0 0
          0 0 0 0 0 0
          0 0 0 0 0 0
          0 0 0 0 0 0
          0 0 0 0 0 0
          0 0 0 0 0 0
          0 0 0 0 0 0
          0 0 0 0 0 0
          0 0 0 0 0 0
          0 0 0 0 0 0
          0 0 0 0 0 0
          0 0 0 0 0 0
          0 0 0 0 0 0
          0 0 0 0 0 0
          0 0 0 0 0 0
          0 0 0 0 0 0
          0 0 0 0 0 0
          0 0 0 0 0 0
          0 0 0 0 0 0
          0 0 0 0 0 0
          0 0 0 0 0 0
          0 0 0 0 0 0
          0 0 0 0 0 0
          0 0 0 0 0 0
          0 0 0 0 0 0
          0 0 0 0 0 0
          0 0 0 0 0 0
          0 0 0 0 0 0
          0 0 0 0 0 0
          0 0 0 0 0 0
          0 0 0
        </DataArray>
        <DataArray type="Float64" Name="gradient_error" format="ascii" RangeMin="9.793834377857796e-10" RangeMax="3.110972029820033e-7">
          7.262774649342073e-9 1.0148226712976305e-8 1.873637890275892e-8 9.337154581647528e-8 7.671006778306908e-8 3.110972029820033e-7
          1.674346325462869e-9 3.765799427077329e-9 3.229724451741947e-8 2.4620704634351237e-8 9.457815068820873e-9 1.5208201490166527e-7
          1.066017298929237e-7 6.9774143951999e-8 1.265382517874256e-7 1.0092570093929691e-7 2.048816451843797e-7 6.23361604471569e-9
          2.4252960748161034e-8 9.087672185058152e-8 1.5614430349801364e-7 2.2141188514544575e-7 6.136529590525843e-8 4.419201605723418e-8
          1.4474281679802866e-7 1.0269746816994037e-7 2.299110741771338e-8 1.4372885988986266e-7 1.445564777027157e-7 5.4622745811488606e-8
          1.5652656140251467e-7 8.487898033699356e-8 1.2217458688750984e-8 3.614754370852944e-8 5.1150667467875446e-8 2.5705437035765856e-7
          5.983699869302177e-8 1.1109666840215917e-7 2.2040724735180526e-8 5.090535900183781e-8 1.6235633811129657e-7 7.077528416218196e-8
          5.066605407824394e-9 4.7184783737508145e-9 1.1089616823188998e-9 9.793834377857796e-10 6.38706229949757e-9 4.8680912198047813e-8
          3.9544624927306055e-8 3.0408337656564296e-8 3.577738772767358e-9 3.4642479283837453e-9 2.7061070899044736e-8 2.1893122320399062e-8
          1.387534755356056e-9 1.2403250891159362e-8 1.002303492695957e-8 3.3507570840001325e-9 1.6725173741753387e-8 5.216727371114118e-9
          1.4999209759158585e-7 1.4231219762370314e-7 1.0404355379508812e-7 1.5630592391652627e-7 1.4707738082582355e-7 8.739424431532194e-8
          1.6133223239560997e-7 1.50360316068202e-7 1.1994180644935573e-7 1.1905560202304826e-7 1.1620711483665072e-7 1.1239718799730256e-7
          1.2100164377720423e-7 9.697850290796327e-8 4.362730823699932e-8 7.654804939776961e-8 5.437329449023672e-8 9.949366559839586e-8
          1.2518913083351314e-8 1.4601027175879266e-8 1.1050366735647156e-8 1.559856748575579e-8 1.7852927278692952e-8 1.9813358340367718e-8
          2.2223719336702377e-8 2.3945320215217152e-8 2.768960195793782e-8 7.930881305604132e-9 1.385944529316598e-8 1.7675267147168924e-8
          2.021848785434352e-8 1.0398698275147954e-7 1.767921111590741e-7 1.1690438738878317e-7 8.537424348210572e-8 7.757534609886624e-8
          1.637329738254213e-7 1.5094224205635147e-7 6.518865644492094e-8 1.617008964751722e-7 1.4723498836796802e-7 5.8118065405375115e-8
          1.1559754162024602e-7 1.0851723445600431e-7 1.3664135581371907e-7 1.2890610902219414e-7 1.3443984885025057e-7 1.0333447939337148e-7
          5.6843754503873083e-8 5.114905371243658e-8 1.5332962914574387e-7 1.3786978181203757e-7 3.720161258200609e-8 1.3769283939289693e-7
          1.2218831790960983e-7 3.7462717998245205e-8 9.752798973052945e-8 8.294019999049602e-8 1.482077010768569e-7 1.352742245612489e-7
          1.2872882410969837e-7 1.2715533737229632e-7 3.670232259939029e-8 7.026981787300757e-8 2.953010472230001e-8 6.199076303816919e-8
          2.6944963103657125e-8 4.749606279280474e-8 3.9716137425093606e-8 9.576698721920933e-8 8.840558292951902e-8 1.0877057710450785e-7
          2.2652868796721012e-8 5.2221114866227744e-8 1.6290551749739662e-8 4.1841511882106065e-8 1.583465451795167e-8 3.179618474972784e-8
          2.4486420209542776e-8 1.0793882498784343e-7 1.2319441726315933e-7 8.457191520955061e-8 2.5321605242856535e-8 2.7992228854155455e-8
          3.2262939665502503e-8 3.5313196680794284e-8 3.242869169810129e-8 3.7991526489795916e-8 1.212570151246203e-8 2.2526816736517542e-8
          2.7702584285691653e-8 2.9573682995341496e-8 4.0540079861064445e-8 4.393801586441178e-8 4.8303836701718285e-8 5.259860448123709e-8
          7.156105494972612e-8 1.014061638781065e-7 1.1885218071020055e-8 3.312157472840815e-8 3.935587234605556e-8 4.372800810460273e-8
          1.0495476597064042e-7 1.0251368385395167e-7 1.757942516520286e-7 1.6821980626241935e-7 1.2018613667280225e-7 1.2009346239737862e-7
          2.020945115769938e-7 1.2492350460988266e-7 1.4030247921072295e-7 1.5255617447308003e-7 9.561705470690274e-8 1.1453299068185933e-7
          1.0271492528556005e-7 1.8372623350856283e-7 2.0138552525902026e-8 2.07952079642989e-8 2.1401693013280633e-8 2.2849033037824143e-8
          2.347915890375333e-8 2.3870185078040074e-8 2.4548067013614573e-8 2.6569157966642375e-8 2.672544354446045e-8 2.746809332035443e-8
          2.9144170029976646e-8 3.095085746053458e-8 2.9158658993399738e-8 2.72851938273435e-8 1.699046981415129e-8 1.7484436779326592e-8
          1.9022027363645586e-8 1.3130960055517606e-8 8.428517899800946e-9 9.609510874786732e-9 1.2175991471305275e-8 7.787422671289414e-9
          1.8388435885027505e-8 1.88983834807722e-8 2.002415401080304e-8 2.05412876061169e-8 2.0444808698360984e-8 2.2086154788366148e-8
          1.392741156798317e-8 1.4574253654833141e-8 1.6270376817339056e-8 1.610985610368453e-8 2.1955163820279196e-8 2.246830255462241e-8
          2.4233439278901854e-8 2.4729832475236e-8 2.396288034625988e-8 2.612792356966999e-8 1.7553521016565628e-8 1.8257112511756053e-8
          2.0562195331552437e-8 1.9876616197579567e-8 2.450313567762784e-8 2.677342161249797e-8 2.0069535399582725e-8 2.6266547837194075e-8
          2.8251213051576846e-8 2.832817747561239e-8 3.0003538303758906e-8 2.2009875096011988e-8 2.4264198333490895e-8 2.5691695876415066e-8
          9.444514444980927e-9 1.0748244887832671e-8 1.0637101759085925e-8 1.2085518663843279e-8 1.3577897550512889e-8 1.520316536051585e-8
          7.015869559751632e-9 8.743056414262826e-9 9.863825867418097e-9 1.234654138662535e-8 1.2025218810499546e-8 1.3647043224668735e-8
          1.3604074401430708e-8 1.5442684761806176e-8 1.7089345578347296e-8 1.9271879207280063e-8 8.983538150386158e-9 1.1168399521455614e-8
          1.265148584433709e-8 1.5625775909594776e-8 1.800363758992632e-8 2.115627252749524e-8 1.740638241558845e-8 2.0049474106023602e-8
          2.240535082826447e-8 2.298204982209962e-8 2.5105693118949808e-8 1.9468123664434735e-8 2.183387363216625e-8 2.2078403849194152e-8
          2.8934530119171616e-8 2.733478826620926e-8 3.0584533971723204e-8 3.007051540969287e-8 3.347788294563657e-8 2.9555829286939067e-8
          2.8323099945861995e-8 2.8957500651254073e-8 3.1771949602726075e-8 3.092034822814785e-8 3.45069810051051e-8 3.5019049647138145e-8
          3.8669428507413814e-8 3.6419380956860886e-8 3.2947360206602036e-8 3.514289243793993e-8 3.207345740116626e-8 3.750225863401323e-8
          3.993258250830549e-8 3.508005484772562e-8 4.2385211434642704e-8 4.2590933644136954e-8 4.648527410491484e-8 4.288625907485303e-8
          5.0467881841258834e-8 4.994435898965623e-8 5.2576024470718054e-8 4.845725601887864e-8 4.232799497984618e-8 4.4399830936989295e-8
          3.743105978574199e-8 4.577095535443269e-8 4.631416715611738e-8 4.404823480916171e-8 2.8062593510107597e-8 2.8725348099124404e-8
          2.5624197531437198e-8 2.9228282920313526e-8 2.9540948187968294e-8 2.5993329788651687e-8 2.9639409530415055e-8 2.9626133542395026e-8
          2.6096827152963648e-8 2.6899720463731116e-8 2.7364171925206757e-8 2.999705654013286e-8 3.0414164367963695e-8 2.861619774507533e-8
          3.146097929065963e-8 2.2396308746053984e-8 2.3205343531893858e-8 2.6205895050482594e-8 2.4921937321790983e-8 3.353377601742209e-8
          3.388863206895047e-8 3.749279160421641e-8 3.775687037967239e-8 3.4663858011495494e-8 3.817582924636295e-8 2.86112077300711e-8
          2.9587290769622234e-8 3.335109287215058e-8 3.145458884329403e-8 3.048170887076004e-8 3.296705003869103e-8 3.180808921002921e-8
          3.372948342105292e-8 2.6845872376651418e-8 2.9759736627486426e-8 2.9931853176102784e-8 3.568507201613888e-8 3.8573033519273394e-8
          3.5715820098303576e-8 3.763142991584149e-8 3.2994000808834446e-8 3.6537466087087886e-8 3.515503637174698e-8 1.531142200318085e-8
          1.7438203199907623e-8 1.6982903188305327e-8 1.951852481253709e-8 2.1766864651249112e-8 2.4546197947030388e-8 1.1306567495853975e-8
          1.4236562535186976e-8 1.5681638657310314e-8 2.000190192091907e-8 1.851635948738929e-8 2.158768389586949e-8 2.001389212111542e-8
          2.370048352420446e-8 2.7558217677738723e-8 3.0787848282020145e-8 1.2370874544375454e-8 1.6759000743257317e-8 1.754309355603873e-8
          2.5115592735019478e-8 2.5109917075249647e-8 2.8165729548830305e-8 2.7535741012363567e-8 3.028202025053212e-8 2.4544146932114503e-8
          2.7603193482129897e-8 2.6750496691413716e-8 3.154811242773419e-8 3.522775131944709e-8 3.333617395498349e-8 3.664511984318218e-8
          3.0976108636064e-8 3.4594054994959704e-8 3.271386051535455e-8 4.178339587866743e-8 4.191195466017937e-8 4.6215374952642326e-8
          4.6151981067242e-8 4.186794680200208e-8 4.5510857492799805e-8 3.625386276005013e-8 3.746861941298282e-8 4.1886277336745645e-8
          3.951404999142099e-8 5.049775289830959e-8 5.018859905934265e-8 5.421125462387538e-8 5.3647877493241e-8 4.884288248456895e-8
          5.1638042016633863e-8 4.47339205126838e-8 4.633215638282484e-8 5.0370401326694896e-8 4.840041843859806e-8 4.157677180513293e-8
          4.446169969693393e-8 3.923134718091817e-8 4.1661108230864474e-8 4.04127469719917e-8 4.4488190037667e-8 4.071078982283471e-8
          4.679057885849542e-8 4.8439136596045006e-8 4.5774837968228634e-8 4.66866895214289e-8 4.830643814763092e-8 5.168518991435087e-8
          4.701259178075733e-8 2.164363930211849e-8 2.5994478722722595e-8 2.3567263126981763e-8 2.8585166934306733e-8 3.425944347009245e-8
          3.796691534124567e-8 1.196113340682887e-8 1.8284694295701313e-8 1.9216467224691326e-8 3.034042148649401e-8 2.515791170919422e-8
          3.114734631831293e-8 2.550635253639277e-8 3.318047873201916e-8 4.1846184129608676e-8 4.5779811128722584e-8 1.137560634838119e-8
          2.0063219000005234e-8 2.0339885326412473e-8 3.6120040332280485e-8 3.9178901417821025e-8 4.3301020874901044e-8 4.011700501741572e-8
          4.370175387789864e-8 3.8357857522078335e-8 4.2149230131346636e-8 3.984406496525637e-8 4.735419141431176e-8 5.1219202517972084e-8
          4.719562681296194e-8 5.02827389911911e-8 4.590570889591984e-8 4.963213124321506e-8 4.7623086518435684e-8 3.008513713382317e-8
          3.119082664768255e-8 2.8113741485639746e-8 2.8766100145116583e-8 3.2332750460653596e-8 3.417373164034213e-8 3.2664042996556207e-8
          3.220281581073426e-8 3.306301073102073e-8 2.9259907554626998e-8 2.9678519331307732e-8 3.607468151239015e-8 3.795141476684498e-8
          3.548148802154054e-8 3.2127129113712425e-8 3.4354278658699374e-8 3.543386544733318e-8 3.7437726456703184e-8 3.169643806365641e-8
          3.401739923295518e-8 3.6142930341396225e-8 3.6736515568454446e-8 3.919290071917612e-8 3.943948103128254e-8 4.136244275413526e-8
          3.6501016813283597e-8 3.9068045178735454e-8 4.0442471340086316e-8 3.3664490366213484e-8 3.387660096035139e-8 3.0324449818543664e-8
          3.075042040832917e-8 3.961157457899022e-8 4.160517353564024e-8 3.828233953936796e-8 4.4566088397915556e-8 4.5049856260005105e-8
          4.357926479562236e-8 4.157979991405592e-8 4.3720297277183686e-8 4.310982383206427e-8 4.430836860751253e-8 4.162602187214332e-8
          4.4096368440060865e-8 4.4207041069516295e-8 4.543867066748438e-8 4.64504065885804e-8 4.463888320588269e-8 4.406872290092313e-8
          4.631125293705321e-8 4.785095691715568e-8 4.5698501616143016e-8
        </DataArray>
        <DataArray type="Float64" Name="gradient_matprop_error" format="ascii" RangeMin="0" RangeMax="0">
          0 0 0 0 0 0
          0 0 0 0 0 0
          0 0 0 0 0 0
          0 0 0 0 0 0
          0 0 0 0 0 0
          0 0 0 0 0 0
          0 0 0 0 0 0
          0 0 0 0 0 0
          0 0 0 0 0 0
          0 0 0 0 0 0
          0 0 0 0 0 0
          0 0 0 0 0 0
          0 0 0 0 0 0
          0 0 0 0 0 0
          0 0 0 0 0 0
          0 0 0 0 0 0
          0 0 0 0 0 0
          0 0 0 0 0 0
          0 0 0 0 0 0
          0 0 0 0 0 0
          0 0 0 0 0 0
          0 0 0 0 0 0
          0 0 0 0 0 0
          0 0 0 0 0 0
          0 0 0 0 0 0
          0 0 0 0 0 0
          0 0 0 0 0 0
          0 0 0 0 0 0
          0 0 0 0 0 0
          0 0 0 0 0 0
          0 0 0 0 0 0
          0 0 0 0 0 0
          0 0 0 0 0 0
          0 0 0 0 0 0
          0 0 0 0 0 0
          0 0 0 0 0 0
          0 0 0 0 0 0
          0 0 0 0 0 0
          0 0 0 0 0 0
          0 0 0 0 0 0
          0 0 0 0 0 0
          0 0 0 0 0 0
          0 0 0 0 0 0
          0 0 0 0 0 0
          0 0 0 0 0 0
          0 0 0 0 0 0
          0 0 0 0 0 0
          0 0 0 0 0 0
          0 0 0 0 0 0
          0 0 0 0 0 0
          0 0 0 0 0 0
          0 0 0 0 0 0
          0 0 0 0 0 0
          0 0 0 0 0 0
          0 0 0 0 0 0
          0 0 0 0 0 0
          0 0 0 0 0 0
          0 0 0 0 0 0
          0 0 0 0 0 0
          0 0 0 0 0 0
          0 0 0 0 0 0
          0 0 0 0 0 0
          0 0 0 0 0 0
          0 0 0 0 0 0
          0 0 0 0 0 0
          0 0 0 0 0 0
          0 0 0 0 0 0
          0 0 0 0 0 0
          0 0 0 0 0 0
          0 0 0 0 0 0
          0 0 0 0 0 0
          0 0 0 0 0 0
          0 0 0 0 0 0
          0 0 0 0 0 0
          0 0 0 0 0 0
          0 0 0 0 0 0
          0 0 0 0 0 0
          0 0 0 0 0 0
          0 0 0 0 0 0
          0 0 0 0 0 0
          0 0 0 0 0 0
          0 0 0
        </DataArray>
        <DataArray type="Float64" Name="initial_marker" format="ascii" RangeMin="0" RangeMax="2">
          0 2 0 1 0 2
          0 0 1 0 2 2
          2 1 2 2 1.5 2
          2 0 0.5 1 1 1
          2 2 1 2 2 0
          1.5 1.5 2 2 2 2
          0 0.5 0 0.25 1 0.5
          0 0 0 0 0 0
          0 0 0 0 0 0
          0 0 0 0 0 0
          2 2 2 2 2 2
          2 2 2 2 2 2
          2 2 1 1.5 1 2
          2 2 2 2 2 2
          2 2 2 2 2 2
          2 2 2 2 2 2
          2 2 2 2 2 2
          2 2 2 2 2 2
          2 2 2 2 2 2
          2 2 2 2 2 2
          2 2 1 1.5 1 1.5
          0 1 1 2 2 2
          1 1.5 1 1.5 0 1
          1 2 2 2 2 2
          2 2 2 2 2 2
          2 2 2 2 2 2
          2 2 2 2 2 2
          2 2 2 2 2 2
          2 2 2 2 2 2
          2 2 2 2 2 2
          2 2 2 2 2 2
          2 2 2 2 2 2
          2 2 2 2 2 2
          2 2 2 2 2 2
          2 2 2 2 2 2
          2 2 2 2 2 2
          2 2 2 2 2 2
          2 2 2 2 2 2
          2 2 2 2 2 2
          2 2 2 2 2 2
          2 2 2 2 2 2
          2 2 2 2 2 2
          2 2 2 2 2 2
          2 2 2 2 2 2
          2 2 2 2 2 2
          2 2 2 2 2 2
          2 2 2 2 2 2
          2 2 2 2 2 2
          2 2 2 2 2 2
          2 2 2 2 2 2
          2 2 2 2 2 2
          2 2 2 2 2 2
          2 2 2 2 2 2
          2 2 2 2 2 2
          2 2 2 2 2 2
          2 2 2 2 2 2
          2 2 2 2 2 2
          2 2 2 2 2 2
          2 2 2 2 2 2
          2 2 2 2 2 2
          2 2 2 2 2 2
          2 2 2 2 2 2
          2 2 2 2 2 2
          2 2 2 2 2 2
          2 2 2 2 2 2
          2 2 2 2 2 2
          2 2 2 2 2 2
          2 2 2 2 2 2
          2 2 2 2 2 2
          2 2 2 2 2 2
          2 2 2 2 2 2
          2 2 2 2 2 2
          2 2 2 2 2 2
          2 2 2 2 2 2
          2 2 2 2 2 2
          2 2 2 2 2 2
          2 2 2 2 2 2
          2 2 2 2 2 2
          2 2 2 2 2 2
          2 2 2 2 2 2
          2 2 2 2 2 2
          2 2 2
        </DataArray>
        <DataArray type="Float64" Name="markers_norefine" format="ascii" RangeMin="0" RangeMax="2">
          0 2 0 0 0 0
          0 0 0 0 2 0
          1 0 1 0 0 2
          2 0 0 0 0 0
          1 0 0 1 0 0
          0 0 2 2 2 0
          0 0 0 0 0 0
          0 0 0 0 0 0
          0 0 0 0 0 0
          0 0 0 0 0 0
          0 0 1 0 0 0
          0 0 0 0 1 1
          1 0 0 0 0 0
          2 2 2 2 2 2
          2 2 2 2 2 2
          2 0 0 0 0 0
          0 0 0 0 0 0
          0 0 1 1 1 0
          0 0 0 0 0 0
          0 0 0 0 1 1
          1 0 0 0 0 0
          0 0 0 0 0 0
          0 0 0 0 0 0
          0 0 0 0 2 2
          2 2 2 2 2 2
          2 2 2 2 2 2
          1.75 1.5 2 2 2 2
          0 0 0 0 0 0
          0 0 0 0 0 0
          0 0 2 2 2 2
          2 2 2 2 2 1
          1 1 0 0 2 2
          2 2 2 2 2 2
          2 2 2 2 2 2
          2 2 2 2 2 2
          2 2 2 2 2 2
          2 2 1.5 1 2 1.5
          1.5 1 1 2 2 2
          2 2 2 2 2 2
          2 2 2 2 2 2
          2 2 2 2 2 2
          2 2 2 2 2 2
          2 2 2 2 2 2
          0.5 0 1 1 0 1
          2 2 2 2 2 2
          2 2 1 1 0 1
          1 0 2 2 2 2
          2 2 2 2 1 1
          0 1 1 0 0 0
          0 0 0 0 0 0
          0 2 2 2 2 2
          2 2 2 2 2 2
          2 2 2 2 2 2
          2 2 2 1.5 1.5 1
          1 2 2 2 1.5 1.5
          1 1 2 2 2 2
          2 2 2 2 2 2
          2 2 2 2 2 2
          2 2 2 2 2 2
          2 2 2 2 2 2
          2 2 2 2 2 2
          2 2 2 2 2 2
          2 2 2 2 2 2
          2 2 2 2 2 2
          2 2 2 2 2 1.5
          1.5 1 1 2 2 2
          1.5 1.5 1 1 2 2
          2 2 2 2 2 2
          2 2 2 2 2 2
          2 2 2 2 2 2
          2 2 2 2 2 2
          2 2 2 2 2 2
          2 2 2 2 2 0.5
          0.5 0 0 1 1 0
          0.5 0.5 0 0 1 1
          0 1 1 0 0 1
          1 0 1 1 0 0
          1 1 0 0.5 0.5 0
          0 1 1 0 1 1
          0 1 1 0 0 1
          1 0 1 1 0 0
          1 1 0
        </DataArray>
        <DataArray type="Float64" Name="markers_mustrefine" format="ascii" RangeMin="0" RangeMax="2">
          0 2 0 1 0 2
          0 0 1 0 2 2
          2 1 2 2 1.5 2
          2 0 0.5 1 1 1
          2 2 1 2 2 0
          1.5 1.5 2 2 2 2
          0 0.5 0 0.25 1 0.5
          0 0 0 0 0 0
          0 0 0 0 0 0
          0 0 0 0 0 0
          2 2 2 2 2 2
          2 2 2 2 2 2
          2 2 1 1.5 1 2
          2 2 2 2 2 2
          2 2 2 2 2 2
          2 2 2 2 2 2
          2 2 2 2 2 2
          2 2 2 2 2 2
          2 2 2 2 2 2
          2 2 2 2 2 2
          2 2 1 1.5 1 1.5
          0 1 1 2 2 2
          1 1.5 1 1.5 0 1
          1 2 2 2 2 2
          2 2 2 2 2 2
          2 2 2 2 2 2
          2 2 2 2 2 2
          2 2 2 2 2 2
          2 2 2 2 2 2
          2 2 2 2 2 2
          2 2 2 2 2 2
          2 2 2 2 2 2
          2 2 2 2 2 2
          2 2 2 2 2 2
          2 2 2 2 2 2
          2 2 2 2 2 2
          2 2 2 2 2 2
          2 2 2 2 2 2
          2 2 2 2 2 2
          2 2 2 2 2 2
          2 2 2 2 2 2
          2 2 2 2 2 2
          2 2 2 2 2 2
          2 2 2 2 2 2
          2 2 2 2 2 2
          2 2 2 2 2 2
          2 2 2 2 2 2
          2 2 2 2 2 2
          2 2 2 2 2 2
          2 2 2 2 2 2
          2 2 2 2 2 2
          2 2 2 2 2 2
          2 2 2 2 2 2
          2 2 2 2 2 2
          2 2 2 2 2 2
          2 2 2 2 2 2
          2 2 2 2 2 2
          2 2 2 2 2 2
          2 2 2 2 2 2
          2 2 2 2 2 2
          2 2 2 2 2 2
          2 2 2 2 2 2
          2 2 2 2 2 2
          2 2 2 2 2 2
          2 2 2 2 2 2
          2 2 2 2 2 2
          2 2 2 2 2 2
          2 2 2 2 2 2
          2 2 2 2 2 2
          2 2 2 2 2 2
          2 2 2 2 2 2
          2 2 2 2 2 2
          2 2 2 2 2 2
          2 2 2 2 2 2
          2 2 2 2 2 2
          2 2 2 2 2 2
          2 2 2 2 2 2
          2 2 2 2 2 2
          2 2 2 2 2 2
          2 2 2 2 2 2
          2 2 2 2 2 2
          2 2 2
        </DataArray>
        <DataArray type="Float64" Name="gradient_marker" format="ascii" RangeMin="0" RangeMax="1">
          0.5 0 0.75 0.5 0.5 1
          0.5 0.625 0 0.125 0 0.75
          0.5 0.125 0.5 0.5 0.75 0
          0 0.5 0.5 0.5 0 0
          0.5 0.5 0 0.5 0.625 0.16666666666666666
          0.625 0.25 0 0 0 1
          0.25 0.375 0 0.125 0.5 0.25
          1 1 1 1 0 0.25
          0.125 0 0 0 0 0
          0 0 0 0 0 0
          1 0.875 0.5 1 0.75 0.25
          0.75 0.625 0.5 0.5 0.5 0.5
          0.5 0.5 0 0.25 0 0.5
          0 0 0 0 0 0
          0 0 0 0 0 0
          0 0.5 1 0.5 0 0
          0.5 0.5 0 0.5 0.5 0
          0.5 0.5 0.5 0.5 0.5 0.5
          0 0 0.5 0.5 0 0.5
          0.5 0 0.5 0.375 0.5 0.5
          0.5 0.625 0 0.25 0 0.25
          0 0 0 0.5 0.5 0.5
          0 0.25 0 0.125 0 0
          0 0.625 0.5 0.5 0 0
          0 0 0 0 0 0
          0 0 0 0 0 0
          0.125 0.25 0 0 0 0
          0.5 0.5 1 1 0.5 0.5
          1 0.625 0.625 1 0.5 0.5
          0.5 1 0 0 0 0
          0 0 0 0 0 0
          0 0 0 0 0 0
          0 0 0 0 0 0
          0 0 0 0 0 0
          0 0 0 0 0 0
          0 0 0 0 0 0
          0 0 0 0 0 0
          0 0 0 0 0 0
          0 0 0 0 0 0
          0 0 0 0 0 0
          0 0 0 0 0 0
          0 0 0 0 0 0
          0 0 0 0 0 0
          0 0 0 0 0 0
          0 0 0 0 0 0
          0 0 0 0 0 0
          0 0 0 0 0 0
          0 0 0 0 0 0
          0 0 0 0 0 0
          0 0 0 0 0 0
          0 0 0 0 0 0
          0 0 0 0 0 0
          0 0 0 0 0 0
          0 0 0 0 0 0
          0 0 0 0 0 0
          0 0 0 0 0 0
          0 0 0 0 0 0
          0 0 0 0 0 0
          0 0 0 0 0 0
          0 0 0 0 0 0
          0 0 0 0 0 0
          0 0 0 0 0 0
          0 0 0 0 0 0
          0 0 0 0 0 0
          0 0 0 0 0 0
          0 0 0 0 0 0
          0 0 0 0 0 0
          0 0 0 0 0 0
          0 0 0 0 0 0
          0 0 0 0 0 0
          0 0 0 0 0 0
          0 0 0 0 0 0
          0 0 0 0 0 0
          0 0 0 0 0 0
          0 0 0 0 0 0
          0 0 0 0 0 0
          0 0 0 0 0 0
          0 0 0 0 0 0
          0 0 0 0 0 0
          0 0 0 0 0 0
          0 0 0 0 0 0
          0 0 0
        </DataArray>
        <DataArray type="Float64" Name="gradient_matprop_marker" format="ascii" RangeMin="0" RangeMax="0">
          0 0 0 0 0 0
          0 0 0 0 0 0
          0 0 0 0 0 0
          0 0 0 0 0 0
          0 0 0 0 0 0
          0 0 0 0 0 0
          0 0 0 0 0 0
          0 0 0 0 0 0
          0 0 0 0 0 0
          0 0 0 0 0 0
          0 0 0 0 0 0
          0 0 0 0 0 0
          0 0 0 0 0 0
          0 0 0 0 0 0
          0 0 0 0 0 0
          0 0 0 0 0 0
          0 0 0 0 0 0
          0 0 0 0 0 0
          0 0 0 0 0 0
          0 0 0 0 0 0
          0 0 0 0 0 0
          0 0 0 0 0 0
          0 0 0 0 0 0
          0 0 0 0 0 0
          0 0 0 0 0 0
          0 0 0 0 0 0
          0 0 0 0 0 0
          0 0 0 0 0 0
          0 0 0 0 0 0
          0 0 0 0 0 0
          0 0 0 0 0 0
          0 0 0 0 0 0
          0 0 0 0 0 0
          0 0 0 0 0 0
          0 0 0 0 0 0
          0 0 0 0 0 0
          0 0 0 0 0 0
          0 0 0 0 0 0
          0 0 0 0 0 0
          0 0 0 0 0 0
          0 0 0 0 0 0
          0 0 0 0 0 0
          0 0 0 0 0 0
          0 0 0 0 0 0
          0 0 0 0 0 0
          0 0 0 0 0 0
          0 0 0 0 0 0
          0 0 0 0 0 0
          0 0 0 0 0 0
          0 0 0 0 0 0
          0 0 0 0 0 0
          0 0 0 0 0 0
          0 0 0 0 0 0
          0 0 0 0 0 0
          0 0 0 0 0 0
          0 0 0 0 0 0
          0 0 0 0 0 0
          0 0 0 0 0 0
          0 0 0 0 0 0
          0 0 0 0 0 0
          0 0 0 0 0 0
          0 0 0 0 0 0
          0 0 0 0 0 0
          0 0 0 0 0 0
          0 0 0 0 0 0
          0 0 0 0 0 0
          0 0 0 0 0 0
          0 0 0 0 0 0
          0 0 0 0 0 0
          0 0 0 0 0 0
          0 0 0 0 0 0
          0 0 0 0 0 0
          0 0 0 0 0 0
          0 0 0 0 0 0
          0 0 0 0 0 0
          0 0 0 0 0 0
          0 0 0 0 0 0
          0 0 0 0 0 0
          0 0 0 0 0 0
          0 0 0 0 0 0
          0 0 0 0 0 0
          0 0 0
        </DataArray>
        <DataArray type="Float64" Name="combo" format="ascii" RangeMin="0" RangeMax="2">
          0.5 2 0.75 0.5 0.5 1
          0.5 0.625 0 0.125 2 0.75
          1.5 0.125 1.5 0.5 0.75 2
          2 0.5 0.5 0.5 0 0
          1.5 0.5 0 1.5 0.625 0.16666666666666666
          0.625 0.25 2 2 2 1
          0.25 0.375 0 0.125 0.5 0.25
          1 1 1 1 0 0.25
          0.125 0 0 0 0 0
          0 0 0 0 0 0
          1 0.875 1.5 1 0.75 0.25
          0.75 0.625 0.5 0.5 1.5 1.5
          1.5 0.5 0 0.25 0 0.5
          2 2 2 2 2 2
          2 2 2 2 2 2
          2 0.5 1 0.5 0 0
          0.5 0.5 0 0.5 0.5 0
          0.5 0.5 1.5 1.5 1.5 0.5
          0 0 0.5 0.5 0 0.5
          0.5 0 0.5 0.375 1.5 1.5
          1.5 0.625 0 0.25 0 0.25
          0 0 0 0.5 0.5 0.5
          0 0.25 0 0.125 0 0
          0 0.625 0.5 0.5 2 2
          2 2 2 2 2 2
          2 2 2 2 2 2
          1.875 1.75 2 2 2 2
          0.5 0.5 1 1 0.5 0.5
          1 0.625 0.625 1 0.5 0.5
          0.5 1 2 2 2 2
          2 2 2 2 2 1
          1 1 0 0 2 2
          2 2 2 2 2 2
          2 2 2 2 2 2
          2 2 2 2 2 2
          2 2 2 2 2 2
          2 2 1.5 1 2 1.5