<?xml version="1.0"?>
<VTKFile type="UnstructuredGrid" version="0.1" byte_order="LittleEndian" header_type="UInt32" compressor="vtkZLibDataCompressor">
  <UnstructuredGrid>
    <Piece NumberOfPoints="1325" NumberOfCells="840">
      <PointData>
        <DataArray type="Int32" Name="libmesh_node_id" format="ascii" RangeMin="0" RangeMax="13328">
          0 1 2 3 4 5
          6 7 8 9 10 11
          12 13 14 15 16 17
          18 19 20 21 22 23
          24 25 26 27 28 29
          30 31 32 33 34 35
          36 37 38 39 120 121
          122 123 124 125 126 127
          128 129 130 131 132 133
          134 135 136 137 138 139
          180 181 182 183 184 185
          186 187 188 189 190 191
          192 193 194 195 196 197
          198 199 240 241 242 243
          244 245 246 247 248 249
          250 251 252 253 254 255
          256 257 258 259 300 301
          302 303 304 305 306 307
          308 309 330 331 332 333
          334 335 336 337 338 339
          360 361 362 363 364 365
          366 367 368 369 370 371
          372 373 374 375 376 377
          378 379 380 381 420 421
          422 423 424 425 426 427
          428 429 430 450 451 452
          453 454 455 456 457 458
          459 460 480 481 482 483
          484 485 486 487 488 489
          490 491 492 493 494 495
          496 497 498 499 500 501
          540 541 542 543 544 545
          546 547 548 549 550 570
          571 572 573 574 575 576
          577 578 579 580 600 601
          602 603 604 605 606 607
          608 609 610 611 612 613
          614 615 616 617 618 619
          620 621 660 661 662 663
          664 665 666 667 668 669
          670 690 691 692 693 694
          695 696 697 698 699 700
          720 721 722 723 724 725
          726 727 728 729 730 731
          732 733 734 735 736 737
          738 739 740 741 780 781
          782 783 784 785 786 787
          788 789 790 810 811 812
          813 814 815 816 817 818
          819 820 840 841 842 843
          844 845 846 847 848 849
          850 851 852 853 854 855
          856 857 858 859 860 861
          862 863 900 901 902 903
          904 905 906 907 908 909
          910 911 930 931 932 933
          934 935 936 937 938 939
          940 941 960 961 962 963
          964 965 966 967 968 969
          970 971 972 973 974 975
          976 977 978 979 980 981
          982 983 984 985 986 987
          1020 1021 1022 1023 1024 1025
          1026 1027 1028 1029 1030 1031
          1032 1033 1050 1051 1052 1053
          1054 1055 1056 1057 1058 1059
          1060 1061 1062 1063 1080 1081
          1082 1083 1084 1085 1086 1087
          1088 1089 1090 1091 1092 1093
          1094 1095 1096 1097 1098 1099
          1100 1101 1102 1103 1104 1105
          1106 1107 1140 1141 1142 1143
          1144 1145 1146 1147 1148 1149
          1150 1151 1152 1153 1170 1171
          1172 1173 1174 1175 1176 1177
          1178 1179 1180 1181 1182 1183
          1200 1201 1202 1203 1204 1205
          1206 1207 1208 1209 1210 1211
          1212 1213 1214 1215 1216 1217
          1218 1219 1220 1221 1222 1223
          1224 1225 1226 1227 1260 1261
          1262 1263 1264 1265 1266 1267
          1268 1269 1270 1271 1272 1273
          1290 1291 1292 1293 1294 1295
          1296 1297 1298 1299 1300 1301
          1302 1303 1320 1321 1322 1323
          1324 1325 1326 1327 1328 1329
          1330 1331 1332 1333 1334 1335
          1336 1337 1338 1339 1340 1341
          1342 1343 1344 1345 1346 1347
          1380 1381 1382 1383 1384 1385
          1386 1387 1388 1389 1390 1391
          1392 1393 1410 1411 1412 1413
          1414 1415 1416 1417 1418 1419
          1420 1421 1422 1423 1440 1441
          1442 1443 1444 1445 1446 1447
          1448 1449 1450 1451 1452 1453
          1454 1455 1456 1457 1458 1459
          1460 1461 1462 1463 1464 1465
          1466 1467 1500 1501 1502 1503
          1504 1505 1506 1507 1508 1509
          1510 1511 1512 1513 1530 1531
          1532 1533 1534 1535 1536 1537
          1538 1539 1540 1541 1542 1543
          1560 1561 1562 1563 1564 1565
          1566 1567 1568 1569 1570 1571
          1572 1573 1574 1575 1576 1577
          1578 1579 1580 1581 1582 1583
          1584 1585 1586 1587 1620 1621
          1622 1623 1624 1625 1626 1627
          1628 1629 1630 1631 1632 1633
          1650 1651 1652 1653 1654 1655
          1656 1657 1658 1659 1660 1661
          1662 1663 1680 1681 1682 1683
          1684 1685 1686 1687 1688 1689
          1690 1691 1692 1693 1694 1695
          1696 1697 1698 1699 1700 1701
          1702 1703 1704 1705 1706 1707
          1740 1741 1742 1743 1744 1745
          1746 1747 1748 1749 1750 1751
          1752 1753 1770 1771 1772 1773
          1774 1775 1776 1777 1778 1779
          1780 1781 1782 1783 1800 1801
          1802 1803 1804 1805 1806 1807
          1808 1809 1810 1811 1812 1813
          1814 1815 1816 1817 1818 1819
          1820 1821 1822 1823 1824 1825
          1860 1861 1862 1863 1864 1865
          1866 1867 1868 1869 1870 1871
          1872 1890 1891 1892 1893 1894
          1895 1896 1897 1898 1899 1900
          1901 1902 1920 1921 1922 1923
          1924 1925 1926 1927 1928 1929
          1930 1931 1932 1933 1934 1935
          1936 1937 1938 1939 1940 1941
          1942 1943 1944 1945 1980 1981
          1982 1983 1984 1985 1986 1987
          1988 1989 1990 1991 1992 2010
          2011 2012 2013 2014 2015 2016
          2017 2018 2019 2020 2021 2022
          2040 2041 2042 2043 2044 2045
          2046 2047 2048 2049 2050 2051
          2052 2053 2054 2055 2056 2057
          2058 2059 2060 2061 2100 2101
          2102 2103 2104 2105 2106 2107
          2108 2109 2110 2130 2131 2132
          2133 2134 2135 2136 2137 2138
          2139 2140 2160 2161 2162 2163
          2164 2165 2166 2167 2168 2169
          2170 2171 2172 2173 2174 2175
          2176 2177 2178 2179 2180 2181
          2220 2221 2222 2223 2224 2225
          2226 2227 2228 2229 2230 2250
          2251 2252 2253 2254 2255 2256
          2257 2258 2259 2260 2280 2281
          2282 2283 2284 2285 2286 2287
          2288 2289 2290 2291 2292 2293
          2294 2295 2296 2297 2298 2299
          2300 2301 2340 2341 2342 2343
          2344 2345 2346 2347 2348 2349
          2350 2370 2371 2372 2373 2374
          2375 2376 2377 2378 2379 2380
          12853 12854 12855 12856 12857 12858
          12859 12860 12861 12862 12863 12864
          12865 12866 12867 12868 12869 12870
          12871 12872 12873 12874 12875 12876
          12877 12878 12879 12880 12881 12882
          12883 12884 12885 12886 12887 12888
          12889 12890 12891 12892 12893 12894
          12895 12896 12897 12898 12899 12900
          12901 12902 12903 12904 12905 12906
          12907 12908 12909 12910 12911 12912
          12913 12914 12915 12916 12917 12918
          12919 12920 12921 12922 12923 12924
          12925 12926 12927 12928 12929 12930
          12931 12932 12933 12934 12935 12936
          12937 12938 12939 12940 12941 12942
          12943 12944 12945 12946 12947 12948
          12949 12950 12951 12952 12953 12954
          12955 12956 12957 12958 12959 12960
          12961 12962 12963 12964 12965 12966
          12967 12968 12969 12970 12971 12972
          12973 12974 12975 12976 12977 12978
          12979 12980 12981 12982 12983 12984
          12985 12986 12987 12988 12989 12990
          12991 12992 12993 12994 12995 12996
          12997 13036 13037 13038 13039 13040
          13041 13042 13043 13044 13045 13046
          13047 13048 13049 13050 13051 13052
          13053 13054 13055 13056 13057 13058
          13059 13060 13061 13062 13063 13064
          13065 13066 13067 13068 13069 13070
          13071 13072 13073 13074 13075 13076
          13077 13078 13079 13080 13081 13082
          13083 13084 13085 13086 13087 13088
          13089 13090 13091 13092 13093 13094
          13095 13096 13097 13098 13099 13100
          13101 13102 13103 13104 13105 13106
          13107 13108 13109 13110 13111 13112
          13113 13114 13115 13116 13117 13118
          13119 13120 13121 13122 13123 13124
          13125 13126 13127 13128 13129 13130
          13131 13132 13133 13134 13135 13136
          13137 13138 13139 13225 13226 13227
          13228 13229 13230 13231 13232 13233
          13234 13235 13236 13237 13238 13239
          13240 13241 13242 13243 13244 13245
          13246 13247 13248 13249 13250 13251
          13252 13253 13254 13255 13256 13257
          13258 13259 13260 13261 13262 13263
          13264 13265 13266 13267 13268 13269
          13270 13271 13272 13273 13274 13275
          13276 13277 13278 13279 13280 13281
          13282 13283 13284 13285 13286 13287
          13288 13289 13290 13291 13292 13293
          13294 13295 13296 13297 13298 13299
          13300 13301 13302 13303 13304 13305
          13306 13307 13308 13309 13310 13311
          13312 13313 13314 13315 13316 13317
          13318 13319 13320 13321 13322 13323
          13324 13325 13326 13327 13328
        </DataArray>
        <DataArray type="Float64" Name="bounds" format="ascii" RangeMin="0" RangeMax="0">
          0 0 0 0 0 0
          0 0 0 0 0 0
          0 0 0 0 0 0
          0 0 0 0 0 0
          0 0 0 0 0 0
          0 0 0 0 0 0
          0 0 0 0 0 0
          0 0 0 0 0 0
          0 0 0 0 0 0
          0 0 0 0 0 0
          0 0 0 0 0 0
          0 0 0 0 0 0
          0 0 0 0 0 0
          0 0 0 0 0 0
          0 0 0 0 0 0
          0 0 0 0 0 0
          0 0 0 0 0 0
          0 0 0 0 0 0
          0 0 0 0 0 0
          0 0 0 0 0 0
          0 0 0 0 0 0
          0 0 0 0 0 0
          0 0 0 0 0 0
          0 0 0 0 0 0
          0 0 0 0 0 0
          0 0 0 0 0 0
          0 0 0 0 0 0
          0 0 0 0 0 0
          0 0 0 0 0 0
          0 0 0 0 0 0
          0 0 0 0 0 0
          0 0 0 0 0 0
          0 0 0 0 0 0
          0 0 0 0 0 0
          0 0 0 0 0 0
          0 0 0 0 0 0
          0 0 0 0 0 0
          0 0 0 0 0 0
          0 0 0 0 0 0
          0 0 0 0 0 0
          0 0 0 0 0 0
          0 0 0 0 0 0
          0 0 0 0 0 0
          0 0 0 0 0 0
          0 0 0 0 0 0
          0 0 0 0 0 0
          0 0 0 0 0 0
          0 0 0 0 0 0
          0 0 0 0 0 0
          0 0 0 0 0 0
          0 0 0 0 0 0
          0 0 0 0 0 0
          0 0 0 0 0 0
          0 0 0 0 0 0
          0 0 0 0 0 0
          0 0 0 0 0 0
          0 0 0 0 0 0
          0 0 0 0 0 0
          0 0 0 0 0 0
          0 0 0 0 0 0
          0 0 0 0 0 0
          0 0 0 0 0 0
          0 0 0 0 0 0
          0 0 0 0 0 0
          0 0 0 0 0 0
          0 0 0 0 0 0
          0 0 0 0 0 0
          0 0 0 0 0 0
          0 0 0 0 0 0
          0 0 0 0 0 0
          0 0 0 0 0 0
          0 0 0 0 0 0
          0 0 0 0 0 0
          0 0 0 0 0 0
          0 0 0 0 0 0
          0 0 0 0 0 0
          0 0 0 0 0 0
          0 0 0 0 0 0
          0 0 0 0 0 0
          0 0 0 0 0 0
          0 0 0 0 0 0
          0 0 0 0 0 0
          0 0 0 0 0 0
          0 0 0 0 0 0
          0 0 0 0 0 0
          0 0 0 0 0 0
          0 0 0 0 0 0
          0 0 0 0 0 0
          0 0 0 0 0 0
          0 0 0 0 0 0
          0 0 0 0 0 0
          0 0 0 0 0 0
          0 0 0 0 0 0
          0 0 0 0 0 0
          0 0 0 0 0 0
          0 0 0 0 0 0
          0 0 0 0 0 0
          0 0 0 0 0 0
          0 0 0 0 0 0
          0 0 0 0 0 0
          0 0 0 0 0 0
          0 0 0 0 0 0
          0 0 0 0 0 0
          0 0 0 0 0 0
          0 0 0 0 0 0
          0 0 0 0 0 0
          0 0 0 0 0 0
          0 0 0 0 0 0
          0 0 0 0 0 0
          0 0 0 0 0 0
          0 0 0 0 0 0
          0 0 0 0 0 0
          0 0 0 0 0 0
          0 0 0 0 0 0
          0 0 0 0 0 0
          0 0 0 0 0 0
          0 0 0 0 0 0
          0 0 0 0 0 0
          0 0 0 0 0 0
          0 0 0 0 0 0
          0 0 0 0 0 0
          0 0 0 0 0 0
          0 0 0 0 0 0
          0 0 0 0 0 0
          0 0 0 0 0 0
          0 0 0 0 0 0
          0 0 0 0 0 0
          0 0 0 0 0 0
          0 0 0 0 0 0
          0 0 0 0 0 0
          0 0 0 0 0 0
          0 0 0 0 0 0
          0 0 0 0 0 0
          0 0 0 0 0 0
          0 0 0 0 0 0
          0 0 0 0 0 0
          0 0 0 0 0 0
          0 0 0 0 0 0
          0 0 0 0 0 0
          0 0 0 0 0 0
          0 0 0 0 0 0
          0 0 0 0 0 0
          0 0 0 0 0 0
          0 0 0 0 0 0
          0 0 0 0 0 0
          0 0 0 0 0 0
          0 0 0 0 0 0
          0 0 0 0 0 0
          0 0 0 0 0 0
          0 0 0 0 0 0
          0 0 0 0 0 0
          0 0 0 0 0 0
          0 0 0 0 0 0
          0 0 0 0 0 0
          0 0 0 0 0 0
          0 0 0 0 0 0
          0 0 0 0 0 0
          0 0 0 0 0 0
          0 0 0 0 0 0
          0 0 0 0 0 0
          0 0 0 0 0 0
          0 0 0 0 0 0
          0 0 0 0 0 0
          0 0 0 0 0 0
          0 0 0 0 0 0
          0 0 0 0 0 0
          0 0 0 0 0 0
          0 0 0 0 0 0
          0 0 0 0 0 0
          0 0 0 0 0 0
          0 0 0 0 0 0
          0 0 0 0 0 0
          0 0 0 0 0 0
          0 0 0 0 0 0
          0 0 0 0 0 0
          0 0 0 0 0 0
          0 0 0 0 0 0
          0 0 0 0 0 0
          0 0 0 0 0 0
          0 0 0 0 0 0
          0 0 0 0 0 0
          0 0 0 0 0 0
          0 0 0 0 0 0
          0 0 0 0 0 0
          0 0 0 0 0 0
          0 0 0 0 0 0
          0 0 0 0 0 0
          0 0 0 0 0 0
          0 0 0 0 0 0
          0 0 0 0 0 0
          0 0 0 0 0 0
          0 0 0 0 0 0
          0 0 0 0 0 0
          0 0 0 0 0 0
          0 0 0 0 0 0
          0 0 0 0 0 0
          0 0 0 0 0 0
          0 0 0 0 0 0
          0 0 0 0 0 0
          0 0 0 0 0 0
          0 0 0 0 0 0
          0 0 0 0 0 0
          0 0 0 0 0 0
          0 0 0 0 0 0
          0 0 0 0 0 0
          0 0 0 0 0 0
          0 0 0 0 0 0
          0 0 0 0 0 0
          0 0 0 0 0 0
          0 0 0 0 0 0
          0 0 0 0 0 0
          0 0 0 0 0 0
          0 0 0 0 0 0
          0 0 0 0 0 0
          0 0 0 0 0 0
          0 0 0 0 0 0
          0 0 0 0 0 0
          0 0 0 0 0 0
          0 0 0 0 0 0
          0 0 0 0 0 0
          0 0 0 0 0
        </DataArray>
        <DataArray type="Float64" Name="gradient_error" format="ascii" RangeMin="4.51610466353368e-16" RangeMax="1.3662144465788733e-7">
          5.344219572252371e-16 5.344986175183187e-16 5.343755331696842e-16 5.343246455128118e-16 5.335523334350768e-16 5.334262384737072e-16
          5.337994196515005e-16 5.33886126220743e-16 5.346752016437833e-16 5.344927004060957e-16 5.331527734539374e-16 5.336105752136667e-16
          5.348280515601131e-16 5.34597668866586e-16 5.329754832968976e-16 5.334764304071775e-16 5.348397012346007e-16 5.346195145953056e-16
          5.331157790617146e-16 5.335315367663585e-16 5.346461873626776e-16 5.345197177276234e-16 5.336680762411425e-16 5.338327315913747e-16
          5.342534624220784e-16 5.343003671914561e-16 5.345692907657209e-16 5.343459861692962e-16 5.337705828470808e-16 5.340221484445761e-16
          5.355491194626401e-16 5.349193415596525e-16 5.334390303379025e-16 5.338194801002838e-16 5.36098235629652e-16 5.352674428221722e-16
          5.335857687022659e-16 5.338747612405594e-16 5.355979669417791e-16 5.350444848022833e-16 5.342491077757574e-16 5.342366050436643e-16
          5.34238288065364e-16 5.3426237806986335e-16 5.342774509917027e-16 5.341856210905169e-16 5.343053638274841e-16 5.341392212887696e-16
          5.343220077557373e-16 5.34120988627401e-16 5.343214372956908e-16 5.341394533113263e-16 5.343027085743129e-16 5.341925175062942e-16
          5.342712654057165e-16 5.342651961985243e-16 5.342389903542882e-16 5.343305550528904e-16 5.342222967408584e-16 5.34356690744895e-16
          5.342457667304651e-16 5.342458762869423e-16 5.343039753014339e-16 5.343048371333175e-16 5.342447028149974e-16 5.343028652076377e-16
          5.342434414819093e-16 5.343010650600818e-16 5.342446875554641e-16 5.342946827837995e-16 5.342496264988123e-16 5.342815196810459e-16
          5.342581451877919e-16 5.342623534397168e-16 5.342688167693616e-16 5.342408287403838e-16 5.342780508459114e-16 5.342244600910885e-16
          5.342808397028638e-16 5.342223788270028e-16 5.386778237319972e-16 5.389281323008711e-16 5.37046040135114e-16 5.368552590604317e-16
          5.393644405766689e-16 5.373965412837489e-16 5.392389833833272e-16 5.374144946428941e-16 5.37903724386595e-16 5.367021276225408e-16
          5.352261316399394e-16 5.351774414451919e-16 5.316775691054156e-16 5.331086868722323e-16 5.283961454134982e-16 5.311438183831814e-16
          5.271715144321359e-16 5.302913306024403e-16 5.299491532255095e-16 5.316387399705141e-16 5.346299042505087e-16 5.345596068181428e-16
          5.347715759547095e-16 5.348639170674283e-16 5.348386286600145e-16 5.346825592305439e-16 5.344251963010891e-16 5.341372952704681e-16
          5.339193154334064e-16 5.338715944366455e-16 5.340958605316605e-16 5.340865192474194e-16 5.3411450991859e-16 5.341378282323955e-16
          5.3417672646154255e-16 5.342363672106433e-16 5.343105879631291e-16 5.343830991880714e-16 5.34427484094068e-16 5.344148621577724e-16
          5.117488657017988e-16 5.118097034360237e-16 5.202997985129466e-16 5.203913385713761e-16 5.126877914839176e-16 5.2055951641650005e-16
          5.162835789663196e-16 5.224559920255444e-16 5.243458501816063e-16 5.270508851841272e-16 5.368212866605746e-16 5.34311624267249e-16
          5.512636107322094e-16 5.428421288606862e-16 5.626014274596944e-16 5.497732458817385e-16 5.637837300076101e-16 5.511365584516876e-16
          5.492792967442492e-16 5.4377464030228e-16 5.225805246839292e-16 5.294041248152793e-16 5.318161725880894e-16 5.319655384384946e-16
          5.315787616058889e-16 5.316085460918899e-16 5.320791606489493e-16 5.329793806332433e-16 5.341526560062756e-16 5.352987380100338e-16
          5.360218445375163e-16 5.359755092807809e-16 5.351343584027784e-16 5.348424515863093e-16 5.348972654360357e-16 5.347262818626952e-16
          5.34588687099011e-16 5.344024011112505e-16 5.341567993925632e-16 5.338846650233882e-16 5.336524117162851e-16 5.335543021792677e-16
          5.336810347012509e-16 5.340409918589274e-16 6.426438771142041e-16 6.370947123156207e-16 6.009547503033297e-16 6.039764246707067e-16
          6.208639005016325e-16 5.917549702675519e-16 5.927594666376723e-16 5.751623970512622e-16 5.522183391630144e-16 5.507234890805722e-16
          5.066698499168815e-16 5.227200579468185e-16 4.704139520070581e-16 4.994063337797134e-16 4.51610466353368e-16 4.860818471630959e-16
          4.551406829091435e-16 4.861748626790042e-16 5.141020255927383e-16 5.169527847112867e-16 6.390980885690841e-16 5.837961061383805e-16
          5.487844360318588e-16 5.489042316838462e-16 5.479729904023685e-16 5.457442175425365e-16 5.419583323608007e-16 5.371893839055276e-16
          5.324650600323368e-16 5.288693138883765e-16 5.272159832120349e-16 5.280917265217516e-16 5.316408486124581e-16 5.327540837726789e-16
          5.324994911404831e-16 5.332999407712657e-16 5.339231076202211e-16 5.346880257234714e-16 5.356085018343e-16 5.365314045123049e-16
          5.371853998039293e-16 5.372229239752049e-16 5.3637990921366815e-16 5.347875735172395e-16 7.453288366644278e-16 6.923409484429962e-16
          5.844431905083952e-16 6.123589119506999e-16 5.632578071644744e-16 5.185586740343016e-16 5.146692426189422e-16 4.984239223062627e-16
          6.534797600858549e-16 5.814501670215766e-16 8.82277126893689e-16 7.1818485839592065e-16 1.0829302561013492e-15 8.4291463874982485e-16
          1.159324011047094e-15 8.983500374343815e-16 1.0218254675406282e-15 8.314334570340652e-16 8.374268450204206e-16 7.230776883171501e-16
          1.0868236713943193e-15 8.226041451778673e-16 5.060732440494021e-16 5.079569528608992e-16 5.037464919332645e-16 5.068174327701747e-16
          5.191916766377428e-16 5.401657740778374e-16 5.633909503094934e-16 5.800527122502855e-16 5.823885936162235e-16 5.682670491956082e-16
          5.466020148612952e-16 5.356010555250096e-16 5.365249184848264e-16 5.336334429624004e-16 5.31456263546766e-16 5.289627793181873e-16
          5.262389582575225e-16 5.238828792206862e-16 5.227293606789021e-16 5.237357407049451e-16 5.2780556677733695e-16 5.348194107611749e-16
          2.6310266544917837e-15 2.3137373633204955e-15 1.7439366514532223e-15 1.943412014344792e-15 1.5556711026741536e-15 1.2645951447360199e-15
          1.0538300331000143e-15 8.9880459144922e-16 1.562197820751409e-15 1.0835780619469246e-15 2.752575107799678e-15 1.7167706382357554e-15
          3.7135117090325705e-15 2.300540496506307e-15 3.849683154713726e-15 2.4314092609684872e-15 2.8585684644618313e-15 1.904612346392038e-15
          2.489324867033742e-15 1.6072419552252534e-15 4.409073635399977e-15 2.526973038193064e-15 8.657069178705849e-16 9.045809488460951e-16
          7.689029053151865e-16 6.569404745891665e-16 5.90799934163848e-16 6.326111270067262e-16 7.386155338440772e-16 8.005893163861456e-16
          7.630425360178313e-16 6.39720500681894e-16 5.90774366088248e-16 5.57277896155221e-16 5.533645234943899e-16 5.642866238324868e-16
          5.701017993799078e-16 5.76641565185256e-16 5.842560853416201e-16 5.896617837081104e-16 5.88043265549042e-16 5.754288437134183e-16
          5.542819579470234e-16 5.366762911903439e-16 7.270388549155235e-15 5.96085024313455e-15 4.446360162356248e-15 5.341432404331393e-15
          4.358582734038803e-15 3.1372140368068974e-15 5.815886162700088e-15 3.682522810015561e-15 9.90444855313004e-15 6.0556352866477506e-15
          1.4016623477568173e-14 8.598918718377321e-15 1.6109010561305084e-14 1.0008051924416217e-14 1.4557917841310878e-14 9.276818727831976e-15
          9.697551314383159e-15 6.480216176086923e-15 1.0324721910221055e-14 6.143763131364778e-15 1.9767989510946903e-14 1.0662112058920288e-14
          2.246564596333892e-14 1.2277151706643996e-14 1.7175680187032408e-15 1.9501118240074632e-15 1.2164141156245686e-15 1.0276613853471185e-15
          1.3536584485063127e-15 1.847550663880631e-15 2.216039853995636e-15 2.2495032630089784e-15 1.874783159138595e-15 1.2698035444386689e-15
          1.1597077003771732e-15 1.474516413500252e-15 5.03265955828536e-16 4.877473885073758e-16 5.169828916741468e-16 5.06163313363203e-16
          5.004948768471664e-16 5.138873685747907e-16 5.249864204639213e-16 5.03286911664879e-16 4.866852804865042e-16 5.768027363688369e-16
          7.63180793860671e-16 8.603753770514338e-16 1.1647444481342288e-14 1.3897424518099842e-14 9.730897245577801e-15 8.99019372368335e-15
          2.3182690431215577e-14 1.4491605991500063e-14 3.903283436574023e-14 2.405376585851356e-14 5.497394283773131e-14 3.420257830026557e-14
          6.514119684576378e-14 4.089413643597305e-14 6.475676314717095e-14 4.1163710748407713e-14 5.023803702439669e-14 3.2936835964045876e-14
          3.370563393608349e-14 2.2270403161259618e-14 4.9835371972616895e-14 2.7979691497739768e-14 9.09012976878955e-14 4.8930716682325786e-14
          9.38757969770921e-14 5.1866618911975764e-14 4.857004911688669e-14 2.845643450890797e-14 5.417312264142056e-14 2.9327781276477334e-14
          3.4924154905253807e-15 3.855909595675834e-15 3.6269022590627514e-15 5.245839382802345e-15 7.409381153836984e-15 9.014118521144756e-15
          9.4452405665107e-15 8.377508167401982e-15 5.883547265165652e-15 3.701864349699788e-15 4.543405411217197e-15 6.134870546716029e-15
          5.008231850456234e-15 2.7217614791875853e-15 1.4204610079950014e-15 1.3788762253272535e-15 1.4532829663409555e-15 1.416981414317796e-15
          1.3875485448741316e-15 1.38116101610718e-15 1.3198227833769145e-15 1.1193814311089079e-15 9.3192214389556e-16 1.2797176765369306e-15
          2.1266751456783188e-15 2.4123002465726338e-15 1.6736437999832186e-15 9.610830468410651e-16 1.0427114071691926e-13 1.2701698138963754e-13
          8.302141542360175e-14 6.902983696299844e-14 1.7968017567284236e-13 1.1606024220377926e-13 2.3360938122263973e-13 1.505372445870481e-13
          2.691646123429867e-13 1.7340417639847263e-13 2.729878347687466e-13 1.7635767781429196e-13 2.327426616256241e-13 1.5244966639258724e-13
          1.5290226368677714e-13 1.0381954094908623e-13 1.3466567661365645e-13 8.310996251264101e-14 2.5948884036159026e-13 1.413662863881674e-13
          4.1290334471055056e-13 2.2533355279656294e-13 3.873618812316771e-13 2.173394212396841e-13 2.0385492227367455e-13 1.1986986068984869e-13
          2.405897359283818e-13 1.2907851089270688e-13 2.2219953023416015e-14 1.9700378855848306e-14 2.873762456409063e-14 3.607261520010316e-14
          4.096593712091563e-14 4.175945450180421e-14 3.765355576183581e-14 2.869037149890465e-14 1.741465859299335e-14 1.4444796021350313e-14
          2.3158924130335508e-14 2.8085759461279605e-14 2.077406232432091e-14 1.0584573350665555e-14 5.41405658926607e-15 5.612224502618977e-15
          5.034940393465137e-15 4.6801224487498814e-15 4.288133787872701e-15 3.791388143771056e-15 3.1504403641212404e-15 2.6439247864139607e-15
          3.2750687743611284e-15 5.645859627956075e-15 8.554087378095642e-15 8.854557674868125e-15 5.6633255426189895e-15 3.601860844299169e-15
          8.878006157072454e-13 9.509230925623731e-13 6.435792341694198e-13 6.044760579860264e-13 1.0753828066941035e-12 7.202580606595277e-13
          1.1565017754954416e-12 7.684213016143424e-13 1.137000849007177e-12 7.522076359422389e-13 9.83896563243607e-13 6.531639519060649e-13
          6.892561086047905e-13 4.678479100376522e-13 4.707448788687498e-13 3.10324095342064e-13 7.279214891513162e-13 4.110463953244651e-13
          1.3677534929259465e-12 7.508922867461072e-13 1.840968863357898e-12 1.0254844251055907e-12 1.5679993213719269e-12 8.947801822569493e-13
          8.722875040622561e-13 5.110821285476346e-13 1.1069025775584995e-12 5.877642007616929e-13 1.869510553178652e-13 1.8109018323669297e-13
          1.981215893394362e-13 2.028024910114524e-13 1.93582569688567e-13 1.6835245685102955e-13 1.2830223347829403e-13 7.982617235887882e-14
          5.461581239466782e-14 7.93528753116559e-14 1.2156276896559038e-13 1.2630162593477645e-13 8.509851087442479e-14 4.377255866182396e-14
          3.7666734859263724e-14 4.1028866208578236e-14 3.110986405392075e-14 2.5264154289661496e-14 1.975071649983325e-14 1.4273573133536246e-14
          1.0164755486074191e-14 9.749032902379335e-15 1.506032329172168e-14 2.4674670057043686e-14 3.312555107789767e-14 3.1042208727580965e-14
          2.0320268715836582e-14 1.891929335876136e-14 5.071848093633869e-12 5.0975103981740525e-12 3.5318066436514508e-12 3.533099366921266e-12
          5.029813734171577e-12 3.4472215083360176e-12 4.6468057482205116e-12 3.15648361583112e-12 3.853030164339836e-12 2.6107119082284165e-12
          2.6695385437472213e-12 1.828926888062631e-12 1.7738762181669869e-12 1.180751863942204e-12 2.431315081647506e-12 1.4178577298081013e-12
          4.590388165224952e-12 2.582607694296069e-12 6.915246964372447e-12 3.90270457110499e-12 7.975985145278387e-12 4.533162318728535e-12
          6.1635367232547595e-12 3.5730728896768065e-12 3.7944494810539535e-12 2.1896476653505314e-12 5.237687527550789e-12 2.7521436850842373e-12
          1.1026760764307618e-12 1.1293367545685988e-12 1.0256456660961202e-12 9.011826474348427e-13 7.309699780157093e-13 5.254353107147341e-13
          3.187415271658854e-13 2.2987611548357176e-13 3.246286312756103e-13 4.948602941011782e-13 6.030185615604699e-13 5.438370662419867e-13
          3.398863838053455e-13 1.9302880100515518e-13 2.392492637326749e-13 2.6432286892853446e-13 1.8666204969178112e-13 1.362038114279568e-13
          9.354630391442107e-14 6.255538905142749e-14 4.985554461434961e-14 5.5351852998446764e-14 7.443003918403386e-14 9.955841036482476e-14
          1.1569763094225693e-13 1.0506507638511945e-13 9.492691796358131e-14 1.1945775939262514e-13 2.0540093832794012e-11 1.9661892008881215e-11
          1.3811969059575268e-11 1.4492986483273502e-11 1.7030486768859857e-11 1.1856741113638713e-11 1.2863898048424304e-11 8.910520510379131e-12
          8.231738224354686e-12 5.686219046964601e-12 6.8618290537616534e-12 4.44827725989889e-12 1.0907361358217204e-11 6.57939417118461e-12
          1.8436849227779026e-11 1.0867844536043988e-11 2.6778431472382442e-11 1.560820622693142e-11 3.297410355301868e-11 1.9079098111598474e-11
          3.299794118606996e-11 1.9074771242078445e-11 2.3546833992369824e-11 1.3765029611447391e-11 1.7316390342485917e-11 9.707568209197017e-12
          2.542770671591923e-11 1.3321134447003901e-11 4.520947476687361e-12 4.828700973349859e-12 3.741815715896385e-12 2.752102835407421e-12
          1.7661427381007447e-12 1.1889703445388584e-12 1.3064187504361666e-12 1.8459243740582427e-12 2.4274372227106848e-12 2.8074993869519823e-12
          2.789140853674855e-12 2.219637975519951e-12 1.3483014758428497e-12 9.859640026656924e-13 1.0798488431054036e-12 1.2115228129467283e-12
          8.006359733752026e-13 5.470626984808851e-13 3.9158560662697296e-13 3.43215223041589e-13 3.6141051672031705e-13 3.930089038075349e-13
          4.1689346394097234e-13 4.309061037256965e-13 4.266804092627799e-13 4.560507205149418e-13 5.978568757775814e-13 7.573658272428127e-13
          4.1244760390775074e-11 3.611070139068594e-11 2.5859462372367445e-11 2.9543660650233337e-11 2.7964796351027556e-11 1.9907159014311944e-11
          3.093312443316263e-11 2.1274810453564364e-11 4.586606422570269e-11 3.0359492436978996e-11 6.719578702112477e-11 4.3056428576732893e-11
          9.317336505269877e-11 5.8087956707542145e-11 1.188079095306987e-10 7.240387325848776e-11 1.386053790624873e-10 8.275611815839675e-11
          1.4511972474596074e-10 8.524094914186573e-11 1.2570739915127337e-10 7.3360825848663e-11 8.617693519094569e-11 4.997375929699581e-11
          8.397437089645169e-11 4.5945221179953854e-11 1.26363164948293e-10 6.710021579969858e-11 9.488268781249186e-12 1.0776339919844668e-11
          7.359896167401541e-12 7.200514011496402e-12 8.926577474914018e-12 1.1088011601858096e-11 1.3195713816262188e-11 1.4661734585088348e-11