<?xml version="1.0"?>
<VTKFile type="UnstructuredGrid" version="0.1" byte_order="LittleEndian" header_type="UInt32" compressor="vtkZLibDataCompressor">
  <UnstructuredGrid>
    <Piece NumberOfPoints="1379" NumberOfCells="832">
      <PointData>
        <DataArray type="Int32" Name="libmesh_node_id" format="ascii" RangeMin="2200" RangeMax="6945">
          2200 2320 2424 2429 2431 2570
          2571 2572 2573 2574 2575 2576
          2578 2579 2580 2581 2582 2583
          2608 2609 2610 2611 2618 2619
          2762 2763 2766 2767 2769 2770
          2771 2776 2777 2778 2779 2906
          2913 2935 2936 2939 2940 2942
          2943 2944 2945 2946 2948 2949
          2950 2951 2952 2953 2954 2955
          2956 2957 2958 2959 2960 2961
          2962 2963 2964 2965 2966 2967
          2968 2969 2970 2971 2972 2973
          2974 2975 2976 2977 2978 2979
          2980 2981 2982 2983 2984 2985
          2986 2987 2988 2989 2990 2991
          2992 2993 2994 2995 2996 2997
          2998 2999 3000 3001 3002 3003
          3004 3005 3006 3031 3032 3033
          3034 3035 3036 3037 3038 3039
          3040 3041 3042 3043 3044 3045
          3046 3047 3048 3059 3060 3063
          3064 3065 3066 3067 3068 3069
          3070 3071 3072 3073 3074 3077
          3079 3080 3082 3083 3084 3085
          3086 3090 3091 3094 3100 3572
          3573 3574 3575 3576 3577 3578
          3579 3580 3581 3582 3583 3584
          3585 3586 3587 3588 3589 3590
          3591 3760 3761 3762 3763 3764
          3765 3766 3767 3768 3769 3770
          3771 3772 3773 3774 3775 3776
          3777 3778 3779 3780 3781 3782
          3783 3784 3785 3786 3787 3788
          3789 3790 3791 3792 3793 3794
          3795 3796 3797 3798 3799 3800
          3801 3802 3803 3804 3805 3806
          3807 3808 3809 3810 3811 3812
          3813 3814 3815 3816 3817 3818
          3819 3820 3821 3822 3823 3824
          3825 3826 3827 3828 3829 3830
          3831 3832 3833 3834 3835 3836
          3837 3838 3839 3840 3841 3842
          3843 3844 3845 3846 3847 3848
          3849 3850 3851 3852 3853 3854
          3855 3856 3857 3858 3859 3860
          3861 3862 3863 3864 3865 3866
          3867 3868 3869 3870 3871 3872
          3873 3874 3875 3876 3877 3878
          3879 3880 3881 3882 3883 3884
          3885 3886 3887 3888 3889 3890
          3891 3892 3893 3894 3895 3896
          3897 3898 3899 3900 3901 3902
          3903 3904 3905 3906 3907 3908
          3909 3910 3911 3912 3913 3914
          3915 3916 3917 3918 3919 3920
          3921 3922 3923 3924 3925 3926
          3927 3928 3929 3930 3931 3932
          3933 3934 3935 3936 3937 3938
          3939 3940 3941 3942 3943 3944
          3945 3946 3947 3948 3949 3950
          3952 3953 3954 3955 3970 3971
          3974 3975 3977 3978 3979 3990
          3991 3992 3993 3994 3995 3996
          3997 3998 3999 4000 4001 4002
          4003 4004 4005 4006 4007 4008
          4009 4010 4011 4012 4013 4014
          4015 4016 4017 4018 4019 4020
          4021 4022 4023 4024 4025 4026
          4027 4028 4029 4030 4031 4032
          4033 4034 4035 4036 4037 4038
          4039 4040 4041 4042 4043 4044
          4045 4046 4047 4048 4049 4050
          4051 4052 4053 4054 4055 4056
          4057 4058 4059 4060 4061 4072
          4073 4074 4075 4076 4077 4078
          4086 4087 4088 4089 4090 4091
          4092 4093 4094 4095 4106 4107
          4108 4109 4110 4111 4112 4120
          4121 4122 4123 4128 4129 4130
          4134 4135 4137 4138 4139 4140
          4141 4142 4143 4174 4175 4176
          4177 4178 4179 4180 5538 5539
          5540 5544 5545 5548 5549 5744
          5745 5746 5747 5748 5749 5750
          5751 5752 5753 5754 5755 5756
          5757 5758 5759 5760 5761 5762
          5763 5764 5765 5766 5767 5768
          5769 5770 5771 5772 5773 5774
          5775 5776 5777 5778 5779 5780
          5781 5782 5783 5784 5785 5786
          5787 5788 5789 5790 5791 5792
          5793 5794 5795 5796 5797 5798
          5799 5800 5801 5802 5803 5804
          5805 5806 5807 5808 5809 5810
          5811 5812 5813 5814 5815 5816
          5817 5818 5819 5820 5821 5822
          5823 5824 5825 5826 5827 5828
          5829 5830 5831 5832 5833 5834
          5835 5836 5837 5838 5839 5840
          5841 5842 5843 5844 5845 5846
          5847 5848 5849 5850 5851 5852
          5853 5854 5855 5856 5857 5858
          5859 5860 5861 5862 5863 5864
          5865 5866 5867 5868 5869 5870
          5871 5872 5873 5874 5875 5876
          5877 5878 5879 5880 5881 5882
          5883 5884 5885 5886 5887 5888
          5889 5890 5891 5892 5893 5894
          5895 5896 5897 5898 5899 5900
          5901 5902 5903 5904 5905 5906
          5907 5908 5909 5910 5911 5912
          5913 5917 5918 5938 5939 5958
          5959 5960 5961 5962 5963 5964
          5965 5966 5967 5968 5969 5970
          5971 5972 5973 5974 5975 5976
          5977 5980 5981 5983 5985 6026
          6027 6028 6029 6030 6031 6032
          6033 6034 6035 6036 6037 6038
          6039 6040 6041 6042 6043 6044
          6045 6046 6047 6048 6049 6050
          6051 6052 6053 6054 6055 6056
          6057 6058 6059 6060 6061 6062
          6063 6064 6065 6066 6067 6068
          6069 6070 6071 6072 6073 6074
          6075 6076 6077 6078 6079 6080
          6081 6082 6083 6084 6085 6086
          6087 6088 6089 6090 6091 6092
          6093 6094 6095 6096 6097 6098
          6099 6100 6101 6102 6103 6104
          6105 6106 6107 6108 6109 6110
          6111 6112 6113 6114 6115 6116
          6117 6118 6119 6120 6121 6122
          6123 6124 6125 6126 6127 6128
          6129 6130 6131 6132 6133 6134
          6135 6136 6137 6138 6139 6140
          6141 6142 6143 6144 6145 6146
          6147 6148 6149 6150 6151 6152
          6153 6154 6155 6156 6157 6158
          6159 6228 6229 6230 6231 6232
          6233 6234 6235 6236 6237 6238
          6239 6240 6241 6242 6243 6244
          6245 6246 6247 6248 6249 6250
          6251 6252 6253 6254 6255 6256
          6257 6258 6259 6260 6261 6262
          6263 6264 6265 6266 6267 6324
          6325 6326 6327 6328 6329 6330
          6331 6332 6333 6334 6335 6336
          6337 6338 6339 6340 6341 6342
          6343 6344 6345 6346 6347 6348
          6349 6350 6351 6352 6353 6354
          6355 6356 6357 6358 6359 6360
          6361 6362 6363 6364 6365 6366
          6367 6368 6369 6370 6371 6372
          6373 6374 6375 6376 6377 6378
          6379 6380 6449 6450 6451 6452
          6453 6454 6455 6456 6457 6458
          6459 6460 6461 6462 6463 6464
          6465 6466 6467 6468 6469 6470
          6471 6472 6473 6474 6475 6476
          6477 6478 6479 6480 6481 6482
          6483 6484 6485 6486 6487 6488
          6545 6546 6547 6548 6549 6550
          6551 6552 6553 6554 6555 6556
          6557 6558 6559 6560 6561 6562
          6563 6564 6565 6566 6567 6568
          6569 6570 6571 6572 6573 6574
          6575 6576 6577 6578 6579 6580
          6581 6582 6583 6584 6585 6586
          6587 6588 6589 6590 6591 6592
          6661 6662 6664 6665 6666 6672
          6689 6691 6692 6696 6777 6778
          6779 6780 6781 6782 6783 6784
          6785 6786 6787 6788 6789 6790
          6791 6792 6793 6794 6795 6796
          6797 6798 6799 6800 6801 6802
          6803 6804 6805 6806 6807 6808
          6809 6810 6811 6812 6813 6814
          6815 6816 6873 6875 6876 6880
          6893 6895 6896 6900 2422 2577
          2598 2588 2565 2599 2589 2425
          2600 2601 2430 2605 2596 2606
          2615 2636 2616 2637 2712 2716
          2717 2713 2419 2423 2420 2724
          2725 2433 2434 2764 2765 2768
          2772 2773 2774 2775 2421 2560
          2780 2781 2782 2783 2784 2785
          2435 2612 2436 2901 2561 2905
          2902 2903 2907 2904 2911 2912
          2910 2909 2568 2914 2937 2938
          2941 2947 2562 2927 2928 2931
          2933 3049 3050 3051 3052 3056
          3057 3087 3088 3089 3092 2621
          3171 3172 3175 3176 3178 3180
          3567 3568 3571 3592 3593 3594
          3597 3598 3951 3956 3957 3958
          3959 3963 3964 3972 3973 3976
          4154 4124 4155 4125 4161 4127
          4188 4131 4192 4133 5546 5547
          5550 3062 4136 3093 5558 5541
          5559 5542 5560 5561 4156 5914
          5915 5916 5919 5920 5921 3966
          5922 5923 3967 5940 5941 5942
          5943 5944 5945 5946 5947 3969
          5978 5979 5982 5984 5986 5987
          5990 5991 5993 5995 6006 6007
          6013 6160 6161 6164 6166 6167
          6169 6180 6182 6184 6186 6194
          6195 6198 6200 6201 6203 6214
          6216 6218 6220 6268 6270 6272
          6274 6282 6015 6284 6286 6288
          6296 6298 6300 6302 6310 6312
          6314 6316 6381 6382 6385 6387
          6388 6390 6401 6403 6405 6407
          6415 6416 6419 6421 6422 6424
          6435 6437 6439 6441 6489 6491
          6493 6495 6503 6505 6507 6509
          6517 6519 6521 6523 6531 6533
          6535 6537 6593 6594 6597 6598
          6600 6602 6613 6614 6617 6618
          6620 6622 6633 6635 6637 6639
          6647 6649 6651 6653 6667 6668
          6669 6670 6663 6671 6673 6674
          4157 6693 6694 6690 6695 6697
          6698 4162 6709 6710 6716 6749
          6753 6817 6819 6821 6823 6831
          6833 6835 6837 6845 6847 6849
          6851 6859 6861 6863 6865 6877
          6878 6874 6879 6881 6882 4189
          6897 6898 6894 6899 6901 6902
          4193 6913 6917 6941 6945
        </DataArray>
        <DataArray type="Float64" Name="bounds" format="ascii" RangeMin="0" RangeMax="0">
          0 0 0 0 0 0
          0 0 0 0 0 0
          0 0 0 0 0 0
          0 0 0 0 0 0
          0 0 0 0 0 0
          0 0 0 0 0 0
          0 0 0 0 0 0
          0 0 0 0 0 0
          0 0 0 0 0 0
          0 0 0 0 0 0
          0 0 0 0 0 0
          0 0 0 0 0 0
          0 0 0 0 0 0
          0 0 0 0 0 0
          0 0 0 0 0 0
          0 0 0 0 0 0
          0 0 0 0 0 0
          0 0 0 0 0 0
          0 0 0 0 0 0
          0 0 0 0 0 0
          0 0 0 0 0 0
          0 0 0 0 0 0
          0 0 0 0 0 0
          0 0 0 0 0 0
          0 0 0 0 0 0
          0 0 0 0 0 0
          0 0 0 0 0 0
          0 0 0 0 0 0
          0 0 0 0 0 0
          0 0 0 0 0 0
          0 0 0 0 0 0
          0 0 0 0 0 0
          0 0 0 0 0 0
          0 0 0 0 0 0
          0 0 0 0 0 0
          0 0 0 0 0 0
          0 0 0 0 0 0
          0 0 0 0 0 0
          0 0 0 0 0 0
          0 0 0 0 0 0
          0 0 0 0 0 0
          0 0 0 0 0 0
          0 0 0 0 0 0
          0 0 0 0 0 0
          0 0 0 0 0 0
          0 0 0 0 0 0
          0 0 0 0 0 0
          0 0 0 0 0 0
          0 0 0 0 0 0
          0 0 0 0 0 0
          0 0 0 0 0 0
          0 0 0 0 0 0
          0 0 0 0 0 0
          0 0 0 0 0 0
          0 0 0 0 0 0
          0 0 0 0 0 0
          0 0 0 0 0 0
          0 0 0 0 0 0
          0 0 0 0 0 0
          0 0 0 0 0 0
          0 0 0 0 0 0
          0 0 0 0 0 0
          0 0 0 0 0 0
          0 0 0 0 0 0
          0 0 0 0 0 0
          0 0 0 0 0 0
          0 0 0 0 0 0
          0 0 0 0 0 0
          0 0 0 0 0 0
          0 0 0 0 0 0
          0 0 0 0 0 0
          0 0 0 0 0 0
          0 0 0 0 0 0
          0 0 0 0 0 0
          0 0 0 0 0 0
          0 0 0 0 0 0
          0 0 0 0 0 0
          0 0 0 0 0 0
          0 0 0 0 0 0
          0 0 0 0 0 0
          0 0 0 0 0 0
          0 0 0 0 0 0
          0 0 0 0 0 0
          0 0 0 0 0 0
          0 0 0 0 0 0
          0 0 0 0 0 0
          0 0 0 0 0 0
          0 0 0 0 0 0
          0 0 0 0 0 0
          0 0 0 0 0 0
          0 0 0 0 0 0
          0 0 0 0 0 0
          0 0 0 0 0 0
          0 0 0 0 0 0
          0 0 0 0 0 0
          0 0 0 0 0 0
          0 0 0 0 0 0
          0 0 0 0 0 0
          0 0 0 0 0 0
          0 0 0 0 0 0
          0 0 0 0 0 0
          0 0 0 0 0 0
          0 0 0 0 0 0
          0 0 0 0 0 0
          0 0 0 0 0 0
          0 0 0 0 0 0
          0 0 0 0 0 0
          0 0 0 0 0 0
          0 0 0 0 0 0
          0 0 0 0 0 0
          0 0 0 0 0 0
          0 0 0 0 0 0
          0 0 0 0 0 0
          0 0 0 0 0 0
          0 0 0 0 0 0
          0 0 0 0 0 0
          0 0 0 0 0 0
          0 0 0 0 0 0
          0 0 0 0 0 0
          0 0 0 0 0 0
          0 0 0 0 0 0
          0 0 0 0 0 0
          0 0 0 0 0 0
          0 0 0 0 0 0
          0 0 0 0 0 0
          0 0 0 0 0 0
          0 0 0 0 0 0
          0 0 0 0 0 0
          0 0 0 0 0 0
          0 0 0 0 0 0
          0 0 0 0 0 0
          0 0 0 0 0 0
          0 0 0 0 0 0
          0 0 0 0 0 0
          0 0 0 0 0 0
          0 0 0 0 0 0
          0 0 0 0 0 0
          0 0 0 0 0 0
          0 0 0 0 0 0
          0 0 0 0 0 0
          0 0 0 0 0 0
          0 0 0 0 0 0
          0 0 0 0 0 0
          0 0 0 0 0 0
          0 0 0 0 0 0
          0 0 0 0 0 0
          0 0 0 0 0 0
          0 0 0 0 0 0
          0 0 0 0 0 0
          0 0 0 0 0 0
          0 0 0 0 0 0
          0 0 0 0 0 0
          0 0 0 0 0 0
          0 0 0 0 0 0
          0 0 0 0 0 0
          0 0 0 0 0 0
          0 0 0 0 0 0
          0 0 0 0 0 0
          0 0 0 0 0 0
          0 0 0 0 0 0
          0 0 0 0 0 0
          0 0 0 0 0 0
          0 0 0 0 0 0
          0 0 0 0 0 0
          0 0 0 0 0 0
          0 0 0 0 0 0
          0 0 0 0 0 0
          0 0 0 0 0 0
          0 0 0 0 0 0
          0 0 0 0 0 0
          0 0 0 0 0 0
          0 0 0 0 0 0
          0 0 0 0 0 0
          0 0 0 0 0 0
          0 0 0 0 0 0
          0 0 0 0 0 0
          0 0 0 0 0 0
          0 0 0 0 0 0
          0 0 0 0 0 0
          0 0 0 0 0 0
          0 0 0 0 0 0
          0 0 0 0 0 0
          0 0 0 0 0 0
          0 0 0 0 0 0
          0 0 0 0 0 0
          0 0 0 0 0 0
          0 0 0 0 0 0
          0 0 0 0 0 0
          0 0 0 0 0 0
          0 0 0 0 0 0
          0 0 0 0 0 0
          0 0 0 0 0 0
          0 0 0 0 0 0
          0 0 0 0 0 0
          0 0 0 0 0 0
          0 0 0 0 0 0
          0 0 0 0 0 0
          0 0 0 0 0 0
          0 0 0 0 0 0
          0 0 0 0 0 0
          0 0 0 0 0 0
          0 0 0 0 0 0
          0 0 0 0 0 0
          0 0 0 0 0 0
          0 0 0 0 0 0
          0 0 0 0 0 0
          0 0 0 0 0 0
          0 0 0 0 0 0
          0 0 0 0 0 0
          0 0 0 0 0 0
          0 0 0 0 0 0
          0 0 0 0 0 0
          0 0 0 0 0 0
          0 0 0 0 0 0
          0 0 0 0 0 0
          0 0 0 0 0 0
          0 0 0 0 0 0
          0 0 0 0 0 0
          0 0 0 0 0 0
          0 0 0 0 0 0
          0 0 0 0 0 0
          0 0 0 0 0 0
          0 0 0 0 0 0
          0 0 0 0 0 0
          0 0 0 0 0 0
          0 0 0 0 0 0
          0 0 0 0 0 0
          0 0 0 0 0 0
          0 0 0 0 0 0
          0 0 0 0 0
        </DataArray>
        <DataArray type="Float64" Name="gradient_error" format="ascii" RangeMin="1.0701942630843202e-11" RangeMax="5.7374983107221176e-8">
          6.773710066125137e-11 6.767700453206654e-10 5.876419021335249e-9 3.3328548836440153e-8 2.1053734994769846e-8 1.0496341135922952e-8
          7.715381055485463e-9 2.1654537589401503e-8 2.99666950929724e-8 4.253402060239034e-9 1.754619298954493e-8 2.5155401411891825e-8
          2.0467238546184053e-8 1.2002673606129466e-8 6.728387862942128e-10 3.580351345151279e-8 3.768638004901017e-8 3.313621247982602e-8
          2.732974631943144e-9 1.9517660670508127e-9 8.52213691795106e-9 1.441326470130647e-8 1.0239528894743274e-9 2.2978666407435536e-8
          8.414350177044743e-11 1.650523080417356e-10 5.532548731522727e-9 4.428212581091586e-9 9.922298428934444e-11 2.9335864650916717e-9
          2.3359266416411922e-9 5.1846807326229376e-11 6.718142209895797e-11 1.3514699684682017e-9 1.0682776757083539e-9 3.6078775027484955e-8
          3.4992724413535903e-8 1.2112458034807725e-8 1.1036906491568654e-8 2.431763795954934e-8 2.2018087314212957e-8 9.081170050002266e-9
          2.228776832598281e-8 2.0024331743918e-8 8.281865295617927e-9 1.6382603312891963e-8 1.457402976976821e-8 2.256288260885019e-8
          3.4046024149759766e-8 2.6507621634030283e-8 3.780886002428574e-8 7.905294465872513e-9 7.1341912630681535e-9 1.9588010993695693e-8
          1.7450038459046174e-8 5.376041470465929e-9 1.6417873845821496e-8 1.4407088975430873e-8 5.248464043021484e-9 1.2402464949759938e-8
          9.986579142263707e-9 1.997281273609453e-8 1.7789092116794892e-8 2.2209479650485018e-8 2.0999799169032828e-8 1.1893022242924627e-8
          2.3843332837498973e-8 1.37220906127456e-8 1.8763390211206315e-8 4.204271167120322e-8 3.6580236491267605e-8 4.401157267720547e-9
          9.969699437143173e-9 9.110198123789384e-9 3.3314465353559886e-8 1.496352286003012e-8 1.3201223368898075e-8 1.579673226535229e-8
          1.9818213801657403e-8 3.00161501519467e-8 3.575740818117393e-8 6.278357135834278e-10 7.546106328501591e-9 8.139794043356243e-9
          3.735606534416572e-8 2.2544739081397928e-8 3.6420253004145984e-8 2.122504586695206e-8 3.653290062820471e-8 1.5008090737409268e-8
          2.4342283416336577e-8 2.2917643112445764e-8 4.2291929521539116e-8 4.3454411620183345e-8 2.82592244390322e-8 1.933042577356256e-8
          3.569336012863496e-8 1.701256861244296e-8 3.382243407908934e-8 1.1900170281400368e-8 2.1108424638958902e-8 1.3841856279352761e-8
          4.3574779372578464e-8 4.239682588189303e-8 2.526244211551715e-8 2.4251299247240876e-9 3.0868848389903008e-9 2.3349975284474803e-9
          3.7486397532565144e-9 4.214163431680527e-9 3.8381449061283116e-9 1.3070644713996795e-8 1.131492494549723e-8 2.560911786278776e-9
          6.711393865930744e-9 5.771708288504805e-9 2.784017890296313e-9 7.682701594605543e-9 3.882477446016648e-9 1.4628045579610532e-8
          2.5442676872041192e-8 1.3636077764885454e-8 2.8374331996703907e-8 3.9961917588557895e-10 3.329557625733636e-10 1.6128837710824136e-8
          2.5357790963906137e-8 1.5755224448088568e-8 1.8588035817597158e-8 3.987489215602777e-8 2.253989169330106e-8 8.499062219516528e-10
          8.470877828784172e-9 1.548963459244183e-8 3.652754761722729e-8 1.7224682089786514e-9 1.3887864141862718e-9 7.444516012989167e-10
          1.2454775382276794e-9 1.6474849397831917e-9 1.1810093650574e-9 1.4444039443383793e-8 3.092717817082005e-8 7.107839990657945e-9
          1.6083811336407317e-8 3.976189926998004e-8 2.133829423391097e-8 2.586677655604346e-10 4.484031544059246e-10 5.2597618850200766e-9
          9.900331780531536e-9 4.238087866659036e-9 8.53839498216854e-9 3.917148127133879e-9 6.753993604155726e-9 5.689625586653855e-9
          3.2752654068096724e-9 7.062088034621673e-9 2.4049745876836955e-9 5.591034768141974e-9 2.416690787840172e-9 4.631312094120128e-9
          3.6052153567967887e-9 1.6500324408414049e-9 4.22282712797447e-9 1.0555045641885572e-9 2.0882024162517708e-9 1.1941554816662806e-9
          2.639456243735515e-9 8.64312451087568e-9 9.336253998701009e-9 9.018044778722656e-9 8.699835558744303e-9 9.4989445408378e-9
          8.80401888845059e-9 9.126913688547238e-9 9.017555588733609e-9 9.188749450046306e-9 8.430187142361251e-9 9.103820202443538e-9
          8.738338993714442e-9 9.403621516436487e-9 8.722251132265843e-9 8.59442656507992e-9 8.59578040089387e-9 8.466601997893993e-9
          8.678487701332388e-9 8.702814510961256e-9 8.730812793139179e-9 8.727141320590123e-9 7.25805728685176e-9 8.754267203522551e-9
          8.6091958080884e-9 8.473613007796306e-9 8.062180219288078e-9 8.485011868585229e-9 8.413934106864349e-9 8.307193549901197e-9
          7.95515050472222e-9 7.028342725014713e-9 6.784529724180516e-9 6.396449424107516e-9 6.894040650981369e-9 7.017650016779372e-9
          6.22063663766177e-9 9.52108830979229e-9 9.221297265815576e-9 9.919704073606747e-9 9.617045501529845e-9 8.921506221838864e-9
          9.314386929452943e-9 1.0590191128809037e-8 1.0263777780931277e-8 1.1544812015804078e-8 9.995001155689691e-9 1.0305819194497103e-8
          9.962353423278628e-9 1.0593770908109798e-8 1.0241072752424928e-8 9.618887652060151e-9 9.549010616847123e-9 1.2893654860511802e-8
          1.2484827318021826e-8 1.327283460920052e-8 1.2169308320842268e-8 9.43158238384377e-9 1.0480317779819252e-8 8.752890166725497e-9
          8.043055293131291e-9 7.215827929201318e-9 1.125752376423636e-8 1.0881882973091565e-8 1.0159122117009615e-8 9.480669238231495e-9
          9.559996637334006e-9 8.550864598588047e-9 9.75620591265384e-9 9.77747313372403e-9 1.0918905744202111e-8 8.100881706163648e-9
          8.44060567935669e-9 7.02890829454662e-9 9.250649756805395e-9 7.719319643887418e-9 9.881217667764609e-9 8.362913604795633e-9
          9.377172363307948e-9 1.193619817182183e-8 1.1492419568154707e-8 7.361864165334191e-10 5.837178855508903e-9 3.6273511814213864e-9
          1.087375085414535e-8 9.543010807371078e-9 1.0397039317354131e-8 9.170399383730608e-9 9.940875373514818e-9 9.654439230898385e-9
          1.031376085488901e-8 9.587908600735718e-9 1.1177638810198214e-8 1.1877101434982517e-8 1.0591326010435456e-8 1.119178388906649e-8
          1.1097753856160068e-8 1.1845405060033094e-8 1.1023529903861295e-8 1.077765139590544e-8 1.043246916966823e-8 1.08624686760072e-8
          1.0504659614808155e-8 9.47147238469839e-9 9.480853046534908e-9 1.439544373865028e-8 1.3949404773310278e-8 1.4504475763300497e-8
          1.2711008279127814e-8 1.0846503708583733e-8 1.0465005392144694e-8 1.0722780675678194e-8 1.031479866829965e-8 9.398236208936024e-9
          9.483628640707947e-9 1.5438022171048748e-8 1.4913515758218004e-8 1.51859100282513e-8 1.3440438869570992e-8 8.0139743264213e-9
          7.95114752550596e-9 7.172290826876837e-9 7.0874395115512145e-9 1.0736945335462015e-8 1.1055511378403833e-8 9.555239920638678e-9
          7.848491300962055e-9 7.779580910623498e-9 6.984017259757722e-9 6.921909220965372e-9 1.1141017499005593e-8 1.2081516919051202e-8
          9.790166604256455e-9 8.912411227345482e-9 8.733052645945045e-9 9.412562571407699e-9 9.208761007549378e-9 1.090417997947865e-8
          1.1469416130992918e-8 6.39557916586159e-10 1.0364209673536211e-9 1.0360023191308157e-9 7.146528283431412e-9 9.86327533674256e-9
          9.682930598693854e-9 1.0252082556858496e-8 1.0100247559934874e-8 1.2037002317428237e-8 1.2527319994722434e-8 6.432938479871339e-10
          1.051261178499437e-9 1.0824865081610065e-9 7.8743580762946e-9 1.2516582299026043e-8 1.3089312233646669e-8 1.173166643197339e-8
          1.2187467381453152e-8 1.2558879854955944e-8 1.3185367037317079e-8 1.2300985252315581e-8 1.3586947204460212e-8 1.396639202503835e-8
          1.2538923922677565e-8 1.2756709551764953e-8 1.3694801361851976e-8 1.4081264573733712e-8 1.3244912518695894e-8 7.81463786773941e-9
          8.026186888668423e-9 7.576884005932122e-9 8.23773590959744e-9 1.6802755294209308e-9 2.174221588652682e-9 2.0254009806561146e-9
          1.7297062027602538e-9 6.731295697649713e-9 7.0033435678108325e-9 4.960600652481706e-9 7.275391437971952e-9 1.1471379797230632e-9
          1.4261689256017047e-9 1.110415861245443e-9 3.3310317888996014e-9 1.4286638818663348e-9 1.333431151140804e-9 1.4184568614075309e-9
          1.3276711284004148e-9 8.337896778821243e-10 5.392053724252273e-10 5.138674085555773e-10 1.1320270077779091e-9 1.1391936910608386e-9
          2.3138149234283877e-9 2.2838205492252133e-9 3.8202324823180145e-10 2.159038140403765e-9 9.190097721200132e-10 9.354095268130259e-10
          7.013000470719195e-10 8.30735454790236e-10 1.835924867137507e-9 2.6330260391275327e-10 1.4871294651990079e-9 1.0478181601294605e-8
          1.0056410344554353e-8 1.010023714298565e-8 9.681221511977594e-9 9.6346390878141e-9 9.262205880969539e-9 1.6027457468394382e-8
          1.533015455726954e-8 1.536157805497065e-8 1.5073778415793103e-8 9.58083785705382e-9 9.165842497126957e-9 8.91248628490683e-9
          8.525098518628797e-9 8.750847137200093e-9 7.662728308164329e-9 1.607709976190265e-8 1.5272028432525458e-8 1.4992061355036787e-8
          1.4870976936797937e-8 1.3948432117209179e-8 1.3811655358251499e-8 1.194123227932844e-8 5.971817021478638e-9 4.501489605219012e-9
          1.3546668320700801e-8 1.1080502896833618e-8 1.1414320037304332e-8 1.058161798020643e-8 1.0400902706213164e-8 1.0851679301849034e-8
          1.060385746829644e-8 1.2817614902787088e-8 1.2926722035867453e-8 7.534458739281634e-10 1.1292598856170402e-9 1.2115946034592348e-9
          8.348694738848949e-9 1.1054093375932407e-8 1.2337939252362146e-8 1.1124909162385927e-8 1.4043052418684659e-8 1.4585507730820233e-8
          1.621658234594386e-8 9.489675909656828e-10 4.9618772360872e-9 8.533852938843818e-9 1.1939982626620569e-8 1.4140905867111911e-8
          1.4116724056053689e-8 1.2803171197616253e-8 1.2688320328253818e-8 1.4333379617014644e-8 1.4421792753855877e-8 1.3665110115904067e-8
          1.395285796806794e-8 1.364731713032405e-8 1.2412275112761066e-8 1.0529388036245616e-8 1.4359047615435078e-8 1.416726508371688e-8
          1.3410230188217804e-8 4.772860531967652e-9 4.569183955011048e-9 8.699021018470605e-10 8.282952621697552e-10 4.050932105837429e-9
          7.156236950128066e-10 8.69962662716128e-9 8.304084042836635e-9 1.6312662165049071e-9 7.148281100899375e-9 3.319733934944122e-9
          5.603824668048152e-10 2.493962478336865e-9 3.9642885822754285e-10 5.561529431937251e-9 1.070232713686067e-9 3.9519290875901345e-9
          6.840594072019141e-9 8.234594823483594e-9 2.5647358146801864e-9 2.459762931889417e-9 9.156732755324529e-9 2.1305764091684004e-9
          1.1612574262821e-9 5.160772616595019e-9 1.4164542897117707e-9 8.765888627700255e-9 7.571131978398519e-9 1.6291402488946074e-9
          5.442874028616237e-9 1.1384306983022374e-9 7.887118877766235e-9 1.5364249165511043e-9 5.929765736383581e-9 1.7757625485257942e-9
          3.1880549104369624e-9 1.9684773666806494e-9 4.8339899661515706e-9 6.676641952815917e-9 4.051285733092459e-9 7.496329870455546e-9
          1.1465002934946193e-9 1.7557595932378816e-9 2.529182275335463e-10 7.144778421798153e-10 1.081263403107751e-9 1.4602416970520614e-10
          2.6893819412161338e-9 4.6429929261151707e-10 1.6277259968945653e-9 3.732630558338745e-9 7.134887476677043e-10 2.254068948508748e-9
          3.9139211570573105e-10 4.195491073946701e-9 7.92869509134732e-10 2.563756584899895e-9 6.325571813494857e-10 8.094991773270021e-10
          5.28873823445852e-10 4.972226252626206e-10 7.020522166493131e-10 3.2128718826640007e-10 4.530126798417791e-10 1.2538652872290668e-9
          1.1489990308010083e-9 1.1461810572051675e-9 1.1433630836093266e-9 1.0384968271812681e-9 1.4175055276066782e-9 1.3644509312544971e-9
          1.5191512123721607e-9 1.3113963349023163e-9 1.6659223196012867e-9 1.5957424207249088e-9 1.6679872009867238e-9 1.525562521848531e-9
          1.549590609756515e-9 1.1476305286109367e-9 1.1725353070880088e-9 1.1603333354732351e-9 1.2183306631159219e-9 1.1974400855650812e-9
          1.2763279907586084e-9 8.77755529615195e-10 9.806196829215205e-10 9.175101138596828e-10 1.083483836227846e-9 1.1824245689012864e-9
          1.251086601181077e-9 1.1983798746028004e-9 1.2685567796833029e-9 1.3197486334608683e-9 1.3860909558468164e-9 6.989268182012859e-10
          9.064307816372457e-10 8.691263583798819e-10 1.1139347450732053e-9 1.473934444707997e-9 1.4670633914031553e-9 1.3982782796594792e-9
          1.7782060782230292e-9 1.751954680162028e-9 1.8297529553150752e-9 1.7087900040559075e-9 1.89180257863653e-9 1.891413073833537e-9
          1.947504000081652e-9 1.888630220451953e-9 1.6425654867523427e-9 1.7694913260541162e-9 1.5932542474938977e-9 1.8302323685923435e-9
          1.88376515300847e-9 1.7742278653113254e-9 1.2167037344946199e-9 1.2781640342543884e-9 1.2372642411324464e-9 1.2960913262943991e-9
          1.411022187823135e-9 1.4297296219356096e-9 6.552013907662106e-10 8.04373388346749e-10 7.624296972737233e-10 1.1132543715903626e-9
          1.2602178915768558e-9 1.3210250556157294e-9 1.287977268841396e-9 1.3478600620137975e-9 1.4612901592159657e-9 1.4901395147242914e-9
          6.286332045171815e-10 7.506370373979208e-10 7.48216123945943e-10 1.033950097979978e-9 1.5005852846944447e-9 1.5507013045301765e-9
          1.5187505277567766e-9 1.5968617766454855e-9 1.358605082636547e-9 1.3319112830062363e-9 1.444246808019656e-9 1.5926961723356526e-9
          1.6293577627577006e-9 1.6446442458939767e-9 1.686179351253018e-9 1.3551599760789617e-9 1.3749503725069312e-9 1.5150606264766275e-9
          2.0036634156190025e-9 2.0033734672447307e-9 2.058516262217044e-9 2.0003997063286854e-9 2.111684354174982e-9 2.1115816953289706e-9
          2.1611175829971686e-9 2.1052159102518046e-9 1.937300762779169e-9 1.987744742504914e-9 1.8768856317714258e-9 2.0311396113668355e-9
          2.071193045255192e-9 1.963326438713022e-9 1.319140688125538e-9 1.3781090975223145e-9 1.350897863978496e-9 1.410185927811072e-9
          1.5210033376459205e-9 1.5530837684380917e-9 6.346179606320734e-10 7.528447277998985e-10 7.618555934050996e-10 1.041606968963156e-9
          1.3827967719931795e-9 1.4432859911584598e-9 1.4194583284470836e-9 1.4792014482373286e-9 1.5850997906126517e-9 1.6167826791131274e-9
          6.539091898113768e-10 7.749902869879492e-10 7.972853134774887e-10 1.064983670973499e-9 1.6657576705763439e-9 1.7004051126916931e-9
          1.7265861727799378e-9 1.764116680150851e-9 1.394214578373519e-9 1.4130654828784724e-9 1.57628671378845e-9 1.7308983046689235e-9
          1.7597441348592286e-9 1.795372238436284e-9 1.8248674795197762e-9 1.4306569979710115e-9 1.4482952244632658e-9 1.627418038159546e-9
          2.8102338701582795e-10 3.1878867829332333e-10 3.1522583458664876e-10 3.067744025115689e-10 4.834167533434956e-10 2.5089135866993225e-10
          2.480925131882847e-10 2.985015484489434e-10 2.952220126550101e-10 2.0072430802543548e-10 2.607313952236896e-10 2.577803515881635e-10
          2.4077008975524106e-10 2.866177045563577e-10 2.4921753454883654e-10 4.54929628148756e-10 4.503870619519987e-10 3.951782513153628e-10