<?xml version="1.0"?>
<VTKFile type="UnstructuredGrid" version="0.1" byte_order="LittleEndian" header_type="UInt32" compressor="vtkZLibDataCompressor">
  <UnstructuredGrid>
    <Piece NumberOfPoints="1232" NumberOfCells="858">
      <PointData>
        <DataArray type="Int32" Name="libmesh_node_id" format="ascii" RangeMin="2449" RangeMax="11519">
          2656 2657 2658 2659 2666 2667
          3211 3212 3213 3214 3215 3216
          3217 3218 3219 3220 3221 3222
          3223 3224 3225 3226 3227 3228
          3232 3233 3235 3236 3238 3239
          3240 3241 3242 3246 3247 3414
          3415 3662 3663 3664 3665 3666
          3667 3668 3669 3670 3671 3672
          3673 3674 3675 3679 3680 3682
          3683 3684 3685 3689 3690 4720
          4721 4722 4725 4728 4730 4731
          4732 4733 4734 4735 4736 4737
          4738 4739 4740 4741 4742 4743
          4746 4747 4750 4752 4754 4755
          4756 4757 4758 4759 4760 4761
          4762 4763 4766 4767 4769 4772
          4774 4775 4776 4777 4778 4779
          4780 4781 4782 4783 4785 4787
          4789 4791 4792 4793 4794 4795
          4796 4797 4798 4799 4800 4801
          4802 4803 4804 4805 4806 4807
          4808 4809 4810 4811 4812 4813
          4814 4815 4819 4820 4826 4827
          4828 4829 4830 4831 4832 4833
          4834 4835 4846 4847 4848 4849
          4850 4851 4852 4853 4854 4855
          4866 4867 4868 4869 4870 4871
          4872 4882 4883 4886 4888 4890
          4891 4892 4893 4894 4895 4896
          4897 4898 4899 4910 4911 4912
          4913 4921 4923 4925 4927 4928
          4929 4930 4931 4932 4933 4948
          4949 4952 4953 4955 4957 4988
          4990 4992 4994 5632 5633 5634
          5637 5638 5639 5640 5641 5642
          5643 5644 5645 5646 5647 5650
          5651 5654 5655 5656 5657 5658
          5659 5660 5661 5662 5663 5664
          5665 5666 5667 5668 5669 5670
          5671 5672 5673 5674 5675 5679
          5680 5682 5683 5684 5685 5686
          5687 5688 5698 5699 5702 5703
          5704 5705 5706 5707 5708 5709
          5717 5718 5721 5722 9819 9820
          9821 9824 9827 9841 9842 9843
          9844 9845 9847 9848 9861 9862
          9864 9867 9877 9878 9879 9881
          9882 9883 9884 9885 9886 9887
          9888 9889 9890 9891 9892 9893
          9894 9895 9896 9897 9898 9899
          9900 9901 9902 9903 9904 9905
          9906 9907 9908 9909 9910 9911
          9912 9913 9914 9915 9916 9917
          9918 9919 9920 9921 9922 9923
          9924 9925 9926 9927 9928 9929
          9930 9931 9932 9933 9934 9935
          9936 9937 9938 9939 9940 9941
          9942 9943 9944 9945 9946 9947
          9948 9949 9950 9951 9952 9953
          9954 9955 9956 9957 9958 9959
          9960 9961 9962 9963 9964 9975
          9976 9977 9978 9979 9980 9981
          9982 9983 9984 9995 9996 9997
          9998 9999 10000 10001 10002 10003
          10004 10012 10013 10014 10015 10016
          10017 10018 10026 10027 10028 10029
          10030 10031 10032 10033 10034 10035
          10036 10037 10038 10039 10040 10041
          10042 10043 10044 10045 10046 10047
          10048 10049 10050 10051 10052 10053
          10054 10055 10056 10057 10058 10059
          10060 10061 10062 10063 10064 10065
          10066 10067 10068 10069 10070 10071
          10072 10073 10074 10075 10076 10077
          10078 10079 10080 10081 10082 10083
          10084 10085 10086 10087 10088 10089
          10090 10091 10092 10093 10094 10095
          10096 10097 10098 10099 10100 10113
          10114 10116 10119 10129 10130 10131
          10133 10134 10147 10148 10150 10153
          10163 10164 10165 10167 10168 10169
          10170 10171 10172 10173 10174 10175
          10176 10177 10178 10179 10180 10181
          10182 10183 10184 10185 10186 10187
          10188 10189 10190 10191 10192 10193
          10194 10195 10196 10197 10198 10199
          10200 10201 10202 10203 10204 10205
          10206 10207 10208 10209 10210 10211
          10212 10213 10214 10215 10216 10217
          10218 10219 10220 10221 10222 10223
          10224 10225 10226 10227 10228 10229
          10230 10231 10232 10233 10234 10235
          10236 10244 10245 10246 10247 10248
          10249 10250 10258 10259 10260 10261
          10262 10263 10264 10272 10273 10274
          10275 10276 10277 10278 10286 10287
          10288 10289 10290 10291 10292 10293
          10294 10295 10296 10297 10298 10299
          10300 10301 10302 10303 10304 10305
          10306 10307 10308 10309 10310 10311
          10312 10313 10314 10315 10316 10317
          10318 10319 10320 10321 10322 10323
          10324 10325 10326 10327 10328 10329
          10330 10331 10332 10333 10334 10335
          10336 10337 10338 10339 10340 10341
          10342 10343 10344 10345 10346 10347
          10348 10349 10350 10351 10352 10353
          10354 10355 10356 10357 10358 10359
          10360 10361 10362 10363 10364 10365
          10366 10367 10368 10369 10370 10371
          10372 10373 10374 10375 10376 10377
          10378 10379 10380 10381 10382 10383
          10384 10385 10386 10387 10388 10389
          10390 10391 10392 10393 10394 10395
          10396 10397 10398 10399 10400 10401
          10402 10403 10404 10405 10406 10407
          10408 10409 10410 10411 10412 10413
          10414 10415 10416 10417 10418 10419
          10420 10421 10422 10423 10424 10425
          10426 10427 10428 10429 10430 10431
          10432 10433 10434 10435 10436 10437
          10438 10439 10440 10441 10442 10443
          10444 10445 10446 10447 10448 10452
          10453 10455 10456 10458 10459 10460
          10461 10462 10463 10464 10465 10466
          10467 10468 10469 10470 10473 10474
          10476 10478 10479 10480 10483 10485
          10486 10488 10499 10501 10503 10505
          10513 10514 10515 10516 10517 10518
          10519 10520 10521 10522 10523 10524
          10525 10526 10527 10528 10529 10530
          10531 10532 10533 10534 10535 10536
          10537 10538 10539 10540 10541 10542
          10543 10544 10545 10546 10547 10548
          10549 10550 10551 10552 10553 10554
          10555 10556 10557 10558 10559 10560
          10561 10562 10563 10564 10565 10566
          10567 10568 10569 10570 10571 10572
          10573 10574 10575 10576 10577 10578
          10579 10580 10642 10643 10644 10645
          10646 10647 10648 10649 10650 10651
          10652 10653 10654 10655 10656 10657
          10658 10659 10660 10661 10662 10663
          10664 10665 10666 10667 10668 10669
          10670 10671 10672 10673 10674 10675
          10676 10677 10678 10679 10680 10681
          10682 10683 10684 10685 10686 10687
          10688 10689 10690 10691 10692 10693
          10694 10695 10696 10697 10698 10699
          10700 10701 10702 10703 10704 10705
          10706 10707 10708 10709 10710 10711
          10714 10716 10717 10719 10730 10732
          10734 10736 10744 10745 10748 10750
          10751 10753 10764 10766 10768 10770
          10778 10779 10780 10781 10782 10783
          10784 10785 10786 10787 10788 10789
          10790 10791 10792 10793 10794 10795
          10796 10797 10798 10799 10800 10801
          10802 10803 10804 10805 10806 10807
          10808 10809 10810 10811 10812 10813
          10814 10815 10816 10817 10818 10819
          10820 10821 10822 10823 10824 10825
          10826 10827 10828 10829 10830 10831
          10832 10833 10902 10903 10906 10908
          10922 10923 10926 10928 10938 10940
          10942 10952 10954 10956 10958 10959
          10960 10961 10962 10963 10964 10965
          10966 10967 10968 10969 10970 10971
          10972 10973 10974 10975 10976 10977
          10978 10979 10980 10981 10982 10983
          10984 10985 10986 10987 10988 10989
          10990 10991 10992 10993 10994 10995
          10996 10997 10998 10999 11000 11001
          11002 11003 11004 11005 11006 11007
          11008 11009 11010 11011 11012 11013
          11014 11015 11016 11017 11018 11019
          11020 11021 11022 11023 11024 11025
          11075 11076 11081 11083 11084 11085
          11086 11090 11091 11121 11123 11125
          11135 11137 11139 11149 11151 11153
          11163 11165 11167 11169 11170 11171
          11172 11173 11174 11175 11176 11177
          11178 11179 11180 11181 11182 11183
          11184 11185 11186 11187 11188 11189
          11190 11191 11192 11193 11194 11195
          11196 11197 11198 11199 11200 11201
          11202 11203 11204 11205 11206 11207
          11208 11209 11210 11211 11212 11213
          11214 11215 11216 11217 11218 11219
          11220 11221 11222 11223 11224 11282
          11286 11288 11289 11292 11293 11310
          11314 11316 11317 11320 11321 11337
          11338 11339 11340 11341 11342 11343
          11344 11345 11346 11357 11358 11359
          11360 11361 11362 11363 11371 11372
          11373 11374 11375 11376 11377 11378
          11379 11380 11471 11472 11473 11474
          11475 11476 11477 11485 11486 11487
          11488 11489 11490 11491 11499 11500
          11501 11502 11503 11504 11505 11513
          11514 11515 11516 11517 11518 11519
          3417 3418 2449 2660 3676 3677
          3678 5676 5677 5678 5681 2661
          4816 3229 10449 10450 10451 10454
          4817 10457 4818 10471 10472 10475
          10477 4821
        </DataArray>
        <DataArray type="Float64" Name="bounds" format="ascii" RangeMin="0" RangeMax="0">
          0 0 0 0 0 0
          0 0 0 0 0 0
          0 0 0 0 0 0
          0 0 0 0 0 0
          0 0 0 0 0 0
          0 0 0 0 0 0
          0 0 0 0 0 0
          0 0 0 0 0 0
          0 0 0 0 0 0
          0 0 0 0 0 0
          0 0 0 0 0 0
          0 0 0 0 0 0
          0 0 0 0 0 0
          0 0 0 0 0 0
          0 0 0 0 0 0
          0 0 0 0 0 0
          0 0 0 0 0 0
          0 0 0 0 0 0
          0 0 0 0 0 0
          0 0 0 0 0 0
          0 0 0 0 0 0
          0 0 0 0 0 0
          0 0 0 0 0 0
          0 0 0 0 0 0
          0 0 0 0 0 0
          0 0 0 0 0 0
          0 0 0 0 0 0
          0 0 0 0 0 0
          0 0 0 0 0 0
          0 0 0 0 0 0
          0 0 0 0 0 0
          0 0 0 0 0 0
          0 0 0 0 0 0
          0 0 0 0 0 0
          0 0 0 0 0 0
          0 0 0 0 0 0
          0 0 0 0 0 0
          0 0 0 0 0 0
          0 0 0 0 0 0
          0 0 0 0 0 0
          0 0 0 0 0 0
          0 0 0 0 0 0
          0 0 0 0 0 0
          0 0 0 0 0 0
          0 0 0 0 0 0
          0 0 0 0 0 0
          0 0 0 0 0 0
          0 0 0 0 0 0
          0 0 0 0 0 0
          0 0 0 0 0 0
          0 0 0 0 0 0
          0 0 0 0 0 0
          0 0 0 0 0 0
          0 0 0 0 0 0
          0 0 0 0 0 0
          0 0 0 0 0 0
          0 0 0 0 0 0
          0 0 0 0 0 0
          0 0 0 0 0 0
          0 0 0 0 0 0
          0 0 0 0 0 0
          0 0 0 0 0 0
          0 0 0 0 0 0
          0 0 0 0 0 0
          0 0 0 0 0 0
          0 0 0 0 0 0
          0 0 0 0 0 0
          0 0 0 0 0 0
          0 0 0 0 0 0
          0 0 0 0 0 0
          0 0 0 0 0 0
          0 0 0 0 0 0
          0 0 0 0 0 0
          0 0 0 0 0 0
          0 0 0 0 0 0
          0 0 0 0 0 0
          0 0 0 0 0 0
          0 0 0 0 0 0
          0 0 0 0 0 0
          0 0 0 0 0 0
          0 0 0 0 0 0
          0 0 0 0 0 0
          0 0 0 0 0 0
          0 0 0 0 0 0
          0 0 0 0 0 0
          0 0 0 0 0 0
          0 0 0 0 0 0
          0 0 0 0 0 0
          0 0 0 0 0 0
          0 0 0 0 0 0
          0 0 0 0 0 0
          0 0 0 0 0 0
          0 0 0 0 0 0
          0 0 0 0 0 0
          0 0 0 0 0 0
          0 0 0 0 0 0
          0 0 0 0 0 0
          0 0 0 0 0 0
          0 0 0 0 0 0
          0 0 0 0 0 0
          0 0 0 0 0 0
          0 0 0 0 0 0
          0 0 0 0 0 0
          0 0 0 0 0 0
          0 0 0 0 0 0
          0 0 0 0 0 0
          0 0 0 0 0 0
          0 0 0 0 0 0
          0 0 0 0 0 0
          0 0 0 0 0 0
          0 0 0 0 0 0
          0 0 0 0 0 0
          0 0 0 0 0 0
          0 0 0 0 0 0
          0 0 0 0 0 0
          0 0 0 0 0 0
          0 0 0 0 0 0
          0 0 0 0 0 0
          0 0 0 0 0 0
          0 0 0 0 0 0
          0 0 0 0 0 0
          0 0 0 0 0 0
          0 0 0 0 0 0
          0 0 0 0 0 0
          0 0 0 0 0 0
          0 0 0 0 0 0
          0 0 0 0 0 0
          0 0 0 0 0 0
          0 0 0 0 0 0
          0 0 0 0 0 0
          0 0 0 0 0 0
          0 0 0 0 0 0
          0 0 0 0 0 0
          0 0 0 0 0 0
          0 0 0 0 0 0
          0 0 0 0 0 0
          0 0 0 0 0 0
          0 0 0 0 0 0
          0 0 0 0 0 0
          0 0 0 0 0 0
          0 0 0 0 0 0
          0 0 0 0 0 0
          0 0 0 0 0 0
          0 0 0 0 0 0
          0 0 0 0 0 0
          0 0 0 0 0 0
          0 0 0 0 0 0
          0 0 0 0 0 0
          0 0 0 0 0 0
          0 0 0 0 0 0
          0 0 0 0 0 0
          0 0 0 0 0 0
          0 0 0 0 0 0
          0 0 0 0 0 0
          0 0 0 0 0 0
          0 0 0 0 0 0
          0 0 0 0 0 0
          0 0 0 0 0 0
          0 0 0 0 0 0
          0 0 0 0 0 0
          0 0 0 0 0 0
          0 0 0 0 0 0
          0 0 0 0 0 0
          0 0 0 0 0 0
          0 0 0 0 0 0
          0 0 0 0 0 0
          0 0 0 0 0 0
          0 0 0 0 0 0
          0 0 0 0 0 0
          0 0 0 0 0 0
          0 0 0 0 0 0
          0 0 0 0 0 0
          0 0 0 0 0 0
          0 0 0 0 0 0
          0 0 0 0 0 0
          0 0 0 0 0 0
          0 0 0 0 0 0
          0 0 0 0 0 0
          0 0 0 0 0 0
          0 0 0 0 0 0
          0 0 0 0 0 0
          0 0 0 0 0 0
          0 0 0 0 0 0
          0 0 0 0 0 0
          0 0 0 0 0 0
          0 0 0 0 0 0
          0 0 0 0 0 0
          0 0 0 0 0 0
          0 0 0 0 0 0
          0 0 0 0 0 0
          0 0 0 0 0 0
          0 0 0 0 0 0
          0 0 0 0 0 0
          0 0 0 0 0 0
          0 0 0 0 0 0
          0 0 0 0 0 0
          0 0 0 0 0 0
          0 0 0 0 0 0
          0 0 0 0 0 0
          0 0 0 0 0 0
          0 0 0 0 0 0
          0 0 0 0 0 0
          0 0 0 0 0 0
          0 0 0 0 0 0
          0 0 0 0 0 0
          0 0
        </DataArray>
        <DataArray type="Float64" Name="gradient_error" format="ascii" RangeMin="2.729077629752285e-13" RangeMax="1.7994242220524436e-10">
          1.5285820390436368e-11 1.1462200027448632e-11 7.052718963394004e-12 2.912240821157828e-12 6.566714758670396e-11 2.439690598541036e-11
          1.9699021095798004e-11 1.578836033918315e-11 7.690802390177703e-11 5.67247200817169e-11 5.643730265317825e-12 2.952447142186804e-11
          2.166601103315663e-11 8.22845340858593e-12 2.308799357355092e-11 8.704090751018738e-12 1.519678780978103e-10 1.2974296476863056e-10
          5.4002991320886516e-11 6.155223827801103e-11 2.2794414515831472e-12 1.8183633724584973e-12 1.0069068604067023e-11 7.364956603650425e-12
          1.440897775893492e-12 2.9301551968484327e-12 2.4593594612174796e-11 1.966920648299527e-11 8.562064548840167e-12 5.388618641215876e-12
          5.489819556973864e-12 3.3651766532689072e-12 2.0263112556259364e-12 1.4085988080934008e-11 5.397233745577611e-12 1.4699583394578326e-11
          1.1864160139975966e-11 2.095262750848092e-11 1.851359587768494e-11 1.526232592169621e-11 1.3309279938699798e-11 7.198341032034421e-12
          5.811680505572769e-12 5.062451699775134e-12 1.2757878146446304e-11 8.752710703855056e-12 3.356462322007915e-12 2.9969688841359296e-12
          2.6625885816467333e-12 2.0879207737265154e-12 1.822799355657287e-12 1.8492923359344587e-12 1.5521268365978983e-12 6.8611666903200934e-12
          5.468838433381242e-12 2.735220530025348e-12 3.2074707240584187e-12 1.058185393947358e-12 1.5586528923791055e-12 1.8631568454288728e-11
          2.3127026647939218e-11 2.160722107322924e-11 1.7638239681089218e-11 7.125963713510634e-11 1.1934044669674987e-11 1.1288755785948393e-11
          1.4229090534530502e-11 1.3289499719846535e-11 6.669661264248667e-12 8.524434569960202e-12 7.958998357530836e-12 9.560345792659796e-12
          1.0837090627089137e-11 6.48395791127652e-12 4.8368023810408795e-11 4.478271900015985e-11 2.7320052287803325e-11 3.55737502899368e-11
          1.2014712829782385e-11 1.2617349779692211e-11 7.948228722392924e-12 3.8891418652004515e-11 7.26074429926809e-12 7.738070840329464e-12
          4.280077280080493e-12 4.6223969611751584e-12 4.962066644682314e-12 4.861716213254164e-12 2.895586636098539e-12 2.4313001015917555e-11
          1.4769722199840977e-11 1.437632230882024e-11 1.7994242220524436e-10 1.6687701050277787e-10 1.3280864395722881e-10 1.4734363188467175e-10
          1.162597552526557e-10 1.0763294653185661e-10 7.260678142218962e-11 6.712823245396413e-11 8.526438338831531e-11 5.298202626673445e-11
          1.0176778866250386e-10 9.805085555855084e-11 6.292917991124775e-11 8.514567831308093e-11 9.02951361749363e-11 5.23353454945008e-11
          9.797622609493494e-11 5.760590102147753e-11 3.5612856814031234e-11 3.3158242154814656e-11 2.0383818157250555e-11 6.338852657462427e-11
          3.971073602880259e-11 3.9350010187273986e-11 4.060848327312389e-12 3.839506711624729e-12 4.97120266722113e-12 4.640159058036709e-12
          2.153321719930063e-12 2.8212634514844435e-12 2.6328063056615083e-12 3.2457648148646323e-12 3.776867929572826e-12 2.1413484454528386e-12
          1.749731222794754e-11 1.6183353129133278e-11 9.309383640343422e-12 1.2816932849793975e-11 1.2465918001543258e-12 1.1735926502379432e-12
          1.5577576250239505e-12 1.4531975389090296e-12 9.79885293251062e-13 1.1805774539589613e-12 2.4550207617865594e-12 2.6889342001567563e-12
          1.3560221039047108e-12 1.5202643162141555e-12 1.6510812300488598e-12 1.6795994166978149e-12 1.1750090935862133e-12 8.719046120281773e-12
          5.0021505153450465e-12 5.123415498267597e-12 4.3869765981986236e-11 4.051548811000369e-11 2.5663281859581664e-11 2.3680705447625527e-11
          3.188337279126622e-11 1.8591655993240678e-11 4.0889914060535936e-11 3.9004626802286285e-11 2.3366681331214448e-11 3.312788754844412e-11
          2.134353311413413e-11 1.2404371669972419e-11 1.2160021834208186e-11 7.039790788930058e-12 2.409954499628503e-11 1.4174805561024808e-11
          1.4673190507864707e-11 5.0493661389598745e-12 4.43941416317645e-12 3.825486540934675e-12 1.197356049576261e-11 3.0085672363257145e-12
          2.7008884538618923e-12 2.2054271917595773e-12 2.0028425790829613e-12 2.994846163701793e-12 2.3113234423443193e-12 1.7944733773777307e-12
          7.420557535751228e-12 4.47188218417946e-12 3.380486433880891e-12 3.541086652806377e-12 2.135173174898051e-12 2.059775922830817e-12
          1.2423989515387345e-12 2.5971717960966434e-11 1.1177859963760926e-11 3.208568534904706e-11 1.6341096820979073e-11 9.986958538459549e-12
          6.982257934394137e-12 4.240523327103913e-12 2.0315069231277222e-11 1.2490297429431035e-11 8.844035088558317e-12 1.714337080470541e-12
          1.5907418960477878e-12 1.9912143400323585e-12 1.5041009718815695e-12 2.620238132856382e-12 1.1805145748437974e-12 5.928154419060728e-12
          2.5032754126992855e-12 7.456924406862492e-12 3.2007588001687395e-12 9.198797672774984e-12 2.0146913077860745e-11 1.9153555969226462e-11
          1.6451287117835573e-11 5.9666400222466935e-12 5.696948484040074e-12 1.2292672732085175e-11 1.1670344251532465e-11 3.369619153728768e-12
          7.267665515058381e-12 6.897135829517176e-12 4.95442702563305e-12 9.98764030714379e-12 5.896687507173189e-12 6.501275989566825e-12
          1.2764761338806982e-11 8.95841112574092e-12 3.93596509789639e-12 7.718226420482613e-12 2.324650255565983e-12 4.551452134312023e-12
          2.8574877979577623e-12 5.399430198681245e-12 3.1709151838231236e-12 2.054167932857424e-12 1.95865563272084e-12 4.195766590563284e-12
          3.98058621536435e-12 1.1253424592722436e-12 2.3681325505844045e-12 2.245567767480506e-12 1.702931777974615e-12 3.4016177376006847e-12
          1.9193015183924205e-12 6.460221742088805e-13 6.230688333816646e-13 1.2964182240291921e-12 1.228273861129927e-12 5.553158615166516e-13
          1.0409140736491583e-12 1.3610616076767637e-12 2.6234655432254657e-12 8.014765125479802e-13 1.467272140414821e-12 1.00004048137369e-12
          1.8116066054312706e-12 1.147230412850971e-12 3.2182495056660717e-12 5.684835564910057e-12 3.722384897070232e-12 1.9468660952156216e-12
          3.3965189848597647e-12 1.156658293820682e-12 1.9739417493578875e-12 1.5690896848758537e-12 2.503365570014447e-12 1.4421885293231701e-12
          6.997566574475729e-13 1.1203790399624948e-12 5.788353441363201e-13 8.266463204774259e-13 8.54285566609412e-12 1.2457452231114749e-11
          1.2259008733752686e-11 1.1682804696874461e-11 2.2737003598364754e-11 7.550300981472083e-12 1.0785012173207619e-11 8.628666703366255e-12
          1.224381714151817e-11 9.645915791908886e-12 1.9851525434822807e-11 2.2281643186243277e-11 4.2532659270422064e-11 4.177172369662448e-11
          3.957188521909322e-11 7.545448300180552e-11 3.6166847487371714e-11 4.008042806030552e-11 3.189942673401109e-11 6.478951859671358e-11
          7.084213528900999e-11 6.765374197622823e-12 6.66123137079381e-12 9.752269729689228e-12 9.59662429853912e-12 5.168720920913916e-12
          7.589070410353894e-12 7.467846227663847e-12 6.358328638778705e-12 9.144773680392758e-12 7.1157794118637404e-12 1.8200813213067677e-11
          1.789311514391855e-11 1.3987936242902988e-11 1.7001871477785794e-11 4.044441932149294e-12 3.982242247998929e-12 5.866892635444367e-12
          5.773024407138741e-12 3.0538575625363155e-12 4.508502298544971e-12 4.436240480520081e-12 3.801004689692832e-12 5.500375604567479e-12
          4.226340347356909e-12 1.1050582815399945e-11 1.0862857578630109e-11 8.37929796911935e-12 1.0319196029735674e-11 5.88662200338297e-12
          8.440897459846139e-12 4.567451039768547e-12 6.5671670202089086e-12 5.284703312500028e-12 7.547835156367906e-12 5.871089915511976e-12
          1.5617029606241412e-11 1.220441978680029e-11 1.387156521074607e-11 3.518351700929732e-12 5.075495920632469e-12 2.697541676993418e-12
          3.899230764465773e-12 3.1576481386763164e-12 4.53653078952213e-12 3.4844314329551865e-12 9.474685996201901e-12 7.306198521314924e-12
          8.41074735566375e-12 3.365129610800119e-11 3.304712826340991e-11 2.6438748515569975e-11 2.5962532459532474e-11 3.1300740968293636e-11
          2.45861813357747e-11 6.122016534836758e-11 6.005724724667425e-11 4.744506124872213e-11 5.670196137506842e-11 2.0627026224304272e-11
          2.0254383413608564e-11 1.5980478222784494e-11 1.5690991017144336e-11 1.9177507328932384e-11 1.4854513024834515e-11 3.7929852585288597e-11
          3.720316944653673e-11 2.895682603667161e-11 3.510744693008302e-11 2.8598346120170827e-11 2.2456939179502432e-11 2.521293175662413e-11
          1.97905475897118e-11 5.152933623494083e-11 4.068024945673713e-11 4.5086490388084075e-11 1.7511955230011137e-11 1.3561052291139016e-11
          1.5426959657012708e-11 1.1942368022228634e-11 3.1879397676571714e-11 2.4799782256824695e-11 2.7863611118530263e-11 7.524140134233604e-12
          1.0619716317069827e-11 5.911006147948209e-12 8.364502592164136e-12 6.3664118646361705e-12 8.93258253627605e-12 7.033342520913484e-12
          1.9161830061617745e-11 1.516220669185214e-11 1.5954463944248397e-11 5.2419619696675595e-12 7.295912330305646e-12 4.116358486455729e-12
          5.741733219424793e-12 4.1900537765412896e-12 5.784768181862639e-12 4.549035418045663e-12 1.2869210742718675e-11 1.0170653598675491e-11
          1.0065019368195291e-11 3.415095231833043e-11 2.7163884336087062e-11 2.8113379368008615e-11 2.2345462659555263e-11 5.980026647837114e-11
          4.7841992988968054e-11 4.866074087126221e-11 2.237618608452976e-11 1.7770551173929663e-11 1.7235407509969254e-11 1.36750394469927e-11
          3.8197636607230716e-11 3.049550676438367e-11 2.895358280337641e-11 4.606918902662172e-12 6.5431648293809696e-12 3.5732612700914303e-12
          5.088100936888444e-12 3.896381662913363e-12 5.499519580882428e-12 4.274711928139032e-12 1.191939685548135e-11 9.308288019062285e-12
          9.913650557813656e-12 2.75168180858633e-12 3.930475027471406e-12 2.109278716731723e-12 3.01823186974925e-12 2.3253156816851396e-12
          3.3007008542566645e-12 2.5337883861041268e-12 7.221536875777719e-12 5.565220956342233e-12 6.000560962747976e-12 3.2051764901833867e-12
          4.486996204423023e-12 2.483348311737642e-12 3.4855646955943894e-12 2.558813985026392e-12 3.5528516011538417e-12 2.758757536863052e-12
          7.986207827299206e-12 6.22977487816681e-12 6.236620985447444e-12 1.909150508738633e-12 2.689369347570861e-12 1.461741542560984e-12
          2.0632875029900495e-12 1.5251973743289601e-12 2.12785364955706e-12 1.6324208375381175e-12 4.828250609988663e-12 3.717468792723774e-12
          3.764509770964312e-12 2.145813915945279e-11 1.6834677981512656e-11 1.764006590830432e-11 1.3830756892859261e-11 3.799678846535568e-11
          2.9959173068450747e-11 3.086060586195316e-11 1.3116658753670406e-11 1.0149528845581262e-11 1.0770067900072998e-11 8.329460248861084e-12
          2.3451361021629284e-11 1.822494857236794e-11 1.901781693416428e-11 1.4017688397709287e-11 1.0982639574435662e-11 1.0777856717035097e-11
          8.437795774523631e-12 2.4174400082353044e-11 1.902815267015334e-11 1.828253624891219e-11 8.546406288375605e-12 6.605584873841234e-12
          6.560672854744335e-12 5.066158813394787e-12 1.487158596634464e-11 1.154082889068e-11 1.1225740796274112e-11 1.2983842005911328e-10
          1.2730777081750554e-10 1.2000737082399408e-10 1.7659007064370684e-10 1.087582439566953e-10 1.1757540030642898e-10 9.476281187676043e-11
          1.5178778716702963e-10 1.636934439251677e-10 1.7547100042860867e-10 1.7316603341477285e-10 1.662310352349373e-10 1.5090310317146276e-10
          1.5473803643315688e-10 1.7026459487071424e-10 1.391244869228747e-10 1.4048831672225889e-10 1.5806536925372564e-10 1.0405167205378039e-10
          1.0200859657695169e-10 8.271716561947979e-11 8.108251675012397e-11 9.611741564224195e-11 7.637084315615872e-11 1.4526310182484468e-10
          1.4252375040408938e-10 1.1404373638386314e-10 1.3459316269397742e-10 6.523519904531153e-11 6.393866423859432e-11 5.1042684250834305e-11
          5.0023082180999565e-11 6.020275898262915e-11 4.7086006469206936e-11 9.22608587343834e-11 9.048577584677991e-11 7.11982542002746e-11
          8.535387001478179e-11 8.704768817067522e-11 6.91222563809967e-11 7.577731311923435e-11 6.012391770017764e-11 1.222920321047121e-10
          9.77031292863051e-11 1.0685331759429053e-10 5.445890532823386e-11 4.257293455079918e-11 4.733499413997639e-11 3.698011551622297e-11
          7.741433689242657e-11 6.083790669980078e-11 6.748464327353925e-11 1.430844014427684e-10 1.4113336512978224e-10 1.1562047133215645e-10
          1.1399049723932466e-10 1.352877993127042e-10 1.091246749037772e-10 1.2494574369829569e-10 1.2396197157720775e-10 1.0088459668139947e-10
          1.2074913947482315e-10 9.259507357847792e-11 9.125055186575019e-11 7.3508406026992e-11 7.241285508252235e-11 8.72501386299376e-11
          6.916234822511969e-11 8.2121352764783e-11 8.134739985829117e-11 6.500372354770523e-11 7.889953045323946e-11 1.2566649186910405e-10
          1.0116508745097555e-10 1.1269723999739357e-10 9.051242725481285e-11 1.1474342934442083e-10 9.28798519639136e-11 1.0556319036049861e-10
          8.074212871984258e-11 6.389905200688827e-11 7.208665215319311e-11 5.693689984210663e-11 7.452177756611e-11 5.927922259371028e-11
          6.809462184526585e-11 9.862971640072578e-11 7.939650754446267e-11 7.95955049213801e-11 6.398687654669977e-11 1.37937844763311e-10
          1.1171202259220874e-10 1.1170804235394242e-10 6.182774397008253e-11 4.963021295802466e-11 4.626457844364246e-11 3.708008637216123e-11
          8.69243704464903e-11 7.012257216883922e-11 6.500602793120856e-11 1.477508566509165e-10 1.2036830093158217e-10 1.2302725453562862e-10
          9.992692541269079e-11 1.4097846063325171e-10 1.1524294011458605e-10 1.2032453651904458e-10 9.811136099282283e-11 7.946280905585619e-11
          7.488289414352497e-11 6.048733960572748e-11 9.799800919293458e-11 7.951678926421814e-11 7.609598257589682e-11 6.342062599313135e-11
          5.027053738072759e-11 5.104886088024784e-11 4.0419431185412685e-11 8.97366369199505e-11 7.150409201833978e-11 7.240767310363925e-11
          3.9543059422391283e-11 3.0868943112881897e-11 3.1762956041008334e-11 2.4773776481911707e-11 5.6520906141792814e-11 4.4323148742042004e-11
          4.547081768230447e-11 3.9542546401026243e-11 3.127174782947928e-11 2.950218847907182e-11 2.3302038197952195e-11 5.61298475190983e-11
          4.458268698142651e-11 4.1815422705823734e-11 2.4548148363657477e-11 1.912805313642034e-11 1.8270924555697463e-11 1.4221787361835295e-11
          3.513938630367481e-11 2.7484987402131187e-11 2.6095868417160132e-11 9.7237101849474e-11 7.79020354062503e-11 8.050509525180462e-11
          6.433683658635938e-11 9.340550027864099e-11 7.507433592896088e-11 7.912684253275291e-11 6.190187270833488e-11 4.878874090961728e-11
          5.10047071127727e-11 4.01142691461232e-11 5.984484193674997e-11 4.7314974217423304e-11 5.0373156976102774e-11 6.385155215250695e-11
          5.0904420613774896e-11 4.8483399251058817e-11 3.856407460616713e-11 6.401147896364652e-11 5.1124168055337494e-11 4.9404618231246026e-11
          4.0265672424526205e-11 3.1603422466971506e-11 3.0440520057613695e-11 2.384594202266978e-11 4.0511596579505465e-11 3.185238424681535e-11
          3.1102506892099033e-11 2.3579307878867492e-12 2.3215999680461245e-12 3.439759012650968e-12 3.3845416523752954e-12 1.7567932064011786e-12
          2.6085767304888485e-12 2.566627654087099e-12 2.2155995774735884e-12 3.2241027585911204e-12 2.444784307801765e-12 6.531946671355593e-12
          6.420498132003684e-12 4.886217473616368e-12 6.09778395982048e-12 1.339728165291902e-12 1.3189015327313717e-12 1.964520664115431e-12