<?xml version="1.0"?>
<VTKFile type="UnstructuredGrid" version="0.1" byte_order="LittleEndian" header_type="UInt32" compressor="vtkZLibDataCompressor">
  <UnstructuredGrid>
    <Piece NumberOfPoints="712" NumberOfCells="357">
      <PointData>
        <DataArray type="Int32" Name="libmesh_node_id" format="ascii" RangeMin="40" RangeMax="3214">
          44 45 46 47 48 49
          50 51 52 53 54 55
          56 57 58 59 60 61
          62 63 64 65 66 67
          68 69 70 71 72 73
          74 75 118 119 120 121
          122 123 124 125 126 127
          128 129 130 131 132 133
          166 167 168 169 170 171
          172 173 174 175 176 177
          178 179 180 181 203 204
          205 206 207 208 209 210
          238 239 240 241 242 243
          244 245 246 247 248 249
          250 251 252 253 275 276
          277 278 279 280 281 282
          318 319 320 321 322 323
          324 325 351 352 353 354
          390 391 392 393 423 424
          462 463 464 465 495 496
          535 537 567 568 623 624
          625 626 627 629 630 631
          632 633 634 636 637 638
          640 641 643 644 645 646
          650 754 755 756 757 758
          759 760 761 762 763 764
          765 766 767 768 769 771
          772 775 776 777 781 783
          786 789 797 800 803 838
          839 840 841 842 843 844
          845 846 847 848 849 850
          851 890 891 892 893 894
          895 896 897 898 899 900
          901 902 903 904 905 906
          907 908 909 948 949 950
          951 952 953 954 955 956
          957 958 959 960 961 962
          963 964 965 966 967 968
          969 970 971 972 973 974
          975 976 977 978 979 980
          981 982 983 984 985 986
          987 988 989 990 991 992
          993 995 996 997 998 999
          1000 1001 1191 1192 1193 1194
          1195 1196 1197 1198 1199 1200
          1201 1202 1203 1204 1205 1206
          1207 1208 1209 1210 1211 1212
          1213 1214 1215 1216 1217 1218
          1219 1220 1221 1222 1223 1224
          1225 1226 1227 1228 1229 1230
          1231 1232 1233 1234 1235 1236
          1237 1238 1239 1240 1241 1242
          1243 1246 1247 1248 1249 1250
          1252 1267 1268 1269 1270 1271
          1272 1273 1274 1275 1276 1493
          1494 1495 1496 1497 1498 1603
          1604 1605 1606 1607 1608 1609
          1610 1611 1612 1613 1614 1615
          1616 1617 1618 1619 1620 1621
          1622 1623 1624 1625 1626 1627
          1628 1817 1818 1819 1820 1821
          1822 1823 1824 1825 1826 1827
          1828 1829 1830 1831 1832 1833
          1834 1835 1836 1837 1838 1839
          1840 1841 1842 1843 1844 1845
          1846 1857 1858 1859 1961 1962
          1963 1964 1965 1966 1967 1968
          1969 1970 1971 1972 1973 1974
          1975 1976 1977 1978 1979 1980
          1981 1982 1983 1984 1985 1986
          1987 1988 1989 1990 1991 1992
          1993 1994 1995 1996 1997 1998
          1999 2000 2001 2002 2003 2004
          2005 2006 2007 2008 2009 2010
          2011 2012 2013 2014 2015 2016
          2017 2018 2019 2020 2021 2026
          2027 2028 2029 2044 2045 2046
          2053 2054 2055 2056 2057 2058
          2059 2060 2061 2062 2073 2074
          2075 2076 2077 2078 2079 2946
          2947 2948 2949 2950 2951 2952
          2953 2954 2955 2956 2957 2958
          2959 2960 2961 2962 2963 3066
          3067 3068 3069 3070 3071 3072
          3073 3074 3075 3076 3077 3078
          3079 3080 3081 3082 3083 3084
          3085 3086 3087 3088 3089 3090
          3091 3092 3093 3094 3095 3096
          3097 3098 3099 3100 3101 3102
          3103 3104 3105 3106 3107 3108
          3109 3110 3111 3112 3113 3114
          3115 3116 3117 3118 3119 3120
          3121 3122 3123 3124 3125 3126
          3127 3128 3129 3130 3131 3132
          3133 3134 3135 3136 3137 3138
          3139 3140 3141 3142 3143 3144
          3145 3146 3147 3148 3149 3150
          3151 3152 3153 3154 3164 3165
          3166 3167 3171 3172 3173 3174
          3175 3176 3177 3178 3179 3180
          3181 3182 3183 3184 3185 3186
          3187 3188 3189 3190 3191 3192
          3193 3194 3195 3196 3197 3198
          3199 3200 3201 3202 3203 3204
          3205 3206 3207 3208 3209 3210
          3211 3212 3213 3214 40 41
          42 43 116 117 164 165
          202 236 237 274 308 310
          311 309 312 313 314 315
          316 317 347 346 348 349
          350 388 389 422 461 494
          613 615 618 880 881 885
          533 888 566 938 749 939
          943 621 946 745 1157 1158
          1159 746 1162 532 1165 752
          1183 1184 1187 1189 1487 1488
          1489 1492 460 1591 1592 1593
          1596 614 744 1811 1812 1813
          1816 2941 2942 2945
        </DataArray>
        <DataArray type="Float64" Name="bounds" format="ascii" RangeMin="0" RangeMax="0">
          0 0 0 0 0 0
          0 0 0 0 0 0
          0 0 0 0 0 0
          0 0 0 0 0 0
          0 0 0 0 0 0
          0 0 0 0 0 0
          0 0 0 0 0 0
          0 0 0 0 0 0
          0 0 0 0 0 0
          0 0 0 0 0 0
          0 0 0 0 0 0
          0 0 0 0 0 0
          0 0 0 0 0 0
          0 0 0 0 0 0
          0 0 0 0 0 0
          0 0 0 0 0 0
          0 0 0 0 0 0
          0 0 0 0 0 0
          0 0 0 0 0 0
          0 0 0 0 0 0
          0 0 0 0 0 0
          0 0 0 0 0 0
          0 0 0 0 0 0
          0 0 0 0 0 0
          0 0 0 0 0 0
          0 0 0 0 0 0
          0 0 0 0 0 0
          0 0 0 0 0 0
          0 0 0 0 0 0
          0 0 0 0 0 0
          0 0 0 0 0 0
          0 0 0 0 0 0
          0 0 0 0 0 0
          0 0 0 0 0 0
          0 0 0 0 0 0
          0 0 0 0 0 0
          0 0 0 0 0 0
          0 0 0 0 0 0
          0 0 0 0 0 0
          0 0 0 0 0 0
          0 0 0 0 0 0
          0 0 0 0 0 0
          0 0 0 0 0 0
          0 0 0 0 0 0
          0 0 0 0 0 0
          0 0 0 0 0 0
          0 0 0 0 0 0
          0 0 0 0 0 0
          0 0 0 0 0 0
          0 0 0 0 0 0
          0 0 0 0 0 0
          0 0 0 0 0 0
          0 0 0 0 0 0
          0 0 0 0 0 0
          0 0 0 0 0 0
          0 0 0 0 0 0
          0 0 0 0 0 0
          0 0 0 0 0 0
          0 0 0 0 0 0
          0 0 0 0 0 0
          0 0 0 0 0 0
          0 0 0 0 0 0
          0 0 0 0 0 0
          0 0 0 0 0 0
          0 0 0 0 0 0
          0 0 0 0 0 0
          0 0 0 0 0 0
          0 0 0 0 0 0
          0 0 0 0 0 0
          0 0 0 0 0 0
          0 0 0 0 0 0
          0 0 0 0 0 0
          0 0 0 0 0 0
          0 0 0 0 0 0
          0 0 0 0 0 0
          0 0 0 0 0 0
          0 0 0 0 0 0
          0 0 0 0 0 0
          0 0 0 0 0 0
          0 0 0 0 0 0
          0 0 0 0 0 0
          0 0 0 0 0 0
          0 0 0 0 0 0
          0 0 0 0 0 0
          0 0 0 0 0 0
          0 0 0 0 0 0
          0 0 0 0 0 0
          0 0 0 0 0 0
          0 0 0 0 0 0
          0 0 0 0 0 0
          0 0 0 0 0 0
          0 0 0 0 0 0
          0 0 0 0 0 0
          0 0 0 0 0 0
          0 0 0 0 0 0
          0 0 0 0 0 0
          0 0 0 0 0 0
          0 0 0 0 0 0
          0 0 0 0 0 0
          0 0 0 0 0 0
          0 0 0 0 0 0
          0 0 0 0 0 0
          0 0 0 0 0 0
          0 0 0 0 0 0
          0 0 0 0 0 0
          0 0 0 0 0 0
          0 0 0 0 0 0
          0 0 0 0 0 0
          0 0 0 0 0 0
          0 0 0 0 0 0
          0 0 0 0 0 0
          0 0 0 0 0 0
          0 0 0 0 0 0
          0 0 0 0 0 0
          0 0 0 0 0 0
          0 0 0 0 0 0
          0 0 0 0 0 0
          0 0 0 0 0 0
          0 0 0 0
        </DataArray>
        <DataArray type="Float64" Name="gradient_error" format="ascii" RangeMin="1.880427686816669e-14" RangeMax="5.44802171101638e-7">
          3.1095480101608046e-10 1.6993278544810416e-10 8.01310020423039e-10 4.3532640121948635e-10 1.1589109562119695e-10 6.42509259765892e-11
          2.899318665066859e-10 1.6006653658812778e-10 3.1703149315468022e-12 2.569339857238393e-12 6.366821997054818e-12 5.568632159345848e-12
          1.4350742958126897e-12 1.148163055244804e-12 3.365501648254845e-12 2.6834267023342206e-12 7.833718245912126e-13 6.414370580743723e-13
          2.035080405700002e-12 1.5982844453349955e-12 2.857288614632423e-13 2.403971510735301e-13 7.137179612251847e-13 5.845995500182526e-13
          3.689906742631674e-14 3.459206725205802e-14 6.004429520594632e-14 5.93225981951122e-14 2.175269736360242e-14 2.0278487115884554e-14
          2.0268848171716854e-14 1.9618980853663503e-14 2.891076988012786e-11 6.934278201593373e-11 1.261075633198145e-11 3.020120666956964e-11
          1.9683647829299837e-12 4.770442321636878e-12 8.612518146769187e-13 2.0013517564135965e-12 4.995022915575322e-13 1.1614884849699892e-12
          1.95065440683818e-13 4.554811388113206e-13 3.22850670777993e-14 5.860090118427809e-14 1.880427686816669e-14 1.8969113535610152e-14
          3.254657882392027e-9 1.760104956900124e-9 1.170060783030012e-9 6.43022041273321e-10 3.1409366843645656e-11 2.5004276800847464e-11
          1.3668137718670055e-11 1.0604162798918544e-11 8.210782108056748e-12 6.292776586981781e-12 2.676219178528543e-12 2.2094576246186164e-12
          2.3864002591715846e-13 2.276485236162967e-13 5.544980816660167e-14 4.3894230417831833e-14 2.6555203140822094e-10 1.1598329951663007e-10
          1.8599186758049265e-11 7.54018787916703e-12 4.374771065906814e-12 1.7426960707086904e-12 2.1665702131543484e-13 3.2338652669061996e-14
          1.311026122303789e-8 7.061254577549655e-9 4.754269922670298e-9 2.5991088385308287e-9 2.0472306234872398e-10 1.3835422675711517e-10
          6.715100300395501e-11 4.7845646623825085e-11 3.303392505578701e-11 2.4802484552065194e-11 9.448330543534447e-12 8.065381706544991e-12
          9.144748264517547e-13 9.010306197236801e-13 1.7486962232451566e-13 1.408308294322128e-13 1.0122479320614203e-9 4.4394775439135873e-10
          7.198539116550631e-11 2.854029024369517e-11 1.6571044048343374e-11 6.682432869555539e-12 8.875864129956056e-13 1.0679203653990991e-13
          1.3674882988438965e-10 9.975796130205889e-11 3.2509711159665556e-11 2.8989180408209735e-11 3.5603284333041994e-12 3.5973609334449123e-12
          6.060681510866294e-13 5.407670717364504e-13 6.276709271972813e-11 2.5468649656753908e-11 3.6343934335856252e-12 4.754659923862715e-13
          2.9120595339817616e-10 2.698134212244538e-10 5.497878950142111e-11 8.233583558648135e-11 2.982432616674015e-10 1.1261462022254535e-10
          4.800038377872195e-9 1.4183707195403457e-9 2.3381587586013673e-10 2.5027489582124186e-10 3.7137912610439804e-10 1.0765090969554028e-10
          6.102129892322276e-9 2.812955033739697e-10 7.982219305547495e-10 9.182991786466821e-11 3.1836072678744175e-9 3.751020402252039e-9
          3.6946754556970916e-8 2.386954545665211e-8 3.336893979361476e-9 7.809093175086653e-8 3.263125193115969e-9 4.129904940851421e-9
          2.0810576034471916e-9 1.3490401787801657e-9 2.2804684846130614e-7 1.3227176896149359e-8 1.986454025745244e-9 1.463636562296445e-9
          2.1267289755568176e-8 2.800959281574295e-10 1.1049463273455642e-9 9.836237741172944e-10 9.095622989140767e-10 2.692399554247819e-10
          1.2464566712020108e-9 3.93136765676136e-8 3.115613140399806e-8 4.440988007736563e-7 3.2119181777662016e-7 3.6128576204788105e-8
          4.788877213119502e-7 3.2491543549071714e-7 3.4854821351357514e-8 1.4917980857301115e-7 1.1485947794369016e-7 3.4175460577402413e-9
          5.44802171101638e-7 3.167772677599927e-7 2.7569010676381203e-7 3.226380720752727e-8 7.751352570383689e-8 2.817025394395222e-7
          9.428932281451332e-8 7.56068242623042e-8 1.1677535610238094e-7 1.0944158340808442e-7 1.7608799636787638e-7 5.771407943288485e-8
          2.6574507836887855e-8 6.22175240895869e-8 7.49112791924818e-9 1.0563116363764287e-9 7.90877507807101e-9 2.2497289195997094e-10
          2.0477078060437173e-10 3.1202494929317225e-10 9.95622991457154e-10 6.402367903131887e-10 5.762578254551873e-10 8.449128171683933e-10
          5.6702347923506286e-11 1.6001107742985422e-10 1.5047735637217258e-10 1.8456866924877252e-10 5.122788605971861e-10 6.942026428796328e-10
          1.4094363531449088e-10 8.707709060116142e-10 1.824038101976575e-9 5.152267404754994e-10 1.2474716517786546e-9 3.888557998832288e-10
          7.492397563211186e-10 5.219059121124717e-10 2.777305297941536e-9 1.97971656308181e-9 1.1096237127590083e-9 2.916613106234037e-10
          4.886852413079559e-10 5.98000468173137e-11 1.215590118486458e-10 1.434893966273528e-10 2.1635180113377574e-10 6.11222128447667e-11
          6.857091719925078e-10 1.8331797687997789e-10 2.8921420564019865e-10 3.724438446898844e-8 9.656734834052502e-8 2.095828611796232e-8
          6.759551613093901e-8 5.561976435406916e-9 1.5351285000592967e-8 1.2831835140331471e-8 1.558903122120616e-7 1.1423274614391571e-7
          2.514059356577902e-8 7.503113097055956e-9 4.0551914304232725e-8 2.138973475255074e-9 1.9955208401723063e-8 1.7205486106179517e-9
          8.980899053674619e-9 5.077977998337779e-9 7.360071551140949e-8 3.7771443328191055e-8 1.6241249496731288e-8 9.443131337144036e-10
          7.873011414597951e-10 2.602707412805513e-9 8.198693381862514e-9 2.7027736191277667e-9 2.256221220057219e-9 7.48885115219768e-9
          1.7009632083530232e-10 5.782819097369038e-10 4.652897664672102e-10 6.302891492051865e-10 1.8096688209866715e-9 6.779008922532846e-9
          3.5229762319751666e-10 1.5538793980854316e-9 7.316480395159637e-9 1.0287526009133497e-9 2.4462144535880677e-9 8.978794893486486e-10
          2.1391900724071634e-9 9.279359954822048e-10 1.3079081392233841e-8 3.8636763062627855e-9 3.380500655465678e-9 1.0385139812000134e-9
          1.6600202629051658e-9 9.01038606821873e-10 2.693949620285123e-10 5.685033930651884e-10 2.509165730971095e-10 2.281526544610318e-9
          1.022197114684809e-9 8.676118241018647e-10 4.281270252338453e-7 4.0288236381401927e-7 3.81350177314822e-7 4.563002470107915e-7
          4.162767395854597e-7 3.2147993542484305e-7 4.4248096827935575e-7 3.167197773135109e-7 4.7505535593295476e-7 4.975533124892277e-7
          2.0998652099512373e-7 3.847012651508534e-7 3.267837582025438e-7 5.164157945347396e-7 4.610834725984692e-7 4.2959289420452726e-7
          3.414006943112201e-7 3.9745238347050226e-7 4.4287664483695284e-7 3.625367309093654e-7 3.5044618434315866e-7 3.240050668346934e-7
          4.488734312280926e-7 3.972781765510611e-7 2.2517731323000485e-9 2.0659239922729618e-7 4.614340121978071e-8 4.3375836674284254e-7
          1.9117867229640824e-7 3.22344471670095e-7 1.8725258131077123e-7 3.2659070462871177e-7 1.2655549235998778e-7 2.2595186465669585e-7
          2.2066667093343848e-7 3.733220989879385e-7 3.820002024591695e-7 2.68528005339709e-7 1.819844135684993e-7 3.297401162142596e-7
          1.751625306926562e-7 3.313098705524149e-7 1.1406100927819704e-7 2.1352386533739907e-7 2.043798145644727e-7 3.8995809827185355e-7
          3.966145540788322e-7 2.585820948737108e-7 3.421817627182962e-7 3.783170469084168e-7 2.1299036412828153e-7 2.937418964075496e-7
          2.3662997938690784e-7 3.2437038672948337e-7 4.121305371053084e-7 3.5429837596107754e-7 8.884926977770083e-10 4.956016078695789e-8
          3.319203505726955e-7 1.6687611525494838e-7 3.3142981847272197e-7 1.9134804935345382e-7 3.293757206190235e-7 1.0079937699289029e-7
          1.9278930282563375e-7 1.7825792541674868e-7 4.019050179640177e-7 4.050620183570284e-7 2.372334417143533e-7 4.844545419543454e-10
          4.0853070983514336e-10 1.2490370410117109e-9 1.0499317575734844e-9 3.326068777159413e-10 8.50826474135258e-10 2.184283733296058e-9
          2.2422708845671245e-9 9.160819192143326e-9 9.001443775721193e-9 4.453683748705464e-9 1.7414535605918912e-8 1.7441166367954527e-8
          2.300258035838191e-9 8.84206835929906e-9 1.7467797129990142e-8 7.779656277099532e-9 7.618636798216392e-9 2.4823869466293523e-8
          2.47353773251937e-8 7.648702209419693e-9 2.3435496429185325e-8 2.3165498417257872e-8 7.457617319333251e-9 2.464688518409388e-8
          2.2895500405330423e-8 5.603082440057333e-9 5.235822309909121e-9 1.5905436727885064e-8 1.5346314886316084e-8 4.86856217976091e-9
          1.4787193044747102e-8 7.115607368002295e-8 6.548224989274617e-8 1.8995340169182822e-7 1.717396910864981e-7 5.841213543974957e-8
          1.8659059457351538e-7 1.6739629124552393e-7 5.035896671006685e-8 1.250518020029593e-7 1.1931541390877198e-7 5.3220613586205387e-8
          5.122309504457954e-8 1.8214459438503503e-7 1.62217056112917e-7 4.429544746134505e-8 1.764719033689693e-7 1.5627901705096362e-7
          4.350336994880657e-8 1.1289930057040404e-7 1.0592467376442672e-7 3.306503644503337e-8 3.84430863078556e-8 1.6997128274701162e-7
          1.4983291313698565e-7 3.290526704142079e-8 1.6237778144471345e-7 1.4285774334578052e-7 4.272849439647868e-8 9.834164317106832e-8
          1.029946839678801e-7 3.241648036377022e-8 4.95408913310471e-8 3.677314125214905e-8 5.456912754588316e-8 5.893054678997034e-8
          5.929076009470551e-8 6.634357444456584e-8 5.965097339944069e-8 4.960524762672886e-8 5.1832237587710505e-8 5.4059227548692145e-8
          4.909534762953784e-8 4.187587781575526e-8 5.019002137986918e-8 3.5723930299461226e-8 5.0477183000938034e-8 5.853319570933593e-8
          6.522854268741721e-8 2.4400946581201e-8 4.104684551135525e-8 3.441125842102884e-8 5.741541801923117e-8 6.920141026662277e-8
          7.01824466598238e-8 7.293354618588284e-8 7.116348305302484e-8 7.417918487576343e-8 7.556213213009722e-8 7.848414190408301e-8
          7.939785797704094e-8 7.808406989007491e-8 8.124208559191471e-8 8.627997818671783e-8 8.063353461417854e-8 3.772116612744916e-8
          5.3311671891126245e-8 3.892059513302852e-8 5.498627483126449e-8 6.890865320523885e-8 7.423437460648764e-8 2.7849969121055166e-9
          3.619656357910825e-8 3.66721176217093e-8 6.665382335745286e-8 4.001966755751042e-8 4.8898819649589195e-8 4.110189698289577e-8
          4.288613136296239e-8 6.975067290440184e-8 6.484885518374022e-8 1.735548988478858e-9 2.1342060146940883e-8 5.364245570415113e-9
          6.009807272538771e-8 8.061949136204782e-8 8.057078404175413e-8 8.31549128340207e-8 8.262163530032839e-8 8.643771423523964e-8
          8.33587812082841e-8 8.793205737345258e-8 8.400118500874206e-8 8.659545028376142e-8 8.608402780238966e-8 7.944843633824309e-8
          8.149950410190154e-8 7.452489794611809e-8 8.705557820800248e-8 8.99030922523569e-8 9.342315701589812e-8 8.92455999542688e-8
          4.208782212637981e-8 4.423131963070823e-8 2.4459017389008387e-8 3.627454807728953e-8 6.756167865796131e-8 7.012176338180449e-8
          1.0571986965294221e-9 4.764301976666937e-9 4.239709299028099e-9 4.790973104493654e-8 8.997223635748596e-8 9.347360620326246e-8
          9.140028010855208e-8 9.481884905632169e-8 9.004138046261502e-8 9.35240553906268e-8 9.355496026283534e-8 3.1184541400802716e-8
          7.10875208206838e-8 2.951140637786091e-8 6.641768110057472e-8 2.14595754869411e-8 4.559741811661702e-8 4.240652230113794e-8
          2.8726028674537706e-8 6.158636082743528e-8 2.9125296263554248e-8 5.672258531143457e-8 1.9670893954415966e-8 3.9663638354861344e-8
          3.768195382697362e-8 3.1043990865035435e-8 5.19208011967529e-8 2.045212910779133e-8 3.685285957832883e-8 5.189621396108839e-9
          5.554553768597156e-9 5.53879258150563e-9 5.9962936487522805e-9 5.5230313944141065e-9 4.827420666475315e-9 4.937053112261654e-9
          5.046685558047993e-9 4.6844848284144695e-9 4.7670159180726216e-9 5.0694733831144215e-9 4.70597334574746e-9 5.25231343660799e-9
          5.371930848156221e-9 5.7986535274685215e-9 3.979478067548087e-9 4.600154184723212e-9 4.5083332244637004e-9 5.220830301898336e-9
          6.188759670360332e-9 6.170272466978684e-9 6.234446437840023e-9 6.151785263597036e-9 6.2095991184124385e-9 6.2138325675504505e-9
          6.172663617630251e-9 6.218066016688463e-9 4.647004123069856e-9 5.298853842271289e-9 4.512959450190532e-9 5.2482983971373025e-9
          5.950703561472722e-9 5.983637344084074e-9 3.10524857577938e-9 4.427435217563893e-9 4.262150356434583e-9 5.749621859348406e-9
          4.360540830505484e-9 5.144222185585594e-9 4.19497239449528e-9 5.017621059064218e-9 5.927903540665704e-9 5.8402697236331536e-9
          2.5114825425985302e-9 4.074611803620738e-9 3.862578500498184e-9 5.637741064642945e-9 6.022236504791348e-9 6.148322692783029e-9
          6.0961487174122676e-9 6.2744088807747105e-9 5.643523619654056e-9 5.944817242906869e-9 5.72779838310256e-9 7.360202684158413e-9
          8.58152719039884e-9 8.746047394409066e-9 8.932416788005753e-9 9.017800286660989e-9 4.004527179723188e-9 4.874541740891073e-9
          3.797849613868133e-9 4.6740064288259496e-9 5.744556302058959e-9 6.436387077138896e-9 1.9868178546550273e-9 3.6007607889991175e-9
          3.251864140239632e-9 5.214703723343208e-9 3.586393459227634e-9 4.39803665710536e-9 3.3645205547931295e-9 4.12447571275158e-9
          6.6204833444563705e-9 6.326183196128444e-9 1.5292632988012118e-9 2.8512560713038505e-9 2.5211530424005998e-9 5.88076400475433e-9
          8.464649013666894e-9 8.72046328348463e-9 8.347770836934946e-9 8.481955381909398e-9 8.489739897283951e-9 8.93262392988914e-9
          9.211544273021045e-9 8.21786336940973e-9 8.047063006562152e-9 8.847447573117289e-9 5.073374996161691e-9 5.46365756714543e-9
          5.147477134840467e-9 7.150077908617985e-9 4.346797468908823e-9 4.794475662386434e-9 6.20392471749455e-9 6.743873531389966e-9
          8.969441246493209e-9 8.983140758655561e-9 9.492666813879618e-9 8.961735718725018e-9 8.910981454792047e-9 9.677878230534148e-9
          3.130575450379037e-9 3.870484602819031e-9 2.892203305522979e-9 3.6079537514420567e-9 6.100008573407024e-9 5.863718568090938e-9
          1.1877759045963827e-9 2.2773116384926335e-9 2.0684303680436457e-9 5.0499392381960626e-9 2.6512566278022567e-9 3.3406142711961386e-9
          2.400895246631856e-9 3.0776201375281885e-9 5.621090154333238e-9 5.385945755422858e-9 9.5571578669569e-10 1.8867528800058427e-9
          1.7297182136193794e-9 4.49830677727651e-9 8.467203377721724e-9 8.426721214641383e-9 9.34478336388843e-9 9.449709490462029e-9
          7.964965508950243e-9 7.870301670627206e-9 9.196899913897244e-9 8.358120695783255e-9 8.266688875637439e-9 9.504032997490054e-9
          9.515831268853683e-9 7.754505672841493e-9 7.62239629648283e-9 9.330187764445961e-9 3.717095313612714e-10 2.0180048473651188e-10
          9.866379337252572e-10 5.316372735442126e-10 3.189143811175236e-11 7.663661336316807e-11 4.115025871110831e-9 2.203892848007396e-9
          2.927598249039608e-10 1.6970680888899183e-8 9.039633649793936e-9 1.1085864106886907e-9 6.994446293502549e-8 5.282549052853431e-8
          2.8329389241848583e-8 3.7048285502443894e-8 1.9386515737241927e-8 1.0537379327438845e-8 1.2180080593134019e-9 7.466562163469803e-10
          3.4774775357475813e-10 2.2773851365548725e-10 3.8332879551628605e-9 4.152108069862298e-9 1.6882429176357662e-9 2.7530437338055864e-10
          1.077292737362164e-10 6.934011230863189e-10 4.5851885577047594e-10 4.1949221686916117e-10 4.023081414667918e-9 6.440240882793467e-10
          4.843015400275953e-9 3.560110135211605e-8 6.18394604960901e-9 1.4699982257355591e-9 2.2964857135811026e-9 9.4043985189754e-10
          1.494550515056095e-8 3.1229732014266452e-9 1.2614990699294825e-9 5.3341807022377555e-8 1.8252127834966288e-7 1.243504723267476e-7
          1.548860232908079e-8 3.180369610340573e-7 1.9535913763111767e-7 4.11609552838396e-7 3.8909616228931793e-7 4.3948318904247615e-7
          4.6999365490726033e-7 3.113887660344567e-7 4.5299292992073854e-7 3.6220778016862113e-7 4.4025032389308586e-7 4.884950700071076e-7
          1.9401248735179242e-7 3.175043029683907e-7 2.2952686686734898e-7 3.64479741085371e-7 6.077127701798604e-10 2.0857375172210722e-9
          1.5815737791593254e-9 1.0774100410975786e-9 3.5007861971798653e-9 3.2673892126974875e-9 7.798153362778895e-9 6.4404958832193726e-9
          5.08283840365985e-9 4.548898408827825e-8 3.21264804851191e-8 7.222728907776238e-8 1.9273791748498577e-7 1.7534131386748173e-7
          1.2996305032552049e-7 3.350312772113623e-8 7.549961878665527e-8 4.9017847172247297e-8
        </DataArray>
        <DataArray type="Float64" Name="gradient_matprop_error" format="ascii" RangeMin="0" RangeMax="0">
          0 0 0 0 0 0
          0 0 0 0 0 0
          0 0 0 0 0 0
          0 0 0 0 0 0
          0 0 0 0 0 0
          0 0 0 0 0 0
          0 0 0 0 0 0
          0 0 0 0 0 0
          0 0 0 0 0 0
          0 0 0 0 0 0
          0 0 0 0 0 0
          0 0 0 0 0 0
          0 0 0 0 0 0
          0 0 0 0 0 0
          0 0 0 0 0 0
          0 0 0 0 0 0
          0 0 0 0 0 0
          0 0 0 0 0 0
          0 0 0 0 0 0
          0 0 0 0 0 0
          0 0 0 0 0 0
          0 0 0 0 0 0
          0 0 0 0 0 0
          0 0 0 0 0 0
          0 0 0 0 0 0
          0 0 0 0 0 0
          0 0 0 0 0 0
          0 0 0 0 0 0
          0 0 0 0 0 0
          0 0 0 0 0 0
          0 0 0 0 0 0
          0 0 0 0 0 0
          0 0 0 0 0 0
          0 0 0 0 0 0
          0 0 0 0 0 0
          0 0 0 0 0 0
          0 0 0 0 0 0
          0 0 0 0 0 0
          0 0 0 0 0 0
          0 0 0 0 0 0
          0 0 0 0 0 0
          0 0 0 0 0 0
          0 0 0 0 0 0
          0 0 0 0 0 0
          0 0 0 0 0 0
          0 0 0 0 0 0
          0 0 0 0 0 0
          0 0 0 0 0 0
          0 0 0 0 0 0
          0 0 0 0 0 0
          0 0 0 0 0 0
          0 0 0 0 0 0
          0 0 0 0 0 0
          0 0 0 0 0 0
          0 0 0 0 0 0
          0 0 0 0 0 0
          0 0 0 0 0 0
          0 0 0 0 0 0
          0 0 0 0 0 0
          0 0 0 0 0 0
          0 0 0 0 0 0
          0 0 0 0 0 0
          0 0 0 0 0 0
          0 0 0 0 0 0
          0 0 0 0 0 0
          0 0 0 0 0 0
          0 0 0 0 0 0
          0 0 0 0 0 0
          0 0 0 0 0 0
          0 0 0 0 0 0
          0 0 0 0 0 0
          0 0 0 0 0 0
          0 0 0 0 0 0
          0 0 0 0 0 0
          0 0 0 0 0 0
          0 0 0 0 0 0
          0 0 0 0 0 0
          0 0 0 0 0 0
          0 0 0 0 0 0
          0 0 0 0 0 0
          0 0 0 0 0 0
          0 0 0 0 0 0
          0 0 0 0 0 0
          0 0 0 0 0 0
          0 0 0 0 0 0
          0 0 0 0 0 0
          0 0 0 0 0 0
          0 0 0 0 0 0
          0 0 0 0 0 0
          0 0 0 0 0 0
          0 0 0 0 0 0
          0 0 0 0 0 0
          0 0 0 0 0 0
          0 0 0 0 0 0
          0 0 0 0 0 0
          0 0 0 0 0 0
          0 0 0 0 0 0
          0 0 0 0 0 0
          0 0 0 0 0 0
          0 0 0 0 0 0
          0 0 0 0 0 0
          0 0 0 0 0 0
          0 0 0 0 0 0
          0 0 0 0 0 0
          0 0 0 0 0 0
          0 0 0 0 0 0
          0 0 0 0 0 0
          0 0 0 0 0 0
          0 0 0 0 0 0
          0 0 0 0 0 0
          0 0 0 0 0 0
          0 0 0 0 0 0
          0 0 0 0 0 0
          0 0 0 0 0 0
          0 0 0 0 0 0
          0 0 0 0 0 0
          0 0 0 0 0 0
          0 0 0 0 0 0
          0 0 0 0
        </DataArray>
        <DataArray type="Float64" Name="initial_marker" format="ascii" RangeMin="0" RangeMax="2">
          0 0 0 0 0 0
          0 0 0 0 0 0
          0 0 0 0 0 0
          0 0 0 0 0 0
          0 0 0 0 0 0
          0 0 0 0 0 0
          0 0 0 0 0 0
          0 0 0 0 0 0
          0 0 0 0 0 0
          0 0 0 0 0 0
          0 0 0 0 0 0
          0 0 0 0 0 0
          0 0 0 0 0 0
          0 0 0 0 0 0
          0 0 0 0 0 0
          0 0 0 0 0 0
          0 0 0 0 0 0
          0 0 0 0 0 0
          0 0 0 0 0 0
          0 0 0 0 0 0
          0 0 0 0 0 0
          0 0 0 0 0 0
          0 2 0 0 0 0
          0 0 0 0 0 0
          0 0 0 1 0.5 0
          1 0.5 0 0 0 2
          2 2 0 0 0 0.5
          0 0 0 0 0 0
          0 0 0 0 0 0
          0 0 0 0 0 0
          0 0 0 0 0 0
          0 0 0 0 0 0
          0 0 0 0 0 0
          0 0 0 0 0 0
          0 0 0 0 0 0
          0 0 0 0 0 0
          0 0 0 0 0 0
          0 0 0 0 0 0
          0 0 0 0 0 0
          0 0 0 0 0 0
          0 0 0 0 0 0
          0 0 0 0 0 0
          0 0 0 0 0 0
          0 0 1 1 2 2
          1 2 2 0.5 1.5 1.5
          2 2 2 2 1 1
          2 2 1 2 2 0.5
          1.5 1.5 2 2 2 2
          0 0.5 0 0.5 0 0
          0 1 1 0 0 0.5
          0 0.5 0 0 0 1
          1 0 1 1 2 2
          1 0.5 1.5 1.75 2 2
          2 0 0.5 0.3333333333333333 0.75 0
          0 0 1 1 0 0
          0 0 0 0 0 0
          0 0 0 0 0 0
          0 0 0 0 0 0
          0 0 0 0 0 0
          0 0 0 0 0 0
          0 0 0 0 0 0
          0 0 0 0 0 0
          0 0 0 0 0 0
          0 0 0 0 0 0
          0 0 0 0 0 0
          0 0 0 0 2 2
          2 2 2 2 2 2
          2 2 2 2 2 2
          2 2 2 2 2 2
          2 2 2 2 2 2
          2 2 2 2 2 2
          2 2 2 2 2 2
          2 2 2 2 2 2
          2 2 2 2 2 2
          2 2 2 2 2 2
          2 2 2 2 2 2
          2 2 2 2 2 2
          2 2 2 2 2 2
          2 2 2 2 2 2
          2 2 2 2 2 0
          0 0 0 0 0 0
          0 0 0 0 0 0
          0 0 0 0 0 2
          2 2 2 2 2 2
          2 2 2 2 2 2
          2 2 2 2 2 2
          2 2 2 2 2 2
          2 2 2 2 2 2
          2 2 2 2 2 2
          2 2 2 2 2 2
          2 2 2 2 2 2
          2 2 2 2 2 2
          2 2 2 2 2 2
          2 2 2 2 2 2
          2 2 2 2 2 2
          2 2 2 2 2 2
          2 2 2 2 2 2
          2 2 2 2 2 2
          2 2 2 2 2 2
          2 2 2 2 2 2
          2 2 2 2 2 2
          2 2 2 2 2 2
          2 2 2 2 2 2
          2 2 2 2 2 2
          2 2 2 2 2 2
          2 2 2 2 0 0
          0 0 0 0 0 0
          0 0 0 0 0 0
          0 0 0 0 0 0
          0 0 0 0 0 0
          0 0 0 0 0 0
          0 0 0 0 0 0
          0 0 0 0 0 0
          0 0 0 1 1 2
          2 0.5 1.5 2 2 2
          0 0.5 0 1 0 0
          0 0 0 0 0 0
          0 0 0 0 0 0
          0 0 0 0
        </DataArray>
        <DataArray type="Float64" Name="markers_norefine" format="ascii" RangeMin="0" RangeMax="2">
          0 0 0 0 0 0
          0 0 0 0 0 0
          0 0 0 0 0 0
          0 0 0 0 0 0
          0 0 0 0 0 0
          0 0 0 0 0 0
          0 0 0 0 0 0
          0 0 0 0 0 0
          0 0 0 0 0 0