<?xml version="1.0"?>
<VTKFile type="UnstructuredGrid" version="0.1" byte_order="LittleEndian" header_type="UInt32" compressor="vtkZLibDataCompressor">
  <UnstructuredGrid>
    <Piece NumberOfPoints="600" NumberOfCells="375">
      <PointData>
        <DataArray type="Int32" Name="libmesh_node_id" format="ascii" RangeMin="653" RangeMax="5788">
          661 1414 1419 1421 1422 1423
          1424 1426 1428 1429 1431 1432
          1433 1434 1889 1890 1891 1892
          2645 2668 2669 2670 2673 2674
          2675 2676 2677 2678 2679 2680
          2681 2685 2686 2688 2689 2690
          2691 2694 2695 2698 2700 2702
          2703 2706 2707 2709 2711 2712
          2713 2714 2715 2716 2717 2718
          2719 2720 2721 2722 2723 2724
          2725 2726 2727 2728 2729 2730
          2731 2733 2735 2737 2739 2741
          2743 2745 2797 2992 2994 3012
          3013 3014 3017 3018 3019 3020
          3021 3022 3023 3024 3025 3026
          3027 3031 3036 3038 4667 4781
          4815 4873 4877 4901 4905 4937
          4938 4939 4940 4941 4943 4944
          4945 4946 4947 4948 4960 4961
          4962 4964 4965 4966 4967 4968
          4975 4976 4977 4978 4979 4980
          4981 4982 4983 4984 4985 4986
          4987 4988 4993 4994 4995 4996
          4997 4998 4999 5000 5001 5002
          5003 5004 5005 5006 5007 5008
          5009 5010 5011 5012 5013 5014
          5015 5016 5017 5018 5019 5020
          5021 5022 5023 5024 5025 5026
          5027 5028 5030 5031 5032 5033
          5034 5035 5036 5037 5038 5039
          5040 5041 5042 5043 5044 5045
          5046 5047 5048 5050 5051 5052
          5053 5054 5055 5056 5057 5058
          5059 5060 5061 5062 5065 5067
          5068 5069 5070 5071 5072 5073
          5074 5075 5076 5077 5078 5080
          5082 5083 5084 5097 5098 5101
          5103 5109 5110 5113 5115 5116
          5117 5131 5132 5135 5137 5139
          5140 5141 5142 5143 5144 5145
          5146 5147 5148 5149 5150 5151
          5152 5153 5154 5155 5156 5157
          5160 5161 5163 5165 5166 5167
          5168 5169 5170 5171 5172 5173
          5174 5175 5176 5177 5178 5179
          5180 5181 5182 5183 5185 5186
          5187 5188 5189 5190 5191 5192
          5193 5194 5195 5196 5197 5198
          5199 5200 5201 5202 5203 5204
          5205 5206 5207 5208 5209 5210
          5211 5212 5213 5214 5215 5216
          5217 5218 5219 5220 5221 5222
          5223 5224 5225 5226 5227 5228
          5229 5230 5231 5232 5233 5234
          5235 5236 5237 5238 5239 5240
          5241 5242 5243 5244 5245 5246
          5247 5248 5249 5250 5251 5252
          5253 5254 5255 5256 5257 5258
          5259 5260 5261 5262 5263 5264
          5265 5266 5267 5268 5269 5270
          5271 5272 5273 5274 5275 5276
          5277 5278 5279 5280 5281 5282
          5283 5284 5285 5286 5287 5288
          5289 5290 5291 5292 5293 5294
          5295 5296 5297 5298 5299 5300
          5301 5302 5303 5304 5305 5306
          5307 5308 5309 5310 5311 5312
          5313 5314 5315 5316 5317 5318
          5319 5320 5321 5322 5323 5326
          5327 5329 5330 5332 5333 5334
          5344 5346 5348 5350 5351 5354
          5355 5357 5358 5360 5361 5362
          5372 5374 5376 5378 5379 5380
          5381 5382 5383 5384 5385 5386
          5387 5389 5390 5391 5392 5393
          5394 5395 5396 5397 5398 5399
          5401 5403 5405 5406 5407 5408
          5409 5410 5411 5412 5413 5414
          5415 5417 5418 5419 5420 5421
          5422 5423 5424 5425 5426 5427
          5429 5431 5433 653 1893 1894
          1895 1425 2704 2687 2705 816
          2708 1430 2799 815 2682 4564
          4565 4566 4778 4779 4780 4782
          4783 4784 4812 4813 4814 4816
          4817 4818 4666 4872 4876 4900
          4904 2683 5029 2684 5049 5063
          5064 5066 5079 5081 1427 5158
          5159 5162 5164 2710 5184 1413
          4551 4763 4764 2608 4766 2642
          4769 2643 4797 4798 4800 820
          4803 2648 5388 2740 5400 5402
          5404 2742 5416 2744 5428 5430
          5432 822 5576 5577 5584 5585
          5582 5587 5603 5609 5607 5611
          5632 5633 5636 5638 5639 5641
          5652 5654 5656 5658 5666 5667
          5670 5672 5673 5675 5686 5688
          5690 5692 5629 5755 5631 5757
          5759 5761 5782 5784 5786 5788
        </DataArray>
        <DataArray type="Float64" Name="bounds" format="ascii" RangeMin="0" RangeMax="0">
          0 0 0 0 0 0
          0 0 0 0 0 0
          0 0 0 0 0 0
          0 0 0 0 0 0
          0 0 0 0 0 0
          0 0 0 0 0 0
          0 0 0 0 0 0
          0 0 0 0 0 0
          0 0 0 0 0 0
          0 0 0 0 0 0
          0 0 0 0 0 0
          0 0 0 0 0 0
          0 0 0 0 0 0
          0 0 0 0 0 0
          0 0 0 0 0 0
          0 0 0 0 0 0
          0 0 0 0 0 0
          0 0 0 0 0 0
          0 0 0 0 0 0
          0 0 0 0 0 0
          0 0 0 0 0 0
          0 0 0 0 0 0
          0 0 0 0 0 0
          0 0 0 0 0 0
          0 0 0 0 0 0
          0 0 0 0 0 0
          0 0 0 0 0 0
          0 0 0 0 0 0
          0 0 0 0 0 0
          0 0 0 0 0 0
          0 0 0 0 0 0
          0 0 0 0 0 0
          0 0 0 0 0 0
          0 0 0 0 0 0
          0 0 0 0 0 0
          0 0 0 0 0 0
          0 0 0 0 0 0
          0 0 0 0 0 0
          0 0 0 0 0 0
          0 0 0 0 0 0
          0 0 0 0 0 0
          0 0 0 0 0 0
          0 0 0 0 0 0
          0 0 0 0 0 0
          0 0 0 0 0 0
          0 0 0 0 0 0
          0 0 0 0 0 0
          0 0 0 0 0 0
          0 0 0 0 0 0
          0 0 0 0 0 0
          0 0 0 0 0 0
          0 0 0 0 0 0
          0 0 0 0 0 0
          0 0 0 0 0 0
          0 0 0 0 0 0
          0 0 0 0 0 0
          0 0 0 0 0 0
          0 0 0 0 0 0
          0 0 0 0 0 0
          0 0 0 0 0 0
          0 0 0 0 0 0
          0 0 0 0 0 0
          0 0 0 0 0 0
          0 0 0 0 0 0
          0 0 0 0 0 0
          0 0 0 0 0 0
          0 0 0 0 0 0
          0 0 0 0 0 0
          0 0 0 0 0 0
          0 0 0 0 0 0
          0 0 0 0 0 0
          0 0 0 0 0 0
          0 0 0 0 0 0
          0 0 0 0 0 0
          0 0 0 0 0 0
          0 0 0 0 0 0
          0 0 0 0 0 0
          0 0 0 0 0 0
          0 0 0 0 0 0
          0 0 0 0 0 0
          0 0 0 0 0 0
          0 0 0 0 0 0
          0 0 0 0 0 0
          0 0 0 0 0 0
          0 0 0 0 0 0
          0 0 0 0 0 0
          0 0 0 0 0 0
          0 0 0 0 0 0
          0 0 0 0 0 0
          0 0 0 0 0 0
          0 0 0 0 0 0
          0 0 0 0 0 0
          0 0 0 0 0 0
          0 0 0 0 0 0
          0 0 0 0 0 0
          0 0 0 0 0 0
          0 0 0 0 0 0
          0 0 0 0 0 0
          0 0 0 0 0 0
          0 0 0 0 0 0
        </DataArray>
        <DataArray type="Float64" Name="gradient_error" format="ascii" RangeMin="2.9201764397381613e-13" RangeMax="3.788240791465e-8">
          8.655489936121973e-10 5.422202048025479e-9 2.292428072515866e-8 2.1782870873543023e-11 1.1371838427452732e-11 2.5036997707439302e-9
          8.506393586117283e-10 1.791744080670256e-10 1.748572452039169e-11 4.501899164125153e-11 8.79569025896845e-9 4.598924899178069e-9
          3.37883437485457e-10 1.5069396212570118e-10 6.147016299707847e-12 8.358400109362637e-12 3.6495294322620324e-12 4.835916924301032e-12
          1.6630902357976754e-8 1.8463333778652858e-11 2.535528661157017e-10 1.964726935603967e-10 9.148321775030395e-11 6.59915154286051e-9
          5.210671769236322e-9 1.9366359271190212e-9 2.3855928195972193e-9 6.952106108577431e-12 5.849085651017062e-12 7.349896730343456e-11
          5.688699856187697e-11 5.8816836551432856e-12 2.8072204129126415e-11 7.47835292201386e-10 5.723728213755767e-10 1.3664828115774445e-10
          2.4729111306280115e-10 1.5630152708306693e-11 3.5701316889151046e-11 3.172258068232624e-11 2.0992608636748822e-10 7.004431118681188e-12
          1.2563161072842957e-11 6.291342633072217e-12 1.0041664273856706e-11 6.069258188673489e-11 1.6594501808689027e-11 1.69897197632296e-8
          1.5037535156723147e-8 7.551444897990314e-9 6.394776091519483e-9 8.098254660500214e-9 3.1039202273974935e-9 1.8178562052682464e-8
          1.8688274975368143e-8 8.442880602495417e-9 1.1503984591291514e-8 2.511781531110594e-9 2.0390845183136445e-9 6.313548240424347e-10
          5.007103519120016e-10 9.283783341947372e-10 2.2178985499245884e-10 3.253833745906472e-9 2.8600153773770036e-9 7.247160114939359e-10
          1.4043151727273356e-9 7.445509635492302e-10 1.0306308101103944e-10 1.1294566709182948e-9 2.1588169055455402e-10 3.764063064765203e-11
          3.2859185621398644e-10 5.3481244450628436e-11 1.1757406381706462e-11 7.1214093374853895e-12 3.3305482020038454e-12 1.1969194149784736e-12
          1.2804285114755242e-11 1.1294169329208342e-11 7.654356173463731e-12 4.10159588416585e-13 5.087182087328218e-13 4.173400079291887e-12
          3.67799827643559e-12 2.9201764397381613e-13 1.8887552810858988e-12 1.639647528506335e-12 6.653143533682921e-13 2.3587507160719673e-12
          9.197670606337327e-13 3.75806773774237e-12 1.2447682890485065e-12 5.093464760789683e-13 3.0408634957372902e-9 1.0677643759855084e-8
          2.122970835924073e-8 6.128878760475078e-9 9.83897157866761e-9 1.2861875226753087e-8 1.4018427519867028e-8 1.0030324190674378e-10
          9.46545386297581e-11 1.8139967759075852e-11 5.74727234529534e-11 5.421826829008545e-11 7.954272247753359e-11 4.553212220806355e-11
          4.39960674874078e-10 4.1299398882964307e-10 2.379205617576249e-10 3.4143826872977944e-10 5.962840562544603e-11 1.211460356992883e-11
          3.40993113792206e-11 4.009780782220652e-11 2.288280640966418e-11 2.4854522567621453e-10 1.4276300152127958e-10 1.5968440090866335e-10
          9.736348142553078e-9 9.229821264310473e-9 6.23179086422357e-9 7.803382443257043e-9 1.5613535117988638e-9 1.463647574192178e-9
          9.104798351695451e-10 8.525531355503542e-10 1.2026026944232426e-9 6.984785137433812e-10 4.194025498091289e-9 3.947583995280875e-9
          2.3511805066081717e-9 3.272037520961717e-9 5.780464775351792e-9 3.7986864242411994e-9 3.6928396986923753e-9 8.61876784736207e-10
          4.987678390179642e-10 5.380604787362626e-10 3.1023808541935716e-10 2.3574695336276104e-9 1.3834148506548896e-9 1.4621443406712903e-9
          1.0670296872256683e-11 1.0107720410935139e-11 3.162178317248328e-11 2.9823886372586176e-11 5.629970812872458e-12 1.6672822823884026e-11
          1.571670955863854e-11 8.682168451589855e-12 2.5055050649286424e-11 1.3229461633793852e-11 1.3969810628724878e-10 1.3105094557137782e-10
          6.894896148225542e-11 1.0813546765123751e-10 3.697575304035273e-12 3.47156363712283e-12 8.387698263854075e-12 7.900468895539686e-12
          2.8374776237523083e-12 5.480480353663418e-12 5.158244915433626e-12 2.9711004550362124e-12 6.6675587360773184e-12 4.355764339488826e-12
          3.686479247569444e-11 3.458590205686469e-11 2.8547390837676274e-11 6.96218178001942e-12 1.8767729134261997e-11 4.137376983422139e-12
          9.930074024816157e-12 5.349859261182237e-12 1.2551838854629164e-11 7.663071476746316e-12 7.852754414657645e-11 4.126119208967492e-11
          5.0195807842123826e-11 2.6041783145748935e-12 5.062294314278065e-12 2.044876717759821e-12 3.3728230740521002e-12 2.5117076892877496e-12
          4.20271068362679e-12 2.8701269463303827e-12 2.065655494267446e-11 1.6286991682280687e-11 5.043968337494089e-10 4.720068928247639e-10
          2.6590328754847764e-10 2.487280252953757e-10 3.860591611686536e-10 2.032398386170483e-10 1.4082518339187699e-9 1.320083469668104e-9
          7.001846255681335e-10 1.0822913202282085e-9 1.3357815523137314e-10 1.2493444347530893e-10 1.0205929640471312e-10 3.7589159469854044e-10
          3.516748213267017e-10 1.6756282669915185e-10 2.8699180071053953e-10 2.751943768389767e-10 1.4481280473186656e-10 1.7096957650499983e-10
          8.999963442283203e-11 7.686959708293813e-10 4.051744727253294e-10 4.702513642457891e-10 7.269859763150802e-11 4.51663087936789e-11
          2.0287631024783978e-10 9.661872900001363e-11 1.2381306259962052e-10 6.322534302804716e-12 1.3884147928925903e-11 1.0100874508055062e-11
          5.1929692497371145e-11 2.028205409693299e-9 1.2897588905440337e-9 1.6923516019252724e-10 8.198217345766938e-11 7.816011125681249e-10
          4.515253947216266e-10 1.9025415929226893e-11 3.572970228430115e-11 2.0694293679933014e-11 8.731658421775744e-11 3.9483922815550485e-12
          7.640945346145549e-12 3.2211152672840996e-12 5.3758728772500426e-12 3.3022366472183507e-12 5.629559525672992e-12 4.086173475136478e-12
          2.8425381203209614e-11 1.856573451413414e-11 1.7906712789436172e-11 9.315811748743976e-11 4.90543277366735e-11 4.506967124316124e-11
          2.374073990522755e-11 2.487457591182853e-10 1.3075182648983428e-10 1.1542284490920777e-10 1.213002582726474e-11 2.4661934054110476e-11
          6.240965836589009e-12 1.1919700433615501e-11 6.563958409673385e-11 3.04874529428105e-11 1.0439910772686724e-11 1.9603992676688764e-11
          5.597546711293995e-12 1.0384557131770315e-11 6.453852313777362e-12 1.1333108072699906e-11 6.095716352678827e-12 4.7980557011983246e-11
          2.5317982296265394e-11 2.1875660521814687e-11 2.9752376337326394e-12 5.270050375349719e-12 2.1122821643034096e-12 3.482822477613304e-12
          1.9182998980373233e-12 3.2612845771661447e-12 2.3184556802908133e-12 1.2731001133378392e-11 7.367206404825945e-12 1.7636464373985556e-8
          1.6914077837533966e-8 1.2285157808435491e-8 1.1761754331282066e-8 1.4725687435062064e-8 1.017592526281571e-8 2.3495690222806615e-8
          2.3129747071678282e-8 1.6603024754529314e-8 2.1278198449355962e-8 8.181263382340829e-9 7.792990650730824e-9 5.0770791011198166e-9
          4.811684253730723e-9 6.644801656780892e-9 4.049432972302373e-9 1.1602060653093499e-8 1.1295220061384633e-8 7.289817296011401e-9
          1.0124798867687746e-8 1.1328691987704749e-8 7.708878112531383e-9 7.493971392015682e-9 4.975247815572518e-9 1.7239723947311664e-8
          1.1993611313613265e-8 1.1898789838562977e-8 4.929702079781403e-9 2.955094901064356e-9 3.112308207419868e-9 1.836089127589263e-9
          7.907188879052318e-9 4.861487717501623e-9 5.1783686959135294e-9 2.3713494919158723e-8 2.459428333531435e-8 1.844192189622052e-8
          1.8615594254815756e-8 2.479462782302519e-8 1.790583128671856e-8 2.2224421236805497e-8 2.393134829860402e-8 1.874840179234252e-8
          2.5549777429367826e-8 1.2741139819345417e-8 1.2796054911622018e-8 8.671065611633051e-9 8.595934081378631e-9 1.2222048804697035e-8
          7.963649029349725e-9 1.2662628263120845e-8 1.2951385115822436e-8 8.852802781386117e-9 1.2794315507518984e-8 2.1399308749160038e-8
          1.5036602808239156e-8 1.5330392122902887e-8 1.0581440820272085e-8 2.280484247758075e-8 1.60798381076316e-8 1.6605295133074666e-8
          1.0108977249743812e-8 6.35112334639025e-9 6.885189868694843e-9 4.180669433053884e-9 1.0872967481792038e-8 6.8907250527780666e-9
          7.535975860124926e-9 2.9316534575350576e-9 2.768622682603388e-9 1.584693256248621e-9 1.4925351762850815e-9 2.3086991539653862e-9
          1.2362127279381657e-9 4.5259070055255305e-9 4.338058030895462e-9 2.3949288320025493e-9 3.740529746134562e-9 8.05206265705086e-10
          7.569030342170045e-10 3.8596776559576146e-10 3.6232082963101016e-10 6.239877962880143e-10 2.9778887203606893e-10 1.3003439773846299e-9
          1.2348931790754767e-9 5.977593399012306e-10 1.041552027843151e-9 1.6651584538284156e-9 8.84572089784307e-10 1.0233904019445695e-9
          5.401331714297487e-10 2.7876046785871953e-9 1.4979374872027335e-9 1.7483888714007385e-9 4.442945332284317e-10 2.1150004668431265e-10
          2.704606623193466e-10 1.2870731802198928e-10 7.57508751538747e-10 3.6174792198271864e-10 4.661071084122278e-10 5.419531082494057e-9
          5.3030343109938265e-9 3.0957470827711614e-9 3.0018165696069454e-9 4.7737546043156335e-9 2.6480954452295396e-9 5.616022125566658e-9
          5.558482932908306e-9 3.1838381525733335e-9 5.116540703718312e-9 1.6376664381751805e-9 1.5769235590606615e-9 8.081268630370677e-10
          7.739414569518659e-10 1.3697904605317378e-9 6.644080808676392e-10 1.7397788103292229e-9 1.68754364274182e-9 8.338785776761922e-10
          1.4878566846833152e-9 3.6972995688746754e-9 2.0081667858934388e-9 2.3762489718546896e-9 1.2690450775448418e-9 4.036221688446334e-9
          2.202079827849959e-9 2.623299632079291e-9 1.022892242337914e-9 4.907114734374844e-10 6.392677542638386e-10 3.0463387515954743e-10
          1.1252079232511663e-9 5.409519770946585e-10 7.084654780455935e-10 4.18556980391518e-9 2.7097986307997685e-9 6.863045273636718e-9
          4.523784624552149e-9 1.6632487370327714e-9 9.684525522591668e-10 4.39643448469091e-10 2.8138092488791008e-9 1.6531188509981094e-9
          1.763964418383753e-10 6.39713800890583e-11 2.9202430390962865e-10 9.091248397098209e-9 6.076511466928996e-9 9.950219416946618e-9
          6.686251409953648e-9 3.818045225480753e-9 2.259394230336062e-9 1.0183341213574142e-9 4.2170503322861614e-9 2.5024617706963453e-9
          3.953678874690311e-10 1.3702109930526542e-10 4.37280870999416e-10 5.355988704040158e-10 2.816998645673368e-10 2.420887727677867e-10
          1.272501918814198e-10 9.189729506089276e-10 4.843624890522608e-10 4.107897048785364e-10 1.4108786043081286e-10 6.735764786191606e-11
          6.390489988609717e-11 2.4245042354449977e-10 1.1543527112349197e-10 1.0815895909271758e-10 9.710118391493102e-11 5.117024714179487e-11
          3.4938309486776976e-11 2.2447641841054237e-11 1.6100172605902082e-10 8.484949288411863e-11 5.6301775887898577e-11 2.567127983249771e-11
          1.4000432725491045e-11 4.2413250781042695e-11 2.2551041798710208e-11 1.2617143333217175e-9 6.666385052441235e-10 5.628786570096674e-10
          2.959569173183706e-10 1.3999879589762377e-9 7.404734774844841e-10 6.247674744836519e-10 3.339654637541835e-10 1.5892275163354885e-10
          1.4820861886253846e-10 3.7112047536848167e-10 1.7658865239806612e-10 1.6453264845685705e-10 2.181513204683061e-10 1.1498837582521604e-10
          7.490608725795162e-11 4.8295539008604825e-11 2.4130851720515693e-10 1.271538631255004e-10 8.237793284674921e-11 5.7425920956594996e-11
          3.021426672729804e-11 6.347076086631003e-11 3.3197171754800837e-11 1.3704571751387577e-11 2.5173445378912973e-12 1.2642534890520723e-12
          1.6499890829620789e-12 5.2815539330155785e-12 5.547109054918328e-12 1.009495668985086e-11 6.780026316833174e-12 3.493462693336036e-12
          5.0406565755227374e-12 9.476991076724734e-12 8.701839184655606e-12 5.985436699115113e-12 6.30055437138251e-12 1.1386998643579403e-8
          8.312650795597347e-9 7.56944787113267e-9 2.118483619379846e-8 1.5838449226213695e-8 1.450533319616542e-8 3.081786705554984e-8
          2.3662839104113342e-8 2.2246908629521482e-8 3.64227266746183e-8 2.8816930513069207e-8 2.8099971454326484e-8 3.788240791465e-8
          3.0386425181866356e-8 3.0191749960114763e-8 4.3507619218785175e-9 8.531761902821028e-9 1.3436854637835294e-8 1.7408718260690447e-8
          1.892912820057055e-8 2.0671316847877397e-11 2.085207797720977e-11 1.627203651700681e-11 1.2450760483564189e-11 6.38952571196096e-11
          5.976847428673102e-11 4.8838910733684414e-11 3.4793997413351655e-11 2.1630114442666747e-11 5.904956323110618e-11 5.924262011955619e-12
          1.1825058222569516e-11 6.843564673640237e-12 3.141372938953156e-11 1.553036804813718e-11 7.337983650026865e-12 1.3659932572511092e-8
          1.2975408453912421e-8 2.4039016723924364e-8 2.315343691406547e-8 1.1052751064132097e-8 2.0347524001567688e-8 2.974292207886627e-8
          2.974056749068535e-8 2.8349111618741835e-8 2.6929859509857422e-8 2.8866634595961296e-8 3.134638029178619e-8 2.377183300862736e-8
          2.6769370437376823e-8 3.142421640135795e-8 3.060647084740509e-11 5.167554012468227e-11 1.228141156969091e-11 6.746784087171564e-12
          2.0206967275793565e-11 1.8719557663150588e-11 7.072594648649883e-11 7.848149873448544e-11 2.7293220817096623e-11 1.407513761555307e-11
          3.0155036142409236e-11 2.5245998020871664e-11 2.896283258149919e-11 2.7100271923984296e-11 8.112727101816031e-11 7.586209186778718e-11
          2.2168537139781266e-11 6.186682485913571e-11 1.583235198885574e-11 4.3832025593051694e-11 9.848630450787753e-12 2.6830736487369577e-11
          1.7502872363361304e-10 1.6415722560486067e-10 1.346782670575137e-10 2.8869702802271956e-10 2.72714399354241e-10 2.2731936928410794e-10
          9.562853273815949e-11 5.8318623476153e-11 1.6356562005561134e-10 1.0018303015308873e-10 3.7400272483704996e-10 3.5668224368877276e-10
          3.0348926115078325e-10 4.0308041124686536e-10 3.8629105251185603e-10 3.320561880194159e-10 2.22445824219352e-10 1.3763653057057792e-10
          2.4555484966292756e-10 1.5270416022959535e-10 1.4270122500618194e-11 3.0693088720100207e-11 8.064704755205888e-12 1.3937825040850454e-11
          5.238657763410909e-11 2.3541628247126883e-11 7.19546316272543e-11 3.218757232673173e-11 7.988389685852687e-11 3.569089945524167e-11
        </DataArray>
        <DataArray type="Float64" Name="gradient_matprop_error" format="ascii" RangeMin="0" RangeMax="0">
          0 0 0 0 0 0
          0 0 0 0 0 0
          0 0 0 0 0 0
          0 0 0 0 0 0
          0 0 0 0 0 0
          0 0 0 0 0 0
          0 0 0 0 0 0
          0 0 0 0 0 0
          0 0 0 0 0 0
          0 0 0 0 0 0
          0 0 0 0 0 0
          0 0 0 0 0 0
          0 0 0 0 0 0
          0 0 0 0 0 0
          0 0 0 0 0 0
          0 0 0 0 0 0
          0 0 0 0 0 0
          0 0 0 0 0 0
          0 0 0 0 0 0
          0 0 0 0 0 0
          0 0 0 0 0 0
          0 0 0 0 0 0
          0 0 0 0 0 0
          0 0 0 0 0 0
          0 0 0 0 0 0
          0 0 0 0 0 0
          0 0 0 0 0 0
          0 0 0 0 0 0
          0 0 0 0 0 0
          0 0 0 0 0 0
          0 0 0 0 0 0
          0 0 0 0 0 0
          0 0 0 0 0 0
          0 0 0 0 0 0
          0 0 0 0 0 0
          0 0 0 0 0 0
          0 0 0 0 0 0
          0 0 0 0 0 0
          0 0 0 0 0 0
          0 0 0 0 0 0
          0 0 0 0 0 0
          0 0 0 0 0 0
          0 0 0 0 0 0
          0 0 0 0 0 0
          0 0 0 0 0 0
          0 0 0 0 0 0
          0 0 0 0 0 0
          0 0 0 0 0 0
          0 0 0 0 0 0
          0 0 0 0 0 0
          0 0 0 0 0 0
          0 0 0 0 0 0
          0 0 0 0 0 0
          0 0 0 0 0 0
          0 0 0 0 0 0
          0 0 0 0 0 0
          0 0 0 0 0 0
          0 0 0 0 0 0
          0 0 0 0 0 0
          0 0 0 0 0 0
          0 0 0 0 0 0
          0 0 0 0 0 0
          0 0 0 0 0 0
          0 0 0 0 0 0
          0 0 0 0 0 0
          0 0 0 0 0 0
          0 0 0 0 0 0
          0 0 0 0 0 0
          0 0 0 0 0 0
          0 0 0 0 0 0
          0 0 0 0 0 0
          0 0 0 0 0 0
          0 0 0 0 0 0
          0 0 0 0 0 0
          0 0 0 0 0 0
          0 0 0 0 0 0
          0 0 0 0 0 0
          0 0 0 0 0 0
          0 0 0 0 0 0
          0 0 0 0 0 0
          0 0 0 0 0 0
          0 0 0 0 0 0
          0 0 0 0 0 0
          0 0 0 0 0 0
          0 0 0 0 0 0
          0 0 0 0 0 0
          0 0 0 0 0 0
          0 0 0 0 0 0
          0 0 0 0 0 0
          0 0 0 0 0 0
          0 0 0 0 0 0
          0 0 0 0 0 0
          0 0 0 0 0 0
          0 0 0 0 0 0
          0 0 0 0 0 0
          0 0 0 0 0 0
          0 0 0 0 0 0
          0 0 0 0 0 0
          0 0 0 0 0 0
          0 0 0 0 0 0
        </DataArray>
        <DataArray type="Float64" Name="initial_marker" format="ascii" RangeMin="0" RangeMax="2">
          2 2 2 1 0 2
          2 2 0 1.25 2 2
          2 2 0 0 0 0
          2 0.75 2 2 2 2
          2 2 2 0 0 2
          2 0 1.5 2 2 2
          2 0 1.25 0 2 0
          0.5 0 0 2 0.5 2
          2 2 2 2 2 2
          2 2 2 2 2 2
          2 2 2 2 2 2
          2 2 2 2 2 1.25
          2 1.5 0 0 0 0
          0 0 0 0 0 0
          0 0 0 0 0 0
          0 0 0 0 2 2
          2 2 2 2 2 2
          2 2 2 2 2 1.75
          2 2 2 2 1.75 0.5
          1.25 1.25 1 2 2 2
          2 2 2 2 2 2
          2 2 2 2 2 2
          2 2 2 2 2 2
          2 2 2 2 2 2
          1 1 1.5 1.5 0 1
          1 0.5 1.25 1 2 2
          2 2 0 0 1 1
          0 1 1 0 1 1
          2 2 2 0 1 0
          1 0 0.75 0.6666666666666666 2 2
          1.75 0 0.75 0 0.5 0
          0.5 0 1.75 1.6666666666666667 2 2
          2 2 2 2 2 2
          2 2 2 2 2 2
          2 2 2 2 2 2
          2 2 2 2 2 2
          2 2 2 0 0.75 0.5
          1.75 2 2 2 2 2
          2 1 1.5 1 2 0
          0.25 0 0 0 0 0
          1.25 1.3333333333333333 1 2 2 1.75
          1.5 2 2 2 1.5 1.75
          0.5 1 2 1.75 0.5 1
          0 0.5 0 0.5 0 1.75
          1.5 1 0 0.25 0 0
          0 0 0 1 0.5 2
          2 2 2 2 2 2
          2 2 2 2 2 2
          2 2 2 2 2 2
          2 2 2 2 2 2
          2 2 2 2 2 2
          2 2 2 2 2 2
          2 2 2 2 2 2
          2 2 2 2 2 2
          2 2 2 2 2 2
          2 2 2 2 2 2
          2 2 2 2 2 2
          2 2 2 2 2 2
          2 2 2 2 2 2
          2 2 2 2 2 2
          2 2 2 2 2 2
          2 2 2 2 2 2
          2 2 2 2 2 2
          2 2 2 2 2 2
          2 2 2 2 2 2
          2 2 2 2 2 2
          2 2 2 2 2 2
          2 2 2 2 2 2
          2 2 2 2 2 2
          2 2 2 2 2 2
          2 1.75 2 2 2 2
          2 2 2 2 2 2
          2 2 2 2 2 2
          2 2 2 2 2 2
          2 2 2 2 2 2
          1.25 1.3333333333333333 2 2 1.75 1.75
          1.5 2 2 2 2 2
          2 2 2 2 2 2
          2 2 2 2 2 2
          2 2 2 2 2 2
          2 2 2 0 0 0
          0 0 0 0.75 0 0
          0 0 0 0 0 2
          2 2 2 2 2 2
          2 2 2 2 2 2
          2 2 2 2 2 2
          2 1.5 2 1.5 1.6666666666666667 2
          2 2 2 1.75 2 0.5
          1.25 0.6666666666666666 2 1.5 0.6666666666666666 2
          2 2 2 2 2 2
          2 2 2 2 2 2
          2 2 2 2 1.25 0.5
          1.75 0.75 2 2 2 2
          2 1 2 2 2 2
          2 2 1.75 2 1.25 2
          2 2 2 2 2 2
          2 2 2 2 2 2
          2 2 2 2 2 2
          2 2 1.75 2 1.3333333333333333 1.75
          2 2 2 2 2 2
        </DataArray>
        <DataArray type="Float64" Name="markers_norefine" format="ascii" RangeMin="0" RangeMax="1">
          0 0 0 0 0 0
          0 0 0 0 0 0
          0 0 0 0 0 0
          0 0 0 0 0 0
          0 0 0 0 0 0
          0 0 0 0 0 0
          0 0 0 0 0 0
          0 0 0 0 0 0
          0 0 0 0 0 0
          0 0 0 0 0 0
          0 0 0 0 0 0
          0 0 0 0 0 0
          0 0 0 0 0 0
          0 0 0 0 0 0
          0 0 0 0 0 0
          0 0 0 0 0 0
          0 0 0 0 0 0
          0 0 0 0 0 0
          0 0 0 0 0 0
          0 0 0 0 0 0
          0 0 0 0 0 0
          0 0 0 0 0 0
          0 0 0 0 0 0
          0 0 0 0 0 0
          0 0 0 0 0 0
          0 0 0 0 0 0
          0 0 0 0 0 0
          0 0 0 0 0 0
          0 0 0 0 0 0
          0 0 0 0 0 0
          0 0 0 0 0 0
          0 0 0 0 0 0
          0 0 0 0 0 0
          0 0 0 0 0 0
          0 0 0 0 0 0
          0 0 0 0 0 0
          0 0 0 0 0 0
          0 0 0 0 0 0
          0 0 0 0 0 0
          0 0 0 0 0 0
          0 0 0 0 0 0
          0 0 0 0 0 0
          0 0 0 0 0 0
          0 0 0 0 0 0
          0 0 0 0 0 0
          0 0 0 0 0 0
          0 0 0 0 0 0
          0 0 0 0 0 0
          0 0 0 0 0 0
          0 0 0 0 0 0
          0 0 0 0 0 0
          0 0 0 0 0 0
          0 0 0 0 0 0
          0 0 0 0 0 0
          0 0 0 0 0 0
          0 0 0 0 0 0
          0 0 0 0 0 0
          0 0 0 0 0 0
          0 0 0 0 0 0
          0 0 0 0 0 0
          0 0 0 0 0 0
          0 0 0 0 0 0
          0 0 0 0 0 0
          0 0 0 0 0 0
          0 0 0 0 0 0
          0 0 0 0 0 0
          0 0 0 0 0 0
          0 0 0 0 0 0
          0 0 0 0 0 0
          0 0 0 0 0 0
          0 0 0 0 0 0
          0 0 0 0 0 0
          0 0 0 0 0 0
          0 0 0 0 0 0
          0 0 0 0 0 0
          0 0 0 0 0 0
          0 0 0 0 0 0
          0 0 0 0 0 0
          0 0 0 0 0 0
          0 0 0 0 0 0
          0 0 0 0 0 0
          0 0 0 0 0 0
          0 0 0 0 0 0
          0 0 0 0 0 0.25
          0 0 0.5 0 0 0.5
          0 0 0 0 0 0
          0 0 0 0 0 0
          0 0 0 0 0 0
          0 0 0 0 0 0
          0 0 0 0 0 0.5
          0.25 0 1 0.75 0.25 1
          1 0.5 0 0 0 0
          0 0 0 0 0 0
          0 0 0 0 0 0
          0 0 0 0 0 0
          0 0 0 0 0 0
          0 0 0 0 0 0
          0 0 0 0 0 0
          0 0 0 0 0 0
          0 0 0 0 0 0
        </DataArray>
        <DataArray type="Float64" Name="markers_mustrefine" format="ascii" RangeMin="0" RangeMax="2">
          2 2 2 1 0 2
          2 2 0 1.25 2 2
          2 2 0 0 0 0
          2 0.75 2 2 2 2
          2 2 2 0 0 2
          2 0 1.5 2 2 2
          2 0 1.25 0 2 0
          0.5 0 0 2 0.5 2
          2 2 2 2 2 2
          2 2 2 2 2 2
          2 2 2 2 2 2
          2 2 2 2 2 1.25
          2 1.5 0 0 0 0
          0 0 0 0 0 0
          0 0 0 0 0 0
          0 0 0 0 2 2
          2 2 2 2 2 2
          2 2 2 2 2 1.75
          2 2 2 2 1.75 0.5
          1.25 1.25 1 2 2 2
          2 2 2 2 2 2
          2 2 2 2 2 2
          2 2 2 2 2 2
          2 2 2 2 2 2
          1 1 1.5 1.5 0 1
          1 0.5 1.25 1 2 2
          2 2 0 0 1 1
          0 1 1 0 1 1
          2 2 2 0 1 0
          1 0 0.75 0.6666666666666666 2 2
          1.75 0 0.75 0 0.5 0
          0.5 0 1.75 1.6666666666666667 2 2
          2 2 2 2 2 2
          2 2 2 2 2 2
          2 2 2 2 2 2
          2 2 2 2 2 2
          2 2 2 0 0.75 0.5
          1.75 2 2 2 2 2
          2 1 1.5 1 2 0
          0.25 0 0 0 0 0
          1.25 1.3333333333333333 1 2 2 1.75
          1.5 2 2 2 1.5 1.75
          0.5 1 2 1.75 0.5 1
          0 0.5 0 0.5 0 1.75
          1.5 1 0 0.25 0 0
          0 0 0 1 0.5 2
          2 2 2 2 2 2
          2 2 2 2 2 2
          2 2 2 2 2 2
          2 2 2 2 2 2
          2 2 2 2 2 2
          2 2 2 2 2 2
          2 2 2 2 2 2
          2 2 2 2 2 2
          2 2 2 2 2 2
          2 2 2 2 2 2
          2 2 2 2 2 2
          2 2 2 2 2 2
          2 2 2 2 2 2
          2 2 2 2 2 2
          2 2 2 2 2 2
          2 2 2 2 2 2
          2 2 2 2 2 2