<?xml version="1.0"?>
<VTKFile type="UnstructuredGrid" version="0.1" byte_order="LittleEndian" header_type="UInt32" compressor="vtkZLibDataCompressor">
  <UnstructuredGrid>
    <Piece NumberOfPoints="311" NumberOfCells="158">
      <PointData>
        <DataArray type="Int32" Name="libmesh_node_id" format="ascii" RangeMin="220" RangeMax="2412">
          220 275 278 281 328 333
          417 418 419 421 422 423
          434 435 436 437 438 439
          440 441 442 443 660 996
          997 998 999 1000 1001 1002
          1003 1004 1005 1013 1014 1015
          1021 1030 1031 1035 1036 1037
          1038 1039 1040 1041 1042 1043
          1044 1045 1046 1047 1048 1049
          1070 1071 1072 1073 1074 1075
          1076 1077 1078 1079 1190 1227
          1228 1229 1230 1231 1232 1233
          1234 1235 1236 1237 1238 1239
          1240 1241 1242 1243 2046 2048
          2049 2050 2051 2052 2053 2054
          2056 2058 2060 2061 2062 2063
          2064 2065 2066 2067 2068 2069
          2070 2071 2072 2073 2074 2082
          2083 2084 2092 2093 2094 2124
          2125 2128 2158 2159 2162 2184
          2185 2186 2188 2189 2190 2191
          2192 2193 2194 2195 2196 2218
          2219 2220 2222 2223 2224 2225
          2226 2227 2228 2229 2230 2231
          2232 2233 2234 2235 2236 2237
          2238 2239 2240 2241 2242 2243
          2244 2245 2246 2247 2248 2249
          2250 2251 2252 2253 2254 2255
          2256 2257 2258 2259 2260 2261
          2262 2263 2264 2265 2266 2267
          2268 2269 2270 2271 2272 2273
          2274 2275 2276 2277 2278 2279
          2280 2281 2282 2283 2284 2285
          2286 2287 2288 2289 2290 2291
          2292 2293 2294 2295 2296 2297
          2298 2299 2300 2301 2302 2303
          2304 2305 2306 2307 2308 2309
          2310 2311 2312 2313 2314 2315
          2316 2317 2318 2319 2320 2321
          2322 2323 2324 2325 2326 2327
          2328 2329 2330 2331 2332 2333
          2334 2335 2336 2337 2338 2339
          2340 2341 2342 2343 2344 2403
          2404 2405 2406 2407 2408 2409
          2410 2411 2412 277 326 282
          332 426 427 430 432 926
          272 927 930 405 1062 964
          1063 1066 1068 651 1185 1222
          1223 1226 1684 1668 1685 1688
          932 1690 1876 1888 1890 962
          1892 1904 1916 1918 966 1920
          280 2387 2397 2399 2401
        </DataArray>
        <DataArray type="Float64" Name="bounds" format="ascii" RangeMin="0" RangeMax="0">
          0 0 0 0 0 0
          0 0 0 0 0 0
          0 0 0 0 0 0
          0 0 0 0 0 0
          0 0 0 0 0 0
          0 0 0 0 0 0
          0 0 0 0 0 0
          0 0 0 0 0 0
          0 0 0 0 0 0
          0 0 0 0 0 0
          0 0 0 0 0 0
          0 0 0 0 0 0
          0 0 0 0 0 0
          0 0 0 0 0 0
          0 0 0 0 0 0
          0 0 0 0 0 0
          0 0 0 0 0 0
          0 0 0 0 0 0
          0 0 0 0 0 0
          0 0 0 0 0 0
          0 0 0 0 0 0
          0 0 0 0 0 0
          0 0 0 0 0 0
          0 0 0 0 0 0
          0 0 0 0 0 0
          0 0 0 0 0 0
          0 0 0 0 0 0
          0 0 0 0 0 0
          0 0 0 0 0 0
          0 0 0 0 0 0
          0 0 0 0 0 0
          0 0 0 0 0 0
          0 0 0 0 0 0
          0 0 0 0 0 0
          0 0 0 0 0 0
          0 0 0 0 0 0
          0 0 0 0 0 0
          0 0 0 0 0 0
          0 0 0 0 0 0
          0 0 0 0 0 0
          0 0 0 0 0 0
          0 0 0 0 0 0
          0 0 0 0 0 0
          0 0 0 0 0 0
          0 0 0 0 0 0
          0 0 0 0 0 0
          0 0 0 0 0 0
          0 0 0 0 0 0
          0 0 0 0 0 0
          0 0 0 0 0 0
          0 0 0 0 0 0
          0 0 0 0 0
        </DataArray>
        <DataArray type="Float64" Name="gradient_error" format="ascii" RangeMin="5.827061953050704e-11" RangeMax="2.3756605673300642e-8">
          3.9560219224086565e-9 8.647722336029557e-10 2.9207384137687785e-9 2.7588091237735813e-10 3.4129299793578763e-9 4.594231862291591e-9
          2.3431052521659186e-9 1.306667410132299e-9 5.632246100990986e-10 2.8368936080041644e-9 1.8063295908408848e-10 1.2006413977490996e-9
          1.99425030362748e-9 2.153701958905661e-9 9.82278617038833e-10 8.725149030359683e-10 1.94033488076411e-9 3.2177101334174893e-9
          9.307863334809764e-10 2.3406764519238777e-9 7.333110784819932e-10 3.872076652300286e-9 2.367627758631589e-9 2.610938684522017e-9
          1.883611157715433e-9 1.0778798825301491e-9 1.0510838526497185e-9 1.5682315911766517e-9 1.7028714633864806e-9 1.2122459751687434e-9
          1.4517358478151096e-9 8.088270965830964e-10 2.022912417395362e-9 3.297282320949492e-10 1.7933465728378417e-10 5.027487799806407e-10
          2.1073999306683118e-9 5.953115198939263e-10 1.3896102663545495e-10 7.929838458151856e-10 2.337491147778791e-9 8.394668663280801e-10
          1.881743964981596e-9 1.0389527195665846e-9 2.9704461593567894e-9 1.062869512828855e-9 1.573539622738365e-9 3.024045022267667e-10
          1.568099099180151e-10 4.386866611523053e-10 2.666723362206852e-10 3.145495057529711e-10 1.1202166690673885e-10 4.365355216044955e-10
          2.073421905552852e-9 2.1468373407518804e-9 1.0622431299042031e-9 1.2327197858801345e-9 1.2792752371883097e-9 1.6431124234950206e-9
          7.653652431161189e-10 1.744309593142884e-9 1.3777278240199937e-9 1.811206726454782e-9 1.4723371041157362e-9 9.607586271667248e-10
          1.2803207847708826e-9 6.606051940331244e-10 8.359555441325915e-10 7.662568645391781e-10 9.248946091902689e-10 6.674070189131854e-10
          4.3146002268528274e-10 4.893378856901392e-10 2.7228956219115233e-10 2.7990270851707517e-10 3.182233610330905e-10 3.42995378379812e-10
          2.2106283438865172e-10 5.472157486949958e-10 2.87515854842998e-10 3.677673957265335e-10 1.6875304016357604e-9 1.0840247886997895e-9
          8.91030540061558e-10 1.177797833519729e-9 8.468107011995642e-10 2.78568070079662e-9 1.796861702234295e-9 1.8666282025257162e-9
          6.573553089564711e-10 3.891508335445616e-10 5.407802763552458e-10 3.241708469833501e-10 1.0960175482761481e-9 6.416003755852548e-10
          8.115639087506028e-10 6.310732050717237e-10 7.969967877704091e-10 5.218067355128018e-10 6.374671611997146e-10 5.296039232906793e-10
          6.448403692733665e-10 5.281615421570401e-10 1.2040889586292592e-9 8.615197332855816e-10 9.38783768444586e-10 3.6190262099929503e-10
          1.9634348583871268e-10 2.717843568301125e-10 1.0090653863656902e-10 5.827061953050704e-11 8.236905234398897e-11 2.5369394907512687e-9
          1.4726389686586532e-9 3.6337373081628576e-9 4.533324742544659e-9 2.6323100844512375e-9 4.881546894087625e-9 5.862578197274116e-10
          8.096746421267778e-10 4.239325307513062e-10 8.488648061676799e-10 1.1508222534824005e-9 2.902386963846155e-10 1.3672352889413213e-10
          2.1286752877623777e-10 1.0185292709209907e-10 4.1217738573260787e-10 1.9144900188166274e-10 2.9341565066579836e-10 1.0681997290118167e-9
          1.4336960513474997e-9 7.373220593446362e-10 1.153749624002691e-9 1.5443448084391348e-9 5.149666140153257e-10 2.3669672139187137e-10
          3.605354930477017e-10 1.6897334922163165e-10 5.551294889595809e-10 2.5435324635811924e-10 3.867637645604187e-10 4.229441205030312e-9
          2.7508525115249717e-9 2.7229784126617293e-9 1.754431482578476e-9 5.794556547765217e-9 3.789905432456821e-9 3.6071747367425157e-9
          1.6874197020496914e-9 9.831057651082395e-10 1.0729624019413618e-9 6.298580042329754e-10 2.333113479651684e-9 1.356796360588812e-9
          1.4361603838359078e-9 1.7034449006411874e-9 1.0868354223426245e-9 1.302260797225558e-9 8.309980961440146e-10 2.1973418192489804e-9
          1.4114717901491016e-9 1.4343044739364685e-9 5.664019269370299e-10 6.685440330284357e-10 3.420152192917047e-10 3.983374877981861e-10
          4.5649754832867234e-10 5.164035261909731e-10 3.1091028408200575e-10 8.617600013430643e-10 5.06676370298072e-10 6.391914217293075e-10
          7.044809858018396e-9 4.630916175870627e-9 4.300696050999123e-9 2.7953931370828493e-9 7.523692937891964e-9 4.9550336662987225e-9
          4.564308175763141e-9 2.856373186452476e-9 1.6585680397100132e-9 1.7173779008673707e-9 1.0013713336134812e-9 3.0589024266627854e-9
          1.775380607245026e-9 1.8250875387919444e-9 2.57582264268536e-9 1.6614253851952175e-9 1.5003045997083668e-9 1.1067855712733966e-9
          2.7185939013657114e-9 1.7578622282924215e-9 1.59266792492103e-9 1.0100834964839451e-9 5.902971255168444e-10 7.426860183098081e-10
          4.336992020092685e-10 1.0673331294016032e-9 6.219012667422124e-10 7.832986972142751e-10 5.482726226129303e-10 2.905491310747254e-10
          3.5494772890395996e-10 2.204547740869299e-10 7.504384602752329e-10 3.932285170202205e-10 4.710128291997302e-10 1.4664552799742631e-10
          7.227308146743743e-11 1.1712796129339284e-10 5.95311060920929e-11 1.9645211757001756e-10 9.57262224120838e-11 1.3969505765912636e-10
          1.8655773876661176e-10 2.218365999185673e-10 1.3662887629630914e-10 1.6017702828171117e-10 1.46794608632833e-10 1.7109735482979158e-10
          1.2544268576811408e-10 2.873892764348786e-10 1.7649049753119696e-10 2.1703977643156079e-10 9.11577537549586e-10 4.759315356456896e-10
          5.577221427644431e-10 2.9555901296294e-10 9.736751049290669e-10 5.079246212555273e-10 5.901243226051692e-10 2.3788814188795804e-10
          1.1384636754076574e-10 1.5201065511449384e-10 8.793081903384454e-11 2.541479761043106e-10 1.2081011694186296e-10 1.6219152444312266e-10
          3.3400017946914636e-10 1.8283390440472046e-10 2.487404596846064e-10 1.4194947588657068e-10 3.503372671390583e-10 1.9279465264620206e-10
          2.588014675328415e-10 9.303242128695129e-11 9.730572342277915e-11 7.172010148874595e-11 7.102878951738064e-11 7.634841174933428e-11
          7.728442822999632e-11 5.893641557667102e-11 1.0157902555860701e-10 7.033747754601534e-11 7.822044471065833e-11 8.404179448120825e-10
          8.797075088373639e-10 6.874855780323175e-10 7.0542646231485e-10 6.908759018953282e-10 6.873658403125593e-10 5.703316373429372e-10
          9.189970728626453e-10 7.233673465973826e-10 6.838557787297905e-10 1.4968006788998307e-8 1.4107645828011455e-8 2.3756605673300642e-8
          1.954542912564574e-8 5.860584618442064e-9 7.050865736631897e-9 1.138801100552143e-8 9.026913368196667e-9 5.843981420747587e-9
          8.435457143712211e-9 3.5819834103702144e-9 3.08590082735058e-9 2.6762568324288097e-9 3.281944180277257e-9 2.4476145316656656e-9
          2.8367995079866784e-9 3.65897167546175e-9 2.5493780453808704e-9 8.239850164562628e-9 4.362961671086773e-9 1.981451208235912e-9
          2.724034509426562e-9 1.8614561829671046e-9 9.334788097822458e-10 1.751293981100015e-9 1.194984477732494e-9 9.641613721817673e-10
          2.757283436169236e-9 1.8088097191590746e-9 3.994600836706976e-9 2.5439532258764073e-9 1.7646166603110851e-9 5.265608713314715e-9
          3.2572308097087137e-9 6.24353963768163e-9 3.779229823780351e-9 2.235698932552937e-9 6.613099212016497e-9 3.970775187260681e-9
          2.3560757603820017e-9 1.2534239348244475e-9 1.314779242494944e-9 9.940264681065297e-10 1.3790356268429812e-9
        </DataArray>
        <DataArray type="Float64" Name="gradient_matprop_error" format="ascii" RangeMin="0" RangeMax="0">
          0 0 0 0 0 0
          0 0 0 0 0 0
          0 0 0 0 0 0
          0 0 0 0 0 0
          0 0 0 0 0 0
          0 0 0 0 0 0
          0 0 0 0 0 0
          0 0 0 0 0 0
          0 0 0 0 0 0
          0 0 0 0 0 0
          0 0 0 0 0 0
          0 0 0 0 0 0
          0 0 0 0 0 0
          0 0 0 0 0 0
          0 0 0 0 0 0
          0 0 0 0 0 0
          0 0 0 0 0 0
          0 0 0 0 0 0
          0 0 0 0 0 0
          0 0 0 0 0 0
          0 0 0 0 0 0
          0 0 0 0 0 0
          0 0 0 0 0 0
          0 0 0 0 0 0
          0 0 0 0 0 0
          0 0 0 0 0 0
          0 0 0 0 0 0
          0 0 0 0 0 0
          0 0 0 0 0 0
          0 0 0 0 0 0
          0 0 0 0 0 0
          0 0 0 0 0 0
          0 0 0 0 0 0
          0 0 0 0 0 0
          0 0 0 0 0 0
          0 0 0 0 0 0
          0 0 0 0 0 0
          0 0 0 0 0 0
          0 0 0 0 0 0
          0 0 0 0 0 0
          0 0 0 0 0 0
          0 0 0 0 0 0
          0 0 0 0 0 0
          0 0 0 0 0 0
          0 0 0 0 0 0
          0 0 0 0 0 0
          0 0 0 0 0 0
          0 0 0 0 0 0
          0 0 0 0 0 0
          0 0 0 0 0 0
          0 0 0 0 0 0
          0 0 0 0 0
        </DataArray>
        <DataArray type="Float64" Name="initial_marker" format="ascii" RangeMin="0" RangeMax="2">
          0 0 0 0 0 0
          0 0 0 2 2 1
          0 0 0 0 0 0
          0 0 0 0 0 0
          0 0 0 0 0 0
          1.75 1.5 0.25 0.5 0 0
          2 2 2 2 2 2
          1 0.75 2 2 1 1.75
          0.75 0 0 2 1.5 0
          0 0 0 0 0 0
          0 0 0 0 0 0
          0 0 0 0 0 0
          0 0 0 0 0 0
          0 0 0 0 1.75 1.5
          0.5 1.25 1 2 2 2
          1.5 1.25 1 1 2 2
          2 0 0.5 0 0.5 0
          0 0 1.5 1.3333333333333333 1 1.75
          1.5 1.3333333333333333 1 0.3333333333333333 0.5 2
          2 2 2 2 2 2
          2 2 2 2 2 2
          2 1.75 2 2 2 2
          2 2 2 2 2 2
          2 2 2 2 2 2
          2 2 2 2 2 2
          2 2 2 2 2 2
          2 2 1.75 2 1.5 2
          2 1.6666666666666667 1 1.5 1 1.25
          0 1 0.5 2 1.75 2
          2 2 2 2 2 2
          2 2 2 2 2 2
          2 2 2 2 1.5 1.3333333333333333
          2 2 1.5 2 2 2
          2 2 2 2 2 2
          1.75 1.6666666666666667 2 2 2 1.75
          1 1.5 0.5 2 1.75 1.6666666666666667
          0.5 0.75 0 0.5 0 0
          0 1.25 1 0.5 2 2
          2 2 2 2 2 2
          2 1.75 1.6666666666666667 2 2 2
          1.5 1 1 0 1.5 1
          1 0.5 0.75 0 0.5 0
          0 0 1 1 0 0.5
          0.5 0 0 0 0 0
          0.5 0 0 0 0 0
          0 0 0 0 0 0
          0 0.5 0 0.5 0 1.5
          0 0 0 0 0 0
          0 0 0 1.5 0.5 0
          2 1.5 2 2 1.3333333333333333 2
          2 2 2 2 2 2
          2 0.6666666666666666 1 0 1
        </DataArray>
        <DataArray type="Float64" Name="markers_norefine" format="ascii" RangeMin="0" RangeMax="0">
          0 0 0 0 0 0
          0 0 0 0 0 0
          0 0 0 0 0 0
          0 0 0 0 0 0
          0 0 0 0 0 0
          0 0 0 0 0 0
          0 0 0 0 0 0
          0 0 0 0 0 0
          0 0 0 0 0 0
          0 0 0 0 0 0
          0 0 0 0 0 0
          0 0 0 0 0 0
          0 0 0 0 0 0
          0 0 0 0 0 0
          0 0 0 0 0 0
          0 0 0 0 0 0
          0 0 0 0 0 0
          0 0 0 0 0 0
          0 0 0 0 0 0
          0 0 0 0 0 0
          0 0 0 0 0 0
          0 0 0 0 0 0
          0 0 0 0 0 0
          0 0 0 0 0 0
          0 0 0 0 0 0
          0 0 0 0 0 0
          0 0 0 0 0 0
          0 0 0 0 0 0
          0 0 0 0 0 0
          0 0 0 0 0 0
          0 0 0 0 0 0
          0 0 0 0 0 0
          0 0 0 0 0 0
          0 0 0 0 0 0
          0 0 0 0 0 0
          0 0 0 0 0 0
          0 0 0 0 0 0
          0 0 0 0 0 0
          0 0 0 0 0 0
          0 0 0 0 0 0
          0 0 0 0 0 0
          0 0 0 0 0 0
          0 0 0 0 0 0
          0 0 0 0 0 0
          0 0 0 0 0 0
          0 0 0 0 0 0
          0 0 0 0 0 0
          0 0 0 0 0 0
          0 0 0 0 0 0
          0 0 0 0 0 0
          0 0 0 0 0 0
          0 0 0 0 0
        </DataArray>
        <DataArray type="Float64" Name="markers_mustrefine" format="ascii" RangeMin="0" RangeMax="2">
          0 0 0 0 0 0
          0 0 0 2 2 1
          0 0 0 0 0 0
          0 0 0 0 0 0
          0 0 0 0 0 0
          1.75 1.5 0.25 0.5 0 0
          2 2 2 2 2 2
          1 0.75 2 2 1 1.75
          0.75 0 0 2 1.5 0
          0 0 0 0 0 0
          0 0 0 0 0 0
          0 0 0 0 0 0
          0 0 0 0 0 0
          0 0 0 0 1.75 1.5
          0.5 1.25 1 2 2 2
          1.5 1.25 1 1 2 2
          2 0 0.5 0 0.5 0
          0 0 1.5 1.3333333333333333 1 1.75
          1.5 1.3333333333333333 1 0.3333333333333333 0.5 2
          2 2 2 2 2 2
          2 2 2 2 2 2
          2 1.75 2 2 2 2
          2 2 2 2 2 2
          2 2 2 2 2 2
          2 2 2 2 2 2
          2 2 2 2 2 2
          2 2 1.75 2 1.5 2
          2 1.6666666666666667 1 1.5 1 1.25
          0 1 0.5 2 1.75 2
          2 2 2 2 2 2
          2 2 2 2 2 2
          2 2 2 2 1.5 1.3333333333333333
          2 2 1.5 2 2 2
          2 2 2 2 2 2
          1.75 1.6666666666666667 2 2 2 1.75
          1 1.5 0.5 2 1.75 1.6666666666666667
          0.5 0.75 0 0.5 0 0
          0 1.25 1 0.5 2 2
          2 2 2 2 2 2
          2 1.75 1.6666666666666667 2 2 2
          1.5 1 1 0 1.5 1
          1 0.5 0.75 0 0.5 0
          0 0 1 1 0 0.5
          0.5 0 0 0 0 0
          0.5 0 0 0 0 0
          0 0 0 0 0 0
          0 0.5 0 0.5 0 1.5
          0 0 0 0 0 0
          0 0 0 1.5 0.5 0
          2 1.5 2 2 1.3333333333333333 2
          2 2 2 2 2 2
          2 0.6666666666666666 1 0 1
        </DataArray>
        <DataArray type="Float64" Name="gradient_marker" format="ascii" RangeMin="1" RangeMax="1">
          1 1 1 1 1 1
          1 1 1 1 1 1
          1 1 1 1 1 1
          1 1 1 1 1 1
          1 1 1 1 1 1
          1 1 1 1 1 1
          1 1 1 1 1 1
          1 1 1 1 1 1
          1 1 1 1 1 1
          1 1 1 1 1 1
          1 1 1 1 1 1
          1 1 1 1 1 1
          1 1 1 1 1 1
          1 1 1 1 1 1
          1 1 1 1 1 1
          1 1 1 1 1 1
          1 1 1 1 1 1
          1 1 1 1 1 1
          1 1 1 1 1 1
          1 1 1 1 1 1
          1 1 1 1 1 1
          1 1 1 1 1 1
          1 1 1 1 1 1
          1 1 1 1 1 1
          1 1 1 1 1 1
          1 1 1 1 1 1
          1 1 1 1 1 1
          1 1 1 1 1 1
          1 1 1 1 1 1
          1 1 1 1 1 1
          1 1 1 1 1 1
          1 1 1 1 1 1
          1 1 1 1 1 1
          1 1 1 1 1 1
          1 1 1 1 1 1
          1 1 1 1 1 1
          1 1 1 1 1 1
          1 1 1 1 1 1
          1 1 1 1 1 1
          1 1 1 1 1 1
          1 1 1 1 1 1
          1 1 1 1 1 1
          1 1 1 1 1 1
          1 1 1 1 1 1
          1 1 1 1 1 1
          1 1 1 1 1 1
          1 1 1 1 1 1
          1 1 1 1 1 1
          1 1 1 1 1 1
          1 1 1 1 1 1
          1 1 1 1 1 1
          1 1 1 1 1
        </DataArray>
        <DataArray type="Float64" Name="gradient_matprop_marker" format="ascii" RangeMin="0" RangeMax="0">
          0 0 0 0 0 0
          0 0 0 0 0 0
          0 0 0 0 0 0
          0 0 0 0 0 0
          0 0 0 0 0 0
          0 0 0 0 0 0
          0 0 0 0 0 0
          0 0 0 0 0 0
          0 0 0 0 0 0
          0 0 0 0 0 0
          0 0 0 0 0 0
          0 0 0 0 0 0
          0 0 0 0 0 0
          0 0 0 0 0 0
          0 0 0 0 0 0
          0 0 0 0 0 0
          0 0 0 0 0 0
          0 0 0 0 0 0
          0 0 0 0 0 0
          0 0 0 0 0 0
          0 0 0 0 0 0
          0 0 0 0 0 0
          0 0 0 0 0 0
          0 0 0 0 0 0
          0 0 0 0 0 0
          0 0 0 0 0 0
          0 0 0 0 0 0
          0 0 0 0 0 0
          0 0 0 0 0 0
          0 0 0 0 0 0
          0 0 0 0 0 0
          0 0 0 0 0 0
          0 0 0 0 0 0
          0 0 0 0 0 0
          0 0 0 0 0 0
          0 0 0 0 0 0
          0 0 0 0 0 0
          0 0 0 0 0 0
          0 0 0 0 0 0
          0 0 0 0 0 0
          0 0 0 0 0 0
          0 0 0 0 0 0
          0 0 0 0 0 0
          0 0 0 0 0 0
          0 0 0 0 0 0
          0 0 0 0 0 0
          0 0 0 0 0 0
          0 0 0 0 0 0
          0 0 0 0 0 0
          0 0 0 0 0 0
          0 0 0 0 0 0
          0 0 0 0 0
        </DataArray>
        <DataArray type="Float64" Name="combo" format="ascii" RangeMin="1" RangeMax="1">
          1 1 1 1 1 1
          1 1 1 1 1 1
          1 1 1 1 1 1
          1 1 1 1 1 1
          1 1 1 1 1 1
          1 1 1 1 1 1
          1 1 1 1 1 1
          1 1 1 1 1 1
          1 1 1 1 1 1
          1 1 1 1 1 1
          1 1 1 1 1 1
          1 1 1 1 1 1
          1 1 1 1 1 1
          1 1 1 1 1 1
          1 1 1 1 1 1
          1 1 1 1 1 1
          1 1 1 1 1 1
          1 1 1 1 1 1
          1 1 1 1 1 1
          1 1 1 1 1 1
          1 1 1 1 1 1
          1 1 1 1 1 1
          1 1 1 1 1 1
          1 1 1 1 1 1
          1 1 1 1 1 1
          1 1 1 1 1 1
          1 1 1 1 1 1
          1 1 1 1 1 1
          1 1 1 1 1 1
          1 1 1 1 1 1
          1 1 1 1 1 1
          1 1 1 1 1 1
          1 1 1 1 1 1
          1 1 1 1 1 1
          1 1 1 1 1 1
          1 1 1 1 1 1
          1 1 1 1 1 1
          1 1 1 1 1 1
          1 1 1 1 1 1
          1 1 1 1 1 1
          1 1 1 1 1 1
          1 1 1 1 1 1
          1 1 1 1 1 1
          1 1 1 1 1 1
          1 1 1 1 1 1
          1 1 1 1 1 1
          1 1 1 1 1 1
          1 1 1 1 1 1
          1 1 1 1 1 1
          1 1 1 1 1 1
          1 1 1 1 1 1
          1 1 1 1 1
        </DataArray>
        <DataArray type="Float64" Name="dHdT" format="ascii" RangeMin="25.81874564808671" RangeMax="27.731948271445816">
          25.824871689078563 25.822193644540512 25.820967743358203 25.825346795772287 25.81874564808671 25.820475645634716
          25.846522762508524 25.87854122206971 25.825618680864338 26.48536477289346 25.855374316363655 25.918527948014557
          25.83593816658728 25.847823020447063 25.823318443401806 25.82386436251777 25.834375076449334 25.846131103980806
          25.82407108297349 25.856784362752006 25.82432496725068 25.852525922414486 25.833234154666798 25.93220936918231
          25.957749781856965 25.86621209799715 25.878394708101403 25.895595442186178 25.90979407449565 25.87070920405668
          26.12009916413394 25.929195559653003 25.96328528359768 25.852024951598246 25.826909262003284 25.843232709069316
          26.308465011393146 25.951705599376197 25.84635312823982 25.99759575573363 26.397506529685963 26.02163988871268
          26.038819705166112 25.90503855361384 26.54828141946383 26.073771611307812 26.07518202150928 25.875133271080067
          25.83119814495727 25.84676823187839 25.82816127388028 25.89071074781219 25.832959259245293 25.85106678485028
          25.91339407941236 25.932843916757726 25.866899025859336 25.87273166532008 25.8883624036998 25.90632156464174
          25.857976216184017 25.935842247704358 25.878253937694467 25.914381472988474 25.827778158709663 25.870874834952893
          25.883222486660912 25.852101760382133 25.859190026034373 25.861251080512087 25.869857115808344 25.851846578388294
          25.837440390568858 25.839047731545005 25.82838179590553 25.8286774179711 25.833489793313262 25.834468495369954
          25.827235648473724 25.84065507252115 25.828973040036676 25.835447197426646 26.266435521349702 26.103796475628233
          26.0806599536404 26.145780583979622 26.05173665159354 26.522847938017154 26.266798523709657 26.304023556897455
          25.994876844178584 25.92405940882057 25.969982234110347 25.910442503643523 26.092064931725893 25.97780480795545
          26.029722558541366 26.015471890173036 26.05518608755932 25.974069067057222 26.00498439617333 25.987364271856947
          26.017213558666572 25.976237550119052 26.149222254777353 26.055640393121564 26.086252804774652 25.906724863858933
          25.864762248782544 25.888407606592022 25.841220712751575 25.830418604563388 25.838012164155984 26.418613849560728
          26.16223122484978 26.677834905653278 26.90304399701182 26.434559838054735 26.994143162203997 25.949335941534933
          26.004339240932346 25.913443540389725 26.01044522181889 26.08184034898187 25.88052980892748 25.84560147314208
          25.86405620592253 25.83847393669146 25.908542222684726 25.857748969273914 25.881918248798634 26.06484323280234
          26.148508438689504 25.984466923378925 26.087079133657333 26.175327815052732 25.933088659917203 25.868150576227002
          25.896901398418777 25.85281536430405 25.94309378859572 25.872358720121376 25.902868842326768 26.872102705645833
          26.488413368779604 26.509321451715017 26.258624159462638 27.26709269206611 26.73724241628557 26.72724072149134
          26.22489514451278 26.052511946925563 26.08707665087919 25.974820087381342 26.374282874319672 26.13718540666996
          26.170364447722562 26.266611460536613 26.105752429741575 26.17038227103601 26.045771830982954 26.38637645869795
          26.18159060692299 26.211097956693894 25.972179284669792 25.99590537299718 25.91054700735485 25.923830554304374
          25.94330735299777 25.96032336727569 25.903992910117115 26.04120863708316 25.94950018359124 25.991997460636046
          27.59903839159909 26.943164759272598 26.89943389647327 26.50644127353996 27.731948271445816 27.024586961758168
          26.965883353917835 26.497421247776707 26.20719345754474 26.23622356373405 26.05927030162653 26.545864206035606
          26.234740673749606 26.261449680926724 26.47727056651162 26.23824886664118 26.22546861605981 26.112500237112346
          26.51146691209145 26.259310651881897 26.241951186078232 26.075609823554714 25.969446665948322 26.01515385898842
          25.936420730947848 26.088433834267672 25.977007065968053 26.02365217825836 25.94608577548428 25.884546612990846
          25.904950509438766 25.87063849692643 25.99097970610984 25.90696981739656 25.929711693589628 25.85088017091228
          25.83292917514759 25.845286349012326 25.83065587087519 25.861470090717667 25.837547178038044 25.849936793090084
          25.871958662043212 25.87859498782817 25.857788930286482 25.86165766616904 25.863848447356727 25.868592380187756
          25.85557821014946 25.891902746250608 25.862492262045958 25.87793002732096 26.028369681387353 25.925488754592358
          25.950050758504617 25.88678177692536 26.043121023640914 25.932751341063565 25.95796243031512 25.86987890286673
          25.841130430141696 25.851770349427536 25.835847762772158 25.873132772530624 25.842517529292834 25.853313715612458
          25.902916768149115 25.86320758602877 25.885673004610243 25.85452237149758 25.907259357410148 25.865439980014408
          25.888822267597348 25.83969402811593 25.840498192190925 25.832069622153334 25.83238805774845 25.835533083769015
          25.836251109363396 25.82978606648446 25.841302356265913 25.832706493343565 25.836969134957776 26.071542534682447
          26.07870082273715 26.018966302866623 26.02338602244319 26.0198198360117 26.02457432728328 25.982171024268304
          26.08585911079185 26.02780574201976 26.029328818554855 25.858416143304346 25.833283295497953 25.896067660736485
          25.840646221771948 25.88209149139488 25.936895879540973 25.9109904948169 25.978072777819097 26.069252927933373
          25.9462013682754 26.141893658721678 26.01543353931855 26.143692558732248 26.00041671557664 26.343294794213147
          26.050339382086392 26.004104538333678 26.080306933677857 25.87541387015864 25.851652378678082 25.92515227206935
          25.953806792896557 25.92187226002855 26.11504523984654 26.313353442749914 26.17559843647915 26.117200100564794
          26.551900797395394 26.317497831669133 26.858220658239993 26.492459737362967 26.30970102550738 27.18482670502614
          26.672213398125425 27.445763610901214 26.810152023114483 26.43256334252115 27.546686029429182 26.86195269447753
          26.460326076841426 26.198355412007007 26.20958777297063 26.12707455339647 26.22390085753961
        </DataArray>
        <DataArray type="Float64" Name="dk/dtemperature" format="ascii" RangeMin="0.013464677403424687" RangeMax="0.015804580349343195">
          0.015804580349343192 0.015804580349343192 0.015804580349343192 0.015804580349343192 0.015804580349343192 0.015804580349343192
          0.015804580349343192 0.015804580349343192 0.015804580349343192 0.015000714547379522 0.015804580349343192 0.015804580349343192
          0.015804580349343192 0.015804580349343192 0.015804580349343192 0.015804580349343192 0.015804580349343192 0.015804580349343192
          0.015804580349343192 0.015804580349343192 0.015804580349343192 0.015804580349343192 0.015804580349343192 0.015804580349343192
          0.015804580349343192 0.015804580349343192 0.015804580349343192 0.015804580349343192 0.01580458034934319 0.015804580349343192
          0.015585309912281738 0.015804580349343192 0.015804580349343192 0.015804580349343192 0.015804580349343192 0.015804580349343192
          0.015282319179256779 0.015794138899959315 0.015804580349343192 0.01576281455180768 0.015131672966760457 0.0157523731024238
          0.01572104875427216 0.015804580349343192 0.014921963374917975 0.015679282956736647 0.015679282956736644 0.015804580349343192
          0.015804580349343192 0.015804580349343192 0.015804580349343192 0.015804580349343192 0.015804580349343192 0.015804580349343192
          0.015804580349343192 0.015804580349343192 0.015804580349343192 0.015804580349343192 0.015804580349343192 0.015804580349343192
          0.015804580349343192 0.015804580349343192 0.015804580349343192 0.015804580349343192 0.015804580349343192 0.015804580349343192
          0.015804580349343192 0.015804580349343192 0.015804580349343192 0.015804580349343192 0.015804580349343192 0.015804580349343192
          0.015804580349343192 0.015804580349343192 0.015804580349343192 0.015804580349343192 0.015804580349343195 0.015804580349343192
          0.015804580349343192 0.015804580349343192 0.015804580349343192 0.015804580349343192 0.015349936999062017 0.015647958608585012
          0.015700165855504405 0.015564427013513982 0.015734970686784002 0.01496146391323161 0.015349936999062013 0.015287288302758741
          0.015783697450575434 0.015804580349343192 0.015804580349343192 0.015804580349343192 0.01565840005796889 0.015794138899959315
          0.01574889261929584 0.015783697450575434 0.01572104875427216 0.015804580349343192 0.015783697450575434 0.015804580349343192
          0.015783697450575434 0.015804580349343192 0.015564427013513982 0.015734970686784002 0.015700165855504405 0.015804580349343192
          0.015804580349343192 0.015804580349343192 0.015804580349343192 0.015804580349343192 0.015804580349343192 0.015115759191494665
          0.015534297771014716 0.014736594501181133 0.014446620735688767 0.015077578710916268 0.014343399650478098 0.015794138899959315
          0.015762814551807676 0.015804580349343192 0.01574193165303992 0.01565840005796889 0.015804580349343192 0.015804580349343192