<?xml version="1.0"?>
<VTKFile type="UnstructuredGrid" version="0.1" byte_order="LittleEndian" header_type="UInt32" compressor="vtkZLibDataCompressor">
  <UnstructuredGrid>
    <Piece NumberOfPoints="575" NumberOfCells="319">
      <PointData>
        <DataArray type="Int32" Name="libmesh_node_id" format="ascii" RangeMin="449" RangeMax="4853">
          457 578 580 581 583 586
          590 601 748 753 1097 1100
          1102 1103 1107 1122 1123 1130
          1131 1134 1136 1138 1139 1140
          1141 1142 1143 1144 1145 1146
          1147 1155 1156 1161 1178 1180
          1185 1196 1197 1200 1201 1203
          1205 1525 1526 1527 1528 1529
          1532 1533 1885 1886 1887 1890
          1982 1988 1989 1992 2027 2028
          2029 2030 2059 2060 2061 2062
          2063 2064 2065 2066 2067 2068
          2069 2070 2073 2074 2076 2078
          2129 2130 2135 2139 2140 2143
          2144 2146 2148 2150 2163 2164
          2169 2174 2178 2180 2182 2184
          2256 2257 2258 2259 2260 2261
          2262 2263 2264 2265 2266 2267
          2270 2271 2273 2275 2417 2418
          2419 2457 2458 2459 2460 2461
          2462 2463 2464 2465 2468 2469
          3698 3708 3718 3910 3911 3912
          3913 3925 3926 3927 3938 3939
          3940 3941 3942 3943 3944 3945
          3946 3947 3955 3956 3957 3959
          3960 3961 3963 3967 3968 3972
          3973 3974 3975 3976 3977 3978
          3979 3980 3981 3982 3983 3984
          3985 3996 3997 3998 3999 4000
          4001 4002 4003 4004 4005 4008
          4009 4012 4015 4017 4019 4020
          4021 4022 4023 4024 4025 4026
          4027 4028 4029 4030 4031 4034
          4035 4037 4039 4042 4043 4046
          4047 4049 4051 4053 4054 4055
          4056 4057 4058 4059 4060 4061
          4063 4065 4067 4146 4147 4148
          4149 4150 4151 4152 4153 4154
          4155 4163 4164 4165 4167 4168
          4169 4180 4181 4182 4183 4184
          4185 4186 4187 4188 4189 4197
          4198 4199 4201 4202 4203 4214
          4215 4217 4218 4219 4220 4222
          4223 4235 4238 4239 4240 4242
          4243 4246 4247 4250 4251 4253
          4255 4257 4258 4259 4260 4261
          4262 4263 4264 4265 4267 4269
          4271 4274 4275 4278 4279 4281
          4283 4285 4286 4287 4288 4289
          4290 4291 4292 4293 4295 4297
          4299 4796 4797 4798 4799 4800
          4801 4802 4803 4804 4805 4806
          4807 4808 4809 4810 4811 4812
          4813 4814 4815 4816 4817 4818
          4819 4820 4821 4822 4823 4824
          4825 4826 4827 4828 4829 4830
          4831 4834 4835 4837 4839 4840
          4841 4842 4843 4844 4845 4846
          4847 4849 4851 4853 449 584
          585 751 754 758 763 592
          598 767 765 768 766 773
          772 775 599 776 604 782
          1105 1106 1127 589 1198 1199
          1202 1204 1530 1157 1531 1534
          594 1883 1888 1980 1986 1889
          1987 1984 1990 1991 2014 2020
          2022 2016 2021 2023 2071 2072
          2075 2077 2137 2141 2171 2173
          2177 2268 2269 2272 2274 2466
          2147 2467 2470 1181 2127 3902
          3930 3931 2128 3933 2133 3936
          2134 3919 3949 2131 3951 2132
          3958 3953 2136 1179 3971 2138
          3987 3991 3992 3995 2142 4032
          4016 4033 4036 2145 4038 3970
          4010 3990 4040 4011 4041 3994
          4044 4045 4018 4048 4050 4052
          2149 4062 4064 4066 4138 4139
          4141 2161 4144 2162 4157 4159
          4166 4161 2165 2166 4172 4173
          4175 2167 4178 2168 4191 4193
          4200 4195 2170 1184 4205 4209
          4210 4213 4221 4216 2172 4229
          4230 4237 4234 4233 2176 4241
          4236 4208 4244 4245 4212 4248
          4249 4252 4254 4256 2179 4266
          4268 4270 2181 4228 4272 4273
          4232 4276 4277 4280 4282 4284
          2183 4294 4296 4298 602 4306
          4307 4334 4335 4309 4338 4340
          4341 4343 4324 4354 4326 4356
          4358 4360 4545 4546 4549 4551
          4552 4554 4565 4567 4569 4571
          4579 4580 4583 4585 4586 4588
          4599 4601 4603 4605 4832 4833
          4836 4838 4848 4850 4852
        </DataArray>
        <DataArray type="Float64" Name="bounds" format="ascii" RangeMin="0" RangeMax="0">
          0 0 0 0 0 0
          0 0 0 0 0 0
          0 0 0 0 0 0
          0 0 0 0 0 0
          0 0 0 0 0 0
          0 0 0 0 0 0
          0 0 0 0 0 0
          0 0 0 0 0 0
          0 0 0 0 0 0
          0 0 0 0 0 0
          0 0 0 0 0 0
          0 0 0 0 0 0
          0 0 0 0 0 0
          0 0 0 0 0 0
          0 0 0 0 0 0
          0 0 0 0 0 0
          0 0 0 0 0 0
          0 0 0 0 0 0
          0 0 0 0 0 0
          0 0 0 0 0 0
          0 0 0 0 0 0
          0 0 0 0 0 0
          0 0 0 0 0 0
          0 0 0 0 0 0
          0 0 0 0 0 0
          0 0 0 0 0 0
          0 0 0 0 0 0
          0 0 0 0 0 0
          0 0 0 0 0 0
          0 0 0 0 0 0
          0 0 0 0 0 0
          0 0 0 0 0 0
          0 0 0 0 0 0
          0 0 0 0 0 0
          0 0 0 0 0 0
          0 0 0 0 0 0
          0 0 0 0 0 0
          0 0 0 0 0 0
          0 0 0 0 0 0
          0 0 0 0 0 0
          0 0 0 0 0 0
          0 0 0 0 0 0
          0 0 0 0 0 0
          0 0 0 0 0 0
          0 0 0 0 0 0
          0 0 0 0 0 0
          0 0 0 0 0 0
          0 0 0 0 0 0
          0 0 0 0 0 0
          0 0 0 0 0 0
          0 0 0 0 0 0
          0 0 0 0 0 0
          0 0 0 0 0 0
          0 0 0 0 0 0
          0 0 0 0 0 0
          0 0 0 0 0 0
          0 0 0 0 0 0
          0 0 0 0 0 0
          0 0 0 0 0 0
          0 0 0 0 0 0
          0 0 0 0 0 0
          0 0 0 0 0 0
          0 0 0 0 0 0
          0 0 0 0 0 0
          0 0 0 0 0 0
          0 0 0 0 0 0
          0 0 0 0 0 0
          0 0 0 0 0 0
          0 0 0 0 0 0
          0 0 0 0 0 0
          0 0 0 0 0 0
          0 0 0 0 0 0
          0 0 0 0 0 0
          0 0 0 0 0 0
          0 0 0 0 0 0
          0 0 0 0 0 0
          0 0 0 0 0 0
          0 0 0 0 0 0
          0 0 0 0 0 0
          0 0 0 0 0 0
          0 0 0 0 0 0
          0 0 0 0 0 0
          0 0 0 0 0 0
          0 0 0 0 0 0
          0 0 0 0 0 0
          0 0 0 0 0 0
          0 0 0 0 0 0
          0 0 0 0 0 0
          0 0 0 0 0 0
          0 0 0 0 0 0
          0 0 0 0 0 0
          0 0 0 0 0 0
          0 0 0 0 0 0
          0 0 0 0 0 0
          0 0 0 0 0 0
          0 0 0 0 0
        </DataArray>
        <DataArray type="Float64" Name="gradient_error" format="ascii" RangeMin="5.316253274061305e-11" RangeMax="2.0039201385449486e-7">
          1.7438691822745194e-9 3.234990325982968e-8 1.0929805164089135e-7 8.406169693906619e-9 2.723138113880968e-8 7.583974241563128e-9
          7.083316704504149e-9 3.538896137448303e-8 6.6009842092000655e-9 6.3590602638352304e-9 7.017460046033129e-8 2.8290759321829326e-8
          4.553806259071417e-8 1.2323706252939844e-8 7.040766280285729e-8 1.2910806845933633e-7 6.005455150521967e-8 8.635131671547432e-8
          1.322831584045738e-7 9.973965230961747e-9 1.7821500009367336e-7 5.143261520194924e-8 8.132979951583358e-8 1.320143281547199e-8
          3.0786387988922986e-8 6.125099299563835e-9 4.3068617354700885e-9 2.1193255425099343e-9 1.1122698382971792e-7 4.290044286307409e-8
          2.4886241713763427e-9 6.389217550139128e-10 9.44433357961351e-10 1.0742653047230013e-9 2.380961975499022e-8 1.7293332883133955e-9
          2.4836435432432552e-9 1.0023720765105097e-9 1.0967965573459355e-9 9.314643177599085e-10 1.1064245677926175e-9 1.5215558128730634e-9
          1.1724312346198583e-9 9.227822545401097e-10 1.4288708879639411e-9 9.587192187211565e-10 5.719985401956011e-10 9.229237354546739e-10
          3.5706334621402483e-10 5.897870403842324e-10 2.8763895245243187e-9 4.311323327647735e-9 3.0227290893814664e-9 2.1676595268287465e-8
          4.970745120471904e-8 3.8204010009419005e-8 2.034443915252333e-8 7.909161169831107e-8 7.611729526661388e-9 1.1263960469307857e-8
          8.674284784096627e-9 1.3126220051867786e-8 1.874245519283239e-9 2.637599915251097e-9 5.508962241873849e-10 6.071836192081242e-10
          1.1526403839544981e-9 2.075408953566552e-9 7.584462364755939e-10 8.180274152629005e-9 7.103027278978788e-10 3.995714743403868e-9
          1.6218470571523435e-10 2.043308237617037e-10 1.2936635748559452e-10 2.786533411774958e-10 2.872335526219353e-10 3.292285629101733e-10
          7.299183600377625e-9 5.3796522707031e-9 1.9191360025330754e-8 8.191998200387269e-9 1.3335405012217506e-9 1.6229067212144683e-8
          9.846309184586359e-10 5.601274731966503e-10 3.163079019771411e-9 7.523272321065608e-10 3.735801141205422e-8 3.669470330586172e-8
          4.3481312499614295e-8 2.0489691289330953e-9 6.405028239345479e-9 9.340269158353585e-10 8.079168665953779e-9 1.1504134185082984e-9
          4.841080387319673e-9 6.5461764820464794e-9 1.3799205445632776e-9 1.0276231253800036e-9 3.7065020705911553e-9 5.612220929211286e-9
          1.6223084746550924e-9 7.6308542305e-9 1.1935764466564812e-9 6.578879060962e-9 5.213877876847888e-10 3.239818310295702e-10
          3.3213174834865774e-10 4.712338817873824e-10 3.7227533306372537e-10 5.324592194486105e-10 2.929432688930564e-9 4.375595427752705e-9
          3.0962224838581075e-9 2.0366913064625896e-9 3.141737183163365e-9 8.021843898600323e-10 1.3419725838109288e-9 1.2440814802034766e-9
          2.0057614119626074e-9 6.108865396318795e-10 3.286527193272297e-10 5.438157340970905e-10 1.7851479424545525e-10 2.1638487340830824e-10
          9.253699123366664e-10 3.6361863340933313e-10 1.5686908788281944e-10 1.0198903284834647e-8 9.531227887613135e-9 6.786205752471293e-9
          7.658703932978122e-9 5.16973064505367e-9 3.566684327318782e-9 2.9412665379718437e-9 1.9617235283869138e-8 1.8554125689535947e-8
          1.4485933781954575e-8 1.3642538578505525e-8 1.5310512014287544e-8 1.1104526052023295e-8 3.16484358059057e-8 3.045944221801627e-8
          2.2786923559235083e-8 2.597963215743719e-8 1.0568549402257122e-8 7.48913486877061e-9 6.023534045958774e-9 1.8427672728211542e-8
          1.3353870490315475e-8 1.067071450021635e-8 1.9692484934698027e-9 1.6099503812871322e-9 1.0415333395257439e-9 7.537658687044584e-10
          9.74987137865638e-10 7.667666782038523e-10 1.8009026068873772e-9 5.862188740178609e-10 7.967237119912866e-10 3.343551471802572e-10
          5.042739496501228e-10 4.41659708841105e-10 5.833084200872794e-10 3.200109391715907e-10 1.4899408559947173e-9 9.750783860079269e-10
          1.0562395981449817e-9 3.076612654765473e-9 2.3928793456912967e-9 4.583469276994358e-9 2.5666789434392494e-9 1.7163472739607461e-9
          1.820541795446e-9 1.0265448180733742e-9 3.9183502094934624e-9 2.741654444413713e-9 2.1941507486596536e-9 6.967860477226834e-10
          4.678861424835412e-10 1.4376417462092882e-9 3.097325747542513e-10 1.4594347966208324e-9 6.605169896509186e-10 2.0465749612317282e-10
          3.2203458629440265e-10 1.300417071628143e-10 2.0922430889609759e-10 1.3182582115719765e-10 1.964473108111067e-10 1.2447425183802538e-10
          6.427586415775022e-10 4.269354449138705e-10 3.8112911557792524e-10 8.486047679538404e-11 1.364080532291332e-10 5.3854148130636256e-11
          8.09756070552101e-11 2.7990214091817814e-10 1.6071273437521532e-10 2.6732255220116972e-9 1.8648796930636693e-9 4.462988242154014e-9
          2.9163894760108775e-9 1.266530973517848e-9 5.1411963109044805e-9 2.1725181056839464e-9 1.1546909585477833e-9 7.785536038601132e-10
          6.713277933306211e-10 4.4555407878047217e-10 1.8804702135082286e-9 1.281694490795315e-9 8.738724901966701e-10 5.152067341492614e-10
          2.901532525089545e-10 8.548397969367139e-10 3.795614195309431e-10 4.1104795352017265e-8 4.124957538337204e-8 3.283638676123616e-8
          3.226478646445394e-8 3.7733871410665866e-8 2.8450059289818572e-8 4.304909814718099e-8 4.613006345549617e-8 3.859674611080507e-8
          4.697347242016324e-8 2.7880586274622227e-8 2.046188813085913e-8 1.6407209192588366e-8 3.69750041562722e-8 2.74359761600051e-8
          2.215986918022979e-8 4.0708116047008496e-8 4.626623708153686e-8 3.663459056475393e-8 4.034803396625899e-8 5.188432051092511e-8
          4.18465035845041e-8 3.940546493994299e-8 4.578034190754551e-8 4.0251232212804404e-8 5.3300427737768736e-8 4.341359157560898e-8
          3.258027441515125e-8 2.6487309087528752e-8 4.571802607415238e-8 3.4479862418413005e-8 2.8099050839619915e-8 6.297078736449815e-9
          3.1869286166823307e-9 5.478624798801558e-9 3.9590106617937296e-9 2.54682451439215e-9 1.5934377806737943e-9 5.138877277427657e-9
          3.201027301876812e-9 4.507327682785338e-9 6.011539659201015e-9 3.6514753835144493e-9 2.366185782908654e-9 6.336767726332378e-9
          3.8300998320378414e-9 6.645998322107227e-9 4.776747952350186e-9 8.809955794059384e-9 7.950474329347573e-9 3.3137761003046536e-9
          1.0796187664217037e-8 4.481626526618254e-9 2.7576065099094427e-9 1.8949390914280698e-9 1.0703615984017592e-9 7.133350067623014e-10
          3.622494261108949e-9 2.5062592235305146e-9 1.3952966726534002e-9 1.2713412636331335e-9 4.661214474522898e-10 1.6893574570556054e-9
          6.125228867277122e-10 1.0421655586892109e-8 7.626032111851528e-9 1.1021123053785247e-8 1.2941394188708692e-8 5.369504970895093e-9
          1.3743748497633348e-8 5.70209080787237e-9 4.266485139472843e-9 2.965571008234866e-9 1.6248013207289557e-9 1.0920289045005769e-9
          4.505530659936412e-9 3.1367559991960795e-9 1.709656835644828e-9 2.0047662699801436e-9 7.176048701659349e-10 2.1223853753669645e-9
          7.565537836082414e-10 9.602858712809667e-10 1.1328430817116673e-9 9.061486716904132e-10 1.4070161805775118e-9 8.223162659667735e-10
          9.61734676779765e-10 5.565946515109162e-10 6.455585773475485e-10 6.289730551929979e-10 6.893366817044143e-10 3.882613922224376e-10
          1.1953629307988306e-9 8.066234671687374e-10 8.164491269381932e-10 1.587349451899354e-9 1.254865121162595e-9 1.666066834786053e-9
          1.3549276384180148e-9 9.221155143727111e-10 9.27342619782367e-10 4.940246672485967e-10 1.4202825028311255e-9 9.655065975921282e-10
          9.714872939041784e-10 3.5798913552180853e-10 4.147980052766294e-10 2.3204320950950437e-10 2.690510847804973e-10 2.471322262314447e-10
          2.497973566610823e-10 1.5894144778507685e-10 5.202151200828201e-10 3.387020421601983e-10 2.774610555109738e-10 1.4635462945447024e-10
          1.713863482217275e-10 9.829855143078284e-11 9.997554435377044e-11 2.1751164934041025e-10 1.1216859010384915e-10 5.977997409097492e-10
          3.906596433822396e-10 3.175468398283115e-10 2.026266102656504e-10 6.267761166853084e-10 4.099741624955726e-10 3.326340557253953e-10
          2.512384571627464e-10 1.288602199565683e-10 2.63871682633657e-10 1.3503579698219634e-10 7.84852076832432e-9 3.748919582826712e-8
          3.0221191630345946e-8 1.89622870631492e-9 1.7322122774156208e-9 2.026999051331973e-10 2.794183159163873e-10 2.254891693712699e-10
          2.831649818865278e-10 8.617733131025603e-10 3.275409429143154e-9 9.97256939886222e-10 3.5281857033927366e-9 1.132740566669884e-9
          3.780961977642319e-9 2.097424330441821e-10 3.1269568716627143e-10 2.348219470923987e-10 5.277991053552907e-10 2.5990146114061526e-10
          1.1539106819282123e-7 6.054522808600144e-8 2.0039201385449486e-7 9.58446361003466e-8 2.899474842497458e-10 3.160720125826088e-10
          5.088543376684575e-10 4.2017917427304606e-10 1.365600175075975e-10 2.4614405584546514e-10 2.47861889488848e-10 1.3734471544997444e-10
          2.369326732065184e-10 4.848364124667114e-8 3.8197568062864565e-8 8.864980304167138e-8 7.407624590065954e-8 2.11314292316451e-8
          5.8371396642665305e-8 1.8201627783577025e-7 1.617047890218379e-7 1.342107380703628e-7 1.756314027534054e-7 1.5507329544897576e-7
          1.2401182364885027e-7 1.5541753375755545e-7 1.6896918104880697e-7 6.509324540596599e-8 6.458113217745594e-11 8.26344618638712e-11
          1.1473483831492305e-10 1.193787100319426e-10 2.7069818862562894e-8 6.461105594881492e-8 1.0734239955711588e-7 2.4137860035576806e-8
          2.765531168932247e-8 2.0086772577563227e-10 1.2035601619478763e-10 1.6962318610715297e-10 1.3804357477728095e-10 1.3384905761413063e-10
          2.2314509823801176e-10 2.149390550104155e-10 8.57225450235891e-11 3.053060176246333e-10 1.350162020901465e-8 1.2674709939366167e-8
          2.542484101789261e-8 2.4133639358280812e-8 1.03282036719876e-8 2.011584795596693e-8 3.9655859780987425e-8 3.8556728416669164e-8
          3.353082721670313e-8 7.1266930057714174e-9 1.4156507682245352e-8 4.160904674028873e-9 8.317676590892975e-9 1.9897822600588844e-9
          4.150539589046038e-9 2.424851078588361e-8 1.441909216879793e-8 7.506296585792974e-9 3.1489603469884016e-9 2.089511854488611e-9
          6.607214531543538e-9 5.516457592323304e-9 3.7813200471836075e-9 8.692926451244564e-9 6.178517828862804e-9 5.5823617066696195e-11
          2.0015984091278923e-10 8.811907769347412e-11 5.316253274061305e-11 4.3044589214721047e-10 1.7957813297230454e-10 4.139886431284584e-9
          2.989235081065317e-9 7.666754373728161e-9 5.729526406495074e-9 2.120715154734695e-9 4.16490114387384e-9 1.264021338682053e-8
          9.704671502926808e-9 7.213770870698995e-9 9.68071326075018e-10 1.958320969707648e-9 8.318451954083202e-10 3.496596604782923e-9
          1.4378538953841779e-9 3.321219376115859e-10 1.8447725428085017e-10 5.539104168926548e-10 4.840492851740713e-8 4.953577192513663e-8
          4.727138369798053e-8 4.959068430833387e-8 5.359918136324179e-8 5.6900882115765564e-8 3.624289540525571e-8 2.1883841716572322e-8
          1.1735065119114855e-8 4.730197732788761e-8 2.9384142911484206e-8 1.5993473920381128e-8 4.8540942645487154e-8 5.4240526293552864e-8
          6.174756430361507e-8 4.7887968562272846e-8 5.421200361653517e-8 6.320917868793125e-8 5.463268609619618e-8 3.49982258174556e-8
          1.9200476435150576e-8 5.712494048487853e-8 3.7068238227375295e-8 2.0400810423690464e-8 1.4853160721216935e-8 1.2641004239307755e-8
          9.058931455127154e-9 1.636074529150446e-8 6.900123758673149e-9 7.788052637519123e-9 1.1857115826432155e-8 1.9154071375077227e-8
          1.3933002111572059e-8 7.926684834218717e-9 8.842702201851797e-9 2.0306087336111145e-8 1.4714047322652148e-8 8.334376054561107e-9
          9.284146550359273e-9 1.8615603278557556e-8 1.454559258567938e-8 1.0984585849660538e-8 2.4536963324091337e-8 1.9370391504389336e-8
          1.4761667269913307e-8 5.479148287599408e-9 2.2084294256163747e-9 7.525397194827647e-9 3.003581975861944e-9 8.273081096049131e-10
          2.97537220092132e-10 1.103059465375138e-9 3.9135844766907995e-10 2.900256928718435e-8 2.2966623153408432e-8 1.760619272393302e-8
          3.0678690908023786e-8 2.4296341519710353e-8 1.8673354741139113e-8 9.079684272269218e-9 3.6133426875332887e-9 9.66027935551842e-9
          3.843223724067496e-9 1.3117119593621294e-9 4.5900582687175635e-10 1.389602520997314e-9 4.840608080506321e-10 4.914293818732697e-9
          4.5512120349768775e-9 1.0141286948666154e-8 9.488620376207972e-9 3.5718607209563726e-9 7.591312751725849e-9 1.7040788022827027e-8
          1.6235999652496383e-8 1.3483551893447454e-8 2.336499045669651e-9 5.007630885198742e-9 1.2849549965552799e-9 2.716127167452183e-9
          9.154122453665963e-9 4.991769295748618e-9 2.4123338595244217e-8 2.34753820433436e-8 2.03134196781434e-8 2.9415710841391093e-8
          2.9444995114415617e-8 2.6662811506390327e-8 1.428517436835237e-8 7.940904318899207e-9 1.933786596380392e-8 1.0965449374497809e-8
          3.1581240475135846e-8 3.2710143993682245e-8 3.107897522020521e-8 3.1860342556580286e-8 3.356989824711508e-8 3.2629106504947556e-8
          2.3082767633533837e-8 1.3247692917209908e-8 2.447313423610299e-8 1.409916465568616e-8 9.248471878768983e-11 1.0779062127917728e-10
          6.327435707312065e-11 1.3648884792923857e-10 1.5788984190709072e-10 8.194127702399377e-11 1.6589851172636905e-10
        </DataArray>
        <DataArray type="Float64" Name="gradient_matprop_error" format="ascii" RangeMin="0" RangeMax="0">
          0 0 0 0 0 0
          0 0 0 0 0 0
          0 0 0 0 0 0
          0 0 0 0 0 0
          0 0 0 0 0 0
          0 0 0 0 0 0
          0 0 0 0 0 0
          0 0 0 0 0 0
          0 0 0 0 0 0
          0 0 0 0 0 0
          0 0 0 0 0 0
          0 0 0 0 0 0
          0 0 0 0 0 0
          0 0 0 0 0 0
          0 0 0 0 0 0
          0 0 0 0 0 0
          0 0 0 0 0 0
          0 0 0 0 0 0
          0 0 0 0 0 0
          0 0 0 0 0 0
          0 0 0 0 0 0
          0 0 0 0 0 0
          0 0 0 0 0 0
          0 0 0 0 0 0
          0 0 0 0 0 0
          0 0 0 0 0 0
          0 0 0 0 0 0
          0 0 0 0 0 0
          0 0 0 0 0 0
          0 0 0 0 0 0
          0 0 0 0 0 0
          0 0 0 0 0 0
          0 0 0 0 0 0
          0 0 0 0 0 0
          0 0 0 0 0 0
          0 0 0 0 0 0
          0 0 0 0 0 0
          0 0 0 0 0 0
          0 0 0 0 0 0
          0 0 0 0 0 0
          0 0 0 0 0 0
          0 0 0 0 0 0
          0 0 0 0 0 0
          0 0 0 0 0 0
          0 0 0 0 0 0
          0 0 0 0 0 0
          0 0 0 0 0 0
          0 0 0 0 0 0
          0 0 0 0 0 0
          0 0 0 0 0 0
          0 0 0 0 0 0
          0 0 0 0 0 0
          0 0 0 0 0 0
          0 0 0 0 0 0
          0 0 0 0 0 0
          0 0 0 0 0 0
          0 0 0 0 0 0
          0 0 0 0 0 0
          0 0 0 0 0 0
          0 0 0 0 0 0
          0 0 0 0 0 0
          0 0 0 0 0 0
          0 0 0 0 0 0
          0 0 0 0 0 0
          0 0 0 0 0 0
          0 0 0 0 0 0
          0 0 0 0 0 0
          0 0 0 0 0 0
          0 0 0 0 0 0
          0 0 0 0 0 0
          0 0 0 0 0 0
          0 0 0 0 0 0
          0 0 0 0 0 0
          0 0 0 0 0 0
          0 0 0 0 0 0
          0 0 0 0 0 0
          0 0 0 0 0 0
          0 0 0 0 0 0
          0 0 0 0 0 0
          0 0 0 0 0 0
          0 0 0 0 0 0
          0 0 0 0 0 0
          0 0 0 0 0 0
          0 0 0 0 0 0
          0 0 0 0 0 0
          0 0 0 0 0 0
          0 0 0 0 0 0
          0 0 0 0 0 0
          0 0 0 0 0 0
          0 0 0 0 0 0
          0 0 0 0 0 0
          0 0 0 0 0 0
          0 0 0 0 0 0
          0 0 0 0 0 0
          0 0 0 0 0 0
          0 0 0 0 0
        </DataArray>
        <DataArray type="Float64" Name="initial_marker" format="ascii" RangeMin="0" RangeMax="2">
          0 0 1 0 0.75 0
          0 2 0 0 1 0.75
          1 0.3333333333333333 1.3333333333333333 1.5 1.5 0
          0.5 0 1 0 0.5 0
          0.25 0 0 0 1 0.5
          0 0 0 0 2 1.5
          2 0 0 0 0 0
          0 0 0 0 0 0
          0 0 0 0.5 0 2
          2 2 1.3333333333333333 2 0.5 1
          0 1 0 0.25 0 0
          0 0 0 1.5 1.5 0.3333333333333333
          0 0 0 0 1.5 0
          2 2 2 0.75 0.5 1.5
          2 0.5 2 1.5 2 2
          2 2 2 2 2 2
          0.25 0.5 0 0 0 0
          0 0.5 0 0 0 0
          0 0 0 0 0 0
          0 0 0 0 0 0
          0 0 0 0 0 0
          2 2 2 2 2 2
          2 2 2 2 2 2
          2 2 2 2 2 2
          2 2 2 2 2 2
          2 2 2 2 2 1
          1 0 1.5 1 1 1
          1 0 0 0 1.5 1.5
          1 2 2 2 2 2
          2 2 2 2 2 2
          2 2 2 2 2 1
          1 1 1 0 0 0
          1.5 1.5 1 1 1 0
          0 1.5 1 2 2 2
          2 2 2 2 2 2
          2 2 2 2 2 2
          2 2 1.6666666666666667 2 2 2
          2 2 2 2 2 2
          2 2 2 2 2 2
          2 2 2 2 2 2
          2 2 2 2 2 2
          2 2 2 2 2 2
          2 2 2 2 2 2
          2 2 2 2 2 2
          2 2 2 2 2 2
          2 2 2 2 2 2
          2 2 2 2 1.75 2
          2 2 2 2 2 2
          2 2 2 2 2 2
          2 2 2 2 2 2
          2 1 1 0 1 1
          1 1 1 0 0 0
          1 1 0 1 0 1
          1 1 0 0 1 1
          0 1 1 1 1 0
          0 0 1 1 0 0.5
          0.75 0 0 1 0 1
          1 0 0 1 1 0
          1 0 1 0 0 0
          0 0 0 0 0 0
          0 0 0 0 0 0
          0 0 0 0 0 0
          2 2 2 2 0 0
          0 0 0 0 0 0
          0 2 2 2 2 1.6666666666666667
          2 2 2 2 2 2
          2 2 2 2 0 0
          0 1 2 2 2 2
          2 0 0 0 0 0
          0.5 0 0 1 2 2
          2 2 2 2 2 2
          2 2 2 2 2 2
          2 2 2 2 2 2
          2 2 2 2 2 0.5
          1.75 0.75 0 2 1.5 2
          2 2 2 2 2 2
          2 2 2 2 2 2
          2 2 2 2 2 2
          2 2 2 2 2 2
          2 2 2 2 2 2
          2 2 2 2 2 2
          2 2 2 2 2 2
          2 2 2 2 2 2
          2 2 2 2 2 2
          2 2 2 2 2 2
          2 2 2 2 2 2
          1.5 2 2 2 2 2
          2 2 2 2 2 2
          2 2 2 2 2 2
          2 2 2 2 2 2
          2 2 2 2 2 2
          2 2 2 2 2 2
          2 2 2 2 2 2
          2 2 2 2 2 2
          2 2 2 2 0 0.5
          0 1 1 0 1
        </DataArray>
        <DataArray type="Float64" Name="markers_norefine" format="ascii" RangeMin="0" RangeMax="2">
          0 0 0 0 0 0
          0 1 0 0 0 0
          0 0 0 0 0 0
          0 0 0 0 0 0
          0 0 0 0 0 0
          0 0 0 0 0 0
          0 0 0 0 0 0
          0 0 0 0 0 0
          0 0 0 0 0 0
          0 0 0 0 0 0
          0 0 0 0 0 0
          0 0 0 0 0 0
          0 0 0 0 0 0
          0 0 0 0 0 0
          0 0 0 0 0.5 0
          0 0 0 0 0 0
          0 0 0 0 0 0
          0 0 0 0 0 0
          0 0 0 0 0 0
          0 0 0 0 0 0
          0 0 0 0 0 0
          0 0 0 0 0 0
          0 0 0 0 0 0
          0 0 0 0 0 0
          0 0 0 0 0 0
          0 0 0 0 0 0
          0 0 0 0 0 0
          0 0 0 0 0 0
          0 0 0 0 0 0
          0 0 0 0 0 0
          0 0 0 0 0 0
          0 0 0 0 0 0
          0 0 0 0 0 0
          0 0 0 0 0 0
          0 0 0 0 0 0
          0 0 0 0 0 0
          0 0 0 0.5 0.25 0
          0 0 0 1.5 1 0.25
          0.25 0 0 0 0 0
          0 2 1.5 1 0.5 0.5
          0 2 1.5 0.5 0.5 0
          0 0 0 0 0 0
          0 0 0 0 0 0
          0 0 0 0 0 0
          0 0 0 0 0 0
          0 0 0 0 0 0
          0 0 0 0 0 0
          0 0 0 0 0 0
          0 0 0 0 0 0
          0 0 0 0 0 0
          0 0 0 0 0 0
          0 0 0 0 0 0
          0 0 0 0 0 0
          0 0 0 0 0 0
          0 0 0 0 0 0
          0 0 0 0 0 0
          0 0 0 0 0 0
          0 0 0 0 0 0
          0 0 0 0 0 0
          0 0 0 0 0 0
          0 0 0 0 0 0
          0 0 0 0 0 0
          0 0 0 0 0 0
          0 0 0 0 0 0
          0 0 0 0 0 0
          0 0 0 0 0 0
          0 0 0 0 0 0
          0 0 0 0 0 0
          0 0 0 0 0 0
          0 0 0 0 0 0
          0 0 0 0 0 0
          0 0 0 0 0 0
          0 0 0 0 0 0
          0 0 0 0 0 0
          0 0 0 0 0 0
          0 0 0 0 0 0
          0 0 0 0 0 0
          0 0 0 0 1 0.75
          0.25 2 1.75 1 0 0
          0 0.25 0 0 2 2
          1.5 2 2 1.5 0.5 0
          0 0.5 0 0 0 0
          0 0 0 0 0 0
          0 0 0 0 0 0
          0 0 0 0 0 0
          0 0 0 0 0 0
          0 0 0 0 0 0
          0 0 0 0 0 0
          0 0 0 0 0 0
          0 0 0 0 0 0
          0 0 0 0 0 0
          0 0 0 0 0 0
          0 0 0 0 0 0
          0 0 0 0 0 0
          0 0 0 0 0 0
          0 0 0 0 0
        </DataArray>
        <DataArray type="Float64" Name="markers_mustrefine" format="ascii" RangeMin="0" RangeMax="2">
          0 0 1 0 0.75 0
          0 2 0 0 1 0.75
          1 0.3333333333333333 1.3333333333333333 1.5 1.5 0
          0.5 0 1 0 0.5 0
          0.25 0 0 0 1 0.5
          0 0 0 0 2 1.5
          2 0 0 0 0 0
          0 0 0 0 0 0
          0 0 0 0.5 0 2
          2 2 1.3333333333333333 2 0.5 1
          0 1 0 0.25 0 0
          0 0 0 1.5 1.5 0.3333333333333333
          0 0 0 0 1.5 0
          2 2 2 0.75 0.5 1.5
          2 0.5 2 1.5 2 2
          2 2 2 2 2 2
          0.25 0.5 0 0 0 0
          0 0.5 0 0 0 0
          0 0 0 0 0 0
          0 0 0 0 0 0
          0 0 0 0 0 0
          2 2 2 2 2 2
          2 2 2 2 2 2
          2 2 2 2 2 2
          2 2 2 2 2 2
          2 2 2 2 2 1
          1 0 1.5 1 1 1
          1 0 0 0 1.5 1.5
          1 2 2 2 2 2
          2 2 2 2 2 2
          2 2 2 2 2 1
          1 1 1 0 0 0
          1.5 1.5 1 1 1 0
          0 1.5 1 2 2 2
          2 2 2 2 2 2
          2 2 2 2 2 2
          2 2 1.6666666666666667 2 2 2
          2 2 2 2 2 2
          2 2 2 2 2 2
          2 2 2 2 2 2
          2 2 2 2 2 2
          2 2 2 2 2 2
          2 2 2 2 2 2
          2 2 2 2 2 2
          2 2 2 2 2 2
          2 2 2 2 2 2
          2 2 2 2 1.75 2
          2 2 2 2 2 2
          2 2 2 2 2 2
          2 2 2 2 2 2
          2 1 1 0 1 1
          1 1 1 0 0 0
          1 1 0 1 0 1
          1 1 0 0 1 1
          0 1 1 1 1 0
          0 0 1 1 0 0.5
          0.75 0 0 1 0 1
          1 0 0 1 1 0
          1 0 1 0 0 0
          0 0 0 0 0 0
          0 0 0 0 0 0
          0 0 0 0 0 0
          2 2 2 2 0 0
          0 0 0 0 0 0
          0 2 2 2 2 1.6666666666666667
          2 2 2 2 2 2
          2 2 2 2 0 0
          0 1 2 2 2 2
          2 0 0 0 0 0
          0.5 0 0 1 2 2
          2 2 2 2 2 2
          2 2 2 2 2 2
          2 2 2 2 2 2
          2 2 2 2 2 0.5
          1.75 0.75 0 2 1.5 2
          2 2 2 2 2 2
          2 2 2 2 2 2
          2 2 2 2 2 2
          2 2 2 2 2 2
          2 2 2 2 2 2
          2 2 2 2 2 2
          2 2 2 2 2 2
          2 2 2 2 2 2
          2 2 2 2 2 2
          2 2 2 2 2 2
          2 2 2 2 2 2
          1.5 2 2 2 2 2
          2 2 2 2 2 2
          2 2 2 2 2 2
          2 2 2 2 2 2
          2 2 2 2 2 2
          2 2 2 2 2 2
          2 2 2 2 2 2
          2 2 2 2 2 2
          2 2 2 2 0 0.5
          0 1 1 0 1
        </DataArray>
        <DataArray type="Float64" Name="gradient_marker" format="ascii" RangeMin="0" RangeMax="1">
          0.5 0.75 0.5 0.5 0.125 0.625
          0.5 1 1 1 0.25 0.125
          0 0 0 0.375 0.125 0.25
          0.375 0 0.5 0 0.25 0
          0.125 0 0 0 0.5 0.25
          0 0.5 0.5 0.625 1 0.875
          1 0.5 0.5 0.5 0.5 0.5
          0.5 0 0 0 0.5 0.5
          0.5 0.5 0 0 0 0
          0 0 0 0 0 0
          0 0 0 0 0.5 0.625
          0 0 0.5 0 0.875 0
          1 1 1 1 1 1
          1 1 1 0 0.75 0
          1 1 1 1 1 1
          1 1 1 1 1 1
          0 0 0.625 0.75 0 0
          0.5 0 0.75 0 1 1
          1 1 1 1 0 0
          0 0 0 0.5 0.5 0
          0 0.5 1 1 1 1