<?xml version="1.0"?>
<VTKFile type="UnstructuredGrid" version="0.1" byte_order="LittleEndian" header_type="UInt32" compressor="vtkZLibDataCompressor">
  <UnstructuredGrid>
    <Piece NumberOfPoints="527" NumberOfCells="323">
      <PointData>
        <DataArray type="Int32" Name="libmesh_node_id" format="ascii" RangeMin="368" RangeMax="5071">
          368 596 1164 1172 1186 1188
          1192 2083 2084 2085 2091 2093
          2094 2095 2096 2103 2104 2105
          2185 2186 2187 2188 2191 2192
          2193 2195 2196 2197 2198 2201
          2202 2203 2222 2223 2224 2225
          2228 2229 2230 2232 2233 2234
          2235 2238 2239 2240 3747 3748
          3749 3752 3755 3769 3770 3775
          3777 3778 3779 3780 3781 3782
          3783 3784 3785 3786 3787 3788
          3789 3790 3791 3792 3793 3794
          3795 3796 3797 3798 3799 3800
          3801 3802 3803 3804 3805 3806
          3807 3808 3809 3810 3811 3812
          3813 4306 4307 4308 4309 4312
          4313 4315 4316 4317 4318 4319
          4324 4325 4328 4331 4332 4334
          4335 4336 4337 4338 4339 4340
          4341 4342 4343 4344 4345 4346
          4347 4348 4349 4350 4351 4352
          4353 4354 4355 4358 4359 4361
          4362 4365 4366 4368 4369 4370
          4371 4372 4373 4374 4375 4376
          4377 4378 4379 4380 4381 4382
          4383 4384 4385 4386 4387 4388
          4389 4392 4393 4395 4396 4397
          4398 4402 4403 4405 4406 4407
          4408 4409 4410 4411 4412 4413
          4414 4415 4416 4417 4418 4419
          4420 4421 4422 4423 4424 4425
          4426 4429 4430 4432 4433 4436
          4437 4545 4546 4547 4548 4549
          4550 4551 4552 4553 4554 4555
          4556 4557 4558 4559 4560 4561
          4562 4563 4564 4565 4566 4569
          4570 4572 4573 4576 4577 4579
          4580 4581 4582 4583 4584 4585
          4586 4587 4588 4589 4590 4591
          4592 4593 4594 4595 4596 4597
          4598 4599 4600 4603 4604 4606
          4607 4610 4611 4613 4614 4615
          4616 4617 4618 4619 4620 4621
          4622 4623 4624 4625 4626 4627
          4628 4629 4630 4631 4632 4633
          4634 4637 4638 4640 4641 4644
          4645 4647 4648 4649 4650 4651
          4652 4653 4654 4655 4656 4657
          4658 4659 4660 4661 4662 4663
          4664 4665 4666 4667 4668 4671
          4672 4674 4675 4678 4679 4871
          4872 4873 4874 4875 4876 4877
          4878 4879 4880 4881 4882 4884
          4885 4886 4887 4888 4889 4890
          4891 4892 4894 4895 4896 4899
          4901 4902 4904 4919 4921 4923
          4925 4936 4937 4938 4939 4940
          4941 4942 4943 4945 4946 4947
          4950 4952 4953 4955 4966 4968
          4970 4972 4980 4981 4984 4986
          4987 4989 5000 5002 5004 5006
          5048 5050 5052 5054 5065 5067
          5069 5071 1167 2097 2098 2099
          2100 1165 2101 2088 1168 2102
          1174 2106 2293 2300 2214 2200
          2294 2301 2215 2305 2218 2220
          2307 2309 1191 2250 2334 2336
          2252 2254 2338 2340 603 2517
          2518 2286 2287 2523 3773 3814
          1173 2189 4326 4357 4356 2194
          4360 4333 4363 2190 4364 4367
          1187 4390 4330 4391 4394 2199
          4399 4400 4401 4404 4427 4428
          4431 2204 4434 4435 4438 1189
          4568 4567 2226 4571 4574 4575
          4578 2227 4602 4601 2231 4605
          4608 4609 4612 1193 4635 4636
          4639 2236 4642 4643 4646 2237
          4669 4670 4673 2241 4676 4677
          4680 1194 2288 4883 2289 4893
          4897 4898 4900 2296 4903 2297
          4920 4922 4924 2299 4519 4529
          4531 4533 4944 4948 4949 4951
          2310 4954 2311 4967 4969 4971
          2314 4982 4983 4985 2316 4988
          2317 5001 5003 5005 2319 4745
          5049 4747 5051 4749 5053 4776
          5066 4778 5068 4780 5070
        </DataArray>
        <DataArray type="Float64" Name="bounds" format="ascii" RangeMin="0" RangeMax="0">
          0 0 0 0 0 0
          0 0 0 0 0 0
          0 0 0 0 0 0
          0 0 0 0 0 0
          0 0 0 0 0 0
          0 0 0 0 0 0
          0 0 0 0 0 0
          0 0 0 0 0 0
          0 0 0 0 0 0
          0 0 0 0 0 0
          0 0 0 0 0 0
          0 0 0 0 0 0
          0 0 0 0 0 0
          0 0 0 0 0 0
          0 0 0 0 0 0
          0 0 0 0 0 0
          0 0 0 0 0 0
          0 0 0 0 0 0
          0 0 0 0 0 0
          0 0 0 0 0 0
          0 0 0 0 0 0
          0 0 0 0 0 0
          0 0 0 0 0 0
          0 0 0 0 0 0
          0 0 0 0 0 0
          0 0 0 0 0 0
          0 0 0 0 0 0
          0 0 0 0 0 0
          0 0 0 0 0 0
          0 0 0 0 0 0
          0 0 0 0 0 0
          0 0 0 0 0 0
          0 0 0 0 0 0
          0 0 0 0 0 0
          0 0 0 0 0 0
          0 0 0 0 0 0
          0 0 0 0 0 0
          0 0 0 0 0 0
          0 0 0 0 0 0
          0 0 0 0 0 0
          0 0 0 0 0 0
          0 0 0 0 0 0
          0 0 0 0 0 0
          0 0 0 0 0 0
          0 0 0 0 0 0
          0 0 0 0 0 0
          0 0 0 0 0 0
          0 0 0 0 0 0
          0 0 0 0 0 0
          0 0 0 0 0 0
          0 0 0 0 0 0
          0 0 0 0 0 0
          0 0 0 0 0 0
          0 0 0 0 0 0
          0 0 0 0 0 0
          0 0 0 0 0 0
          0 0 0 0 0 0
          0 0 0 0 0 0
          0 0 0 0 0 0
          0 0 0 0 0 0
          0 0 0 0 0 0
          0 0 0 0 0 0
          0 0 0 0 0 0
          0 0 0 0 0 0
          0 0 0 0 0 0
          0 0 0 0 0 0
          0 0 0 0 0 0
          0 0 0 0 0 0
          0 0 0 0 0 0
          0 0 0 0 0 0
          0 0 0 0 0 0
          0 0 0 0 0 0
          0 0 0 0 0 0
          0 0 0 0 0 0
          0 0 0 0 0 0
          0 0 0 0 0 0
          0 0 0 0 0 0
          0 0 0 0 0 0
          0 0 0 0 0 0
          0 0 0 0 0 0
          0 0 0 0 0 0
          0 0 0 0 0 0
          0 0 0 0 0 0
          0 0 0 0 0 0
          0 0 0 0 0 0
          0 0 0 0 0 0
          0 0 0 0 0 0
          0 0 0 0 0
        </DataArray>
        <DataArray type="Float64" Name="gradient_error" format="ascii" RangeMin="2.07133800087703e-12" RangeMax="3.356989824711508e-8">
          7.498873032301614e-10 1.0636614076078502e-11 1.8171343172454033e-11 1.3761221000071399e-10 4.2829145288001304e-9 2.5568973659591805e-10
          1.066929492621835e-8 1.8813645161784086e-11 2.508999020923137e-11 2.0714797149816648e-11 1.0037115146866834e-10 1.1306643253789683e-11
          9.075696073297084e-12 8.31859546540046e-12 1.0104957358252138e-11 3.7841449891316874e-11 3.003088575451047e-11 1.1020492901018173e-11
          3.1174799087767468e-9 2.2409907086156787e-9 1.0501068244347273e-9 7.454193499089263e-10 1.1600734134375363e-8 8.89999701137308e-9
          3.1344309668335744e-9 2.824344259306582e-10 2.0028946895002905e-10 6.176488795597589e-11 4.4199459553230786e-11 1.1853161281831273e-9
          8.477252812008514e-10 1.8202552131656193e-10 2.072691109973839e-8 1.8226996171742816e-8 8.81505663968127e-9 7.020558773371159e-9
          2.3821030982073287e-8 2.2449839906269502e-8 9.000901895102116e-9 2.6265312915771156e-9 1.9697039108529243e-9 5.799929655607647e-10
          4.2317070096365173e-10 3.330214301196262e-9 2.580586051566657e-9 5.57439932625165e-10 1.729294232496488e-11 4.1781337767667475e-11
          3.883662405781944e-11 3.131607564731164e-11 1.2717195990385117e-10 1.099568912666105e-11 2.2017296484035048e-11 6.805734007903079e-11
          9.971263940723121e-12 9.56997523430595e-12 2.2541923221359754e-11 2.094868243203218e-11 5.431763974679106e-12 1.171292423750222e-11
          1.0860457646585584e-11 8.33808580331716e-12 1.68707334888652e-11 9.939064297893713e-12 7.380071558277781e-11 6.822585908148386e-11
          3.486506302466063e-11 5.386928764348163e-11 2.9041777960178453e-12 3.1481740394329662e-12 5.787502396951991e-12 5.458275564264697e-12
          2.313555440258852e-12 3.706388164504708e-12 3.644594691957023e-12 3.3921702828480863e-12 5.129048731577403e-12 3.582801219409337e-12
          1.857013950935515e-11 1.70280305907582e-11 9.93351477924504e-12 1.6100839929793635e-11 6.674972685286923e-12 1.1897087341142974e-11
          5.15425154818248e-12 8.244830977131523e-12 5.8424602918283105e-12 9.408149347260141e-12 6.688451171919788e-12 3.6467709448356656e-11
          2.3027580639447202e-11 4.914293818732697e-9 4.5512120349768775e-9 2.8781787467170964e-9 3.5718607209563726e-9 4.0672995345446695e-10
          3.743631769735803e-10 2.9110640763820556e-10 1.8630403054489037e-9 1.7158581728139748e-9 9.65651525020834e-10 1.3285864177928464e-9
          2.336499045669651e-9 1.451811576041742e-9 1.916475435035324e-10 8.560096703851359e-10 4.794552385479602e-10 1.0141286948666154e-8
          9.488620376207972e-9 6.6306465243335035e-9 6.167801367269701e-9 7.591312751725849e-9 4.8651954866009474e-9 1.7040788022827027e-8
          1.6235999652496383e-8 1.0954978011895156e-8 1.3483551893447454e-8 4.047870569657317e-9 3.748515800573765e-9 2.313081453514452e-9
          2.1345756689163994e-9 2.925660617180677e-9 1.6534694635202559e-9 7.3263400404028534e-9 6.8611167141664475e-9 3.986281186679559e-9
          5.469332302243152e-9 5.007630885198742e-9 3.1564615294417454e-9 9.154122453665963e-9 5.885494665586676e-9 1.876462816917542e-9
          1.0537286105433893e-9 3.545439765202162e-9 2.0053286815270938e-9 2.169200202275043e-10 1.997670797449727e-10 1.1015190033738622e-10
          1.0153584415328146e-10 1.5564436564226144e-10 7.934327926217024e-11 5.595405427291216e-10 5.14094635083788e-10 2.594509312932528e-10
          3.9645396949508695e-10 5.342975612811159e-11 4.923381406842361e-11 2.4718933517968997e-11 2.277560327795069e-11 3.851107550556206e-11
          1.7878332150172447e-11 1.3535963007006969e-10 1.2441852772069181e-10 5.683721173223688e-11 9.632868482225604e-11 1.0280564001048951e-10
          5.2680860843557145e-11 2.554468013858426e-10 1.2970472288201002e-10 1.4188657767510461e-11 2.5770347266729664e-11 6.808589222144429e-12
          1.2053372050300198e-11 6.2929787431236e-11 2.913878638552687e-11 1.2402822971191939e-9 1.14190968509585e-9 6.263232904026289e-10
          5.758737969872022e-10 8.806774242973252e-10 4.434134939694885e-10 2.3300624081000876e-9 2.158659224794828e-9 1.0946271832810574e-9
          1.681286982054944e-9 2.989419140228765e-10 2.747347841572811e-10 1.353719679684337e-10 1.24449512023516e-10 2.1170504612389864e-10
          9.617421454098318e-11 5.665939055530728e-10 5.222394853677801e-10 2.354757905076917e-10 4.034943904429727e-10 5.602549618435808e-10
          2.82759280616557e-10 1.068147674233159e-9 5.37692615502059e-10 1.3585851730630128e-10 6.231138376336252e-11 2.5667737911924057e-10
          1.1660984597927295e-10 2.4123338595244217e-8 2.34753820433436e-8 1.6754471257812146e-8 1.6183653543828325e-8 2.03134196781434e-8
          1.3737791790767687e-8 2.9415710841391093e-8 2.9444995114415617e-8 2.0512478513163362e-8 2.6662811506390327e-8 1.1028594400752652e-8
          1.0514785683837863e-8 6.658005984635073e-9 6.280239853854692e-9 8.67138689621797e-9 5.0630195853400484e-9 1.4056663589879442e-8
          1.370962550185081e-8 8.452406637099911e-9 1.1783698388649548e-8 1.428517436835237e-8 9.388065816290611e-9 1.933786596380392e-8
          1.2910375856446817e-8 5.750397221016358e-9 3.2865256522774186e-9 8.039338876888209e-9 4.645461114591514e-9 3.1581240475135846e-8
          3.2710143993682245e-8 2.3061843552883943e-8 2.3242349848908198e-8 3.107897522020521e-8 2.1339107464808074e-8 3.1860342556580286e-8
          3.356989824711508e-8 2.417047180759153e-8 3.2629106504947556e-8 1.5773307208785433e-8 1.5704922840409443e-8 1.0209950203993202e-8
          9.937731721609703e-9 1.398759784052166e-8 8.469515572831463e-9 1.628277918137418e-8 1.635262703845019e-8 1.0451178531091123e-8
          1.4773189847477037e-8 2.3082767633533837e-8 1.5511373647948906e-8 2.447313423610299e-8 1.6467139644625338e-8 9.772460273501148e-9
          5.6952990971572665e-9 1.0417135164997823e-8 6.090835961313426e-9 3.7002357567109154e-9 3.4630970441534246e-9 1.9071973946774044e-9
          1.7748604422249286e-9 2.7470767855896595e-9 1.39266888150226e-9 5.0166734534149156e-9 4.754411328670783e-9 2.467891780931994e-9
          3.857697360484253e-9 9.178813310302497e-10 8.508742546461197e-10 4.1501622335343683e-10 3.83798040202085e-10 6.633654616783112e-10
          2.984058570501094e-10 1.2763413713183518e-9 1.1918585587080844e-9 5.393366940684432e-10 9.40976714350818e-10 1.7593953161074185e-9
          8.861829353825134e-10 2.502697580867255e-9 1.2635036346573998e-9 4.218219680893489e-10 1.9054668193193812e-10 6.009706668663188e-10
          2.7061262969100026e-10 5.927392829584065e-9 5.6802817751815855e-9 3.1445102103639332e-9 2.979747774112293e-9 4.699641460242204e-9
          2.4138164889570466e-9 6.244620150131551e-9 6.0116564627196605e-9 3.166654949211972e-9 5.0128682533617804e-9 1.5413241224441752e-9
          1.4486401329806358e-9 7.040384996039734e-10 6.579073523708687e-10 1.156607644578897e-9 5.205385102837349e-10 1.6380949813470127e-9
          1.543645144019388e-9 7.021491679350573e-10 1.2380605802367069e-9 3.08424636582223e-9 1.560713828374266e-9 3.3050042376952105e-9
          1.673998198594719e-9 7.424980901250347e-10 3.338853696014057e-10 7.96553520973728e-10 3.580625013602684e-10 6.139491631667109e-12
          5.664801323418283e-12 1.0819333624650747e-11 9.992178917214446e-12 3.6123137038511773e-12 6.418687378829791e-12 5.944530596818283e-12
          4.500969738760594e-12 7.90719677071851e-12 4.726615355663559e-12 2.6917741122254067e-11 2.4804066455174474e-11 1.939307369285277e-11
          3.197298632922713e-12 5.380531678063702e-12 2.07133800087703e-12 3.2942260480872433e-12 2.582768803493692e-12 4.11169402446853e-12
          2.605595199654143e-12 1.2877241730037533e-11 8.689525359470202e-12 5.844492577075507e-11 5.37820139648516e-11 4.174423589219224e-11
          1.0939830581649895e-10 1.0076392521213539e-10 7.810921554241409e-11 2.7362922741577268e-11 1.5190162931412273e-11 5.0624559559932907e-11
          2.7641151182041217e-11 5.085950277213917e-12 7.373855709268372e-12 3.290104391692939e-12 4.551263610282014e-12 3.420780200946057e-12
          4.723861413430389e-12 3.0837361359944006e-12 1.30638464199658e-11 8.005623118658578e-12 1.7727472541710407e-10 1.6376075110063814e-10
          1.2737719196873563e-10 2.480835512039038e-10 2.3011053157645806e-10 1.8012970327211044e-10 8.202986127821914e-11 4.410849298212307e-11
          1.1587359266183833e-10 6.166698518890469e-11 3.0191372415483937e-10 2.8106264425769365e-10 2.213489769441568e-10 3.219667300177177e-10
          3.0017332866984157e-10 2.369902483980912e-10 1.4260062721113902e-10 7.55069956892852e-11 1.5279979928145808e-10 8.078105204726563e-11
          2.0427307209258307e-11 1.2189743857409665e-11 2.8111297336756106e-11 1.6513915024170913e-11 3.4081777054919505e-11 1.9864427625781103e-11
          3.632964215623465e-11 2.109620930663728e-11 3.999838484691831e-12 2.5827766183056686e-12 4.596495620036301e-12 7.159660140784584e-12
          5.097316828250021e-12 1.8846924277395348e-11 1.269470462040097e-11 1.6238113992858995e-11 5.364692186808339e-12 8.623359688078902e-12
          1.0733247608870197e-11 1.9200658054425037e-11 6.3240174383239665e-12 6.448700292103568e-12 9.252611010187129e-12 1.7766417236370153e-11
          7.429682640565336e-12 7.2098662139624045e-12 1.556036089089119e-11 6.08376311743143e-12 1.7224088305571518e-11 2.2523139182552712e-11
          1.0036439180662772e-11 1.3891053111518193e-11 2.1702432749197483e-11 3.2558462040376714e-11 1.5299172084596254e-11 2.3572290760349905e-11
          2.3857336959657513e-11 4.0789825688160637e-11 1.8518485082405748e-11 2.8109557462220174e-11 2.8164904154806674e-11 3.544832598396315e-12
          3.143419727335695e-12 7.702542129846338e-12 6.247516809271537e-12 2.742006856275075e-12 1.5774935172317997e-11 2.6165020420429677e-11
          4.3649627040818116e-11 7.915585034122406e-10 1.2849549965552799e-9 1.686660679984821e-9 2.716127167452183e-9 3.1347317399627846e-9
          4.991769295748618e-9 4.651071164035545e-10 9.94337712419416e-10 2.6083298462346757e-10 5.572098720366026e-10 1.8597558824372166e-9
          1.0440409223584334e-9 5.851779839288386e-11 1.0870598179830865e-10 3.017508551843896e-11 1.3975128242782243e-10 7.157854253490999e-11
          8.575225915110114e-12 1.488929868380624e-11 8.305785960803685e-12 3.5092152617816644e-11 2.9724231941255514e-10 1.5123581443424941e-10
          5.558740800211065e-10 2.8138691339765717e-10 7.358368822108355e-11 3.420596668752811e-11 1.3576656177409295e-10 6.258214302593799e-11
          5.05168104874441e-9 7.940904318899207e-9 7.064811661656701e-9 1.0965449374497809e-8 3.0222072542359005e-9 1.7034432130645541e-9
          4.262102869421292e-9 2.4139340182717003e-9 8.612445646631658e-9 1.3247692917209908e-8 9.194342844361858e-9 1.409916465568616e-8
          5.22830906698544e-9 2.972384810449543e-9 5.594576391093978e-9 3.1850950467354297e-9 9.072309852827559e-10 4.5803732403611593e-10
          1.2876304986069478e-9 6.494646884840063e-10 2.1988300982062882e-10 1.0066946009755967e-10 3.1082673549373996e-10 1.4163753770989737e-10
          1.5881097531732536e-9 8.009259668031491e-10 1.7029293789818448e-9 8.58877820208582e-10 3.8275089181081534e-10 1.7397321802349204e-10
          4.102676513862586e-10 1.863319216128481e-10 1.3907752247968978e-11 1.2531685427843242e-11 1.0366039060708239e-11 6.6221757251412955e-12
          2.4015398174199776e-11 2.2131288610146216e-11 1.727751472956636e-11 4.459285383368652e-11 4.1112458492196e-11 3.2021310567584314e-11
          1.1442896667122359e-11 7.724892308992974e-12 2.0998493123881484e-11 1.2664738128979919e-11 9.711152251242201e-12 1.6355518550654476e-11
          1.0100498249609724e-11 2.915544856828878e-11 6.600675600569751e-12 7.191908536297322e-11 6.644905587394492e-11 5.184390464611132e-11
          1.0046726715072727e-10 9.309973240982242e-11 7.295469710784986e-11 3.376808979551594e-11 1.846468462494558e-11 4.739811967838505e-11
          2.572758530019852e-11 1.2234276843703448e-10 1.1364801738979676e-10 8.941677088570271e-11 1.3053270940005494e-10 1.2137318754686679e-10
          9.565477002496301e-11 5.8126592723064656e-11 3.137880114202881e-11 6.220722622680964e-11 3.352861249653796e-11 4.592068052331205e-11
          8.70254250370103e-12 2.2678101733081126e-11 5.303112441236751e-12 6.361222856738661e-11 1.1931090599625863e-11 7.736316547284269e-11
          1.4392463988708221e-11 3.711548479839314e-11 8.400235710641793e-12 8.255388045509335e-11 1.5333029799147692e-11
        </DataArray>
        <DataArray type="Float64" Name="gradient_matprop_error" format="ascii" RangeMin="0" RangeMax="0">
          0 0 0 0 0 0
          0 0 0 0 0 0
          0 0 0 0 0 0
          0 0 0 0 0 0
          0 0 0 0 0 0
          0 0 0 0 0 0
          0 0 0 0 0 0
          0 0 0 0 0 0
          0 0 0 0 0 0
          0 0 0 0 0 0
          0 0 0 0 0 0
          0 0 0 0 0 0
          0 0 0 0 0 0
          0 0 0 0 0 0
          0 0 0 0 0 0
          0 0 0 0 0 0
          0 0 0 0 0 0
          0 0 0 0 0 0
          0 0 0 0 0 0
          0 0 0 0 0 0
          0 0 0 0 0 0
          0 0 0 0 0 0
          0 0 0 0 0 0
          0 0 0 0 0 0
          0 0 0 0 0 0
          0 0 0 0 0 0
          0 0 0 0 0 0
          0 0 0 0 0 0
          0 0 0 0 0 0
          0 0 0 0 0 0
          0 0 0 0 0 0
          0 0 0 0 0 0
          0 0 0 0 0 0
          0 0 0 0 0 0
          0 0 0 0 0 0
          0 0 0 0 0 0
          0 0 0 0 0 0
          0 0 0 0 0 0
          0 0 0 0 0 0
          0 0 0 0 0 0
          0 0 0 0 0 0
          0 0 0 0 0 0
          0 0 0 0 0 0
          0 0 0 0 0 0
          0 0 0 0 0 0
          0 0 0 0 0 0
          0 0 0 0 0 0
          0 0 0 0 0 0
          0 0 0 0 0 0
          0 0 0 0 0 0
          0 0 0 0 0 0
          0 0 0 0 0 0
          0 0 0 0 0 0
          0 0 0 0 0 0
          0 0 0 0 0 0
          0 0 0 0 0 0
          0 0 0 0 0 0
          0 0 0 0 0 0
          0 0 0 0 0 0
          0 0 0 0 0 0
          0 0 0 0 0 0
          0 0 0 0 0 0
          0 0 0 0 0 0
          0 0 0 0 0 0
          0 0 0 0 0 0
          0 0 0 0 0 0
          0 0 0 0 0 0
          0 0 0 0 0 0
          0 0 0 0 0 0
          0 0 0 0 0 0
          0 0 0 0 0 0
          0 0 0 0 0 0
          0 0 0 0 0 0
          0 0 0 0 0 0
          0 0 0 0 0 0
          0 0 0 0 0 0
          0 0 0 0 0 0
          0 0 0 0 0 0
          0 0 0 0 0 0
          0 0 0 0 0 0
          0 0 0 0 0 0
          0 0 0 0 0 0
          0 0 0 0 0 0
          0 0 0 0 0 0
          0 0 0 0 0 0
          0 0 0 0 0 0
          0 0 0 0 0 0
          0 0 0 0 0
        </DataArray>
        <DataArray type="Float64" Name="initial_marker" format="ascii" RangeMin="0" RangeMax="2">
          2 1 0 2 2 2
          2 0 0.5 0.25 2 0
          0 0 0 2 1.75 0.5
          2 2 2 2 2 2
          2 2 2 2 2 2
          2 2 2 2 2 2
          2 2 2 2 2 2
          2 2 2 2 1 1.5
          1.5 1.25 2 0 1 2
          0 0 1 1 0 1
          1 0 1 1 2 2
          2 2 0 0 0.5 0.5
          0 0 0 0 0.5 0
          1.5 1.5 1 1.6666666666666667 0 0.75
          0 0.5 0 0.5 0 1.75
          1.6666666666666667 2 2 2 2 2
          2 2 2 2 2 2
          2 2 2 2 2 2
          2 2 2 2 2 2
          2 2 2 2 2 2
          2 2 2 2 2 2
          2 2 2 2 2 2
          2 2 2 2 2 2
          2 2 2 2 2 2
          2 2 2 2 1.75 2
          1.5 2 2 2 2 2
          2 2 2 1.5 1.75 0.5
          1.25 2 2 2 2 2
          2 2 2 2 2 2
          2 2 2 2 2 2
          2 2 2 2 2 2
          2 2 2 2 2 2
          2 2 2 2 2 2
          2 2 2 2 2 2
          2 2 2 2 2 2
          2 2 2 2 2 2
          2 2 2 2 2 2
          2 2 2 2 2 2
          2 2 2 2 2 2
          2 2 2 2 2 2
          2 2 2 2 2 2
          2 2 2 2 2 2
          2 2 2 2 2 2
          2 2 2 2 2 2
          2 2 2 2 2 2
          2 2 2 2 2 2
          2 2 2 2 2 2
          2 2 2 2 2 2
          2 2 2 2 2 2
          2 2 2 2 2 2
          2 2 2 2 2 1
          0.5 1.5 1.25 0 1 1
          0 0.75 0.5 2 2 1.75
          0 0.5 0 0 0 0.5
          0 1.5 1.3333333333333333 2 2 2
          2 2 2 2 1.5 2
          1.75 0.5 0.5 0 0 0
          0 0 1 0.5 2 2
          2 2 2 2 2 2
          2 2 2 2 2 2
          2 2 2 2 2 2
          1.5 1 1.75 1.5 2 2
          2 2 0 0 0 0
          0 0 0 0 0 0
          0 0.75 0 0 0 1.5
          0.25 0 0 0 0 0.75
          0 0 0 1.5 0.25 0
          0 1.5 0.5 0 0 0
          0 0 0 0 0.6666666666666666 1.6666666666666667
          1.5 2 2 2 2 2
          2 2 2 2 2 2
          2 2 2 1.75 2 2
          0.5 1 0.6666666666666666 1.75 2 2
          2 2 2 2 2 2
          2 2 2 2 2 2
          2 2 2 2 2 2
          2 2 2 2 2 2
          2 2 2 2 2 2
          2 2 2 2 2 2
          2 2 1.5 2 1 0.6666666666666666
          2 2 1.75 2 2 2
          1.5 1 2 1.25 0.6666666666666666 1.25
          0.5 1.75 0.3333333333333333 2 2 2
          2 2 2 2 1.75 2
          2 2 2 2 2 2
          2 2 2 2 2 2
          0.75 1.6666666666666667 0 2 1.25 2
          1.5 2 1 2 1.5
        </DataArray>
        <DataArray type="Float64" Name="markers_norefine" format="ascii" RangeMin="0" RangeMax="0">
          0 0 0 0 0 0
          0 0 0 0 0 0
          0 0 0 0 0 0
          0 0 0 0 0 0
          0 0 0 0 0 0
          0 0 0 0 0 0
          0 0 0 0 0 0
          0 0 0 0 0 0
          0 0 0 0 0 0
          0 0 0 0 0 0
          0 0 0 0 0 0
          0 0 0 0 0 0
          0 0 0 0 0 0
          0 0 0 0 0 0
          0 0 0 0 0 0
          0 0 0 0 0 0
          0 0 0 0 0 0
          0 0 0 0 0 0
          0 0 0 0 0 0
          0 0 0 0 0 0
          0 0 0 0 0 0
          0 0 0 0 0 0
          0 0 0 0 0 0
          0 0 0 0 0 0
          0 0 0 0 0 0
          0 0 0 0 0 0
          0 0 0 0 0 0
          0 0 0 0 0 0
          0 0 0 0 0 0
          0 0 0 0 0 0
          0 0 0 0 0 0
          0 0 0 0 0 0
          0 0 0 0 0 0
          0 0 0 0 0 0
          0 0 0 0 0 0
          0 0 0 0 0 0
          0 0 0 0 0 0
          0 0 0 0 0 0
          0 0 0 0 0 0
          0 0 0 0 0 0
          0 0 0 0 0 0
          0 0 0 0 0 0
          0 0 0 0 0 0
          0 0 0 0 0 0
          0 0 0 0 0 0
          0 0 0 0 0 0
          0 0 0 0 0 0
          0 0 0 0 0 0
          0 0 0 0 0 0
          0 0 0 0 0 0
          0 0 0 0 0 0
          0 0 0 0 0 0
          0 0 0 0 0 0
          0 0 0 0 0 0
          0 0 0 0 0 0
          0 0 0 0 0 0
          0 0 0 0 0 0
          0 0 0 0 0 0
          0 0 0 0 0 0
          0 0 0 0 0 0
          0 0 0 0 0 0
          0 0 0 0 0 0
          0 0 0 0 0 0
          0 0 0 0 0 0
          0 0 0 0 0 0
          0 0 0 0 0 0
          0 0 0 0 0 0
          0 0 0 0 0 0
          0 0 0 0 0 0
          0 0 0 0 0 0
          0 0 0 0 0 0
          0 0 0 0 0 0
          0 0 0 0 0 0
          0 0 0 0 0 0
          0 0 0 0 0 0
          0 0 0 0 0 0
          0 0 0 0 0 0
          0 0 0 0 0 0
          0 0 0 0 0 0
          0 0 0 0 0 0
          0 0 0 0 0 0
          0 0 0 0 0 0
          0 0 0 0 0 0
          0 0 0 0 0 0
          0 0 0 0 0 0
          0 0 0 0 0 0
          0 0 0 0 0 0
          0 0 0 0 0
        </DataArray>
        <DataArray type="Float64" Name="markers_mustrefine" format="ascii" RangeMin="0" RangeMax="2">
          2 1 0 2 2 2
          2 0 0.5 0.25 2 0
          0 0 0 2 1.75 0.5
          2 2 2 2 2 2
          2 2 2 2 2 2
          2 2 2 2 2 2
          2 2 2 2 2 2
          2 2 2 2 1 1.5
          1.5 1.25 2 0 1 2
          0 0 1 1 0 1
          1 0 1 1 2 2
          2 2 0 0 0.5 0.5
          0 0 0 0 0.5 0
          1.5 1.5 1 1.6666666666666667 0 0.75
          0 0.5 0 0.5 0 1.75
          1.6666666666666667 2 2 2 2 2
          2 2 2 2 2 2
          2 2 2 2 2 2
          2 2 2 2 2 2
          2 2 2 2 2 2
          2 2 2 2 2 2
          2 2 2 2 2 2
          2 2 2 2 2 2
          2 2 2 2 2 2
          2 2 2 2 1.75 2
          1.5 2 2 2 2 2
          2 2 2 1.5 1.75 0.5
          1.25 2 2 2 2 2
          2 2 2 2 2 2
          2 2 2 2 2 2
          2 2 2 2 2 2
          2 2 2 2 2 2
          2 2 2 2 2 2
          2 2 2 2 2 2
          2 2 2 2 2 2
          2 2 2 2 2 2
          2 2 2 2 2 2
          2 2 2 2 2 2
          2 2 2 2 2 2
          2 2 2 2 2 2
          2 2 2 2 2 2
          2 2 2 2 2 2
          2 2 2 2 2 2
          2 2 2 2 2 2
          2 2 2 2 2 2
          2 2 2 2 2 2
          2 2 2 2 2 2
          2 2 2 2 2 2
          2 2 2 2 2 2
          2 2 2 2 2 2
          2 2 2 2 2 1
          0.5 1.5 1.25 0 1 1
          0 0.75 0.5 2 2 1.75
          0 0.5 0 0 0 0.5
          0 1.5 1.3333333333333333 2 2 2
          2 2 2 2 1.5 2
          1.75 0.5 0.5 0 0 0
          0 0 1 0.5 2 2
          2 2 2 2 2 2
          2 2 2 2 2 2
          2 2 2 2 2 2
          1.5 1 1.75 1.5 2 2
          2 2 0 0 0 0
          0 0 0 0 0 0
          0 0.75 0 0 0 1.5
          0.25 0 0 0 0 0.75
          0 0 0 1.5 0.25 0
          0 1.5 0.5 0 0 0
          0 0 0 0 0.6666666666666666 1.6666666666666667
          1.5 2 2 2 2 2
          2 2 2 2 2 2
          2 2 2 1.75 2 2
          0.5 1 0.6666666666666666 1.75 2 2
          2 2 2 2 2 2
          2 2 2 2 2 2
          2 2 2 2 2 2
          2 2 2 2 2 2
          2 2 2 2 2 2
          2 2 2 2 2 2
          2 2 1.5 2 1 0.6666666666666666
          2 2 1.75 2 2 2
          1.5 1 2 1.25 0.6666666666666666 1.25
          0.5 1.75 0.3333333333333333 2 2 2
          2 2 2 2 1.75 2
          2 2 2 2 2 2
          2 2 2 2 2 2
          0.75 1.6666666666666667 0 2 1.25 2
          1.5 2 1 2 1.5
        </DataArray>
        <DataArray type="Float64" Name="gradient_marker" format="ascii" RangeMin="1" RangeMax="1">
          1 1 1 1 1 1
          1 1 1 1 1 1
          1 1 1 1 1 1
          1 1 1 1 1 1
          1 1 1 1 1 1
          1 1 1 1 1 1
          1 1 1 1 1 1
          1 1 1 1 1 1
          1 1 1 1 1 1
          1 1 1 1 1 1
          1 1 1 1 1 1
          1 1 1 1 1 1
          1 1 1 1 1 1
          1 1 1 1 1 1
          1 1 1 1 1 1
          1 1 1 1 1 1
          1 1 1 1 1 1
          1 1 1 1 1 1
          1 1 1 1 1 1
          1 1 1 1 1 1
          1 1 1 1 1 1
          1 1 1 1 1 1
          1 1 1 1 1 1
          1 1 1 1 1 1
          1 1 1 1 1 1
          1 1 1 1 1 1
          1 1 1 1 1 1
          1 1 1 1 1 1
          1 1 1 1 1 1
          1 1 1 1 1 1
          1 1 1 1 1 1
          1 1 1 1 1 1
          1 1 1 1 1 1
          1 1 1 1 1 1
          1 1 1 1 1 1
          1 1 1 1 1 1
          1 1 1 1 1 1
          1 1 1 1 1 1
          1 1 1 1 1 1
          1 1 1 1 1 1
          1 1 1 1 1 1
          1 1 1 1 1 1
          1 1 1 1 1 1
          1 1 1 1 1 1
          1 1 1 1 1 1
          1 1 1 1 1 1
          1 1 1 1 1 1
          1 1 1 1 1 1
          1 1 1 1 1 1
          1 1 1 1 1 1
          1 1 1 1 1 1
          1 1 1 1 1 1
          1 1 1 1 1 1
          1 1 1 1 1 1
          1 1 1 1 1 1
          1 1 1 1 1 1
          1 1 1 1 1 1
          1 1 1 1 1 1
          1 1 1 1 1 1
          1 1 1 1 1 1
          1 1 1 1 1 1
          1 1 1 1 1 1
          1 1 1 1 1 1
          1 1 1 1 1 1
          1 1 1 1 1 1
          1 1 1 1 1 1
          1 1 1 1 1 1
          1 1 1 1 1 1
          1 1 1 1 1 1
          1 1 1 1 1 1
          1 1 1 1 1 1
          1 1 1 1 1 1
          1 1 1 1 1 1
          1 1 1 1 1 1
          1 1 1 1 1 1
          1 1 1 1 1 1
          1 1 1 1 1 1
          1 1 1 1 1 1
          1 1 1 1 1 1
          1 1 1 1 1 1
          1 1 1 1 1 1
          1 1 1 1 1 1
          1 1 1 1 1 1
          1 1 1 1 1 1
          1 1 1 1 1 1
          1 1 1 1 1 1
          1 1 1 1 1 1
          1 1 1 1 1
        </DataArray>
        <DataArray type="Float64" Name="gradient_matprop_marker" format="ascii" RangeMin="0" RangeMax="0">
          0 0 0 0 0 0
          0 0 0 0 0 0
          0 0 0 0 0 0
          0 0 0 0 0 0
          0 0 0 0 0 0
          0 0 0 0 0 0
          0 0 0 0 0 0
          0 0 0 0 0 0
          0 0 0 0 0 0
          0 0 0 0 0 0
          0 0 0 0 0 0
          0 0 0 0 0 0
          0 0 0 0 0 0
          0 0 0 0 0 0
          0 0 0 0 0 0
          0 0 0 0 0 0
          0 0 0 0 0 0