<?xml version="1.0"?>
<VTKFile type="UnstructuredGrid" version="0.1" byte_order="LittleEndian" header_type="UInt32" compressor="vtkZLibDataCompressor">
  <UnstructuredGrid>
    <Piece NumberOfPoints="623" NumberOfCells="326">
      <PointData>
        <DataArray type="Int32" Name="libmesh_node_id" format="ascii" RangeMin="24" RangeMax="5746">
          28 29 30 31 32 33
          34 35 36 37 38 39
          90 91 92 93 94 95
          128 129 130 131 132 133
          135 159 160 161 162 185
          186 187 188 189 190 191
          192 216 217 218 219 242
          243 244 245 246 247 248
          249 273 274 275 276 299
          300 301 302 303 304 305
          306 330 331 332 333 356
          357 358 359 360 361 363
          387 388 389 390 399 400
          401 402 403 404 405 406
          408 409 410 411 412 413
          414 415 417 474 475 476
          477 478 479 480 481 482
          483 484 485 486 487 488
          489 490 491 492 493 494
          495 496 497 498 499 500
          501 502 503 504 505 506
          507 508 510 514 515 516
          518 520 621 622 625 631
          785 786 787 788 789 790
          791 792 793 794 795 796
          797 798 799 800 801 802
          803 804 805 806 807 808
          809 810 811 812 813 814
          815 816 817 818 819 820
          821 822 823 824 825 826
          827 828 829 830 831 832
          833 834 835 838 839 840
          841 842 843 844 845 1230
          1231 1232 1233 1234 1235 1236
          1237 1238 1239 1264 1265 1266
          1267 1268 1269 1270 1271 1272
          1273 1274 1275 1276 1277 1294
          1295 1296 1297 1298 1299 1300
          1301 1302 1303 1304 1305 1306
          1307 1308 1309 1310 1311 1312
          1313 1314 1315 1316 1317 1318
          1319 1320 1321 1322 1323 1324
          1325 1326 1327 1328 1329 1330
          1331 1332 1333 1334 1335 1336
          1337 1388 1389 1390 1391 1392
          1393 1394 1395 1396 1397 1398
          1399 1400 1401 1402 1403 1404
          1405 1406 1407 1408 1409 1410
          1411 1412 1413 1414 1415 1416
          1417 1418 1419 1420 1422 1423
          1424 1425 1436 1437 1438 1439
          1440 1441 1442 1443 1444 1445
          1576 1577 1578 1579 1580 1581
          1582 1583 1584 1585 1586 1587
          1588 1589 2341 2342 2343 2344
          2345 2346 2347 2348 2349 2350
          2351 2352 2353 2354 2355 2356
          2357 2358 2359 2360 5079 5080
          5081 5082 5083 5084 5085 5086
          5087 5088 5089 5090 5091 5092
          5093 5094 5095 5096 5097 5098
          5099 5100 5101 5102 5192 5193
          5196 5197 5198 5199 5200 5203
          5204 5205 5206 5207 5208 5209
          5210 5211 5212 5213 5214 5215
          5216 5217 5218 5219 5220 5221
          5222 5223 5224 5225 5226 5227
          5228 5229 5230 5231 5232 5233
          5234 5235 5236 5237 5238 5239
          5240 5241 5242 5243 5244 5245
          5246 5247 5248 5249 5250 5251
          5252 5253 5254 5255 5256 5257
          5258 5259 5260 5261 5262 5287
          5288 5289 5290 5291 5292 5329
          5330 5333 5335 5337 5338 5339
          5340 5341 5342 5624 5625 5626
          5627 5628 5629 5630 5631 5632
          5633 5638 5639 5640 5641 5642
          5643 5644 5645 5646 5647 5648
          5649 5650 5651 5662 5663 5664
          5665 5666 5667 5668 5669 5670
          5671 5672 5673 5674 5675 5676
          5677 5678 5679 5680 5681 5682
          5683 5684 5685 5686 5687 5688
          5689 5690 5691 5692 5693 5694
          5695 5696 5697 5698 5699 5700
          5701 5702 5703 5704 5705 5706
          5707 5708 5709 5710 5711 5712
          5713 5714 5715 5716 5717 5718
          5719 5720 5721 5722 5723 5724
          5725 5726 5727 5728 5729 5730
          5731 5732 5733 5734 5735 5736
          5737 5738 5739 5740 5741 5742
          5743 5744 5745 5746 24 25
          26 27 88 89 126 127
          158 183 184 215 240 241
          272 298 329 5182 5184 5195
          5187 5281 5282 5283 5286 297
          5327 5319 5328 5320 5331 5332
          355 5334 5325 5336 5574 5575
          5576 5579 5183 5634 5635 5582
          5194 5636 5637 5654 5655 5657
          5201 5660 5202 5616 5599 5656
          5617 5620 5190 5661 5622
        </DataArray>
        <DataArray type="Float64" Name="bounds" format="ascii" RangeMin="0" RangeMax="0">
          0 0 0 0 0 0
          0 0 0 0 0 0
          0 0 0 0 0 0
          0 0 0 0 0 0
          0 0 0 0 0 0
          0 0 0 0 0 0
          0 0 0 0 0 0
          0 0 0 0 0 0
          0 0 0 0 0 0
          0 0 0 0 0 0
          0 0 0 0 0 0
          0 0 0 0 0 0
          0 0 0 0 0 0
          0 0 0 0 0 0
          0 0 0 0 0 0
          0 0 0 0 0 0
          0 0 0 0 0 0
          0 0 0 0 0 0
          0 0 0 0 0 0
          0 0 0 0 0 0
          0 0 0 0 0 0
          0 0 0 0 0 0
          0 0 0 0 0 0
          0 0 0 0 0 0
          0 0 0 0 0 0
          0 0 0 0 0 0
          0 0 0 0 0 0
          0 0 0 0 0 0
          0 0 0 0 0 0
          0 0 0 0 0 0
          0 0 0 0 0 0
          0 0 0 0 0 0
          0 0 0 0 0 0
          0 0 0 0 0 0
          0 0 0 0 0 0
          0 0 0 0 0 0
          0 0 0 0 0 0
          0 0 0 0 0 0
          0 0 0 0 0 0
          0 0 0 0 0 0
          0 0 0 0 0 0
          0 0 0 0 0 0
          0 0 0 0 0 0
          0 0 0 0 0 0
          0 0 0 0 0 0
          0 0 0 0 0 0
          0 0 0 0 0 0
          0 0 0 0 0 0
          0 0 0 0 0 0
          0 0 0 0 0 0
          0 0 0 0 0 0
          0 0 0 0 0 0
          0 0 0 0 0 0
          0 0 0 0 0 0
          0 0 0 0 0 0
          0 0 0 0 0 0
          0 0 0 0 0 0
          0 0 0 0 0 0
          0 0 0 0 0 0
          0 0 0 0 0 0
          0 0 0 0 0 0
          0 0 0 0 0 0
          0 0 0 0 0 0
          0 0 0 0 0 0
          0 0 0 0 0 0
          0 0 0 0 0 0
          0 0 0 0 0 0
          0 0 0 0 0 0
          0 0 0 0 0 0
          0 0 0 0 0 0
          0 0 0 0 0 0
          0 0 0 0 0 0
          0 0 0 0 0 0
          0 0 0 0 0 0
          0 0 0 0 0 0
          0 0 0 0 0 0
          0 0 0 0 0 0
          0 0 0 0 0 0
          0 0 0 0 0 0
          0 0 0 0 0 0
          0 0 0 0 0 0
          0 0 0 0 0 0
          0 0 0 0 0 0
          0 0 0 0 0 0
          0 0 0 0 0 0
          0 0 0 0 0 0
          0 0 0 0 0 0
          0 0 0 0 0 0
          0 0 0 0 0 0
          0 0 0 0 0 0
          0 0 0 0 0 0
          0 0 0 0 0 0
          0 0 0 0 0 0
          0 0 0 0 0 0
          0 0 0 0 0 0
          0 0 0 0 0 0
          0 0 0 0 0 0
          0 0 0 0 0 0
          0 0 0 0 0 0
          0 0 0 0 0 0
          0 0 0 0 0 0
          0 0 0 0 0 0
          0 0 0 0 0 0
          0 0 0 0 0
        </DataArray>
        <DataArray type="Float64" Name="gradient_error" format="ascii" RangeMin="2.9919057585352063e-11" RangeMax="0.0000020719484199510236">
          1.465371353405586e-10 9.855688032207198e-11 3.6027034520829077e-10 2.496482296037878e-10 1.5635216666539484e-10 1.012408862766845e-10
          4.1312200302718763e-10 2.687251511493136e-10 2.0451313083743616e-10 1.1721609421139411e-10 5.468203853178406e-10 3.1382567710401124e-10
          5.057662530358533e-11 1.39026113999285e-10 4.6129605887974146e-11 1.2432829927143966e-10 2.9919057585352063e-11 8.08309688901819e-11
          1.4085334198009392e-9 1.017082151667223e-9 1.6917918851752167e-9 1.119109038213689e-9 2.2386149652234633e-9 1.2971413102146416e-9
          6.903162704732727e-10 6.256308835335071e-10 5.46426191252161e-10 3.5566765520581957e-10 2.170591427430763e-10 5.531135062318911e-9
          4.171829419594883e-9 6.868824650501218e-9 4.635190142463144e-9 9.027540417066135e-9 5.295662901120797e-9 4.618195687458307e-9
          2.7812888186507867e-9 2.812523776870857e-9 2.4015556344250704e-9 1.563785385175458e-9 9.443819498432656e-10 9.3764144604357e-9
          9.616093378865499e-9 2.045231073958165e-8 1.0978489173988137e-8 2.767953114839809e-8 1.0404240241225741e-8 5.606564154428613e-9
          4.864156639538563e-9 1.0093568561261867e-8 1.1016015682216197e-8 8.98412717731365e-9 4.701830482521315e-9 1.181877365611306e-7
          1.905964610740906e-7 1.728650470851586e-7 1.4487281512121853e-7 4.562849035032265e-7 8.807188225840588e-8 2.0750221657944728e-8
          2.4429696411254266e-8 1.0232507191778832e-8 1.1002668448415195e-8 1.0376392241991171e-8 4.738743775406219e-9 0.0000010088409351318254
          1.8547476064759162e-7 0.0000013555681519821334 2.9373859396125207e-7 1.4646758342414347e-7 9.107108072505467e-7 1.7255765212537613e-8
          3.8155964205589563e-8 3.1589285883665535e-8 7.03219811762217e-8 2.021069900853306e-9 5.242420681418334e-8 7.001711315156561e-8
          2.986232692087827e-7 9.188355314132897e-7 2.577386329816408e-7 4.5169114667740763e-7 9.494790530189765e-7 2.768453345083329e-8
          2.565817604076107e-7 6.430947172868286e-8 8.49582070932136e-8 5.085373184258651e-7 2.7042859351241654e-8 1.7867337782532965e-7
          4.6940213723606213e-7 0.0000014254291622375005 9.963208448393037e-8 4.918523620317129e-7 3.4336561406265556e-7 2.0411434656281274e-7
          9.632553904454704e-7 0.0000012822506404610708 9.80964637652976e-7 5.707073761748911e-7 1.548080776542457e-7 5.519259798774869e-7
          2.26610513192551e-7 0.0000015961688751963667 0.0000018003043694276824 0.0000011649733384858637 9.554290280673794e-7 2.519391837676019e-7
          4.6997594676760655e-7 8.391418068928989e-7 6.70002240747775e-7 2.9653349505486094e-7 5.259736544924018e-7 9.484918366422057e-7
          4.6424914313361506e-7 3.236182580574986e-7 5.374711871023933e-7 5.685253750238872e-7 6.006980952757982e-7 9.629656090101328e-7
          6.041389106510895e-7 1.5990064067006615e-7 3.0663299301830744e-7 7.403978806780309e-7 3.359944234873438e-7 4.4448179345464304e-7
          2.409206045222408e-7 4.4537364030775046e-7 5.531716779060844e-7 5.275791186970768e-7 5.834380702794896e-7 4.2610807709147417e-7
          3.709710822588337e-7 4.5455979759119736e-7 3.254847551053694e-9 1.0352988507504488e-8 9.292711453292944e-9 8.2324343990814e-9
          0.0000018342012178755257 0.0000015614790204065685 0.0000010875535584387714 0.0000016839318978498505 0.0000013939190693532783 0.000001535863509929005
          0.000001649818847977918 0.0000012887568229376116 0.0000016803526214443175 0.0000012219994458608882 9.336309668424986e-7 0.0000015122305097772064
          0.0000017813914005790988 0.0000020719484199510236 2.834808991040834e-7 2.792056152800085e-7 2.721439283927293e-7 2.12816404662913e-7
          2.1948676696158344e-7 2.5631182859081094e-7 2.4568753824283094e-7 2.9421222308743683e-7 2.2829970566008133e-7 2.679822004607474e-7
          2.739525988892453e-7 2.925158396238631e-7 2.80453075024373e-7 3.066950668929172e-7 1.5088804980784927e-7 2.1524729360433201e-7
          2.0864963086276154e-7 2.2433039961791187e-7 2.9569949085016065e-7 3.0976068718057376e-7 3.073982451868634e-7 2.3978440376960517e-7
          2.81834211777467e-7 3.2033570800864605e-7 2.52876814631687e-7 2.967789625694752e-7 3.023398265443646e-7 3.207276959201245e-7
          3.3502995237703193e-7 1.6876630659986946e-7 2.3588007250787938e-7 2.491391103296487e-7 3.205943546394709e-7 3.3842851542599416e-7
          3.342266661394039e-7 2.67392586486879e-7 3.1322091953661024e-7 3.313689885103517e-7 3.255105119501868e-7 3.5054134986936856e-7
          3.67356669300207e-7 1.8992204586231957e-7 2.6392788850643425e-7 2.804545753030869e-7 3.527593616552035e-7 1.861498225173199e-8
          1.2134285881045287e-8 2.503690591005233e-8 1.1712884094346806e-7 5.0823080202391743e-8 3.396786829145505e-8 7.289891738998838e-8
          5.653589510358585e-9 1.711265638051836e-8 2.866899383650871e-8 1.045251720185694e-8 1.732896692895064e-8 4.7159328465502736e-8
          1.0416987509648397e-7 4.910559898200477e-9 8.300401787839021e-9 3.3992579983673273e-9 1.6386570466072926e-8 3.7827244822855514e-8
          1.8153716987024603e-9 8.386613972914853e-8 1.910107832640173e-7 1.1690243677477565e-8 2.9373882933778525e-8 7.09298849792022e-8
          5.880031372364052e-8 9.170196147229939e-8 1.9392441764038326e-7 1.8470387935492236e-7 1.4325479251893493e-7 1.5246264878437887e-7
          2.1715935573912067e-8 1.6770456893165869e-7 1.2549222201591266e-7 4.6670742468078836e-8 1.0180570568294748e-7 1.1100087992837451e-7
          8.327987510016661e-8 2.186933279601728e-8 1.7978120168466048e-8 1.509582318332475e-7 1.0801871010906318e-7 1.4086907540914817e-8
          6.507918838487886e-8 2.027531826180452e-7 2.193424158935925e-7 3.0475030718694676e-7 3.223321168441689e-7 1.7134072421382114e-7
          2.6856763374517635e-7 9.003857521384199e-8 1.3869663565607198e-7 2.0475954912730261e-7 4.90117561781538e-8 4.067474317558484e-7
          4.253218177947454e-7 3.6579454327653155e-7 1.87354696098302e-7 1.4368507592224324e-7 2.345048901146338e-7 1.2128742528302372e-7
          2.0632270684086274e-7 1.795389884361411e-8 1.870015527567017e-8 1.1951631968031935e-8 3.2532470430702437e-7 2.913579883987018e-7
          1.9446411707726232e-8 2.0188343073003288e-7 1.9550253384127508e-7 1.9835903604746604e-7 2.5088435663209337e-7 2.5530115207591984e-7
          2.412553365839737e-7 2.3757474045937844e-7 1.9547003552840394e-7 2.6102081412611614e-7 2.458613183681972e-7 1.891216369525173e-7
          2.2720952109202753e-7 2.242651242866635e-7 2.3070182261027823e-7 2.6261785453315907e-7 2.574809035469685e-7 2.817140449452182e-7
          2.7557276351517136e-7 2.6863867809786796e-7 2.894455801747148e-7 2.2828783581953029e-7 2.4585671783551617e-7 2.454200885059218e-7
          2.495123661026292e-7 3.0081023535727734e-7 2.9366462348337427e-7 3.102524822515616e-7 2.634255998515021e-7 2.0200427665101426e-7
          1.9543902318867724e-7 2.6699909019578206e-7 2.506892024503494e-7 1.9496020272208496e-7 2.5556166220708567e-7 1.8887376972634024e-7
          2.3437931470491674e-7 2.3803944617491398e-7 2.750127026605083e-7 2.9767047756012603e-7 2.8156614872867603e-7 3.061935262893033e-7
          2.3354350317608334e-7 2.533075079678564e-7 2.5689999781266005e-7 3.203282524597438e-7 3.3082090384993063e-7 2.7307151275962955e-7
          2.5613293304177233e-7 2.543918376105973e-7 2.3463029799945472e-7 2.1971368589009385e-7 2.1469920455440785e-7 2.3330739499756572e-7
          2.2660983133095347e-7 2.5265074217942225e-7 2.5191558544072355e-7 2.3350597677181305e-7 1.732654760670433e-7 2.1222295238453408e-7
          2.1858936466245216e-7 2.5118042870202484e-7 2.1950972867791112e-7 2.0897343317564632e-7 2.1676631582461646e-7 2.4912610764318337e-7
          2.491930213853802e-7 2.3500415007918675e-7 2.338736048785019e-7 1.9843713767338157e-7 2.2081527877299328e-7 2.1862110211382043e-7
          2.5140947110648976e-7 2.475473200353649e-7 2.716115030137653e-7 2.700526218954727e-7 2.3082180845711053e-7 2.513282169998429e-7
          2.558633623633242e-7 2.9181353492104084e-7 2.9255792375558055e-7 2.7183462554257523e-7 1.5843298008458925e-8 1.3045801363584693e-8
          9.695825816792864e-9 5.779828661362881e-8 7.686505004519566e-8 5.995680533551978e-8 5.1156106998262745e-8 2.036931603530074e-8
          1.0876348116506184e-7 7.479362989534562e-8 1.0248304718710463e-8 4.304856062584388e-8 4.451392738289669e-8 4.082377862562943e-8
          1.3752378233408876e-7 2.1592726507445463e-7 2.3451427846546674e-7 2.1793462280301895e-7 4.409231501051553e-8 2.752011388733187e-8
          1.368708484591746e-7 8.694133592925194e-8 1.0947912764148214e-8 3.701182339932932e-8 1.0910713927974587e-7 2.558200225899684e-7
          8.73443002841871e-7 6.271048462266955e-7 2.781496033621188e-7 2.5802617574413913e-7 2.2935549505684663e-7 0.000001029235769278706
          1.9390921521924517e-7 9.186555380588928e-7 6.024720616847137e-7 2.1966742770071586e-7 0.0000011654572901120976 0.0000010968969056703136
          2.2014916374635734e-7 2.0722352179557603e-8 1.9579908638494092e-8 1.1162655732992847e-7 7.495033680531605e-8 5.414359739420464e-9
          3.610771722353963e-8 1.7737688647532127e-8 2.0253076248029932e-7 1.3032076497213803e-7 6.68010747076588e-8 1.7638066120897664e-7
          1.4161383095656374e-7 1.3039829742285623e-7 2.5058238747642585e-7 2.3418157718534756e-7 1.9527159102477304e-7 2.1081078032660954e-7
          1.483866296840196e-7 2.257738041030805e-7 1.8727735712342947e-7 1.0684700070415085e-7 1.5636160486419855e-7 1.7103917317679327e-7
          1.4878091014377842e-7 9.854122141477397e-7 8.512470974733958e-7 8.388543766069738e-7 5.983390715261768e-7 0.0000014694989769347692
          0.0000015726394861880649 0.0000015521089384453887 0.0000014587881507742323 9.968438122561477e-7 9.79525483592507e-7 0.0000014664370372423688
          0.000001650653033036968 0.0000015310908115648798 0.0000011991171217351533 2.7698593545798443e-7 2.9271073115923387e-7 3.764912111402646e-7
          3.9179490300111564e-7 2.686868988059406e-7 3.682890713102865e-7 1.9311861793554226e-7 2.9087318847094633e-7 2.7261616343091215e-7
          3.0199140124987956e-7 4.7599648682254484e-7 4.908790748429974e-7 4.678912438146323e-7 3.886277590063504e-7 1.113246965903151e-8
          9.707702528882236e-9 4.811559132894488e-8 4.6364018624443425e-8 8.282935398732962e-9 4.4612445919941966e-8 1.448968169338797e-8
          3.072319866800151e-8 2.151755142799659e-8 4.695671564261505e-8 1.7107819478284408e-8 4.270599768126102e-8 3.4262374715948113e-9
          1.2700775549133946e-8 6.830417588423764e-8 2.1975313626673078e-8 1.363812154982609e-7 1.310201708371956e-7 3.2526312437043974e-7
          2.8388104882448404e-7 1.2652577172699577e-7 3.1881073879199297e-7 2.771048316678714e-7 1.2565912617613032e-7 2.4249897327852835e-7
          2.3539892454374985e-7 1.3107885125513976e-7 1.228104523980474e-7 3.1114297764633825e-7 2.6926102072748993e-7 1.202034704321478e-7
          3.0213797254084793e-7 2.6024939200652346e-7 1.1454205354095504e-7 2.2737906380864153e-7 2.1836081147219904e-7 8.509315597003048e-7
          7.66733284162653e-7 7.82376874962538e-7 6.190929489144911e-7 0.0000010754710924264193 0.0000011066259417121348 0.0000011410817588548173
          0.000001165363184296416 8.773186317377415e-7 8.991834501986147e-7 9.402861694897657e-7 0.000001095496904155896 0.000001166267932248655
          9.961058771419103e-7 3.580212111647517e-7 4.4377992065240796e-7 3.5270347432364386e-7 4.4110662589352097e-7 2.133102799146688e-7
          2.658322946705135e-7 2.6130359974713904e-7 5.295386301400643e-7 5.29509777463398e-7 3.183543094263582e-7 3.4625173164504243e-7
          4.3715849260438274e-7 3.385511709620036e-7 4.3176775133286923e-7 2.0029463379661355e-7 2.5746051273113256e-7 2.5481321200652363e-7
          5.28065253563723e-7 5.249843317037347e-7 3.146263916656516e-7 1.3252207713413925e-7 1.1908956150124605e-7 2.9165659205883187e-7
          2.4996372233898984e-7 1.1998427693902419e-7 2.795917320182684e-7 2.3831665145942192e-7 1.0565704586835285e-7 2.0827085261914778e-7
          1.9704157090057533e-7 8.960609088844756e-7 7.975434634864069e-7 8.120820876503525e-7 6.224982510164681e-7 1.4536467967563412e-7
          1.2348961864777138e-7 2.6586848469270714e-7 2.2525192662489428e-7 1.0161455761990863e-7 1.8463536855708147e-7 9.410794288317496e-7
          8.258732596069699e-7 6.166094315053704e-7 0.0000012124668569070267 0.0000012290989912173504 0.0000012903728323897958 0.000001298580314918854
          9.206043424239273e-7 9.413102642947573e-7 0.0000010836030030286268 0.000001243948938638621 0.0000013296454805168224 0.0000010629036380081236
          0.000001375730536847083 0.0000013747605308153896 9.610296765734786e-7 0.0000012556745057404472 0.0000014247887770188568 0.0000011309732956360286
          3.294743239822411e-7 4.2473042843194645e-7 3.1889347132455344e-7 4.158530931047747e-7 1.895059310917542e-7 2.5398329754371293e-7
          2.5587345506794704e-7 5.199865328816518e-7 5.128127148849961e-7 3.184606639956717e-7 3.0667442625936185e-7 4.049180387351315e-7
          1.8485473876699257e-7 2.615672491070017e-7 5.031616512109011e-7 3.382797594470108e-7 2.331217643038045e-10 1.3626216070607965e-10
          6.018528738733e-10 3.580733638307418e-10 3.940255710835481e-11 1.1429385378818372e-10 2.426513826109909e-9 1.4867453661874095e-9
          5.469769062649102e-10 9.65141059714316e-9 6.124480971609496e-9 2.597551346075833e-9 1.540127667132132e-8 9.46671641575924e-9
          7.888705566280155e-9 2.328752721489365e-7 1.0632896019143631e-8 2.7735321596173645e-7 6.58465500429669e-7 6.454326035782872e-7
          2.9781496770563076e-7 1.1025626411050348e-8 4.3750114209022117e-8 4.341719162846113e-8 4.308426904790014e-8 1.0633312152051736e-7
          1.169557723240199e-8 1.2028989374785616e-8 3.701135447673877e-8 5.428460828495477e-8 7.187743846105012e-9 2.996873357523725e-8
          2.2614712932632824e-7 6.232713172107555e-8 9.654022719512392e-8 5.274972330436949e-8 1.3605412700331877e-7 3.3062596965250837e-7
          2.896905853934057e-7 2.48755201134303e-7 7.849545142912797e-7 8.066113914985355e-7 7.345312033994825e-7 7.182092631670988e-7
          8.286270790937609e-7 7.507418725051114e-7 6.092113910052312e-7 0.0000010151209887636565 0.0000010523308373546273 8.552251689927503e-7
          8.774937313631437e-7 0.0000010308618213077784 9.636677879392502e-7 3.6231273667822097e-7 8.110752460294892e-7 8.33093796914798e-7
          4.4533786568980815e-7 2.707012514285779e-7 9.013123038450307e-7 9.320399175122125e-7 5.283629947013954e-7
        </DataArray>
        <DataArray type="Float64" Name="gradient_matprop_error" format="ascii" RangeMin="0" RangeMax="0">
          0 0 0 0 0 0
          0 0 0 0 0 0
          0 0 0 0 0 0
          0 0 0 0 0 0
          0 0 0 0 0 0
          0 0 0 0 0 0
          0 0 0 0 0 0
          0 0 0 0 0 0
          0 0 0 0 0 0
          0 0 0 0 0 0
          0 0 0 0 0 0
          0 0 0 0 0 0
          0 0 0 0 0 0
          0 0 0 0 0 0
          0 0 0 0 0 0
          0 0 0 0 0 0
          0 0 0 0 0 0
          0 0 0 0 0 0
          0 0 0 0 0 0
          0 0 0 0 0 0
          0 0 0 0 0 0
          0 0 0 0 0 0
          0 0 0 0 0 0
          0 0 0 0 0 0
          0 0 0 0 0 0
          0 0 0 0 0 0
          0 0 0 0 0 0
          0 0 0 0 0 0
          0 0 0 0 0 0
          0 0 0 0 0 0
          0 0 0 0 0 0
          0 0 0 0 0 0
          0 0 0 0 0 0
          0 0 0 0 0 0
          0 0 0 0 0 0
          0 0 0 0 0 0
          0 0 0 0 0 0
          0 0 0 0 0 0
          0 0 0 0 0 0
          0 0 0 0 0 0
          0 0 0 0 0 0
          0 0 0 0 0 0
          0 0 0 0 0 0
          0 0 0 0 0 0
          0 0 0 0 0 0
          0 0 0 0 0 0
          0 0 0 0 0 0
          0 0 0 0 0 0
          0 0 0 0 0 0
          0 0 0 0 0 0
          0 0 0 0 0 0
          0 0 0 0 0 0
          0 0 0 0 0 0
          0 0 0 0 0 0
          0 0 0 0 0 0
          0 0 0 0 0 0
          0 0 0 0 0 0
          0 0 0 0 0 0
          0 0 0 0 0 0
          0 0 0 0 0 0
          0 0 0 0 0 0
          0 0 0 0 0 0
          0 0 0 0 0 0
          0 0 0 0 0 0
          0 0 0 0 0 0
          0 0 0 0 0 0
          0 0 0 0 0 0
          0 0 0 0 0 0
          0 0 0 0 0 0
          0 0 0 0 0 0
          0 0 0 0 0 0
          0 0 0 0 0 0
          0 0 0 0 0 0
          0 0 0 0 0 0
          0 0 0 0 0 0
          0 0 0 0 0 0
          0 0 0 0 0 0
          0 0 0 0 0 0
          0 0 0 0 0 0
          0 0 0 0 0 0
          0 0 0 0 0 0
          0 0 0 0 0 0
          0 0 0 0 0 0
          0 0 0 0 0 0
          0 0 0 0 0 0
          0 0 0 0 0 0
          0 0 0 0 0 0
          0 0 0 0 0 0
          0 0 0 0 0 0
          0 0 0 0 0 0
          0 0 0 0 0 0
          0 0 0 0 0 0
          0 0 0 0 0 0
          0 0 0 0 0 0
          0 0 0 0 0 0
          0 0 0 0 0 0
          0 0 0 0 0 0
          0 0 0 0 0 0
          0 0 0 0 0 0
          0 0 0 0 0 0
          0 0 0 0 0 0
          0 0 0 0 0 0
          0 0 0 0 0 0
          0 0 0 0 0
        </DataArray>
        <DataArray type="Float64" Name="initial_marker" format="ascii" RangeMin="0" RangeMax="2">
          0 0 0 0 0 0
          0 0 0 0 0 0
          0 0 0 0 0 0
          0 0 0 0 0 0
          0 0 0 0 0 0
          0 0 0 0 0 0
          0 0 0 0 0 0
          0 0 0 0 0 0
          0 0 0 0 0 0
          0 0 0 0 0 0
          0 0 0 0 0 0
          0 0 0 1 0 0
          0 0 0 0 0 0
          0 0 0 0 0 0
          0 0 0 0 0 2
          0 0 0 0 0 0
          0 0 0 0 0 0
          0 0 0 0 0 0
          0 0 0 0.5 0 0
          0 1 0 0 0 0
          0 2 0 0 1 0
          0 0 0.25 0 0 0
          1 0 0 0 0 0
          0 0 0 0 0 0
          0 0 0 0 0 0
          0 0 0 0 0 0.5
          1 0.5 0.25 0.25 1.5 0.75
          0 0 0 0 2 1
          0.5 1 0 1 0.5 2
          1.25 0.5 2 1.5 0 0.25
          0.5 2 1.5 2 0.5 1
          0.5 2 1.5 1.75 0 0.5
          0.75 2 2 2 1 0
          0 0 0 0 0 0
          0 0 0 0 0 0
          0 0 0 0 0 0
          0 0 0 0 0 0
          0 0 0 0 0 0
          0 0 0 0 0 0
          0 0 0 0 0 0
          0 0 0 0 0 0
          0 0 0 0 0 0
          0 0 0 0 0 0
          0 0 0 0 0 0
          0 0 0 0 0 0
          0 0 0 0 0 0
          0 0 0 0 0 0
          0 0 0 0 0 0
          0 0 0 0 0 0
          0 0 0 0 0 0
          0 0 0 0 0 0
          0 0 0 0 0 0
          0 0 0 0 0 0
          0 0 0 0 0 0
          0 0 0 0 0 0
          0 0 0 0 0 0
          0 0 0 0 0 0
          0 0 0 0 0 0
          0 0 0 0 0 0
          0 0 0 0 0 0
          0 0 0 0 0 0
          0 0 0 0 0 0
          0 0 0 0 0 0
          0 0 0 0 0 0
          0 0 0 0 0 0
          0 0 0 0 0 0
          0 0 0 0 0 0
          0 0 0 0 0 0
          0 0 0 0 0 0
          0 0 0 0 0 0
          0 0 0 0 0 0
          0 0 0 0 0 0
          0 0 0 0 0 0
          0 0 0 0 0 0
          0 0 0 0 0 0
          0 0 0 0 0 0
          0 0 0 0 0 0
          0 0 0 0 0 0
          0 0 0 0 0 0
          0 0 0 0 0 0
          0 0 0 0 0 0
          0 0 0 0 0 0
          0 0 0 0 0 0
          0 0 0 0 0 0
          0 0 0 0 0 0
          0 0 0 0 0 0
          0 0 0 0 0 0
          0 0 0 0 0 0
          0 0 0 0 0 0
          0 0 0 0 0 0
          0 0 0 0 0 0
          0 0 0 0 0 0
          0 0 0 0 0 0
          0 0 0 0 0 0
          0 0 0 0 0 0
          0 0 0 0 0 0
          0 0 0 0 0 0
          0 0 0 0 0 0
          0 0 0 0 0 0
          0 0 0 0 0 0
          0 0 0 0 0 0
          0 0 0 0 0 0
          0 0 0 0 0 0
          0 0 0 0 0
        </DataArray>
        <DataArray type="Float64" Name="markers_norefine" format="ascii" RangeMin="0" RangeMax="0">
          0 0 0 0 0 0
          0 0 0 0 0 0
          0 0 0 0 0 0
          0 0 0 0 0 0
          0 0 0 0 0 0
          0 0 0 0 0 0
          0 0 0 0 0 0
          0 0 0 0 0 0
          0 0 0 0 0 0
          0 0 0 0 0 0
          0 0 0 0 0 0
          0 0 0 0 0 0
          0 0 0 0 0 0
          0 0 0 0 0 0
          0 0 0 0 0 0
          0 0 0 0 0 0
          0 0 0 0 0 0
          0 0 0 0 0 0
          0 0 0 0 0 0
          0 0 0 0 0 0
          0 0 0 0 0 0
          0 0 0 0 0 0
          0 0 0 0 0 0
          0 0 0 0 0 0
          0 0 0 0 0 0
          0 0 0 0 0 0
          0 0 0 0 0 0
          0 0 0 0 0 0
          0 0 0 0 0 0
          0 0 0 0 0 0
          0 0 0 0 0 0
          0 0 0 0 0 0
          0 0 0 0 0 0
          0 0 0 0 0 0
          0 0 0 0 0 0
          0 0 0 0 0 0
          0 0 0 0 0 0
          0 0 0 0 0 0
          0 0 0 0 0 0
          0 0 0 0 0 0
          0 0 0 0 0 0
          0 0 0 0 0 0
          0 0 0 0 0 0
          0 0 0 0 0 0
          0 0 0 0 0 0
          0 0 0 0 0 0
          0 0 0 0 0 0
          0 0 0 0 0 0
          0 0 0 0 0 0
          0 0 0 0 0 0
          0 0 0 0 0 0
          0 0 0 0 0 0
          0 0 0 0 0 0
          0 0 0 0 0 0
          0 0 0 0 0 0
          0 0 0 0 0 0
          0 0 0 0 0 0
          0 0 0 0 0 0
          0 0 0 0 0 0
          0 0 0 0 0 0
          0 0 0 0 0 0
          0 0 0 0 0 0
          0 0 0 0 0 0
          0 0 0 0 0 0
          0 0 0 0 0 0
          0 0 0 0 0 0
          0 0 0 0 0 0
          0 0 0 0 0 0
          0 0 0 0 0 0
          0 0 0 0 0 0
          0 0 0 0 0 0
          0 0 0 0 0 0
          0 0 0 0 0 0
          0 0 0 0 0 0
          0 0 0 0 0 0
          0 0 0 0 0 0
          0 0 0 0 0 0
          0 0 0 0 0 0
          0 0 0 0 0 0
          0 0 0 0 0 0
          0 0 0 0 0 0
          0 0 0 0 0 0
          0 0 0 0 0 0
          0 0 0 0 0 0
          0 0 0 0 0 0
          0 0 0 0 0 0
          0 0 0 0 0 0
          0 0 0 0 0 0
          0 0 0 0 0 0
          0 0 0 0 0 0
          0 0 0 0 0 0
          0 0 0 0 0 0
          0 0 0 0 0 0
          0 0 0 0 0 0
          0 0 0 0 0 0
          0 0 0 0 0 0
          0 0 0 0 0 0
          0 0 0 0 0 0
          0 0 0 0 0 0
          0 0 0 0 0 0
          0 0 0 0 0 0
          0 0 0 0 0 0
          0 0 0 0 0 0
          0 0 0 0 0
        </DataArray>
        <DataArray type="Float64" Name="markers_mustrefine" format="ascii" RangeMin="0" RangeMax="2">
          0 0 0 0 0 0
          0 0 0 0 0 0
          0 0 0 0 0 0
          0 0 0 0 0 0
          0 0 0 0 0 0
          0 0 0 0 0 0
          0 0 0 0 0 0
          0 0 0 0 0 0
          0 0 0 0 0 0
          0 0 0 0 0 0
          0 0 0 0 0 0
          0 0 0 1 0 0
          0 0 0 0 0 0
          0 0 0 0 0 0
          0 0 0 0 0 2
          0 0 0 0 0 0
          0 0 0 0 0 0
          0 0 0 0 0 0
          0 0 0 0.5 0 0
          0 1 0 0 0 0
          0 2 0 0 1 0
          0 0 0.25 0 0 0
          1 0 0 0 0 0
          0 0 0 0 0 0
          0 0 0 0 0 0
          0 0 0 0 0 0.5
          1 0.5 0.25 0.25 1.5 0.75
          0 0 0 0 2 1
          0.5 1 0 1 0.5 2
          1.25 0.5 2 1.5 0 0.25
          0.5 2 1.5 2 0.5 1
          0.5 2 1.5 1.75 0 0.5
          0.75 2 2 2 1 0
          0 0 0 0 0 0
          0 0 0 0 0 0
          0 0 0 0 0 0
          0 0 0 0 0 0
          0 0 0 0 0 0
          0 0 0 0 0 0
          0 0 0 0 0 0
          0 0 0 0 0 0
          0 0 0 0 0 0
          0 0 0 0 0 0
          0 0 0 0 0 0
          0 0 0 0 0 0
          0 0 0 0 0 0
          0 0 0 0 0 0
          0 0 0 0 0 0
          0 0 0 0 0 0
          0 0 0 0 0 0
          0 0 0 0 0 0