<?xml version="1.0"?>
<VTKFile type="UnstructuredGrid" version="0.1" byte_order="LittleEndian" header_type="UInt32" compressor="vtkZLibDataCompressor">
  <UnstructuredGrid>
    <Piece NumberOfPoints="1112" NumberOfCells="776">
      <PointData>
        <DataArray type="Int32" Name="libmesh_node_id" format="ascii" RangeMin="1383" RangeMax="11545">
          1383 1391 1642 1643 1644 1650
          1652 1653 1654 1655 1809 1810
          2472 2473 2474 2475 2476 2477
          2478 2479 2480 2481 2482 2483
          2484 2506 2507 2508 2509 2511
          2512 2513 2514 2525 2533 2534
          2535 2536 2537 2540 2541 2543
          2544 2546 2561 2674 2675 2818
          2822 2823 2824 2825 2826 2827
          2828 2829 2830 2831 2843 3912
          3913 3914 3917 3920 3924 3925
          3930 4012 4013 4015 4018 4020
          4021 4022 4023 4024 4025 4026
          4027 4028 4029 4030 4031 4032
          4033 4035 4039 4041 4042 4043
          4044 4045 4046 4047 4048 4049
          4050 4053 4054 4056 4059 4061
          4062 4063 4064 4065 4066 4067
          4068 4069 4070 4072 4076 4078
          4079 4080 4081 4082 4083 4084
          4160 4161 4162 4163 4168 4198
          4202 4218 4219 4220 4221 4222
          4223 4224 4225 4226 4227 4228
          4229 4230 4231 4232 4233 4234
          4235 4236 4237 4238 4239 4240
          4241 4242 4243 4245 4246 4247
          4248 4249 4250 4251 4252 4253
          4254 4255 4256 4257 4258 4259
          4260 4261 4263 4265 4266 4267
          4268 4269 4270 4271 4272 4273
          4274 4275 4276 4277 4280 4282
          4283 4285 4286 4287 4288 4289
          4290 4291 4292 4293 4295 4297
          4299 4365 4366 4367 4368 4372
          4373 4375 4376 4382 4395 4396
          4399 4400 4402 4406 4744 4745
          4746 4747 4748 4749 4750 4751
          4752 4753 4754 4755 4756 4757
          4758 4759 4760 4875 4877 4888
          4889 4890 4891 4892 4893 4894
          4895 4896 4897 4898 4899 4900
          4901 4902 4903 4904 4905 4906
          4907 4908 4909 4910 4911 4912
          4913 4914 8677 9227 9228 9230
          9233 9244 9245 9248 9250 9264
          9265 9267 9270 9280 9282 9284
          9286 9287 9288 9289 9290 9291
          9292 9293 9294 9295 9296 9297
          9298 9299 9300 9301 9302 9303
          9304 9305 9306 9307 9308 9309
          9310 9311 9312 9313 9314 9315
          9316 9317 9318 9319 9320 9321
          9322 9323 9324 9325 9326 9327
          9328 9329 9330 9331 9332 9333
          9334 9335 9336 9337 9338 9339
          9340 9341 9342 9343 9344 9345
          9346 9347 9348 9349 9350 9351
          9352 9353 9354 9355 9356 9357
          9358 9359 9360 9361 9362 9363
          9364 9365 9366 9367 9377 9378
          9381 9383 9413 9415 9417 9433
          9434 9435 9436 9437 9438 9439
          9440 9441 9442 9443 9444 9445
          9446 9447 9448 9449 9450 9451
          9452 9455 9456 9459 9461 9463
          9464 9465 9466 9467 9468 9469
          9470 9471 9472 9473 9474 9475
          9476 9477 9478 9479 9480 9481
          9482 9483 9484 9485 9486 9488
          9490 9492 9494 9495 9496 9497
          9498 9499 9500 9513 9514 9516
          9519 9529 9531 9533 9547 9548
          9550 9553 9563 9565 9567 9569
          9570 9571 9572 9573 9574 9575
          9576 9577 9578 9579 9580 9581
          9582 9583 9584 9585 9586 9587
          9588 9589 9590 9591 9592 9593
          9594 9595 9596 9597 9598 9599
          9600 9601 9602 9603 9604 9605
          9606 9607 9608 9609 9610 9611
          9612 9613 9614 9615 9616 9617
          9618 9619 9620 9621 9622 9623
          9624 9625 9626 9627 9628 9629
          9630 9631 9632 9633 9634 9635
          9636 9645 9647 9649 9673 9675
          9677 9693 9694 9695 9696 9697
          9698 9699 9700 9701 9702 9703
          9704 9705 9706 9708 9710 9712
          9714 9715 9716 9717 9718 9719
          9720 9721 9722 9723 9724 9725
          9726 9727 9728 9729 9730 9731
          9732 9733 9734 9736 9738 9740
          9742 9743 9744 9745 9746 9747
          9748 10288 10289 10292 10294 10296
          10297 10298 10299 10300 10301 10302
          10303 10304 10305 10317 10319 10321
          10323 10324 10325 10326 10327 10328
          10329 10481 10485 10487 10488 10489
          10490 10491 10492 10493 10509 10513
          10515 10516 10517 10518 10519 10520
          10521 10651 10652 10653 10654 10655
          10656 10657 10658 10659 10660 10661
          10662 10663 10664 10665 10666 10667
          10668 10669 10670 10671 10672 10673
          10674 10675 10676 10677 10678 10679
          10680 10681 10682 10683 10684 10685
          10686 10687 10688 10689 10690 10691
          10692 10693 10694 10695 10696 10697
          10698 10699 10700 10701 10702 10703
          10704 10705 10706 10707 10708 10709
          10710 10711 10712 10713 10714 10715
          10716 10717 10718 10719 10720 10721
          10722 10723 10724 10725 10726 10727
          10728 10729 10730 10731 10732 10733
          10734 10735 10736 10737 10738 10739
          10740 10741 10742 10743 10744 10745
          10746 10747 10748 10749 10750 10751
          10752 10753 10754 10755 10756 10757
          10758 10759 10760 10761 10762 10763
          10764 10765 10766 10767 10768 10769
          10770 10774 10775 10777 10778 10780
          10781 10782 10783 10784 10785 10786
          10787 10788 10789 10792 10793 10795
          10797 10798 10799 10800 10801 10802
          10803 10804 10805 10806 10807 10808
          10809 10810 10811 10812 10813 10814
          10815 10816 10817 10818 10819 10820
          10821 10822 10823 10824 10825 10826
          10827 10828 10829 10830 10831 10832
          10833 10834 10835 10836 10837 10838
          10839 10840 10841 10842 10843 10844
          10845 10846 10847 10848 10849 10850
          10851 10852 10853 10854 10855 10856
          10857 10858 10859 10860 10861 10862
          10863 10864 10865 10866 10867 10868
          10869 10870 10873 10874 10876 10878
          10879 10880 10881 10882 10883 10884
          10885 10886 10887 10888 10899 10900
          10901 10902 10903 10904 10905 10906
          10907 10908 10909 10910 10911 10912
          10913 10914 10915 10916 10917 10918
          10919 10920 10921 10922 10923 10924
          10925 10926 10927 10928 10929 10930
          10931 10932 10933 10934 10935 10936
          10937 10938 10939 10940 10941 10942
          10943 10944 10945 10946 10947 10948
          10949 10950 10951 10952 10953 10954
          10955 10956 10957 10958 10959 10960
          10961 10962 10963 10964 10965 10966
          10967 10968 10969 10970 10971 10972
          10973 10974 10975 10976 10977 10978
          10981 10983 10984 10986 10987 10988
          10989 10990 10991 10992 10993 10994
          10996 10998 11000 11001 11002 11003
          11004 11005 11006 11007 11008 11009
          11010 11011 11012 11015 11017 11018
          11020 11021 11022 11023 11024 11025
          11026 11027 11028 11030 11032 11034
          11035 11036 11037 11038 11039 11040
          11041 11042 11043 11044 11045 11046
          11047 11048 11049 11050 11051 11052
          11053 11054 11055 11056 11057 11058
          11059 11060 11061 11062 11063 11064
          11065 11066 11067 11068 11069 11070
          11071 11072 11073 11074 11075 11076
          11077 11078 11079 11080 11081 11082
          11083 11084 11085 11086 11087 11088
          11089 11090 11091 11092 11093 11094
          11095 11096 11097 11098 11100 11102
          11104 11105 11106 11107 11108 11109
          11110 11111 11119 11120 11121 11122
          11123 11124 11125 11126 11128 11130
          11132 11133 11134 11135 11136 11137
          11138 11139 11379 11380 11381 11382
          11383 11384 11385 11386 11387 11388
          11389 11390 11391 11392 11393 11394
          11395 11396 11397 11398 11419 11420
          11421 11422 11423 11424 11425 11426
          11427 11428 11449 11450 11451 11452
          11453 11454 11455 11456 11457 11458
          11459 11460 11461 11462 11477 11478
          11479 11480 11481 11482 11483 11484
          11485 11486 11487 11488 11489 11490
          11505 11506 11507 11508 11509 11510
          11511 11539 11540 11541 11542 11543
          11544 11545
        </DataArray>
        <DataArray type="Float64" Name="bounds" format="ascii" RangeMin="0" RangeMax="0">
          0 0 0 0 0 0
          0 0 0 0 0 0
          0 0 0 0 0 0
          0 0 0 0 0 0
          0 0 0 0 0 0
          0 0 0 0 0 0
          0 0 0 0 0 0
          0 0 0 0 0 0
          0 0 0 0 0 0
          0 0 0 0 0 0
          0 0 0 0 0 0
          0 0 0 0 0 0
          0 0 0 0 0 0
          0 0 0 0 0 0
          0 0 0 0 0 0
          0 0 0 0 0 0
          0 0 0 0 0 0
          0 0 0 0 0 0
          0 0 0 0 0 0
          0 0 0 0 0 0
          0 0 0 0 0 0
          0 0 0 0 0 0
          0 0 0 0 0 0
          0 0 0 0 0 0
          0 0 0 0 0 0
          0 0 0 0 0 0
          0 0 0 0 0 0
          0 0 0 0 0 0
          0 0 0 0 0 0
          0 0 0 0 0 0
          0 0 0 0 0 0
          0 0 0 0 0 0
          0 0 0 0 0 0
          0 0 0 0 0 0
          0 0 0 0 0 0
          0 0 0 0 0 0
          0 0 0 0 0 0
          0 0 0 0 0 0
          0 0 0 0 0 0
          0 0 0 0 0 0
          0 0 0 0 0 0
          0 0 0 0 0 0
          0 0 0 0 0 0
          0 0 0 0 0 0
          0 0 0 0 0 0
          0 0 0 0 0 0
          0 0 0 0 0 0
          0 0 0 0 0 0
          0 0 0 0 0 0
          0 0 0 0 0 0
          0 0 0 0 0 0
          0 0 0 0 0 0
          0 0 0 0 0 0
          0 0 0 0 0 0
          0 0 0 0 0 0
          0 0 0 0 0 0
          0 0 0 0 0 0
          0 0 0 0 0 0
          0 0 0 0 0 0
          0 0 0 0 0 0
          0 0 0 0 0 0
          0 0 0 0 0 0
          0 0 0 0 0 0
          0 0 0 0 0 0
          0 0 0 0 0 0
          0 0 0 0 0 0
          0 0 0 0 0 0
          0 0 0 0 0 0
          0 0 0 0 0 0
          0 0 0 0 0 0
          0 0 0 0 0 0
          0 0 0 0 0 0
          0 0 0 0 0 0
          0 0 0 0 0 0
          0 0 0 0 0 0
          0 0 0 0 0 0
          0 0 0 0 0 0
          0 0 0 0 0 0
          0 0 0 0 0 0
          0 0 0 0 0 0
          0 0 0 0 0 0
          0 0 0 0 0 0
          0 0 0 0 0 0
          0 0 0 0 0 0
          0 0 0 0 0 0
          0 0 0 0 0 0
          0 0 0 0 0 0
          0 0 0 0 0 0
          0 0 0 0 0 0
          0 0 0 0 0 0
          0 0 0 0 0 0
          0 0 0 0 0 0
          0 0 0 0 0 0
          0 0 0 0 0 0
          0 0 0 0 0 0
          0 0 0 0 0 0
          0 0 0 0 0 0
          0 0 0 0 0 0
          0 0 0 0 0 0
          0 0 0 0 0 0
          0 0 0 0 0 0
          0 0 0 0 0 0
          0 0 0 0 0 0
          0 0 0 0 0 0
          0 0 0 0 0 0
          0 0 0 0 0 0
          0 0 0 0 0 0
          0 0 0 0 0 0
          0 0 0 0 0 0
          0 0 0 0 0 0
          0 0 0 0 0 0
          0 0 0 0 0 0
          0 0 0 0 0 0
          0 0 0 0 0 0
          0 0 0 0 0 0
          0 0 0 0 0 0
          0 0 0 0 0 0
          0 0 0 0 0 0
          0 0 0 0 0 0
          0 0 0 0 0 0
          0 0 0 0 0 0
          0 0 0 0 0 0
          0 0 0 0 0 0
          0 0 0 0 0 0
          0 0 0 0 0 0
          0 0 0 0 0 0
          0 0 0 0 0 0
          0 0 0 0 0 0
          0 0 0 0 0 0
          0 0 0 0 0 0
          0 0 0 0 0 0
          0 0 0 0 0 0
          0 0 0 0 0 0
          0 0 0 0 0 0
          0 0 0 0 0 0
          0 0 0 0 0 0
          0 0 0 0 0 0
          0 0 0 0 0 0
          0 0 0 0 0 0
          0 0 0 0 0 0
          0 0 0 0 0 0
          0 0 0 0 0 0
          0 0 0 0 0 0
          0 0 0 0 0 0
          0 0 0 0 0 0
          0 0 0 0 0 0
          0 0 0 0 0 0
          0 0 0 0 0 0
          0 0 0 0 0 0
          0 0 0 0 0 0
          0 0 0 0 0 0
          0 0 0 0 0 0
          0 0 0 0 0 0
          0 0 0 0 0 0
          0 0 0 0 0 0
          0 0 0 0 0 0
          0 0 0 0 0 0
          0 0 0 0 0 0
          0 0 0 0 0 0
          0 0 0 0 0 0
          0 0 0 0 0 0
          0 0 0 0 0 0
          0 0 0 0 0 0
          0 0 0 0 0 0
          0 0 0 0 0 0
          0 0 0 0 0 0
          0 0 0 0 0 0
          0 0 0 0 0 0
          0 0 0 0 0 0
          0 0 0 0 0 0
          0 0 0 0 0 0
          0 0 0 0 0 0
          0 0 0 0 0 0
          0 0 0 0 0 0
          0 0 0 0 0 0
          0 0 0 0 0 0
          0 0 0 0 0 0
          0 0 0 0 0 0
          0 0 0 0 0 0
          0 0 0 0 0 0
          0 0 0 0 0 0
          0 0 0 0 0 0
          0 0 0 0 0 0
          0 0 0 0 0 0
          0 0 0 0 0 0
          0 0
        </DataArray>
        <DataArray type="Float64" Name="gradient_error" format="ascii" RangeMin="3.278042966008677e-14" RangeMax="3.468568299224876e-10">
          1.7828779428821555e-12 8.452111644826987e-11 1.4407985321743346e-12 1.2698187695984064e-12 8.314949470847063e-13 2.7641332055055423e-11
          2.1178020166456991e-13 1.6920364505049045e-13 2.0162133840707697e-13 1.8406693342334258e-13 2.6140011707047106e-12 2.288083799982365e-12
          2.265788624589082e-12 2.038145409185672e-12 1.7163498194266468e-12 1.4745233071503083e-12 5.497906512667661e-13 4.639230656242952e-13
          4.202245916590236e-13 1.48410140580601e-12 1.0952937658470694e-12 4.3362686958884813e-13 3.4280702742835046e-12 4.621283243969018e-12
          1.0167954663410728e-12 9.985941964541572e-11 7.190267551942463e-11 2.2469475953407416e-11 1.6106682666018507e-11 6.017664498368601e-12
          3.218985264597595e-10 2.68564057386664e-10 6.717179802272141e-11 1.140400606919763e-12 2.2740665801187585e-13 3.098395762689481e-13
          4.076521129405379e-12 2.9141498779998476e-12 2.195657129108451e-13 6.461285991128333e-13 1.078892238469261e-12 1.702035424110696e-11
          1.3104793887134456e-11 5.17901871347904e-12 3.9078473026655413e-13 3.7540313733708933e-13 3.013662059726147e-13 6.082070314641196e-13
          1.5517649626073979e-13 1.3786517498243076e-13 1.167107627015541e-13 1.566278651493972e-13 3.654443268490145e-14 6.336362266606097e-14
          1.1176061493138621e-13 9.54771461663347e-14 3.004654152532795e-13 1.3945204279668893e-13 3.129703500324277e-13 1.0599626891432932e-12
          2.0712978310890633e-12 3.085270558921379e-12 3.7245896499822005e-12 4.265489515853785e-12 8.215551517971347e-13 2.972072971080908e-12
          3.5503127980766436e-12 1.6225325617842206e-11 1.510742515378449e-11 1.2203667848103966e-11 9.197431830666436e-11 2.7254337102710485e-12
          2.6017357724086053e-12 7.690640142356637e-12 7.157796939196129e-12 1.2002679701288502e-12 3.47658282596815e-12 3.2352110860836767e-12
          2.2409366279480257e-12 5.77658472591933e-12 2.6086713906038232e-12 4.866063454628678e-11 4.478734668157596e-11 2.0670982552818077e-11
          3.494560278877231e-11 8.576156166273543e-12 4.7815011654389696e-11 1.7137094149524962e-12 4.0535725238224275e-12 7.666779672231612e-13
          1.8243348225092797e-12 1.1605469963556553e-12 2.480562871496781e-12 1.2854297727535049e-12 2.3172090975210364e-11 1.0658029231838594e-11
          1.3125048245892092e-11 3.227990972959262e-10 2.985409546903248e-10 2.351929015310234e-10 3.104486405744317e-10 1.6318381286352042e-10
          1.5056217165767816e-10 7.745241916055587e-11 7.134126176335548e-11 1.1787722020259678e-10 5.560685763254791e-11 1.7083692541348066e-10
          1.6336564455005825e-10 8.02839639310881e-11 1.3871807583924584e-10 1.5644902544141481e-10 1.9630797670922382e-10 7.778097770132232e-11
          3.648138266077735e-11 4.3069346320998e-11 2.008286267843903e-11 9.950248275749291e-11 4.746381201186074e-11 5.864455474279937e-11
          9.495003142791576e-13 1.5429131132681916e-12 1.110652202047197e-12 1.12899617206015e-12 2.923702584183821e-12 9.30519029153107e-12
          1.3228241374863196e-11 5.476442412126082e-13 5.182813978639914e-13 1.497942008983696e-12 1.3932268039455815e-12 2.1228022620679091e-13
          6.13153302891155e-13 5.696223110420351e-13 4.377119683294749e-13 1.1205510805796425e-12 5.293242182754786e-13 9.83250076850027e-12
          9.042284213787481e-12 3.747810509080399e-12 7.038833383928819e-12 1.8696868204663736e-13 1.749006402566243e-13 3.242162346778256e-13
          3.024907959100878e-13 2.1218023244590007e-13 2.2030722563315535e-13 2.0678064450646487e-13 2.9300907809162016e-13 3.3063925698484483e-13
          1.7192446788362564e-13 1.5993252492345493e-12 1.469917556463203e-12 1.1420258697445417e-12 4.733308472531174e-13 9.021650503026212e-13
          5.451326731491622e-13 5.891242239207712e-13 8.207390081473827e-13 8.859814640084611e-13 5.202635448316876e-13 4.6485206760303274e-12
          1.921587909242201e-12 2.6178186663568434e-12 4.719571972350823e-13 3.2471119241660633e-13 1.8284375257896346e-13 1.77949399567134e-13
          3.214651272938359e-13 2.1472766305225393e-13 7.516832508892154e-13 4.206289379990661e-13 3.460157021642045e-11 3.183268330994145e-11
          1.4574071963236477e-11 1.339552220819705e-11 2.4732859886247112e-11 1.0382743447126689e-11 3.914478878158469e-11 3.6982034417474355e-11
          1.6009153861981223e-11 3.0573906326558676e-11 5.792337309536551e-12 5.319994341824295e-12 4.115525827942715e-12 6.960442318413704e-12
          6.522692300522328e-12 5.294698891945263e-12 1.6158397647227933e-11 6.7616605183887355e-12 8.8563612273707e-12 3.693450938174919e-12
          2.134232567954097e-11 9.054975506027794e-12 1.230847638924173e-11 2.673583807806294e-12 1.4562541931109866e-12 3.626491408560587e-12
          2.0590363870196783e-12 1.0628199991204834e-12 7.083172359060596e-13 4.575779240944078e-13 3.99510838412587e-13 1.2660287675461286e-12
          5.965169608144214e-13 1.859862221916174e-13 2.590944499186762e-13 3.207048130146239e-13 4.0860929057674325e-12 1.697746062651524e-12
          5.8474416123440244e-12 2.4462471057977424e-12 6.660265355973943e-13 9.658420363490977e-13 5.489955890012678e-13 5.53949420980776e-13
          2.1947075024469027e-12 2.124196743443357e-12 3.1500411957066063e-13 1.0756980697983416e-12 1.0237506524772457e-12 5.417340984798462e-13
          1.8883600878412882e-12 8.846167637932876e-13 4.821965270774984e-13 1.4967651877143718e-12 2.570770731392007e-13 6.872557626967223e-13
          3.9354986146939126e-13 1.0522760178128538e-12 5.533091064253386e-13 6.5866055396628e-13 4.0065444886357784e-13 1.6565727074016448e-13
          1.6017792273218261e-13 4.793024556862669e-13 4.559924382858733e-13 7.913150423261258e-14 2.0323486450794114e-13 1.919807772226712e-13
          1.4655919982318234e-13 3.8977048355047687e-13 1.8635397954691566e-13 3.9934211587119686e-14 4.345580184900307e-14 7.781131232870246e-14
          7.490008221109212e-14 3.278042966008677e-14 3.750045447194987e-14 4.0757590627054395e-14 4.697739211088646e-14 7.198885209348177e-14
          4.401472678215892e-14 1.3952522678828394e-13 2.9336179092952883e-13 1.0160816877434408e-13 1.6940300548694283e-13 1.4063062865440393e-13
          2.398650356435838e-13 1.4119745220794139e-13 2.7941334661748895e-12 6.340008703100838e-12 6.227961057517488e-12 5.9103390980906926e-12
          1.5938336052658713e-11 3.0460079189632216e-12 5.424522891463636e-12 4.820557167800949e-12 1.381965174177666e-11 4.1333605841495446e-11
          4.054248182067795e-11 3.8261083944979756e-11 9.782616008237602e-11 3.4747180420632887e-11 3.037570321403637e-11 8.299811326769047e-11
          2.4300033160619292e-12 2.3824666342989598e-12 4.3442835146685705e-12 4.267936666966134e-12 1.584184527448561e-12 2.9373631419844774e-12
          2.88821469812401e-12 2.2537255003845806e-12 4.0509343090449345e-12 2.7463616031907977e-12 1.1236595703757535e-11 1.1037076161826088e-11
          7.55370131580429e-12 1.0459855781556702e-11 1.070580925245138e-12 1.054193228175734e-12 1.971232727930495e-12 1.938840573820878e-12
          7.000876555550873e-13 1.3117798859233512e-12 1.2901378619059147e-12 1.0064057725070722e-12 1.8448641001349866e-12 1.2274552690689185e-12
          5.2015845440507425e-12 5.108888564619005e-12 3.4145637983781267e-12 4.84087971895685e-12 2.064289381588636e-12 3.71909070131544e-12
          1.3929080308923258e-12 2.5264417376823365e-12 1.8372775531168034e-12 3.30674300768923e-12 2.249498506995798e-12 9.566038177275187e-12
          6.544946816053694e-12 8.445150918825441e-12 9.315982966733956e-13 1.6984750058301557e-12 6.183817431833734e-13 1.129956473189723e-12
          8.353383694096416e-13 1.512732836133136e-12 1.0061214656140165e-12 4.4258600170992925e-12 2.957352127918539e-12 3.905361626943838e-12
          2.882328988366882e-11 2.8270146761498766e-11 1.9850764477740314e-11 1.9468911128302744e-11 2.6675171041256524e-11 1.8367924007197865e-11
          7.018062191921928e-11 6.874510665284823e-11 4.766150764371631e-11 6.46146661911953e-11 1.3501338747546402e-11 1.3241057653777138e-11
          9.06785902351136e-12 8.892701647039637e-12 1.2490661606998807e-11 8.387782408194375e-12 3.3288888091272634e-11 3.26032293649714e-11
          2.200543571668459e-11 3.0631176227620636e-11 2.421902675338218e-11 1.6672819479543195e-11 2.1164429817441277e-11 1.4565322539054004e-11
          5.828215412944245e-11 4.03827786340886e-11 5.046032278179471e-11 1.1335565851641277e-11 7.610669535447137e-12 9.899942164841787e-12
          6.6452708227324836e-12 2.761010699961604e-11 1.8627265042877973e-11 2.3882574107162323e-11 2.3450989503174996e-12 4.155424255624426e-12
          3.472416259401422e-12 1.040728974987413e-11 2.5572164564922703e-11 2.074418148491203e-11 5.981888102785612e-11 1.5968516657526266e-12
          2.851846415139663e-12 1.0842791503020173e-12 1.939988290203666e-12 1.3494044850358036e-12 2.3839083462243647e-12 1.6208709818689097e-12
          7.19972760655948e-12 4.923110321998763e-12 5.930695705106845e-12 7.253503573940482e-13 1.3035590259263999e-12 4.8341011110934e-13
          8.661945819690138e-13 6.159427465612265e-13 1.0892740618425754e-12 7.241126145696673e-13 3.3271146219079066e-12 2.2209975611974265e-12
          2.737056131997537e-12 7.548857966940241e-13 1.312803302204337e-12 1.0316287429469401e-12 3.2258811542256577e-12 5.20175387490001e-13
          8.832171810099545e-13 3.6654325048547775e-13 5.858137676606018e-13 4.353365999916712e-13 6.918624849068902e-13 5.033193198655801e-13
          2.176254183987258e-12 1.4439328815499765e-12 1.6679416040196694e-12 1.7809354140609653e-11 1.2251323436218363e-11 1.4439064989659925e-11
          9.92819865482374e-12 4.1949524944345316e-11 2.9033854766613896e-11 3.350374234890052e-11 8.324235075343076e-12 5.586598232034094e-12
          6.742838527312773e-12 4.5239724314776295e-12 1.983208098587598e-11 1.3369097923302057e-11 1.5818599178218783e-11 7.757879996017542e-12
          5.849678113691912e-12 1.7778366216632427e-11 5.269904977059348e-12 3.5364313173967437e-12 3.975453095807197e-12 2.667319283016433e-12
          1.2127646157716244e-11 8.165530890045209e-12 8.945361693399105e-12 2.0710264055323733e-10 2.0280861632457998e-10 1.904437016623928e-10
          3.165788144523005e-10 1.7146277529928716e-10 1.4798977332345778e-10 2.7048825428193464e-10 3.468568299224876e-10 3.4214321432902363e-10
          3.278977690212961e-10 3.1923095640148886e-10 3.04146560760069e-10 2.717473840831332e-10 2.9390403224113854e-10 1.4686701838514928e-10
          1.4379617976792143e-10 1.026196667049803e-10 1.0045933382602665e-10 1.3495883606514292e-10 9.424510940204855e-11 2.3137524021016702e-10
          2.2684135406263513e-10 1.5994167910877325e-10 2.137107374469769e-10 7.066465368839272e-11 6.916866174591137e-11 4.796356624216023e-11
          4.694348029562016e-11 6.4867002087741e-11 4.4011202221199315e-11 1.1329242593699419e-10 1.1101558343533188e-10 7.58807506131522e-11
          1.0443443604428944e-10 1.2140816688752386e-10 8.472487882181879e-11 1.0467607543419479e-10 7.298375586061576e-11 1.9333956269907827e-10
          1.3603975656132517e-10 1.6779316791763258e-10 5.828158327107242e-11 3.952486099898875e-11 5.0168225101683945e-11 3.400208832130366e-11
          9.426149574398099e-11 6.433413059509588e-11 8.156703263285216e-11 2.5229562488823787e-10 2.4868167818958945e-10 1.8035097993652384e-10
          1.7765066961203173e-10 2.378293439382484e-10 1.6958525628049778e-10 2.366455143610995e-10 2.344023423830337e-10 1.6903629786493393e-10
          2.2720432636754316e-10 1.2677306173379574e-10 1.2480288343709802e-10 8.767142772232179e-11 8.626471634355184e-11 1.1894426043976078e-10
          8.209701684677562e-11 1.211841957254505e-10 1.197932908631945e-10 8.348048438425016e-11 1.1547418671503016e-10 2.1992338819517726e-10
          1.563937881357502e-10 1.9578122175796986e-10 1.3878331231959243e-10 2.1409954568161704e-10 1.5330798429576175e-10 1.94622379244968e-10
          1.0943211190152144e-10 7.537202991389263e-11 9.683853784213327e-11 6.653213805945421e-11 1.0796894824206457e-10 7.481915656806831e-11
          9.729360078625799e-11 1.2243783369060728e-10 9.71078864813598e-11 1.9602497325111793e-10 2.32835323915997e-10 1.90658714793911e-10
          2.3515410584628895e-10 8.649502790811254e-11 6.02447543887287e-11 6.850759433756488e-11 4.76621596152887e-11 1.3955122906997188e-10
          9.786062455051732e-11 1.1112775415882549e-10 4.137609367363101e-11 2.802300712741481e-11 3.2703343677143334e-11 2.2131325961408187e-11
          6.761312246605433e-11 4.6034910766735946e-11 5.3653925391844194e-11 3.615540434155062e-11 2.6316421130618295e-11 5.91630754660018e-11
          2.4782890064441572e-11 1.6756799272491682e-11 1.8019553698839356e-11 1.217267721682747e-11 4.0746018068567563e-11 2.7667114450315395e-11
          2.961609810100109e-11 1.6710618430222856e-10 1.180630818107194e-10 1.3632722806603467e-10 9.60046958178971e-11 1.6952701062467483e-10
          1.2027883742317825e-10 1.4084180256826615e-10 8.213891586920908e-11 5.6286326548409714e-11 6.660110217542113e-11 4.5524202454696146e-11
          8.401562078314864e-11 5.7790830366075064e-11 6.923801273275735e-11 7.448812301761702e-11 5.510455273180691e-11 7.833888984436525e-11
          5.153736726487919e-11 3.514560530072367e-11 3.80351991768767e-11 2.588325926250874e-11 5.432674676674799e-11 3.712959962223875e-11
          4.0549997516028906e-11 4.926994326942124e-13 7.815074456195289e-13 6.310759872478189e-13 1.8430156300210375e-12 3.609780418471507e-13
          5.225780071155137e-13 3.114558227694325e-13 4.1837726430853465e-13 3.2796272097629725e-13 4.4463989344013296e-13 3.608901390642312e-13
          1.2290680962090672e-12 9.633738219982748e-13 1.0313609679622315e-12 4.267743441326744e-12 3.010356783323647e-12 9.333292742151217e-12
          2.8953885886124225e-12 1.9366360452102622e-12 2.03403597301471e-12 1.3554757705903181e-12 6.3549303078873235e-12 4.271156360674594e-12
          4.354571832834412e-12 1.839907048379165e-11 3.002492851685099e-11 1.2584259098414873e-11 8.492714105809216e-12 8.453041409547338e-12
          5.698966408376541e-12 2.0615273010566755e-11 1.3961116566652543e-11 1.3757979336795265e-11 3.8878192097194177e-11 4.1757853725123483e-11
          2.6777959064144223e-11 1.81881146181436e-11 1.8002937400422727e-11 1.2206867192590413e-11 2.8800848645400627e-11 1.958797230359829e-11
          1.948854430771884e-11 4.65693601749361e-13 4.586180903036615e-13 8.625061200613066e-13 8.483227423257281e-13 2.9779269252968456e-13
          5.607382267562533e-13 5.515090498723067e-13 4.3778628417052874e-13 8.07033814660141e-13 5.246670915351632e-13 2.2961007898883664e-12
          2.2550265467900695e-12 1.4710375573690762e-12 2.136280606454396e-12 1.945570430243504e-13 1.910823338970657e-13 3.6006748554061306e-13
          3.539124686902084e-13 1.2385441347967242e-13 2.2840243536488004e-13 2.2429888591695827e-13 1.8364006378582682e-13 3.369077573868136e-13
          2.1392584754705214e-13 9.64971492438783e-13 9.47614955867295e-13 6.021234765044721e-13 8.969592174018458e-13 4.049786991869337e-13
          7.425784610235401e-13 2.647397205782851e-13 4.826645837702898e-13 3.6550978529305295e-13 6.614219271491359e-13 4.3055616219197654e-13
          1.952367487457755e-12 1.2726841425145344e-12 1.7209085708167224e-12 1.7624398383336608e-13 3.1030000894302684e-13 1.2216658674537593e-13
          1.9722877098617987e-13 1.6805886383776675e-13 2.7603958393827607e-13 1.906730202002796e-13 8.183524084266704e-13 5.168797748339508e-13
          7.18950503363851e-13 6.013439226274044e-12 5.8970641320827666e-12 3.93735736150339e-12 3.860985633131331e-12 5.561679938238927e-12
          3.641069137911375e-12 1.4964134220380087e-11 1.4654384693568506e-11 9.628563745134932e-12 1.3763764912899869e-11 2.545362101952066e-12
          2.4958484539095755e-12 1.6251440882726037e-12 1.593437132439466e-12 2.3532864351081555e-12 1.5019730996591762e-12 6.37408347138515e-12
          6.241629483829598e-12 3.991654899710433e-12 5.860955465742601e-12 5.045617112750575e-12 3.3031314736104597e-12 4.404576152867809e-12
          2.8831394356551314e-12 1.2400142893910954e-11 8.14487165899048e-12 1.0718990054338003e-11 2.135933729050623e-12 1.363574747652212e-12
          1.866322152152103e-12 1.1921527489012502e-12 5.27819977696963e-12 3.3744064849801788e-12 4.55994031426718e-12 8.757450530329546e-14
          8.583514325163209e-14 1.4197096325211357e-13 1.3950950814311531e-13 7.348634349269896e-14 1.0771252751800839e-13 1.0599666792698549e-13
          8.268801547477682e-14 1.3309807882766275e-13 1.0093051115880441e-13 3.832756596039729e-13 3.7639296720909845e-13 2.799000193744248e-13
          3.560162033824046e-13 8.586285076571858e-14 1.2365046580988595e-13 7.080632079438231e-14 9.496978505867244e-14 9.044545178185224e-14
          1.1815282699856342e-13 9.235935613569868e-14 3.2147318554620764e-13 2.3951307793927974e-13 3.303092818235403e-13 1.026438037206742e-12
          1.0063669084110012e-12 6.388380744028213e-13 6.26339868385364e-13 9.483259126759143e-13 5.900470086678892e-13 2.5713122268472017e-12
          2.5176895152791323e-12 1.5659221444521912e-12 2.3635953105135365e-12 2.1501231830807862e-13 2.1105443450131022e-13 3.890126088060442e-13