<?xml version="1.0"?>
<VTKFile type="UnstructuredGrid" version="0.1" byte_order="LittleEndian" header_type="UInt32" compressor="vtkZLibDataCompressor">
  <UnstructuredGrid>
    <Piece NumberOfPoints="1269" NumberOfCells="753">
      <PointData>
        <DataArray type="Int32" Name="libmesh_node_id" format="ascii" RangeMin="740" RangeMax="11678">
          830 831 832 833 834 835
          855 856 857 877 878 879
          918 919 920 921 922 923
          943 944 945 965 966 967
          1006 1007 1008 1009 1010 1011
          1031 1032 1033 1053 1054 1055
          1088 1089 1090 1091 1092 1093
          1094 1095 1096 1097 1098 1099
          1116 1117 1118 1119 1120 1121
          1138 1139 1140 1141 1142 1143
          1176 1177 1178 1179 1180 1181
          1182 1183 1184 1185 1186 1187
          1204 1205 1206 1207 1208 1209
          1226 1227 1228 1229 1230 1231
          1264 1265 1266 1267 1268 1269
          1270 1271 1272 1273 1274 1275
          1292 1293 1294 1295 1296 1297
          1314 1315 1316 1317 1318 1319
          1381 1382 1384 1385 1386 1387
          1388 1389 1390 1392 1393 1394
          1409 1410 1411 1412 1413 1414
          1415 1416 1417 1418 1419 1420
          1421 1422 1459 1460 1463 1465
          1647 1656 1657 1658 1659 1660
          1661 1662 1663 1664 1665 1668
          1669 1672 1674 1712 1713 1715
          1716 1718 1719 1808 1813 1814
          1815 1816 1817 1818 1819 1820
          1821 1822 1823 1838 1839 1840
          1841 1842 1843 1844 1845 1846
          1847 1848 1849 1850 1851 2526
          2529 2531 2538 2539 2542 2545
          2547 2548 2549 2550 2551 2552
          2553 2554 2555 2556 2557 2558
          2559 2560 2562 2563 2564 2565
          2566 2567 2568 2569 2570 2571
          2572 2573 2574 2575 2576 2577
          2578 2579 2580 2593 2594 2597
          2599 2672 2673 2676 2677 2678
          2679 2680 2681 2817 2821 2832
          2833 2834 2835 2836 2837 2838
          2839 2840 2841 2842 2844 2845
          2846 2847 2848 2886 2887 2888
          2889 2890 2891 2892 2893 2894
          2895 2896 2897 2898 2899 2900
          2901 2902 2903 2904 2905 2906
          2907 2908 2909 4166 4182 4183
          4186 4188 4200 4212 4214 4216
          4244 4262 4264 4278 4279 4281
          4284 4294 4296 4298 4300 4301
          4302 4303 4304 4305 4306 4307
          4308 4309 4310 4311 4312 4313
          4314 4315 4316 4317 4318 4319
          4320 4321 4322 4323 4324 4325
          4326 4327 4328 4329 4330 4331
          4332 4333 4334 4335 4336 4337
          4338 4339 4340 4341 4342 4343
          4344 4345 4346 4347 4348 4349
          4350 4351 4352 4353 4354 4355
          4356 4357 4358 4359 4360 4361
          4362 4363 4364 4369 4370 4371
          4374 4377 4378 4379 4380 4381
          4383 4384 4385 4386 4387 4388
          4389 4390 4391 4392 4393 4394
          4397 4398 4401 4403 4404 4405
          4407 4408 4409 4410 4411 4412
          4413 4414 4415 4416 4417 4418
          4419 4420 4421 4422 4423 4424
          4425 4426 4427 4428 4429 4430
          4431 4432 4433 4434 4435 4482
          4483 4486 4488 4490 4491 4492
          4493 4494 4495 4496 4497 4498
          4499 4517 4518 4519 4520 4521
          4522 4523 4524 4525 4526 4632
          4633 4634 4635 4636 4637 4638
          4666 4667 4668 4669 4670 4671
          4672 4673 4674 4675 4676 4677
          4678 4679 4680 4681 4682 4683
          4684 4685 4782 4783 4784 4785
          4786 4787 4788 4789 4790 4791
          4792 4793 4794 4795 4796 4797
          4798 4799 4800 4801 4802 4803
          4804 4805 4806 4807 4808 4809
          4810 4811 4812 4813 4814 4815
          4816 4817 4818 4819 4820 4821
          4822 4823 4824 4825 4826 4827
          4828 4829 4830 4831 4832 4915
          4916 4917 4918 4919 4920 4921
          4922 4923 4924 10339 10340 10343
          10345 10406 10407 10410 10412 10502
          10504 10506 10530 10532 10534 10600
          10602 10604 10615 10616 10619 10621
          10631 10633 10635 10645 10647 10649
          10771 10772 10773 10776 10779 10790
          10791 10794 10796 10871 10872 10875
          10877 10889 10890 10891 10892 10893
          10894 10895 10896 10897 10898 10979
          10980 10982 10985 10995 10997 10999
          11013 11014 11016 11019 11029 11031
          11033 11099 11101 11103 11112 11113
          11114 11115 11116 11117 11118 11127
          11129 11131 11140 11141 11142 11143
          11144 11145 11146 11147 11148 11149
          11150 11151 11152 11153 11154 11155
          11156 11157 11158 11159 11160 11161
          11162 11163 11164 11165 11166 11167
          11168 11169 11170 11171 11172 11173
          11174 11175 11176 11177 11178 11179
          11180 11181 11182 11183 11184 11185
          11186 11187 11188 11189 11190 11191
          11192 11193 11194 11195 11196 11197
          11198 11199 11200 11201 11202 11203
          11204 11205 11206 11207 11208 11209
          11210 11211 11212 11213 11214 11215
          11216 11217 11218 11219 11220 11221
          11222 11223 11224 11225 11226 11227
          11228 11229 11230 11231 11232 11233
          11234 11235 11236 11237 11238 11239
          11240 11241 11242 11243 11244 11245
          11246 11247 11248 11249 11250 11251
          11252 11253 11254 11255 11256 11257
          11258 11259 11260 11261 11262 11263
          11264 11265 11266 11267 11268 11269
          11270 11271 11272 11273 11274 11275
          11276 11277 11278 11279 11280 11281
          11282 11283 11284 11285 11286 11287
          11288 11289 11290 11291 11292 11293
          11294 11295 11296 11297 11298 11299
          11300 11301 11302 11303 11304 11305
          11306 11307 11308 11309 11310 11311
          11312 11313 11314 11315 11316 11317
          11318 11319 11320 11321 11322 11323
          11324 11325 11326 11327 11328 11329
          11330 11331 11332 11333 11334 11335
          11336 11337 11338 11339 11340 11341
          11342 11343 11344 11345 11346 11347
          11348 11349 11350 11351 11352 11353
          11354 11355 11356 11357 11358 11359
          11360 11361 11362 11363 11364 11365
          11366 11367 11368 11369 11370 11371
          11372 11373 11374 11375 11376 11377
          11378 11399 11400 11401 11402 11403
          11404 11405 11406 11407 11408 11409
          11410 11411 11412 11413 11414 11415
          11416 11417 11418 11429 11430 11431
          11432 11433 11434 11435 11436 11437
          11438 11439 11440 11441 11442 11443
          11444 11445 11446 11447 11448 11463
          11464 11465 11466 11467 11468 11469
          11470 11471 11472 11473 11474 11475
          11476 11491 11492 11493 11494 11495
          11496 11497 11498 11499 11500 11501
          11502 11503 11504 11512 11513 11514
          11515 11516 11517 11518 11519 11520
          11521 11522 11523 11524 11525 11526
          11527 11528 11529 11530 11531 11532
          11533 11534 11535 11536 11537 11538
          11546 11547 11548 11549 11550 11551
          11552 11553 11554 11555 11556 11557
          11558 11559 11560 11561 11562 11563
          11564 11565 11566 11567 11568 11569
          11570 11571 11572 11573 11574 11575
          11576 11577 11578 11579 11580 11581
          11582 11583 11584 11585 11586 11587
          11588 11589 11590 11591 11592 11593
          11594 11595 11596 11597 11598 11599
          11600 11601 11602 11603 11604 11605
          11606 11607 11608 11609 11610 11611
          11612 11613 11614 11615 11616 11617
          11618 11619 11620 11621 11622 11623
          11624 11625 11626 11627 11628 11629
          11630 11631 11632 11633 11634 11635
          11636 11637 11638 11639 11640 11641
          11642 11643 11644 11645 11646 11647
          11648 11649 11650 11651 11652 11653
          11654 11655 11656 11657 11658 11659
          11660 11661 11662 11663 11664 11665
          11666 11667 11668 11669 11670 11671
          11672 11673 11674 11675 11676 11677
          11678 740 742 743 741 828
          829 744 745 746 747 767
          766 854 768 769 789 788
          876 790 791 916 917 942
          964 1004 1005 1030 1052 1000
          1002 1003 1001 1029 1028 1051
          1050 1809 2674 2675 1810 1652
          1653 1642 2826 2827 2828 2831
          1654 2537 1655 2829 2481 2830
          2843 2818 2540 2561 2525 4256
          4258 4260 4257 4259 4261 4236
          4237 4238 4241 4162 4365 4163
          4366 4367 4368 4375 4376 4373
          4382 10767 10768 10769 10770 10774
          10775 10777 10778 10780 10788 10789
          10792 10793 10795 10797 10869 10870
          10873 10874 10876 10878 10881 10865
          10882 10885 4263 10887 4265 10977
          10978 10981 10983 10984 10986 10994
          10996 10998 11000 11011 11012 11015
          11017 11018 11020 11028 11030 11032
          11034 11098 11100 11102 11104 11094
          11106 11108 4293 11110 4295 11126
          11128 11130 11132 11122 11134 11136
          4297 11138 4299 11383 10326 11384
          11385 4168 11388 4372 11393 11394
          11395 11398 11421 11422 11425 11427
          10490 11451 11452 4198 11455 4395
          11458 11459 11462 4396 10518 11479
          11480 4202 11483 4399 11486 11487
          11490 4400 11506 11508 11510 4402
          11428 11507 11511 11540 11542 11544
          4406 11541 11545
        </DataArray>
        <DataArray type="Float64" Name="bounds" format="ascii" RangeMin="0" RangeMax="0">
          0 0 0 0 0 0
          0 0 0 0 0 0
          0 0 0 0 0 0
          0 0 0 0 0 0
          0 0 0 0 0 0
          0 0 0 0 0 0
          0 0 0 0 0 0
          0 0 0 0 0 0
          0 0 0 0 0 0
          0 0 0 0 0 0
          0 0 0 0 0 0
          0 0 0 0 0 0
          0 0 0 0 0 0
          0 0 0 0 0 0
          0 0 0 0 0 0
          0 0 0 0 0 0
          0 0 0 0 0 0
          0 0 0 0 0 0
          0 0 0 0 0 0
          0 0 0 0 0 0
          0 0 0 0 0 0
          0 0 0 0 0 0
          0 0 0 0 0 0
          0 0 0 0 0 0
          0 0 0 0 0 0
          0 0 0 0 0 0
          0 0 0 0 0 0
          0 0 0 0 0 0
          0 0 0 0 0 0
          0 0 0 0 0 0
          0 0 0 0 0 0
          0 0 0 0 0 0
          0 0 0 0 0 0
          0 0 0 0 0 0
          0 0 0 0 0 0
          0 0 0 0 0 0
          0 0 0 0 0 0
          0 0 0 0 0 0
          0 0 0 0 0 0
          0 0 0 0 0 0
          0 0 0 0 0 0
          0 0 0 0 0 0
          0 0 0 0 0 0
          0 0 0 0 0 0
          0 0 0 0 0 0
          0 0 0 0 0 0
          0 0 0 0 0 0
          0 0 0 0 0 0
          0 0 0 0 0 0
          0 0 0 0 0 0
          0 0 0 0 0 0
          0 0 0 0 0 0
          0 0 0 0 0 0
          0 0 0 0 0 0
          0 0 0 0 0 0
          0 0 0 0 0 0
          0 0 0 0 0 0
          0 0 0 0 0 0
          0 0 0 0 0 0
          0 0 0 0 0 0
          0 0 0 0 0 0
          0 0 0 0 0 0
          0 0 0 0 0 0
          0 0 0 0 0 0
          0 0 0 0 0 0
          0 0 0 0 0 0
          0 0 0 0 0 0
          0 0 0 0 0 0
          0 0 0 0 0 0
          0 0 0 0 0 0
          0 0 0 0 0 0
          0 0 0 0 0 0
          0 0 0 0 0 0
          0 0 0 0 0 0
          0 0 0 0 0 0
          0 0 0 0 0 0
          0 0 0 0 0 0
          0 0 0 0 0 0
          0 0 0 0 0 0
          0 0 0 0 0 0
          0 0 0 0 0 0
          0 0 0 0 0 0
          0 0 0 0 0 0
          0 0 0 0 0 0
          0 0 0 0 0 0
          0 0 0 0 0 0
          0 0 0 0 0 0
          0 0 0 0 0 0
          0 0 0 0 0 0
          0 0 0 0 0 0
          0 0 0 0 0 0
          0 0 0 0 0 0
          0 0 0 0 0 0
          0 0 0 0 0 0
          0 0 0 0 0 0
          0 0 0 0 0 0
          0 0 0 0 0 0
          0 0 0 0 0 0
          0 0 0 0 0 0
          0 0 0 0 0 0
          0 0 0 0 0 0
          0 0 0 0 0 0
          0 0 0 0 0 0
          0 0 0 0 0 0
          0 0 0 0 0 0
          0 0 0 0 0 0
          0 0 0 0 0 0
          0 0 0 0 0 0
          0 0 0 0 0 0
          0 0 0 0 0 0
          0 0 0 0 0 0
          0 0 0 0 0 0
          0 0 0 0 0 0
          0 0 0 0 0 0
          0 0 0 0 0 0
          0 0 0 0 0 0
          0 0 0 0 0 0
          0 0 0 0 0 0
          0 0 0 0 0 0
          0 0 0 0 0 0
          0 0 0 0 0 0
          0 0 0 0 0 0
          0 0 0 0 0 0
          0 0 0 0 0 0
          0 0 0 0 0 0
          0 0 0 0 0 0
          0 0 0 0 0 0
          0 0 0 0 0 0
          0 0 0 0 0 0
          0 0 0 0 0 0
          0 0 0 0 0 0
          0 0 0 0 0 0
          0 0 0 0 0 0
          0 0 0 0 0 0
          0 0 0 0 0 0
          0 0 0 0 0 0
          0 0 0 0 0 0
          0 0 0 0 0 0
          0 0 0 0 0 0
          0 0 0 0 0 0
          0 0 0 0 0 0
          0 0 0 0 0 0
          0 0 0 0 0 0
          0 0 0 0 0 0
          0 0 0 0 0 0
          0 0 0 0 0 0
          0 0 0 0 0 0
          0 0 0 0 0 0
          0 0 0 0 0 0
          0 0 0 0 0 0
          0 0 0 0 0 0
          0 0 0 0 0 0
          0 0 0 0 0 0
          0 0 0 0 0 0
          0 0 0 0 0 0
          0 0 0 0 0 0
          0 0 0 0 0 0
          0 0 0 0 0 0
          0 0 0 0 0 0
          0 0 0 0 0 0
          0 0 0 0 0 0
          0 0 0 0 0 0
          0 0 0 0 0 0
          0 0 0 0 0 0
          0 0 0 0 0 0
          0 0 0 0 0 0
          0 0 0 0 0 0
          0 0 0 0 0 0
          0 0 0 0 0 0
          0 0 0 0 0 0
          0 0 0 0 0 0
          0 0 0 0 0 0
          0 0 0 0 0 0
          0 0 0 0 0 0
          0 0 0 0 0 0
          0 0 0 0 0 0
          0 0 0 0 0 0
          0 0 0 0 0 0
          0 0 0 0 0 0
          0 0 0 0 0 0
          0 0 0 0 0 0
          0 0 0 0 0 0
          0 0 0 0 0 0
          0 0 0 0 0 0
          0 0 0 0 0 0
          0 0 0 0 0 0
          0 0 0 0 0 0
          0 0 0 0 0 0
          0 0 0 0 0 0
          0 0 0 0 0 0
          0 0 0 0 0 0
          0 0 0 0 0 0
          0 0 0 0 0 0
          0 0 0 0 0 0
          0 0 0 0 0 0
          0 0 0 0 0 0
          0 0 0 0 0 0
          0 0 0 0 0 0
          0 0 0 0 0 0
          0 0 0 0 0 0
          0 0 0 0 0 0
          0 0 0 0 0 0
          0 0 0 0 0 0
          0 0 0 0 0 0
          0 0 0 0 0 0
          0 0 0 0 0 0
          0 0 0 0 0 0
          0 0 0 0 0 0
          0 0 0 0 0 0
          0 0 0 0 0 0
          0 0 0 0 0 0
          0 0 0
        </DataArray>
        <DataArray type="Float64" Name="gradient_error" format="ascii" RangeMin="3.091025884661873e-15" RangeMax="1.3228241374863196e-11">
          2.9454439125886744e-14 2.9399389262837355e-14 2.957378226879004e-14 2.949166990304566e-14 2.960321107884447e-14 2.951448136070395e-14
          2.929540365210865e-14 2.9327323222711617e-14 2.93359031027867e-14 2.924646790442932e-14 2.9245088908121953e-14 2.924605456300997e-14
          3.098319949136075e-14 3.032229833428511e-14 3.143463862146245e-14 3.067971547960976e-14 3.1478434580776135e-14 3.071460906393022e-14
          2.8920989254108175e-14 2.90865787932842e-14 2.9104019419466625e-14 2.818058133100687e-14 2.8248365248811346e-14 2.8257255291848943e-14
          4.227813014927615e-14 3.863980711363705e-14 3.256971986947001e-14 3.078810701044032e-14 3.1090124882819174e-14 2.9583784499796974e-14
          2.972435419818876e-14 2.619033996691553e-14 2.5643957425405214e-14 2.4447224318379567e-14 2.337418578242042e-14 2.321047073403566e-14
          3.0243302144280542e-12 4.3814983455643305e-12 7.919463820510724e-13 6.52122676552117e-13 1.5625205259530178e-13 1.2836333247615336e-13
          4.568025166612391e-14 3.939870542668045e-14 2.3947860364084e-14 2.2092781505278885e-14 2.0670891906432645e-14 1.951807455386013e-14
          3.245375418385874e-12 3.115238943092116e-13 6.617399404698549e-14 2.4322194036250718e-14 1.6361219646106813e-14 1.521206497990782e-14
          8.347692864103965e-13 1.1074881756526163e-13 3.187337573696609e-14 1.5527228885264443e-14 1.248473664573986e-14 1.2058872758528018e-14
          7.20198289028366e-13 3.0302873073453663e-12 4.739366302784162e-13 4.063449488801559e-13 9.635257884769442e-14 8.578029906198177e-14
          2.342308132395809e-14 2.0285600920032893e-14 1.0597755137028948e-14 9.178563548217012e-15 8.923474920444614e-15 7.994090639597154e-15
          3.7213419133208805e-12 3.183772835457414e-13 5.850099717041563e-14 1.3791486596976318e-14 6.3150560348885076e-15 5.5986495139881735e-15
          3.0765168169047554e-12 3.0769667063993285e-13 4.179397506456217e-14 1.0434852677844936e-14 4.8707401103719415e-15 4.132592669226653e-15
          5.375040974680972e-13 2.9136314604375183e-13 5.764090510408625e-14 4.4731058756183536e-14 3.4763863538546126e-14 4.354830198087014e-14
          7.249305416061894e-15 7.54492108993575e-15 5.149047645635013e-15 3.8432009608612015e-15 5.398467067848625e-15 4.216370039630473e-15
          2.647679193119797e-12 2.9539386562416643e-13 5.321847907158715e-14 9.636565839095223e-15 3.325333900955386e-15 3.091025884661873e-15
          4.724043604605978e-12 4.941461148279591e-13 5.4104217719980154e-14 1.1432594914380841e-14 4.113313525823382e-15 3.147778757911426e-15
          5.588433966725608e-12 4.911030692239472e-12 1.124655233625194e-12 9.606086921896546e-13 7.419298097785479e-14 3.3131580597435524e-13
          4.365276402848211e-12 2.1288440984425918e-12 7.010839252186365e-13 1.4186697975978634e-12 9.033567170583967e-14 1.3536579192857504e-12
          1.2352108740886194e-13 1.3886879277350259e-13 7.919356867021471e-14 8.00396513437151e-14 8.58975357882168e-14 6.455643032185462e-14
          5.998979699139835e-14 1.5077540613183562e-13 1.000465476602772e-13 5.435267076234265e-14 8.755309049804096e-14 2.9871086524532034e-14
          3.408205819457987e-14 4.814688758130139e-14 9.103553831451367e-13 7.250129117475341e-13 6.398402431783362e-13 5.396704403499316e-13
          7.563966116647515e-13 3.619860170845567e-14 4.951359023620353e-14 4.783609005827079e-14 2.3277027761684835e-13 2.1323674620702406e-13
          4.206351235804196e-14 2.6798763517090493e-12 7.732463582314602e-13 2.2399249671451112e-13 3.7971218227733757e-13 1.0339254050115939e-12
          1.061807745340061e-12 1.2926534133306169e-12 1.7241721484550172e-12 5.633098093181711e-12 5.217034527952568e-12 1.0262569334597918e-12
          1.4008065144994987e-12 4.800970962723424e-12 1.7753560955392052e-12 2.09543602166748e-12 1.9805641733276336e-12 3.084415506364527e-13
          2.758650951852096e-13 6.069848504858345e-14 5.776353119547308e-14 1.954041331537152e-13 3.09032291358944e-13 6.524667517201913e-14
          2.5449375312641415e-13 5.708621097713305e-14 4.2266044956417275e-13 2.5033474815651658e-14 2.092918883296321e-14 5.400450300503706e-14
          3.702953083891326e-14 1.164374839963634e-14 6.706607468982582e-14 4.684472586042901e-14 1.508610080487416e-14 2.1874804287866725e-14
          1.699953824387978e-14 1.47615541727318e-13 8.185368406193416e-14 8.20457033212217e-14 3.0601825927137276e-14 1.234834221150294e-12
          9.145925768759949e-13 5.262578826401783e-12 5.92316169618346e-13 4.2235750765278806e-13 2.225639896810358e-13 2.0173017557872788e-12
          6.619901447874678e-14 5.997406312172797e-14 1.7895964880274712e-13 1.3342488383501794e-13 4.61393873615027e-14 2.6365629970366284e-13
          2.124022788403688e-13 6.412339837357376e-14 1.5664998884529298e-13 1.3203715723281056e-13 3.330645059536028e-13 2.4438618083661543e-13
          4.2698434531970476e-13 2.398780233291756e-13 4.3141482616106273e-13 1.3208323157235697e-13 2.5664470425706724e-13 3.833922657058416e-13
          5.620256487072035e-13 2.5372267063261363e-13 9.613983493985847e-13 4.155600977020262e-13 5.781061927176373e-13 7.8233332553674e-14
          1.3301169560865757e-13 5.092736730530772e-14 9.267515277591385e-14 7.50035312142651e-14 1.1781979008671767e-13 6.968424543854006e-14
          1.9957244294713301e-13 1.2032696965061248e-13 1.4100626429592716e-13 5.612085547673276e-13 7.829116675227615e-13 1.0230432065135532e-12
          1.0087176047166448e-12 3.6965933959315164e-13 2.9458658699347765e-13 1.2395876556799704e-13 1.2111790031903581e-13 9.629469000232405e-14
          2.195138343938037e-13 2.2732927460814003e-13 7.14714796856123e-14 2.36090960432966e-13 6.193209228941416e-13 9.331301641469024e-15
          1.0215086957408165e-14 5.048351312631075e-14 4.790278327251732e-14 8.459475740892264e-15 2.5955432008832733e-14 2.300660566716421e-14
          1.3046307491749286e-14 3.888134379249942e-14 1.5261199384866175e-14 7.585785788638571e-14 3.5767341542823394e-14 9.68032069464093e-14
          8.131527714422378e-14 2.232855994565759e-13 7.35000638662522e-14 4.2578781889167654e-13 4.233551423450908e-13 1.2592958590419072e-13
          2.1882800356826695e-13 1.5771410433981804e-13 2.4788444578906346e-13 7.5121943296208e-14 4.346973126082699e-13 3.117264212323432e-13
          3.380547872383089e-13 7.165485383173541e-14 6.158533299296218e-14 2.545605045789603e-13 2.1034082926721848e-13 3.9104302067267596e-14
          1.1083795766544117e-13 9.262239742640303e-14 4.013885885838097e-14 1.1605336441467853e-13 5.2937853585575787e-14 4.374661553261851e-13
          3.5909632554147473e-13 1.4614049278553848e-13 1.9196786997097613e-13 8.220117911857787e-13 6.151567008539803e-13 6.915061377694344e-13
          7.064496619176697e-13 7.24851337452017e-13 3.66869050342547e-12 1.2486784510060033e-12 1.0917972872692145e-12 1.7736375979000121e-12
          5.443402310900614e-13 1.5883115401515342e-13 3.1784836640865177e-13 2.172757722674585e-12 1.99428888761893e-12 1.5401266098822485e-12
          2.5032621040613946e-12 9.978252288885679e-13 5.41208836523405e-13 1.371430708415832e-12 1.156800866639806e-13 1.0936954259642301e-13
          1.6993063707862138e-13 1.5899573680342147e-13 3.8603475395183954e-14 1.512281158977079e-13 1.4139962122979932e-13 9.120294884598519e-14
          1.300321074902473e-13 1.162974903706983e-13 2.7972889681689145e-13 2.5816851170088804e-13 1.662499200426292e-13 2.0326586317917053e-13
          6.606123487954109e-14 1.446969623643679e-13 3.222424209111282e-14 8.474303386966495e-14 4.770627920615655e-14 1.3944603618331073e-13
          6.610943831172838e-14 1.840028150433221e-13 1.2009729241388722e-13 1.950797523495362e-13 7.674462739156801e-13 7.040059622417172e-13
          2.531365269747916e-13 2.3215949506038395e-13 5.426144972716372e-13 1.7834020882563958e-13 9.721477807682642e-13 9.053530193783381e-13
          3.0921813758964833e-13 7.246825718612334e-13 1.110972921004426e-13 1.0308028033380235e-13 1.9724672726513835e-13 1.8236616294549564e-13
          1.19304673856704e-13 2.970042787891503e-13 2.7522919950465944e-13 8.333225606838362e-14 1.4512464664051898e-13 2.2155242671329818e-13
          2.580834312831943e-13 2.396680536817264e-13 3.492831046406178e-13 1.9135434125673952e-13 3.500490560343631e-13 1.868042426408171e-13
          2.2159785550307533e-13 2.1725523577745562e-13 4.908581479581037e-13 2.6063654832161607e-13 2.72499288132901e-13 8.898977264727027e-14
          1.866383186272697e-13 7.28072028061631e-14 1.6398097081468873e-13 1.036050630393699e-13 1.9567373851098233e-13 1.1302811874411185e-13
          2.4514912981241636e-13 2.0924063621708764e-13 2.549143416888694e-13 5.663843847963417e-13 4.667826315362175e-13 3.9129969566418806e-13
          6.11990204638227e-13 7.809852339192267e-14 1.278948820880173e-13 1.0089169309276616e-13 2.600985238741556e-13 1.2746475904401238e-13
          1.9560518109911702e-13 3.208116038801376e-13 2.7787888906822103e-13 4.034197848427351e-13 1.1943036163092339e-13 2.736242085421191e-13
          1.8732331970111018e-13 3.726979613613798e-13 1.6350139485331803e-13 5.164724089183133e-13 4.337109739673235e-13 5.629367410298339e-13
          1.602057698485993e-12 6.601858446741564e-13 2.3130299475303673e-12 2.8775716432001374e-13 3.993394006877252e-13 3.6053324933546306e-13
          3.590192452332988e-13 5.614609166264252e-13 6.356030102565825e-13 4.500034127717519e-13 5.990762472461533e-13 5.41900068322049e-13
          7.726840211405512e-13 4.675741259300766e-13 6.283412854810315e-13 2.399206207807825e-13 4.272058770883989e-13 1.9565552267949611e-13
          3.420437231836389e-13 2.1326902479749605e-13 4.2307395978267165e-13 1.793607396755016e-13 5.563794987231236e-13 4.425637256177037e-13
          5.327307060214447e-13 1.9493691925739616e-13 2.2452692828577725e-13 1.4984338529010567e-13 1.8822719435093373e-13 1.80043663361777e-13
          2.268719718087598e-13 1.5170902745359795e-13 1.9028133955095398e-13 1.8889924241723079e-13 2.2609582056082627e-13 6.850170178724442e-13
          1.0921557712340038e-12 4.802194022240206e-13 1.362549726650211e-12 1.3824573438312807e-13 1.315265440245552e-13 8.415175750364959e-14
          7.143037550898772e-14 1.2915715464072817e-13 1.483153211745383e-13 8.957857315423218e-14 1.2480735366598232e-13 5.870899351432583e-14
          1.6747348770834848e-13 2.031030635838688e-14 2.32660596911488e-14 1.3973363724448057e-14 1.260568155007915e-14 2.7273313957300205e-14
          2.4264489553600715e-14 1.7835663643430953e-14 2.6221813023910717e-14 1.1237999375710245e-14 2.1255665149901224e-14 1.6030721193909825e-14
          2.593785434160769e-14 9.03745222523985e-15 1.0556016737453873e-14 1.7067699677668387e-14 1.9435074516940416e-14 1.0647414030671085e-14
          3.792990495486348e-14 6.251807978587797e-14 2.0426898724232107e-14 2.5605951014420536e-14 2.3895715592066236e-14 3.133144369857174e-14
          1.9035207123461627e-14 8.710625461689248e-14 3.078500330460896e-14 3.876717180507725e-14 2.1892825768285862e-14 4.441793356176968e-14
          1.2178622818236467e-14 2.164266209889763e-14 1.5023745973998737e-14 2.2850292249658926e-14 1.1816454214008603e-14 6.694304135525349e-14
          3.110670137955879e-14 3.0676838525319115e-14 2.5964191945535882e-14 2.4581306146472808e-14 5.868952234709718e-14 5.521142544850612e-14
          1.946399028405483e-14 3.007724709245869e-14 2.844902181438088e-14 2.1697956172171348e-14 4.619413389667826e-14 2.4550167316612305e-14
          1.9971934921092548e-14 3.4751293696013584e-14 1.466046915725691e-14 2.077678467864664e-14 1.9746377845252135e-14 2.884764814858569e-14
          1.9274031260371736e-14 6.371460538115693e-14 1.2235091077178913e-13 4.8670446475532533e-14 7.629478650743641e-14 4.8855742692301386e-14
          8.098828937169744e-14 5.2839488960068274e-14 3.8500786171208386e-14 7.920385112325249e-14 3.039655500433461e-14 4.9734699107898236e-14
          3.436458452608092e-14 5.630537148579415e-14 3.8065510400259285e-14 7.618035256671108e-14 1.0447997229899168e-13 4.694380985160917e-14
          6.528235576597471e-14 5.395443746225986e-14 7.104496009836814e-14 4.281968246667536e-14 1.3277959203127228e-13 8.362090168034024e-14
          8.813548273447641e-14 1.03042436236001e-13 1.409846272912174e-13 6.211895087440627e-14 7.942409818858259e-14 6.771364841409276e-14
          8.86962308930117e-14 5.692428518467344e-14 1.7892681834643384e-13 9.67292455027589e-14 1.0967881337193064e-13 3.851258583204042e-13
          5.140864388837269e-13 2.3324955662802016e-13 3.0732502679077577e-13 2.339993006543829e-13 2.7571423184236145e-13 1.9374955342607027e-13
          6.430470194470496e-13 3.8140049695353137e-13 3.174291630303401e-13 5.727494264786426e-13 9.171712519746192e-13 6.015562564150851e-13
          1.9329568021135548e-12 2.541813455714825e-13 3.8052934668735543e-13 2.9086178321568795e-13 7.601752848332658e-13 3.6847867885130885e-12
          2.2998397929160114e-12 5.9557715274865565e-12 7.837605980900852e-12 4.8250975034067255e-12 8.528921957098256e-12 1.3884196257822286e-12
          8.072122932406674e-13 2.1791701837120774e-12 3.492363336906149e-13 4.567320129704818e-13 3.314097824768922e-13 6.879200753568685e-13
          2.8553082868544624e-12 1.6265226095368946e-12 3.1156422359859246e-12 8.89905451448912e-13 6.175893075920662e-13 9.681984444344358e-13
          1.2674311087702282e-13 2.3295098348699177e-13 2.284034610196646e-13 2.1520322138692762e-13 5.799313669910947e-13 1.0852136396495438e-13
          1.9481031947881247e-13 1.6996312273293725e-13 4.8985692971703e-13 8.599247920107889e-14 1.4183317766575656e-13 1.2598926604845047e-13
          3.479717302806688e-13 9.17852237409378e-14 1.4700721774030475e-13 7.519821397848618e-14 1.1023953195859016e-13 7.010969752307058e-14
          1.1031332979788282e-13 8.264536197206033e-14 3.5019909390827684e-13 2.505565261970842e-13 2.5679768393044096e-13 1.2978879924725695e-12
          1.2697578793662703e-12 1.1889798870543952e-12 2.1267502551106043e-12 1.0656057405130002e-12 9.140694850401663e-13 1.7910645894283523e-12
          2.6387357519918086e-12 2.5894660261784597e-12 2.4459062203689113e-12 2.6351483780483678e-12 2.2208540329352083e-12 1.9350781796828565e-12
          2.292175783598323e-12 7.521029216705524e-13 5.934250952678897e-13 1.2673627997022307e-12 7.390437623618586e-13 4.4765632777031883e-13
          5.341222720247617e-13 3.229666201888131e-13 1.240307407738237e-12 7.516246816322702e-13 8.945928189790311e-13 1.6150695889093058e-12
          1.2891076504057848e-12 1.701349837324351e-12 1.6155452447529371e-12 9.828428677835975e-13 1.177475768200419e-12 7.153985030090691e-13
          1.7303942226762353e-12 1.054554663517013e-12 1.2709320367041122e-12 8.304763833960595e-14 8.146448682979857e-14 1.370538432060918e-13
          1.3436765176537924e-13 6.685287011250433e-14 1.0057105100371798e-13 9.858207986737126e-14 7.690189572248425e-14 1.267007998341249e-13
          9.304495643972643e-14 3.513841885982983e-13 3.440297257225009e-13 2.4105591838105407e-13 3.2295248833300407e-13 6.979409572844229e-14
          1.14872693282784e-13 5.728950828302798e-14 8.451795712926917e-14 6.166923410661505e-14 1.0040659071805079e-13 7.382349653050566e-14
          2.9071478060184695e-13 2.034998191317488e-13 2.5065180285978716e-13 5.681232540951175e-14 8.449631200559022e-14 4.591149635660173e-14
          6.330416681521963e-14 5.595191793770064e-14 7.62046897970637e-14 5.850045067953795e-14 2.0526152020865162e-13 1.439226010071814e-13