<?xml version="1.0"?>
<VTKFile type="UnstructuredGrid" version="0.1" byte_order="LittleEndian" header_type="UInt32" compressor="vtkZLibDataCompressor">
  <UnstructuredGrid>
    <Piece NumberOfPoints="1159" NumberOfCells="796">
      <PointData>
        <DataArray type="Int32" Name="libmesh_node_id" format="ascii" RangeMin="1373" RangeMax="8467">
          1599 1611 1612 1617 1626 1629
          1635 2303 2304 2370 2371 2372
          2373 2374 2375 2376 2378 2379
          2380 2381 2384 2385 2387 2389
          2411 2412 2413 2415 2416 2417
          2419 2421 2423 2434 2435 2436
          2437 2438 2439 2440 2441 2442
          2443 2444 2445 2446 2447 2455
          2799 2802 2804 2809 3522 3523
          3528 3529 3530 3531 3533 3538
          3539 3540 3543 3548 3549 3553
          3690 3691 3695 3696 3697 3698
          3699 3700 3701 3702 3703 3704
          3705 3706 3707 3708 3709 3710
          3711 3712 3713 3714 3715 3723
          3724 3725 3726 3727 3728 3729
          3730 3731 3732 3733 3734 3735
          3736 3737 3738 3739 3740 3741
          3742 3743 3744 3745 3746 3747
          3749 3751 3753 3754 3755 3756
          3757 3758 3759 3760 3761 3762
          3763 3764 3765 3768 3769 3771
          3773 3774 3775 3776 3777 3778
          3779 3780 3781 3783 3785 3787
          3788 3789 3790 3791 3792 3793
          3794 3795 3797 3799 3801 3802
          3803 3804 3805 3806 3807 3808
          3809 3810 3811 3812 3813 3814
          3815 3816 3817 3818 3819 3820
          3821 3822 3823 3824 3825 3826
          3827 3828 3829 3830 3831 3832
          3833 3834 3835 3836 3840 3846
          3847 3848 3849 3850 3851 3852
          4613 4615 4619 4620 4686 4687
          4688 4689 4690 4691 4692 4693
          4694 4695 4696 4697 4698 4699
          4700 4701 4702 4703 4704 4707
          4708 4710 4711 4712 4713 4714
          4715 4716 4717 4718 4719 4720
          4721 4722 4723 4724 4725 4728
          4729 4731 4733 7598 7602 7603
          7606 7607 7608 7609 7610 7611
          7612 7613 7614 7615 7616 7617
          7618 7619 7620 7621 7622 7623
          7624 7625 7626 7627 7628 7629
          7630 7631 7632 7633 7634 7635
          7636 7637 7638 7639 7640 7641
          7642 7643 7644 7645 7646 7647
          7648 7649 7650 7651 7652 7653
          7654 7655 7656 7657 7658 7659
          7660 7661 7662 7663 7664 7665
          7666 7667 7668 7669 7670 7671
          7672 7673 7674 7675 7676 7677
          7678 7679 7680 7681 7682 7683
          7684 7685 7686 7687 7688 7689
          7690 7691 7692 7693 7694 7695
          7696 7697 7698 7699 7700 7701
          7702 7703 7704 7705 7706 7707
          7708 7709 7710 7711 7712 7713
          7714 7715 7716 7717 7718 7719
          7720 7721 7722 7723 7724 7725
          7726 7727 7728 7729 7730 7731
          7732 7733 7734 7735 7736 7737
          7738 7739 7740 7741 7742 7743
          7744 7745 7746 7747 7748 7749
          7750 7751 7752 7753 7754 7755
          7756 7757 7758 7759 7760 7761
          7762 7763 7764 7765 7766 7767
          7768 7771 7775 7782 7783 7784
          7785 7786 7787 7788 7789 7790
          7791 7792 7793 7794 7795 7796
          7797 7798 7799 7800 7801 7802
          7803 7804 7805 7806 7807 7808
          7809 7810 7811 7812 7813 7814
          7815 7816 7817 7818 7819 7820
          7821 7822 7823 7824 7825 7826
          7827 7828 7829 7830 7837 7844
          7845 7846 7847 7848 7849 7850
          7851 7852 7853 7854 7855 7856
          7859 7860 7862 7864 7865 7866
          7867 7868 7869 7870 7871 7872
          7874 7876 7878 7879 7880 7881
          7882 7883 7884 7885 7886 7888
          7890 7892 7893 7894 7895 7896
          7897 7898 7899 7900 7901 7902
          7903 7904 7905 7906 7907 7908
          7909 7910 7911 7912 7913 7914
          7915 7916 7917 7918 7919 7920
          7921 7922 7923 7924 7925 7926
          7927 7928 7929 7930 7931 7932
          7933 7934 7935 7936 7937 7938
          7939 7940 7941 7942 7943 7944
          7945 7946 7947 7948 7949 7950
          7951 7952 7953 7954 7955 7956
          7957 7958 7959 7960 7961 7962
          7963 7964 7965 7966 7967 7968
          7969 7970 7971 7972 7975 7976
          7978 7980 7981 7982 7983 7984
          7985 7986 7987 7988 7989 7990
          7991 7992 7995 7996 7998 8000
          8001 8002 8003 8004 8005 8006
          8007 8008 8010 8012 8014 8015
          8016 8017 8018 8019 8020 8021
          8022 8024 8026 8028 8029 8030
          8031 8032 8033 8034 8035 8036
          8037 8038 8039 8040 8041 8042
          8043 8044 8045 8046 8047 8048
          8049 8050 8051 8052 8053 8054
          8055 8056 8057 8058 8059 8060
          8061 8062 8063 8064 8065 8066
          8067 8068 8069 8070 8071 8072
          8073 8074 8075 8076 8077 8078
          8079 8080 8081 8082 8083 8084
          8085 8086 8087 8088 8089 8090
          8091 8092 8094 8096 8098 8099
          8100 8101 8102 8103 8104 8105
          8106 8108 8110 8112 8113 8114
          8115 8116 8117 8118 8119 8120
          8122 8124 8126 8127 8128 8129
          8130 8131 8132 8133 8134 8136
          8138 8140 8141 8142 8143 8144
          8145 8146 8147 8148 8149 8150
          8151 8152 8153 8154 8155 8156
          8157 8158 8159 8160 8161 8162
          8163 8164 8165 8166 8167 8168
          8169 8170 8171 8172 8173 8174
          8175 8176 8177 8178 8179 8180
          8181 8182 8183 8184 8185 8186
          8187 8188 8189 8190 8191 8192
          8193 8194 8195 8196 8197 8198
          8199 8200 8201 8202 8203 8204
          8206 8208 8210 8211 8212 8213
          8214 8215 8216 8217 8218 8220
          8222 8224 8225 8226 8227 8228
          8229 8230 8231 8232 8234 8236
          8238 8239 8240 8241 8242 8243
          8244 8245 8246 8248 8250 8252
          8253 8254 8255 8256 8257 8258
          8259 8260 8261 8262 8263 8264
          8265 8266 8267 8268 8269 8270
          8271 8272 8273 8274 8275 8276
          8277 8278 8279 8280 8281 8282
          8283 8284 8285 8286 8287 8288
          8289 8290 8291 8292 8293 8294
          8295 8296 8297 8298 8299 8300
          8301 8302 8303 8304 8305 8306
          8307 8308 8309 8310 8311 8312
          8313 8314 8315 8316 8317 8318
          8319 8320 8321 8322 8323 8324
          8325 8326 8327 8328 8329 8330
          8331 8332 8335 8336 8338 8340
          8351 8352 8353 8354 8355 8356
          8357 8358 8359 8360 8361 8362
          8363 8364 8365 8366 8367 8368
          8369 8370 8371 8372 8373 8374
          8375 8376 8377 8378 8379 8380
          8381 8382 8383 8384 8385 8386
          8387 8388 8389 8390 8391 8392
          8393 8394 8395 8396 8397 8398
          8399 8400 8401 8402 8403 8404
          8405 8406 8407 8408 8409 8410
          8411 8412 8413 8415 8417 8419
          8427 8428 8431 8432 8434 8436
          8447 8449 8451 8453 8461 8463
          8465 8467 2306 2377 2382 1373
          2383 2386 2336 2410 2338 2340
          2414 1378 2448 2452 2449 2453
          2811 1613 2450 3693 2394 3587
          3611 3617 3717 3719 2399 3621
          3721 3837 3838 3770 3839 3841
          3842 3843 3845 4623 2457 4629
          4705 3550 4706 4709 2388 3766
          4726 4727 4730 4732 4734 3855
          4735 3859 4741 6862 7062 7068
          2395 7069 7072 3618 7090 7096
          7097 7100 1615 7857 7858 7861
          7863 3750 7873 7875 7877 3752
          3748 7887 7889 7891 2418 7973
          7974 7977 7979 3767 7993 7994
          7997 7999 8009 8011 8013 3772
          8023 8025 8027 2420 7285 7501
          3648 7502 7505 3678 7529 7530
          7533 3682 8093 8095 8097 3782
          8107 8109 8111 3784 8121 8123
          8125 3786 8135 8137 8139 2422
          8205 8207 8209 3796 8219 8221
          8223 3798 8233 8235 8237 3800
          8247 8249 8251 1379 8333 8334
          8337 8339 8341 8342 8343 8344
          8348 8349 8414 8416 8418 3853
          8420 8421 8424 8425 8429 8430
          8433 8435 8448 8450 8452 3857
          8454 8455 8458 8459 8462 8464
          8466
        </DataArray>
        <DataArray type="Float64" Name="bounds" format="ascii" RangeMin="0" RangeMax="0">
          0 0 0 0 0 0
          0 0 0 0 0 0
          0 0 0 0 0 0
          0 0 0 0 0 0
          0 0 0 0 0 0
          0 0 0 0 0 0
          0 0 0 0 0 0
          0 0 0 0 0 0
          0 0 0 0 0 0
          0 0 0 0 0 0
          0 0 0 0 0 0
          0 0 0 0 0 0
          0 0 0 0 0 0
          0 0 0 0 0 0
          0 0 0 0 0 0
          0 0 0 0 0 0
          0 0 0 0 0 0
          0 0 0 0 0 0
          0 0 0 0 0 0
          0 0 0 0 0 0
          0 0 0 0 0 0
          0 0 0 0 0 0
          0 0 0 0 0 0
          0 0 0 0 0 0
          0 0 0 0 0 0
          0 0 0 0 0 0
          0 0 0 0 0 0
          0 0 0 0 0 0
          0 0 0 0 0 0
          0 0 0 0 0 0
          0 0 0 0 0 0
          0 0 0 0 0 0
          0 0 0 0 0 0
          0 0 0 0 0 0
          0 0 0 0 0 0
          0 0 0 0 0 0
          0 0 0 0 0 0
          0 0 0 0 0 0
          0 0 0 0 0 0
          0 0 0 0 0 0
          0 0 0 0 0 0
          0 0 0 0 0 0
          0 0 0 0 0 0
          0 0 0 0 0 0
          0 0 0 0 0 0
          0 0 0 0 0 0
          0 0 0 0 0 0
          0 0 0 0 0 0
          0 0 0 0 0 0
          0 0 0 0 0 0
          0 0 0 0 0 0
          0 0 0 0 0 0
          0 0 0 0 0 0
          0 0 0 0 0 0
          0 0 0 0 0 0
          0 0 0 0 0 0
          0 0 0 0 0 0
          0 0 0 0 0 0
          0 0 0 0 0 0
          0 0 0 0 0 0
          0 0 0 0 0 0
          0 0 0 0 0 0
          0 0 0 0 0 0
          0 0 0 0 0 0
          0 0 0 0 0 0
          0 0 0 0 0 0
          0 0 0 0 0 0
          0 0 0 0 0 0
          0 0 0 0 0 0
          0 0 0 0 0 0
          0 0 0 0 0 0
          0 0 0 0 0 0
          0 0 0 0 0 0
          0 0 0 0 0 0
          0 0 0 0 0 0
          0 0 0 0 0 0
          0 0 0 0 0 0
          0 0 0 0 0 0
          0 0 0 0 0 0
          0 0 0 0 0 0
          0 0 0 0 0 0
          0 0 0 0 0 0
          0 0 0 0 0 0
          0 0 0 0 0 0
          0 0 0 0 0 0
          0 0 0 0 0 0
          0 0 0 0 0 0
          0 0 0 0 0 0
          0 0 0 0 0 0
          0 0 0 0 0 0
          0 0 0 0 0 0
          0 0 0 0 0 0
          0 0 0 0 0 0
          0 0 0 0 0 0
          0 0 0 0 0 0
          0 0 0 0 0 0
          0 0 0 0 0 0
          0 0 0 0 0 0
          0 0 0 0 0 0
          0 0 0 0 0 0
          0 0 0 0 0 0
          0 0 0 0 0 0
          0 0 0 0 0 0
          0 0 0 0 0 0
          0 0 0 0 0 0
          0 0 0 0 0 0
          0 0 0 0 0 0
          0 0 0 0 0 0
          0 0 0 0 0 0
          0 0 0 0 0 0
          0 0 0 0 0 0
          0 0 0 0 0 0
          0 0 0 0 0 0
          0 0 0 0 0 0
          0 0 0 0 0 0
          0 0 0 0 0 0
          0 0 0 0 0 0
          0 0 0 0 0 0
          0 0 0 0 0 0
          0 0 0 0 0 0
          0 0 0 0 0 0
          0 0 0 0 0 0
          0 0 0 0 0 0
          0 0 0 0 0 0
          0 0 0 0 0 0
          0 0 0 0 0 0
          0 0 0 0 0 0
          0 0 0 0 0 0
          0 0 0 0 0 0
          0 0 0 0 0 0
          0 0 0 0 0 0
          0 0 0 0 0 0
          0 0 0 0 0 0
          0 0 0 0 0 0
          0 0 0 0 0 0
          0 0 0 0 0 0
          0 0 0 0 0 0
          0 0 0 0 0 0
          0 0 0 0 0 0
          0 0 0 0 0 0
          0 0 0 0 0 0
          0 0 0 0 0 0
          0 0 0 0 0 0
          0 0 0 0 0 0
          0 0 0 0 0 0
          0 0 0 0 0 0
          0 0 0 0 0 0
          0 0 0 0 0 0
          0 0 0 0 0 0
          0 0 0 0 0 0
          0 0 0 0 0 0
          0 0 0 0 0 0
          0 0 0 0 0 0
          0 0 0 0 0 0
          0 0 0 0 0 0
          0 0 0 0 0 0
          0 0 0 0 0 0
          0 0 0 0 0 0
          0 0 0 0 0 0
          0 0 0 0 0 0
          0 0 0 0 0 0
          0 0 0 0 0 0
          0 0 0 0 0 0
          0 0 0 0 0 0
          0 0 0 0 0 0
          0 0 0 0 0 0
          0 0 0 0 0 0
          0 0 0 0 0 0
          0 0 0 0 0 0
          0 0 0 0 0 0
          0 0 0 0 0 0
          0 0 0 0 0 0
          0 0 0 0 0 0
          0 0 0 0 0 0
          0 0 0 0 0 0
          0 0 0 0 0 0
          0 0 0 0 0 0
          0 0 0 0 0 0
          0 0 0 0 0 0
          0 0 0 0 0 0
          0 0 0 0 0 0
          0 0 0 0 0 0
          0 0 0 0 0 0
          0 0 0 0 0 0
          0 0 0 0 0 0
          0 0 0 0 0 0
          0 0 0 0 0 0
          0 0 0 0 0 0
          0 0 0 0 0 0
          0 0 0 0 0 0
          0 0 0 0 0 0
          0 0 0 0 0 0
          0 0 0 0 0 0
          0
        </DataArray>
        <DataArray type="Float64" Name="gradient_error" format="ascii" RangeMin="5.9197095785343515e-12" RangeMax="6.656868611813003e-8">
          3.290971632120331e-8 5.336701345317628e-10 2.423576633348851e-10 3.047305986057011e-10 2.6382401104650407e-8 2.9433752768787685e-10
          1.4429239202492268e-10 4.5730142763589864e-9 2.4249970376901307e-9 2.0224071179192973e-9 2.589928869063436e-9 5.10028836226445e-10
          3.1036806616497755e-10 1.0238482903614545e-9 1.4491911294415182e-9 2.8356656402447466e-10 2.6614886395522303e-10 5.7596658622309235e-9
          1.0386022347778228e-10 7.058035565952525e-11 5.861919411750516e-11 7.601266655314382e-11 9.897759037098299e-11 7.788002062532393e-11
          7.068467905715521e-10 1.6318321600768478e-8 1.4175407800862363e-10 1.6446410293257838e-9 2.3305572419363702e-8 3.799895038662054e-10
          6.418016432773711e-11 1.0495796735231293e-9 1.5679531753134166e-10 3.28936219446535e-9 7.377711109260507e-9 2.8522609439689324e-9
          9.589186423083448e-9 1.94366714330523e-9 4.031623742259345e-9 3.6039242587988844e-10 2.470749769590436e-10 1.0387574001227375e-9
          1.632663782224131e-9 2.519869024990459e-10 5.190214325536461e-9 1.210549359191185e-10 2.0604619290147583e-9 4.546304527461421e-11
          1.0451700108549524e-9 7.107709311415554e-10 2.441967663179776e-10 7.349100217103543e-11 4.913719752261792e-10 3.1784456940370326e-9
          2.463134045845445e-10 4.1365946614547247e-10 2.651531238209379e-10 1.7774235740704657e-9 1.1880381191495416e-9 6.39672659743908e-11
          1.5600234793276584e-10 9.511845275162121e-11 1.5878598268047708e-10 2.195707781296408e-11 5.82342434895284e-11 6.14574097239923e-11
          7.543975974446144e-9 4.69470587740682e-9 4.121874876418488e-9 4.979753603462331e-10 2.553309376091642e-9 2.748685268000037e-10
          8.46340672362757e-9 1.3322368310598151e-9 4.837203926375391e-9 1.1750514146229965e-9 2.6676778908341024e-9 1.4289121615654047e-9
          4.75340514759984e-9 6.92282543175321e-10 1.4436118325732255e-9 1.491744927813197e-10 1.3719156520219726e-10 4.928426202864319e-10
          7.986846299084035e-10 1.1102276890639827e-10 2.6064341002772665e-9 3.324876198038984e-10 1.346928652084185e-9 1.3820082372810565e-8
          2.518927209657373e-9 7.646615182515902e-9 1.3397516803090652e-9 1.6037913474447e-8 3.0021863522740614e-9 8.91784901415543e-9
          7.426574350462782e-9 3.807093451423324e-9 8.761770914506568e-9 4.1070910780556925e-9 6.138113986334798e-10 2.0791312378914974e-9
          2.487201168285927e-10 4.86559126512962e-9 7.605802133299568e-10 2.4676833416963802e-9 3.4862033600980237e-10 2.4207904543611877e-10
          1.845925009246168e-10 1.2526208165937735e-10 1.0319011432476036e-9 7.764866049708298e-10 5.235627607370907e-10 1.6187076914981273e-10
          8.230745425407627e-11 5.578944477558704e-10 2.6455479780043003e-10 8.578112938147554e-11 8.812271261647133e-11 5.258246189083946e-11
          5.842499674467991e-11 7.776655783050446e-11 6.305506922356163e-11 4.0276047466136575e-11 2.342479287725812e-10 1.6419392394758619e-10
          9.458331313027934e-11 3.2270896895760266e-11 3.773319949841091e-11 2.968781130080077e-11 2.5384308193383818e-11 1.1112364276778652e-10
          4.2329385299963644e-11 2.0947109907115695e-9 1.681264107705343e-9 1.0662470271011618e-9 8.203322968814197e-10 2.525053762518792e-9
          2.0622423072294146e-9 1.3374287644807595e-9 1.2882256788094075e-9 6.02321399235927e-10 1.613776380410441e-9 7.853032633110237e-10
          4.614609790247968e-10 3.3917980037180414e-10 1.7562870894310046e-10 1.2379873063921915e-10 5.84382255168415e-10 4.3703264176932663e-10
          2.1924733023398671e-10 2.3933621315325897e-10 8.44187388316838e-11 3.131749889328107e-10 1.0829758269120456e-10 4.5042765822721374e-10
          6.242518871995981e-10 4.715219993200102e-10 9.854932588107952e-10 3.409604773688249e-10 4.1363652504496715e-10 1.7202171382081886e-10
          1.4917813665790043e-10 2.379948176174476e-10 3.4060712590842235e-10 1.6061117708676055e-10 5.647879182372445e-10 9.892802615678178e-11
          3.8670441750602415e-10 1.356255229658763e-9 6.936198199413817e-10 1.5396000578679182e-9 7.486367079907448e-10 9.215323128884606e-11
          4.1938301183375284e-10 1.041417741795868e-10 8.536967763127452e-10 1.1054764843323619e-10 4.789589768500455e-10 9.080314995750077e-11
          8.182888904367575e-11 5.5775616367464114e-11 5.083977744058827e-11 5.754515599499833e-11 8.960813726693623e-11 5.51677237853284e-11
          5.950676824120422e-11 3.838309664918547e-11 7.25103539162032e-11 3.420491933035686e-11 2.0017784527443736e-11 6.127447798249155e-11
          4.157563756643588e-11 5.953825421553361e-11 3.813167955754756e-11 7.472804904434563e-11 5.1295211621369386e-11 7.04753220631986e-11
          2.7531740897032503e-10 1.0901356105844449e-10 3.8230017722077715e-10 1.404979149630713e-10 2.445447435753391e-10 3.373621499669063e-10
          2.6758926279527285e-10 1.729975557769139e-10 2.708368674442538e-10 7.87529154980605e-11 1.5873981398865754e-10 1.4032824853138237e-10
          2.0923293612481152e-10 1.1478209054612927e-10 4.43407547120095e-11 9.034255253528059e-11 2.5557161811569452e-11 5.41163482963478e-11
          3.6075623944397114e-11 6.291981975790047e-11 3.743365038780089e-11 1.475671828893618e-11 3.263263350662747e-11 1.1648712261592282e-11
          2.222114704113011e-11 2.430128421276174e-10 2.809542030383169e-10 2.2790605892739668e-10 3.188955639490164e-10 1.9333370554175264e-10
          2.1983442941579735e-10 1.0751430275377237e-10 1.2041138995090754e-10 1.4997316329086e-10 1.6077761753115658e-10 7.162531979109184e-11
          2.4633515328984206e-10 1.3330847714804268e-10 1.7158207177145315e-10 5.80896723897794e-11 6.654043262967457e-11 3.90672510277067e-11
          3.9264919614827224e-11 7.499119286956972e-11 3.946258820194775e-11 4.1942420873040636e-10 3.662892377846619e-10 2.812898004924928e-10
          6.222089058159431e-10 2.7208336478482846e-10 3.332489727014227e-10 2.5500748175443646e-10 5.452369961919106e-10 2.2200354792487576e-10
          2.864625033639062e-10 1.5141126925188748e-10 2.1365711877915752e-10 1.676762737859073e-10 2.1698137180553976e-10 1.5840385088836143e-10
          4.789002907050202e-10 3.747844509119775e-10 3.583187935003468e-10 1.376940867966054e-9 1.0775519428277823e-9 2.1063362745161995e-9
          1.2737049656945146e-9 1.0933215801684166e-9 9.905171797624286e-10 8.393262609184808e-10 1.9743459589799474e-9 1.7414251929680127e-9
          1.5245155114896823e-9 8.267071872801286e-10 6.193418915637831e-10 1.233375983110549e-9 7.518236432044299e-10 6.251850792810727e-10
          5.563458024353202e-10 4.525819021855197e-10 1.1440716353883397e-9 9.86044031174213e-10 8.361086606955422e-10 1.5309657761428268e-10
          1.9047683114285545e-10 1.3976272571923725e-10 3.035428584817612e-10 1.2397890436206412e-10 1.6057307659556028e-10 8.253215071599095e-11
          1.1495492767255297e-10 9.039260764738099e-11 1.1661908521232562e-10 8.1706397315763e-11 2.615394796173154e-10 1.9661588489102858e-10
          1.8690218048508134e-10 7.958491697514525e-11 9.819869681029632e-11 8.286311484528511e-11 1.5186106959649436e-10 6.480327845082327e-11
          8.186895807199404e-11 4.2719409410618773e-11 5.6692602178870915e-11 5.527449644643106e-11 6.824150617452894e-11 4.61204039443725e-11
          1.2876358948618463e-10 9.33455334627582e-11 9.842652650299438e-11 4.507743352067909e-10 3.2254655094546116e-10 6.513490298598245e-10
          4.00514958227161e-10 3.189494898357936e-10 2.824165965131573e-10 2.1906065350350763e-10 5.92346063391922e-10 4.917597591653338e-10
          4.1130910490548515e-10 2.2172550747906226e-10 1.5417232126689056e-10 3.097274875673464e-10 1.929143693201647e-10 1.472438036800989e-10
          1.3113026549935413e-10 9.617813007577449e-11 2.758982140333886e-10 2.1963204093611974e-10 1.8589715616559684e-10 3.0115445081756682e-9
          2.3291057740299028e-9 3.6701598275415588e-9 2.8325806651308994e-9 2.5367097614673934e-9 2.183602209828544e-9 1.9382663501803566e-9
          3.549946211043072e-9 3.2986387297568387e-9 2.740934066457808e-9 1.7515322401411876e-9 1.2859534885171773e-9 2.155616186982219e-9
          1.6334960031125822e-9 1.4330068281808474e-9 1.1873921473344922e-9 1.0229671954283522e-9 2.0586666902620763e-9 1.8711796460038454e-9
          1.5044769567696821e-9 4.1994517890537e-9 3.28001823249666e-9 4.461167167617991e-9 4.05283991260823e-9 3.7619582858578345e-9
          3.14465187931413e-9 2.8907642278764752e-9 4.245752224965049e-9 3.883304581084489e-9 3.309813731313898e-9 2.4723048125106366e-9
          1.8422625034445688e-9 2.6270447279125653e-9 2.3686306791431857e-9 2.1682360565850425e-9 1.7436267950880488e-9 1.5661839520273197e-9
          2.495544877012459e-9 2.264742640220281e-9 1.8432071376097528e-9 9.065467111664916e-10 6.3383172269243e-10 1.1221285834926858e-9
          8.320788385220612e-10 7.06172719105185e-10 5.718489238972664e-10 4.717998808987586e-10 1.0524591953153741e-9 9.240081847722046e-10
          7.226713638816047e-10 4.1887553216845097e-10 2.856526487454694e-10 5.160376083441288e-10 3.771202204439453e-10 3.0731746721386837e-10
          2.501805439664199e-10 1.9519905948972002e-10 4.725844766161133e-10 3.9624280152603427e-10 3.113793943425566e-10 1.29302626291189e-9
          9.11108712230139e-10 1.3745107595732303e-9 1.2211599284821377e-9 1.0853659703128116e-9 8.400688562736701e-10 7.210248951282172e-10
          1.291985222642553e-9 1.1435864054795617e-9 8.897490176011156e-10 5.941329625777395e-10 4.0415392701515244e-10 6.310281500800138e-10
          5.472936201729931e-10 4.6398657452439613e-10 3.594878506061845e-10 2.894347770418306e-10 5.790984972959978e-10 4.893207339340257e-10
          3.8000868732443196e-10 2.2692578462973907e-10 4.152077425726225e-10 2.916495944879971e-10 1.1803910277971947e-10 1.701179526348897e-10
          9.519544620884677e-11 1.3876711801515238e-10 8.677314577761515e-11 1.2450691766974864e-10 1.0081102201503036e-10 3.087583002845674e-10
          2.571667688984314e-10 2.2349676887873532e-10 7.70986671647963e-11 1.1346402002637293e-10 6.21395208805256e-11 9.228472958144022e-11
          5.60463206186668e-11 8.199496374063812e-11 6.641885366591205e-11 2.138119040903944e-10 1.7653911288631834e-10 1.525068893079786e-10
          9.497170754520046e-10 8.232439478406003e-10 7.214089351396918e-10 6.200032353792182e-10 1.550727238990143e-9 1.3760987891197392e-9
          1.1736513064404218e-9 7.082616121515284e-10 6.031736828103998e-10 5.293825426855371e-10 4.477213803881948e-10 1.2104075819542077e-9
          1.0532074890696238e-9 8.998663693552818e-10 5.312559687132042e-10 4.524674631710413e-10 3.7973621228131455e-10 3.2040945108120247e-10
          8.589033745376044e-10 7.475480242119516e-10 6.079832465976161e-10 3.833484510619932e-10 3.219668284920581e-10 2.6936007210805086e-10
          2.246901312246067e-10 6.458800173566171e-10 5.524772054643595e-10 4.4809888319131425e-10 1.989928340298297e-10 1.302574713090271e-10
          4.969722393951854e-11 7.445453450699268e-11 3.940099312276496e-11 5.95217577573402e-11 3.5905319529274586e-11 5.340232129963244e-11
          4.2564645331462715e-11 1.4444648847099508e-10 1.1701285372907837e-10 1.0202209532846484e-10 3.095439434682128e-11 4.712812098698377e-11
          2.226695020481791e-11 3.3609292662347355e-11 9.380846080915653e-11 6.57424081571308e-11 5.078706778066094e-10 4.2253618181878034e-10
          3.745646253940723e-10 3.097800491553793e-10 9.056100832206383e-10 7.689526333957171e-10 6.622429554862451e-10 3.4724488774946427e-10
          2.531971018225702e-10 6.44412713752266e-10 4.640600389038547e-10 2.676543729754278e-10 2.2008213717357063e-10 1.8564370980679033e-10
          1.5180251875660828e-10 4.67312204837898e-10 3.906320748957114e-10 3.18842239720127e-10 1.7893974501132876e-10 1.2280846122359214e-10
          3.225953111925335e-10 2.1700080029175459e-10 6.291896802668041e-11 8.927787366858093e-11 5.0052162191169316e-11 7.171036143108633e-11
          4.479868771698393e-11 6.25936731228382e-11 4.9798269229596e-11 1.577235020406113e-10 1.2913682980314337e-10 1.0858480484494333e-10
          4.006678435504142e-11 5.7972108977503845e-11 3.201590068760186e-11 4.6741114531396524e-11 2.8105979434591054e-11 4.006158284778598e-11
          3.221771101389833e-11 1.0601403661139582e-10 8.66241018658543e-11 7.187559055879726e-11 3.10708493204702e-11 4.2391939720760146e-11
          2.388193038583281e-11 3.3179092653268656e-11 2.576653208754079e-11 3.389762189168644e-11 2.6139576885607226e-11 7.28176957400877e-11
          5.848177886236248e-11 5.352106256762067e-11 1.927490192914135e-11 2.672120692443914e-11 1.572496268734792e-11 2.1614947293057014e-11
          1.5921715353773415e-11 2.113887891468811e-11 1.723673563482361e-11 4.740163861706027e-11 3.834032129328493e-11 3.4455356721149517e-11
          2.6394993719921364e-10 2.2058866764757442e-10 1.7880905350700895e-10 1.4797760004899856e-10 4.170423375790371e-10 3.5525914570300533e-10
          2.7804425980249466e-10 1.8401970272730923e-10 1.524865115074516e-10 1.225051529888646e-10 1.008605999599415e-10 3.0122529559946403e-10
          2.533097830210617e-10 1.9681910383790623e-10 1.1844498722366506e-10 9.705892391775675e-11 7.619481097648372e-11 6.184979465249914e-11
          1.8066016565218291e-10 1.5054106883080764e-10 1.1480776780392615e-10 7.972681751386548e-11 6.519771266518653e-11 5.040595095428399e-11
          4.093852599483675e-11 1.2536931296113467e-10 1.0379477726790307e-10 7.808822484182213e-11 2.5472955157786763e-11 3.745439988658085e-11
          2.0131630610445728e-11 2.9772763150810067e-11 1.784091074016896e-11 2.5726540044188458e-11 2.0370500189932812e-11 7.023173463485973e-11
          5.642696004721819e-11 4.7156793808066716e-11 1.574750207715236e-11 2.3438769784508816e-11 1.0963655616384408e-11 1.5988999892897975e-11
          4.4902643797370395e-11 2.99083365311427e-11 1.2367423959019355e-11 1.716251978583098e-11 9.579300040243759e-12 1.3470573248292303e-11
          1.0298566147856205e-11 1.361488266911483e-11 1.0599098830082573e-11 3.0816740510695296e-11 2.4559919686250018e-11 2.2259400818350235e-11
          7.512815797761208e-12 1.0562843079160876e-11 6.208505384629918e-12 8.31759037594571e-12 1.9386312499454e-11 1.3937772163720328e-11
          1.2524550737749104e-10 1.0187085860379747e-10 8.23695460144084e-11 6.665076623137013e-11 2.1093358464614403e-10 1.738062919713291e-10
          1.3574624992228963e-10 8.202066115894116e-11 5.341190454074292e-11 1.4166645188487805e-10 9.003622368016248e-11 5.295511982350728e-11
          4.264483961768961e-11 3.308941733948533e-11 2.6537244008853322e-11 8.522584499881951e-11 6.933164022243176e-11 5.235073283334444e-11
          3.400979209196332e-11 2.1057818693612008e-11 5.585413024077115e-11 3.391145325023446e-11 2.308456472216239e-9 2.087828997513112e-9
          1.7468461058444198e-9 1.5667202227511077e-9 3.0353773692261903e-9 2.771796788100696e-9 2.3048659036102815e-9 1.8712412241900614e-9
          1.6594644701537777e-9 1.3923126191004628e-9 1.2239194578438782e-9 2.5107018722555444e-9 2.253815975189005e-9 1.88651548989438e-9
          1.2766954945690633e-9 1.1330782971005045e-9 8.996336253679005e-10 7.892179597934502e-10 1.6950237206492036e-9 1.5259739020367528e-9
          1.1984094943947752e-9 9.969043141997696e-10 8.677247822809101e-10 6.869168494390372e-10 5.917971793954317e-10 1.3610675679197459e-9
          1.2007682860431425e-9 9.402909883305923e-10 3.4689634938868076e-9 3.171960671405925e-9 2.657339717689266e-9 2.428424277935545e-9
          3.581744520370374e-9 3.2726622800726984e-9 2.76032915560657e-9 2.8792033625290073e-9 2.5951301543890985e-9 2.2012413303661507e-9
          1.9761970062057407e-9 2.968539649000577e-9 2.6759923761908567e-9 2.292369727285313e-9 1.9791069696749446e-9 1.7953403375044625e-9
          1.4132279493839935e-9 1.2674455058484726e-9 2.070942877461733e-9 1.882733595079203e-9 1.4876572438860467e-9 1.613569544457708e-9
          1.4345414739027502e-9 1.1263103588951642e-9 9.899769364226125e-10 1.6959550135933759e-9 1.5113268988461505e-9 1.1913246460873433e-9
          1.4545814253415573e-9 1.259095690973362e-9 1.0631520168364722e-9 9.118670067377656e-10 2.002572653075619e-9 1.7587294378377656e-9
          1.4809919466186067e-9 1.0754639842846656e-9 7.717927764991411e-10 1.5247256429240328e-9 1.1055853457237896e-9 7.464241230911997e-10
          6.34137246022337e-10 5.041055047126992e-10 4.2432435167547463e-10 1.046724781629858e-9 9.008780518554097e-10 7.072938188927753e-10
          5.318536435706064e-10 3.528281296228946e-10 7.65095302427232e-10 5.064210314622617e-10 2.3203935573737717e-9 2.0541425393931198e-9
          1.7546257901660983e-9 1.5387886510945765e-9 2.3958203864759595e-9 2.125819707663489e-9 1.8354275126092635e-9 1.7965605954657863e-9
          1.3316098432823489e-9 1.8645243956790726e-9 1.4001960523493151e-9 1.2602545698049084e-9 1.093069439465018e-9 8.597865771099242e-10
          7.373454723233455e-10 1.3309110269400361e-9 1.157174206753368e-9 9.136545984460834e-10 9.353657025084092e-10 6.241367415534277e-10
          9.926218809499912e-10 6.661698200974115e-10 6.117548663428026e-10 5.302085256885972e-10 4.0273762393329406e-10 3.4474477527996343e-10
          8.138011136114938e-10 7.148349185849632e-10 5.32428707116894e-10 4.564770962355798e-10 3.8932874374510924e-10 2.936667002416442e-10