<?xml version="1.0"?>
<VTKFile type="UnstructuredGrid" version="0.1" byte_order="LittleEndian" header_type="UInt32" compressor="vtkZLibDataCompressor">
  <UnstructuredGrid>
    <Piece NumberOfPoints="414" NumberOfCells="230">
      <PointData>
        <DataArray type="Int32" Name="libmesh_node_id" format="ascii" RangeMin="382" RangeMax="3805">
          837 839 858 863 875 879
          881 883 1511 1514 1515 1518
          1520 1522 1523 1526 1527 1529
          1531 1566 1567 1568 1569 1570
          1571 1572 1573 1575 1577 1579
          1600 1601 1602 1603 1604 1605
          1606 1607 1609 1611 1613 1692
          1693 1694 1695 1696 1697 1698
          1699 1700 1701 1702 1703 1706
          1707 1709 1711 1825 1826 1827
          1829 1830 1831 1832 1835 1836
          2746 2769 2770 2773 2775 2777
          2778 2779 2780 2781 2782 2783
          2784 2785 2786 2841 2901 2902
          2955 2957 2960 2969 2973 2974
          2977 2978 2979 2980 2984 2990
          2991 2994 2996 2998 3000 3002
          3003 3004 3005 3006 3007 3008
          3009 3010 3011 3012 3015 3016
          3017 3020 3021 3025 3026 3027
          3028 3029 3030 3031 3032 3033
          3034 3035 3038 3039 3042 3045
          3049 3050 3051 3052 3053 3054
          3055 3056 3057 3058 3061 3062
          3064 3066 3205 3206 3209 3212
          3213 3216 3217 3218 3219 3220
          3221 3222 3223 3224 3225 3226
          3227 3228 3229 3230 3233 3234
          3237 3240 3241 3244 3245 3246
          3247 3248 3249 3250 3251 3252
          3253 3254 3255 3256 3257 3258
          3261 3262 3265 3268 3272 3273
          3274 3275 3276 3277 3278 3279
          3280 3282 3284 3286 3289 3290
          3293 3296 3300 3301 3302 3303
          3304 3305 3306 3307 3308 3310
          3312 3314 3746 3747 3748 3751
          3752 3753 3755 3756 3757 3758
          3759 3760 3761 3762 3763 3764
          3765 3766 3768 3769 3770 3772
          3773 3774 3775 3776 3777 3778
          3779 3780 3781 3782 3783 3784
          3785 3786 3787 3788 3789 3790
          3791 3792 3793 3794 3795 3796
          3797 3798 3799 3800 3801 3802
          3803 3804 3805 827 830 382
          833 829 832 835 834 874
          876 389 878 877 880 882
          394 1074 1072 384 1505 1493
          1506 1524 1507 1525 1528 838
          1530 1574 1576 859 1704 1610
          1705 1708 1710 1833 1834 1837
          2702 2738 2742 2705 2707 2744
          2740 2743 2745 2748 2752 2754
          2756 2741 2839 2899 2900 2843
          2903 2905 1551 2904 1560 2906
          2908 2910 2912 2952 2958 2982
          2988 2959 2989 2986 2992 2993
          3013 3014 3018 2909 3019 3022
          3023 1561 3024 3036 3037 3040
          3041 3043 3044 3046 3047 3048
          1578 3059 3060 3063 3065 3203
          3204 3207 3208 3210 3211 3214
          3215 3231 3232 3235 3236 3238
          3239 3242 3243 3259 3260 3263
          3264 3266 3267 3269 3270 3271
          1608 3281 3283 3285 3287 3288
          3291 3292 3294 3295 3297 3298
          3299 1612 3309 3311 3313 392
        </DataArray>
        <DataArray type="Float64" Name="bounds" format="ascii" RangeMin="0" RangeMax="0">
          0 0 0 0 0 0
          0 0 0 0 0 0
          0 0 0 0 0 0
          0 0 0 0 0 0
          0 0 0 0 0 0
          0 0 0 0 0 0
          0 0 0 0 0 0
          0 0 0 0 0 0
          0 0 0 0 0 0
          0 0 0 0 0 0
          0 0 0 0 0 0
          0 0 0 0 0 0
          0 0 0 0 0 0
          0 0 0 0 0 0
          0 0 0 0 0 0
          0 0 0 0 0 0
          0 0 0 0 0 0
          0 0 0 0 0 0
          0 0 0 0 0 0
          0 0 0 0 0 0
          0 0 0 0 0 0
          0 0 0 0 0 0
          0 0 0 0 0 0
          0 0 0 0 0 0
          0 0 0 0 0 0
          0 0 0 0 0 0
          0 0 0 0 0 0
          0 0 0 0 0 0
          0 0 0 0 0 0
          0 0 0 0 0 0
          0 0 0 0 0 0
          0 0 0 0 0 0
          0 0 0 0 0 0
          0 0 0 0 0 0
          0 0 0 0 0 0
          0 0 0 0 0 0
          0 0 0 0 0 0
          0 0 0 0 0 0
          0 0 0 0 0 0
          0 0 0 0 0 0
          0 0 0 0 0 0
          0 0 0 0 0 0
          0 0 0 0 0 0
          0 0 0 0 0 0
          0 0 0 0 0 0
          0 0 0 0 0 0
          0 0 0 0 0 0
          0 0 0 0 0 0
          0 0 0 0 0 0
          0 0 0 0 0 0
          0 0 0 0 0 0
          0 0 0 0 0 0
          0 0 0 0 0 0
          0 0 0 0 0 0
          0 0 0 0 0 0
          0 0 0 0 0 0
          0 0 0 0 0 0
          0 0 0 0 0 0
          0 0 0 0 0 0
          0 0 0 0 0 0
          0 0 0 0 0 0
          0 0 0 0 0 0
          0 0 0 0 0 0
          0 0 0 0 0 0
          0 0 0 0 0 0
          0 0 0 0 0 0
          0 0 0 0 0 0
          0 0 0 0 0 0
          0 0 0 0 0 0
        </DataArray>
        <DataArray type="Float64" Name="gradient_error" format="ascii" RangeMin="3.623936261503344e-11" RangeMax="2.7929563368547012e-8">
          5.265422969001676e-10 8.454158384930672e-10 7.555673559983814e-10 9.919712542557938e-10 1.0050781101353798e-9 1.4903022789430953e-9
          1.2830852012823823e-9 1.865224369354992e-9 2.409959099620957e-10 2.3842489355673736e-10 2.7473340310029665e-10 3.7421792398526206e-10
          3.0400959411271275e-10 8.932683854594956e-11 1.3489153770706325e-10 7.718864181635514e-11 1.3746056853876716e-10 1.9430179478672968e-10
          2.2673463790965143e-10 1.7668897034633314e-9 7.774232404528346e-10 1.5617407320251282e-9 6.47017284069369e-10 4.76983218205295e-9
          2.2784389768042037e-9 1.762087803253e-9 3.5724111984861114e-10 2.936105763313765e-10 9.713228120422883e-10 3.5114732301494334e-10
          8.86002723446327e-9 4.455495177316456e-9 1.8983445377306344e-9 8.188916322456721e-10 1.0907012584478451e-8 5.5858918024711605e-9
          2.266591514420089e-9 1.9488387073357632e-9 3.792030334310515e-10 2.4675231065000853e-9 4.0286727301145386e-10 1.7925429927243127e-9
          1.1155018115666905e-9 6.603745871660866e-10 4.2256396555919247e-10 1.7177343297784935e-9 1.7339529333835044e-9 6.456373054291571e-10
          1.1303843059227916e-9 4.657755551666468e-10 1.6754725380412865e-9 3.049311089962837e-10 2.2043622123649474e-10 1.8118092581954119e-10
          2.3192963301404915e-10 1.7700615930966507e-10 2.6155279858748473e-10 1.9024575157015805e-9 5.003130083833839e-10 7.186911750855405e-10
          1.2918445853288788e-9 3.92014111407581e-10 1.8244600394072777e-10 2.6671708421929445e-10 1.2270592024499302e-10 1.413806522217309e-10
          3.409143619620428e-10 8.67069818889215e-11 1.4052363052251773e-10 1.0859151432231412e-10 3.271416180244207e-10 5.722346497582185e-11
          8.874149227386689e-11 4.7693035622520445e-11 6.918926144499964e-11 4.741263691355469e-11 6.89499002842451e-11 5.5464310767605515e-11
          2.098179858759375e-10 1.5671615389277738e-10 1.425750227448459e-10 1.2309338643004914e-9 8.136877167445015e-10 5.20551404064655e-10
          7.262460340572954e-10 3.9878971554967237e-10 1.1748310124554043e-9 9.22981480873753e-10 1.4610697763568975e-10 2.094585143134855e-10
          1.4487152556661578e-10 5.931274011521034e-10 3.84126055959106e-10 3.854092063520659e-10 3.0268927632972883e-9 2.0676220406053315e-9
          1.394289983821188e-9 3.326881749512012e-9 1.5311265771178967e-9 9.915317002458665e-10 2.3492981289024938e-9 1.0023768605556107e-9
          6.595527725571653e-10 6.360141630863608e-10 4.1502745377795516e-10 1.5630994778239437e-9 1.039484732244317e-9 8.13058663531331e-10
          4.744050686406728e-10 3.004589226637682e-10 2.5500038130698444e-10 1.8495878293575e-10 5.045032579208382e-10 1.1459458384123946e-10
          1.8277009098971777e-10 8.510920210038418e-11 1.2825888326827583e-10 2.2866767936139734e-10 9.125644516303922e-11 1.3035192490435516e-10
          7.161919891338086e-11 9.966282629615163e-11 6.622286789549005e-11 9.042592303943467e-11 7.141498835841294e-11 2.439929733947746e-10
          1.7520945964818924e-10 1.5905034597659652e-10 9.181232210212685e-10 5.849339307209784e-10 1.5141123531312988e-9 3.5915033538919446e-10
          6.003916567333794e-10 4.263847644492083e-10 2.684955159172798e-10 2.6625264790542225e-10 1.686461254081761e-10 6.77481417165267e-10
          4.292661938238465e-10 3.392961201975931e-10 1.2031908586441704e-10 1.6353052906384006e-10 8.085405557634536e-11 1.0285840298042217e-10
          2.626218135222761e-10 1.5709824609365617e-10 9.8221931765943e-9 6.843510492511305e-9 1.2526923132078432e-8 4.848335374222234e-9
          3.3635057980392184e-9 6.360438277423194e-9 4.816978336028874e-9 3.299204278047966e-9 2.423101132640139e-9 1.498983132189235e-9
          5.965078094246283e-9 4.20432044235337e-9 3.026770842141857e-9 2.2266348650816488e-9 1.490774355752582e-9 9.81860518228533e-10
          6.405075596872277e-10 2.8695732750596557e-9 1.9324237555586444e-9 1.2537180982900013e-9 1.4560883329880941e-8 1.0350978566447082e-8
          1.5411781596960478e-8 7.489186971100124e-9 5.2785217562852535e-9 7.908426821916315e-9 6.783395547993292e-9 4.868426386647432e-9
          3.422438749897064e-9 2.168531585300713e-9 7.111531413963394e-9 5.115048174237238e-9 3.574771015729466e-9 3.34218622983259e-9
          2.259247417345575e-9 1.4421604386761001e-9 9.45576416079624e-10 3.5166951925256305e-9 2.3798900547777912e-9 1.5109859259471747e-9
          2.255321583253875e-9 1.4545995213234063e-9 3.0078904178040967e-9 9.012464812722156e-10 1.210043981059675e-9 9.782208438779395e-10
          6.225008418039596e-10 4.085982908743582e-10 3.0501575350515297e-10 1.2726166156401005e-9 8.123346161374451e-10 5.254036350738296e-10
          3.8124981322274254e-10 2.2500104548818452e-10 4.994262450894336e-10 2.3170081742836387e-10 3.5785779541921017e-9 2.3258580042391996e-9
          3.792415269546191e-9 1.4464188032963303e-9 1.5354627275053597e-9 1.4892887583844908e-9 9.511722223441235e-10 6.088057361471364e-10
          3.811850049982586e-10 1.5690541256686644e-9 1.0021745775753198e-9 6.395733946194555e-10 5.876072601544259e-10 2.3173753812423998e-10
          6.203600017941807e-10 2.46258024692712e-10 1.0239938246342123e-9 5.982961048887794e-10 6.851572370677279e-10 4.469543407969724e-10
          1.2948149260251987e-9 8.443832134713738e-10 3.8397315652263784e-10 4.35937831040538e-10 2.4589820860875385e-10 2.785724431001032e-10
          2.7893034375868265e-10 2.8339439273155537e-10 1.804757082843672e-10 5.335263788507307e-10 3.412070334917838e-10 3.1223802154706723e-10
          1.4597489883205929e-9 9.574395044317486e-10 5.625696442201124e-10 1.5177117945788629e-9 9.98130951167426e-10 6.057818464606447e-10
          3.882675548425005e-10 3.5149172917811546e-10 2.2283299968682613e-10 6.324134407782659e-10 4.053677202928859e-10 3.663658569665246e-10
          1.5058054076281351e-10 1.7279593187189675e-10 1.1880552920581823e-10 1.3316842412193962e-10 1.1156119561346927e-10 1.1752750254359596e-10
          9.731208148390759e-11 2.1488664959031635e-10 1.462164182556e-10 1.3213310884217802e-10 2.462182546079933e-10 1.5346633730750609e-10
          1.4324988072864733e-10 9.490342456312014e-11 2.5767453301633387e-10 1.613737067506426e-10 1.4572735324666132e-10 8.947148855551737e-11
          9.325445118691771e-11 6.891416880842367e-11 7.004124680176891e-11 6.691009602577744e-11 6.328283459330041e-11 5.084460653458164e-11
          9.703741381831804e-11 7.116832479511414e-11 5.965557316082336e-11 8.609738502173845e-10 2.192335307769668e-10 1.9135469959124194e-10
          5.196606868171052e-10 6.14895692003318e-10 1.3561033679718683e-10 1.7942572243880445e-10 8.239845037457078e-10 1.0498746069382721e-9
          2.3390289236668154e-10 3.971646608283291e-10 9.039035228960826e-10 2.2294974145850837e-10 3.7559901257532815e-10 2.5679501327859703e-10
          5.526064249235302e-10 1.8697968734489574e-10 8.206325736808589e-10 2.0867725068947319e-10 1.3999641043478179e-10 2.4489166396295373e-10
          1.282933046487608e-10 3.623936261503344e-11 8.174596437336668e-11 8.707283709174267e-11 5.657026780855226e-11 1.182453434689505e-10
          1.5547348483616473e-10 1.7547126645092408e-10 1.6062374192158407e-10 1.9060283042745586e-10 1.7953124250535292e-10 2.2255785955403815e-10
          1.743414575552302e-10 8.321509767295499e-11 1.2422213349015458e-10 7.241839453226041e-11 1.0415188498066863e-10 5.953318091744034e-11
          2.987072276443459e-10 1.9253160937612122e-10 1.3562918275475243e-10 2.132894751580222e-10 7.769143151780984e-10 5.09056956495888e-10
          1.2116267554757847e-10 9.523048110694511e-11 3.2303641482718357e-10 7.427883415669524e-11 6.216861738048987e-11 1.980618961676774e-10
          1.548073434827428e-10 7.982177250590404e-11 1.9140335198585887e-9 1.2796026285017389e-9 8.242275804815696e-10 4.34547923865732e-9
          2.9728267071927632e-9 1.7966959397392995e-9 2.6716445536082742e-9 1.9424217494805915e-9 1.161061347966579e-9 5.098351814172453e-10
          3.202707955463678e-10 1.2104989966144548e-9 7.198504085520653e-10 3.1839089823314036e-9 2.195470616448303e-9 5.6551126525515415e-9
          4.037483942103654e-9 1.4910672695841541e-9 2.8080229500627657e-9 9.1203578987821e-9 6.714624885404866e-9 4.772623947241238e-9
          9.871421197967052e-10 6.314994214270979e-10 6.708709309652404e-11 1.8991816689642213e-10 1.0784177375550523e-10 7.525178273655885e-11
          3.882620714140937e-10 4.278486321409233e-10 2.3025280351397672e-10 1.886740674844122e-9 1.2188168949737627e-9 3.2535431431887666e-9
          2.120872808926262e-9 7.550295771371525e-10 4.489200826203448e-10 2.1316151667359994e-10 1.3210303030640805e-9 7.868431581841895e-10
          3.571666489141566e-10 7.163378455221914e-11 9.68980953876094e-11 6.100241939844708e-11 1.5541406696452725e-10 1.7471685972186533e-8
          1.3274687588165923e-8 2.2436956679608604e-8 1.739517141489353e-8 9.99591058300841e-9 7.2386464029527834e-9 1.327414335456025e-8
          9.739214275323369e-9 2.62837605000294e-8 2.0507594401201563e-8 2.7929563368547012e-8 2.167730751026269e-8 1.5732983566847118e-8
          1.1620456738832592e-8 1.6649662050487884e-8 1.2320990310620627e-8 5.003448867752256e-9 3.2928594363556946e-9 6.810303999617105e-9
          4.51884013957655e-9 2.0624376597584815e-9 1.2304196717454766e-9 5.363421434957263e-10 2.8453725332711825e-9 1.7012813390823642e-9
          7.202411037719861e-10 2.2571694399321507e-10 1.320058359339092e-10 2.961977182285185e-10 8.188968525150674e-9 5.465632034692694e-9
          8.705771295390331e-9 5.823378350306594e-9 3.454492659946725e-9 2.0696501263156583e-9 8.612139420491228e-10 3.6855355763242e-9
          2.209821614216385e-9 9.143502326768824e-10 3.4980997514896473e-10 1.6517826162341903e-10 3.6999267412126784e-10 1.9742185107783505e-10
        </DataArray>
        <DataArray type="Float64" Name="gradient_matprop_error" format="ascii" RangeMin="0" RangeMax="0">
          0 0 0 0 0 0
          0 0 0 0 0 0
          0 0 0 0 0 0
          0 0 0 0 0 0
          0 0 0 0 0 0
          0 0 0 0 0 0
          0 0 0 0 0 0
          0 0 0 0 0 0
          0 0 0 0 0 0
          0 0 0 0 0 0
          0 0 0 0 0 0
          0 0 0 0 0 0
          0 0 0 0 0 0
          0 0 0 0 0 0
          0 0 0 0 0 0
          0 0 0 0 0 0
          0 0 0 0 0 0
          0 0 0 0 0 0
          0 0 0 0 0 0
          0 0 0 0 0 0
          0 0 0 0 0 0
          0 0 0 0 0 0
          0 0 0 0 0 0
          0 0 0 0 0 0
          0 0 0 0 0 0
          0 0 0 0 0 0
          0 0 0 0 0 0
          0 0 0 0 0 0
          0 0 0 0 0 0
          0 0 0 0 0 0
          0 0 0 0 0 0
          0 0 0 0 0 0
          0 0 0 0 0 0
          0 0 0 0 0 0
          0 0 0 0 0 0
          0 0 0 0 0 0
          0 0 0 0 0 0
          0 0 0 0 0 0
          0 0 0 0 0 0
          0 0 0 0 0 0
          0 0 0 0 0 0
          0 0 0 0 0 0
          0 0 0 0 0 0
          0 0 0 0 0 0
          0 0 0 0 0 0
          0 0 0 0 0 0
          0 0 0 0 0 0
          0 0 0 0 0 0
          0 0 0 0 0 0
          0 0 0 0 0 0
          0 0 0 0 0 0
          0 0 0 0 0 0
          0 0 0 0 0 0
          0 0 0 0 0 0
          0 0 0 0 0 0
          0 0 0 0 0 0
          0 0 0 0 0 0
          0 0 0 0 0 0
          0 0 0 0 0 0
          0 0 0 0 0 0
          0 0 0 0 0 0
          0 0 0 0 0 0
          0 0 0 0 0 0
          0 0 0 0 0 0
          0 0 0 0 0 0
          0 0 0 0 0 0
          0 0 0 0 0 0
          0 0 0 0 0 0
          0 0 0 0 0 0
        </DataArray>
        <DataArray type="Float64" Name="initial_marker" format="ascii" RangeMin="0" RangeMax="2">
          2 0 1 2 0 0
          0 0 1.5 0 0 0
          0.5 0 0 0 0 0.25
          0 2 2 0.5 0.25 2
          2 1.5 1.75 0 2 1
          2 2 2 2 2 2
          2 2 1.25 2 2 0
          0 0 0 0 0 0
          0 0 0 0 0 0
          0 0 0 0 0 0
          0 0 0 0 0 0
          1.75 0 0.5 0 1.5 0
          0.25 0 0 0 0 0
          1.25 1 0.6666666666666666 2 2 2
          2 1.5 2 1.5 0 0.5
          0 1.5 1.25 1 2 2
          2 2 2 2 2 2
          1.75 2 1.5 2 2 1.6666666666666667
          2 1.75 1.5 1.3333333333333333 2 1
          1.5 0 1 2 0 0.5
          0 0.5 0 0 0 1
          1 0 2 2 2 2
          2 1.5 1.5 1 1 2
          2 1.3333333333333333 1 1.25 0 0.5
          1.75 1.5 2 2 2 2
          2 2 2 2 2 2
          2 2 2 2 2 1.75
          1.5 2 2 2 2 2
          2 2 2 2 2 2
          2 2 2 2 2 2
          2 2 2 2 2 2
          2 2 2 2 2 2
          2 1.25 1.3333333333333333 2 2 1.75
          2 2 2 1.3333333333333333 2 2
          2 2 2 2 2 2
          1.75 2 2 2 2 1.25
          2 1.5 1 1 1 0
          1 1 0.5 0.75 0 0.5
          0 0 0 1 1 0
          1 1 0 1 1 1
          1 0 0 1 1 0
          0 0.25 0 0 0 0
          0 0.75 0.3333333333333333 0 1 0.75
          0 0 1 1 0 0
          0.25 0 0 0 0 0
          0.5 0 0 0 0 0
          0 0 0 0 0 0
          0 0 0 0 0 0
          0 0 0 0 0 0
          0 0 0 0 0 1.25
          0 1.5 0 0.5 0 1
          0 0 0 0 0 0
          1.5 1.25 0.75 1 2 2
          1 0.6666666666666666 2 1 1 2
          2 0 2 2 2 2
          2 2 2 2 2 2
          2 2 2 2 2 2
          2 2 2 2 2 2
          2 2 1 2 1.5 1
          2 2 2 2 2 2
          2 2 2 2 2 2
          2 1 1 0 1.5 2
          2 2 2 2 2 2
          2 2 2 2 2 2
          2 2 2 2 2 2
          2 2 2 2 2 2
          2 2 2 2 2 2
          2 2 2 2 2 2
          2 2 2 1.3333333333333333 2 1
        </DataArray>
        <DataArray type="Float64" Name="markers_norefine" format="ascii" RangeMin="0" RangeMax="0">
          0 0 0 0 0 0
          0 0 0 0 0 0
          0 0 0 0 0 0
          0 0 0 0 0 0
          0 0 0 0 0 0
          0 0 0 0 0 0
          0 0 0 0 0 0
          0 0 0 0 0 0
          0 0 0 0 0 0
          0 0 0 0 0 0
          0 0 0 0 0 0
          0 0 0 0 0 0
          0 0 0 0 0 0
          0 0 0 0 0 0
          0 0 0 0 0 0
          0 0 0 0 0 0
          0 0 0 0 0 0
          0 0 0 0 0 0
          0 0 0 0 0 0
          0 0 0 0 0 0
          0 0 0 0 0 0
          0 0 0 0 0 0
          0 0 0 0 0 0
          0 0 0 0 0 0
          0 0 0 0 0 0
          0 0 0 0 0 0
          0 0 0 0 0 0
          0 0 0 0 0 0
          0 0 0 0 0 0
          0 0 0 0 0 0
          0 0 0 0 0 0
          0 0 0 0 0 0
          0 0 0 0 0 0
          0 0 0 0 0 0
          0 0 0 0 0 0
          0 0 0 0 0 0
          0 0 0 0 0 0
          0 0 0 0 0 0
          0 0 0 0 0 0
          0 0 0 0 0 0
          0 0 0 0 0 0
          0 0 0 0 0 0
          0 0 0 0 0 0
          0 0 0 0 0 0
          0 0 0 0 0 0
          0 0 0 0 0 0
          0 0 0 0 0 0
          0 0 0 0 0 0
          0 0 0 0 0 0
          0 0 0 0 0 0
          0 0 0 0 0 0
          0 0 0 0 0 0
          0 0 0 0 0 0
          0 0 0 0 0 0
          0 0 0 0 0 0
          0 0 0 0 0 0
          0 0 0 0 0 0
          0 0 0 0 0 0
          0 0 0 0 0 0
          0 0 0 0 0 0
          0 0 0 0 0 0
          0 0 0 0 0 0
          0 0 0 0 0 0
          0 0 0 0 0 0
          0 0 0 0 0 0
          0 0 0 0 0 0
          0 0 0 0 0 0
          0 0 0 0 0 0
          0 0 0 0 0 0
        </DataArray>
        <DataArray type="Float64" Name="markers_mustrefine" format="ascii" RangeMin="0" RangeMax="2">
          2 0 1 2 0 0
          0 0 1.5 0 0 0
          0.5 0 0 0 0 0.25
          0 2 2 0.5 0.25 2
          2 1.5 1.75 0 2 1
          2 2 2 2 2 2
          2 2 1.25 2 2 0
          0 0 0 0 0 0
          0 0 0 0 0 0
          0 0 0 0 0 0
          0 0 0 0 0 0
          1.75 0 0.5 0 1.5 0
          0.25 0 0 0 0 0
          1.25 1 0.6666666666666666 2 2 2
          2 1.5 2 1.5 0 0.5
          0 1.5 1.25 1 2 2
          2 2 2 2 2 2
          1.75 2 1.5 2 2 1.6666666666666667
          2 1.75 1.5 1.3333333333333333 2 1
          1.5 0 1 2 0 0.5
          0 0.5 0 0 0 1
          1 0 2 2 2 2
          2 1.5 1.5 1 1 2
          2 1.3333333333333333 1 1.25 0 0.5
          1.75 1.5 2 2 2 2
          2 2 2 2 2 2
          2 2 2 2 2 1.75
          1.5 2 2 2 2 2
          2 2 2 2 2 2
          2 2 2 2 2 2
          2 2 2 2 2 2
          2 2 2 2 2 2
          2 1.25 1.3333333333333333 2 2 1.75
          2 2 2 1.3333333333333333 2 2
          2 2 2 2 2 2
          1.75 2 2 2 2 1.25
          2 1.5 1 1 1 0
          1 1 0.5 0.75 0 0.5
          0 0 0 1 1 0
          1 1 0 1 1 1
          1 0 0 1 1 0
          0 0.25 0 0 0 0
          0 0.75 0.3333333333333333 0 1 0.75
          0 0 1 1 0 0
          0.25 0 0 0 0 0
          0.5 0 0 0 0 0
          0 0 0 0 0 0
          0 0 0 0 0 0
          0 0 0 0 0 0
          0 0 0 0 0 1.25
          0 1.5 0 0.5 0 1
          0 0 0 0 0 0
          1.5 1.25 0.75 1 2 2
          1 0.6666666666666666 2 1 1 2
          2 0 2 2 2 2
          2 2 2 2 2 2
          2 2 2 2 2 2
          2 2 2 2 2 2
          2 2 1 2 1.5 1
          2 2 2 2 2 2
          2 2 2 2 2 2
          2 1 1 0 1.5 2
          2 2 2 2 2 2
          2 2 2 2 2 2
          2 2 2 2 2 2
          2 2 2 2 2 2
          2 2 2 2 2 2
          2 2 2 2 2 2
          2 2 2 1.3333333333333333 2 1
        </DataArray>
        <DataArray type="Float64" Name="gradient_marker" format="ascii" RangeMin="1" RangeMax="1">
          1 1 1 1 1 1
          1 1 1 1 1 1
          1 1 1 1 1 1
          1 1 1 1 1 1
          1 1 1 1 1 1
          1 1 1 1 1 1
          1 1 1 1 1 1
          1 1 1 1 1 1
          1 1 1 1 1 1
          1 1 1 1 1 1
          1 1 1 1 1 1
          1 1 1 1 1 1
          1 1 1 1 1 1
          1 1 1 1 1 1
          1 1 1 1 1 1
          1 1 1 1 1 1
          1 1 1 1 1 1
          1 1 1 1 1 1
          1 1 1 1 1 1
          1 1 1 1 1 1
          1 1 1 1 1 1
          1 1 1 1 1 1
          1 1 1 1 1 1
          1 1 1 1 1 1
          1 1 1 1 1 1
          1 1 1 1 1 1
          1 1 1 1 1 1
          1 1 1 1 1 1
          1 1 1 1 1 1
          1 1 1 1 1 1
          1 1 1 1 1 1
          1 1 1 1 1 1
          1 1 1 1 1 1
          1 1 1 1 1 1
          1 1 1 1 1 1
          1 1 1 1 1 1
          1 1 1 1 1 1
          1 1 1 1 1 1
          1 1 1 1 1 1
          1 1 1 1 1 1
          1 1 1 1 1 1
          1 1 1 1 1 1
          1 1 1 1 1 1
          1 1 1 1 1 1
          1 1 1 1 1 1
          1 1 1 1 1 1
          1 1 1 1 1 1
          1 1 1 1 1 1
          1 1 1 1 1 1
          1 1 1 1 1 1
          1 1 1 1 1 1
          1 1 1 1 1 1
          1 1 1 1 1 1
          1 1 1 1 1 1
          1 1 1 1 1 1
          1 1 1 1 1 1
          1 1 1 1 1 1
          1 1 1 1 1 1
          1 1 1 1 1 1
          1 1 1 1 1 1
          1 1 1 1 1 1
          1 1 1 1 1 1
          1 1 1 1 1 1
          1 1 1 1 1 1
          1 1 1 1 1 1
          1 1 1 1 1 1
          1 1 1 1 1 1
          1 1 1 1 1 1
          1 1 1 1 1 1
        </DataArray>
        <DataArray type="Float64" Name="gradient_matprop_marker" format="ascii" RangeMin="0" RangeMax="0">
          0 0 0 0 0 0
          0 0 0 0 0 0
          0 0 0 0 0 0
          0 0 0 0 0 0
          0 0 0 0 0 0
          0 0 0 0 0 0
          0 0 0 0 0 0
          0 0 0 0 0 0
          0 0 0 0 0 0
          0 0 0 0 0 0
          0 0 0 0 0 0
          0 0 0 0 0 0
          0 0 0 0 0 0
          0 0 0 0 0 0
          0 0 0 0 0 0
          0 0 0 0 0 0
          0 0 0 0 0 0
          0 0 0 0 0 0
          0 0 0 0 0 0
          0 0 0 0 0 0
          0 0 0 0 0 0
          0 0 0 0 0 0
          0 0 0 0 0 0
          0 0 0 0 0 0
          0 0 0 0 0 0
          0 0 0 0 0 0
          0 0 0 0 0 0
          0 0 0 0 0 0
          0 0 0 0 0 0
          0 0 0 0 0 0
          0 0 0 0 0 0
          0 0 0 0 0 0
          0 0 0 0 0 0
          0 0 0 0 0 0
          0 0 0 0 0 0
          0 0 0 0 0 0
          0 0 0 0 0 0
          0 0 0 0 0 0
          0 0 0 0 0 0
          0 0 0 0 0 0
          0 0 0 0 0 0
          0 0 0 0 0 0
          0 0 0 0 0 0
          0 0 0 0 0 0
          0 0 0 0 0 0
          0 0 0 0 0 0
          0 0 0 0 0 0
          0 0 0 0 0 0
          0 0 0 0 0 0
          0 0 0 0 0 0
          0 0 0 0 0 0
          0 0 0 0 0 0
          0 0 0 0 0 0
          0 0 0 0 0 0
          0 0 0 0 0 0
          0 0 0 0 0 0
          0 0 0 0 0 0
          0 0 0 0 0 0
          0 0 0 0 0 0
          0 0 0 0 0 0
          0 0 0 0 0 0
          0 0 0 0 0 0
          0 0 0 0 0 0
          0 0 0 0 0 0
          0 0 0 0 0 0
          0 0 0 0 0 0
          0 0 0 0 0 0
          0 0 0 0 0 0
          0 0 0 0 0 0
        </DataArray>
        <DataArray type="Float64" Name="combo" format="ascii" RangeMin="1" RangeMax="1">
          1 1 1 1 1 1
          1 1 1 1 1 1
          1 1 1 1 1 1
          1 1 1 1 1 1
          1 1 1 1 1 1
          1 1 1 1 1 1
          1 1 1 1 1 1
          1 1 1 1 1 1
          1 1 1 1 1 1
          1 1 1 1 1 1
          1 1 1 1 1 1
          1 1 1 1 1 1
          1 1 1 1 1 1
          1 1 1 1 1 1
          1 1 1 1 1 1
          1 1 1 1 1 1
          1 1 1 1 1 1
          1 1 1 1 1 1
          1 1 1 1 1 1
          1 1 1 1 1 1
          1 1 1 1 1 1
          1 1 1 1 1 1
          1 1 1 1 1 1
          1 1 1 1 1 1
          1 1 1 1 1 1
          1 1 1 1 1 1
          1 1 1 1 1 1
          1 1 1 1 1 1
          1 1 1 1 1 1
          1 1 1 1 1 1
          1 1 1 1 1 1
          1 1 1 1 1 1
          1 1 1 1 1 1
          1 1 1 1 1 1
          1 1 1 1 1 1
          1 1 1 1 1 1
          1 1 1 1 1 1
          1 1 1 1 1 1
          1 1 1 1 1 1
          1 1 1 1 1 1
          1 1 1 1 1 1
          1 1 1 1 1 1
          1 1 1 1 1 1
          1 1 1 1 1 1
          1 1 1 1 1 1
          1 1 1 1 1 1
          1 1 1 1 1 1
          1 1 1 1 1 1
          1 1 1 1 1 1
          1 1 1 1 1 1
          1 1 1 1 1 1
          1 1 1 1 1 1
          1 1 1 1 1 1
          1 1 1 1 1 1
          1 1 1 1 1 1
          1 1 1 1 1 1
          1 1 1 1 1 1
          1 1 1 1 1 1
          1 1 1 1 1 1
          1 1 1 1 1 1
          1 1 1 1 1 1
          1 1 1 1 1 1
          1 1 1 1 1 1
          1 1 1 1 1 1
          1 1 1 1 1 1
          1 1 1 1 1 1
          1 1 1 1 1 1
          1 1 1 1 1 1
          1 1 1 1 1 1
        </DataArray>
        <DataArray type="Float64" Name="dHdT" format="ascii" RangeMin="25.811944966124187" RangeMax="32.70296280377924">
          25.9055996340796 25.831677769560702 25.89990749371348 25.99239670470878 25.825317451730378 25.819746203503577
          25.829412500483194 25.821412861549586 25.848066793023477 25.820684721503373 25.825143583701106 25.825150975161463
          25.84938855390217 25.81555411790341 25.81741754615684 25.815229876056154 25.817154674541328 25.82610103005579
          25.821363737355863 26.14440736296521 25.951208415758398 25.922181988345027 25.855179180971504 26.70652437767157
          26.215624130193888 26.030422496702656 25.86573178280807 25.828439851070314 25.97713311808435 25.8451608827783
          27.52248472468752 26.605405197420378 26.173271212880366 25.961589909205596 27.97011374717869 26.81322442360124
          26.241237026772712 26.145005039059026 25.86896703602409 26.234873104509624 25.882730537952085 25.888575456493143
          25.894168300520782 25.841401121957173 25.845206578816867 25.859983679890057 25.867241127239936 25.835207773350035
          25.902462323593433 25.84937414738289 25.870366176882808 25.823930587678316 25.825381599447688 25.819740826337032
          25.82124652794053 25.826423557505343 25.822041136416132 25.873478917436984 25.830328611937972 25.83613357478984
          25.848742046686066 25.826827277287066 25.819202210529074 25.821415298636754 25.817443796039726 25.81823676462443
          25.871332989414686 25.830833166737555 25.840487495091963 25.83570556127083 25.87205273104201 25.82379456271574
          25.82974727624979 25.82111155767288 25.825573468156527 25.822230213369444 25.82659902597309 25.823041584164592
          25.849576964373977 25.839204913567112 25.83907716089399 26.027746616274847 25.95099810378258 25.898994292058568
          25.94025183270147 25.88554073161484 26.027774185298846 25.997037381122684 25.843932439717303 25.855437929099985
          25.84533252844015 25.929283955456228 25.88629066639193 25.896299265849336 26.379264453805277 26.188734119746915
          26.05951251353706 26.416877716825674 26.108772508692752 26.01568973656199 26.257194617792294 26.003296520456544
          25.934421126352 25.94176143352429 25.893851968198426 26.103500530705823 26.000679810513866 25.97466403055275
          25.893441791405564 25.862667815989525 25.858190241268005 25.844907537759337 25.900306151085886 25.83157841897473
          25.842982668352228 25.826896946472807 25.834522169262186 25.85123915772392 25.831913005850588 25.839185754539127
          25.827602579426337 25.833086246661445 25.82808696239863 25.832827092985163 25.82837467724879 25.858600064543033
          25.84515252587025 25.844959138136524 25.97097436260383 25.911380188269504 26.074395300498477 25.87245129947698
          25.912405851498846 25.889206233909967 25.859965225852598 25.862994608231794 25.84358983997076 25.93184434497835
          25.88656397651241 25.876194575154646 25.834452423942842 25.841291361543078 25.827496441473826 25.831375677415387
          25.857324233604388 25.840334614998454 27.744091454250196 27.108346773535235 28.374547202974455 26.696670785761707