<?xml version="1.0"?>
<VTKFile type="UnstructuredGrid" version="0.1" byte_order="LittleEndian" header_type="UInt32" compressor="vtkZLibDataCompressor">
  <UnstructuredGrid>
    <Piece NumberOfPoints="432" NumberOfCells="238">
      <PointData>
        <DataArray type="Int32" Name="libmesh_node_id" format="ascii" RangeMin="99" RangeMax="4238">
          99 100 101 102 103 104
          105 106 121 122 123 124
          132 133 134 135 136 137
          138 139 154 155 156 157
          165 166 167 168 169 170
          171 172 187 188 189 190
          198 199 200 201 202 203
          204 205 220 221 222 223
          443 444 445 446 447 448
          449 450 451 452 453 454
          455 456 3849 3850 3851 3852
          3853 3855 3856 3857 3858 3859
          3860 3861 3862 3863 3864 3865
          3866 3867 3868 3869 3870 3871
          3872 3873 3874 3875 3876 3877
          3878 3879 3880 3881 3882 3883
          3884 3885 3886 3887 3888 3889
          3890 3891 3892 3893 3894 3895
          3896 3897 3898 3899 3900 3901
          3902 3903 3904 3905 3906 3907
          3908 3909 3910 3911 3912 3913
          3914 3915 3916 3917 3918 3919
          3920 3921 3922 3923 3924 3925
          3926 3927 3928 3929 3930 3931
          3932 3933 3934 3935 3936 3937
          3938 3939 3940 3941 3951 3952
          3953 3954 3955 3956 3957 3958
          3959 3960 3961 3962 3963 3964
          3975 3976 3977 3978 3979 3980
          3981 3982 3983 3984 3985 3986
          3987 3988 3989 3990 3991 3992
          3993 3994 3995 3996 3997 3998
          3999 4000 4001 4002 4003 4004
          4005 4006 4007 4008 4009 4010
          4011 4012 4013 4014 4015 4016
          4017 4018 4019 4020 4021 4022
          4023 4024 4025 4026 4027 4028
          4029 4030 4031 4032 4033 4034
          4035 4036 4037 4038 4039 4040
          4041 4042 4043 4044 4045 4046
          4047 4048 4049 4050 4051 4052
          4053 4054 4055 4056 4057 4058
          4059 4060 4061 4062 4063 4064
          4065 4066 4067 4068 4069 4070
          4071 4072 4073 4074 4075 4076
          4077 4078 4079 4080 4081 4082
          4083 4084 4085 4086 4087 4088
          4089 4090 4091 4092 4093 4094
          4095 4096 4097 4098 4099 4100
          4101 4102 4103 4104 4105 4106
          4107 4108 4109 4110 4111 4112
          4113 4114 4115 4116 4117 4118
          4119 4120 4121 4122 4123 4124
          4125 4126 4127 4128 4129 4130
          4131 4132 4133 4134 4135 4136
          4137 4138 4139 4140 4141 4142
          4143 4144 4145 4146 4147 4148
          4149 4150 4151 4152 4153 4154
          4155 4156 4157 4158 4159 4160
          4161 4162 4163 4164 4165 4166
          4167 4168 4169 4170 4171 4172
          4173 4174 4175 4176 4177 4178
          4179 4180 4181 4182 4183 4184
          4185 4186 4187 4188 4189 4190
          4191 4192 4193 4194 4195 4196
          4197 4198 4199 4200 4201 4202
          4203 4204 4205 4206 4207 4208
          4209 4210 4211 4212 4213 4214
          4215 4216 4217 4218 4219 4220
          4221 4222 4223 4224 4225 4226
          4227 4228 4229 4230 4231 4232
          4233 4234 4235 4236 4237 4238
        </DataArray>
        <DataArray type="Float64" Name="bounds" format="ascii" RangeMin="0" RangeMax="0">
          0 0 0 0 0 0
          0 0 0 0 0 0
          0 0 0 0 0 0
          0 0 0 0 0 0
          0 0 0 0 0 0
          0 0 0 0 0 0
          0 0 0 0 0 0
          0 0 0 0 0 0
          0 0 0 0 0 0
          0 0 0 0 0 0
          0 0 0 0 0 0
          0 0 0 0 0 0
          0 0 0 0 0 0
          0 0 0 0 0 0
          0 0 0 0 0 0
          0 0 0 0 0 0
          0 0 0 0 0 0
          0 0 0 0 0 0
          0 0 0 0 0 0
          0 0 0 0 0 0
          0 0 0 0 0 0
          0 0 0 0 0 0
          0 0 0 0 0 0
          0 0 0 0 0 0
          0 0 0 0 0 0
          0 0 0 0 0 0
          0 0 0 0 0 0
          0 0 0 0 0 0
          0 0 0 0 0 0
          0 0 0 0 0 0
          0 0 0 0 0 0
          0 0 0 0 0 0
          0 0 0 0 0 0
          0 0 0 0 0 0
          0 0 0 0 0 0
          0 0 0 0 0 0
          0 0 0 0 0 0
          0 0 0 0 0 0
          0 0 0 0 0 0
          0 0 0 0 0 0
          0 0 0 0 0 0
          0 0 0 0 0 0
          0 0 0 0 0 0
          0 0 0 0 0 0
          0 0 0 0 0 0
          0 0 0 0 0 0
          0 0 0 0 0 0
          0 0 0 0 0 0
          0 0 0 0 0 0
          0 0 0 0 0 0
          0 0 0 0 0 0
          0 0 0 0 0 0
          0 0 0 0 0 0
          0 0 0 0 0 0
          0 0 0 0 0 0
          0 0 0 0 0 0
          0 0 0 0 0 0
          0 0 0 0 0 0
          0 0 0 0 0 0
          0 0 0 0 0 0
          0 0 0 0 0 0
          0 0 0 0 0 0
          0 0 0 0 0 0
          0 0 0 0 0 0
          0 0 0 0 0 0
          0 0 0 0 0 0
          0 0 0 0 0 0
          0 0 0 0 0 0
          0 0 0 0 0 0
          0 0 0 0 0 0
          0 0 0 0 0 0
          0 0 0 0 0 0
        </DataArray>
        <DataArray type="Float64" Name="gradient_error" format="ascii" RangeMin="2.6515985486640204e-9" RangeMax="0.0000013899006325303625">
          1.4069867336893248e-8 1.3243710138305235e-8 8.087991875826274e-9 8.454630933985137e-9 1.0275796303766866e-8 6.645645185606515e-9
          7.097750247008595e-9 4.874674397836307e-9 2.932273613347311e-9 2.8393945310770253e-9 3.0154940674461647e-9 2.6515985486640204e-9
          3.1111702899127444e-8 2.7183750666686563e-8 1.1889491406707451e-8 1.2792893062922886e-8 1.7305214448880472e-8 1.034439094153789e-8
          1.486099818579252e-8 1.016777694374689e-8 9.809642951718656e-9 9.289837452005295e-9 1.0942289465453848e-8 1.177524537243349e-8
          1.498911476421039e-7 1.2599135537380845e-7 2.692264208061191e-7 2.9356779297771333e-7 1.1673920467669405e-7 2.232098927297843e-7
          1.8509595408416463e-7 1.7576895041442397e-7 1.4425463320660626e-8 1.524249077336615e-8 1.3074427978797661e-8 1.1823026928231866e-8
          4.139717197907415e-7 5.136437760181456e-7 2.6221574921798505e-7 3.0362724549976816e-7 7.068598772790831e-7 1.8993552509002873e-7
          0.0000010201246787421787 1.6793318748971063e-7 6.03128303639701e-8 6.273204874138703e-8 5.132567412649114e-8 2.4977817076134377e-8
          5.873472798202429e-7 4.190323840340935e-7 2.4016159022292144e-7 8.348389879360912e-7 0.0000012383270417436392 7.176377697913198e-7
          5.714001400371775e-7 1.9402814747169107e-7 2.129832074165251e-7 2.1438815805542226e-7 0.0000012410116562718002 0.0000010458116138955915
          9.64808083870141e-7 2.285944185225317e-7 1.2089070934289336e-8 9.42500436979698e-8 1.3487457258892573e-7 8.496553669319466e-8
          6.474867716472226e-8 3.5056500797463593e-8 3.5247310631474706e-8 1.41511178263173e-7 3.3157955863578255e-7 3.4073772443042786e-7
          5.603937248126734e-7 5.829252304328536e-7 6.238159630064299e-7 6.215544524425427e-7 3.107705774380096e-7 6.257866146169216e-7
          6.247299841404839e-7 3.77445965494029e-7 4.059072102068022e-7 4.205665618657098e-7 3.705832179414712e-7 4.4721827502196393e-7
          6.281567185113762e-7 6.003422211530442e-7 6.818330343949861e-7 2.9100278085543104e-7 1.1430905152199203e-7 2.868479689323622e-7
          6.736254437295024e-7 6.209938366959845e-7 2.654639638765315e-7 7.248336947444368e-7 6.119666842091315e-7 3.241114080961154e-7
          3.2669400109487873e-7 2.805038852950273e-7 5.987207045472294e-7 7.434351129556365e-7 8.116231293026406e-7 2.2710358287364615e-7
          1.394939703292454e-7 2.4934146004890867e-7 7.787294414848414e-7 5.960338609538764e-7 2.5998190740977343e-7 2.384364190443592e-7
          8.4492725447824e-7 8.85880810538838e-7 1.6025310093331738e-7 1.878504430944828e-8 1.5438033204688297e-8 5.855647694542831e-8
          3.236636639253488e-8 3.823892295155445e-9 1.4443072967943073e-8 1.4719678559994034e-8 9.832790958140834e-8 4.929469958038147e-8
          2.5062253640730702e-8 2.2094320382437105e-7 1.788580281132602e-7 1.6657042699930798e-7 2.951646719402067e-7 2.8228492093349735e-7
          2.3667909226038665e-7 2.5042493510323383e-7 1.8656034167917224e-7 2.75491588212978e-7 2.2936644586453706e-7 1.3677285240214938e-7
          1.9107326358727595e-7 2.05685198266261e-7 1.8324130351609607e-7 8.64308807641501e-7 7.555157625265136e-7 7.382367465311562e-7
          9.527692618999027e-7 5.601120959012776e-7 0.0000011497774460556794 0.0000012541344140632146 0.000001242286898047033 0.0000011519194377572568
          0.0000013676479938189993 0.0000013414841251776327 8.613741657770708e-7 8.36033770624376e-7 8.848534984068308e-7 0.0000011232778508860507
          0.0000012680424274485523 0.0000011616448256593608 0.0000013899006325303625 0.0000010052670250884263 2.740186552347102e-7 2.8715851535373186e-7
          3.5387499531275637e-7 3.6575575469149887e-7 2.583976765316547e-7 3.388060608971361e-7 1.611464575886399e-7 2.154410411022231e-7
          2.135053975930799e-7 2.2322538151687692e-7 4.337313353908025e-7 4.443529940292658e-7 4.192144452626176e-7 2.697356246158063e-7
          3.772161797077202e-8 2.3322205360471518e-8 2.4715423771799417e-8 6.94540179146609e-8 6.29325651883453e-8 4.024642597716289e-8
          4.2680396694173295e-8 1.9870369939961147e-8 4.939372045204047e-8 3.5510650255069996e-8 8.922792750171017e-9 1.7560286765980485e-8
          1.5906775473685682e-8 2.1627580058099517e-8 2.665809223578828e-8 1.5474854230467995e-8 3.818732422047688e-8 3.2204583179286685e-8
          1.0649905237855162e-8 3.8359651602886154e-8 3.4274309411172526e-8 4.291616225147712e-9 2.622184213809649e-8 3.018896721945889e-8
          1.1032708991552673e-8 7.444273893627852e-9 5.540561384596826e-8 4.435312361989263e-8 3.855838795703032e-9 3.3300633393817004e-8
          4.291987952312062e-8 4.735884125460989e-8 1.0895565086784782e-7 1.1648395818823811e-7 3.230693504473597e-8 9.059279627915968e-8
          1.593485181529995e-8 3.900737585823797e-8 3.9693204742125636e-8 3.721494399786943e-8 1.74991422212575e-7 1.8560907512186635e-7
          1.4887865751358339e-7 6.2079899901176e-8 2.0614016187558502e-8 6.848479698253526e-8 1.2894431767408126e-8 4.694964980235908e-8
          1.177967549885719e-8 3.446612730628412e-8 3.028839037375661e-8 1.1635557777751204e-7 8.100486783731004e-8 5.7152579113711053e-8
          1.216240561712597e-8 3.1102258327364866e-8 6.705192686153578e-9 2.38768843661407e-8 5.004211103760376e-8 4.104857604612782e-8
          1.9881652380258967e-7 1.892324176258853e-7 1.9080112400040932e-7 3.3523207244605016e-7 3.355331300733256e-7 3.020437465380188e-7
          3.021786142236697e-7 1.8531028850324662e-7 3.3617770300039304e-7 3.0161169237978264e-7 1.796483114491809e-7 2.6855436300271204e-7
          2.691251560012893e-7 2.670456817591723e-7 5.66798393751692e-7 5.363145012148113e-7 5.311271131216087e-7 5.493820516723199e-7
          4.784097533400623e-7 1.9043842732754705e-7 1.806583387065614e-7 3.368174725381799e-7 3.009693787596035e-7 1.7599234921208779e-7
          3.3707611757901303e-7 2.99943253017449e-7 1.7087825008557575e-7 2.6512128498102713e-7 2.628103884558849e-7 6.034751554162143e-7
          5.662258782857648e-7 5.845732843227124e-7 4.967206288725677e-7 5.323502309879802e-7 5.424138356989519e-7 5.988489488525221e-7
          5.891626817542202e-7 5.677960870036563e-7 6.233714747640791e-7 5.735564825467411e-7 5.673463506706891e-7 5.892481124867094e-7
          4.234806202385814e-7 5.399239707255739e-7 5.296272417121531e-7 5.65891942439837e-7 6.082285423615103e-7 6.009399185811215e-7
          6.554925393244411e-7 6.38672410341225e-7 6.918567593526549e-7 6.095682866965816e-7 6.318985188749584e-7 4.781260440786271e-7
          5.998137408899981e-7 6.384611068826952e-7 6.537377900225506e-7 3.286095349485832e-7 3.2864346761183984e-7 3.786882420899936e-7
          3.778642508483484e-7 3.2846833916786445e-7 3.8069678067191474e-7 2.3365102723284073e-7 2.655475810925971e-7 2.670109328757789e-7
          2.6184419889491286e-7 4.287669492314039e-7 4.270850340848571e-7 4.329252221759651e-7 2.9744413495235346e-7 3.284187901940174e-7
          3.833240365977698e-7 3.282200007989647e-7 3.8595366160335753e-7 2.2462889608096273e-7 2.5755665987013735e-7 2.5315139382088307e-7
          4.3822928300152214e-7 4.4368732240775044e-7 2.9048442365931197e-7 1.8233665777322088e-7 1.7132028452725593e-7 3.3657349321319827e-7
          2.981828729563027e-7 1.6684549947550775e-7 3.351166599817485e-7 2.955270106465793e-7 1.6030391128129098e-7 2.5979225269940716e-7
          2.5593736131141014e-7 6.492425156378653e-7 6.03601438932723e-7 6.230548921542076e-7 5.190627464082622e-7 1.762689348552776e-7
          1.6276385020448323e-7 3.324951021469147e-7 2.917842942203321e-7 1.5945442415871356e-7 3.285262355588684e-7 2.8678930941631613e-7
          1.4925876555368884e-7 2.510734862937496e-7 2.4505238327376386e-7 6.988496572200204e-7 6.427626120799158e-7 6.625487055611272e-7
          5.396978745871797e-7 6.806727748249125e-7 7.318336690976424e-7 7.273199094407779e-7 7.756241869588557e-7 6.553736446942311e-7
          6.797566257058865e-7 5.536708470272703e-7 6.815099217151885e-7 7.293471114269473e-7 7.117934668348306e-7 7.792431162555709e-7
          8.236628634976663e-7 8.372212645334748e-7 8.765160427440471e-7 7.049140416092602e-7 7.307080075896321e-7 6.495081875096526e-7
          7.826052410716821e-7 8.420588690397582e-7 7.767253748546561e-7 3.2735690181147394e-7 3.879922457046644e-7 3.256540689829859e-7
          3.892133587191397e-7 2.1344628885332273e-7 2.48231765391239e-7 2.428419305034401e-7 4.4862758959785486e-7 4.527726484552934e-7
          2.830172419291554e-7 3.2290515198593096e-7 3.8937452377692387e-7 3.1894919996308937e-7 3.8826844659073877e-7 2.0006781408994474e-7
          2.3700357507508885e-7 2.309316989568329e-7 4.5584389556791683e-7 4.575876932183882e-7 2.7393933606023294e-7 1.7563550420914458e-7
          1.5737938671301838e-7 3.2298917070206904e-7 2.8034473961375755e-7 1.5723531988606786e-7 3.156890632832991e-7 2.722580523115842e-7
          1.3912326921689215e-7 2.3770030852544614e-7 2.288270413398693e-7 7.514910496739446e-7 6.822215049478979e-7 7.01541333537421e-7
          5.560232623918877e-7 1.868144508711246e-7 1.5987673518425795e-7 3.0641899206585793e-7 2.6232265857064704e-7 1.329390194973913e-7
          2.182263250754362e-7 8.064865320787141e-7 7.202815394139391e-7 5.645134162289388e-7 9.021611886151694e-7 9.348681553872607e-7
          9.751087164197159e-7 9.995340090424282e-7 7.569751037186237e-7 7.834808810845452e-7 7.71683115077443e-7 9.086033933932229e-7
          9.832661357471149e-7 8.48053987766416e-7 0.0000010572275881802564 0.00000107149380429106 8.099539772640251e-7 9.275056454636754e-7
          0.000001067193111711278 9.248946455113826e-7 3.136052407643936e-7 3.856476489695863e-7 3.0667902642859073e-7 3.8124630318910565e-7
          1.850446147968261e-7 2.249202126612774e-7 2.1949014587426136e-7 4.5769005717477896e-7 4.5581357994962056e-7 2.6479581052572877e-7
          2.979484743017729e-7 3.747336612319717e-7 1.7050979341505763e-7 2.1531938833775688e-7 4.515188481621704e-7 2.601289832604561e-7
        </DataArray>
        <DataArray type="Float64" Name="gradient_matprop_error" format="ascii" RangeMin="0" RangeMax="0">
          0 0 0 0 0 0
          0 0 0 0 0 0
          0 0 0 0 0 0
          0 0 0 0 0 0
          0 0 0 0 0 0
          0 0 0 0 0 0
          0 0 0 0 0 0
          0 0 0 0 0 0
          0 0 0 0 0 0
          0 0 0 0 0 0
          0 0 0 0 0 0
          0 0 0 0 0 0
          0 0 0 0 0 0
          0 0 0 0 0 0
          0 0 0 0 0 0
          0 0 0 0 0 0
          0 0 0 0 0 0
          0 0 0 0 0 0
          0 0 0 0 0 0
          0 0 0 0 0 0
          0 0 0 0 0 0
          0 0 0 0 0 0
          0 0 0 0 0 0
          0 0 0 0 0 0
          0 0 0 0 0 0
          0 0 0 0 0 0
          0 0 0 0 0 0
          0 0 0 0 0 0
          0 0 0 0 0 0
          0 0 0 0 0 0
          0 0 0 0 0 0
          0 0 0 0 0 0
          0 0 0 0 0 0
          0 0 0 0 0 0
          0 0 0 0 0 0
          0 0 0 0 0 0
          0 0 0 0 0 0
          0 0 0 0 0 0
          0 0 0 0 0 0
          0 0 0 0 0 0
          0 0 0 0 0 0
          0 0 0 0 0 0
          0 0 0 0 0 0
          0 0 0 0 0 0
          0 0 0 0 0 0
          0 0 0 0 0 0
          0 0 0 0 0 0
          0 0 0 0 0 0
          0 0 0 0 0 0
          0 0 0 0 0 0
          0 0 0 0 0 0
          0 0 0 0 0 0
          0 0 0 0 0 0
          0 0 0 0 0 0
          0 0 0 0 0 0
          0 0 0 0 0 0
          0 0 0 0 0 0
          0 0 0 0 0 0
          0 0 0 0 0 0
          0 0 0 0 0 0
          0 0 0 0 0 0
          0 0 0 0 0 0
          0 0 0 0 0 0
          0 0 0 0 0 0
          0 0 0 0 0 0
          0 0 0 0 0 0
          0 0 0 0 0 0
          0 0 0 0 0 0
          0 0 0 0 0 0
          0 0 0 0 0 0
          0 0 0 0 0 0
          0 0 0 0 0 0
        </DataArray>
        <DataArray type="Float64" Name="initial_marker" format="ascii" RangeMin="0" RangeMax="0">
          0 0 0 0 0 0
          0 0 0 0 0 0
          0 0 0 0 0 0
          0 0 0 0 0 0
          0 0 0 0 0 0
          0 0 0 0 0 0
          0 0 0 0 0 0
          0 0 0 0 0 0
          0 0 0 0 0 0
          0 0 0 0 0 0
          0 0 0 0 0 0
          0 0 0 0 0 0
          0 0 0 0 0 0
          0 0 0 0 0 0
          0 0 0 0 0 0
          0 0 0 0 0 0
          0 0 0 0 0 0
          0 0 0 0 0 0
          0 0 0 0 0 0
          0 0 0 0 0 0
          0 0 0 0 0 0
          0 0 0 0 0 0
          0 0 0 0 0 0
          0 0 0 0 0 0
          0 0 0 0 0 0
          0 0 0 0 0 0
          0 0 0 0 0 0
          0 0 0 0 0 0
          0 0 0 0 0 0
          0 0 0 0 0 0
          0 0 0 0 0 0
          0 0 0 0 0 0
          0 0 0 0 0 0
          0 0 0 0 0 0
          0 0 0 0 0 0
          0 0 0 0 0 0
          0 0 0 0 0 0
          0 0 0 0 0 0
          0 0 0 0 0 0
          0 0 0 0 0 0
          0 0 0 0 0 0
          0 0 0 0 0 0
          0 0 0 0 0 0
          0 0 0 0 0 0
          0 0 0 0 0 0
          0 0 0 0 0 0
          0 0 0 0 0 0
          0 0 0 0 0 0
          0 0 0 0 0 0
          0 0 0 0 0 0
          0 0 0 0 0 0
          0 0 0 0 0 0
          0 0 0 0 0 0
          0 0 0 0 0 0
          0 0 0 0 0 0
          0 0 0 0 0 0
          0 0 0 0 0 0
          0 0 0 0 0 0
          0 0 0 0 0 0
          0 0 0 0 0 0
          0 0 0 0 0 0
          0 0 0 0 0 0
          0 0 0 0 0 0
          0 0 0 0 0 0
          0 0 0 0 0 0
          0 0 0 0 0 0
          0 0 0 0 0 0
          0 0 0 0 0 0
          0 0 0 0 0 0
          0 0 0 0 0 0
          0 0 0 0 0 0
          0 0 0 0 0 0
        </DataArray>
        <DataArray type="Float64" Name="markers_norefine" format="ascii" RangeMin="0" RangeMax="0">
          0 0 0 0 0 0
          0 0 0 0 0 0
          0 0 0 0 0 0
          0 0 0 0 0 0
          0 0 0 0 0 0
          0 0 0 0 0 0
          0 0 0 0 0 0
          0 0 0 0 0 0
          0 0 0 0 0 0
          0 0 0 0 0 0
          0 0 0 0 0 0
          0 0 0 0 0 0
          0 0 0 0 0 0
          0 0 0 0 0 0
          0 0 0 0 0 0
          0 0 0 0 0 0
          0 0 0 0 0 0
          0 0 0 0 0 0
          0 0 0 0 0 0
          0 0 0 0 0 0
          0 0 0 0 0 0
          0 0 0 0 0 0
          0 0 0 0 0 0
          0 0 0 0 0 0
          0 0 0 0 0 0
          0 0 0 0 0 0
          0 0 0 0 0 0
          0 0 0 0 0 0
          0 0 0 0 0 0
          0 0 0 0 0 0
          0 0 0 0 0 0
          0 0 0 0 0 0
          0 0 0 0 0 0
          0 0 0 0 0 0
          0 0 0 0 0 0
          0 0 0 0 0 0
          0 0 0 0 0 0
          0 0 0 0 0 0
          0 0 0 0 0 0
          0 0 0 0 0 0
          0 0 0 0 0 0
          0 0 0 0 0 0
          0 0 0 0 0 0
          0 0 0 0 0 0
          0 0 0 0 0 0
          0 0 0 0 0 0
          0 0 0 0 0 0
          0 0 0 0 0 0
          0 0 0 0 0 0
          0 0 0 0 0 0
          0 0 0 0 0 0
          0 0 0 0 0 0
          0 0 0 0 0 0
          0 0 0 0 0 0
          0 0 0 0 0 0
          0 0 0 0 0 0
          0 0 0 0 0 0
          0 0 0 0 0 0
          0 0 0 0 0 0
          0 0 0 0 0 0
          0 0 0 0 0 0
          0 0 0 0 0 0
          0 0 0 0 0 0
          0 0 0 0 0 0
          0 0 0 0 0 0
          0 0 0 0 0 0
          0 0 0 0 0 0
          0 0 0 0 0 0
          0 0 0 0 0 0
          0 0 0 0 0 0
          0 0 0 0 0 0
          0 0 0 0 0 0
        </DataArray>
        <DataArray type="Float64" Name="markers_mustrefine" format="ascii" RangeMin="0" RangeMax="0">
          0 0 0 0 0 0
          0 0 0 0 0 0
          0 0 0 0 0 0
          0 0 0 0 0 0
          0 0 0 0 0 0
          0 0 0 0 0 0
          0 0 0 0 0 0
          0 0 0 0 0 0
          0 0 0 0 0 0
          0 0 0 0 0 0
          0 0 0 0 0 0
          0 0 0 0 0 0
          0 0 0 0 0 0
          0 0 0 0 0 0
          0 0 0 0 0 0
          0 0 0 0 0 0
          0 0 0 0 0 0
          0 0 0 0 0 0
          0 0 0 0 0 0
          0 0 0 0 0 0
          0 0 0 0 0 0
          0 0 0 0 0 0
          0 0 0 0 0 0
          0 0 0 0 0 0
          0 0 0 0 0 0
          0 0 0 0 0 0
          0 0 0 0 0 0
          0 0 0 0 0 0
          0 0 0 0 0 0
          0 0 0 0 0 0
          0 0 0 0 0 0
          0 0 0 0 0 0
          0 0 0 0 0 0
          0 0 0 0 0 0
          0 0 0 0 0 0
          0 0 0 0 0 0
          0 0 0 0 0 0
          0 0 0 0 0 0
          0 0 0 0 0 0
          0 0 0 0 0 0
          0 0 0 0 0 0
          0 0 0 0 0 0
          0 0 0 0 0 0
          0 0 0 0 0 0
          0 0 0 0 0 0
          0 0 0 0 0 0
          0 0 0 0 0 0
          0 0 0 0 0 0
          0 0 0 0 0 0
          0 0 0 0 0 0
          0 0 0 0 0 0
          0 0 0 0 0 0
          0 0 0 0 0 0
          0 0 0 0 0 0
          0 0 0 0 0 0
          0 0 0 0 0 0
          0 0 0 0 0 0
          0 0 0 0 0 0
          0 0 0 0 0 0
          0 0 0 0 0 0
          0 0 0 0 0 0
          0 0 0 0 0 0
          0 0 0 0 0 0
          0 0 0 0 0 0
          0 0 0 0 0 0
          0 0 0 0 0 0
          0 0 0 0 0 0
          0 0 0 0 0 0
          0 0 0 0 0 0
          0 0 0 0 0 0
          0 0 0 0 0 0
          0 0 0 0 0 0
        </DataArray>
        <DataArray type="Float64" Name="gradient_marker" format="ascii" RangeMin="1" RangeMax="1">
          1 1 1 1 1 1
          1 1 1 1 1 1
          1 1 1 1 1 1
          1 1 1 1 1 1
          1 1 1 1 1 1
          1 1 1 1 1 1
          1 1 1 1 1 1
          1 1 1 1 1 1
          1 1 1 1 1 1
          1 1 1 1 1 1
          1 1 1 1 1 1
          1 1 1 1 1 1
          1 1 1 1 1 1
          1 1 1 1 1 1
          1 1 1 1 1 1
          1 1 1 1 1 1
          1 1 1 1 1 1
          1 1 1 1 1 1
          1 1 1 1 1 1
          1 1 1 1 1 1
          1 1 1 1 1 1
          1 1 1 1 1 1
          1 1 1 1 1 1
          1 1 1 1 1 1
          1 1 1 1 1 1
          1 1 1 1 1 1
          1 1 1 1 1 1
          1 1 1 1 1 1
          1 1 1 1 1 1
          1 1 1 1 1 1
          1 1 1 1 1 1
          1 1 1 1 1 1
          1 1 1 1 1 1
          1 1 1 1 1 1
          1 1 1 1 1 1
          1 1 1 1 1 1
          1 1 1 1 1 1
          1 1 1 1 1 1
          1 1 1 1 1 1
          1 1 1 1 1 1
          1 1 1 1 1 1
          1 1 1 1 1 1
          1 1 1 1 1 1
          1 1 1 1 1 1
          1 1 1 1 1 1
          1 1 1 1 1 1
          1 1 1 1 1 1
          1 1 1 1 1 1
          1 1 1 1 1 1
          1 1 1 1 1 1
          1 1 1 1 1 1
          1 1 1 1 1 1
          1 1 1 1 1 1
          1 1 1 1 1 1
          1 1 1 1 1 1
          1 1 1 1 1 1
          1 1 1 1 1 1
          1 1 1 1 1 1
          1 1 1 1 1 1
          1 1 1 1 1 1
          1 1 1 1 1 1
          1 1 1 1 1 1
          1 1 1 1 1 1
          1 1 1 1 1 1
          1 1 1 1 1 1
          1 1 1 1 1 1
          1 1 1 1 1 1
          1 1 1 1 1 1
          1 1 1 1 1 1
          1 1 1 1 1 1
          1 1 1 1 1 1
          1 1 1 1 1 1
        </DataArray>
        <DataArray type="Float64" Name="gradient_matprop_marker" format="ascii" RangeMin="0" RangeMax="0">
          0 0 0 0 0 0
          0 0 0 0 0 0
          0 0 0 0 0 0
          0 0 0 0 0 0
          0 0 0 0 0 0
          0 0 0 0 0 0
          0 0 0 0 0 0
          0 0 0 0 0 0
          0 0 0 0 0 0
          0 0 0 0 0 0
          0 0 0 0 0 0
          0 0 0 0 0 0
          0 0 0 0 0 0
          0 0 0 0 0 0
          0 0 0 0 0 0
          0 0 0 0 0 0
          0 0 0 0 0 0
          0 0 0 0 0 0
          0 0 0 0 0 0
          0 0 0 0 0 0
          0 0 0 0 0 0
          0 0 0 0 0 0
          0 0 0 0 0 0
          0 0 0 0 0 0
          0 0 0 0 0 0
          0 0 0 0 0 0
          0 0 0 0 0 0
          0 0 0 0 0 0
          0 0 0 0 0 0
          0 0 0 0 0 0
          0 0 0 0 0 0
          0 0 0 0 0 0
          0 0 0 0 0 0
          0 0 0 0 0 0
          0 0 0 0 0 0
          0 0 0 0 0 0
          0 0 0 0 0 0
          0 0 0 0 0 0
          0 0 0 0 0 0
          0 0 0 0 0 0
          0 0 0 0 0 0
          0 0 0 0 0 0
          0 0 0 0 0 0
          0 0 0 0 0 0
          0 0 0 0 0 0
          0 0 0 0 0 0
          0 0 0 0 0 0
          0 0 0 0 0 0
          0 0 0 0 0 0
          0 0 0 0 0 0
          0 0 0 0 0 0
          0 0 0 0 0 0
          0 0 0 0 0 0
          0 0 0 0 0 0
          0 0 0 0 0 0
          0 0 0 0 0 0
          0 0 0 0 0 0
          0 0 0 0 0 0
          0 0 0 0 0 0
          0 0 0 0 0 0
          0 0 0 0 0 0
          0 0 0 0 0 0
          0 0 0 0 0 0
          0 0 0 0 0 0
          0 0 0 0 0 0
          0 0 0 0 0 0
          0 0 0 0 0 0
          0 0 0 0 0 0
          0 0 0 0 0 0
          0 0 0 0 0 0
          0 0 0 0 0 0
          0 0 0 0 0 0
        </DataArray>
        <DataArray type="Float64" Name="combo" format="ascii" RangeMin="1" RangeMax="1">
          1 1 1 1 1 1
          1 1 1 1 1 1
          1 1 1 1 1 1
          1 1 1 1 1 1
          1 1 1 1 1 1
          1 1 1 1 1 1
          1 1 1 1 1 1
          1 1 1 1 1 1
          1 1 1 1 1 1
          1 1 1 1 1 1
          1 1 1 1 1 1
          1 1 1 1 1 1
          1 1 1 1 1 1
          1 1 1 1 1 1
          1 1 1 1 1 1
          1 1 1 1 1 1
          1 1 1 1 1 1
          1 1 1 1 1 1
          1 1 1 1 1 1
          1 1 1 1 1 1
          1 1 1 1 1 1
          1 1 1 1 1 1
          1 1 1 1 1 1
          1 1 1 1 1 1
          1 1 1 1 1 1
          1 1 1 1 1 1
          1 1 1 1 1 1
          1 1 1 1 1 1
          1 1 1 1 1 1
          1 1 1 1 1 1
          1 1 1 1 1 1
          1 1 1 1 1 1
          1 1 1 1 1 1
          1 1 1 1 1 1
          1 1 1 1 1 1
          1 1 1 1 1 1
          1 1 1 1 1 1
          1 1 1 1 1 1
          1 1 1 1 1 1
          1 1 1 1 1 1
          1 1 1 1 1 1
          1 1 1 1 1 1
          1 1 1 1 1 1
          1 1 1 1 1 1
          1 1 1 1 1 1
          1 1 1 1 1 1
          1 1 1 1 1 1
          1 1 1 1 1 1
          1 1 1 1 1 1
          1 1 1 1 1 1
          1 1 1 1 1 1
          1 1 1 1 1 1
          1 1 1 1 1 1
          1 1 1 1 1 1
          1 1 1 1 1 1
          1 1 1 1 1 1
          1 1 1 1 1 1
          1 1 1 1 1 1
          1 1 1 1 1 1
          1 1 1 1 1 1
          1 1 1 1 1 1
          1 1 1 1 1 1
          1 1 1 1 1 1
          1 1 1 1 1 1
          1 1 1 1 1 1
          1 1 1 1 1 1
          1 1 1 1 1 1
          1 1 1 1 1 1
          1 1 1 1 1 1
          1 1 1 1 1 1
          1 1 1 1 1 1
          1 1 1 1 1 1
        </DataArray>
        <DataArray type="Float64" Name="dHdT" format="ascii" RangeMin="25.78945951891795" RangeMax="33.71336045058236">
          25.81170444206601 25.81167650218899 25.811528760213193 25.811542850179393 25.811583427821404 25.811482756553158
          25.81140386167932 25.811396288924804 25.811381018237395 25.811381258292784 25.81138208528491 25.81138871617029
          25.807371288480184 25.80841585584191 25.81142126918656 25.811225914348917 25.8104671303238 25.811700410627562
          25.813800158910606 25.811827837400184 25.811536696795358 25.811527486378132 25.811562993057066 25.81160221708128
          25.985720528231 25.953475641998008 25.867276297417778 25.876895395859005 25.907423240499508 25.850875745309374
          25.873699292011494 25.835717728637583 25.810477737225366 25.81013443461048 25.811078500996626 25.81160285537022
          30.044549714016583 30.51510121941358 26.083539707671154 26.12727848561841 31.36500922874129 26.013656815455754
          32.746439406074956 25.944531415453834 25.801566982278693 25.79961015508488 25.805496722614045 25.810906425639054
          25.921120480802028 25.877133265640452 25.8538313940762 27.98909593538555 27.880233304459544 26.574251725026496
          26.665590460169152 25.835109178323112 25.857097510219724 25.876320928701166 33.71336045058236 28.45454756014509
          28.419193160419255 25.91750541194584 25.814469834950465 25.79128967384164 25.78945951891795 25.798190149151036
          25.798801235369652 25.80692077938412 25.806312796897664 25.975019772344847 25.935706258028922 25.942397676857958
          27.86108912761295 27.877839425147112 26.880666362484604 26.889929872759126 25.92056269076368 27.906987469630216
          26.85742164638435 25.894887745412518 25.983888260086577 25.992153070506262 25.965095422274313 30.201615333327517
          28.171620334996074 28.142084969513412 28.22285459648819 26.113485946975196 25.930153083097004 25.903006293053288
          27.938612967599745 26.82536212924042 25.88555444865313 27.963060387870787 26.78421190576048 25.874839433378366
          25.942991934838805 25.92014485123675 30.896801895240664 28.27739565116265 28.330119236668676 26.04937851557274
          25.887750973817763 25.868906135435736 27.981606282640353 26.73179108928475 25.853414353858614 25.897775911695337
          31.957565164582732 28.378765423953674 25.977974260114195 25.80868640512665 25.808986787491875 25.80106500067898
          25.80449062704631 25.811708211025124 25.813231665420858 25.81111833704352 25.793443596231313 25.79999446660075
          25.81475511981659 25.98023408153521 25.94887468962192 25.952823205761533 26.38136362539874 26.356911433274743
          26.248001329156896 26.274181883336606 25.948158466833444 26.344578460572556 26.234842341277677 25.91751529770863
          26.13909122503904 26.167000141274475 26.125106221982797 27.991352343240195 27.517215053365618 27.53944891776682