<?xml version="1.0"?>
<VTKFile type="UnstructuredGrid" version="0.1" byte_order="LittleEndian" header_type="UInt32" compressor="vtkZLibDataCompressor">
  <UnstructuredGrid>
    <Piece NumberOfPoints="474" NumberOfCells="235">
      <PointData>
        <DataArray type="Int32" Name="libmesh_node_id" format="ascii" RangeMin="111" RangeMax="1934">
          111 112 144 145 160 177
          178 193 210 211 226 250
          251 252 253 254 255 256
          257 258 259 260 261 262
          263 264 265 266 267 271
          272 277 325 326 327 328
          329 330 331 332 333 334
          335 336 337 338 339 340
          341 342 343 344 345 346
          347 348 349 350 351 352
          353 354 356 357 359 360
          361 362 366 413 414 416
          417 418 420 422 423 424
          425 426 430 431 457 458
          459 460 463 464 465 467
          468 470 495 496 497 498
          499 500 501 502 503 504
          505 506 507 508 509 510
          511 512 513 514 515 516
          517 518 519 520 526 529
          530 531 532 533 534 535
          536 537 538 539 540 541
          542 547 548 552 610 611
          612 615 618 620 621 622
          623 624 625 626 627 628
          629 630 631 632 633 634
          635 636 637 638 639 640
          641 642 643 644 645 646
          647 648 649 650 651 652
          653 654 655 656 657 658
          659 660 661 662 663 664
          665 666 667 668 669 670
          671 672 673 674 675 676
          677 678 679 680 681 682
          683 684 685 686 687 688
          689 690 691 692 693 694
          695 696 697 699 700 701
          702 703 704 705 706 707
          708 709 714 715 718 721
          723 734 735 736 737 738
          739 740 741 742 743 744
          745 746 747 922 923 924
          925 926 927 958 959 962
          963 964 965 968 969 970
          972 973 974 975 976 977
          1010 1011 1012 1015 1016 1017
          1018 1019 1020 1021 1024 1025
          1028 1030 1032 1033 1034 1035
          1036 1037 1038 1039 1040 1041
          1042 1043 1044 1045 1046 1047
          1048 1049 1050 1051 1052 1053
          1054 1055 1056 1057 1058 1059
          1060 1088 1089 1090 1091 1092
          1093 1094 1095 1096 1097 1098
          1099 1100 1101 1102 1103 1104
          1105 1106 1107 1108 1109 1110
          1111 1112 1113 1114 1115 1116
          1117 1118 1119 1120 1121 1141
          1142 1143 1144 1145 1146 1147
          1148 1149 1150 1161 1162 1163
          1164 1165 1166 1167 1168 1169
          1170 1180 1181 1183 1184 1185
          1186 1187 1189 1200 1201 1202
          1203 1204 1205 1206 1756 1757
          1758 1759 1760 1761 1762 1763
          1764 1765 1766 1767 1768 1769
          1770 1771 1772 1773 1774 1775
          1776 1885 1886 1887 1888 1889
          1890 1891 1892 1893 1894 1895
          1896 1897 1898 1899 1900 1901
          1902 1903 1913 1914 1915 1916
          1925 1926 1927 1928 1929 1930
          1931 1932 1933 1934 113 114
          146 147 161 180 194 268
          270 273 427 428 429 432
          179 461 462 466 213 469
          227 521 522 523 524 525
          527 528 368 374 543 375
          544 545 546 549 550 551
        </DataArray>
        <DataArray type="Float64" Name="bounds" format="ascii" RangeMin="0" RangeMax="0">
          0 0 0 0 0 0
          0 0 0 0 0 0
          0 0 0 0 0 0
          0 0 0 0 0 0
          0 0 0 0 0 0
          0 0 0 0 0 0
          0 0 0 0 0 0
          0 0 0 0 0 0
          0 0 0 0 0 0
          0 0 0 0 0 0
          0 0 0 0 0 0
          0 0 0 0 0 0
          0 0 0 0 0 0
          0 0 0 0 0 0
          0 0 0 0 0 0
          0 0 0 0 0 0
          0 0 0 0 0 0
          0 0 0 0 0 0
          0 0 0 0 0 0
          0 0 0 0 0 0
          0 0 0 0 0 0
          0 0 0 0 0 0
          0 0 0 0 0 0
          0 0 0 0 0 0
          0 0 0 0 0 0
          0 0 0 0 0 0
          0 0 0 0 0 0
          0 0 0 0 0 0
          0 0 0 0 0 0
          0 0 0 0 0 0
          0 0 0 0 0 0
          0 0 0 0 0 0
          0 0 0 0 0 0
          0 0 0 0 0 0
          0 0 0 0 0 0
          0 0 0 0 0 0
          0 0 0 0 0 0
          0 0 0 0 0 0
          0 0 0 0 0 0
          0 0 0 0 0 0
          0 0 0 0 0 0
          0 0 0 0 0 0
          0 0 0 0 0 0
          0 0 0 0 0 0
          0 0 0 0 0 0
          0 0 0 0 0 0
          0 0 0 0 0 0
          0 0 0 0 0 0
          0 0 0 0 0 0
          0 0 0 0 0 0
          0 0 0 0 0 0
          0 0 0 0 0 0
          0 0 0 0 0 0
          0 0 0 0 0 0
          0 0 0 0 0 0
          0 0 0 0 0 0
          0 0 0 0 0 0
          0 0 0 0 0 0
          0 0 0 0 0 0
          0 0 0 0 0 0
          0 0 0 0 0 0
          0 0 0 0 0 0
          0 0 0 0 0 0
          0 0 0 0 0 0
          0 0 0 0 0 0
          0 0 0 0 0 0
          0 0 0 0 0 0
          0 0 0 0 0 0
          0 0 0 0 0 0
          0 0 0 0 0 0
          0 0 0 0 0 0
          0 0 0 0 0 0
          0 0 0 0 0 0
          0 0 0 0 0 0
          0 0 0 0 0 0
          0 0 0 0 0 0
          0 0 0 0 0 0
          0 0 0 0 0 0
          0 0 0 0 0 0
        </DataArray>
        <DataArray type="Float64" Name="gradient_error" format="ascii" RangeMin="1.239151343299783e-10" RangeMax="6.673248271143881e-7">
          1.3623700909341222e-9 9.285710346579456e-10 1.7470555860627733e-9 1.8885176624131616e-9 2.282561717206756e-9 5.868230581719198e-9
          7.178165919177633e-9 2.122229958242147e-9 5.50241690904063e-9 6.658330196976235e-9 1.380763418012742e-9 1.293996695462965e-8
          1.896649195140947e-8 1.5826226698766535e-7 1.8242975620190458e-7 7.9182669544502e-9 8.154630379265885e-8 2.6370717972915097e-8
          2.1584994502451903e-8 1.819623359765149e-8 7.1166197807740765e-9 3.507346868614457e-7 2.766776789965677e-7 1.567444850549183e-7
          1.2818467499578523e-8 3.242124381990447e-9 4.050966218681492e-9 2.38815367482437e-8 7.64958402319008e-8 3.839410421385912e-9
          3.49472621082508e-9 2.4690332281080094e-9 1.951110067780155e-7 3.713353671086354e-7 4.167061011962181e-7 5.389365482221137e-7
          2.2397568424111061e-7 4.820857418237145e-7 4.591366436443775e-7 4.2115565764689644e-7 4.5148572682911834e-7 2.9393460181325756e-7
          2.726071726318225e-7 4.3974742655079925e-7 5.159432009724414e-7 3.2580494821430036e-7 1.188239360780018e-7 7.60489821499367e-8
          5.619930974024757e-7 3.917573161692096e-7 5.3867910980128135e-8 4.6063122097951403e-7 3.215863055148817e-7 4.485211023412844e-8
          1.3414402712795407e-7 9.133215683108543e-8 4.7647887709956e-7 6.121750798230641e-7 5.210777546261646e-7 2.196088849772051e-7
          5.020420116477987e-8 8.127233405682373e-8 2.433534738937574e-7 8.736530641341554e-8 2.1053801681164275e-7 7.564228667769781e-8
          9.518357434113996e-8 8.852678713281342e-8 9.396291469757496e-8 6.5215945814515255e-9 6.057216769826784e-9 9.790121662279326e-10
          3.158879335749847e-9 2.7373821442523737e-9 5.5928389582020425e-9 2.3158849527549006e-9 5.390782333693808e-10 4.6084988347234767e-10
          1.4465644597040278e-9 1.3053635567672707e-9 3.8262153357531466e-10 1.1641626538305136e-9 8.601430233875841e-10 1.5100459698879574e-9
          1.0460265403831867e-9 1.984560668860589e-9 3.297274208551096e-10 4.458660293666634e-10 9.40851468223855e-10 1.2319100573787895e-9
          2.4590753678332202e-9 5.620046378782172e-10 1.0451400056684448e-8 7.802020771228327e-9 1.0822527968248949e-8 7.955468590468068e-8
          4.906612841705523e-8 3.251914261947524e-8 5.107105206898693e-8 5.393604535130917e-9 2.7806048352492585e-8 1.9963294759799488e-8
          5.152641485772205e-9 1.5972156821895242e-8 2.2587418233293173e-8 1.2120541167106391e-8 5.49344586723946e-9 4.827213132420023e-9
          1.9363064728741428e-8 1.598645889347266e-8 3.926169814195919e-9 1.3778092870866248e-8 1.2800314649304663e-8 4.160980397600586e-9
          1.2609853058203893e-8 1.1822536427743074e-8 1.8256429148893474e-9 1.8106982659319728e-9 1.7957536169745982e-9 8.894477116344081e-9
          2.2279116550525356e-8 2.21078693195598e-8 4.566874652384782e-8 4.7232380268759725e-9 1.0022331244656009e-8 3.0146932499519944e-9
          4.524400294371226e-9 6.822280660402626e-9 2.770406427842795e-9 3.532126152277551e-8 6.905837649717027e-8 1.5321424462436044e-8
          6.034107338790458e-9 1.2545197442982373e-9 1.125552993131516e-9 9.965862419647946e-10 4.018342895497002e-7 3.6284111376239964e-7
          4.1331043445442674e-7 4.224935976950093e-7 3.6354148622740916e-7 4.477162824834176e-7 4.2923048577514404e-7 4.01968023779681e-7
          4.540280335569571e-7 4.5880532287241195e-7 4.4951481339914834e-7 5.008128256134374e-7 3.9058247379380446e-7 4.5309434881255615e-7
          4.862028983310302e-7 3.0714542826273335e-7 4.0417263896703664e-7 4.538660741866105e-7 4.755715575027129e-7 1.6268092184835371e-7
          1.494546066076493e-7 1.6304607462983508e-7 2.942440336455386e-7 2.968804869371344e-7 2.675266068963308e-7 2.6644857166719733e-7
          1.3432701198389512e-7 2.974904257682491e-7 2.6576146906644704e-7 1.1410827638920396e-7 1.9064813689496873e-7 2.080467654885424e-7
          1.8396050829722998e-7 5.200273090536593e-7 4.904756135417014e-7 5.247791502709578e-7 3.7484036780071517e-7 1.33828149228068e-7
          1.1902545307701545e-7 2.9569541667145623e-7 2.6104057608790956e-7 1.0229449694265122e-7 2.9126771420554817e-7 2.536047351901356e-7
          8.280130278513354e-8 1.7410898924027323e-7 1.6158657960088685e-7 6.069327552465647e-7 5.606773467212169e-7 4.146946083837193e-7
          4.023969352215698e-7 5.081483678605447e-7 5.554222132830896e-7 5.777256178732954e-7 6.20704354859177e-7 5.219118972847624e-7
          5.613151976995874e-7 4.07322169639686e-7 5.154918066677886e-7 5.890463353254375e-7 5.613310563688281e-7 5.267493603781592e-7
          6.307371872247581e-7 2.784694456807412e-7 3.616006902736187e-7 6.033510109310573e-7 4.5818322913270386e-7 2.901660009741866e-7
          5.434893024700677e-7 2.908488144039319e-7 6.673248271143881e-7 9.127983524717786e-8 8.435957544398168e-8 2.8272407317012724e-7
          2.4267003680678513e-7 6.599874687936651e-8 2.6720387345707436e-7 2.2613430824322804e-7 6.603692218552328e-8 1.4603171059980698e-7
          1.4995400526354886e-7 2.958576044875787e-7 2.5128812633679994e-7 2.274781860821758e-7 4.404164031950067e-8 4.709514263179082e-8
          2.4286161502622226e-7 2.0227327829261778e-7 2.975642296826038e-8 2.0902829348162962e-7 1.7092795007088063e-7 5.0148644944080967e-8
          1.6168494155901332e-7 1.328276066601316e-7 9.41363791683011e-8 1.2680822227396022e-7 2.9413248916756967e-7 9.775592927403051e-8
          3.5409796114817787e-7 1.6996729032389714e-7 1.8735605281742118e-7 3.077007663249106e-7 3.1935406405855505e-7 1.7772600332952432e-7
          2.881764029375054e-7 8.688776804996699e-8 1.3471316707036323e-7 1.5847575266853237e-7 1.0816805159982268e-7 3.6792690357645407e-7
          3.7550277541995317e-7 3.508084553791556e-7 1.5631038840756592e-7 3.5208433622071715e-9 5.003858311935507e-9 1.020404005998909e-9
          1.5480061521487037e-9 6.486873261663844e-9 2.0756082982984985e-9 1.0971485649653408e-7 7.378512431739792e-8 8.15702030338876e-8
          1.4369809431929687e-7 5.7307190587285185e-8 1.093773964342465e-7 1.0682085968795452e-8 2.0582598560470612e-7 1.6144760228120778e-7
          3.995765816777424e-8 7.68351147807688e-8 5.2400955082336896e-9 9.459339125388762e-9 1.1371257139376333e-7 1.3678582742543833e-8
          1.7900794294884918e-7 2.835958614016844e-7 2.5979856968340263e-7 2.360012779651208e-7 1.8067921183170694e-7 1.726797423359823e-7
          2.8966057875095675e-7 2.636286428696963e-7 1.646802728402576e-7 2.3759670698843596e-7 2.733773592832545e-7 3.059698288852108e-7
          2.3073221752685663e-7 3.3856229848716704e-7 2.775946823683957e-7 3.137694991897837e-7 2.3744836294376317e-7 3.2049695391397936e-7
          2.0493132148911885e-7 2.274383440886881e-7 2.206989489936246e-7 3.499443160111716e-7 3.600439453189776e-7 2.499453666882573e-7
          2.152046149095891e-7 3.2540880653032564e-7 2.1001329650936933e-7 3.272286876609772e-7 1.4165241224749142e-7 2.0968987719676088e-7
          1.9551007176783854e-7 3.6823622643687105e-7 3.7410378800212025e-7 2.3747178383197734e-7 2.0052677465844147e-7 3.2537721516878945e-7
          1.1068161706961221e-7 1.787778829485684e-7 3.7686008129255573e-7 2.0822629499356891e-7 4.033399515416014e-8 6.121165207551135e-8
          4.269077441913959e-8 1.051848037450721e-7 8.096014622776138e-8 1.121444770742014e-7 1.0890767576675892e-7 1.0350357570543341e-7
          8.923315934037835e-8 9.047649019537847e-8 1.0752101227460588e-7 9.171982105037861e-8 8.318786420454371e-8 9.284211772674107e-8
          8.434795850193175e-8 1.0652146659263933e-7 7.393117362740908e-8 7.775912189001938e-8 8.158707015262969e-8 7.455809755227739e-8
          6.346648347762297e-8 7.737550586601314e-8 5.538217783886021e-8 8.078758498386521e-8 9.136978166805163e-8 1.1001262569019612e-7
          3.742356783741796e-8 6.43618755586466e-8 5.664650043412173e-8 9.101974228572467e-8 1.1499839922587964e-7 1.1223237355699923e-7
          1.1945023651541903e-7 1.1188455071392002e-7 1.0786905284775984e-7 1.1344232182570212e-7 9.796009030865652e-8 1.1517936634090139e-7
          1.128576826179504e-7 1.2230272122457766e-7 1.2067275549819902e-7 1.0675622627361278e-7 1.1313021247885997e-7 1.1252688261430398e-7
          1.1510653077716564e-7 1.1056979792413075e-7 1.1756882663759501e-7 8.344981450940549e-8 9.388929456113271e-8 8.494009856282363e-8
          9.68951274461614e-8 7.483300338309759e-8 8.480213547003929e-8 8.657261970642329e-8 1.1011360487730435e-7 1.1705160886721351e-7
          1.02775735419446e-7 5.780773955865175e-8 8.592997194670072e-8 6.463049470264179e-8 1.1811025061761685e-7 1.1330179743366993e-7
          3.5693665375357747e-9 5.901013004406973e-8 1.166352101986127e-7 1.1936507392357483e-7 1.2803770080164786e-7 1.1601313308830472e-7
          1.2334346176823898e-7 1.2283171270540087e-7 1.308223401983679e-7 1.2124606289469844e-7 6.881139549568741e-8 8.08020261563794e-8
          1.083196193455427e-7 1.1562359498485325e-7 5.206291439607106e-8 9.58679600474878e-8 4.563452957991181e-8 7.351569175667508e-8
          8.441311288179129e-8 5.7847415865160615e-8 4.4808101567299015e-8 8.598365091957937e-8 4.1044296789088266e-8 7.627552486338686e-8
          2.8236354490293827e-8 5.013505886297517e-8 4.531964669972305e-8 4.005572477744267e-8 6.625783817593489e-8 2.5476920824624252e-8
          4.306825559569885e-8 8.32782817887638e-9 8.877777590720352e-9 8.80132840597043e-9 9.3890649095837e-9 8.724879221220508e-9
          8.222095228723393e-9 8.277062312150359e-9 8.332029395577324e-9 8.226296445424338e-9 7.961403055286757e-9 8.404052574479302e-9
          7.417607888834124e-9 8.45025691172556e-9 8.846702093671846e-9 9.482905934616995e-9 7.045028519853161e-9 8.006776742988173e-9
          7.51144891386742e-9 8.968524966123185e-9 9.337023038518145e-9 9.592762037396328e-9 9.584613714939231e-9 9.848501036274511e-9
          6.855048392967379e-9 8.26845944913156e-9 6.302631197057037e-9 7.976449043607892e-9 9.681870505295738e-9 9.650266890158749e-9
          4.373073747416613e-9 6.9441568608667895e-9 6.3682843722765546e-9 9.515239974316965e-9 1.8667403915401782e-10 1.8024499268475066e-10
          2.5604971873485843e-10 4.320220042071926e-10 5.930551727733701e-10 1.5340590120258922e-9 5.474637617739019e-10 1.4812379282119834e-9
          1.8753871502183777e-9 1.325978286310727e-9 2.0421875962343254e-10 5.536436156354419e-10 5.760395001572042e-10 5.984353846789663e-10
          6.920515037933713e-10 4.6431510378393124e-10 4.2870504999419116e-10 1.5829610889724352e-10 4.4654445815429567e-10 3.9309499620445113e-10
          1.239151343299783e-10 6.254102497272699e-9 5.946500792766397e-9 4.875035297052701e-10 1.5322219659462498e-9 1.4764659691374942e-9
          5.638899088260096e-9 1.4207099723287386e-9 3.247381397799353e-8 3.584183286940475e-8 2.4422836361524207e-9 3.194015569286347e-8
          3.97766028968304e-9 7.010362066756516e-10 1.1147711030183725e-9 3.0808981510086064e-10 5.5130369432136585e-9 1.5285059993610934e-9
        </DataArray>
        <DataArray type="Float64" Name="gradient_matprop_error" format="ascii" RangeMin="0" RangeMax="0">
          0 0 0 0 0 0
          0 0 0 0 0 0
          0 0 0 0 0 0
          0 0 0 0 0 0
          0 0 0 0 0 0
          0 0 0 0 0 0
          0 0 0 0 0 0
          0 0 0 0 0 0
          0 0 0 0 0 0
          0 0 0 0 0 0
          0 0 0 0 0 0
          0 0 0 0 0 0
          0 0 0 0 0 0
          0 0 0 0 0 0
          0 0 0 0 0 0
          0 0 0 0 0 0
          0 0 0 0 0 0
          0 0 0 0 0 0
          0 0 0 0 0 0
          0 0 0 0 0 0
          0 0 0 0 0 0
          0 0 0 0 0 0
          0 0 0 0 0 0
          0 0 0 0 0 0
          0 0 0 0 0 0
          0 0 0 0 0 0
          0 0 0 0 0 0
          0 0 0 0 0 0
          0 0 0 0 0 0
          0 0 0 0 0 0
          0 0 0 0 0 0
          0 0 0 0 0 0
          0 0 0 0 0 0
          0 0 0 0 0 0
          0 0 0 0 0 0
          0 0 0 0 0 0
          0 0 0 0 0 0
          0 0 0 0 0 0
          0 0 0 0 0 0
          0 0 0 0 0 0
          0 0 0 0 0 0
          0 0 0 0 0 0
          0 0 0 0 0 0
          0 0 0 0 0 0
          0 0 0 0 0 0
          0 0 0 0 0 0
          0 0 0 0 0 0
          0 0 0 0 0 0
          0 0 0 0 0 0
          0 0 0 0 0 0
          0 0 0 0 0 0
          0 0 0 0 0 0
          0 0 0 0 0 0
          0 0 0 0 0 0
          0 0 0 0 0 0
          0 0 0 0 0 0
          0 0 0 0 0 0
          0 0 0 0 0 0
          0 0 0 0 0 0
          0 0 0 0 0 0
          0 0 0 0 0 0
          0 0 0 0 0 0
          0 0 0 0 0 0
          0 0 0 0 0 0
          0 0 0 0 0 0
          0 0 0 0 0 0
          0 0 0 0 0 0
          0 0 0 0 0 0
          0 0 0 0 0 0
          0 0 0 0 0 0
          0 0 0 0 0 0
          0 0 0 0 0 0
          0 0 0 0 0 0
          0 0 0 0 0 0
          0 0 0 0 0 0
          0 0 0 0 0 0
          0 0 0 0 0 0
          0 0 0 0 0 0
          0 0 0 0 0 0
        </DataArray>
        <DataArray type="Float64" Name="initial_marker" format="ascii" RangeMin="0" RangeMax="2">
          0 0 0 0 0 0
          0 0 2 0 0 0
          0 0 0 0 0 0
          0 0 0 2 0 0
          0 0 0 0 0 0
          0 0 0 0 1 0.5
          0 1 0.5 0 0 0
          2 1 1 0 0 0
          2 0.5 0 2 0.25 0
          0 0 2 1 1 0
          0 0 0.75 0 1 0
          0 0 0 0 0 0
          0 0 0 0 0 0
          0 0 0 0 0 0
          0 0 0 0 0 0
          0 0 0 0 0 0
          0 0 0 0 0 0
          0 0 0 0 0 0
          0 0 0 0 0 0
          0 0 0 0 0 0
          0 0 0 0 0 0
          0 0 0 0 0 0
          0 0 0 0 1 2
          2 1 2 1 1 2
          2 1 2 2 0.6666666666666666 1
          1 2 2 2 1 0
          0 0 0 0.5 0.25 0
          0 1 0.5 0 0 0
          0 1.5 1.25 1.5 0.5 0
          0 1 0.5 0 1 0.5
          0 0 0 2 1.5 1.5
          0.5 2 2 2 2 1
          1 2 2 2 1 2
          2 2 2 1 1 2
          2 2 1 0 0 1
          0.5 0 1 0.75 0 0
          0.3333333333333333 2 1.5 0 0 0
          1 1 0 1 1 0
          1 1 2 2 1.25 2
          1.5 0 0 0.25 0 0
          0.5 0 0 0 0 0.5
          0 1 0 0 0 0
          0 0 0 0 0 0
          0 0 0 0 0 0
          0 0 0 0 0 0
          0 0 0 0 0 0
          0 0 0 0 0 0
          0 0 0 0 0 0
          0 0 0 0 0 0
          0 0 0 0 0 0
          0 0 0 0 0 0
          0 0 0 0 0 0
          0 2 2 2 2 2
          2 2 2 2 1 1.5
          1 2 2 2 2 2
          2 2 2 2 2 2
          2 2 2 2 2 2
          2 2 2 2 2 2
          2 2 2 2 2 2
          2 2 2 1 1.5 1
          1.5 0 1 1 2 2
          2 2 2 2 2 2
          2 2 2 2 2 2
          2 2 2 2 0 0
          0 0 0 0 0 0
          0 0 0 0 0 0
          0 0 0 0 0 0
          0 2 2 2 2 2
          2 2 2 2 2 2
          2 2 2 2 2 2
          2 2 2 2 2 2
          2 2 2 2 2 2
          2 2 2 2 0 0
          0 0 0 0 0 0
          0 0 0 0 0 0
          0 0 0 0 0 0
          0 0 0 0 0 0
          0 0 0 0 0 0
          0 0 0 0 0 0
        </DataArray>
        <DataArray type="Float64" Name="markers_norefine" format="ascii" RangeMin="0" RangeMax="2">
          0 0 0 0 0 0
          0 0 2 0 0 0
          0 0 0 0 0 0
          0 0 0 0 0 0
          0 0 0 0 0 0
          0 0 0 0 0 0
          0 0 0 0 0 0
          0 0 0 0 0 0
          0 0 0 0 0 0
          0 0 0 0 0 0
          0 0 0 0 0 0
          0 0 0 0 0 0
          0 0 0 0 0 0
          0 0 0 0 0 0
          0 0 0 0 0 0
          0 0 0 0 0 0
          0 0 0 0 0 0
          0 0 0 0 0 0
          0 0 0 0 0 0
          0 0 0 0 0 0
          0 0 0 0 0 0
          0 0 0 0 0 0
          0 0 0 0 0 0
          0 0 0 0 0 0
          0 0 0 0 0 0
          0 0 0 0 0 0
          0 0 0 0 0 0
          0 0 0 0 0 0
          0 0 0 0 0 0
          0 0 0 0 0 0
          0 0 0 0 0 0
          0 0 0 0 0 0
          0 0 0 0 0 0
          0 0 0 0 0 0
          0 0 0 0 0 0
          0 0 0 0 0 0
          0 0 0 0 0 0
          0 0 0 0 0 0
          0 0 0 0 0 0
          0 0 0 0 0 0
          0 0 0 0 0 0
          0 0 0 0 0 0
          0 0 0 0 0 0
          0 0 0 0 0 0
          0 0 0 0 0 0
          0 0 0 0 0 0
          0 0 0 0 0 0
          0 0 0 0 0 0
          0 0 0 0 0 0
          0 0 0 0 0 0
          0 0 0 0 0 0
          0 0 0 0 0 0
          0 0 0 0 0 0
          0 0 0 0 0 0
          0 0 0 0 0 0
          0 0 0 0 0 0
          0 0 0 0 0 0
          0 0 0 0 0 0
          0 0 0 0 0 0
          0 0 0 0 0 0
          0 0 0 0 0 0
          0 1 0 0.5 0 0
          2 1 0 0 0 0
          0 0 0 0 0 0
          0 0 0 0 0 0
          0 0 0 0 0 0
          0 0 0 0 0 0
          0 0 0 0 0 0
          0 0 0 0 0.5 0.25
          1 0.5 0 0 1 0.5
          1 0 1 0.5 1 0
          1.5 1 2 1.5 0.5 1
          2 1.5 2 1 0 0
          0 0 0 0 0 0
          0 0 0 0 0 0
          0 0 0 0 0 0
          0 0 0 0 0 0
          0 0 0 0 0 0
          0 0 0 0 0 0
        </DataArray>
        <DataArray type="Float64" Name="markers_mustrefine" format="ascii" RangeMin="0" RangeMax="2">
          0 0 0 0 0 0
          0 0 2 0 0 0
          0 0 0 0 0 0
          0 0 0 2 0 0
          0 0 0 0 0 0
          0 0 0 0 1 0.5
          0 1 0.5 0 0 0
          2 1 1 0 0 0
          2 0.5 0 2 0.25 0
          0 0 2 1 1 0
          0 0 0.75 0 1 0
          0 0 0 0 0 0
          0 0 0 0 0 0
          0 0 0 0 0 0
          0 0 0 0 0 0
          0 0 0 0 0 0
          0 0 0 0 0 0
          0 0 0 0 0 0
          0 0 0 0 0 0
          0 0 0 0 0 0
          0 0 0 0 0 0
          0 0 0 0 0 0
          0 0 0 0 1 2
          2 1 2 1 1 2
          2 1 2 2 0.6666666666666666 1
          1 2 2 2 1 0
          0 0 0 0.5 0.25 0
          0 1 0.5 0 0 0
          0 1.5 1.25 1.5 0.5 0
          0 1 0.5 0 1 0.5
          0 0 0 2 1.5 1.5
          0.5 2 2 2 2 1
          1 2 2 2 1 2
          2 2 2 1 1 2
          2 2 1 0 0 1
          0.5 0 1 0.75 0 0
          0.3333333333333333 2 1.5 0 0 0
          1 1 0 1 1 0
          1 1 2 2 1.25 2
          1.5 0 0 0.25 0 0
          0.5 0 0 0 0 0.5
          0 1 0 0 0 0
          0 0 0 0 0 0
          0 0 0 0 0 0
          0 0 0 0 0 0
          0 0 0 0 0 0
          0 0 0 0 0 0
          0 0 0 0 0 0
          0 0 0 0 0 0
          0 0 0 0 0 0
          0 0 0 0 0 0
          0 0 0 0 0 0
          0 2 2 2 2 2
          2 2 2 2 1 1.5
          1 2 2 2 2 2
          2 2 2 2 2 2
          2 2 2 2 2 2
          2 2 2 2 2 2
          2 2 2 2 2 2
          2 2 2 1 1.5 1
          1.5 0 1 1 2 2
          2 2 2 2 2 2
          2 2 2 2 2 2
          2 2 2 2 0 0
          0 0 0 0 0 0
          0 0 0 0 0 0
          0 0 0 0 0 0
          0 2 2 2 2 2
          2 2 2 2 2 2
          2 2 2 2 2 2
          2 2 2 2 2 2
          2 2 2 2 2 2
          2 2 2 2 0 0
          0 0 0 0 0 0
          0 0 0 0 0 0
          0 0 0 0 0 0
          0 0 0 0 0 0
          0 0 0 0 0 0
          0 0 0 0 0 0
        </DataArray>
        <DataArray type="Float64" Name="gradient_marker" format="ascii" RangeMin="0" RangeMax="1">
          1 1 1 1 1 1
          1 1 0 1 1 1
          1 1 0.875 1 0.75 0.75
          1 1 1 1 1 1
          1 1 1 0.5 1 1
          1 1 1 1 1 1
          0.875 1 1 1 1 1
          1 1 1 1 1 0.625
          1 1 0.5 0.75 0.875 0.6666666666666666
          0.75 0.75 1 1 1 1
          0.5 0.625 0.625 0.75 0.75 0.8333333333333334
          0.625 0.75 0.75 1 1 1
          1 1 1 1 1 1
          1 1 1 1 1 1
          1 1 1 1 1 1
          1 1 1 1 1 1
          1 1 1 1 1 1
          1 1 1 1 1 1
          1 1 1 1 1 1
          1 1 1 1 1 1
          1 1 1 1 1 1
          1 1 1 1 1 1
          1 1 1 1 1 1
          1 1 1 1 1 1
          1 1 1 1 1 1
          1 1 1 1 1 1
          1 1 1 1 1 1
          0.75 1 0.875 0.5 0.75 0.8333333333333334
          0.625 1 1 1 1 1
          0.5 1 0.75 0.25 0.75 0.625
          0 0.5 0.5 1 1 0.75
          1 1 1 1 1 1
          1 1 1 1 1 0.75
          0.875 0.5 0.625 1 0.75 0.5
          0.75 0.5 1 0 0 0.5
          0.5 0 0.5 0.5 0 0.375
          0.3333333333333333 1 0.5 0.625 0 0
          0.5 0.5 0 0.5 0.5 0
          0.5 0.5 0.5 1 0.75 0.5
          1 0.5 0.75 0.875 1 0.3333333333333333
          0.625 0.25 0.75 1 0.25 1
          1 0.75 1 1 1 1
          1 1 1 1 1 1
          1 1 1 1 1 1
          1 1 1 1 1 1
          1 1 1 1 1 1
          1 1 1 1 1 1
          1 1 1 1 1 1
          1 1 1 1 1 1
          0.875 1 0.75 1 0.75 1
          1 1 1 1 0.75 1
          0.5 1 1 1 0 0
          0 0 0 0.5 0.25 0
          0 0 0.3333333333333333 0 0 0
          0 0.25 0 0 0 0
          0 0 0 0.125 0 0.5
          0 0 0 0 0.75 0.5
          1 0.5 0.25 0.5 0 0.75
          0.5 1 0.75 0.25 0.5 0.5
          0.625 0.75 0.75 0 0.125 0
          0.25 0 0 0 0.5 0.75
          0.25 0 0.25 0.25 0.75 0.75
          0 0 0.5 0.875 1 0.75
          1 1 1 1 0 0
          0.375 0.5 0 0.25 0 0.25
          0.5 0 0 0.25 0 0.25
          0 0 0 0 0.125 0
          0 0 0 0 0 0
          0 0 0 0 0 0
          0 0 0 0 0 0
          0 0 0 0 0 0
          0 0 0 0 0 0
          0 0 0 0 1 1
          1 1 1 1 1 1
          0.875 1 1 1 1 1
          1 1 1 1 1 1
          1 1 1 1 1 1
          1 1 0.625 0.8333333333333334 1 0.625
          1 1 1 1 1 1
        </DataArray>
        <DataArray type="Float64" Name="gradient_matprop_marker" format="ascii" RangeMin="0" RangeMax="0">
          0 0 0 0 0 0
          0 0 0 0 0 0
          0 0 0 0 0 0
          0 0 0 0 0 0
          0 0 0 0 0 0
          0 0 0 0 0 0
          0 0 0 0 0 0
          0 0 0 0 0 0
          0 0 0 0 0 0
          0 0 0 0 0 0
          0 0 0 0 0 0
          0 0 0 0 0 0
          0 0 0 0 0 0
          0 0 0 0 0 0
          0 0 0 0 0 0
          0 0 0 0 0 0
          0 0 0 0 0 0
          0 0 0 0 0 0
          0 0 0 0 0 0
          0 0 0 0 0 0
          0 0 0 0 0 0
          0 0 0 0 0 0
          0 0 0 0 0 0
          0 0 0 0 0 0
          0 0 0 0 0 0
          0 0 0 0 0 0
          0 0 0 0 0 0
          0 0 0 0 0 0
          0 0 0 0 0 0
          0 0 0 0 0 0
          0 0 0 0 0 0
          0 0 0 0 0 0
          0 0 0 0 0 0
          0 0 0 0 0 0
          0 0 0 0 0 0
          0 0 0 0 0 0
          0 0 0 0 0 0
          0 0 0 0 0 0
          0 0 0 0 0 0
          0 0 0 0 0 0
          0 0 0 0 0 0
          0 0 0 0 0 0
          0 0 0 0 0 0
          0 0 0 0 0 0
          0 0 0 0 0 0
          0 0 0 0 0 0
          0 0 0 0 0 0
          0 0 0 0 0 0
          0 0 0 0 0 0
          0 0 0 0 0 0
          0 0 0 0 0 0
          0 0 0 0 0 0
          0 0 0 0 0 0
          0 0 0 0 0 0
          0 0 0 0 0 0
          0 0 0 0 0 0
          0 0 0 0 0 0
          0 0 0 0 0 0
          0 0 0 0 0 0
          0 0 0 0 0 0
          0 0 0 0 0 0
          0 0 0 0 0 0
          0 0 0 0 0 0
          0 0 0 0 0 0
          0 0 0 0 0 0
          0 0 0 0 0 0
          0 0 0 0 0 0
          0 0 0 0 0 0
          0 0 0 0 0 0
          0 0 0 0 0 0
          0 0 0 0 0 0
          0 0 0 0 0 0
          0 0 0 0 0 0
          0 0 0 0 0 0
          0 0 0 0 0 0
          0 0 0 0 0 0
          0 0 0 0 0 0
          0 0 0 0 0 0
          0 0 0 0 0 0
        </DataArray>
        <DataArray type="Float64" Name="combo" format="ascii" RangeMin="0" RangeMax="2">
          1 1 1 1 1 1
          1 1 2 1 1 1
          1 1 0.875 1 0.75 0.75
          1 1 1 1 1 1
          1 1 1 0.5 1 1
          1 1 1 1 1 1
          0.875 1 1 1 1 1
          1 1 1 1 1 0.625
          1 1 0.5 0.75 0.875 0.6666666666666666
          0.75 0.75 1 1 1 1
          0.5 0.625 0.625 0.75 0.75 0.8333333333333334
          0.625 0.75 0.75 1 1 1
          1 1 1 1 1 1
          1 1 1 1 1 1
          1 1 1 1 1 1
          1 1 1 1 1 1
          1 1 1 1 1 1
          1 1 1 1 1 1
          1 1 1 1 1 1
          1 1 1 1 1 1
          1 1 1 1 1 1
          1 1 1 1 1 1
          1 1 1 1 1 1
          1 1 1 1 1 1
          1 1 1 1 1 1
          1 1 1 1 1 1
          1 1 1 1 1 1
          0.75 1 0.875 0.5 0.75 0.8333333333333334
          0.625 1 1 1 1 1
          0.5 1 0.75 0.25 0.75 0.625
          0 0.5 0.5 1 1 0.75
          1 1 1 1 1 1
          1 1 1 1 1 0.75
          0.875 0.5 0.625 1 0.75 0.5
          0.75 0.5 1 0 0 0.5
          0.5 0 0.5 0.5 0 0.375
          0.3333333333333333 1 0.5 0.625 0 0
          0.5 0.5 0 0.5 0.5 0
          0.5 0.5 0.5 1 0.75 0.5
          1 0.5 0.75 0.875 1 0.3333333333333333
          0.625 0.25 0.75 1 0.25 1
          1 0.75 1 1 1 1
          1 1 1 1 1 1
          1 1 1 1 1 1
          1 1 1 1 1 1
          1 1 1 1 1 1
          1 1 1 1 1 1
          1 1 1 1 1 1
          1 1 1 1 1 1
          0.875 1 0.75 1 0.75 1
          1 1 1 1 0.75 1
          0.5 1 1 1 0 0
          0 0 0 0.5 0.25 0
          0 0 0.3333333333333333 0 0 0
          0 0.25 0 0 0 0
          0 0 0 0.125 0 0.5
          0 0 0 0 0.75 0.5
          1 0.5 0.25 0.5 0 0.75
          0.5 1 0.75 0.25 0.5 0.5
          0.625 0.75 0.75 0 0.125 0
          0.25 0 0 0 0.5 0.75
          0.25 1 0.25 0.75 0.75 0.75
          2 1 0.5 0.875 1 0.75
          1 1 1 1 0 0
          0.375 0.5 0 0.25 0 0.25
          0.5 0 0 0.25 0 0.25
          0 0 0 0 0.125 0
          0 0 0 0 0 0