<?xml version="1.0"?>
<VTKFile type="UnstructuredGrid" version="0.1" byte_order="LittleEndian" header_type="UInt32" compressor="vtkZLibDataCompressor">
  <UnstructuredGrid>
    <Piece NumberOfPoints="1548" NumberOfCells="1130">
      <PointData>
        <DataArray type="Int32" Name="libmesh_node_id" format="ascii" RangeMin="2466" RangeMax="12257">
          2728 2730 2731 2738 2739 3655
          3656 3657 3660 3663 3665 3666
          3667 3668 3672 3673 3675 3676
          3678 3699 3700 3701 3702 3703
          3704 3705 3706 3707 3708 3709
          3710 3713 3715 3716 3718 5173
          5174 5175 5176 5177 5178 5179
          5180 5181 5182 5183 5184 5185
          5186 5197 5198 5199 5200 5201
          5202 5203 5204 5205 5206 5207
          5208 5209 5210 5211 5212 5213
          5214 5215 5216 5217 5218 5219
          5220 5235 5236 5237 5238 5239
          5240 5241 5242 5243 5244 5327
          5328 5330 5333 5335 5336 5337
          5338 5339 5340 5341 5342 5343
          5344 5346 5348 5350 5352 5353
          5354 5355 5356 5357 5358 5361
          5362 5364 5367 5369 5370 5371
          5372 5373 5374 5375 5376 5377
          5378 5380 5382 5384 5386 5387
          5388 5389 5390 5391 5392 5393
          5394 5395 5396 5397 5398 5399
          5400 5401 5402 5403 5404 5407
          5409 5410 5412 5413 5414 5415
          5416 5417 5418 5419 5420 5422
          5424 5426 5427 5428 5429 5430
          5431 5432 5433 5434 5435 5436
          5437 5438 5441 5443 5444 5446
          5447 5448 5449 5450 5451 5452
          5453 5454 5456 5458 5460 5462
          5466 5490 5494 6510 6511 6513
          6514 6516 6517 6589 6590 6591
          6592 6593 6594 6595 6596 6597
          6598 6606 6607 6608 6609 6610
          6611 6612 6613 6614 6615 6616
          6617 6618 6619 6620 6621 6622
          9862 9863 9864 9865 9866 9867
          9868 9869 9870 9871 9872 9873
          9874 9875 9876 9877 9878 9879
          9880 9881 9882 9883 9884 9885
          9886 9887 9888 9889 9890 9891
          9892 9893 9894 9895 9896 9897
          9898 9899 9900 9901 9902 9903
          9904 9905 9906 9907 9908 9909
          9910 9911 9912 9913 9914 9915
          9916 9917 9918 9919 9920 9921
          9922 9923 9924 9925 9926 9927
          9928 9929 9930 9931 9932 9933
          9934 9935 9936 9937 9938 9939
          9940 9941 9942 9943 9998 9999
          10000 10001 10002 10003 10004 10005
          10006 10007 10008 10009 10010 10011
          10012 10013 10014 10015 10016 10017
          10018 10019 10020 10021 10022 10023
          10024 10025 10026 10027 10028 10029
          10030 10031 10032 10033 10034 10035
          10036 10037 10038 10039 10040 10041
          10042 10043 10044 10045 10046 10047
          10048 10049 10050 10051 10052 10053
          10054 10055 10056 10057 10058 10059
          10060 10061 10062 10063 10064 10065
          10066 10067 10068 10069 10070 10071
          10072 10073 10074 10075 10076 10077
          10078 10079 10080 10081 10082 10083
          10084 10085 10086 10087 10088 10089
          10090 10091 10092 10093 10094 10095
          10096 10097 10098 10099 10100 10101
          10102 10103 10104 10105 10106 10107
          10108 10109 10110 10111 10112 10113
          10114 10115 10116 10117 10118 10119
          10120 10121 10122 10123 10124 10125
          10126 10127 10128 10129 10130 10134
          10135 10137 10138 10140 10155 10156
          10159 10160 10162 10164 10175 10176
          10177 10178 10179 10180 10181 10182
          10183 10184 10185 10186 10187 10188
          10189 10190 10191 10192 10193 10194
          10195 10196 10197 10198 10199 10200
          10201 10202 10203 10204 10205 10206
          10207 10208 10209 10210 10211 10212
          10213 10214 10215 10216 10219 10220
          10222 10224 10235 10236 10239 10240
          10242 10244 10477 10478 10480 10483
          10493 10495 10497 10511 10512 10514
          10517 10527 10529 10531 10533 10534
          10535 10536 10537 10538 10539 10540
          10541 10542 10543 10544 10545 10546
          10547 10548 10549 10550 10551 10552
          10553 10554 10555 10556 10557 10558
          10559 10560 10561 10562 10563 10564
          10565 10566 10567 10568 10569 10570
          10571 10572 10573 10574 10575 10576
          10577 10578 10579 10580 10581 10582
          10583 10584 10585 10586 10587 10588
          10589 10590 10591 10592 10593 10594
          10595 10596 10597 10598 10599 10600
          10609 10611 10613 10623 10627 10637
          10639 10641 10651 10653 10655 10657
          10658 10659 10660 10661 10662 10663
          10664 10665 10666 10667 10668 10669
          10670 10671 10672 10673 10674 10675
          10676 10677 10678 10679 10680 10681
          10682 10683 10684 10685 10686 10687
          10688 10689 10690 10691 10692 10693
          10694 10695 10696 10697 10698 10699
          10700 10701 10702 10703 10704 10705
          10706 10707 10708 10709 10710 10711
          10712 10725 10726 10728 10731 10741
          10743 10745 10757 10758 10759 10760
          10761 10762 10763 10764 10765 10766
          10775 10777 10779 10781 10782 10783
          10784 10785 10786 10787 10788 10789
          10790 10791 10792 10793 10794 10795
          10796 10797 10798 10799 10800 10801
          10802 10803 10804 10805 10806 10807
          10808 10809 10810 10811 10812 10813
          10814 10815 10816 10817 10818 10819
          10820 10821 10822 10823 10824 10825
          10826 10827 10828 10829 10830 10831
          10832 10833 10834 10835 10836 10837
          10838 10839 10840 10841 10842 10843
          10844 10845 10846 10847 10848 10857
          10859 10861 10871 10873 10875 10885
          10887 10889 10899 10901 10903 10905
          10906 10907 10908 10909 10910 10911
          10912 10913 10914 10915 10916 10917
          10918 10919 10920 10921 10922 10923
          10924 10925 10926 10927 10928 10929
          10930 10931 10932 10933 10934 10935
          10936 10937 10938 10939 10940 10941
          10942 10943 10944 10945 10946 10947
          10948 10949 10950 10951 10952 10953
          10954 10955 10956 10957 10958 10959
          10960 10961 10962 10963 10964 10965
          10966 10967 10968 10969 10970 10971
          10972 10973 10974 10975 10976 10977
          10978 10979 10980 10981 10982 10983
          10984 10985 10986 10987 10988 10989
          10990 10991 10992 10993 10994 10995
          10996 10997 10998 10999 11000 11001
          11002 11003 11004 11005 11006 11007
          11008 11009 11010 11011 11012 11013
          11014 11015 11016 11017 11018 11019
          11020 11021 11022 11023 11024 11025
          11026 11027 11028 11029 11030 11031
          11032 11033 11034 11035 11036 11037
          11038 11049 11050 11051 11052 11053
          11054 11055 11063 11064 11065 11066
          11067 11068 11069 11070 11071 11072
          11083 11084 11085 11086 11087 11088
          11089 11097 11098 11099 11100 11101
          11102 11103 11104 11105 11106 11107
          11108 11109 11110 11111 11112 11113
          11114 11115 11116 11117 11118 11119
          11120 11121 11122 11123 11124 11125
          11126 11127 11128 11129 11130 11131
          11132 11133 11134 11135 11136 11137
          11138 11139 11140 11141 11142 11143
          11144 11145 11146 11147 11148 11149
          11150 11151 11152 11153 11154 11155
          11156 11157 11158 11159 11167 11168
          11169 11170 11171 11172 11173 11181
          11182 11183 11184 11185 11186 11187
          11195 11196 11197 11198 11199 11200
          11201 11209 11210 11211 11212 11213
          11214 11215 11216 11217 11218 11219
          11220 11221 11222 11223 11224 11225
          11226 11227 11228 11229 11230 11231
          11232 11233 11234 11235 11236 11237
          11238 11239 11240 11241 11242 11243
          11244 11245 11246 11247 11248 11249
          11250 11251 11252 11253 11254 11255
          11256 11257 11258 11259 11260 11261
          11262 11263 11264 11265 11266 11267
          11268 11269 11270 11271 11272 11273
          11274 11275 11276 11277 11278 11279
          11280 11281 11282 11283 11284 11285
          11286 11297 11298 11299 11300 11301
          11302 11303 11311 11312 11313 11314
          11315 11316 11317 11318 11319 11320
          11331 11332 11333 11334 11335 11336
          11337 11345 11346 11347 11348 11349
          11350 11351 11352 11353 11354 11355
          11356 11357 11358 11359 11360 11361
          11362 11363 11364 11365 11366 11367
          11368 11369 11370 11371 11372 11373
          11374 11375 11376 11377 11378 11379
          11380 11381 11382 11383 11384 11385
          11386 11387 11388 11389 11390 11391
          11392 11393 11394 11395 11396 11397
          11398 11399 11400 11401 11402 11403
          11404 11405 11406 11407 11415 11416
          11417 11418 11419 11420 11421 11429
          11430 11431 11432 11433 11434 11435
          11443 11444 11445 11446 11447 11448
          11449 11469 11493 11495 11497 11517
          11518 11524 11525 11541 11542 11545
          11546 11548 11549 11552 11553 11701
          11703 11705 11729 11731 11733 11749
          11750 11753 11754 11756 11757 11760
          11761 11777 11778 11781 11782 11784
          11785 11788 11789 11921 11922 11928
          11929 11945 11946 11949 11950 11952
          11953 11956 11957 11977 11978 12001
          12002 12005 12006 12162 12163 12166
          12167 12169 12170 12173 12174 12190
          12191 12194 12195 12197 12198 12201
          12202 12218 12219 12222 12223 12246
          12247 12250 12251 2466 3669 3670
          3671 2729 2732 3674 5189 3659
          5190 5193 5221 5222 5223 5224
          5228 5229 5245 5246 5249 5250
          6500 6503 6504 6501 3651 3652
          6507 6506 3658 6583 6584 6585
          6588 3653 5163 3654 6601 6602
          6605 9798 9799 9800 9803 5164
          9806 5165 9820 9821 9824 9826
          5168 9840 9841 9843 3661 9846
          5171 9856 9858 9860 3662 9956
          9957 9960 9962 9972 9974 9976
          5195 9990 9991 9994 9996 3664
          10131 10132 10133 10136 5231 10139
          5232 10157 10158 10161 10163 5234
          10217 10218 10221 10223 5252 10237
          10238 10241 10243 5254 9844 9845
          10475 10476 9847 10479 10481 10482
          10484 9859 10492 9861 10494 10496
          10498 10509 10510 10513 10515 10516
          10518 10526 10528 10530 10532 9975
          10608 9977 10610 10612 10614 9995
          10622 9997 10625 10624 10626 10628
          10636 10638 10640 10642 10650 10652
          10654 10656 10723 10724 10727 10729
          10730 10732 10740 10742 10744 10746
          5359 10721 10749 10750 5360 10752
          5365 10755 5366 10738 10774 10768
          10776 10778 10772 10780 10856 10858
          10860 10862 10870 10872 10874 10876
          10884 10886 10888 10890 10898 10900
          10902 10904 10151 10152 11039 11040
          10154 11043 11045 11046 11048 10172
          11056 10174 11058 11060 11062 11073
          11074 11077 11079 11080 11082 11090
          11092 11094 11096 10232 11160 10234
          11162 11164 11166 10252 11174 10254
          11176 11178 11180 11188 11190 11192
          11194 11202 11204 11206 11208 11287
          11288 11291 11293 11294 11296 11304
          11306 11308 11310 11321 11322 11325
          11327 11328 11330 11338 11340 11342
          11344 11408 11410 11412 11414 11422
          11424 11426 11428 11436 11438 11440
          11442 11450 11452 11454 11456 11465
          11464 11468 11467 11466 11470 11492
          11494 11496 11498 11700 11702 11704
          11706 11728 11730 11732 11734 11984
          12008 12012 12225 12229 12253 12257
        </DataArray>
        <DataArray type="Float64" Name="bounds" format="ascii" RangeMin="0" RangeMax="0">
          0 0 0 0 0 0
          0 0 0 0 0 0
          0 0 0 0 0 0
          0 0 0 0 0 0
          0 0 0 0 0 0
          0 0 0 0 0 0
          0 0 0 0 0 0
          0 0 0 0 0 0
          0 0 0 0 0 0
          0 0 0 0 0 0
          0 0 0 0 0 0
          0 0 0 0 0 0
          0 0 0 0 0 0
          0 0 0 0 0 0
          0 0 0 0 0 0
          0 0 0 0 0 0
          0 0 0 0 0 0
          0 0 0 0 0 0
          0 0 0 0 0 0
          0 0 0 0 0 0
          0 0 0 0 0 0
          0 0 0 0 0 0
          0 0 0 0 0 0
          0 0 0 0 0 0
          0 0 0 0 0 0
          0 0 0 0 0 0
          0 0 0 0 0 0
          0 0 0 0 0 0
          0 0 0 0 0 0
          0 0 0 0 0 0
          0 0 0 0 0 0
          0 0 0 0 0 0
          0 0 0 0 0 0
          0 0 0 0 0 0
          0 0 0 0 0 0
          0 0 0 0 0 0
          0 0 0 0 0 0
          0 0 0 0 0 0
          0 0 0 0 0 0
          0 0 0 0 0 0
          0 0 0 0 0 0
          0 0 0 0 0 0
          0 0 0 0 0 0
          0 0 0 0 0 0
          0 0 0 0 0 0
          0 0 0 0 0 0
          0 0 0 0 0 0
          0 0 0 0 0 0
          0 0 0 0 0 0
          0 0 0 0 0 0
          0 0 0 0 0 0
          0 0 0 0 0 0
          0 0 0 0 0 0
          0 0 0 0 0 0
          0 0 0 0 0 0
          0 0 0 0 0 0
          0 0 0 0 0 0
          0 0 0 0 0 0
          0 0 0 0 0 0
          0 0 0 0 0 0
          0 0 0 0 0 0
          0 0 0 0 0 0
          0 0 0 0 0 0
          0 0 0 0 0 0
          0 0 0 0 0 0
          0 0 0 0 0 0
          0 0 0 0 0 0
          0 0 0 0 0 0
          0 0 0 0 0 0
          0 0 0 0 0 0
          0 0 0 0 0 0
          0 0 0 0 0 0
          0 0 0 0 0 0
          0 0 0 0 0 0
          0 0 0 0 0 0
          0 0 0 0 0 0
          0 0 0 0 0 0
          0 0 0 0 0 0
          0 0 0 0 0 0
          0 0 0 0 0 0
          0 0 0 0 0 0
          0 0 0 0 0 0
          0 0 0 0 0 0
          0 0 0 0 0 0
          0 0 0 0 0 0
          0 0 0 0 0 0
          0 0 0 0 0 0
          0 0 0 0 0 0
          0 0 0 0 0 0
          0 0 0 0 0 0
          0 0 0 0 0 0
          0 0 0 0 0 0
          0 0 0 0 0 0
          0 0 0 0 0 0
          0 0 0 0 0 0
          0 0 0 0 0 0
          0 0 0 0 0 0
          0 0 0 0 0 0
          0 0 0 0 0 0
          0 0 0 0 0 0
          0 0 0 0 0 0
          0 0 0 0 0 0
          0 0 0 0 0 0
          0 0 0 0 0 0
          0 0 0 0 0 0
          0 0 0 0 0 0
          0 0 0 0 0 0
          0 0 0 0 0 0
          0 0 0 0 0 0
          0 0 0 0 0 0
          0 0 0 0 0 0
          0 0 0 0 0 0
          0 0 0 0 0 0
          0 0 0 0 0 0
          0 0 0 0 0 0
          0 0 0 0 0 0
          0 0 0 0 0 0
          0 0 0 0 0 0
          0 0 0 0 0 0
          0 0 0 0 0 0
          0 0 0 0 0 0
          0 0 0 0 0 0
          0 0 0 0 0 0
          0 0 0 0 0 0
          0 0 0 0 0 0
          0 0 0 0 0 0
          0 0 0 0 0 0
          0 0 0 0 0 0
          0 0 0 0 0 0
          0 0 0 0 0 0
          0 0 0 0 0 0
          0 0 0 0 0 0
          0 0 0 0 0 0
          0 0 0 0 0 0
          0 0 0 0 0 0
          0 0 0 0 0 0
          0 0 0 0 0 0
          0 0 0 0 0 0
          0 0 0 0 0 0
          0 0 0 0 0 0
          0 0 0 0 0 0
          0 0 0 0 0 0
          0 0 0 0 0 0
          0 0 0 0 0 0
          0 0 0 0 0 0
          0 0 0 0 0 0
          0 0 0 0 0 0
          0 0 0 0 0 0
          0 0 0 0 0 0
          0 0 0 0 0 0
          0 0 0 0 0 0
          0 0 0 0 0 0
          0 0 0 0 0 0
          0 0 0 0 0 0
          0 0 0 0 0 0
          0 0 0 0 0 0
          0 0 0 0 0 0
          0 0 0 0 0 0
          0 0 0 0 0 0
          0 0 0 0 0 0
          0 0 0 0 0 0
          0 0 0 0 0 0
          0 0 0 0 0 0
          0 0 0 0 0 0
          0 0 0 0 0 0
          0 0 0 0 0 0
          0 0 0 0 0 0
          0 0 0 0 0 0
          0 0 0 0 0 0
          0 0 0 0 0 0
          0 0 0 0 0 0
          0 0 0 0 0 0
          0 0 0 0 0 0
          0 0 0 0 0 0
          0 0 0 0 0 0
          0 0 0 0 0 0
          0 0 0 0 0 0
          0 0 0 0 0 0
          0 0 0 0 0 0
          0 0 0 0 0 0
          0 0 0 0 0 0
          0 0 0 0 0 0
          0 0 0 0 0 0
          0 0 0 0 0 0
          0 0 0 0 0 0
          0 0 0 0 0 0
          0 0 0 0 0 0
          0 0 0 0 0 0
          0 0 0 0 0 0
          0 0 0 0 0 0
          0 0 0 0 0 0
          0 0 0 0 0 0
          0 0 0 0 0 0
          0 0 0 0 0 0
          0 0 0 0 0 0
          0 0 0 0 0 0
          0 0 0 0 0 0
          0 0 0 0 0 0
          0 0 0 0 0 0
          0 0 0 0 0 0
          0 0 0 0 0 0
          0 0 0 0 0 0
          0 0 0 0 0 0
          0 0 0 0 0 0
          0 0 0 0 0 0
          0 0 0 0 0 0
          0 0 0 0 0 0
          0 0 0 0 0 0
          0 0 0 0 0 0
          0 0 0 0 0 0
          0 0 0 0 0 0
          0 0 0 0 0 0
          0 0 0 0 0 0
          0 0 0 0 0 0
          0 0 0 0 0 0
          0 0 0 0 0 0
          0 0 0 0 0 0
          0 0 0 0 0 0
          0 0 0 0 0 0
          0 0 0 0 0 0
          0 0 0 0 0 0
          0 0 0 0 0 0
          0 0 0 0 0 0
          0 0 0 0 0 0
          0 0 0 0 0 0
          0 0 0 0 0 0
          0 0 0 0 0 0
          0 0 0 0 0 0
          0 0 0 0 0 0
          0 0 0 0 0 0
          0 0 0 0 0 0
          0 0 0 0 0 0
          0 0 0 0 0 0
          0 0 0 0 0 0
          0 0 0 0 0 0
          0 0 0 0 0 0
          0 0 0 0 0 0
          0 0 0 0 0 0
          0 0 0 0 0 0
          0 0 0 0 0 0
          0 0 0 0 0 0
          0 0 0 0 0 0
          0 0 0 0 0 0
          0 0 0 0 0 0
          0 0 0 0 0 0
          0 0 0 0 0 0
          0 0 0 0 0 0
          0 0 0 0 0 0
          0 0 0 0 0 0
          0 0 0 0 0 0
          0 0 0 0 0 0
          0 0 0 0 0 0
          0 0 0 0 0 0
          0 0 0 0 0 0
          0 0 0 0 0 0
          0 0 0 0 0 0
          0 0 0 0 0 0
          0 0 0 0 0 0
        </DataArray>
        <DataArray type="Float64" Name="gradient_error" format="ascii" RangeMin="8.248256935154258e-13" RangeMax="3.484054320561287e-9">
          8.33134830729629e-12 9.824861320967934e-11 3.4956676536000095e-11 1.3683374879691651e-9 8.332363135753619e-10 1.327440757435017e-11
          1.5770416714410358e-11 2.305601055250883e-11 4.054180533281176e-11 7.580783180125999e-11 1.0024216478498888e-11 1.477936573360773e-11
          1.8970861631855152e-11 3.050721779117619e-11 2.0094730279228308e-11 2.333315908073929e-11 4.507076979314826e-11 3.4526921701770457e-11
          1.5713724704012722e-11 1.7753269618413092e-9 1.3692386124485158e-9 1.143929578768424e-9 8.708708284923635e-10 6.195761204073157e-10
          3.683096000302737e-10 1.744192357249982e-9 2.0100742107772816e-9 1.330305037267101e-9 1.2375942784382573e-9 6.560660745488344e-10
          4.859918662901782e-10 1.929430017940058e-10 8.927262267925804e-10 8.780020921754725e-10 4.906747484910865e-10 2.3996985163525276e-11
          2.2605583691994087e-11 3.599124203916044e-11 3.390663692582511e-11 1.4502429062988445e-11 2.4455889452367674e-11 2.2956566032742263e-11
          1.895293880449318e-11 2.8296248218545255e-11 2.454639067654424e-11 1.393765690625515e-10 1.3076630204517994e-10 9.210240492360586e-11
          1.0800293726833917e-10 3.1140822733221275e-11 3.626301557987092e-11 3.220545738109974e-11 3.0293092260320344e-11 4.65895674447967e-11
          4.015456948960333e-11 2.6989443557128955e-11 7.850109223861312e-11 5.4824472342885965e-11 5.0322820873569295e-11 9.704755813672673e-12
          1.401794658068165e-11 1.6193538255831e-11 1.9587779538882004e-11 2.1369881258462136e-11 1.7049276897742328e-11 2.0817146719349208e-11
          2.7252649154640527e-11 2.670952331654103e-11 2.2265438802202932e-11 6.74551075767603e-11 6.314573912741871e-11 4.21615978267309e-11
          5.18210214742037e-11 3.950902865747503e-11 2.603355703026452e-11 2.5743267315186085e-11 1.6932402230139092e-11 2.7334222185650205e-11
          1.7778608178042665e-11 1.1412362922777138e-11 3.7336961143242454e-11 2.481582488336019e-11 2.3710744158325996e-11 6.407562625807306e-10
          6.01108178313681e-10 4.955670274822524e-10 1.6624630091376793e-9 4.912681071265296e-10 4.597814150358798e-10 3.6527256790892876e-10
          3.4105855758464223e-10 3.7641166466570097e-10 2.7735398523553833e-10 1.4402296578772277e-9 1.349024441558434e-9 1.0693900978615048e-9
          1.1074014122440337e-9 3.5767689964671157e-10 2.2520410448708329e-10 9.89811300341496e-10 2.687428032723164e-10 1.960799866079958e-10
          1.670256539518121e-10 1.20512928372671e-10 7.907750807202847e-10 6.124667760322417e-10 4.852167701188835e-10 3.1891959349963847e-9
          3.0131397913453955e-9 2.4968472973840435e-9 1.9081185249421223e-9 2.6579547895266822e-9 2.4897467486607e-9 2.1271000346960108e-9
          1.9968841320942917e-9 2.0470004797501296e-9 1.6652919260698691e-9 1.624512354363665e-9 1.692656364705882e-9 1.3839998584563664e-9
          1.6657232968392828e-9 1.811257608959235e-9 1.1784567812256232e-9 1.6986653116813264e-9 1.5055561803247092e-9 1.227122839716476e-9
          9.67403394452794e-10 7.694088230408632e-10 1.4002272099014427e-9 1.1592943159198459e-9 1.0310499677406744e-9 2.630217145064392e-10
          2.4506507857488926e-10 1.8336484720025064e-10 1.7055576990391163e-10 1.981252671273236e-10 1.3725269494749177e-10 8.822793295796922e-10
          8.2196466165562e-10 6.090143040217865e-10 6.625534456115226e-10 1.238963282083121e-10 1.151007786240441e-10 9.23217288601155e-11
          4.691332592173259e-10 4.34159683218404e-10 3.4360379674631645e-10 1.3891760490233998e-10 9.562909272663088e-11 8.461526243102305e-11
          5.784992875265407e-11 4.5858664834709175e-10 3.316520034194237e-10 2.707971051001763e-10 6.403326108999242e-11 3.8538667147012706e-11
          2.3188402270417988e-10 1.3336163827138927e-10 1.6984487795634844e-9 1.6027915551103428e-9 1.344082148388197e-9 1.262898025364954e-9
          1.33874016886632e-9 1.0396063811320698e-9 1.0780643999537441e-9 1.0971318482724975e-9 9.062213111158392e-10 1.0899781643466547e-9
          1.0205972065938797e-9 9.542664795802413e-10 7.75203662140393e-10 7.19168297807791e-10 7.195267279340434e-10 6.770933666895417e-10
          9.682073795531124e-10 7.359582305375341e-10 5.913839874465302e-10 4.3898701591084186e-10 9.366047798307301e-10 7.285680098347208e-10
          6.508176939372235e-10 5.386520496437877e-10 3.148527165503668e-10 5.451471504366387e-10 3.571024338644939e-10 1.238005114367896e-10
          3.3169572141014826e-10 6.504394986824778e-10 7.511512030516718e-10 2.0633928352761453e-12 1.8635243090197783e-12 8.248256935154258e-13
          1.0122141242261323e-12 1.6636557827634113e-12 1.1996025549368386e-12 9.551039184280212e-12 9.555327882333834e-12 2.2881438532946616e-11
          2.179200056789494e-11 6.978472646288666e-12 1.5063350233045012e-11 1.4179475180215706e-11 9.19053423565006e-12 1.864089226192371e-11
          1.3140712821112152e-11 8.886739228870821e-12 1.4469174959889438e-11 7.914607836146813e-12 1.1395223829725666e-11 8.952026566828984e-12
          1.2359127998774717e-11 9.959509450887668e-12 4.899487893241542e-12 5.455450205293401e-12 9.483937455206922e-12 8.880686511865862e-12
          4.879336848709442e-12 7.114849145155038e-12 6.744555910273957e-12 6.01141251734526e-12 8.277435568524802e-12 6.374262675392875e-12
          1.4332538387493203e-11 1.4146778346875074e-11 2.165368155180626e-11 2.1352848401363474e-11 1.1620435099118213e-11 1.7875887980458025e-11
          1.7620789824109404e-11 1.3582510530792908e-11 2.046638093348518e-11 1.689453336080011e-11 4.327012268748699e-11 4.2634893219956766e-11
          3.545769288639201e-11 4.0787585921370574e-11 9.652548710914459e-12 9.48848820747245e-12 1.468164177070137e-11 1.4451383804960122e-11
          7.77957512397773e-12 1.1998394582693972e-11 1.1796161838957814e-11 9.177268449731023e-12 1.3867783797153316e-11 1.1329268777090964e-11
          2.9758688623754587e-11 2.93117255916005e-11 2.4070272975736883e-11 2.8005409709076955e-11 1.2684972983882782e-11 1.9066054876421894e-11
          1.0563366291756607e-11 1.5768035543403567e-11 1.1640730668836726e-11 1.7317530377220157e-11 1.4334893667888031e-11 3.7884365222467494e-11
          3.146412255208561e-11 3.4117819383896224e-11 8.986207695173402e-12 1.2992423235162724e-11 7.805185791352896e-12 1.0625617211598297e-11
          8.71993447508552e-12 1.1795471652213358e-11 1.0113483965014578e-11 2.5925463496750993e-11 2.1133888856389372e-11 2.3217437197516328e-11
          8.509533926335412e-11 8.380315513688329e-11 7.141439224417591e-11 7.032283500846825e-11 8.004580679842716e-11 6.715148521234024e-11
          1.643496024085591e-10 1.6177359128844616e-10 1.3717207650130362e-10 1.5428477301990235e-10 5.956475490580425e-11 5.865203041085011e-11
          4.937682725660843e-11 4.863049101415465e-11 5.5990387645715994e-11 4.642654976915035e-11 1.174095133363908e-10 1.1553893931856355e-10
          9.667531112602215e-11 1.1010486810437774e-10 7.415509181523355e-11 6.219841468015522e-11 6.659543403773302e-11 5.5849166499307113e-11
          1.4256206596788736e-10 1.2074942085986743e-10 1.27632110838567e-10 5.1893937448449525e-11 4.3056839266214686e-11 4.6677130380922305e-11
          3.8781206174901847e-11 1.016042173555277e-10 8.493421115955606e-11 9.078712557422698e-11 1.1264245176262346e-11 1.5257761210642226e-11
          9.482216555964513e-12 1.263277184265211e-11 1.1412972227287925e-11 1.4131824803638258e-11 1.1708452382495856e-11 2.9450811042266676e-11
          2.441392623207826e-11 2.816981978132381e-11 8.359655201705789e-12 1.0375323420054578e-11 8.00457821024419e-12 9.336019382195968e-12
          8.22174764815574e-12 9.630108250920128e-12 8.704838797820831e-12 2.0009313597226278e-11 1.8866493702933364e-11 1.92426701502766e-11
          5.809451294743553e-11 4.867159115215138e-11 4.920287495195654e-11 4.1152726248719644e-11 1.1070599416560294e-10 9.355964082466532e-11
          9.303599279520904e-11 4.064254411719332e-11 3.37197051815456e-11 3.4243376806444707e-11 2.830467371466338e-11 7.854852449097436e-11
          6.550937437584933e-11 6.581479225579188e-11 2.775577472999709e-11 4.0294814106750266e-11 2.307176932845738e-11 3.365583711919034e-11
          2.2034739685605357e-11 3.19912577621447e-11 2.669088229463991e-11 7.577309349851085e-11 6.382657034371409e-11 5.984254176990995e-11
          1.9039173616580684e-11 2.7932128559438e-11 1.5612579744790652e-11 2.3039773285097033e-11 1.507197213985056e-11 2.2117384997966693e-11
          1.8226476613940807e-11 5.3433500513064127e-11 4.445647880756879e-11 4.2067163319587214e-11 6.430248075324222e-12 6.52441809490413e-12
          9.760511623746174e-12 9.592151634173735e-12 5.655743085117842e-12 7.920424419276104e-12 7.781098074501428e-12 6.662762269904542e-12
          9.160086755440712e-12 7.713895603287883e-12 1.9972538621772827e-11 1.9611249483006687e-11 1.5816367638114615e-11 1.8611287847611415e-11
          4.774713972481017e-12 5.05649705890081e-12 6.364127865280176e-12 6.284569310844776e-12 4.818899045922056e-12 5.637684765970262e-12
          5.601893493263166e-12 5.338280145320604e-12 6.205010756409376e-12 5.566102220556071e-12 1.2970557622836337e-11 1.2632708330964932e-11
          1.172286668895481e-11 1.3712614898822908e-11 6.868920301582498e-12 8.546208658056679e-12 6.473072566401331e-12 7.56795029713947e-12
          7.030904177839953e-12 8.196035449833228e-12 7.277757243868796e-12 1.703163069398176e-11 1.594295888892806e-11 1.7469381120465777e-11
          4.067824073401429e-11 4.0109310740532674e-11 3.3332952259602674e-11 3.2895726243575195e-11 3.837567883405903e-11 3.1531763093943804e-11
          8.16755533691515e-11 8.035635522060324e-11 6.63512504111594e-11 7.652098330003463e-11 2.7256430772165656e-11 2.68459800054554e-11
          2.2137190343014817e-11 2.1747999094741552e-11 2.5632451442766236e-11 2.0659311199425222e-11 5.532722299117677e-11 5.441552067849448e-11
          4.432568052435404e-11 5.176827421662117e-11 3.556327744006861e-11 2.916781173647811e-11 3.190754629533369e-11 2.6028613796480654e-11
          7.051737017837517e-11 5.815005568314316e-11 6.288614982778807e-11 1.5703927633477257e-11 2.3637274949343565e-11 1.2447093065076622e-11
          1.9003381541741763e-11 1.3920975238262071e-11 2.1059755975825415e-11 1.694258948884798e-11 4.7645285205895734e-11 3.8789222226700045e-11
          4.243044015085491e-11 1.1622523739921262e-11 1.1387485226276183e-11 1.7719322655794384e-11 1.740888270495931e-11 1.076849836599877e-11
          1.6539082501812584e-11 3.64864838326019e-11 3.5879490135254214e-11 3.41193780090626e-11 9.887015263992082e-12 1.5225874465716845e-11
          8.824915792615257e-12 1.3592595625338007e-11 3.13811537198124e-11 2.7924396104644186e-11 1.8671713785553106e-11 2.765605861181492e-11
          1.5004048971789924e-11 2.2498205203186495e-11 1.559871927921108e-11 2.318354437687302e-11 1.8865166705931182e-11 5.428740553883918e-11
          4.469865794745358e-11 4.538452546713527e-11 1.2021302408594486e-11 1.8210778041248716e-11 9.60938440946326e-12 1.4675259038161685e-11
          1.0109810290507526e-11 1.5291067866050636e-11 1.23399348767095e-11 3.6573345529398973e-11 2.974556663279393e-11 3.052944541495291e-11
          1.2710996870511603e-11 1.8884608663755907e-11 1.0295677868416091e-11 1.539280375775337e-11 1.009594998021177e-11 1.495488108333003e-11
          1.2206654756109387e-11 3.6762460561582194e-11 3.021730593493763e-11 2.887486963946193e-11 8.303807857429186e-12 1.2482104759927113e-11
          6.668573873646994e-12 1.0070018695464082e-11 6.630479477115069e-12 9.894395409856437e-12 7.973804416663387e-12 2.4690882220036838e-11
          2.0057435730646944e-11 1.9358426004130327e-11 7.679690091928523e-12 1.1781214071606442e-11 6.494229880704314e-12 9.906889297963474e-12
          2.404887736122359e-11 2.0053772023418337e-11 5.331159957731123e-12 8.0815142310499e-12 4.2464683852147985e-12 6.395908014031297e-12
          1.6198603847240558e-11 1.268115485916873e-11 3.5780171487879264e-10 3.5215569464001085e-10 3.357283053430181e-10 6.306199164985655e-10
          3.099834087213669e-10 2.7713732560107344e-10 5.547894961845524e-10 1.0958783309598618e-9 1.0786069638881506e-9 1.0283200079943838e-9