<?xml version="1.0"?>
<VTKFile type="UnstructuredGrid" version="0.1" byte_order="LittleEndian" header_type="UInt32" compressor="vtkZLibDataCompressor">
  <UnstructuredGrid>
    <Piece NumberOfPoints="1627" NumberOfCells="1072">
      <PointData>
        <DataArray type="Int32" Name="libmesh_node_id" format="ascii" RangeMin="2320" RangeMax="9312">
          2320 2452 2457 2459 2678 2680
          2681 2682 2683 2684 2685 2686
          2688 2689 2690 2691 2692 2693
          2715 2716 2717 2721 2724 2725
          3451 3452 3457 3473 3474 3475
          3476 3477 3478 3479 3480 3481
          3482 3483 3484 3485 3486 3487
          3488 3489 3490 3491 3492 3493
          3494 3495 3496 3497 3498 3499
          3500 3501 3502 3503 3504 3505
          3506 3507 3508 3509 3510 3511
          3512 3513 3514 3515 3516 3517
          3518 3519 3520 3521 3522 3523
          3524 3525 3526 3527 3528 3529
          3530 3531 3532 3533 3534 3535
          3536 3537 3538 3539 3540 3541
          3542 3543 3544 3545 3546 3547
          3548 3549 3550 3551 3552 3553
          3554 3565 3566 3568 3569 3570
          3571 3572 3574 3575 3576 3577
          3578 3579 3580 3581 3582 3597
          3598 3599 3600 3601 3602 3604
          3605 3606 3617 3618 3619 3620
          3621 3622 3623 3624 3625 3626
          3627 3633 3637 3638 3639 3641
          3642 3643 3733 3734 3740 4538
          4544 4572 4573 4575 4578 4588
          4592 4618 4619 4620 4621 4622
          4623 4624 4625 4626 4627 4628
          4629 4630 4631 4632 4633 4634
          4635 4636 4637 4638 4639 4640
          4641 4642 4643 4644 4645 4646
          4647 4648 4649 4650 4651 4652
          4653 4654 4655 4656 4657 4658
          4659 4660 4661 4662 4663 4664
          4665 4666 4667 4668 4669 4670
          4671 4672 4673 4674 4675 4676
          4677 4678 4679 4680 4681 4682
          4683 4684 4685 4686 4687 4688
          4689 4690 4691 4692 4693 4694
          4695 4696 4697 4698 4699 4700
          4701 4702 4703 4704 4705 4706
          4707 4708 4709 4710 4711 4712
          4713 4714 4715 4716 4717 4718
          4719 4720 4721 4722 4723 4724
          4725 4726 4727 4728 4729 4730
          4731 4732 4733 4734 4735 4736
          4737 4738 4739 4740 4741 4742
          4743 4744 4745 4746 4747 4748
          4749 4750 4751 4752 4753 4754
          4755 4756 4757 4758 4759 4760
          4761 4762 4763 4764 4765 4766
          4767 4768 4769 4770 4771 4772
          4773 4774 4775 4776 4777 4778
          4779 4780 4781 4782 4783 4784
          4785 4786 4787 4788 4789 4790
          4791 4792 4793 4794 4795 4796
          4797 4798 4799 4800 4801 4802
          4803 4804 4805 4806 4807 4808
          4809 4810 4811 4812 4813 4814
          4815 4816 4817 4818 4819 4820
          4821 4822 4823 4824 4825 4830
          4831 4832 4833 4834 4835 4836
          4840 4841 4842 4939 4940 4941
          4942 4943 4944 4945 4946 4947
          4948 4949 4950 4951 4952 4953
          4954 4955 4956 4957 4958 4959
          4960 4961 4962 4963 4964 4965
          4966 4967 4968 4969 4970 4971
          4972 4973 4974 4975 4976 4977
          4978 4979 4980 4981 4982 4983
          4984 4985 4986 4987 4988 4989
          4990 4991 4992 4993 4994 4995
          4996 4997 4998 4999 5000 5001
          5002 5003 5004 5005 5006 5013
          5014 5015 5016 5031 5041 5042
          5043 5044 5045 5047 5048 5049
          5050 5061 5065 5075 5076 5077
          5080 5081 5082 5086 5087 5088
          5089 5090 5091 5092 5093 5094
          5095 5096 5097 5098 5099 7440
          7441 7442 7443 7454 7455 7456
          7457 7458 7459 7460 7461 7462
          7463 7467 7468 7469 7479 7480
          7481 7560 7561 7562 7563 7564
          7565 7566 7567 7568 7569 7577
          7578 7579 7580 7581 7582 7583
          7594 7595 7596 7597 7598 7599
          7600 7601 7602 7603 7611 7612
          7613 7614 7615 7616 7617 7667
          7668 7669 7670 7671 7672 7673
          7677 7678 7679 7687 7688 7689
          7690 7691 7692 7693 7701 7702
          7703 7704 7705 7706 7707 7708
          7709 7710 7711 7712 7713 7714
          7715 7716 7717 7718 7719 7720
          7721 7722 7723 7724 7725 7726
          7727 7728 7729 7730 7731 7732
          7733 7734 7735 7736 7737 7738
          7739 7740 7741 7742 7743 7744
          7745 7746 7747 7748 7749 7750
          7751 7752 7753 7754 7755 7756
          7757 7758 7759 7760 7761 7762
          7763 7764 7765 7766 7767 7768
          7769 7770 7771 7772 7773 7774
          7775 7776 7777 7778 7779 7780
          7781 7782 7783 7784 7785 7786
          7787 7788 7789 7790 7791 7792
          7793 7794 7795 7796 7797 7798
          7799 7800 7801 7802 7803 7804
          7805 7806 7807 7808 7809 7810
          7811 7812 7813 7814 7815 7816
          7817 7818 7819 7820 7821 7822
          7823 7824 7825 7826 7827 7828
          7829 7830 7831 7832 7833 7834
          7835 7836 7837 7838 7839 7840
          7841 7842 7843 7844 7845 7846
          7847 7848 7849 7850 7851 7852
          7853 7854 7855 7856 7857 7858
          7859 7860 7861 7862 7863 7864
          7865 7866 7867 7868 7869 7870
          7871 7872 7873 7874 7875 7876
          7877 7878 7879 7880 7881 7882
          7883 7884 7885 7886 7887 7888
          7889 7890 7891 7892 7893 7894
          7895 7896 7897 7898 7899 7900
          7901 7902 7903 7904 7905 7906
          7907 7908 7909 7910 7911 7912
          7913 7914 7915 7916 7917 7918
          7919 7920 7921 7922 7923 7924
          7925 7926 7927 7928 7929 7930
          7931 7932 7933 7934 7935 7936
          7937 7938 7939 7940 7941 7942
          7943 7944 7945 7946 7947 7948
          7949 7950 7951 7952 7953 7954
          7955 7956 7957 7958 7959 7960
          7961 7962 7963 7964 7965 7966
          7967 7968 7969 7970 7971 7972
          7973 7974 7975 7976 7977 7978
          7979 7980 7981 7982 7983 7984
          7985 7986 7987 7988 7989 7990
          7991 7992 7993 7994 7995 7996
          7997 7998 7999 8000 8001 8002
          8003 8004 8005 8006 8007 8008
          8009 8010 8011 8012 8013 8014
          8015 8016 8017 8018 8019 8020
          8021 8022 8023 8024 8025 8026
          8027 8028 8029 8030 8031 8032
          8033 8034 8035 8036 8037 8038
          8039 8040 8041 8042 8043 8044
          8045 8046 8047 8048 8049 8050
          8051 8052 8053 8054 8055 8056
          8057 8058 8059 8060 8061 8062
          8063 8064 8065 8066 8067 8068
          8069 8070 8071 8072 8073 8074
          8075 8076 8077 8078 8079 8080
          8081 8082 8083 8084 8085 8086
          8087 8088 8089 8090 8091 8092
          8093 8094 8095 8096 8097 8098
          8099 8100 8101 8102 8103 8104
          8105 8106 8107 8108 8109 8110
          8111 8112 8113 8114 8115 8116
          8117 8118 8119 8120 8121 8122
          8123 8124 8125 8126 8127 8128
          8129 8130 8131 8132 8133 8134
          8135 8136 8137 8138 8139 8140
          8141 8142 8143 8144 8145 8146
          8147 8148 8149 8150 8151 8152
          8153 8154 8155 8156 8157 8158
          8159 8160 8161 8162 8163 8164
          8165 8166 8167 8168 8169 8170
          8171 8172 8173 8174 8175 8176
          8177 8178 8179 8180 8181 8182
          8183 8184 8185 8186 8187 8188
          8189 8190 8191 8192 8193 8194
          8195 8196 8197 8198 8199 8200
          8201 8202 8203 8204 8205 8206
          8207 8208 8209 8210 8211 8212
          8213 8214 8215 8216 8217 8218
          8219 8220 8221 8222 8223 8224
          8225 8226 8227 8228 8229 8230
          8231 8232 8233 8234 8235 8236
          8237 8238 8239 8240 8241 8242
          8243 8244 8245 8246 8247 8248
          8249 8250 8251 8252 8253 8254
          8255 8256 8257 8258 8259 8260
          8261 8262 8263 8264 8265 8266
          8267 8268 8269 8270 8271 8272
          8273 8274 8275 8276 8277 8278
          8279 8280 8281 8282 8283 8284
          8285 8286 8287 8288 8289 8290
          8291 8292 8293 8294 8295 8296
          8297 8298 8299 8300 8301 8302
          8303 8304 8305 8306 8307 8308
          8309 8310 8311 8669 8670 8671
          8672 8673 8674 8675 8676 8677
          8678 8679 8680 8681 8682 8683
          8684 8685 8686 8687 8688 8689
          8690 8691 8692 8693 8694 8695
          8696 8697 8698 8699 8700 8701
          8702 8703 8704 8705 8706 8707
          8708 8709 8710 8711 8712 8713
          8714 8715 8716 8717 8718 8719
          8720 8721 8722 8723 8724 8725
          8726 8727 8728 8729 8730 8731
          8732 8733 8734 8735 8736 8737
          8738 8739 8740 8741 8742 8743
          8744 8745 8746 8747 8748 8749
          8750 8751 8752 8753 8754 8755
          8756 8757 8758 8759 8760 8761
          8762 8763 8764 8765 8766 8767
          8768 8769 8770 8771 8772 8773
          8774 8775 8776 8777 8778 8779
          8780 8781 8782 8783 8784 8785
          8786 8787 8788 8789 8790 8791
          8792 8793 8794 8795 8796 8797
          8798 8799 8800 8801 8802 8803
          8804 8805 8806 8807 8808 8809
          8810 8811 8812 8813 8814 8815
          8816 8817 8818 8819 8820 8821
          8822 8823 8824 8825 8826 8827
          8828 8829 8830 8831 8832 8833
          8834 8835 8836 8837 8838 8839
          8840 8841 8842 8843 8844 8845
          8846 8847 8848 8849 8850 8851
          8852 8853 8854 8855 8856 8857
          8858 8859 8860 8861 8862 8863
          8864 8865 8866 8867 8868 8869
          8870 8871 8872 8873 8874 8875
          8876 8877 8878 8879 8880 8881
          8882 8883 8884 8885 8886 8887
          8888 8889 8890 8891 8892 8893
          8894 8895 8896 8897 8898 8899
          8900 8901 8902 8903 8904 8905
          8906 8907 8908 8909 8910 8911
          8912 8913 8914 8915 8916 8917
          8918 8919 8920 8921 8922 8923
          8924 8925 8926 8927 8928 8929
          8930 8958 8959 8960 8961 8968
          8969 8970 8971 8974 8975 8976
          8981 8982 8983 9148 9149 9150
          9151 9152 9153 9154 9155 9156
          9157 9158 9159 9160 9161 9162
          9163 9164 9165 9166 9167 9168
          9169 9170 9171 9172 9173 9174
          9175 9176 9177 9179 9180 9181
          9182 9183 9184 9185 9186 9187
          9188 9189 9190 9191 9192 9193
          9194 9195 9196 9197 9198 9199
          9200 9201 9202 9203 9204 9205
          9206 9207 9208 9209 9210 9211
          9213 9214 9215 9286 9287 9288
          9306 9307 9308 9309 9310 9311
          9312 2450 2687 2704 2696 2675
          2705 2697 2453 2706 2707 2458
          2711 2702 2712 2951 2958 2959
          2952 2449 2670 2961 2962 2964
          2955 2965 2969 2974 3409 3410
          3411 3414 2671 3417 2672 3431
          3432 3435 3437 3454 3467 3469
          3471 4450 4452 4451 4536 4539
          4537 4541 4540 4543 4545 4554
          4553 4558 4557 4559 4587 4590
          4589 4612 4611 4593 4616 4615
          4458 4556 4602 4614 7438 7446
          7447 7449 4542 7452 7552 7553
          7555 4570 7558 4571 7465 7571
          7573 7575 4574 7586 7587 7589
          4576 7592 4577 7605 7607 7609
          4579 7477 7661 7663 7665 7681
          7683 7685 4591 7675 7695 7697
          7699
        </DataArray>
        <DataArray type="Float64" Name="bounds" format="ascii" RangeMin="0" RangeMax="0">
          0 0 0 0 0 0
          0 0 0 0 0 0
          0 0 0 0 0 0
          0 0 0 0 0 0
          0 0 0 0 0 0
          0 0 0 0 0 0
          0 0 0 0 0 0
          0 0 0 0 0 0
          0 0 0 0 0 0
          0 0 0 0 0 0
          0 0 0 0 0 0
          0 0 0 0 0 0
          0 0 0 0 0 0
          0 0 0 0 0 0
          0 0 0 0 0 0
          0 0 0 0 0 0
          0 0 0 0 0 0
          0 0 0 0 0 0
          0 0 0 0 0 0
          0 0 0 0 0 0
          0 0 0 0 0 0
          0 0 0 0 0 0
          0 0 0 0 0 0
          0 0 0 0 0 0
          0 0 0 0 0 0
          0 0 0 0 0 0
          0 0 0 0 0 0
          0 0 0 0 0 0
          0 0 0 0 0 0
          0 0 0 0 0 0
          0 0 0 0 0 0
          0 0 0 0 0 0
          0 0 0 0 0 0
          0 0 0 0 0 0
          0 0 0 0 0 0
          0 0 0 0 0 0
          0 0 0 0 0 0
          0 0 0 0 0 0
          0 0 0 0 0 0
          0 0 0 0 0 0
          0 0 0 0 0 0
          0 0 0 0 0 0
          0 0 0 0 0 0
          0 0 0 0 0 0
          0 0 0 0 0 0
          0 0 0 0 0 0
          0 0 0 0 0 0
          0 0 0 0 0 0
          0 0 0 0 0 0
          0 0 0 0 0 0
          0 0 0 0 0 0
          0 0 0 0 0 0
          0 0 0 0 0 0
          0 0 0 0 0 0
          0 0 0 0 0 0
          0 0 0 0 0 0
          0 0 0 0 0 0
          0 0 0 0 0 0
          0 0 0 0 0 0
          0 0 0 0 0 0
          0 0 0 0 0 0
          0 0 0 0 0 0
          0 0 0 0 0 0
          0 0 0 0 0 0
          0 0 0 0 0 0
          0 0 0 0 0 0
          0 0 0 0 0 0
          0 0 0 0 0 0
          0 0 0 0 0 0
          0 0 0 0 0 0
          0 0 0 0 0 0
          0 0 0 0 0 0
          0 0 0 0 0 0
          0 0 0 0 0 0
          0 0 0 0 0 0
          0 0 0 0 0 0
          0 0 0 0 0 0
          0 0 0 0 0 0
          0 0 0 0 0 0
          0 0 0 0 0 0
          0 0 0 0 0 0
          0 0 0 0 0 0
          0 0 0 0 0 0
          0 0 0 0 0 0
          0 0 0 0 0 0
          0 0 0 0 0 0
          0 0 0 0 0 0
          0 0 0 0 0 0
          0 0 0 0 0 0
          0 0 0 0 0 0
          0 0 0 0 0 0
          0 0 0 0 0 0
          0 0 0 0 0 0
          0 0 0 0 0 0
          0 0 0 0 0 0
          0 0 0 0 0 0
          0 0 0 0 0 0
          0 0 0 0 0 0
          0 0 0 0 0 0
          0 0 0 0 0 0
          0 0 0 0 0 0
          0 0 0 0 0 0
          0 0 0 0 0 0
          0 0 0 0 0 0
          0 0 0 0 0 0
          0 0 0 0 0 0
          0 0 0 0 0 0
          0 0 0 0 0 0
          0 0 0 0 0 0
          0 0 0 0 0 0
          0 0 0 0 0 0
          0 0 0 0 0 0
          0 0 0 0 0 0
          0 0 0 0 0 0
          0 0 0 0 0 0
          0 0 0 0 0 0
          0 0 0 0 0 0
          0 0 0 0 0 0
          0 0 0 0 0 0
          0 0 0 0 0 0
          0 0 0 0 0 0
          0 0 0 0 0 0
          0 0 0 0 0 0
          0 0 0 0 0 0
          0 0 0 0 0 0
          0 0 0 0 0 0
          0 0 0 0 0 0
          0 0 0 0 0 0
          0 0 0 0 0 0
          0 0 0 0 0 0
          0 0 0 0 0 0
          0 0 0 0 0 0
          0 0 0 0 0 0
          0 0 0 0 0 0
          0 0 0 0 0 0
          0 0 0 0 0 0
          0 0 0 0 0 0
          0 0 0 0 0 0
          0 0 0 0 0 0
          0 0 0 0 0 0
          0 0 0 0 0 0
          0 0 0 0 0 0
          0 0 0 0 0 0
          0 0 0 0 0 0
          0 0 0 0 0 0
          0 0 0 0 0 0
          0 0 0 0 0 0
          0 0 0 0 0 0
          0 0 0 0 0 0
          0 0 0 0 0 0
          0 0 0 0 0 0
          0 0 0 0 0 0
          0 0 0 0 0 0
          0 0 0 0 0 0
          0 0 0 0 0 0
          0 0 0 0 0 0
          0 0 0 0 0 0
          0 0 0 0 0 0
          0 0 0 0 0 0
          0 0 0 0 0 0
          0 0 0 0 0 0
          0 0 0 0 0 0
          0 0 0 0 0 0
          0 0 0 0 0 0
          0 0 0 0 0 0
          0 0 0 0 0 0
          0 0 0 0 0 0
          0 0 0 0 0 0
          0 0 0 0 0 0
          0 0 0 0 0 0
          0 0 0 0 0 0
          0 0 0 0 0 0
          0 0 0 0 0 0
          0 0 0 0 0 0
          0 0 0 0 0 0
          0 0 0 0 0 0
          0 0 0 0 0 0
          0 0 0 0 0 0
          0 0 0 0 0 0
          0 0 0 0 0 0
          0 0 0 0 0 0
          0 0 0 0 0 0
          0 0 0 0 0 0
          0 0 0 0 0 0
          0 0 0 0 0 0
          0 0 0 0 0 0
          0 0 0 0 0 0
          0 0 0 0 0 0
          0 0 0 0 0 0
          0 0 0 0 0 0
          0 0 0 0 0 0
          0 0 0 0 0 0
          0 0 0 0 0 0
          0 0 0 0 0 0
          0 0 0 0 0 0
          0 0 0 0 0 0
          0 0 0 0 0 0
          0 0 0 0 0 0
          0 0 0 0 0 0
          0 0 0 0 0 0
          0 0 0 0 0 0
          0 0 0 0 0 0
          0 0 0 0 0 0
          0 0 0 0 0 0
          0 0 0 0 0 0
          0 0 0 0 0 0
          0 0 0 0 0 0
          0 0 0 0 0 0
          0 0 0 0 0 0
          0 0 0 0 0 0
          0 0 0 0 0 0
          0 0 0 0 0 0
          0 0 0 0 0 0
          0 0 0 0 0 0
          0 0 0 0 0 0
          0 0 0 0 0 0
          0 0 0 0 0 0
          0 0 0 0 0 0
          0 0 0 0 0 0
          0 0 0 0 0 0
          0 0 0 0 0 0
          0 0 0 0 0 0
          0 0 0 0 0 0
          0 0 0 0 0 0
          0 0 0 0 0 0
          0 0 0 0 0 0
          0 0 0 0 0 0
          0 0 0 0 0 0
          0 0 0 0 0 0
          0 0 0 0 0 0
          0 0 0 0 0 0
          0 0 0 0 0 0
          0 0 0 0 0 0
          0 0 0 0 0 0
          0 0 0 0 0 0
          0 0 0 0 0 0
          0 0 0 0 0 0
          0 0 0 0 0 0
          0 0 0 0 0 0
          0 0 0 0 0 0
          0 0 0 0 0 0
          0 0 0 0 0 0
          0 0 0 0 0 0
          0 0 0 0 0 0
          0 0 0 0 0 0
          0 0 0 0 0 0
          0 0 0 0 0 0
          0 0 0 0 0 0
          0 0 0 0 0 0
          0 0 0 0 0 0
          0 0 0 0 0 0
          0 0 0 0 0 0
          0 0 0 0 0 0
          0 0 0 0 0 0
          0 0 0 0 0 0
          0 0 0 0 0 0
          0 0 0 0 0 0
          0 0 0 0 0 0
          0 0 0 0 0 0
          0 0 0 0 0 0
          0 0 0 0 0 0
          0 0 0 0 0 0
          0 0 0 0 0 0
          0 0 0 0 0 0
          0 0 0 0 0 0
          0 0 0 0 0 0
          0 0 0 0 0 0
          0 0 0 0 0 0
          0 0 0 0 0 0
          0 0 0 0 0 0
          0 0 0 0 0 0
          0
        </DataArray>
        <DataArray type="Float64" Name="gradient_error" format="ascii" RangeMin="1.8138813863614253e-10" RangeMax="5.696753297513658e-8">
          1.3753492626166566e-9 3.801213959375753e-9 6.70164850420542e-10 2.936387894391508e-8 9.116934351406165e-9 8.073735350324097e-9
          5.51089044520328e-9 3.598719741244745e-8 3.589142972110788e-8 2.569109660779782e-9 2.6306578279766833e-8 2.6653616935930185e-8
          2.4253710968165257e-8 1.284827696460647e-8 1.0211104478123293e-9 1.066433289231195e-8 1.109841535781925e-8 4.6037874056527516e-8
          8.167817422452269e-10 1.1837999433388915e-8 1.0893627600605975e-8 3.016427487380105e-10 1.7334129859545367e-9 1.960625621304602e-8
          2.104084232828253e-9 1.0486339553541579e-8 1.224698077540267e-9 1.328582267694251e-8 1.1856960598856604e-8 3.715169308478814e-8
          3.297449078550911e-8 8.977434753766754e-9 3.2329100307173305e-8 2.851167046510413e-8 8.415354374515068e-9 2.274574996717167e-8
          1.92295848195788e-8 3.925844210643526e-8 3.4564964898270255e-8 3.137523608942929e-8 3.9279846091768835e-8 7.273910939050208e-9
          6.4443091645848905e-9 2.698004692308317e-8 2.3636981145923275e-8 4.3597308373288214e-9 2.1456471244244172e-8 1.8670683438617176e-8
          4.514617228199142e-9 1.5574755699487858e-8 1.2002249468976165e-8 3.1452271663352456e-8 2.7280979870800944e-8 2.258830960095657e-8
          3.159808370601396e-8 4.911509651295502e-9 1.203314759039294e-8 3.6676075297691276e-9 9.819631495836783e-9 3.4204090743315656e-9
          7.372083732672626e-9 5.874333975550916e-9 3.5101081622625544e-8 3.1869819447688166e-8 2.1026703508736073e-8 2.616237833079721e-9
          7.674074806017574e-9 1.7674927069625826e-9 5.710092487288955e-9 1.8179485998807306e-9 4.492553581822801e-9 2.533250774046554e-9
          2.798853392926519e-8 2.3662240849111957e-8 1.5419627133746703e-8 2.4934841348343284e-9 1.1633497241177048e-8 2.9602097122201244e-9
          1.2635341332079e-8 3.06526058575987e-8 3.054549831855488e-8 8.376373440285544e-10 1.5356364887846307e-9 1.8587155156738231e-9
          9.953854733094817e-9 9.225146353486332e-9 1.3245595489250785e-8 1.5363738346107182e-8 1.3196940775764164e-8 2.9524020353761067e-8
          2.739238306563637e-8 1.2158441851805563e-9 2.169129743034735e-9 2.4159856022474178e-9 1.1099628841778571e-8 4.0528744820367e-8
          3.817671280025431e-8 3.9603461156039826e-8 3.655519435625924e-8 3.061918505058117e-8 2.9328053625852538e-8 4.8477273685621186e-8
          3.488325318970611e-8 3.076441121908605e-8 3.2829811909526786e-8 2.043047305899013e-8 2.739119662367692e-8 2.4819092184727928e-8
          4.198752811532503e-8 1.7420641540284647e-9 3.243935356751552e-9 4.010316434758e-9 3.10175386621886e-9 2.752859233549441e-9
          1.6172596857396212e-8 1.3974036415427959e-8 7.417338968226341e-9 6.360630635304887e-9 1.954487330003038e-9 8.741356549847e-9
          3.932708225765284e-9 2.076335797434496e-8 1.7677173388370475e-8 9.96623529924237e-9 2.143856358635667e-8 1.1090950681236214e-9
          4.001900657364382e-9 6.453126409467787e-10 1.813544576896122e-9 5.954619260832515e-10 1.53104166604131e-9 1.9151398029925596e-8
          9.081600422116543e-9 5.892723481754339e-9 1.4742639332756813e-8 1.228250625535334e-8 1.3049010280109896e-8 1.3502562369522949e-8
          2.4256035724396692e-8 1.7334332162305494e-8 1.5979493020511315e-9 2.5547461932999484e-9 2.4682665005480828e-9 1.0471046643348957e-8
          3.2177090414895533e-9 1.7984366873839195e-9 2.6065738994301903e-8 1.3898543599855622e-8 1.3864127248565757e-8 2.1721604103359573e-8
          1.3376994990918562e-8 1.8409428939622205e-8 1.4080994819540964e-9 2.671181525143242e-9 3.298407080828165e-9 9.667334467210774e-9
          6.3978068996783675e-9 1.4769885708576133e-9 1.5104965079040923e-9 1.585740444065364e-9 8.965749143335363e-10 6.00984520491841e-9
          1.5996379671059483e-9 1.7243708064710586e-8 1.6626308036875075e-8 1.6813153528958244e-8 1.498726574112197e-8 1.757394579759427e-8
          1.683210658329567e-8 1.6645216838481674e-8 1.4949487752231478e-8 1.2823751099406605e-8 1.2775408876716955e-8 1.1681878725608833e-8
          1.2619243469725936e-8 1.2346089071049063e-8 1.1429778803985984e-8 1.6936535081419913e-8 1.6200926174829033e-8 1.55515141935232e-8
          1.4295807707870274e-8 1.5488786635965365e-8 1.4829395765844025e-8 1.3959186518399993e-8 1.303485332369782e-8 1.1954299796625955e-8
          1.1442137644152067e-8 1.078230144574952e-8 1.0817500719792916e-8 1.0090927967422416e-8 9.735299687912882e-9 9.941283199971562e-9
          1.411036310617121e-8 1.0143375780717048e-8 1.4524475522413699e-8 1.7355253377907363e-8 1.7859221115906413e-8 2.2890890287978907e-9
          6.818942818205932e-9 7.250264842367714e-9 1.106582997219625e-8 1.0239399730619765e-8 1.4834049187415638e-8 1.0205155987896284e-8
          1.500428109813418e-8 1.824870508787695e-8 1.8487451035866072e-8 2.7207104297579044e-9 7.677139766377553e-9 8.077116397569058e-9
          1.216634409862016e-8 1.499410174524763e-8 1.5234718962415295e-8 1.3552155015261212e-8 1.3649495931120624e-8 1.400202654886089e-8
          1.4579671833356436e-8 1.648390260681603e-8 1.5366258381039078e-8 1.5366520879560575e-8 1.364781848253707e-8 1.3531602697941438e-8
          1.5084002778391437e-8 1.5491376983690474e-8 1.7600773641067503e-8 1.7045924294903987e-9 1.735037357326272e-9 1.9529385826421654e-9
          1.9771654290225337e-9 1.779079962583479e-9 1.9885309041185325e-9 7.519585620659554e-10 1.0085923744752553e-9 1.1262523803193703e-9
          1.3771970504960828e-9 2.2187750160103617e-9 2.2342970909838243e-9 2.5000839711820717e-9 2.502651141841678e-9 2.2105853409867945e-9
          2.4397499073576176e-9 9.272387183754033e-10 1.2483547236115806e-9 1.3735664152191308e-9 1.6965578686130359e-9 6.363151208021902e-9
          6.734394277845332e-9 1.3284915105948045e-8 1.3873041531304253e-8 1.7039932158520113e-9 1.831654187019597e-9 9.547917184440282e-9
          7.108756790989101e-9 7.468743596706957e-9 1.4409826904709014e-8 1.4878696402960499e-8 1.967498438554227e-9 2.1048826429606205e-9
          1.0331896650707543e-8 1.0020508290653132e-8 1.4995046480137067e-8 1.5701734794194097e-8 1.7785130573383762e-8 1.8543964957204457e-8
          1.8390855105927524e-8 3.1759318813399332e-9 8.42348561866932e-9 1.1653835028918959e-8 1.3007153362314384e-8 2.128182565244631e-8
          2.042523732399286e-8 2.0763545263346716e-8 1.98749072968073e-8 1.801309516073831e-8 1.7394670376471432e-8 1.5275147513748478e-8
          1.4792058806778866e-8 1.4805405148290474e-8 1.3317254491145132e-8 1.5220186376586083e-8 1.4911746262760648e-8 1.3291891401500594e-8
          1.2919019177154741e-8 1.5771870917094495e-8 1.5891574291470546e-8 1.8305027413040092e-8 1.4430973450016068e-8 1.377328090078514e-8
          1.2404405574094927e-8 1.1743490378895296e-8 1.581333112291317e-8 1.5503638932094287e-8 1.8329596194110232e-8 2.7962850260935474e-9
          2.776197806354391e-9 3.088703261204701e-9 3.035792463314663e-9 2.670911322380591e-9 2.8965075039838445e-9 1.118304906501999e-9
          1.4996710464457075e-9 1.623249394767375e-9 2.0179928063647396e-9 3.3381369568275625e-9 3.269102485920534e-9 3.54444023661638e-9
          3.4785644647251183e-9 3.1034240341217334e-9 3.287861823062237e-9 1.3107710101455964e-9 1.740507621837655e-9 1.8477550849480532e-9
          2.303981292396916e-9 7.797266862100623e-9 8.072460605159783e-9 1.525280607677186e-8 1.550122515322389e-8 2.2457951913557744e-9
          2.38803177661544e-9 1.092684370376399e-8 8.268569114672635e-9 8.386386666413442e-9 1.5579139149577444e-8 1.5446831747430914e-8
          2.521483598150646e-9 2.62565786227934e-9 1.1163152851536197e-8 1.3176844225317507e-8 1.3437534095858124e-8 1.1472073963219175e-8
          1.3628453210626912e-8 1.373501533679592e-8 1.1542975819415901e-8 1.391268004160398e-8 1.426490445594589e-8 1.2016068927573846e-8
          1.2152023289933274e-8 1.464851585789045e-8 1.5092274816033654e-8 1.2560063891928517e-8 1.4549380725735932e-8 1.4749678212725636e-8
          1.2218735678422112e-8 1.2208392029705273e-8 1.5470308240844956e-8 1.576434108865535e-8 1.2894495537428323e-8 1.3743321904466072e-8
          1.3637394187464291e-8 1.1306471778477022e-8 1.3405719021289362e-8 1.3036897910551438e-8 1.0707855774980785e-8 1.484979283405606e-8
          1.4831818928331552e-8 1.2114784134900221e-8 1.1925018808189153e-8 1.5956263763646053e-8 1.6026243669198812e-8 1.2923096491323417e-8
          1.46767144589679e-8 1.4363921500741617e-8 1.163112855855735e-8 1.1237631950684709e-8 1.5947709896646438e-8 1.56909450909318e-8
          1.2554401342133912e-8 1.3515416804827538e-8 1.2886220278693852e-8 1.1702611641389963e-8 1.1226172804290301e-8 1.098753917881742e-8
          1.0448133552772373e-8 7.0939068624199595e-9 9.033527661708732e-9 9.275812101707328e-9 8.38449918220914e-9 8.356302347394224e-9
          7.452890451038768e-9 5.013645275984117e-9 6.747453505387394e-9 1.992220518152634e-8 1.9017137344485763e-8 1.8767717415520078e-8
          1.7866491544981452e-8 1.6527061601477073e-8 1.542732642534526e-8 1.517952432928926e-8 1.4594165174134315e-8 1.4144069492637029e-8
          1.285735375552195e-8 1.731811597749285e-8 1.6452772332148425e-8 1.5684423632265575e-8 1.4873157238856754e-8 1.4123555997697244e-8
          1.2700386868083025e-8 1.405514567154781e-8 1.33919621880158e-8 1.2369048497763633e-8 1.1489873988085855e-8 1.2950905167561688e-8
          1.1984073759051844e-8 1.0959756639614416e-8 1.0078760341855996e-8 1.4971778398346683e-8 1.4271759896361022e-8 1.738905961430057e-8
          1.0888323564453909e-8 9.763868755823101e-9 9.11696382031733e-9 7.23498041969087e-9 1.3443075426894071e-8 1.552404907457391e-8
          1.5784554274607716e-8 3.744957918220988e-9 3.6450863995490802e-9 3.868826612219518e-9 3.75533842487651e-9 3.456706718937759e-9
          3.6001714541874795e-9 1.4964148764621856e-9 1.9403558822175537e-9 2.013437949519346e-9 2.5057390830165496e-9 3.916817061425576e-9
          3.851485197382095e-9 4.000421491715806e-9 3.9360121404054835e-9 3.7052007381311976e-9 6.5998133267672995e-9 1.6762445683122685e-9
          2.0635714035529717e-9 2.090647772093008e-9 2.5448622244072276e-9 8.382726547389449e-9 8.273164588353033e-9 1.510082046044115e-8
          1.456551851155038e-8 2.704870341657751e-9 2.791205965406635e-9 1.0880571017973818e-8 1.0531872304541723e-8 1.559282228777891e-8
          1.6493342506475143e-8 1.8357860279801935e-8 7.984150080477496e-9 1.280833155584597e-8 1.5098111836163344e-8 7.913185264107128e-9
          7.486143735447624e-9 3.0299877471506497e-9 9.327115603311259e-9 1.0090688561736035e-8 4.023167786813187e-9 3.942926214162047e-9
          3.973268053695387e-9 3.896350002852977e-9 6.562230487370731e-9 1.7712124632082607e-9 2.0864782907854994e-9 2.0240525758224866e-9
          2.3640455400368206e-9 1.0671301271142483e-8 7.681508399902364e-9 1.2537601279042094e-8 1.192545717535194e-8 9.77623449962546e-9
          1.1240280837794334e-8 8.827050685850824e-9 8.573706941324695e-9 1.3890842247344565e-8 1.326240232245728e-8 1.0758564301146597e-8
          1.0210004629446392e-8 1.524408321564704e-8 1.4599347469562623e-8 1.1740894102667734e-8 1.2551190066985229e-8 1.1830115211290581e-8
          9.585274277832877e-9 7.1631892024434875e-9 1.3862099296176125e-8 1.3135328470836495e-8 1.0596841614341058e-8 2.4140504443626563e-9
          2.417937635501232e-9 2.4928078960960557e-9 2.421824826639808e-9 2.4017989135736064e-9 2.4049057393547e-9 2.4760391101572595e-9
          2.4802798806937683e-9 2.408012565135794e-9 2.484520651230277e-9 2.0172220378119995e-9 2.025761760082005e-9 2.110392734456246e-9
          1.985711331876164e-9 1.977297003270023e-9 2.0507772069170635e-9 2.179565120417405e-9 2.2848730415901866e-9 2.361565083331784e-9
          2.2766788179611364e-9 1.5898995857905462e-9 1.5991721313990453e-9 1.6964796137007573e-9 1.7032603786378087e-9 1.66017317341295e-9
          1.7578377472641526e-9 1.371341283360001e-9 1.3821906909963532e-9 1.4884293939495897e-9 1.4050285220509617e-9 1.7563016825851957e-9
          1.8451518540887328e-9 1.906472987264097e-9 1.983092207245095e-9 1.431031690474835e-9 1.5315001005038289e-9 1.4966822542770816e-9
          9.192870325037486e-10 9.5943118181671e-10 9.877724804214658e-10 1.0300897604537982e-9 1.0570469687356835e-9 1.1326969368073426e-9
          6.307939770291456e-10 6.931755674829634e-10 7.368078866630236e-10 8.429163941969887e-10 1.1688672156944825e-9 1.2495731282774108e-9
          1.2558116484361999e-9 1.3401856403480293e-9 1.0109774123396628e-9 1.0756725568075668e-9 1.1516396424290248e-9 2.113440508572058e-9