<?xml version="1.0"?>
<VTKFile type="UnstructuredGrid" version="0.1" byte_order="LittleEndian" header_type="UInt32" compressor="vtkZLibDataCompressor">
  <UnstructuredGrid>
    <Piece NumberOfPoints="910" NumberOfCells="554">
      <PointData>
        <DataArray type="Int32" Name="libmesh_node_id" format="ascii" RangeMin="1069" RangeMax="8558">
          1069 1159 1162 1165 1281 1284
          1286 1287 1288 1289 1293 1304
          1305 1306 1307 1308 1309 1310
          1311 1312 1313 1321 1322 1327
          1423 1426 1428 1429 1444 1445
          1449 1451 1453 1722 1734 1735
          1736 1740 1743 1744 1747 1749
          1765 1770 1774 1778 1779 1780
          1781 1782 1783 1784 1785 1786
          1787 1810 1811 1814 1816 1846
          1847 1848 1849 1850 1851 1852
          1853 1854 1855 1957 1958 1959
          1960 1961 1962 1963 1964 1965
          1966 1967 1968 1969 1970 1971
          1972 1973 1981 1982 1994 1995
          1998 1999 2025 2026 2027 2028
          2029 2030 2031 2032 2033 2034
          2610 2646 2647 2648 2656 2657
          2658 2661 2674 2675 2678 2783
          2807 2813 2817 2844 2845 2848
          2850 2874 2876 2878 2880 2881
          2882 2883 2884 2885 2886 2887
          2888 2889 2890 2891 2892 2893
          2894 2895 2896 2897 2898 2899
          2900 2901 2902 2903 2904 2905
          2906 2907 2908 2909 2910 2911
          2912 2913 2914 2915 2916 2917
          2918 2919 2920 2921 2922 2923
          2924 2925 2926 2927 2928 2929
          2930 2931 2932 2933 2934 2935
          2936 2937 2938 2939 2940 2941
          2942 2943 2944 2945 2946 2947
          2984 2985 2988 2990 3139 3140
          3141 3142 3143 3144 3145 3146
          3147 3148 3149 3150 3153 3154
          3156 3158 3159 3160 3161 3162
          3163 3164 3165 3166 3168 3169
          3170 3172 3173 3174 3175 3176
          3177 3178 3179 3180 3181 3182
          3259 3261 3311 3312 3315 3316
          3317 3318 3319 3320 3321 3322
          3435 3436 3439 3457 3458 3459
          3460 3461 3462 3463 3464 3465
          3466 3467 3468 3469 3470 3471
          3472 3473 3481 3482 3483 3484
          3485 3486 3487 3488 3489 3490
          3491 3492 3493 3494 3495 3496
          3497 3498 3499 3500 3501 3502
          3503 3504 3505 3506 3507 3508
          3509 3510 3511 3512 3513 3514
          3515 3516 3517 3518 3519 3520
          3521 3546 3547 3548 3556 3557
          3558 3559 3560 3561 3562 6266
          6267 6270 6324 6325 6328 6331
          6335 6495 6496 6499 6523 6524
          6527 6544 6545 6548 6551 6555
          6572 6573 6576 6579 6583 6792
          6808 6809 6812 6814 6994 7006
          7008 7010 7022 7034 7036 7038
          7042 7043 7046 7048 7050 7051
          7052 7053 7054 7055 7056 7057
          7058 7059 7062 7063 7066 7068
          7070 7071 7072 7073 7074 7075
          7076 7077 7078 7079 7081 7083
          7085 7087 7088 7089 7090 7091
          7092 7093 7095 7096 7097 7099
          7100 7101 7102 7103 7104 7105
          7106 7107 7108 7109 7110 7111
          7112 7113 7114 7115 7116 7117
          7118 7119 7120 7121 7122 7123
          7124 7125 7126 7127 7128 7129
          7130 7131 7132 7133 7134 7135
          7136 7137 7138 7139 7140 7141
          7142 7143 7144 7145 7146 7147
          7148 7149 7150 7151 7152 7153
          7154 7155 7156 7157 7158 7159
          7160 7161 7162 7163 7164 7165
          7166 7167 7168 7170 7171 7172
          7173 7174 7175 7176 7177 7178
          7179 7180 7181 7182 7183 7184
          7185 7186 7187 7188 7189 7190
          7191 7192 7193 7194 7195 7196
          7197 7198 7199 7200 7201 7202
          7203 7204 7205 7206 7207 7208
          7209 7210 7211 7212 7213 7214
          7215 7216 7217 7218 7220 7222
          7223 7224 7225 7226 7227 7228
          7229 7230 7231 7232 7234 7235
          7236 7237 7238 7239 7240 7241
          7242 7243 7244 7245 7246 7247
          7248 7249 7250 7251 7252 7253
          7254 7255 7256 7257 7258 7259
          7260 7261 7262 7263 7264 7265
          7266 7267 7268 7269 7270 7271
          7272 7273 7274 7275 7276 7277
          7278 7279 7280 7281 7282 7283
          7284 7285 7286 7287 7288 7289
          7290 7291 7292 7293 7294 7295
          7296 7297 7298 7299 7300 7301
          7302 7303 7304 7305 7306 7307
          7308 7309 7310 7311 7312 7313
          7314 7315 7316 7317 7318 7319
          7320 7321 7322 7323 7324 7325
          7326 7327 7328 7329 7330 7331
          7332 7333 7334 7335 7336 7337
          7338 7339 7340 7341 7342 7343
          7344 7345 7346 7347 7348 7349
          7350 7351 7352 7353 7354 7355
          7356 7357 7358 7359 7360 7361
          7362 7363 7364 7365 7366 7367
          7368 7369 7370 7371 7372 7373
          7374 7375 7376 7377 7378 7379
          7380 7381 7382 7383 7384 7385
          7386 7387 7388 7389 7390 7391
          7392 7393 7394 7395 7396 7397
          7398 7399 7400 7401 7402 7403
          7404 7405 7406 7407 7408 7409
          7410 7411 7412 7413 7414 7415
          7416 7417 7418 7419 7420 7421
          7422 7423 7424 7425 7426 7427
          7428 7429 7430 7431 7432 7433
          7434 7435 7436 7437 7438 7439
          7440 7441 7442 7443 7444 8347
          8349 8350 8352 8353 8354 8355
          8356 8361 8362 8363 8364 8365
          8366 8367 8368 8369 8370 8371
          8372 8373 8374 8375 8376 8377
          8378 8379 8380 8381 8382 8383
          8384 8385 8386 8394 8395 8396
          8406 8407 8408 8409 8410 8411
          8412 8413 8414 8415 8416 8417
          8418 8419 8420 8421 8422 8423
          8424 8425 8426 8427 8428 8429
          8430 8431 8432 8433 8434 8435
          8436 8437 8438 8439 8440 8441
          8442 8443 8444 8445 8446 8447
          8448 8449 8450 8451 8452 8453
          8454 8455 8456 8457 8458 8459
          8460 8461 8462 8463 8464 8465
          8466 8467 8468 8469 8472 8476
          8477 8478 8479 8480 8481 8482
          8483 8484 8485 8486 8487 8488
          8491 8492 8494 8496 8497 8498
          8499 8500 8501 8502 8503 8506
          8510 8511 8512 8513 8514 8515
          8516 8517 8518 8520 8522 8524
          8525 8526 8527 8528 8529 8530
          8531 8532 8533 8534 8535 8536
          8537 8538 8539 8540 8541 8542
          8543 8544 8545 8546 8547 8548
          8549 8550 8551 8552 8553 8554
          8555 8556 8557 8558
        </DataArray>
        <DataArray type="Float64" Name="bounds" format="ascii" RangeMin="0" RangeMax="0">
          0 0 0 0 0 0
          0 0 0 0 0 0
          0 0 0 0 0 0
          0 0 0 0 0 0
          0 0 0 0 0 0
          0 0 0 0 0 0
          0 0 0 0 0 0
          0 0 0 0 0 0
          0 0 0 0 0 0
          0 0 0 0 0 0
          0 0 0 0 0 0
          0 0 0 0 0 0
          0 0 0 0 0 0
          0 0 0 0 0 0
          0 0 0 0 0 0
          0 0 0 0 0 0
          0 0 0 0 0 0
          0 0 0 0 0 0
          0 0 0 0 0 0
          0 0 0 0 0 0
          0 0 0 0 0 0
          0 0 0 0 0 0
          0 0 0 0 0 0
          0 0 0 0 0 0
          0 0 0 0 0 0
          0 0 0 0 0 0
          0 0 0 0 0 0
          0 0 0 0 0 0
          0 0 0 0 0 0
          0 0 0 0 0 0
          0 0 0 0 0 0
          0 0 0 0 0 0
          0 0 0 0 0 0
          0 0 0 0 0 0
          0 0 0 0 0 0
          0 0 0 0 0 0
          0 0 0 0 0 0
          0 0 0 0 0 0
          0 0 0 0 0 0
          0 0 0 0 0 0
          0 0 0 0 0 0
          0 0 0 0 0 0
          0 0 0 0 0 0
          0 0 0 0 0 0
          0 0 0 0 0 0
          0 0 0 0 0 0
          0 0 0 0 0 0
          0 0 0 0 0 0
          0 0 0 0 0 0
          0 0 0 0 0 0
          0 0 0 0 0 0
          0 0 0 0 0 0
          0 0 0 0 0 0
          0 0 0 0 0 0
          0 0 0 0 0 0
          0 0 0 0 0 0
          0 0 0 0 0 0
          0 0 0 0 0 0
          0 0 0 0 0 0
          0 0 0 0 0 0
          0 0 0 0 0 0
          0 0 0 0 0 0
          0 0 0 0 0 0
          0 0 0 0 0 0
          0 0 0 0 0 0
          0 0 0 0 0 0
          0 0 0 0 0 0
          0 0 0 0 0 0
          0 0 0 0 0 0
          0 0 0 0 0 0
          0 0 0 0 0 0
          0 0 0 0 0 0
          0 0 0 0 0 0
          0 0 0 0 0 0
          0 0 0 0 0 0
          0 0 0 0 0 0
          0 0 0 0 0 0
          0 0 0 0 0 0
          0 0 0 0 0 0
          0 0 0 0 0 0
          0 0 0 0 0 0
          0 0 0 0 0 0
          0 0 0 0 0 0
          0 0 0 0 0 0
          0 0 0 0 0 0
          0 0 0 0 0 0
          0 0 0 0 0 0
          0 0 0 0 0 0
          0 0 0 0 0 0
          0 0 0 0 0 0
          0 0 0 0 0 0
          0 0 0 0 0 0
          0 0 0 0 0 0
          0 0 0 0 0 0
          0 0 0 0 0 0
          0 0 0 0 0 0
          0 0 0 0 0 0
          0 0 0 0 0 0
          0 0 0 0 0 0
          0 0 0 0 0 0
          0 0 0 0 0 0
          0 0 0 0 0 0
          0 0 0 0 0 0
          0 0 0 0 0 0
          0 0 0 0 0 0
          0 0 0 0 0 0
          0 0 0 0 0 0
          0 0 0 0 0 0
          0 0 0 0 0 0
          0 0 0 0 0 0
          0 0 0 0 0 0
          0 0 0 0 0 0
          0 0 0 0 0 0
          0 0 0 0 0 0
          0 0 0 0 0 0
          0 0 0 0 0 0
          0 0 0 0 0 0
          0 0 0 0 0 0
          0 0 0 0 0 0
          0 0 0 0 0 0
          0 0 0 0 0 0
          0 0 0 0 0 0
          0 0 0 0 0 0
          0 0 0 0 0 0
          0 0 0 0 0 0
          0 0 0 0 0 0
          0 0 0 0 0 0
          0 0 0 0 0 0
          0 0 0 0 0 0
          0 0 0 0 0 0
          0 0 0 0 0 0
          0 0 0 0 0 0
          0 0 0 0 0 0
          0 0 0 0 0 0
          0 0 0 0 0 0
          0 0 0 0 0 0
          0 0 0 0 0 0
          0 0 0 0 0 0
          0 0 0 0 0 0
          0 0 0 0 0 0
          0 0 0 0 0 0
          0 0 0 0 0 0
          0 0 0 0 0 0
          0 0 0 0 0 0
          0 0 0 0 0 0
          0 0 0 0 0 0
          0 0 0 0 0 0
          0 0 0 0 0 0
          0 0 0 0 0 0
          0 0 0 0 0 0
          0 0 0 0 0 0
          0 0 0 0
        </DataArray>
        <DataArray type="Float64" Name="gradient_error" format="ascii" RangeMin="2.681528786428504e-13" RangeMax="6.956390444710228e-10">
          5.102365731102624e-10 7.556844000424205e-11 3.3837585026410506e-10 1.0516805043681135e-11 4.996782424394676e-10 1.0065886823974386e-10
          8.558473408894765e-12 3.0964244560313617e-10 9.153414908129553e-11 2.570327363926197e-11 3.617580612328872e-11 2.497653492367061e-10
          3.2788896331919204e-10 7.393430371631567e-11 7.287327598101524e-11 2.8211963915993047e-10 5.561359267275853e-10 1.247229425534532e-10
          4.293435104184741e-10 8.739169574756983e-11 6.956390444710228e-10 1.8467271004310645e-11 1.0006524341352204e-11 4.243053090330731e-12
          4.286761792181856e-10 1.1107104521363374e-10 3.178514449301057e-10 9.29934185216463e-11 2.643895666163112e-11 2.6823582697113884e-11
          3.792875533346908e-11 2.735804280599982e-11 4.791322546528498e-11 1.7541542729221166e-10 9.309933833626889e-11 5.773628628792698e-11
          1.870798649313136e-11 2.5131811747808855e-11 1.690446082942547e-10 1.234739794419358e-10 1.1155835381533831e-10 7.629753996601296e-11
          7.245704268929171e-11 1.8212132738147583e-10 4.4875445177411486e-11 4.757574967854176e-11 1.820780118914394e-11 1.7049619798210836e-11
          5.267601692118601e-12 5.459254107216631e-11 2.5171978934703038e-11 1.6635960519740566e-11 3.697452307645452e-11 8.652962454555157e-12
          1.9322320421962688e-11 9.173571102196737e-11 8.809779304007466e-11 1.4237813894521267e-10 1.0291881895840183e-10 5.667959195499171e-12
          3.06544267126351e-12 3.3225647575983384e-12 2.2702375464304612e-12 7.933857559313274e-12 7.572879659361338e-12 4.2786531229038645e-12
          2.538769582417754e-12 1.6431966829937852e-12 8.041440163924408e-12 5.961993173023286e-11 6.314815366422878e-11 2.2631880594061312e-11
          2.1306176919888448e-11 3.5912084158471355e-11 5.949593214724871e-11 2.537160427169986e-11 3.7083911693174864e-11 3.568492445637045e-11
          2.2556568760421816e-11 1.9835042966259905e-11 3.5260032121223657e-11 4.950114446087364e-11 1.8038528520085606e-11 3.5497115508425305e-11
          1.6430042265044314e-11 5.6685934765703495e-11 1.0351835123589523e-11 6.651843145452109e-12 7.553005874263276e-12 7.150790539704288e-12
          6.053078427186251e-12 7.794772101631457e-12 7.953913712221249e-12 9.176084760113142e-12 5.700072683129794e-12 5.924341131762931e-12
          6.686583427467098e-12 7.358251643468852e-12 6.050417559322529e-12 1.0398255808005034e-11 6.148609580396068e-12 8.029919859470605e-12
          6.02137600020558e-11 4.155220402926244e-11 4.5601301772239196e-11 2.916116003273175e-11 1.1147537673572208e-11 1.966697702568627e-11
          9.99868322675496e-12 1.7359601118221782e-11 5.492725587933456e-11 6.92186811817953e-11 6.903308660450899e-11 3.6116446488031744e-11
          1.44606233465389e-10 7.283945321789768e-11 9.240016843130026e-11 6.172812018485786e-11 4.059758958071789e-11 4.4610868391743424e-11
          2.944304288461855e-11 4.463373266873371e-11 4.4549456339976247e-11 5.201702214856319e-11 4.341823745468799e-11 3.24305294346888e-11
          2.304012373656006e-11 1.681966417430049e-11 4.5041510072981195e-11 3.1831755110108066e-11 1.6626464728240644e-11 7.219506141952644e-11
          3.7884698090179935e-11 3.5008422704204974e-11 1.3932832425910744e-11 1.0424796844459608e-11 9.352600922798428e-12 7.226778226161475e-12
          1.519634110474148e-11 1.0549309990723115e-11 8.691941383582244e-12 1.880445918458909e-11 8.82116177517635e-12 8.991370903035938e-12
          5.450506603225024e-11 3.749634560219273e-11 2.9104429036946874e-11 2.5097596248261912e-11 2.8775007749004002e-11 2.9358263135904135e-11
          2.4722989727840195e-11 2.0774709527391867e-11 1.5715213139474536e-11 2.951258149984429e-11 1.469828590654769e-11 1.255551626714638e-11
          7.28792460886955e-12 7.358038020668795e-12 1.09909125019516e-11 1.4380687906740945e-11 7.006802022127418e-12 9.690821477777308e-12
          7.770122596568175e-12 1.3379571311193799e-11 1.3124157485440134e-10 6.962108928945597e-11 5.8120536644656426e-11 3.0527308644627144e-11
          1.6295763758316329e-10 8.691412173238416e-11 7.017160153733763e-11 3.4787458536300925e-11 1.6385303657080265e-11 1.5166553083680872e-11
          7.100756309180529e-12 4.3590414687192696e-11 2.0579516084969046e-11 1.841757009977422e-11 2.4406006587669543e-11 1.27012318651012e-11
          3.2413291130761184e-11 1.7079955162317268e-11 2.848408692071094e-11 1.4847783048949417e-11 3.5896636988502374e-11 8.072905450903457e-12
          6.826250163878782e-12 1.0400149369908449e-11 9.552706195759288e-12 7.376238953113774e-12 5.607041677455942e-12 9.489240867900918e-12
          5.4024247536906683e-11 5.298983315444252e-11 4.048999507964773e-11 4.311713598353059e-11 5.252786708408366e-12 4.127671785524405e-12
          3.83139085265125e-12 3.0123734947005576e-12 5.115857340839267e-12 5.269400824913727e-12 3.1447360749723633e-12 3.9175154830249305e-12
          2.009171174857079e-12 3.5251119361230218e-12 1.8416900915317208e-12 1.7174580416891652e-12 1.4159311228480582e-12 2.094616209888956e-12
          1.2203191004957577e-12 1.850838744943655e-12 7.281726059330577e-12 3.0443428509006926e-12 3.1450752278724306e-12 2.0986717244768545e-12
          9.155768791345685e-12 3.831933524911772e-12 3.829808663902491e-12 1.1961381569549907e-12 1.7348725148965419e-12 1.1124639699455199e-12
          1.5080412556424272e-12 2.0459155376264436e-12 4.837939770617577e-12 4.275234289793874e-12 2.8221524608681106e-12 2.71586751482415e-12
          5.080683210857201e-12 7.004304181641437e-12 3.049839718588608e-12 4.81452284916068e-12 3.079890786150854e-12 7.804144370313961e-12
          1.745192260888123e-10 7.564796131128962e-11 6.306633898137176e-11 8.750733454253043e-11 6.523120680028912e-11 2.3824231846922193e-11
          3.1036602994740424e-11 1.6488139495896216e-11 1.8857918658776615e-11 1.9915750241353744e-11 2.405973016387863e-11 1.5642038928994756e-11
          2.8944257162581093e-11 3.711162735687083e-11 2.5391224008723645e-11 3.3069205274451125e-12 4.647549517147695e-12 2.26431045691865e-12
          3.023516709488099e-12 2.403925455670528e-12 3.1804139422080075e-12 2.170984381774691e-12 1.822715967119397e-12 2.0970491354498362e-12
          1.2696759921519083e-12 1.3823249728368623e-12 1.2690090874285092e-12 1.3367310676419285e-12 1.0012325561461838e-12 2.371382303780276e-12
          1.4949739535218163e-12 1.4044530478553475e-12 3.0424854372395885e-11 5.065022554405442e-11 1.7380692571360824e-11 2.760391208878411e-11
          2.642179464490051e-11 4.0104727744207674e-11 2.2430293979540607e-11 9.011894425234569e-12 1.3999581500160694e-11 4.833185941365962e-12
          7.156096665312557e-12 8.048951683302608e-12 1.1351542365220086e-11 5.824249832868935e-12 1.5717175517563122e-11 2.0183017209940716e-11
          1.178146453236793e-11 1.434538600468424e-11 1.2137459105608197e-11 1.4567502239315598e-11 1.1407221264229233e-11 2.967850537805501e-11
          1.7997844908089082e-11 1.9444145782514134e-11 3.785968593701406e-11 2.072985859656469e-11 2.290149956205345e-11 1.3535110629962741e-11
          4.10112200202364e-11 2.2917603569496038e-11 2.391225293210164e-11 9.330210753830168e-12 1.0369077916487522e-11 6.517455052605114e-12
          6.901988782478232e-12 6.914544826057143e-12 7.137306010911911e-12 5.019401713505906e-12 1.1407945079144879e-11 7.28652251235135e-12
          7.360067195766678e-12 3.1740951472738074e-12 4.875533426159081e-12 2.578619295164283e-12 2.534269131587162e-12 3.500533785468484e-12
          1.9894657362540115e-12 2.410782143443019e-12 2.2581791727971965e-12 2.9124874114204998e-12 2.1765693333414346e-12 6.477394596381818e-11
          4.659539445636406e-11 1.0039495678300188e-10 3.305175488735968e-11 2.3117722600476502e-11 5.153000158628566e-11 1.5947552941724425e-11
          2.4949736879730167e-11 1.4792986005830305e-10 1.0715656957961597e-10 1.9887851344594894e-10 2.3636154775379035e-10 1.7240006558147654e-10
          2.4936697405811105e-10 7.642428178396415e-11 5.367757459789786e-11 1.0345292236561381e-10 3.713482896005375e-11 5.048451296490369e-11
          1.2367225817446922e-10 8.727753622071612e-11 1.307966365541567e-10 6.060879060183006e-11 6.422392946798663e-11 2.2197433519785462e-11
          1.2796033582600159e-11 1.497171855910481e-11 1.2127334188823309e-11 1.9575512464518026e-11 3.728134167447711e-11 2.4415518417467323e-11
          1.9266294467492624e-11 2.8907320181949508e-11 5.00214406283821e-11 3.22284230447548e-11 2.2538497897907937e-11 3.346962116711864e-11
          2.0684802693648074e-11 2.7102654944182602e-11 2.0732195638789833e-11 4.313109547120216e-11 1.4901655772998225e-11 1.9583842919018007e-11
          1.0660735058234956e-11 1.4003818159006338e-11 1.149739913031206e-11 1.4966447385200203e-11 1.0708469776665844e-11 3.129731242415622e-11
          2.2425491456741332e-11 2.349499722007531e-11 1.2170070691897915e-11 1.5444783275097326e-11 1.3067553352331515e-11 2.3772947518016134e-11
          8.89933191648229e-12 1.1210122803401258e-11 6.446483914334651e-12 8.065483383986948e-12 7.84964378568004e-12 9.544170255495137e-12
          6.907611316995441e-12 1.7180949665771145e-11 1.2302866722719255e-11 1.3573004340684929e-11 6.688244497874716e-11 4.9195218919080787e-11
          1.0069138766968832e-10 4.8711435972408726e-11 3.500695550911741e-11 3.576528064489854e-11 2.567673909377671e-11 7.360307592235686e-11
          5.303455781062705e-11 5.265988656730795e-11 3.5463200840856685e-11 3.4162653571967536e-11 2.5011143452322483e-11 5.069351054340588e-11
          4.759016480011506e-11 2.5713216221778276e-11 1.843091597107222e-11 1.8060734398909913e-11 1.2912740377691037e-11 3.6895091242033125e-11
          2.649810546039866e-11 2.5410224929117672e-11 7.493549822640262e-12 9.869243450445212e-12 5.260353298419267e-12 6.8468993949895226e-12
          5.8215704566091465e-12 7.523910408649452e-12 5.713766399956537e-12 1.588865991127778e-11 1.1048896245397723e-11 1.1910893215031254e-11
          3.629533301503451e-12 4.683929369331593e-12 2.492409024698931e-12 3.198305146421241e-12 3.2430946891419066e-12 4.048635823044159e-12
          2.7668569043350965e-12 7.558204144717314e-12 5.1357104352458436e-12 6.2309538381366795e-12 4.4076084275142154e-12 5.563945840549486e-12
          3.6303655835594928e-12 4.543147984470355e-12 3.803010583680616e-12 4.713150146032842e-12 3.874023153838571e-12 8.673838240744967e-12
          6.742661440312222e-12 6.86621351994157e-12 2.4843368561270125e-11 1.7377148437389563e-11 1.8236826127927714e-11 1.2735841745603391e-11
          3.766998246330005e-11 2.6376158673057418e-11 2.687571570470533e-11 1.1962966478029178e-11 8.133138919700603e-12 8.730001511983265e-12
          5.922742253464278e-12 1.820838047392729e-11 1.2394117291985614e-11 1.2972644225511516e-11 1.3077842777239783e-11 9.115949693764945e-12
          9.149842794853426e-12 6.388723337279226e-12 1.8774648098663736e-11 1.3126136573574746e-11 1.2884442112570897e-11 5.006743949624151e-12
          6.247456187093918e-12 3.37214964367912e-12 4.214375403095846e-12 3.5446246779783904e-12 4.3536310806420484e-12 3.25572082641054e-12
          9.07503031095142e-12 6.16097917109622e-12 6.193899936052944e-12 2.3940264806561682e-11 1.4525531985464927e-11 1.7486410047165924e-11
          1.391372125128406e-11 1.642088159478407e-11 1.3264853649373653e-11 3.25962719866177e-11 2.394491464243499e-11 2.188519421340726e-11
          1.0340438487364694e-11 1.249424997201575e-11 7.355587301472682e-12 8.88326679729243e-12 8.691949057637149e-12 1.0238471238398254e-11
          7.240585647024784e-12 1.7238299457612668e-11 1.2283177983682324e-11 1.2571265618539803e-11 9.41733179943804e-12 1.102291192557165e-11
          8.154750047822959e-12 9.39796006830864e-12 7.95687553811379e-12 9.07923416316467e-12 7.978988385621018e-12 1.4470953190712097e-11
          1.146283132869531e-11 1.159289802324672e-11 5.217377224254953e-12 6.291419463772987e-12 3.657054121353127e-12 4.401450371781963e-12
          4.3632682731238466e-12 5.132519073095388e-12 3.6019581976372154e-12 8.704574235811389e-12 6.082718862037961e-12 6.300161016407152e-12
          2.4459191629356254e-12 2.959163829024424e-12 2.021739876299467e-12 2.394568840455915e-12 2.052045262333092e-12 2.425183144665751e-12
          2.00805951014329e-12 4.128576195014605e-12 3.0421522168968333e-12 3.3026503724840095e-12 1.4439205938239896e-10 1.0100552064227336e-10
          2.5497123615391046e-10 1.908003797899645e-10 1.7611461803111473e-10 1.059461948799994e-10 7.656506785236364e-11 7.390995667245758e-11
          5.329965868919829e-11 1.4050099367786842e-10 1.0183965205843134e-10 9.631393339652613e-11 6.91545437248566e-11 6.309033989837339e-11
          4.657115558955684e-11 1.1868972724207576e-10 8.811986080152754e-11 7.854736994725283e-11 5.04756178489565e-11 3.63289481800333e-11
          3.39046797637181e-11 2.4358232633873206e-11 6.447414374973237e-11 4.6496386211918815e-11 4.2409710594507456e-11 3.0079168619006207e-10
          2.2580056913615328e-10 2.0667402447918254e-10 1.5439348839688575e-10 3.1722735294690024e-10 2.3842492832760596e-10 2.17940885928559e-10
          1.6672930370523826e-10 1.2113582860061727e-10 1.1354539160070962e-10 8.222420279394399e-11 1.7623713513156758e-10 1.2816320253237486e-10
          1.199391191084011e-10 1.379925525234005e-10 1.0265286173003887e-10 9.025256706990587e-11 6.688615260544513e-11 1.451959323371051e-10
          1.080880707239019e-10 9.463249661908719e-11 7.523345293475763e-11 5.433149186675392e-11 4.8873387499553053e-11 3.521619627120389e-11
          7.926511838623175e-11 5.7272478099284656e-11 5.12975741287396e-11 5.4509573816682754e-11 3.8236442384960684e-11 3.7886216215823724e-11
          2.6546959281263697e-11 7.267636527628956e-11 5.1073642115584345e-11 4.957949568949678e-11 2.6429079857578496e-11 1.8001880114173842e-11
          1.8335856176943927e-11 1.2482589127251873e-11 3.53502914593607e-11 2.410074804793303e-11 2.405104648689352e-11 2.578537276821764e-11
          1.8049928897772282e-11 1.7267745301807056e-11 1.2071731749359389e-11 3.3052650832579035e-11 2.315978811034072e-11 2.1671971921962584e-11
          1.247126508688582e-11 8.489027660112235e-12 8.326919951925301e-12 5.633394353094065e-12 1.5992163443581086e-11 1.08832906356157e-11
          1.0454384357873867e-11 8.661909002083599e-11 6.097195516582083e-11 5.864086614924122e-11 4.1193859373484325e-11 9.171898657409314e-11
          6.460714339982297e-11 6.202185812820833e-11 4.225756669653203e-11 2.8840127076027304e-11 2.8505912411660306e-11 1.943351359162781e-11
          4.480379934542854e-11 3.059334193761807e-11 3.0176816497633113e-11 3.8666437718181245e-11 2.711769491183498e-11 2.5022120450573833e-11
          1.752881621643411e-11 4.077731543688662e-11 2.860927067113577e-11 2.6278913599681844e-11 1.8741137729499505e-11 1.2763696346031193e-11
          1.2100260005757609e-11 8.22745764667832e-12 1.9778586548269327e-11 1.347350956137559e-11 1.2720428810817895e-11 4.2112472454590705e-11
          3.1021082171601886e-11 2.7758888857370444e-11 2.031334404293039e-11 5.131522632770484e-11 3.783942414083042e-11 3.322007241768232e-11
          2.2493262403779625e-11 1.6111422954906576e-11 1.4658187915030216e-11 1.0482378908644345e-11 2.753897178277474e-11 1.979082666921711e-11
          1.771607769018521e-11 1.8067406707068515e-11 1.3191936993016194e-11 1.4228403610849138e-11 1.050097806827859e-11 2.1319539677886528e-11
          1.555025265710981e-11 1.659779958814989e-11 8.670134550850158e-12 9.590800632548608e-12 6.261594794160001e-12 6.894815594988862e-12
          7.334944856610167e-12 7.743095725857418e-12 5.591713111867999e-12 1.1250643304194738e-11 8.067923910845654e-12 8.664983482393487e-12
          5.823149206341726e-11 4.299904280773797e-11 3.7260240839310536e-11 2.7381257062009878e-11 6.080777917847524e-11 4.491886050101581e-11
          3.875576806946688e-11 3.132918462420138e-11 2.2530333015481325e-11 1.9883805604628004e-11 1.4270775734250641e-11 3.273841303185403e-11
          2.3546448928089116e-11 2.0687429940715993e-11 2.370803542851523e-11 1.7226008107683365e-11 1.8403241541185048e-11 1.3216849816837549e-11
          2.4598390585675512e-11 1.786172293853369e-11 1.90834878694907e-11 1.2458348481497082e-11 8.94440849262972e-12 9.532872516696275e-12
          6.861276313215615e-12 1.292687706885175e-11 9.281005559385853e-12 9.887024663710243e-12 1.1459608449498643e-11 8.012570583456712e-12
          7.393460893041488e-12 5.781630328930039e-12 1.4087193792076355e-11 9.856505629010873e-12 8.999511719781624e-12 5.462267412719994e-12
          3.662114887303166e-12 4.311194068279808e-12 2.8943056925370573e-12 6.754425142145324e-12 4.567257332280872e-12 4.66032741815617e-12
          4.247728283916802e-12 4.749622312035618e-12 3.4461778810173324e-12 3.8582651791946066e-12 3.5498237875152484e-12 3.846706872903567e-12
          3.1683001904345826e-12 5.67629945765321e-12 4.260496777354172e-12 4.442670872944202e-12 1.6002455466723414e-11 1.1203117573736748e-11
          1.0117796232136006e-11 7.0409529344485585e-12 1.6706053479959643e-11 1.1698773954500049e-11 1.0524134222714478e-11 7.744147769490205e-12
          5.254209139773649e-12 4.84538389967859e-12 3.715040462577994e-12 8.11923618521376e-12 5.518603966552815e-12 5.107980881417929e-12
          6.331089009171205e-12 4.434558692094617e-12 4.8739451564690705e-12 3.4981486126391113e-12 6.561095443190421e-12 4.613548456843917e-12
          5.006138525341621e-12 2.9849405326668458e-12 3.089154299666836e-12 2.5262774242837785e-12 2.563936025500824e-12 2.5545235938822715e-12
          2.5282409918933238e-12 2.1715903000753407e-12 3.193368066666827e-12 2.601594626717869e-12 2.5019583899043756e-12 3.455247727526398e-12
          2.837951795202639e-12 5.473310316897844e-12 3.974264508271297e-12 2.6316874716869056e-12 8.317830142839932e-12 5.50502377030073e-12
          5.917062995654365e-12 1.3428066282493186e-12 1.706840815637999e-12 1.2105557463036681e-12 3.595028561055329e-12 2.2988471328687656e-12
          2.5658035552413183e-12 2.255450515595588e-12 2.80640432229845e-12 1.5113106215214982e-12 1.8689015432636143e-12 1.8954368867059612e-12
          2.306335667255967e-12 1.5433851158625015e-12 4.105125395578176e-12 2.7193342033289547e-12 3.0496914772434053e-12 9.801896866000993e-13
          1.221874103995718e-12 8.044637286131079e-13 9.836355015813212e-13 8.390055558565445e-13 1.0228487987231564e-12 8.518498310650127e-13
          1.7958965079262767e-12 1.2940202263888844e-12 1.3478200871864736e-12 1.4470442880631374e-12 9.051909219188722e-13 1.1245460067766848e-12
          4.3192829311825715e-13 1.2084638508944253e-11 7.99609461759825e-12 8.377528134008394e-12 5.54739795669042e-12 1.618644697968674e-11
          1.0709379127175054e-11 1.1001287820976324e-11 5.216868515538928e-12 3.348643076381e-12 3.6273735634920644e-12 2.321802214210484e-12
          6.9785545789386154e-12 4.478097102637231e-12 4.74645975044401e-12 5.6847525204969154e-12 3.764348821332332e-12 3.752139117997406e-12
          2.485858436282029e-12 7.30343817834702e-12 4.83636977326252e-12 4.757607641846962e-12 2.4795358547830024e-12 1.5861276204027752e-12
          1.638024656890461e-12 1.193891032868192e-12 3.170372008791128e-12 2.0303870190362957e-12 2.0551243089578518e-12 1.9384513610077987e-11
          1.2831770720478398e-11 1.3054070912798939e-11 8.64194362211926e-12 2.0571568526808682e-11 1.3622368314710393e-11 1.3827309654276243e-11
          8.3650856452942e-12 5.37016385361159e-12 5.634934611387868e-12 3.6156715131552613e-12 8.883112333690996e-12 5.704200271602738e-12
          5.970964741415886e-12 8.568141297074962e-12 5.673352752397298e-12 5.512163036386078e-12 3.6420199410511104e-12 9.046018616294676e-12
          5.99048765928204e-12 5.797469033110922e-12 3.719698239397725e-12 2.3845637909582663e-12 2.377024266453634e-12 1.7184925235629877e-12