<?xml version="1.0"?>
<VTKFile type="UnstructuredGrid" version="0.1" byte_order="LittleEndian" header_type="UInt32" compressor="vtkZLibDataCompressor">
  <UnstructuredGrid>
    <Piece NumberOfPoints="370" NumberOfCells="157">
      <PointData>
        <DataArray type="Int32" Name="libmesh_node_id" format="ascii" RangeMin="70" RangeMax="1268">
          70 71 72 73 74 75
          76 77 78 79 85 86
          87 88 89 100 101 102
          103 104 105 106 107 108
          109 115 116 117 118 119
          130 131 132 133 134 135
          136 137 138 139 145 146
          147 148 149 160 161 162
          163 164 165 166 167 168
          169 175 176 177 178 179
          191 193 195 196 197 198
          199 205 206 207 208 209
          210 211 212 217 220 221
          222 223 228 229 230 232
          233 234 235 236 237 238
          241 242 257 258 259 260
          261 262 263 264 265 266
          267 268 269 270 318 319
          322 325 326 327 332 333
          334 335 336 337 338 339
          340 341 342 343 344 345
          346 347 348 349 350 351
          352 353 354 355 362 363
          364 365 369 370 372 374
          375 376 379 380 381 382
          383 384 385 386 387 388
          389 390 391 392 393 531
          532 533 534 535 536 537
          538 539 540 541 542 543
          544 545 546 547 548 549
          550 551 552 553 554 555
          556 557 562 565 569 570
          573 576 577 578 579 580
          581 582 583 584 585 586
          587 588 589 590 591 592
          593 594 595 596 597 598
          657 660 663 664 667 668
          669 670 672 683 685 686
          687 688 689 691 692 1160
          1161 1162 1167 1174 1175 1176
          1179 1238 1240 1241 1243 1245
          1246 1247 1248 1250 1251 1252
          1253 1254 1255 1256 1259 1260
          1261 1262 1263 1264 1267 1268
          216 215 219 321 324 357
          356 359 358 360 361 367
          366 368 311 299 312 371
          313 373 377 378 323 330
          558 559 560 561 563 564
          566 567 568 571 572 574
          575 294 305 308 231 240
          331 653 654 655 658 659
          656 647 649 661 652 662
          665 666 671 517 521 518
          524 673 675 677 674 676
          679 678 512 525 684 526
          530 690 681 1163 1164 1165
          1166 1168 1169 1171 1170 1173
          1172 1178 1177 650 642 651
          1242 1239 1244 485 493 497
          495 1249 510 522 1257 1258
          523 1265 1266 529
        </DataArray>
        <DataArray type="Float64" Name="bounds" format="ascii" RangeMin="0" RangeMax="0">
          0 0 0 0 0 0
          0 0 0 0 0 0
          0 0 0 0 0 0
          0 0 0 0 0 0
          0 0 0 0 0 0
          0 0 0 0 0 0
          0 0 0 0 0 0
          0 0 0 0 0 0
          0 0 0 0 0 0
          0 0 0 0 0 0
          0 0 0 0 0 0
          0 0 0 0 0 0
          0 0 0 0 0 0
          0 0 0 0 0 0
          0 0 0 0 0 0
          0 0 0 0 0 0
          0 0 0 0 0 0
          0 0 0 0 0 0
          0 0 0 0 0 0
          0 0 0 0 0 0
          0 0 0 0 0 0
          0 0 0 0 0 0
          0 0 0 0 0 0
          0 0 0 0 0 0
          0 0 0 0 0 0
          0 0 0 0 0 0
          0 0 0 0 0 0
          0 0 0 0 0 0
          0 0 0 0 0 0
          0 0 0 0 0 0
          0 0 0 0 0 0
          0 0 0 0 0 0
          0 0 0 0 0 0
          0 0 0 0 0 0
          0 0 0 0 0 0
          0 0 0 0 0 0
          0 0 0 0 0 0
          0 0 0 0 0 0
          0 0 0 0 0 0
          0 0 0 0 0 0
          0 0 0 0 0 0
          0 0 0 0 0 0
          0 0 0 0 0 0
          0 0 0 0 0 0
          0 0 0 0 0 0
          0 0 0 0 0 0
          0 0 0 0 0 0
          0 0 0 0 0 0
          0 0 0 0 0 0
          0 0 0 0 0 0
          0 0 0 0 0 0
          0 0 0 0 0 0
          0 0 0 0 0 0
          0 0 0 0 0 0
          0 0 0 0 0 0
          0 0 0 0 0 0
          0 0 0 0 0 0
          0 0 0 0 0 0
          0 0 0 0 0 0
          0 0 0 0 0 0
          0 0 0 0 0 0
          0 0 0 0
        </DataArray>
        <DataArray type="Float64" Name="gradient_error" format="ascii" RangeMin="8.59927163461633e-12" RangeMax="4.582061871132431e-7">
          2.661981866992052e-9 2.5402357308150915e-9 2.472146490088266e-9 2.4153882409621516e-9 2.3192458412374588e-9 2.328087521290091e-9
          2.3270600179357304e-9 2.328584795325227e-9 2.3280382973169934e-9 2.328995641621228e-9 2.418489594638131e-9 2.3586299918360373e-9
          2.336929201342723e-9 2.3301095727147235e-9 2.3299529859254614e-9 3.6746231488679103e-9 3.2158479673610768e-9 2.8481758547691445e-9
          2.6060508395409376e-9 2.397318159364833e-9 2.3667843212773705e-9 2.3436241735432447e-9 2.3470888734279747e-9 2.3461755885216552e-9
          2.35064801218398e-9 2.757072785854243e-9 2.3639258243127304e-9 2.336250483189909e-9 2.3505535733127052e-9 2.355120435846305e-9
          9.863347118476416e-9 5.922516065389584e-9 2.205342875359996e-9 3.1878465542761355e-9 1.9229836984569366e-9 2.3424164084035528e-9
          2.4074692914968045e-9 2.408931653856683e-9 2.3997485985144023e-9 2.393776261940294e-9 7.784916114925569e-9 4.357333328787521e-9
          2.7183601374281597e-9 2.4103940162165608e-9 2.3878039253661854e-9 2.880672299358136e-7 7.598419142801062e-8 4.385576737188257e-9
          1.3728102105391002e-8 9.022011118420699e-10 1.977695382780538e-9 1.6258886841113397e-9 1.8352997735442413e-9 1.9044434122653232e-9
          1.8784188440019726e-9 7.534521569876829e-9 3.4542889950456333e-9 2.105180174200245e-9 2.0429019170843897e-9 1.852394275738622e-9
          6.900278758824609e-8 8.208722090628237e-9 1.1307627416265059e-9 7.798344446724636e-10 1.22503673551972e-9 1.377365457947265e-9
          1.3443540092403919e-9 2.722258061398317e-9 2.7848614580483456e-10 1.1651086353186458e-9 1.6381125095932253e-9 1.3113425605335189e-9
          2.4615981270852848e-8 4.701232944807879e-8 2.1172616798954552e-7 1.392334404078251e-8 4.67618441701778e-8 4.258227805905041e-8
          9.336225293422623e-8 1.4689694228594861e-8 2.5937579981698816e-8 8.568336210621301e-10 3.506141530016864e-9 5.397719161650706e-9
          9.534350895549361e-10 2.752085589543532e-10 9.346284328066684e-10 4.325204144117512e-9 3.9182211533736455e-9 1.1496998870870684e-9
          6.155517008836728e-10 2.6627885658133805e-9 4.0694502629874464e-10 3.8396339489778887e-10 2.5850900446897655e-10 3.611646801023065e-10
          2.3218921936295183e-10 2.054373794875539e-10 2.2330958376718267e-10 3.6098176349683305e-10 4.5111768523509167e-10 2.411817880468114e-10
          1.0209863289828656e-10 3.499810190941396e-10 2.1442994817141348e-10 5.412536069733502e-10 5.961977125567403e-10 6.963371370710813e-10
          3.3806747992653e-10 1.1678832544424263e-9 1.8426218712897632e-9 5.482438414668783e-10 2.4760804881626965e-9 5.1905362988487724e-9
          6.573121258381322e-9 1.5891270922557723e-8 1.5659977296814401e-9 2.7554716076874794e-9 1.421233104246296e-9 1.1342441324990011e-9
          2.6069593602901616e-9 4.0401118661559524e-10 1.0670162028599946e-8 2.659200554626667e-8 3.944945485693519e-9 8.472551607517066e-10
          7.721762673792799e-10 1.0830665155148502e-9 4.837763710573209e-10 5.929978310796518e-10 2.9180036010467564e-10 3.227285037562146e-10
          3.029051427109188e-10 1.3939567636504205e-9 7.022192911019829e-10 3.5365664740775355e-10 1.4318729513738367e-8 1.489377215130758e-8
          2.80719180979973e-8 8.494053465121667e-9 1.546881478887679e-8 1.276023645865012e-8 4.946624758823094e-9 4.138094484357291e-9
          4.753230855438558e-9 2.349731838020628e-9 5.368367226519825e-9 6.80934505677193e-11 9.153962716164745e-11 4.232089277072968e-11
          9.695766580812203e-11 6.324787488184442e-11 2.986818413983296e-11 7.087575379869893e-11 1.1498580375557559e-10 1.5037746012073294e-10
          1.118833234575649e-10 1.3944771059787326e-11 1.0228557934071795e-10 7.850363271555343e-11 1.857691164858903e-10 6.908943721160822e-9
          4.592879770750751e-9 9.627504244241291e-9 5.356872269733074e-8 2.1507657706870425e-8 1.5125841383476655e-8 3.496951382810758e-8
          1.1879046481912602e-9 3.1316150174091158e-9 3.208053433021295e-9 2.2768158203406805e-9 8.744025060082886e-9 1.6370304958884417e-8
          3.284491848633474e-9 3.8005978566979673e-10 4.386758326602567e-10 8.415140824964014e-10 9.31362041925536e-10 3.0762456780761285e-10
          3.2781941894475035e-10 4.137793029662444e-10 4.972918796507167e-10 1.0212100013546704e-9 4.997391869877384e-10 5.820004420276524e-9
          7.002155953585654e-9 1.4156966155203256e-8 4.37846881424026e-9 8.184307486894785e-9 1.657488748330953e-9 2.055098595686275e-9
          7.046181729235267e-10 2.4527084430415973e-9 3.61562175600214e-9 1.5103491309203769e-9 1.6690828952238923e-10 2.7406948905656884e-10
          5.675211397247315e-10 6.085196080619684e-10 1.872762503011788e-10 2.403150247700615e-10 3.0935747368781716e-10 3.812306885907485e-10
          6.495180763992049e-10 3.7839992260557283e-10 1.398855653372133e-9 2.0741278954804827e-9 5.789497510254811e-10 7.646304122133865e-10
          7.90672084471254e-10 1.050713079481299e-9 5.679566908567646e-10 2.749400137588832e-9 9.50311073401292e-10 1.3107540744913442e-9
          2.5067152275575756e-10 7.662716047906513e-10 9.407219047666252e-11 9.457480261365077e-11 6.168781550860007e-11 5.985656290031815e-11
          7.191001554924158e-11 9.507741475063902e-11 8.396346819816505e-11 1.7028574471933918e-10 1.1923344173167468e-10 1.2445429694036848e-10
          1.63810476698139e-10 1.9393645757624231e-10 1.5000379345929794e-10 1.296751521490623e-10 2.2406243845434562e-10 4.586583905436625e-8
          3.968242879017074e-8 5.936012312196322e-8 3.3499018525975233e-8 4.075265127088699e-8 4.894951181229232e-8 7.404401719790326e-8
          5.714637235369765e-8 7.887219205578e-9 8.15847246114837e-9 5.200536293318328e-9 1.6834106863200166e-9 3.6737142086258363e-9
          5.426545778546743e-9 1.800077511139073e-9 5.963367283273359e-10 3.397054650732947e-10 4.5649866165428363e-10 4.798659045059757e-10
          6.543483243989969e-10 4.0316072246496295e-10 1.537080461217742e-11 1.712057745607126e-11 1.363679299813193e-11 8.59927163461633e-12
          1.2244885927276905e-11 1.8870350299965097e-11 1.9661742246595485e-11 1.5890500219937477e-11 1.0852978856421879e-11 2.0453134193225867e-11
          4.582061871132431e-7 2.5230687772778364e-7 5.31848546781541e-8 5.229975977283038e-10 2.08486397134312e-10 9.271064074796227e-8
          5.66748218175017e-8 1.492656980604731e-7 9.772306754672137e-8 2.8916196721051433e-8 5.188137797919701e-8 2.0582075537298393e-7
          1.3877131327594104e-7 7.48465592373426e-8 4.3885624285753426e-8 9.801876972363667e-8 5.4433593217907017e-8 2.22927692818263e-8
          8.437355059432699e-9 7.810703327008002e-9 3.182530210500248e-8 1.0674781895192909e-8 6.126926142071005e-11 1.0746918095353639e-10
          5.361041787552329e-8 3.4867954540535224e-8 2.4028365834424358e-8 4.013418494679216e-8 1.759529265729399e-8 1.2361848488146062e-8
          1.3188777128313494e-8 2.6657952018061016e-8 7.128404318998129e-9 6.967705658256498e-9 5.291663707129319e-9 1.999590045095463e-9
          1.75496958800792e-9 4.98156566204059e-8 3.4980255284327935e-8 2.5011163068453772e-9 3.0405570575640013e-9 1.3223612789393249e-8
          2.430547007253335e-9 7.666692535508588e-10 7.932024554917325e-10 7.13061972083209e-10 4.4533318283062793e-10 4.2912745502786883e-10
          1.1705841864385662e-9 2.412656188062209e-9 3.811587064690191e-9 1.3847121448758787e-9 4.846779001313299e-9 4.452266850979413e-10
          1.345611081051105e-10 1.3141241271614758e-10 1.282637173271846e-10 1.137249663948e-10 6.105446801911397e-11 1.1336760560554209e-10
          1.3328949622675495e-10 1.1586853963606326e-9 5.894194038520758e-10 1.1455213070018279e-9 1.2046271465502446e-9 5.23502231465448e-10
          5.813335674019603e-10 1.8080437386085935e-9 3.2320816655484e-10 1.270965492677169e-10 1.9291969377325292e-10 7.005652284367073e-11
          1.3422189492152475e-10 2.1555364282716664e-10 4.5171450623647505e-10 9.750798716982482e-8 7.967627033669374e-8 6.454863239629794e-8
          8.01429995722471e-8 4.942099445590214e-8 6.277801197466935e-8 1.6584270772663752e-7 1.307350481219815e-7 2.3629511249657023e-7
          1.9618556571340896e-7 3.067475172665029e-7 2.616360833048364e-7 6.745197067472879e-9 3.050681435668117e-8 1.4058252981824156e-8
          7.83814967755276e-9 1.1459249637441854e-8 2.7855683893926815e-9 4.178249192569934e-8 9.49833001278589e-9 1.0712567008111536e-8
          3.3784926128970097e-9 9.052928613879913e-10 1.3096829388675238e-9 2.8480725972291615e-11 1.406378447014162e-11 1.6862763358368552e-11
          4.2095370776062206e-11 1.2756764328105818e-11 1.6604949260665843e-11 3.39597752148223e-11
        </DataArray>
        <DataArray type="Float64" Name="gradient_matprop_error" format="ascii" RangeMin="0" RangeMax="0">
          0 0 0 0 0 0
          0 0 0 0 0 0
          0 0 0 0 0 0
          0 0 0 0 0 0
          0 0 0 0 0 0
          0 0 0 0 0 0
          0 0 0 0 0 0
          0 0 0 0 0 0
          0 0 0 0 0 0
          0 0 0 0 0 0
          0 0 0 0 0 0
          0 0 0 0 0 0
          0 0 0 0 0 0
          0 0 0 0 0 0
          0 0 0 0 0 0
          0 0 0 0 0 0
          0 0 0 0 0 0
          0 0 0 0 0 0
          0 0 0 0 0 0
          0 0 0 0 0 0
          0 0 0 0 0 0
          0 0 0 0 0 0
          0 0 0 0 0 0
          0 0 0 0 0 0
          0 0 0 0 0 0
          0 0 0 0 0 0
          0 0 0 0 0 0
          0 0 0 0 0 0
          0 0 0 0 0 0
          0 0 0 0 0 0
          0 0 0 0 0 0
          0 0 0 0 0 0
          0 0 0 0 0 0
          0 0 0 0 0 0
          0 0 0 0 0 0
          0 0 0 0 0 0
          0 0 0 0 0 0
          0 0 0 0 0 0
          0 0 0 0 0 0
          0 0 0 0 0 0
          0 0 0 0 0 0
          0 0 0 0 0 0
          0 0 0 0 0 0
          0 0 0 0 0 0
          0 0 0 0 0 0
          0 0 0 0 0 0
          0 0 0 0 0 0
          0 0 0 0 0 0
          0 0 0 0 0 0
          0 0 0 0 0 0
          0 0 0 0 0 0
          0 0 0 0 0 0
          0 0 0 0 0 0
          0 0 0 0 0 0
          0 0 0 0 0 0
          0 0 0 0 0 0
          0 0 0 0 0 0
          0 0 0 0 0 0
          0 0 0 0 0 0
          0 0 0 0 0 0
          0 0 0 0 0 0
          0 0 0 0
        </DataArray>
        <DataArray type="Float64" Name="initial_marker" format="ascii" RangeMin="0" RangeMax="0">
          0 0 0 0 0 0
          0 0 0 0 0 0
          0 0 0 0 0 0
          0 0 0 0 0 0
          0 0 0 0 0 0
          0 0 0 0 0 0
          0 0 0 0 0 0
          0 0 0 0 0 0
          0 0 0 0 0 0
          0 0 0 0 0 0
          0 0 0 0 0 0
          0 0 0 0 0 0
          0 0 0 0 0 0
          0 0 0 0 0 0
          0 0 0 0 0 0
          0 0 0 0 0 0
          0 0 0 0 0 0
          0 0 0 0 0 0
          0 0 0 0 0 0
          0 0 0 0 0 0
          0 0 0 0 0 0
          0 0 0 0 0 0
          0 0 0 0 0 0
          0 0 0 0 0 0
          0 0 0 0 0 0
          0 0 0 0 0 0
          0 0 0 0 0 0
          0 0 0 0 0 0
          0 0 0 0 0 0
          0 0 0 0 0 0
          0 0 0 0 0 0
          0 0 0 0 0 0
          0 0 0 0 0 0
          0 0 0 0 0 0
          0 0 0 0 0 0
          0 0 0 0 0 0
          0 0 0 0 0 0
          0 0 0 0 0 0
          0 0 0 0 0 0
          0 0 0 0 0 0
          0 0 0 0 0 0
          0 0 0 0 0 0
          0 0 0 0 0 0
          0 0 0 0 0 0
          0 0 0 0 0 0
          0 0 0 0 0 0
          0 0 0 0 0 0
          0 0 0 0 0 0
          0 0 0 0 0 0
          0 0 0 0 0 0
          0 0 0 0 0 0
          0 0 0 0 0 0
          0 0 0 0 0 0
          0 0 0 0 0 0
          0 0 0 0 0 0
          0 0 0 0 0 0
          0 0 0 0 0 0
          0 0 0 0 0 0
          0 0 0 0 0 0
          0 0 0 0 0 0
          0 0 0 0 0 0
          0 0 0 0
        </DataArray>
        <DataArray type="Float64" Name="markers_norefine" format="ascii" RangeMin="0" RangeMax="0">
          0 0 0 0 0 0
          0 0 0 0 0 0
          0 0 0 0 0 0
          0 0 0 0 0 0
          0 0 0 0 0 0
          0 0 0 0 0 0
          0 0 0 0 0 0
          0 0 0 0 0 0
          0 0 0 0 0 0
          0 0 0 0 0 0
          0 0 0 0 0 0
          0 0 0 0 0 0
          0 0 0 0 0 0
          0 0 0 0 0 0
          0 0 0 0 0 0
          0 0 0 0 0 0
          0 0 0 0 0 0
          0 0 0 0 0 0
          0 0 0 0 0 0
          0 0 0 0 0 0
          0 0 0 0 0 0
          0 0 0 0 0 0
          0 0 0 0 0 0
          0 0 0 0 0 0
          0 0 0 0 0 0
          0 0 0 0 0 0
          0 0 0 0 0 0
          0 0 0 0 0 0
          0 0 0 0 0 0
          0 0 0 0 0 0
          0 0 0 0 0 0
          0 0 0 0 0 0
          0 0 0 0 0 0
          0 0 0 0 0 0
          0 0 0 0 0 0
          0 0 0 0 0 0
          0 0 0 0 0 0
          0 0 0 0 0 0
          0 0 0 0 0 0
          0 0 0 0 0 0
          0 0 0 0 0 0
          0 0 0 0 0 0
          0 0 0 0 0 0
          0 0 0 0 0 0
          0 0 0 0 0 0
          0 0 0 0 0 0
          0 0 0 0 0 0
          0 0 0 0 0 0
          0 0 0 0 0 0
          0 0 0 0 0 0
          0 0 0 0 0 0
          0 0 0 0 0 0
          0 0 0 0 0 0
          0 0 0 0 0 0
          0 0 0 0 0 0
          0 0 0 0 0 0
          0 0 0 0 0 0
          0 0 0 0 0 0
          0 0 0 0 0 0
          0 0 0 0 0 0
          0 0 0 0 0 0
          0 0 0 0
        </DataArray>
        <DataArray type="Float64" Name="markers_mustrefine" format="ascii" RangeMin="0" RangeMax="0">
          0 0 0 0 0 0
          0 0 0 0 0 0
          0 0 0 0 0 0
          0 0 0 0 0 0
          0 0 0 0 0 0
          0 0 0 0 0 0
          0 0 0 0 0 0
          0 0 0 0 0 0
          0 0 0 0 0 0
          0 0 0 0 0 0
          0 0 0 0 0 0
          0 0 0 0 0 0
          0 0 0 0 0 0
          0 0 0 0 0 0
          0 0 0 0 0 0
          0 0 0 0 0 0
          0 0 0 0 0 0
          0 0 0 0 0 0
          0 0 0 0 0 0
          0 0 0 0 0 0
          0 0 0 0 0 0
          0 0 0 0 0 0
          0 0 0 0 0 0
          0 0 0 0 0 0
          0 0 0 0 0 0
          0 0 0 0 0 0
          0 0 0 0 0 0
          0 0 0 0 0 0
          0 0 0 0 0 0
          0 0 0 0 0 0
          0 0 0 0 0 0
          0 0 0 0 0 0
          0 0 0 0 0 0
          0 0 0 0 0 0
          0 0 0 0 0 0
          0 0 0 0 0 0
          0 0 0 0 0 0
          0 0 0 0 0 0
          0 0 0 0 0 0
          0 0 0 0 0 0
          0 0 0 0 0 0
          0 0 0 0 0 0
          0 0 0 0 0 0
          0 0 0 0 0 0
          0 0 0 0 0 0
          0 0 0 0 0 0
          0 0 0 0 0 0
          0 0 0 0 0 0
          0 0 0 0 0 0
          0 0 0 0 0 0
          0 0 0 0 0 0
          0 0 0 0 0 0
          0 0 0 0 0 0
          0 0 0 0 0 0
          0 0 0 0 0 0
          0 0 0 0 0 0
          0 0 0 0 0 0
          0 0 0 0 0 0
          0 0 0 0 0 0
          0 0 0 0 0 0
          0 0 0 0 0 0
          0 0 0 0
        </DataArray>
        <DataArray type="Float64" Name="gradient_marker" format="ascii" RangeMin="0.625" RangeMax="1">
          1 1 1 1 1 1
          1 1 1 1 1 1
          1 1 1 1 1 1
          1 1 1 1 1 1
          1 1 1 1 1 1
          1 1 1 1 1 1
          1 1 1 1 1 1
          1 1 1 1 1 1
          1 1 1 1 1 1
          1 1 1 1 1 1
          1 1 1 1 1 1
          1 1 1 1 1 1
          1 1 1 1 1 1
          1 1 1 1 1 1
          1 1 1 1 1 1
          1 1 1 1 1 1
          1 1 1 1 1 1
          1 1 1 1 1 1
          1 1 1 1 1 1
          1 1 1 1 1 1
          1 1 1 1 1 1
          1 1 1 1 1 1
          1 1 1 1 1 1
          1 1 1 1 1 1
          1 1 1 1 1 1
          1 1 1 1 1 1
          1 1 1 1 1 1
          1 1 1 1 1 1
          1 1 1 1 1 1
          1 1 1 1 1 1
          1 1 1 1 1 1
          1 1 1 1 1 1
          1 1 1 1 1 1
          1 1 1 1 1 1
          1 1 1 1 1 1
          1 1 1 1 1 1
          1 1 1 1 1 1
          1 1 1 1 1 1
          1 1 1 1 1 1
          1 1 1 1 1 1
          1 1 1 1 1 1
          1 1 1 1 1 1
          1 1 1 1 1 1
          1 1 1 1 1 1
          1 1 0.875 1 1 1
          1 1 1 1 1 1
          1 1 1 0.75 0.875 1
          1 1 1 1 1 1
          1 1 1 1 1 1
          1 1 1 1 1 1
          1 0.625 0.875 1 1 1
          1 1 1 1 1 1
          1 1 1 1 1 1
          1 1 1 1 1 1
          1 1 1 1 1 1
          1 1 1 1 1 1
          1 1 1 1 1 1
          1 1 1 1 1 1
          1 1 1 1 0.8333333333333334 1
          1 1 1 0.6666666666666666 1 1
          1 1 1 1 1 1
          1 1 1 1
        </DataArray>
        <DataArray type="Float64" Name="gradient_matprop_marker" format="ascii" RangeMin="0" RangeMax="0">
          0 0 0 0 0 0
          0 0 0 0 0 0
          0 0 0 0 0 0
          0 0 0 0 0 0
          0 0 0 0 0 0
          0 0 0 0 0 0
          0 0 0 0 0 0
          0 0 0 0 0 0
          0 0 0 0 0 0
          0 0 0 0 0 0
          0 0 0 0 0 0
          0 0 0 0 0 0
          0 0 0 0 0 0
          0 0 0 0 0 0
          0 0 0 0 0 0
          0 0 0 0 0 0
          0 0 0 0 0 0
          0 0 0 0 0 0
          0 0 0 0 0 0
          0 0 0 0 0 0
          0 0 0 0 0 0
          0 0 0 0 0 0
          0 0 0 0 0 0
          0 0 0 0 0 0
          0 0 0 0 0 0
          0 0 0 0 0 0
          0 0 0 0 0 0
          0 0 0 0 0 0
          0 0 0 0 0 0
          0 0 0 0 0 0
          0 0 0 0 0 0
          0 0 0 0 0 0
          0 0 0 0 0 0
          0 0 0 0 0 0
          0 0 0 0 0 0
          0 0 0 0 0 0
          0 0 0 0 0 0
          0 0 0 0 0 0
          0 0 0 0 0 0
          0 0 0 0 0 0
          0 0 0 0 0 0
          0 0 0 0 0 0
          0 0 0 0 0 0
          0 0 0 0 0 0
          0 0 0 0 0 0
          0 0 0 0 0 0
          0 0 0 0 0 0
          0 0 0 0 0 0
          0 0 0 0 0 0
          0 0 0 0 0 0
          0 0 0 0 0 0
          0 0 0 0 0 0
          0 0 0 0 0 0
          0 0 0 0 0 0
          0 0 0 0 0 0
          0 0 0 0 0 0
          0 0 0 0 0 0
          0 0 0 0 0 0
          0 0 0 0 0 0
          0 0 0 0 0 0
          0 0 0 0 0 0
          0 0 0 0
        </DataArray>
        <DataArray type="Float64" Name="combo" format="ascii" RangeMin="0.625" RangeMax="1">
          1 1 1 1 1 1
          1 1 1 1 1 1
          1 1 1 1 1 1
          1 1 1 1 1 1
          1 1 1 1 1 1
          1 1 1 1 1 1
          1 1 1 1 1 1
          1 1 1 1 1 1
          1 1 1 1 1 1
          1 1 1 1 1 1
          1 1 1 1 1 1
          1 1 1 1 1 1
          1 1 1 1 1 1
          1 1 1 1 1 1
          1 1 1 1 1 1
          1 1 1 1 1 1
          1 1 1 1 1 1
          1 1 1 1 1 1
          1 1 1 1 1 1
          1 1 1 1 1 1
          1 1 1 1 1 1
          1 1 1 1 1 1
          1 1 1 1 1 1
          1 1 1 1 1 1
          1 1 1 1 1 1
          1 1 1 1 1 1
          1 1 1 1 1 1
          1 1 1 1 1 1
          1 1 1 1 1 1
          1 1 1 1 1 1
          1 1 1 1 1 1
          1 1 1 1 1 1
          1 1 1 1 1 1
          1 1 1 1 1 1
          1 1 1 1 1 1
          1 1 1 1 1 1
          1 1 1 1 1 1
          1 1 1 1 1 1
          1 1 1 1 1 1
          1 1 1 1 1 1
          1 1 1 1 1 1
          1 1 1 1 1 1
          1 1 1 1 1 1
          1 1 1 1 1 1
          1 1 0.875 1 1 1
          1 1 1 1 1 1
          1 1 1 0.75 0.875 1
          1 1 1 1 1 1
          1 1 1 1 1 1
          1 1 1 1 1 1
          1 0.625 0.875 1 1 1
          1 1 1 1 1 1
          1 1 1 1 1 1
          1 1 1 1 1 1
          1 1 1 1 1 1
          1 1 1 1 1 1
          1 1 1 1 1 1
          1 1 1 1 1 1
          1 1 1 1 0.8333333333333334 1
          1 1 1 0.6666666666666666 1 1
          1 1 1 1 1 1
          1 1 1 1
        </DataArray>
        <DataArray type="Float64" Name="dHdT" format="ascii" RangeMin="25.80383140799293" RangeMax="26.348818722576446">
          25.812476107093428 25.81247174104133 25.812469879911585 25.81246710328658 25.812461705836608 25.812462328155263
          25.81246220006758 25.812462334431487 25.812462228814567 25.81246233128079 25.812467374989232 25.812464326661576
          25.81246295047391 25.812462468795392 25.812462433747008 25.812884986083205 25.812910113223097 25.812927121323067
          25.81294185613328 25.81296700080329 25.812966545944075 25.81296817256182 25.812968839858584 25.81296864039927
          25.81296932466736 25.81293524036299 25.81295659094348 25.81296609108486 25.812969507155348 25.81297000893545
          25.81512724789897 25.813653418144746 25.813264643302528 25.813479477853825 25.813445577428027 25.81347158748411
          25.81348227797868 25.813483581297543 25.813482793202304 25.813483286337856 25.81364149319044 25.813543806173065
          25.81349472250136 25.813484884616415 25.813483779473408 25.87935962057262 25.82816060737148 25.81374173446882
          25.81628457800005 25.8139647053121 25.814100037161225 25.81393218926866 25.813944877969277 25.813948312842292
          25.813943985665226 25.814253001556995 25.813998093896704 25.81394842556867 25.813950769004883 25.81393965848816
          25.89501543558923 25.82340500936381 25.814690215008817 25.81420086178624 25.814191081194892 25.8141538676614
          25.814145389429996 25.81397202402664 25.814203112999714 25.814186541608397 25.814155866661018 25.81413691119859
          25.81051680651443 25.82084790775881 25.858605472910824 25.816950153481393 25.822710158798003 25.832350330626248
          25.85618155561083 25.820509920224936 25.843472099832283 25.813954715506018 25.814647586992436 25.822017185451614
          25.814208497115164 25.81459207945008 25.814922910151168 25.81490203336958 25.81584904636659 25.81460844159267
          25.81555168662084 25.817053019390947 25.81414138556994 25.814154387645832 25.81420343115974 25.814263049333917
          25.814103432745124 25.8141688466631 25.814188361299365 25.814167389721725 25.81430169712667 25.814207875935637
          25.81426879579962 25.814391586137873 25.81427328985361 25.814436004531622 25.816448249588866 25.81655520684079
          25.814984875368307 25.817028392392217 25.81952911763513 25.815630207948157 25.81494473301462 25.81578837442516
          25.81597220086617 25.81827705597542 25.814551172830495 25.814937633785554 25.814204617436605 25.814191814689455
          25.814169598295038 25.814152808658008 25.816999668717717 25.820765737525686 25.815324094740618 25.814179011942308
          25.81428580111503 25.814441804467233 25.814191100476357 25.814292356936797 25.814078005545888 25.81414079847866
          25.81413527232676 25.81459780781944 25.814393613397232 25.814203591411438 25.837209982268465 25.839681819627245
          25.859981183264896 25.828892831131675 25.842153656986028 25.83350067630741 25.82198995679061 25.82104184723213
          25.822318840408315 25.818271600325627 25.82359583358449 25.814381310335826 25.814440220212536 25.81435343713546
          25.81446189299508 25.814325038350844 25.814286416638083 25.814346572991752 25.814499130089242 25.81456105162619
          25.814406729345425 25.814316046466754 25.81448372085785 25.814368107632664 25.814622973163132 25.814413343754005
          25.814179122568824 25.815770977035992 25.80383140799293 25.809874065835587 25.811270251198824 25.807685878399198
          25.813559188866808 25.81298709615344 25.813188657881962 25.81394490138365 25.812666436562065 25.811540348805465
          25.813390219610493 25.813576626904357 25.813601392579557 25.81356809407751 25.8136233678441 25.813602862414736
          25.813685714052056 25.8137149326054 25.813626158254756 25.813678641610682 25.81374415115874 25.813926624908834
          25.81783949476491 25.8206550202142 25.816954138170274 25.821752364620984 25.81475814937829 25.815566871589148
          25.814584076527943 25.816375593799997 25.818263427658046 25.816377559081285 25.814193652195314 25.814262428478667
          25.81493642705091 25.815028927883372 25.81420317188651 25.8144594906788 25.81455428095948 25.814331204762013
          25.815121428715834 25.81464907124016 25.816777507660625 25.8178222758264 25.815412238322388 25.815743440106758
          25.815644696919374 25.81602914105515 25.81522764537806 25.81886704399219 25.816074641891127 25.81641358519093
          25.817286710739232 25.822061438053975 25.81547063804065 25.815465140839887 25.814954535481853 25.814970656142908
          25.815043202654362 25.815459643639123 25.815115749165816 25.8166911579926 25.815681814441998 25.815731419719526
          25.816769297162054 25.81705295931589 25.815967886691936 25.815781024997058 25.81733662146973 25.840466673406233
          25.84013414680703 25.857016241568168 25.839801620207837 25.87642266559544 25.892718591790075 25.934953109005903
          25.90901451798471 25.86404565468048 25.879763034394568 25.849337522971535 25.829157377278566 25.841809133980668
          25.860808691883392 25.833973665237053 25.821108831765343 25.818532300236136 25.81973996328518 25.820544641401852
          25.822832465393486 25.819571949685077 25.81445142027311 25.814478703433956 25.814379986639064 25.814351874713687
          25.814375382985112 25.814505986594803 25.814503969190863 25.814398891256538 25.814370779331163 25.814501951786923
          26.347070029132187 26.140490299630848 25.884428794094664 25.82021276796381 25.81507160317111 25.94991196331657
          25.89532993665579 26.03549188678329 25.952773148098267 25.856296649034824 25.887387547946645 26.121071810250015
          26.010216359540745 25.918478446858465 25.872312064348105 26.113706226915788 25.944433132138663 25.84650126270484
          25.842480583794647 25.826162374605268 25.859501849102276 25.830334792419926 25.814778372663735 25.815023634464893
          25.889095567211754 25.852606132554847 25.844624352495302 25.87592718265733 25.830263596272857 25.826781406355558
          25.83664257243575 25.86275879810291 25.82329921643826 25.82039216683124 25.819327797244647 25.8165250331092
          25.816451296095245 25.952316169227405 25.880480019111836 25.825441368511207 25.827105041792585 25.86367518628942
          25.821973888877334 25.821943441073618 25.82219664752637 25.824555195092692 25.818837072348956 25.818773704494905
          25.82687657857261 25.834711688143372 25.85495855806957 25.82712120023596 25.853575237358168 25.819109550055668
          25.815760664485378 25.815781515844208 25.815802367203037 25.815910364634405 25.814959235744208 25.81595414179143