<?xml version="1.0"?>
<VTKFile type="UnstructuredGrid" version="0.1" byte_order="LittleEndian" header_type="UInt32" compressor="vtkZLibDataCompressor">
  <UnstructuredGrid>
    <Piece NumberOfPoints="325" NumberOfCells="164">
      <PointData>
        <DataArray type="Int32" Name="libmesh_node_id" format="ascii" RangeMin="190" RangeMax="1278">
          190 213 214 215 216 224
          225 226 271 272 273 274
          275 276 277 278 279 280
          281 282 283 284 285 286
          287 288 289 290 291 292
          293 297 298 301 303 356
          357 358 359 360 366 367
          394 395 396 397 398 399
          400 401 402 403 404 405
          406 407 408 409 410 411
          412 413 414 415 416 417
          418 419 420 421 422 423
          424 425 426 427 442 444
          447 449 452 558 559 560
          561 566 567 568 599 600
          601 602 603 604 605 606
          607 608 609 610 611 612
          613 614 615 616 620 621
          623 624 625 626 627 628
          629 630 631 632 693 694
          695 696 697 698 699 700
          701 702 703 704 705 706
          707 708 709 710 711 712
          713 714 715 716 717 718
          719 720 721 722 723 724
          725 726 727 728 729 730
          731 734 735 736 737 739
          740 741 742 743 744 745
          746 747 748 749 750 751
          752 753 754 757 758 763
          778 779 782 783 785 787
          818 820 822 824 1163 1164
          1165 1166 1168 1169 1170 1171
          1172 1173 1177 1178 1184 1185
          1190 1191 1194 1195 1196 1197
          1198 1199 1200 1201 1202 1203
          1204 1205 1206 1207 1208 1209
          1210 1211 1212 1213 1214 1215
          1216 1217 1218 1219 1220 1221
          1222 1223 1224 1225 1226 1227
          1228 1229 1230 1231 1232 1233
          1234 1235 1236 1237 1269 1270
          1271 1272 1273 1274 1275 1276
          1277 1278 219 299 361 227
          368 434 441 435 443 448
          445 446 450 451 454 563
          564 218 294 617 618 619
          622 428 295 431 296 732
          733 300 738 755 756 759
          760 761 429 762 430 764
          765 766 767 771 772 780
          781 784 786 798 799 802
          801 803 805 807 819 821
          438 823 440 833 835 840
          843
        </DataArray>
        <DataArray type="Float64" Name="bounds" format="ascii" RangeMin="0" RangeMax="0">
          0 0 0 0 0 0
          0 0 0 0 0 0
          0 0 0 0 0 0
          0 0 0 0 0 0
          0 0 0 0 0 0
          0 0 0 0 0 0
          0 0 0 0 0 0
          0 0 0 0 0 0
          0 0 0 0 0 0
          0 0 0 0 0 0
          0 0 0 0 0 0
          0 0 0 0 0 0
          0 0 0 0 0 0
          0 0 0 0 0 0
          0 0 0 0 0 0
          0 0 0 0 0 0
          0 0 0 0 0 0
          0 0 0 0 0 0
          0 0 0 0 0 0
          0 0 0 0 0 0
          0 0 0 0 0 0
          0 0 0 0 0 0
          0 0 0 0 0 0
          0 0 0 0 0 0
          0 0 0 0 0 0
          0 0 0 0 0 0
          0 0 0 0 0 0
          0 0 0 0 0 0
          0 0 0 0 0 0
          0 0 0 0 0 0
          0 0 0 0 0 0
          0 0 0 0 0 0
          0 0 0 0 0 0
          0 0 0 0 0 0
          0 0 0 0 0 0
          0 0 0 0 0 0
          0 0 0 0 0 0
          0 0 0 0 0 0
          0 0 0 0 0 0
          0 0 0 0 0 0
          0 0 0 0 0 0
          0 0 0 0 0 0
          0 0 0 0 0 0
          0 0 0 0 0 0
          0 0 0 0 0 0
          0 0 0 0 0 0
          0 0 0 0 0 0
          0 0 0 0 0 0
          0 0 0 0 0 0
          0 0 0 0 0 0
          0 0 0 0 0 0
          0 0 0 0 0 0
          0 0 0 0 0 0
          0 0 0 0 0 0
          0
        </DataArray>
        <DataArray type="Float64" Name="gradient_error" format="ascii" RangeMin="7.128404318998129e-9" RangeMax="0.0000011989354395010352">
          7.373949917654968e-7 8.537806405249964e-7 9.674347452796886e-8 2.5230687772778364e-7 4.582061871132431e-7 2.82428885109201e-7
          2.9087799924323866e-7 9.888644966047073e-7 4.010768030004647e-7 4.124636593020572e-7 7.059651914880128e-7 9.755199396669705e-7
          5.097084704413911e-7 6.652635891418837e-7 0.0000010530017519621754 2.3025366759581753e-7 3.271083194816091e-7 3.815966192578783e-7
          3.5932219453148796e-7 5.84615429148098e-7 7.670386171172615e-7 3.461848613391511e-7 1.8298206129487837e-7 6.037510304393525e-7
          0.0000011018623607030674 3.7089161824450877e-7 6.765822651557834e-7 6.483796231415455e-8 1.227763548082582e-7 1.674940397053403e-7
          2.2010819175050841e-7 1.474098591200029e-7 2.0754631486642148e-7 1.5798165145591537e-7 2.2170621725612056e-7 5.66748218175017e-8
          9.271064074796227e-8 9.772306754672137e-8 1.492656980604731e-7 2.8916196721051433e-8 1.3877131327594104e-7 2.0582075537298393e-7
          2.8441257100574696e-7 2.6934050821481845e-7 2.569068263569716e-7 2.417206597135787e-7 2.829879757019052e-7 3.0783267875062927e-7
          2.648906125263302e-7 3.0755875196434527e-7 3.417672205400841e-7 3.6617463947062495e-7 2.4731723281803767e-7 2.9941886297347275e-7
          2.7362968635025667e-7 3.46547509108012e-7 2.226129765313636e-7 2.7904367491203545e-7 2.376030230009218e-7 3.4032863423753355e-7
          3.1719012699077934e-7 2.57346106732706e-7 2.353541552814548e-7 2.1979951678333516e-7 2.3218365892005313e-7 1.4502182223932368e-7
          8.133638763015124e-8 8.136213309943009e-8 2.3414597160311974e-7 2.8633476408535267e-7 1.6227097043977234e-7 1.8342417159869845e-7
          2.1994184654415117e-7 7.93353259275033e-8 3.1865921186248417e-7 1.636301696308321e-7 1.630724569725764e-7 2.0455665839376852e-7
          7.852967124811895e-8 1.551708846285774e-7 2.0512881709815818e-7 5.361041787552329e-8 3.4867954540535224e-8 2.4028365834424358e-8
          4.013418494679216e-8 1.3188777128313494e-8 2.6657952018061016e-8 7.128404318998129e-9 8.269492728714683e-8 8.473632052119385e-8
          9.964326271487e-8 1.7625139357313386e-7 1.737511943186195e-7 1.5741191185254255e-7 1.6137006096992216e-7 6.847266306504794e-8
          1.657752253248495e-7 1.4868829786918694e-7 8.677771375524085e-8 1.4107262938646565e-7 1.464887283667104e-7 1.1311156824483864e-7
          4.797810840044756e-8 5.014568976042546e-8 1.4841834119563406e-7 1.3173200767625756e-7 4.980069406740995e-8 9.036206611904632e-8
          2.1111205744078667e-7 2.081972570932434e-7 2.50370814107066e-7 2.4036148652927426e-7 1.4531781061551587e-7 1.70190472186713e-7
          1.7821001324369027e-7 2.8962957077334527e-7 2.725257159653052e-7 1.9506313375791008e-7 6.071168910885681e-8 6.538396213768435e-8
          6.347209998431497e-8 6.078415876562725e-8 6.214408870181335e-8 6.491130283259415e-8 6.267579285595963e-8 6.896067462111691e-8
          6.727193682138413e-8 6.687278787711547e-8 7.688625123634578e-8 7.510437227264876e-8 5.826720490586488e-8 6.372980606029506e-8
          6.977750519772799e-8 6.844626268287395e-8 6.880534862595594e-8 8.217794585267036e-8 6.950819617921953e-8 5.2519125569501886e-8
          5.2004724348656985e-8 5.7846342973943236e-8 5.6404489105416023e-8 5.35976524707197e-8 6.103899139581422e-8 4.8944124206599136e-8
          5.3816272848947716e-8 5.280089851052315e-8 5.5845465705124185e-8 6.630659375512214e-8 6.223877453621016e-8 7.430897928003633e-8
          6.276122972084314e-8 5.34084592681555e-8 5.5233963936444284e-8 6.224346946894427e-8 5.2412261329035004e-8 5.599332564563184e-8
          6.003162980954452e-8 6.845880318323333e-8 8.182214676811444e-8 4.810417233515543e-8 5.4320643153985815e-8 6.709362122275282e-8
          6.623032319422224e-8 6.503317605528902e-8 6.878735117819922e-8 7.143138814046807e-8 8.188338508418864e-8 7.00151038879267e-8
          7.213027214408959e-8 7.342314914907644e-8 8.362914192921332e-8 7.319616982546342e-8 7.39928437322579e-8 7.127603108054161e-8
          8.568356482809593e-8 8.325565495059524e-8 7.515452983260573e-8 6.406502766495402e-8 7.59290278416055e-8 9.35797997886458e-8
          5.428987263271177e-8 6.427435600101341e-8 4.900890836434084e-8 5.7518401391910324e-8 8.23449946039145e-8 6.860116626714761e-8
          9.294798220330857e-8 7.431799769976598e-8 9.546481456810317e-8 7.874819320855044e-8 9.750798716982482e-8 7.967627033669374e-8
          6.454863239629794e-8 8.01429995722471e-8 4.942099445590214e-8 6.277801197466935e-8 1.307350481219815e-7 1.6584270772663752e-7
          1.9618556571340896e-7 2.3629511249657023e-7 2.616360833048364e-7 3.067475172665029e-7 0.0000011301483735771 0.0000010765430518619384
          0.0000011483541423275995 0.0000011989354395010352 1.2668870602194778e-7 1.2146377215457965e-7 1.3550639515743153e-7 1.7534528094011525e-7
          1.7607543658049742e-7 1.6176155299749674e-7 1.609352350624346e-7 1.1623883828721154e-7 1.4744766941449605e-7 1.4652518918475397e-7
          2.498754476967056e-7 2.404199415240529e-7 2.0997256418636885e-7 2.0410802736643686e-7 2.1402503426626386e-7 2.259252571611338e-7
          2.063365395939678e-7 2.3096443535140032e-7 2.378254800560037e-7 2.0856505182149873e-7 1.7817462083582214e-7 2.1143057279821462e-7
          2.0270051500156674e-7 2.446865247606071e-7 1.9716707388159261e-7 1.8920216132864918e-7 2.260053472899935e-7 2.1772174090265012e-7
          1.6091934015685216e-7 1.858503504323947e-7 1.9067555343269355e-7 2.5484362069839426e-7 2.4624132047665105e-7 2.1078136070793722e-7
          3.6716803559949e-8 4.400169146421613e-8 5.235510243198829e-8 6.120004040262699e-8 2.943191565568187e-8 4.3510164461349574e-8
          2.6145490105481457e-8 3.903174678276505e-8 4.626811689778676e-8 3.179537666774334e-8 5.1653121775176656e-8 5.089727295049846e-8
          5.5307178929116386e-8 5.464311859902802e-8 4.660419621733449e-8 4.865768827274697e-8 5.037463058006596e-8 5.896123608305611e-8
          5.838896424755758e-8 5.0711180328159444e-8 5.31848546781541e-8 9.801876972363667e-8 5.188137797919701e-8 1.3052271695493935e-7
          7.48465592373426e-8 1.4503388495952816e-7 1.2777572553149232e-7 1.2240021465212523e-7 1.4435920755939246e-7 1.3126533807547975e-7
          1.2379355014960747e-7 1.186727687088991e-7 9.882596028942858e-8 1.0237923226744445e-7 1.5738933711477025e-7 1.759529265729399e-8
          1.2361848488146062e-8 3.1511597762535976e-8 4.98156566204059e-8 3.4303472221698795e-8 1.2130963197748352e-7 1.062164411751987e-7
          7.915715100026117e-8 1.3983621719679718e-7 1.4655688963069692e-7 1.2234263854197182e-7 1.4175143985739252e-7 6.524791750553696e-8
          7.193252289026392e-8 5.239791349496617e-8 6.284511074336917e-8 9.46158418424793e-8 9.14348191593593e-8 8.182721601184542e-8
          9.69093822899615e-8 9.696485919681806e-8 1.1483132641364884e-7 1.1390764501219389e-7 1.0712482358697718e-7 8.153359576809668e-8
          7.760409562911288e-8 1.0378999213027338e-7 9.948909361929474e-8 6.743713862782378e-8 8.704604955430282e-8 5.455741311183198e-8
          6.707991246203057e-8 5.875918937660959e-8 9.06557832613879e-8 6.550920440468636e-8 8.086739743269539e-8 9.780855686927348e-8
          7.812909843611651e-8 1.0308122991904224e-7 6.32325270914863e-8 9.625054217951238e-8 1.0573997800228522e-7 8.069124307682605e-8
          8.943809443660577e-8 1.0977080129402379e-7 8.617167495936253e-8 5.223286290627025e-8 5.6006164316623475e-8 4.615026051250201e-8
          5.977946572697671e-8
        </DataArray>
        <DataArray type="Float64" Name="gradient_matprop_error" format="ascii" RangeMin="0" RangeMax="0">
          0 0 0 0 0 0
          0 0 0 0 0 0
          0 0 0 0 0 0
          0 0 0 0 0 0
          0 0 0 0 0 0
          0 0 0 0 0 0
          0 0 0 0 0 0
          0 0 0 0 0 0
          0 0 0 0 0 0
          0 0 0 0 0 0
          0 0 0 0 0 0
          0 0 0 0 0 0
          0 0 0 0 0 0
          0 0 0 0 0 0
          0 0 0 0 0 0
          0 0 0 0 0 0
          0 0 0 0 0 0
          0 0 0 0 0 0
          0 0 0 0 0 0
          0 0 0 0 0 0
          0 0 0 0 0 0
          0 0 0 0 0 0
          0 0 0 0 0 0
          0 0 0 0 0 0
          0 0 0 0 0 0
          0 0 0 0 0 0
          0 0 0 0 0 0
          0 0 0 0 0 0
          0 0 0 0 0 0
          0 0 0 0 0 0
          0 0 0 0 0 0
          0 0 0 0 0 0
          0 0 0 0 0 0
          0 0 0 0 0 0
          0 0 0 0 0 0
          0 0 0 0 0 0
          0 0 0 0 0 0
          0 0 0 0 0 0
          0 0 0 0 0 0
          0 0 0 0 0 0
          0 0 0 0 0 0
          0 0 0 0 0 0
          0 0 0 0 0 0
          0 0 0 0 0 0
          0 0 0 0 0 0
          0 0 0 0 0 0
          0 0 0 0 0 0
          0 0 0 0 0 0
          0 0 0 0 0 0
          0 0 0 0 0 0
          0 0 0 0 0 0
          0 0 0 0 0 0
          0 0 0 0 0 0
          0 0 0 0 0 0
          0
        </DataArray>
        <DataArray type="Float64" Name="initial_marker" format="ascii" RangeMin="0" RangeMax="2">
          0 0 0 0 0 2
          0 0 0 0 0 0
          0 0 0 0 0.5 0
          0 0 0 0 0 0
          0 0.5 0 0 0 0
          0 0 0 1 0 0
          0 0 0 0 0 0
          0 0 0 0 0.5 0.25
          0 0.25 1.5 1 0 0
          0 0.25 1 0.5 0 1.5
          0 0.5 0.25 2 1.5 0
          2 2 0 0.25 0.5 2
          2 2 1 0.5 0 0
          0 0 0 0 0 0
          0 0 0 0 0 0
          0 0 0 0 0 0
          0 0 0 0 0 0
          0 0 0 0 0 0
          0 0 0 0 0 0
          0 0 0 0 0 1
          1 0.5 2 0 0 1
          1 0 1 1 0 0.75
          1 2 2 2 1.75 0
          0 0.25 0 0 0.5 0
          0 0 0 1 0.5 1.5
          0.5 2 2 2 2 2
          2 2 2 2 2 2
          1.5 1 2 1.75 2 1.5
          1.3333333333333333 2 2 2 0 0
          1 1 0.5 0 1 2
          0 0.5 0 0 1.5 0.6666666666666666
          2 1 2 1 0 0
          0 0 0 0 0 0
          0 0 0 0 0 0
          0 0 0 0 0 0
          0 0 0 0 0 0
          0 0 0 0 0 0
          0 0 0 0 0 0
          0 0 0 0 0 0
          0 0 0 0 0 0
          0 0 0 0 0 0
          0 0 0 0 0 0
          0 0 0 0 0 0
          0 0 0 0 0 0
          0 0 0 0.5 0 0
          0 0 0 0 0 0
          0 0 0 0 0 0
          0 0 1 0.5 0 2
          2 2 2 1.5 1.25 1
          2 2 2 2 2 2
          1.5 2 1.75 0.5 1.25 0
          0.5 0 1.5 2 2 2
          2 2 2 2 2 1
          2 2 1 0 0 0
          0
        </DataArray>
        <DataArray type="Float64" Name="markers_norefine" format="ascii" RangeMin="0" RangeMax="0">
          0 0 0 0 0 0
          0 0 0 0 0 0
          0 0 0 0 0 0
          0 0 0 0 0 0
          0 0 0 0 0 0
          0 0 0 0 0 0
          0 0 0 0 0 0
          0 0 0 0 0 0
          0 0 0 0 0 0
          0 0 0 0 0 0
          0 0 0 0 0 0
          0 0 0 0 0 0
          0 0 0 0 0 0
          0 0 0 0 0 0
          0 0 0 0 0 0
          0 0 0 0 0 0
          0 0 0 0 0 0
          0 0 0 0 0 0
          0 0 0 0 0 0
          0 0 0 0 0 0
          0 0 0 0 0 0
          0 0 0 0 0 0
          0 0 0 0 0 0
          0 0 0 0 0 0
          0 0 0 0 0 0
          0 0 0 0 0 0
          0 0 0 0 0 0
          0 0 0 0 0 0
          0 0 0 0 0 0
          0 0 0 0 0 0
          0 0 0 0 0 0
          0 0 0 0 0 0
          0 0 0 0 0 0
          0 0 0 0 0 0
          0 0 0 0 0 0
          0 0 0 0 0 0
          0 0 0 0 0 0
          0 0 0 0 0 0
          0 0 0 0 0 0
          0 0 0 0 0 0
          0 0 0 0 0 0
          0 0 0 0 0 0
          0 0 0 0 0 0
          0 0 0 0 0 0
          0 0 0 0 0 0
          0 0 0 0 0 0
          0 0 0 0 0 0
          0 0 0 0 0 0
          0 0 0 0 0 0
          0 0 0 0 0 0
          0 0 0 0 0 0
          0 0 0 0 0 0
          0 0 0 0 0 0
          0 0 0 0 0 0
          0
        </DataArray>
        <DataArray type="Float64" Name="markers_mustrefine" format="ascii" RangeMin="0" RangeMax="2">
          0 0 0 0 0 2
          0 0 0 0 0 0
          0 0 0 0 0.5 0
          0 0 0 0 0 0
          0 0.5 0 0 0 0
          0 0 0 1 0 0
          0 0 0 0 0 0
          0 0 0 0 0.5 0.25
          0 0.25 1.5 1 0 0
          0 0.25 1 0.5 0 1.5
          0 0.5 0.25 2 1.5 0
          2 2 0 0.25 0.5 2
          2 2 1 0.5 0 0
          0 0 0 0 0 0
          0 0 0 0 0 0
          0 0 0 0 0 0
          0 0 0 0 0 0
          0 0 0 0 0 0
          0 0 0 0 0 0
          0 0 0 0 0 1
          1 0.5 2 0 0 1
          1 0 1 1 0 0.75
          1 2 2 2 1.75 0
          0 0.25 0 0 0.5 0
          0 0 0 1 0.5 1.5
          0.5 2 2 2 2 2
          2 2 2 2 2 2
          1.5 1 2 1.75 2 1.5
          1.3333333333333333 2 2 2 0 0
          1 1 0.5 0 1 2
          0 0.5 0 0 1.5 0.6666666666666666
          2 1 2 1 0 0
          0 0 0 0 0 0
          0 0 0 0 0 0
          0 0 0 0 0 0
          0 0 0 0 0 0
          0 0 0 0 0 0
          0 0 0 0 0 0
          0 0 0 0 0 0
          0 0 0 0 0 0
          0 0 0 0 0 0
          0 0 0 0 0 0
          0 0 0 0 0 0
          0 0 0 0 0 0
          0 0 0 0.5 0 0
          0 0 0 0 0 0
          0 0 0 0 0 0
          0 0 1 0.5 0 2
          2 2 2 1.5 1.25 1
          2 2 2 2 2 2
          1.5 2 1.75 0.5 1.25 0
          0.5 0 1.5 2 2 2
          2 2 2 2 2 1
          2 2 1 0 0 0
          0
        </DataArray>
        <DataArray type="Float64" Name="gradient_marker" format="ascii" RangeMin="0" RangeMax="1">
          1 1 1 1 1 1
          1 1 1 1 1 1
          1 1 1 1 1 1
          1 1 1 1 1 1
          1 1 1 0.75 0.75 0.75
          0.75 0.8333333333333334 0.875 0.75 1 1
          1 1 1 1 1 1
          1 1 1 1 1 1
          1 1 1 1 1 1
          1 1 1 1 1 1
          1 0.75 0.75 0.5 0.5 0.5
          0.75 1 0.8333333333333334 0.75 0.625 0.5
          0.5 0.75 0.75 1 0.8333333333333334 0.875
          0.5 1 0.75 1 1 1
          1 1 1 1 1 1
          1 1 1 1 1 0.5
          0.75 0.75 1 1 1 0.6666666666666666
          0 0 0.5 0.5 0 0.5
          1 1 1 1 1 1
          1 1 1 1 0 0
          0 0 0 0 0 0.25
          0.25 0.25 0.75 0.625 0 0.25
          0.5 0.25 0.375 0.875 0.5 0
          0 0.125 0 0 0.25 0
          0 0 0 0.375 0 0.75
          0.25 0 0 0 0 0
          0.125 0.375 0.875 0 0 0.25
          0 0 0 0.5 1 0.5
          0.6666666666666666 0.5 1 0.5 1 0.75
          1 0.875 1 0.25 0.625 1
          0 0.25 0 0 0.75 0.3333333333333333
          1 0.625 1 0.75 1 1
          1 1 1 1 1 1
          1 1 1 1 1 1
          1 1 1 1 1 1
          1 1 1 1 1 1
          1 1 1 1 1 1
          1 1 1 1 1 1
          1 1 1 1 1 1
          1 1 1 1 1 1
          0 0 0.25 0.25 0 0.25
          0 0 0 0 0 0
          0.125 0 0 0 0 0.25
          0 0 0.875 0.75 1 1
          1 0.75 0.75 0.625 0.75 1
          0.6666666666666666 0.625 0.75 0.5 1 1
          1 0.5 0.625 0 0.5 0.5
          0.5 0.75 1 0.75 0.75 0.25
          0.5 0 0.25 1 1 0.75
          1 1 1 1 1 1
          1 1 1 0.5 0.75 0
          0.375 0.25 0.875 0.5 0.75 1
          0.625 0.875 0.5 1 1 0.75
          0.75 1 1 0 0.25 0
          0.5
        </DataArray>
        <DataArray type="Float64" Name="gradient_matprop_marker" format="ascii" RangeMin="0" RangeMax="0">
          0 0 0 0 0 0
          0 0 0 0 0 0
          0 0 0 0 0 0
          0 0 0 0 0 0
          0 0 0 0 0 0
          0 0 0 0 0 0
          0 0 0 0 0 0
          0 0 0 0 0 0
          0 0 0 0 0 0
          0 0 0 0 0 0
          0 0 0 0 0 0
          0 0 0 0 0 0
          0 0 0 0 0 0
          0 0 0 0 0 0
          0 0 0 0 0 0
          0 0 0 0 0 0
          0 0 0 0 0 0
          0 0 0 0 0 0
          0 0 0 0 0 0
          0 0 0 0 0 0
          0 0 0 0 0 0
          0 0 0 0 0 0
          0 0 0 0 0 0
          0 0 0 0 0 0
          0 0 0 0 0 0
          0 0 0 0 0 0
          0 0 0 0 0 0
          0 0 0 0 0 0
          0 0 0 0 0 0
          0 0 0 0 0 0
          0 0 0 0 0 0
          0 0 0 0 0 0
          0 0 0 0 0 0
          0 0 0 0 0 0
          0 0 0 0 0 0
          0 0 0 0 0 0
          0 0 0 0 0 0
          0 0 0 0 0 0
          0 0 0 0 0 0
          0 0 0 0 0 0
          0 0 0 0 0 0
          0 0 0 0 0 0
          0 0 0 0 0 0
          0 0 0 0 0 0
          0 0 0 0 0 0
          0 0 0 0 0 0
          0 0 0 0 0 0
          0 0 0 0 0 0
          0 0 0 0 0 0
          0 0 0 0 0 0
          0 0 0 0 0 0
          0 0 0 0 0 0
          0 0 0 0 0 0
          0 0 0 0 0 0
          0
        </DataArray>
        <DataArray type="Float64" Name="combo" format="ascii" RangeMin="0" RangeMax="1">
          1 1 1 1 1 1
          1 1 1 1 1 1
          1 1 1 1 1 1
          1 1 1 1 1 1
          1 1 1 0.75 0.75 0.75
          0.75 0.8333333333333334 0.875 0.75 1 1
          1 1 1 1 1 1
          1 1 1 1 1 1
          1 1 1 1 1 1
          1 1 1 1 1 1
          1 0.75 0.75 0.5 0.5 0.5
          0.75 1 0.8333333333333334 0.75 0.625 0.5
          0.5 0.75 0.75 1 0.8333333333333334 0.875
          0.5 1 0.75 1 1 1
          1 1 1 1 1 1
          1 1 1 1 1 0.5
          0.75 0.75 1 1 1 0.6666666666666666
          0 0 0.5 0.5 0 0.5
          1 1 1 1 1 1
          1 1 1 1 0 0
          0 0 0 0 0 0.25
          0.25 0.25 0.75 0.625 0 0.25
          0.5 0.25 0.375 0.875 0.5 0
          0 0.125 0 0 0.25 0
          0 0 0 0.375 0 0.75
          0.25 0 0 0 0 0
          0.125 0.375 0.875 0 0 0.25
          0 0 0 0.5 1 0.5
          0.6666666666666666 0.5 1 0.5 1 0.75
          1 0.875 1 0.25 0.625 1
          0 0.25 0 0 0.75 0.3333333333333333
          1 0.625 1 0.75 1 1
          1 1 1 1 1 1
          1 1 1 1 1 1
          1 1 1 1 1 1
          1 1 1 1 1 1
          1 1 1 1 1 1
          1 1 1 1 1 1
          1 1 1 1 1 1
          1 1 1 1 1 1
          0 0 0.25 0.25 0 0.25
          0 0 0 0 0 0
          0.125 0 0 0 0 0.25
          0 0 0.875 0.75 1 1
          1 0.75 0.75 0.625 0.75 1
          0.6666666666666666 0.625 0.75 0.5 1 1
          1 0.5 0.625 0 0.5 0.5
          0.5 0.75 1 0.75 0.75 0.25
          0.5 0 0.25 1 1 0.75
          1 1 1 1 1 1
          1 1 1 0.5 0.75 0
          0.375 0.25 0.875 0.5 0.75 1
          0.625 0.875 0.5 1 1 0.75
          0.75 1 1 0 0.25 0
          0.5
        </DataArray>
        <DataArray type="Float64" Name="dHdT" format="ascii" RangeMin="25.82329921643826" RangeMax="41.883845283526306">
          34.964551445737314 27.26762853662003 26.389751469960487 26.140490299630848 26.347070029132187 38.09236661178744
          27.23477688946191 28.118866470114998 26.92730733485381 26.69061894858331 27.237689703933594 30.694234769787677
          31.575639533600814 29.309334473463984 29.317226176775748 26.334708915888076 32.06065203895129 29.32410366477292
          26.387482891432388 27.095741237983823 27.426297901487963 26.653465526508338 38.59705991147142 33.0070411417858
          31.526202795118717 33.86940430756938 27.783604332815084 26.16395488512238 26.131082560234002 31.31960767593683
          28.322236852915214 26.043834838217634 26.396934247849092 34.714755067315636 26.858287778425286 25.89532993665579
          25.94991196331657 25.952773148098267 26.03549188678329 25.856296649034824 26.010216359540745 26.121071810250015
          32.04042371020563 31.30117176759506 31.79453353065124 36.38300296365303 36.59353506246302 35.38125655668106
          35.07287767500216 31.307959585963573 36.464107991100825 35.398421175405055 30.21429154371911 32.34988424543512
          32.675286458065024 32.436801738620936 38.576709885232404 37.258107393691375 37.045784315662246 37.080652828851186
          33.74102540045217 31.728367532677687 30.83180256866559 36.95407107816401 36.367317034507224 30.20514881303236
          37.18991044171459 36.99615061983176 29.586009780672526 32.3624922463737 32.25427477225609 37.09252338575021
          37.13273175843289 37.13115604474724 34.13120014441646 30.87666329846482 27.491205144180515 28.44397778164373
          26.48555996846393 27.249274552080998 29.127537779402644 25.889095567211754 25.852606132554847 25.844624352495302
          25.87592718265733 25.83664257243575 25.86275879810291 25.82329921643826 26.630142267329123 26.58800012397197
          26.75971793833095 28.051232669048765 27.834310123226327 27.616644251903395 27.82972379414959 26.404818187061476
          27.566434292480622 27.35819637492505 26.545857980614812 27.398978380580456 27.608214919250415 26.95701784226941
          26.255269712682555 26.229931224071578 27.24267550102641 27.052610276339387 26.165124477316482 26.661088574523966
          28.201863940631267 28.414856931986353 28.977631397918103 29.148529366447942 27.206505194593454 27.525049694306997
          27.756189615363297 29.753398855204942 29.88220180090953 27.84359419402054 33.457616049592815 35.940511234296366
          35.59442106228158 34.46012697502898 37.699954625651486 33.96219357317587 33.46093446616531 35.88403890566525
          35.5366138295781 33.41527047712218 35.74052248598517 35.39182277661908 32.22501443429541 34.40641857913261
          34.273657710714325 37.40115792099847 37.516233591945635 37.25329340213234 37.238225009320765 30.69321267252784
          30.774063019010015 32.48509709587171 32.53556900285442 30.51228313228188 32.356522008824655 29.89607183561963
          31.34654578696913 31.399214945917688 31.208851663473624 35.55203914014554 35.58755430444022 35.45372800809259
          34.25893752454236 36.77444232505654 37.07963714137694 37.729588001609784 36.490591106421256 36.765534193892954
          36.98160957837214 37.55716829075618 37.337432463129105 36.5346367839436 36.54304516584387 37.22570928684065
          37.242305190817085 36.41026633611196 37.60657675945258 37.16756035303323 37.010506115502345 36.41846908740543
          35.09227630492665 37.50802394499096 37.31431710018693 37.116082864044785 33.80276781549463 33.25218332118343
          35.542149292175125 35.18744772998804 32.95491213071473 31.885780866042722 34.07145048899888 36.82416147992038
          30.279542418279206 32.15196920181407 29.489121931345192 30.99378359343133 35.28026755419012 33.27030186659913
          36.83687511602033 34.305460007249835 37.13761110900934 34.95468984235971 26.000538593194882 25.95544851209365
          25.931847093289818 25.968782290650516 25.90824567448599 25.93702598810615 26.015548776245843 26.08570473914026
          26.125787005266325 26.217261730858354 26.236025234286814 26.348818722576446 30.46113692746144 29.391211869456086
          32.508610866011445 30.925504246406923 27.0303260563686 26.948411750692834 27.054488956590674 28.35255035180643
          28.250406618543117 28.02317478310611 28.119073739930126 26.866497445017067 27.79594294766911 27.885597128053824
          33.43007314685855 32.49693193860313 32.13631390765782 34.96704833359087 35.561107791846965 34.33949243251203
          33.8468840817242 31.56379073034772 33.117877073177084 32.72671982985754 37.6921424368354 36.18205292642092
          35.55745425579059 34.67196341600645 28.56055583527653 28.614951093587308 29.244972781512534 29.279756559070538
          27.602076689364747 27.959155123053915 28.059158516648615 29.929389727748532 29.94456202455377 28.31623355674308
          26.057116822825765 26.10527626834721 26.29636860308586 26.381834366430905 26.00895737730432 26.210902839740815
          25.988577426479175 26.133105108776142 26.19253212079255 26.07367809675974 30.36839251194378 30.509061297445655
          30.85401846813357 31.01136478006814 29.083834456075962 29.354927333956617 29.527373909235063 31.339644424323364
          31.513668262690622 29.62602021183728 25.884428794094664 26.113706226915788 25.887387547946645 26.407098805592288
          25.918478446858465 27.966120651864536 27.02906599808561 31.80654581837625 27.753500030791027 26.94221216567375
          26.87033078111595 27.275255548922857 26.62454190964143 28.22294150666585 27.19093718549276 25.830263596272857
          25.826781406355558 25.972778712267036 25.952316169227405 26.08956700998321 26.88030245039224 26.72987115771391
          26.502335770931012 29.71921889297525 30.036536451719385 28.963947096413495 27.40012747724994 36.97630839639685
          37.01044886179487 37.11086998437856 36.882685995441015 35.288160253323845 34.915905079792815 33.77846604968181
          37.58048872894153 37.37362704819748 39.479124073780675 38.52827672219727 36.90722748756742 33.07799102319123
          32.50100459278984 34.94741230123283 34.55292671658475 31.120143614895788 33.38659820713646 29.969279572507993
          31.84805523860912 30.682828284116404 35.00916345714438 37.925673912548945 37.80906000322999 37.62604804309771
          41.883845283526306 37.85617123265286 38.27913272050646 37.86089323830969 36.64027829664245 33.99405591556837
          38.02378548393126 36.98906058370636 34.63419592629882 30.045042143097195 30.50599635213374 29.016492769929876
          30.96695056117028
        </DataArray>
        <DataArray type="Float64" Name="dk/dtemperature" format="ascii" RangeMin="0.005546789203056063" RangeMax="0.015804580349343192">
          0.008767041315348577 0.01423458892391178 0.015219859183845986 0.015487561152952984 0.015228979726982504 0.005863471292865972
          0.014166020811547136 0.013378760688121657 0.014593241329145513 0.014883529596125345 0.014236266265178267 0.011343060098887033
          0.010790039608696282 0.012304302048902644 0.012334870207657188 0.0152350793588151 0.010229222083112539 0.012325494131967145
          0.015223380469156103 0.014388691258721727 0.014047394244523372 0.014851384998569923 0.006282733314815486 0.00988225912122526
          0.010803494558892924 0.008887937836390778 0.013650991478648176 0.015440639228047278 0.015496745444899125 0.010970428724549713
          0.012992365009132765 0.015622839291769873 0.015160918211046311 0.008491917563373311 0.014558773663143464 0.01578369745057543
          0.015741931653039914 0.015711802410540654 0.01563185613242674 0.015804580349343192 0.015639907370505877 0.015521780611813562
          0.010344959252894264 0.010837529248224587 0.010543010248304572 0.007744533004668246 0.007179936768084852 0.008115642639421355
          0.00857173481700195 0.010788085909149314 0.007136746334451543 0.007874463558685874 0.011486680898550997 0.01011845420699099
          0.009977913975625254 0.009930823694198735 0.005546789203056063 0.006725921346148494 0.00735643816913493 0.006543344927900247
          0.009238164543572996 0.010511509228669074 0.01110459958374119 0.0072516253043956504 0.007265711821774116 0.011587361912538246