<?xml version="1.0"?>
<VTKFile type="UnstructuredGrid" version="0.1" byte_order="LittleEndian" header_type="UInt32" compressor="vtkZLibDataCompressor">
  <UnstructuredGrid>
    <Piece NumberOfPoints="269" NumberOfCells="157">
      <PointData>
        <DataArray type="Int32" Name="libmesh_node_id" format="ascii" RangeMin="239" RangeMax="2440">
          239 471 472 474 475 479
          480 481 940 952 953 954
          955 978 979 981 984 986
          987 988 989 990 991 992
          993 994 995 1669 1670 1671
          1672 1680 1681 1682 1737 1738
          1739 1740 1747 1748 1749 1750
          1751 1752 1753 1754 1755 1756
          1757 1758 1760 1762 1763 1764
          1776 1777 1794 1796 1800 1801
          1804 1810 1811 1843 1844 1845
          1846 1847 1848 1849 1850 1851
          1852 1858 1859 1860 1861 1862
          1863 1864 1875 1876 1877 1878
          1879 1880 1881 1882 1883 1884
          1892 1893 1894 1895 1896 1897
          1898 1899 1900 1901 1902 1903
          1904 1905 1906 1907 1908 1909
          1910 1911 1912 1913 1914 1915
          1916 1917 1918 1919 1920 1921
          1922 1923 1924 1925 1926 1927
          1928 1929 1930 1931 1932 1933
          1934 1935 1936 1937 1938 1939
          1940 1941 1942 1943 1944 1945
          1946 1947 1948 1949 1950 1951
          1952 1953 1954 1955 1956 1957
          1958 1959 1960 1961 1962 1963
          1964 1965 1966 1970 1971 1974
          1975 1990 1991 1994 1995 2007
          2008 2011 2012 2014 2015 2018
          2019 2035 2036 2039 2040 2042
          2043 2046 2047 1759 1761 1799
          1798 973 1802 1806 1808 1812
          1809 974 964 1778 1973 1972
          997 1976 1993 1992 1001 1996
          2009 2010 2013 1003 2016 2017
          2020 1004 2037 2038 2041 1007
          2044 2045 2048 1008 2162 2164
          2166 2168 1805 2227 2231 969
          2228 2232 2234 2236 2144 2145
          2267 2268 2147 2271 2273 2274
          2276 2287 2289 2291 2293 2301
          2302 2305 2307 2308 2310 2321
          2323 2325 2327 2403 2405 2407
          2409 2434 2436 2438 2440
        </DataArray>
        <DataArray type="Float64" Name="bounds" format="ascii" RangeMin="0" RangeMax="0">
          0 0 0 0 0 0
          0 0 0 0 0 0
          0 0 0 0 0 0
          0 0 0 0 0 0
          0 0 0 0 0 0
          0 0 0 0 0 0
          0 0 0 0 0 0
          0 0 0 0 0 0
          0 0 0 0 0 0
          0 0 0 0 0 0
          0 0 0 0 0 0
          0 0 0 0 0 0
          0 0 0 0 0 0
          0 0 0 0 0 0
          0 0 0 0 0 0
          0 0 0 0 0 0
          0 0 0 0 0 0
          0 0 0 0 0 0
          0 0 0 0 0 0
          0 0 0 0 0 0
          0 0 0 0 0 0
          0 0 0 0 0 0
          0 0 0 0 0 0
          0 0 0 0 0 0
          0 0 0 0 0 0
          0 0 0 0 0 0
          0 0 0 0 0 0
          0 0 0 0 0 0
          0 0 0 0 0 0
          0 0 0 0 0 0
          0 0 0 0 0 0
          0 0 0 0 0 0
          0 0 0 0 0 0
          0 0 0 0 0 0
          0 0 0 0 0 0
          0 0 0 0 0 0
          0 0 0 0 0 0
          0 0 0 0 0 0
          0 0 0 0 0 0
          0 0 0 0 0 0
          0 0 0 0 0 0
          0 0 0 0 0 0
          0 0 0 0 0 0
          0 0 0 0 0 0
          0 0 0 0 0
        </DataArray>
        <DataArray type="Float64" Name="gradient_error" format="ascii" RangeMin="4.655838787037779e-10" RangeMax="3.9669412610456336e-8">
          1.854453637906019e-8 2.03163834746886e-8 1.099152468234473e-8 7.259874670746491e-9 3.4315863018223436e-9 2.388793266786601e-8
          2.839960627599729e-8 1.0651340442504968e-8 1.732301780883064e-8 1.3246527098651655e-8 1.1132897990956236e-8 5.98905950743901e-9
          6.663400318191024e-9 3.6178334582403134e-8 3.52804163411474e-8 2.219661475163334e-8 3.6617961128697e-8 2.8378019127404234e-8
          2.5178100722665718e-8 1.6876865866384066e-8 1.454068218863493e-8 1.4532684913943663e-8 7.983855239517046e-9 2.6664536456780118e-8
          3.027680841575951e-8 1.817176920581376e-8 1.891992340147507e-8 2.3413019493693145e-8 2.2612356689189746e-8 1.952799827182664e-8
          2.0481463636912457e-8 1.7252245336199265e-8 1.4250247893648052e-8 1.3516928591409033e-8 1.672970674905077e-8 1.60435079089565e-8
          1.2685852008458753e-8 1.4151277218283412e-8 1.0061061693827894e-8 9.612867579334231e-9 6.919227394373701e-9 8.376096672106295e-9
          6.6950681893770885e-9 5.0590820597434064e-9 5.221182281194939e-9 3.896535668544698e-9 1.1511198875711182e-8 8.957817793493726e-9
          8.705279532373403e-9 3.6737137060928516e-9 2.7980437110760774e-9 6.664575215350118e-9 4.722264095496038e-9 4.891466648703691e-9
          1.0203589902233272e-8 8.017561917322582e-9 3.847319635781374e-9 2.829075800725469e-9 6.201045810136662e-9 4.655821252304666e-9
          2.0074003482531426e-9 3.36888590301255e-9 2.340645260323739e-9 3.516794788618974e-8 3.418904697296176e-8 3.1483940404757804e-8
          3.0417492468422334e-8 3.1125444296023806e-8 2.7106621247468697e-8 3.7782647882055184e-8 3.840423319032711e-8 3.64834138476628e-8
          3.8189555856843654e-8 2.5952530784466008e-8 2.1965692435391926e-8 1.9729294446360276e-8 1.6389719423187904e-8 3.3820434518300725e-8
          2.996414657293939e-8 2.5723245946882197e-8 2.9284531190625536e-8 3.275191436476178e-8 2.94910699905326e-8 3.2733361260143543e-8
          3.871975202762417e-8 3.732376169668241e-8 2.3707138948067884e-8 2.837922370040321e-8 2.8694113223535424e-8 3.73568345479449e-8
          3.848589463680628e-8 3.5156491509002885e-8 3.0340290804189087e-8 2.672290028322884e-8 3.9669412610456336e-8 3.6684793484869946e-8
          3.214983707479445e-8 2.6739466462795094e-8 2.5708208606461966e-8 2.154014370085646e-8 2.066229363720176e-8 2.2645955774740987e-8
          1.8105461212008846e-8 3.312631447629432e-8 3.2905373793660063e-8 2.778044864151012e-8 3.070617401935531e-8 1.6613994308485304e-8
          1.5914872669703575e-8 1.2300011336283662e-8 1.1749446062306106e-8 1.3890577878515967e-8 1.0169428642756667e-8 2.249334775118431e-8
          2.1850470436774483e-8 1.6355194735561584e-8 1.9547193256001433e-8 1.8123560747545552e-8 1.4386647974121021e-8 1.3322682030838707e-8
          1.0437634065998062e-8 2.5219323447484604e-8 2.02486222444115e-8 1.8308060771090905e-8 1.0940252580519225e-8 7.906812136444046e-9
          7.81553535913195e-9 5.566452524788487e-9 1.5581326710758585e-8 1.1457583799400481e-8 1.104957990764304e-8 2.9695047146175226e-8
          3.205865063965231e-8 2.8661032414291158e-8 2.9636622964867656e-8 3.4252866747815603e-8 2.9317894890655115e-8 2.5331852510076376e-8
          2.9344456003858213e-8 2.8786598500742035e-8 3.450252201505694e-8 2.4369489177187413e-8 2.4483724816586666e-8 1.859999433006782e-8
          1.8543741122837506e-8 2.3142418206139683e-8 1.7350642510673414e-8 2.3938312352626115e-8 2.4646400507714887e-8 1.883288581749507e-8
          2.4166949056235028e-8 3.029691561830687e-8 2.4605792771329287e-8 2.2219960924489925e-8 1.7722434688985448e-8 3.198036615569965e-8
          2.61389948252238e-8 2.3693682635896487e-8 1.901587836753e-8 1.4129218367072114e-8 1.3583107139494282e-8 9.917890594449533e-9
          2.022959059493552e-8 1.5079506085166276e-8 1.4531981378247954e-8 1.4410253584139435e-8 1.1553115693215514e-8 1.833108086711647e-8
          1.5184365405235047e-8 2.1530219714868565e-8 1.7998720660919342e-8 2.2961355349422843e-8 1.9062904997519914e-8 9.182388072259615e-9
          7.0429316716823075e-9 1.2297052918972423e-8 9.587766577327598e-9 5.17763103641904e-9 3.6367590128898544e-9 7.144492203801114e-9
          5.0683687140732145e-9 1.4703120238259869e-8 1.1573905445305191e-8 1.561154036045014e-8 1.2324982413904619e-8 8.704229899009908e-9
          6.220293761204369e-9 9.299616261279602e-9 6.663922516343009e-9 2.5583549974683636e-9 1.9341306623620716e-9 1.9630785071503003e-9
          2.711354642707578e-9 3.107227060688771e-9 4.222553485659415e-9 1.3791984119728738e-9 1.377777052917226e-9 2.215229632987842e-9
          9.418735220403931e-10 1.524350464796186e-9 5.6010635768768265e-9 7.312696190802704e-9 7.835578149549387e-9 1.0058599930347421e-8
          1.0032991259095214e-8 1.2569807687805787e-8 1.1677701231470442e-8 1.4521822802265344e-8 1.2290350189854817e-8 1.537762859527398e-8
          6.045029859436084e-9 4.5282963316167516e-9 7.884368249137021e-9 5.9911631898936855e-9 3.26764632695063e-9 2.2647977382986137e-9
          4.369839468775107e-9 3.0488369592462136e-9 9.276906232161164e-9 7.115441546740295e-9 9.797786725148308e-9 7.539609493943276e-9
          5.228006369656825e-9 3.6667969565316485e-9 5.554137206376466e-9 3.903310606257975e-9 1.711688434837251e-9 1.287973905097629e-9
          3.1810664792601975e-9 2.297237787297916e-9 9.905519069972774e-10 6.596777589579749e-10 4.655838787037779e-10 1.8837056253895352e-9
          9.176306763374455e-10 6.246810433044396e-10 1.5628852514558138e-9 1.0136461901543367e-9 4.953090018918392e-9 4.712181439417351e-9
          8.620139927731955e-9 8.203180181440876e-9 4.059405821180864e-9 7.032503239057101e-9 1.2196835065972061e-8 1.1749604153197686e-8
          1.029273431204257e-8 5.40450040996439e-9 3.763611175375106e-9 7.964498765326441e-9 5.4563824644598555e-9 1.3858667875292676e-8
          1.3678825595112774e-8 1.252795687351858e-8 1.4036471504063749e-8 1.406587082382471e-8 1.322761347729312e-8 9.96289198758335e-9
          6.8384099815599395e-9 1.0693792167717645e-8 7.370162764757505e-9 2.439459322067711e-9 1.5095902794956727e-9 3.4175531555324253e-9
          2.033991645315975e-9 4.215760670253393e-9 2.453299324499322e-9 4.525146764382646e-9 2.614281744954468e-9
        </DataArray>
        <DataArray type="Float64" Name="gradient_matprop_error" format="ascii" RangeMin="0" RangeMax="0">
          0 0 0 0 0 0
          0 0 0 0 0 0
          0 0 0 0 0 0
          0 0 0 0 0 0
          0 0 0 0 0 0
          0 0 0 0 0 0
          0 0 0 0 0 0
          0 0 0 0 0 0
          0 0 0 0 0 0
          0 0 0 0 0 0
          0 0 0 0 0 0
          0 0 0 0 0 0
          0 0 0 0 0 0
          0 0 0 0 0 0
          0 0 0 0 0 0
          0 0 0 0 0 0
          0 0 0 0 0 0
          0 0 0 0 0 0
          0 0 0 0 0 0
          0 0 0 0 0 0
          0 0 0 0 0 0
          0 0 0 0 0 0
          0 0 0 0 0 0
          0 0 0 0 0 0
          0 0 0 0 0 0
          0 0 0 0 0 0
          0 0 0 0 0 0
          0 0 0 0 0 0
          0 0 0 0 0 0
          0 0 0 0 0 0
          0 0 0 0 0 0
          0 0 0 0 0 0
          0 0 0 0 0 0
          0 0 0 0 0 0
          0 0 0 0 0 0
          0 0 0 0 0 0
          0 0 0 0 0 0
          0 0 0 0 0 0
          0 0 0 0 0 0
          0 0 0 0 0 0
          0 0 0 0 0 0
          0 0 0 0 0 0
          0 0 0 0 0 0
          0 0 0 0 0 0
          0 0 0 0 0
        </DataArray>
        <DataArray type="Float64" Name="initial_marker" format="ascii" RangeMin="0" RangeMax="2">
          2 2 2 2 2 2
          2 2 2 2 2 2
          2 2 2 2 2 2
          2 2 2 2 2 2
          2 2 2 2 2 2
          2 2 2 2 2 2
          2 2 2 2 2 2
          2 2 2 2 2 2
          2 2 2 2 2 2
          2 2 2 2 2 2
          2 2 2 2 2 2
          2 2 2 2 2 2
          2 2 2 2 2 2
          2 2 2 2 2 2
          2 2 2 2 2 2
          2 2 2 2 2 2
          2 2 2 2 2 2
          2 2 2 2 2 2
          2 2 2 2 2 2
          2 2 2 2 2 2
          2 2 2 2 2 2
          2 2 2 2 2 2
          2 2 2 2 2 2
          2 2 2 2 2 2
          2 2 2 2 2 2
          2 2 2 2 2 2
          2 2 2 2 2 2
          2 2 2 2 2 2
          2 2 2 2 2 2
          2 2 2 2 2 2
          2 2 2 2 2 2
          2 2 2 2 2 1.5
          1.5 2 2 1.75 1.5 2
          1.25 2 2 2 2 2
          2 2 2 2 2 2
          2 2 2 2 2 2
          2 2 2 2 2 2
          2 2 2 2 2 2
          2 2 1.5 1 0 0.25
          1.5 0.75 2 1.75 2 2
          2 2 2 2 2 2
          2 2 2 2 2 2
          2 2 2 2 2 2
          2 2 2 2 2 2
          2 2 2 2 2
        </DataArray>
        <DataArray type="Float64" Name="markers_norefine" format="ascii" RangeMin="0" RangeMax="2">
          0 0 0 0 0 2
          0 0 0 0 0 0
          0 1 0.25 0 1 0
          0 0 0 0 0 0
          0 0 0 0 0 0
          0 0 0 0 0 0
          0 0 0 0 0 0
          0 0 0 0 0 0
          0 0 0 0 0 0
          0 0 0 0 0 0
          0 0 0 0 0 0
          0 0 0 1 1 0.75
          0.5 0 0 0 0 0
          0 0 2 2 2 1.75
          1.25 0.75 2 2 2 1.5
          0.25 0 0 0 0.5 0
          0 0 0 0 0 0
          0 0.5 0.25 0 0 0
          0 0 0 0 0 0
          0 0 0 0 0 0
          0 0 0 0 0 0
          0 0 0 0 0 1
          0.75 0 0 0.25 0 1
          1 0 0.5 0 0 0
          0 0 0 0 0 0
          0 0 0 0 0 0
          0 0 0 0 0 0
          0 0 0 0 0 0
          0 0 0 0 0 0
          0 0 0 0 0 0
          0 0 0 0 0 0
          0 0 0 0 0 0
          0 0 0 0 0 0
          0 0 0 0 0 0
          0 0 0 0 0 0
          0 0 0 0 0 0
          0 0 0 0 0 0
          0 0 0 0 0 0
          0 0 0 0 0 0
          0 0 0 0 0 0
          0 0 0 0 0 0
          0 0 0 0 0 0
          0 0 0 0 0 0
          0 0 0 0 0 0
          0 0 0 0 0
        </DataArray>
        <DataArray type="Float64" Name="markers_mustrefine" format="ascii" RangeMin="0" RangeMax="2">
          2 2 2 2 2 2
          2 2 2 2 2 2
          2 2 2 2 2 2
          2 2 2 2 2 2
          2 2 2 2 2 2
          2 2 2 2 2 2
          2 2 2 2 2 2
          2 2 2 2 2 2
          2 2 2 2 2 2
          2 2 2 2 2 2
          2 2 2 2 2 2
          2 2 2 2 2 2
          2 2 2 2 2 2
          2 2 2 2 2 2
          2 2 2 2 2 2
          2 2 2 2 2 2
          2 2 2 2 2 2
          2 2 2 2 2 2
          2 2 2 2 2 2
          2 2 2 2 2 2
          2 2 2 2 2 2
          2 2 2 2 2 2
          2 2 2 2 2 2
          2 2 2 2 2 2
          2 2 2 2 2 2
          2 2 2 2 2 2
          2 2 2 2 2 2
          2 2 2 2 2 2
          2 2 2 2 2 2
          2 2 2 2 2 2
          2 2 2 2 2 2
          2 2 2 2 2 1.5
          1.5 2 2 1.75 1.5 2
          1.25 2 2 2 2 2
          2 2 2 2 2 2
          2 2 2 2 2 2
          2 2 2 2 2 2
          2 2 2 2 2 2
          2 2 1.5 1 0 0.25
          1.5 0.75 2 1.75 2 2
          2 2 2 2 2 2
          2 2 2 2 2 2
          2 2 2 2 2 2
          2 2 2 2 2 2
          2 2 2 2 2
        </DataArray>
        <DataArray type="Float64" Name="gradient_marker" format="ascii" RangeMin="1" RangeMax="1">
          1 1 1 1 1 1
          1 1 1 1 1 1
          1 1 1 1 1 1
          1 1 1 1 1 1
          1 1 1 1 1 1
          1 1 1 1 1 1
          1 1 1 1 1 1
          1 1 1 1 1 1
          1 1 1 1 1 1
          1 1 1 1 1 1
          1 1 1 1 1 1
          1 1 1 1 1 1
          1 1 1 1 1 1
          1 1 1 1 1 1
          1 1 1 1 1 1
          1 1 1 1 1 1
          1 1 1 1 1 1
          1 1 1 1 1 1
          1 1 1 1 1 1
          1 1 1 1 1 1
          1 1 1 1 1 1
          1 1 1 1 1 1
          1 1 1 1 1 1
          1 1 1 1 1 1
          1 1 1 1 1 1
          1 1 1 1 1 1
          1 1 1 1 1 1
          1 1 1 1 1 1
          1 1 1 1 1 1
          1 1 1 1 1 1
          1 1 1 1 1 1
          1 1 1 1 1 1
          1 1 1 1 1 1
          1 1 1 1 1 1
          1 1 1 1 1 1
          1 1 1 1 1 1
          1 1 1 1 1 1
          1 1 1 1 1 1
          1 1 1 1 1 1
          1 1 1 1 1 1
          1 1 1 1 1 1
          1 1 1 1 1 1
          1 1 1 1 1 1
          1 1 1 1 1 1
          1 1 1 1 1
        </DataArray>
        <DataArray type="Float64" Name="gradient_matprop_marker" format="ascii" RangeMin="0" RangeMax="0">
          0 0 0 0 0 0
          0 0 0 0 0 0
          0 0 0 0 0 0
          0 0 0 0 0 0
          0 0 0 0 0 0
          0 0 0 0 0 0
          0 0 0 0 0 0
          0 0 0 0 0 0
          0 0 0 0 0 0
          0 0 0 0 0 0
          0 0 0 0 0 0
          0 0 0 0 0 0
          0 0 0 0 0 0
          0 0 0 0 0 0
          0 0 0 0 0 0
          0 0 0 0 0 0
          0 0 0 0 0 0
          0 0 0 0 0 0
          0 0 0 0 0 0
          0 0 0 0 0 0
          0 0 0 0 0 0
          0 0 0 0 0 0
          0 0 0 0 0 0
          0 0 0 0 0 0
          0 0 0 0 0 0
          0 0 0 0 0 0
          0 0 0 0 0 0
          0 0 0 0 0 0
          0 0 0 0 0 0
          0 0 0 0 0 0
          0 0 0 0 0 0
          0 0 0 0 0 0
          0 0 0 0 0 0
          0 0 0 0 0 0
          0 0 0 0 0 0
          0 0 0 0 0 0
          0 0 0 0 0 0
          0 0 0 0 0 0
          0 0 0 0 0 0
          0 0 0 0 0 0
          0 0 0 0 0 0
          0 0 0 0 0 0
          0 0 0 0 0 0
          0 0 0 0 0 0
          0 0 0 0 0
        </DataArray>
        <DataArray type="Float64" Name="combo" format="ascii" RangeMin="1" RangeMax="2">
          1 1 1 1 1 2
          1 1 1 1 1 1
          1 1.5 1.125 1 1.5 1
          1 1 1 1 1 1
          1 1 1 1 1 1
          1 1 1 1 1 1
          1 1 1 1 1 1
          1 1 1 1 1 1
          1 1 1 1 1 1
          1 1 1 1 1 1
          1 1 1 1 1 1
          1 1 1 1.5 1.5 1.375
          1.25 1 1 1 1 1
          1 1 2 2 2 1.875
          1.625 1.375 2 2 2 1.75
          1.125 1 1 1 1.25 1
          1 1 1 1 1 1
          1 1.25 1.125 1 1 1
          1 1 1 1 1 1
          1 1 1 1 1 1
          1 1 1 1 1 1
          1 1 1 1 1 1.5
          1.375 1 1 1.125 1 1.5
          1.5 1 1.25 1 1 1
          1 1 1 1 1 1
          1 1 1 1 1 1
          1 1 1 1 1 1
          1 1 1 1 1 1
          1 1 1 1 1 1
          1 1 1 1 1 1
          1 1 1 1 1 1
          1 1 1 1 1 1
          1 1 1 1 1 1
          1 1 1 1 1 1
          1 1 1 1 1 1
          1 1 1 1 1 1
          1 1 1 1 1 1
          1 1 1 1 1 1
          1 1 1 1 1 1
          1 1 1 1 1 1
          1 1 1 1 1 1
          1 1 1 1 1 1
          1 1 1 1 1 1
          1 1 1 1 1 1
          1 1 1 1 1
        </DataArray>
        <DataArray type="Float64" Name="dHdT" format="ascii" RangeMin="25.960965124710064" RangeMax="60.778243462498196">
          36.420778010689 33.48578909608932 29.42973935145627 27.786101853713156 26.71285926752454 60.778243462498196
          36.04371190076536 28.88746094048551 32.279538860854494 30.174195839568682 29.22623317947232 27.399387976183377
          27.693216159485303 46.69409032506323 40.48680976888238 34.19013365517342 50.465373043947245 37.4284522861995
          35.33160825569258 32.76274337431877 30.828974287434743 30.570198818916197 27.969190699989884 43.3744020451344
          38.114989999382175 33.74998372054772 32.63962368680959 34.970756394852955 34.68927216567633 33.18893486705689
          33.85742036316756 32.47764185258147 30.877534827414284 30.77071964802744 31.880294314004495 31.55073622601698
          29.904508801135574 30.649622658724432 28.765548747111268 28.59566534495332 27.67855975318262 28.16300647385596
          27.79543104602236 27.240152631347847 27.34995281861068 26.917262691592917 29.486627505612446 28.418824741337644
          28.432880430592398 26.81580743725612 26.587788562940702 27.63058561186864 27.047846380302765 27.13314326814288
          29.24736979623505 28.308493519613943 26.959966959500647 26.63353045711873 27.63244696667853 27.121600019686138
          26.386825683599625 26.731891414796316 26.438852387083507 41.18033023025888 40.095165741768085 38.021464906346395
          37.30486429513218 37.80146348008387 35.81246329318862 51.47615131607616 49.41934388445449 44.7758082393721
          44.38808932450537 35.68270782910493 34.0395163634234 33.55804151347135 31.79004526966904 39.09853874833202
          36.86862953395276 35.80396701440832 54.66354489950651 55.07462411100817 56.9650619132196 54.325690787096015
          51.79968703793601 47.09265911326673 52.062991245567936 54.98742415133589 58.222304047805764 54.55928941853109
          43.33374126007047 39.60934192864959 37.35553543586333 35.619070865788984 45.48176842999942 41.115879585219616
          38.11073485294899 35.52145952440241 35.17849687992012 33.8687814081239 33.45190399041464 34.099486932117486
          32.238999250472695 41.102838680936244 39.91786838607646 36.7942559279795 37.442391107826154 31.796065960627107
          31.385940638955045 29.74990393527578 29.459236335623462 30.315884775321166 28.75318776369292 35.28483404222257
          34.76876646312263 32.21850088035458 33.237524147050394 32.282348462843835 30.520862247865843 30.20561059792456
          28.919575589624777 35.046506842359406 33.15804773531397 32.38426758367869 29.034248826980285 27.951739097445554
          27.96327138667554 27.26896887471387 31.0446080990989 29.230100986064876 29.056857890387363 50.867945208163775
          47.498162654582615 41.136697647557014 39.72412566597442 41.136814000159795 37.32695068752589 56.48012506529405
          51.89661582273832 41.39390343355253 43.28147458687948 37.10690878957169 36.78520216189045 35.445018680566385
          34.771560090975115 35.46302382802783 32.895593099803186 37.448561613524404 37.26821895902482 35.73627353782939
          36.17678256441184 36.92714046536901 35.062600877053235 34.025575560094985 32.05833935500909 37.72044548520953
          35.66777022441565 34.5804839570226 32.89006537592903 30.51858837487091 30.107853338215097 28.615441796148836
          33.60810958425381 31.082257240492517 30.558249522116867 31.128957138150287 29.655582172088998 33.132679320746945
          31.298401624352245 34.43786120820569 32.63967511408529 34.843548559039874 33.12958215453805 28.59114893141755
          27.804297290492517 29.780556708797896 28.61957824252812 27.210512710513854 26.765547035591425 27.76802043788536
          27.141269697310104 30.858483072161164 29.34724033181235 31.300898260881844 29.6492303129789 28.248981082978137
          27.459628622215345 28.443504430151727 27.586539104444284 26.495866382715263 26.340498912216837 26.406144852459235
          26.64644955539369 26.702568398437222 27.055558775903247 26.20314625829915 26.226446573562065 26.435295833314658
          26.093837849539263 26.235874083305 27.523411320074437 28.16092334716082 28.24542053083634 29.1667074877453
          29.0442805579379 30.286250894071507 29.715700690888035 31.205985674966207 29.985518857011016 31.570272795193702
          27.585213845854007 27.086824179164733 28.162473027010492 27.50161809596436 26.70733668510294 26.422416656977266
          26.999944526413906 26.622981481804054 28.63640614308146 27.837271792315676 28.82379934583915 27.968594467494114
          27.23422395185611 26.782871344409607 27.32495098748884 26.84440461208501 26.261520361385056 26.15975936354028
          26.62485309355293 26.405607896927016 26.109860558980316 26.00843233655514 25.960965124710064 25.997663543179478
          26.069504878201002 25.997982340002594 26.22455063369155 26.090509777592672 27.09914967390358 27.030647603844706
          28.267817225080744 28.103793120371346 26.852106429656217 27.69244077173733 30.124968208191603 29.767779371408484
          28.913224047684523 27.202920789802896 26.7686961362227 27.97539671449406 27.215578993019612 32.17798230491201
          31.58499403599678 30.186983250795564 33.12160141395523 32.4198433557524 30.762600340273945 28.72180415752265
          27.615607104738185 29.04426179612684 27.780163724119564 26.440297460591392 26.21429127955286 26.68680722479496
          26.347438293763666 26.893385736746716 26.453068137025376 26.97522809755005 26.4938222457389
        </DataArray>
        <DataArray type="Float64" Name="dk/dtemperature" format="ascii" RangeMin="0.007148569950363473" RangeMax="0.04518839826576035">
          0.007148569950363473 0.009098529990875615 0.011974137001533408 0.01348455898850531 0.014681933294147376 0.04160918568063624
          0.0077953899696761725 0.012376755555005722 0.009995611000616779 0.011563835052015557 0.012178181012843807 0.013858247958888436
          0.013533177524419085 0.01473685365952251 0.00798312906607583 0.008730681210995267 0.028891621106343416 0.007663076746835201
          0.008072313300691579 0.009754954462407608 0.01102132499212995 0.011202541286523038 0.013274531501126854 0.009051866545661265
          0.007660201044327727 0.009128215898184897 0.009817853685270765 0.00839957854830799 0.008522623251889256 0.009300375528977679
          0.008945675502457295 0.009880047851892577 0.010993208870347555 0.011051014781058886 0.010395655818043725 0.010597503098817535
          0.011721023970081288 0.01117769343467392 0.012582818626617863 0.012698114871922985 0.013573120910351547 0.013046958224796283
          0.013410583996092618 0.014048772111483355 0.013910833456104915 0.014436872886601566 0.011951491197411589 0.012824354071967678
          0.012792969369054923 0.014558017162549307 0.014848998181313688 0.013582742110331638 0.01426735403932089 0.014164636156490168
          0.012096162418961103 0.012901156183719058 0.014400579414947962 0.01480157135700378 0.013604820963263896 0.014210553373660239
          0.015150165654223469 0.014681241390874952 0.01505669581214851 0.008067033537661215 0.008055606935309306 0.007861875368538444
          0.007830563639089662 0.007926633914330534 0.008001248071666179 0.02102835507791683 0.0198198461125415 0.011513187779714273
          0.013527879359074336 0.00798996453701032 0.008867009943286482 0.009140780061673182 0.010351562709500963 0.007828113000020592
          0.0076406244668899 0.007784052326258076 0.020525850946908408 0.025164639708912348 0.031380249192497316 0.03011915128810094
          0.02373796735061165 0.018768943205340196 0.008009750000000003 0.019605108920159063 0.04518839826576035 0.02874403514003855
          0.012879217621018416 0.007875114963415359 0.007610683455423331 0.007890916101479614 0.017426838533473932 0.008183488840589757
          0.00770685768212005 0.008146054804875303 0.008165352996721376 0.009009456799694966 0.009224373482411617 0.008743055794884783
          0.010048809887381995 0.008206519274947166 0.007967686850854363 0.00767097674808236 0.0075799389413573216 0.010402827526588053
          0.010674618863544247 0.011818585103147657 0.011997660553086677 0.01137652212356219 0.012515956458894662 0.00801003709405935
          0.008355830993541277 0.01011983962548098 0.009419192080607415 0.010036819237335253 0.011250345512617908 0.011440303025220339
          0.012391538821940893 0.008149149695153925 0.00943774874299802 0.00993697315843899 0.012301278592062335 0.013267235066617634
          0.013243079655355977 0.014016945409463898 0.01089363823673079 0.012154280059505574 0.01229454826023056 0.025479011602152803
          0.021502001869777725 0.008411220414413995 0.008137635713171557 0.012577515787259148 0.00749204950306561 0.041784739348644136
          0.03405637959209272 0.008689142271004811 0.01735507326336045 0.007179163709229114 0.007249920348732821 0.007885470290738793
          0.008390729145289311 0.007925969229376143 0.009700042502696009 0.007491250771106661 0.007314804018260102 0.007658400216788173
          0.007480791728758582 0.007568390374564507 0.008144951407348713 0.008819296641185203 0.010219347358800254 0.007799399549394832
          0.00782415296264379 0.008498204256299961 0.009621464728897825 0.011233173194087207 0.011525846581299034 0.012631817109852976
          0.009074468439667426 0.010876719442532264 0.01121335736603753 0.010839858482374051 0.011796003359032536 0.00949769117103013
          0.01071242171621972 0.00852960837999816 0.009836535073626248 0.008231540632494348 0.009491905418290845 0.012652888709513215
          0.013422721207972438 0.011726498530302491 0.012631879161638337 0.01407210812185335 0.014627147135030763 0.013462161391524957
          0.01418690455882703 0.011020444699162125 0.012034456378608109 0.01075154677589063 0.011804871141269886 0.012994875929959746
          0.013807171220299671 0.012820829958283802 0.013666334060163786 0.014991593155730875 0.015210424139222 0.015118841306071834
          0.01480157135700378 0.014749489062167248 0.014273015066095284 0.015461207625327565 0.015409000378408172 0.015080660825493433
          0.01565840005796889 0.015381261347213654 0.013716843847562991 0.013049910296217838 0.012949209465467529 0.012148619570046225
          0.012226428086557505 0.011342872698742606 0.011717692177456364 0.010762932267051944 0.01154698161857181 0.01053718256203362
          0.013647089114667232 0.014249299956916078 0.013031106501315864 0.013740307355552225 0.014723070088707959 0.015092297380529685
          0.014351137235581894 0.014820064044466796 0.012585836143873291 0.01336510623249288 0.012432988420964701 0.013222886962836397
          0.01407626039000003 0.014622932815098712 0.013978197129183807 0.014560912273258248 0.015370819897829773 0.01553429777101472
          0.014828052382248437 0.015115067288222239 0.01563751715920113 0.015783697450575437 0.015804580349343195 0.015783697450575434
          0.015689724406120528 0.015783697450575434 0.015423027144749166 0.015679282956736647 0.014220240867986322 0.014293205213078489
          0.012959967113363124 0.013113003537164193 0.014521221337027882 0.013522421573547737 0.011489615472627874 0.011741909103188336
          0.01238820510617375 0.01410230196167436 0.014645639822493775 0.013238297535722239 0.01409374752121528 0.010207081800789063
          0.01055869500109137 0.011435271538735935 0.00968639421277007 0.010080779078052738 0.01105170807015849 0.012514192705028473
          0.013593371412095871 0.01224617793145824 0.013407939638061528 0.015076383605263897 0.015441519832212182 0.014733387434521104
          0.015180294896722735 0.014453855118412618 0.015016125120265365 0.0143433996504781 0.014958948749844006
        </DataArray>
        <DataArray type="Float64" Name="dmolar_volume/dtemperature" format="ascii" RangeMin="3.0272655177546707e-10" RangeMax="1.5679544003721489e-9">
          3.5302162965110014e-10 3.41410191333375e-10 3.2454656376722604e-10 3.159228751726883e-10 3.090857122207361e-10 1.5679544003721489e-9
          3.573113393916627e-10 3.2218766529456857e-10 3.3591270533246466e-10 3.2704360072277724e-10 3.2340168079041386e-10 3.138219654821902e-10
          3.156774845040155e-10 6.324490105284871e-10 3.9309127544651274e-10 3.44561409436843e-10 9.511384350271343e-10 3.6662053156292903e-10
          3.515119319627856e-10 3.37371992234305e-10 3.3016360008759546e-10 3.2904399649244847e-10 3.171241913463623e-10 4.052425651528306e-10