<?xml version="1.0"?>
<VTKFile type="UnstructuredGrid" version="0.1" byte_order="LittleEndian" header_type="UInt32" compressor="vtkZLibDataCompressor">
  <UnstructuredGrid>
    <Piece NumberOfPoints="294" NumberOfCells="162">
      <PointData>
        <DataArray type="Int32" Name="libmesh_node_id" format="ascii" RangeMin="314" RangeMax="1996">
          314 457 458 465 466 467
          848 849 854 856 857 858
          859 870 871 873 875 877
          881 882 885 891 894 895
          896 897 898 899 900 901
          902 903 904 905 906 907
          908 909 910 911 912 913
          914 915 918 919 921 925
          976 977 980 982 983 985
          1465 1467 1468 1469 1470 1471
          1472 1473 1474 1475 1476 1477
          1478 1479 1480 1481 1482 1483
          1484 1485 1486 1487 1488 1491
          1492 1494 1497 1499 1500 1501
          1502 1503 1504 1505 1506 1507
          1508 1509 1510 1512 1514 1515
          1516 1517 1518 1519 1520 1523
          1524 1526 1529 1531 1532 1533
          1534 1535 1536 1537 1538 1539
          1540 1542 1544 1546 1548 1549
          1550 1551 1552 1553 1554 1555
          1556 1557 1558 1559 1560 1561
          1562 1563 1564 1565 1566 1567
          1568 1569 1570 1571 1572 1573
          1574 1575 1576 1577 1578 1579
          1580 1581 1582 1583 1584 1585
          1586 1587 1588 1589 1590 1591
          1592 1593 1594 1595 1596 1597
          1598 1599 1600 1601 1602 1603
          1604 1605 1606 1607 1608 1609
          1610 1611 1612 1613 1614 1615
          1616 1617 1618 1619 1620 1621
          1622 1659 1660 1662 1833 1834
          1835 1836 1837 1838 1839 1840
          1841 1842 1853 1854 1855 1856
          1857 1865 1866 1867 1868 1869
          1870 1871 1872 1873 1874 1885
          1886 1887 1888 1889 1890 1891
          1967 1969 1987 1989 851 852
          855 862 863 865 866 460
          872 868 869 461 887 892
          922 926 939 941 963 996
          1000 938 1661 1669 1670 1843
          1844 1672 1847 1849 1850 1852
          1680 1675 1858 1682 1860 1862
          1864 1875 1876 1879 1881 1882
          1884 1892 1894 1896 1898 1776
          1768 1970 1778 1972 1968 1974
          1976 1990 1992 1988 1994 1996
        </DataArray>
        <DataArray type="Float64" Name="bounds" format="ascii" RangeMin="0" RangeMax="0">
          0 0 0 0 0 0
          0 0 0 0 0 0
          0 0 0 0 0 0
          0 0 0 0 0 0
          0 0 0 0 0 0
          0 0 0 0 0 0
          0 0 0 0 0 0
          0 0 0 0 0 0
          0 0 0 0 0 0
          0 0 0 0 0 0
          0 0 0 0 0 0
          0 0 0 0 0 0
          0 0 0 0 0 0
          0 0 0 0 0 0
          0 0 0 0 0 0
          0 0 0 0 0 0
          0 0 0 0 0 0
          0 0 0 0 0 0
          0 0 0 0 0 0
          0 0 0 0 0 0
          0 0 0 0 0 0
          0 0 0 0 0 0
          0 0 0 0 0 0
          0 0 0 0 0 0
          0 0 0 0 0 0
          0 0 0 0 0 0
          0 0 0 0 0 0
          0 0 0 0 0 0
          0 0 0 0 0 0
          0 0 0 0 0 0
          0 0 0 0 0 0
          0 0 0 0 0 0
          0 0 0 0 0 0
          0 0 0 0 0 0
          0 0 0 0 0 0
          0 0 0 0 0 0
          0 0 0 0 0 0
          0 0 0 0 0 0
          0 0 0 0 0 0
          0 0 0 0 0 0
          0 0 0 0 0 0
          0 0 0 0 0 0
          0 0 0 0 0 0
          0 0 0 0 0 0
          0 0 0 0 0 0
          0 0 0 0 0 0
          0 0 0 0 0 0
          0 0 0 0 0 0
          0 0 0 0 0 0
        </DataArray>
        <DataArray type="Float64" Name="gradient_error" format="ascii" RangeMin="7.312696190802704e-9" RangeMax="1.7315680940809189e-7">
          1.814354924672647e-8 9.9294251317264e-8 1.0936849239562801e-7 1.4759938209573614e-8 1.2565723917446175e-7 1.3023220829032222e-7
          1.1858996198007859e-7 1.1135562214269394e-7 9.187640639992524e-8 9.267715045543943e-8 1.072191615246707e-7 9.192511788419967e-8
          1.268502687680554e-7 1.000749359935263e-7 9.121370461906058e-8 1.0550146410940773e-7 6.719002143443129e-8 6.188181726714341e-8
          1.0909559166420796e-7 1.0856303071285887e-7 5.401959541785979e-8 1.0157117881790482e-7 2.0471417988237928e-8 4.411467936536272e-8
          2.634917856924647e-8 2.9593885985572207e-8 1.230010985354808e-7 1.1327017132261196e-7 1.2474411853494938e-8 1.8547203642969068e-8
          2.4962352358865415e-8 1.1191267557909817e-7 3.2305616070444866e-8 3.531898228634538e-8 3.653036927835153e-8 6.470332850686599e-8
          1.1714555307355264e-7 1.3776936285601132e-7 1.5753146820321402e-8 3.087640987317812e-8 3.4918845865446004e-8 1.3331644958776917e-7
          1.4689562259881153e-7 1.5461986029161363e-7 1.6113206045862802e-7 1.7315680940809189e-7 1.5180498949553732e-7 1.729930016553537e-7
          3.820678730138748e-8 6.514936652978777e-8 9.270224630410463e-8 2.3010630339792605e-8 3.71738607220414e-8 7.888997515544409e-8
          2.7442283552047658e-8 3.034788683263987e-8 2.9850607675219306e-8 3.2218364204094674e-8 2.8383551082248154e-8 2.4953411800107276e-8
          2.5808100457293776e-8 2.732310411976228e-8 2.4202427267889986e-8 3.5081060540377177e-8 3.429269435514791e-8 3.586640060216498e-8
          3.201319826942441e-8 3.762569232670772e-8 3.6890463478618594e-8 3.6938310071648e-8 3.409057380104431e-8 2.8378050822914174e-8
          2.8967600385773033e-8 2.6234033276898153e-8 2.9183753081059305e-8 2.920498791135661e-8 2.6341593190559462e-8 2.5549343594517112e-8
          2.5879235281675528e-8 2.6726873110948827e-8 2.141425905286172e-8 2.8166619693201405e-8 2.83936635290664e-8 3.088649583428913e-8
          3.102868449629626e-8 2.8703839515781786e-8 3.1022465948016954e-8 2.3351927217669272e-8 2.4261896318625276e-8 2.731365731117291e-8
          2.6698397303380126e-8 2.6508064335881474e-8 2.525376327658437e-8 2.666022071698367e-8 2.7514635861083048e-8 2.941691141929352e-8
          2.6242300055533903e-8 2.7959764100856522e-8 2.8886942333395173e-8 3.1462340934944184e-8 2.9548955479611367e-8 1.5093791428417124e-8
          1.664785784037406e-8 2.0090680672082218e-8 1.4783384586328079e-8 1.7244914765917048e-8 1.926766682733836e-8 1.9274073277753675e-8
          2.1849194043449225e-8 2.3037158454762077e-8 2.6235836128400277e-8 1.37713276502585e-8 1.694826040033966e-8 1.8910078253050465e-8
          2.170165025207932e-8 2.4941577075241745e-8 2.7903717058650052e-8 2.3924181510835824e-8 2.761683971312027e-8 3.058479419545272e-8
          3.0449781405476066e-8 3.312223094324966e-8 2.6680966024322513e-8 2.9755625239841837e-8 3.0083824694907216e-8 3.353269869578734e-8
          3.3574558814751456e-8 3.5879736614503725e-8 3.580808431822237e-8 3.322697397627902e-8 3.5073671160784785e-8 2.939002909598371e-8
          3.0390712651526875e-8 3.328864063663143e-8 3.2586813904356526e-8 3.762053567479624e-8 3.743883282701909e-8 3.852933029204523e-8
          3.818920682448104e-8 3.625985129131438e-8 3.704666994055331e-8 3.47714679344508e-8 3.572528044784226e-8 3.754134193175326e-8
          3.746957459428812e-8 3.0984626828495554e-8 3.210550102168232e-8 2.9131724638148637e-8 2.9800091743736086e-8 3.396295120505207e-8
          3.6150988703996154e-8 3.414367080846113e-8 3.258859157127577e-8 3.262281930387558e-8 2.991461053916472e-8 2.9803795499924944e-8
          3.7690159818003775e-8 3.91915063186762e-8 3.712026340866504e-8 2.115357742521008e-8 2.4314857709464937e-8 2.2648739813580026e-8
          2.6499771605287675e-8 2.9406430523171488e-8 3.2304739471420174e-8 1.5511433509650246e-8 2.070471339023114e-8 2.217202997159224e-8
          2.807998292076355e-8 2.4058228644158567e-8 2.850984274008972e-8 2.5893438307437887e-8 3.048998526152926e-8 3.483450066336172e-8
          3.6953160883659464e-8 1.6188900442300294e-8 2.3556326759914498e-8 2.5337390236866063e-8 3.315898091973167e-8 3.363262891204399e-8
          3.650040852191662e-8 3.592853477146482e-8 3.874214149798821e-8 3.293055824806078e-8 3.594224129343255e-8 3.55991439254065e-8
          3.897739856335536e-8 4.0618003337774046e-8 4.124725263600812e-8 4.24162171238498e-8 3.856790755219539e-8 4.046907254573106e-8
          4.174160634245614e-8 3.620534701962025e-8 3.540811166391788e-8 3.461087630821551e-8 3.8621412386085344e-8 3.7910156908442575e-8
          3.7582719588348595e-8 3.66346566559135e-8 3.7198901430799805e-8 3.4169520912747127e-8 3.76705199829274e-8 3.854941517686855e-8
          3.8879668899496317e-8 4.011217742471896e-8 2.8023834072457888e-8 2.1495545340679388e-8 4.058179816858583e-8 3.697213071539076e-8
          3.9683684804634175e-8 2.760354078957125e-8 3.1879113900764797e-8 2.8735130034105534e-8 3.2478313465591656e-8 3.8292740738675074e-8
          3.884092095265657e-8 2.0903519365838144e-8 2.7071599600759773e-8 2.8058260469390526e-8 3.6310678616963754e-8 4.094765333895936e-8
          4.020718509834461e-8 4.146451221252693e-8 3.465431936927562e-8 4.13135085093329e-8 4.104448439499763e-8 4.3245339620419685e-8
          1.6026920057498743e-8 1.999733302276137e-8 2.3379995202821447e-8 2.5102584171671512e-8 1.1951452835267043e-7 1.1114415628003665e-7
          8.894164832507209e-8 1.1341839840716604e-7 1.0433088568181855e-7 1.0000143754333726e-7 9.099739116499284e-8 9.28842843207012e-8
          1.1025250468315653e-7 8.111642764795786e-8 6.912928938510647e-8 1.2172761451571005e-7 4.468797664067725e-8 8.896090697245247e-8
          1.3761587749567316e-7 1.589362730514375e-7 7.63544664932426e-8 7.843524012919531e-8 4.493927342682092e-8 7.101943697284434e-8
          8.30043339434336e-8 5.540580170368674e-8 2.736308260654197e-8 2.3413019493693145e-8 2.2612356689189746e-8 3.516794788618974e-8
          3.418904697296176e-8 2.0481463636912457e-8 3.1125444296023806e-8 3.7782647882055184e-8 3.840423319032711e-8 3.8189555856843654e-8
          1.7252245336199265e-8 1.8844316679440813e-8 2.5952530784466008e-8 1.3516928591409033e-8 1.9729294446360276e-8 3.3820434518300725e-8
          2.5723245946882197e-8 2.9284531190625536e-8 3.275191436476178e-8 3.871975202762417e-8 2.3707138948067884e-8 2.837922370040321e-8
          3.73568345479449e-8 3.848589463680628e-8 3.0340290804189087e-8 3.9669412610456336e-8 3.214983707479445e-8 1.0203589902233272e-8
          1.141121345083188e-8 1.4410253584139435e-8 7.312696190802704e-9 1.0058599930347421e-8 1.1313634878858536e-8 1.833108086711647e-8
          1.2569807687805787e-8 2.1530219714868565e-8 1.4521822802265344e-8 1.610743113968829e-8 2.2961355349422843e-8 1.537762859527398e-8
        </DataArray>
        <DataArray type="Float64" Name="gradient_matprop_error" format="ascii" RangeMin="0" RangeMax="0">
          0 0 0 0 0 0
          0 0 0 0 0 0
          0 0 0 0 0 0
          0 0 0 0 0 0
          0 0 0 0 0 0
          0 0 0 0 0 0
          0 0 0 0 0 0
          0 0 0 0 0 0
          0 0 0 0 0 0
          0 0 0 0 0 0
          0 0 0 0 0 0
          0 0 0 0 0 0
          0 0 0 0 0 0
          0 0 0 0 0 0
          0 0 0 0 0 0
          0 0 0 0 0 0
          0 0 0 0 0 0
          0 0 0 0 0 0
          0 0 0 0 0 0
          0 0 0 0 0 0
          0 0 0 0 0 0
          0 0 0 0 0 0
          0 0 0 0 0 0
          0 0 0 0 0 0
          0 0 0 0 0 0
          0 0 0 0 0 0
          0 0 0 0 0 0
          0 0 0 0 0 0
          0 0 0 0 0 0
          0 0 0 0 0 0
          0 0 0 0 0 0
          0 0 0 0 0 0
          0 0 0 0 0 0
          0 0 0 0 0 0
          0 0 0 0 0 0
          0 0 0 0 0 0
          0 0 0 0 0 0
          0 0 0 0 0 0
          0 0 0 0 0 0
          0 0 0 0 0 0
          0 0 0 0 0 0
          0 0 0 0 0 0
          0 0 0 0 0 0
          0 0 0 0 0 0
          0 0 0 0 0 0
          0 0 0 0 0 0
          0 0 0 0 0 0
          0 0 0 0 0 0
          0 0 0 0 0 0
        </DataArray>
        <DataArray type="Float64" Name="initial_marker" format="ascii" RangeMin="1" RangeMax="2">
          2 2 2 2 2 2
          2 2 1.5 2 2 2
          2 2 2 2 1 1
          2 2 1 2 2 2
          2 2 2 2 2 2
          2 2 2 2 2 2
          2 2 2 2 2 2
          2 2 2 2 2 2
          2 2 2 2 2 2
          2 2 2 2 2 2
          2 2 2 2 2 2
          2 2 2 2 2 2
          2 2 2 2 2 2
          2 2 2 2 2 2
          2 2 2 2 2 2
          2 2 2 2 2 2
          2 2 2 2 2 2
          2 2 2 2 2 2
          2 2 2 2 2 2
          2 2 2 2 2 2
          2 2 2 2 2 2
          2 2 2 2 2 2
          2 2 2 2 2 2
          2 2 2 2 2 2
          2 2 2 2 2 2
          2 2 2 2 2 2
          2 2 2 2 2 2
          2 2 2 2 2 2
          2 2 2 2 2 2
          2 2 2 2 2 2
          2 2 2 2 2 2
          2 2 2 2 2 2
          2 2 2 2 2 2
          2 2 2 2 2 2
          2 2 2 2 2 2
          2 2 2 2 2 2
          2 2 2 2 2 2
          2 2 2 2 2 2
          2 2 2 2 2 2
          1.5 2 2 2 2 2
          2 1.5 1.5 2 1 2
          2 2 2 2 2 2
          2 2 2 2 2 2
          2 2 2 2 2 2
          2 2 2 2 2 2
          2 2 2 2 2 2
          2 2 2 2 2 2
          2 2 2 2 2 2
          2 2 2 2 2 2
        </DataArray>
        <DataArray type="Float64" Name="markers_norefine" format="ascii" RangeMin="0" RangeMax="2">
          2 0 0 2 1 1
          0 0 0 0 0 0
          0 0 0 0 0 0
          0 0 0 0 2 1.75
          2 2 0 0.5 2 2
          2 1 2 2 2 1.5
          0.25 0 2 2 2 1
          0 0 0 0 0 0
          1.5 1 0 2 2 0
          0 0 0 0 0 0
          0 0 0 0 0 0
          0 0 0 0 0 0
          0 0 0 0 0 1
          1 1 2 1 1 1
          1 1 1 2 2 2
          2 0.5 0 1 0.5 0.5
          0 0 1.25 1.5 0.5 2
          2 2 2 2 2 2
          2 2 2 2 2 2
          2 1.5 1 2 1.75 2
          1.5 2 2 2 2 1
          1 1 1 1 1 2
          2 2 2 1 1 1
          1 0.75 0.6666666666666666 2 2 2
          1.75 0.5 0.5 0 0 1.5
          1.25 1 0.25 0 0 0
          0.75 0.6666666666666666 0 2 2 2
          2 2 2 2 2 2
          2 2 2 2 2 2
          2 2 2 2 2 2
          1.75 2 1.5 2 2 2
          1.5 1.5 1 1 2 2
          2 0 0 0 1 1
          0.5 0.5 1 0.3333333333333333 2 2
          1.5 2 0 0 1 0.3333333333333333
          0 2 2 2 2 2
          1.75 2 2 2 2 1.25
          0.75 0.5 0 1.5 1 1
          0 0 0 0 0 0
          0 0 0 0 0 0
          0 0 0 0 0 0
          0 0 0 0 0 0
          0 0 0 0 0 0
          0 0 0 1 1 0.5
          0 0 0 0 0 0
          0 2 2 1.25 2 2
          1.5 0.25 0 0.5 0 0
          0 0 0 0 0 0
          0 0 0 0 0 0
        </DataArray>
        <DataArray type="Float64" Name="markers_mustrefine" format="ascii" RangeMin="1" RangeMax="2">
          2 2 2 2 2 2
          2 2 1.5 2 2 2
          2 2 2 2 1 1
          2 2 1 2 2 2
          2 2 2 2 2 2
          2 2 2 2 2 2
          2 2 2 2 2 2
          2 2 2 2 2 2
          2 2 2 2 2 2
          2 2 2 2 2 2
          2 2 2 2 2 2
          2 2 2 2 2 2
          2 2 2 2 2 2
          2 2 2 2 2 2
          2 2 2 2 2 2
          2 2 2 2 2 2
          2 2 2 2 2 2
          2 2 2 2 2 2
          2 2 2 2 2 2
          2 2 2 2 2 2
          2 2 2 2 2 2
          2 2 2 2 2 2
          2 2 2 2 2 2
          2 2 2 2 2 2
          2 2 2 2 2 2
          2 2 2 2 2 2
          2 2 2 2 2 2
          2 2 2 2 2 2
          2 2 2 2 2 2
          2 2 2 2 2 2
          2 2 2 2 2 2
          2 2 2 2 2 2
          2 2 2 2 2 2
          2 2 2 2 2 2
          2 2 2 2 2 2
          2 2 2 2 2 2
          2 2 2 2 2 2
          2 2 2 2 2 2
          2 2 2 2 2 2
          1.5 2 2 2 2 2
          2 1.5 1.5 2 1 2
          2 2 2 2 2 2
          2 2 2 2 2 2
          2 2 2 2 2 2
          2 2 2 2 2 2
          2 2 2 2 2 2
          2 2 2 2 2 2
          2 2 2 2 2 2
          2 2 2 2 2 2
        </DataArray>
        <DataArray type="Float64" Name="gradient_marker" format="ascii" RangeMin="0" RangeMax="1">
          0 0.5 0.75 0 0.5 0.5
          1 0.875 0.625 0.5 0.625 0.5
          0.875 0.5 0.5 0.75 0.25 0.25
          0.75 0.75 0.25 0.75 0 0.125
          0 0 0.625 0.5 0 0
          0 0.5 0 0 0 0.125
          0.5 0.625 0 0 0 0.5
          1 1 1 1 1 1
          0.5 0.625 0.875 0.5 0.5 0.75
          0 0 0 0 0 0
          0 0 0 0 0 0
          0 0 0 0 0 0
          0 0 0 0 0 0
          0 0 0 0 0 0
          0 0 0 0 0 0
          0 0 0 0 0 0
          0 0 0 0 0 0
          0 0 0 0 0 0
          0 0 0 0 0 0
          0 0 0 0 0 0
          0 0 0 0 0 0
          0 0 0 0 0 0
          0 0 0 0 0 0
          0 0 0 0 0 0
          0 0 0 0 0 0
          0 0 0 0 0 0
          0 0 0 0 0 0
          0 0 0 0 0 0
          0 0 0 0 0 0
          0 0 0 0 0 0
          0 0 0 0 0 0
          0 0 0 0 0 0
          0 0 0 0 0 0
          0.5 0.5 0 0.6666666666666666 0 0
          0.5 0 1 1 0 0.6666666666666666
          0 0 0 0.5 0.5 0
          0.5 0 0 0.5 0 0
          0.5 0 0.6666666666666666 0 0.5 0
          1 1 1 1 0.75 0.625
          0.5 0.5 0.5 0.5 0.5 0.5
          0.625 0.5 0.5 0.875 0.25 0.75
          1 1 0.875 1 0.875 1
          1 0.75 0.6666666666666666 1 1 1
          1 1 1 1 1 1
          1 1 1 1 1 1
          1 1 1 1 1 1
          1 1 1 1 1 1
          1 1 1 1 1 1
          1 1 1 1 1 1
        </DataArray>
        <DataArray type="Float64" Name="gradient_matprop_marker" format="ascii" RangeMin="0" RangeMax="0">
          0 0 0 0 0 0
          0 0 0 0 0 0
          0 0 0 0 0 0
          0 0 0 0 0 0
          0 0 0 0 0 0
          0 0 0 0 0 0
          0 0 0 0 0 0
          0 0 0 0 0 0
          0 0 0 0 0 0
          0 0 0 0 0 0
          0 0 0 0 0 0
          0 0 0 0 0 0
          0 0 0 0 0 0
          0 0 0 0 0 0
          0 0 0 0 0 0
          0 0 0 0 0 0
          0 0 0 0 0 0
          0 0 0 0 0 0
          0 0 0 0 0 0
          0 0 0 0 0 0
          0 0 0 0 0 0
          0 0 0 0 0 0
          0 0 0 0 0 0
          0 0 0 0 0 0
          0 0 0 0 0 0
          0 0 0 0 0 0
          0 0 0 0 0 0
          0 0 0 0 0 0
          0 0 0 0 0 0
          0 0 0 0 0 0
          0 0 0 0 0 0
          0 0 0 0 0 0
          0 0 0 0 0 0
          0 0 0 0 0 0
          0 0 0 0 0 0
          0 0 0 0 0 0
          0 0 0 0 0 0
          0 0 0 0 0 0
          0 0 0 0 0 0
          0 0 0 0 0 0
          0 0 0 0 0 0
          0 0 0 0 0 0
          0 0 0 0 0 0
          0 0 0 0 0 0
          0 0 0 0 0 0
          0 0 0 0 0 0
          0 0 0 0 0 0
          0 0 0 0 0 0
          0 0 0 0 0 0
        </DataArray>
        <DataArray type="Float64" Name="combo" format="ascii" RangeMin="0" RangeMax="2">
          2 0.5 0.75 2 1.5 1.5
          1 0.875 0.625 0.5 0.625 0.5
          0.875 0.5 0.5 0.75 0.25 0.25
          0.75 0.75 0.25 0.75 2 1.875
          2 2 0.625 1 2 2
          2 1.5 2 2 2 1.625
          0.75 0.625 2 2 2 1.5
          1 1 1 1 1 1
          1.75 1.5 0.875 2 2 0.75
          0 0 0 0 0 0
          0 0 0 0 0 0
          0 0 0 0 0 0
          0 0 0 0 0 1
          1 1 2 1 1 1
          1 1 1 2 2 2
          2 0.5 0 1 0.5 0.5
          0 0 1.25 1.5 0.5 2
          2 2 2 2 2 2
          2 2 2 2 2 2
          2 1.5 1 2 1.75 2
          1.5 2 2 2 2 1
          1 1 1 1 1 2
          2 2 2 1 1 1
          1 0.75 0.6666666666666666 2 2 2
          1.75 0.5 0.5 0 0 1.5
          1.25 1 0.25 0 0 0
          0.75 0.6666666666666666 0 2 2 2
          2 2 2 2 2 2
          2 2 2 2 2 2
          2 2 2 2 2 2
          1.75 2 1.5 2 2 2
          1.5 1.5 1 1 2 2
          2 0 0 0 1 1
          1 1 1 1 2 2
          1.75 2 1 1 1 1
          0 2 2 2 2 2
          1.875 2 2 2 2 1.25
          1.125 0.5 0.6666666666666666 1.5 1.25 1
          1 1 1 1 0.75 0.625
          0.5 0.5 0.5 0.5 0.5 0.5
          0.625 0.5 0.5 0.875 0.25 0.75
          1 1 0.875 1 0.875 1
          1 0.75 0.6666666666666666 1 1 1
          1 1 1 1.5 1.5 1.25
          1 1 1 1 1 1
          1 2 2 1.625 2 2
          1.75 1.125 1 1.25 1 1
          1 1 1 1 1 1
          1 1 1 1 1 1
        </DataArray>
        <DataArray type="Float64" Name="dHdT" format="ascii" RangeMin="28.15714997576524" RangeMax="62.96222931332448">
          46.27012769224424 41.07026116341791 35.23900156417567 46.245604753314005 49.701058132363194 44.825200450510565
          33.852838256175616 33.45063932847799 32.264902205532714 41.81715679727122 38.67382330980046 38.276790968036124
          36.613285759260535 40.311897007766404 37.42273156680679 34.501367601660846 30.355737957942242 29.680051719318392
          33.545090416444125 32.72338049008033 28.93426372814853 31.74087301618216 56.74134499931405 59.152106155254074
          53.59027727790017 56.11626573781259 43.404823244865554 42.900187004456285 46.07141625479607 56.240302899262126
          50.729651411138185 50.70375463199994 52.02124745038374 53.96671773449913 52.266484814141535 51.85819874873827
          41.62249223916192 39.34295511890424 46.27249175300622 49.9324360017141 51.6350960272442 47.49913260112396
          36.844870327882205 36.28013109799336 38.673617818743566 38.329034350135814 35.13659132576839 37.0084728906769
          53.0282061476423 47.831726898962096 36.99263244218954 46.14313870322344 54.32988330431438 40.51891189051655
          44.8131370077017 46.94613238167358 45.34833098759086 45.72323429299435 40.54304983336342 37.31816618911303
          37.38259797947851 37.48150998600628 37.42962588573833 45.994285668642384 45.4186272830726 44.37107429537858
          41.17941375590571 45.10040912888164 43.23019572083186 41.08163691713254 39.36464109522871 37.48863316615039
          37.40450672502061 37.461407717992174 37.24254627070803 37.137355221507065 37.115792663740734 56.05472827802019
          53.97371325847833 49.56023076219052 59.4061061377581 54.89343073360392 53.463985508089024 53.798467269644654
          52.86763707037419 48.45953428898967 48.3843000864683 54.39373585977441 56.329240971619804 54.614141112925154
          57.90772103483155 42.18190726643478 39.4685187241709 54.43955915195948 42.20004368999912 42.175928403734304
          39.51555908459301 39.520063505635726 52.20881568400847 51.70658653777837 46.86693538181904 47.449065252734414
          50.82007989584357 59.75707262260868 45.96223702542589 46.069806471535564 48.59194346095309 46.13723491030221
          47.69793572803777 56.11413071749708 53.71939301180464 46.19287030905656 46.105045007253764 46.17962907797925
          52.78883810994699 60.549371934692715 55.77569316312078 62.96222931332448 58.174622524485535 56.415492749946935
          55.23506406434751 54.650836022057916 58.94910308147382 56.288159245799456 58.33774964850463 52.75983140674845
          51.95191359849167 51.758260413257105 50.693291389180686 47.79897093335739 46.67973063696148 52.807129499596186
          53.57357003873177 53.01926651554289 54.8525739003281 50.80375941961891 49.464763614801335 49.04073469251312
          47.71834739306874 45.63641007861537 45.24727113183703 51.44665918863271 52.93996258044146 53.34935471610263
          53.53259944560615 41.93626458934402 41.50788952627881 39.41858310220816 39.28464014373893 50.86239375284641
          49.68834042780187 46.35965028290397 40.88524151955772 40.49355647134072 38.62343069186847 38.037219734419054
          48.43350144561229 48.34829214754145 44.23506997226251 46.17661449323566 47.43832041815624 46.18937723969289
          47.625550720696275 52.63505958912149 52.407579866758695 46.26434713213346 46.214700672759655 46.228076893289575
          49.98349948839582 46.33052482719572 48.20244219990447 47.82274526359884 49.27065482175917 52.997848796922426
          53.33563426887522 46.274840987482236 46.22429074769681 46.19765808031801 50.83867776463457 55.098905812370106
          53.92933539606794 53.62771878957405 52.10523526031815 54.85692013158506 54.09326226406915 55.91189549976431
          53.31253837883305 52.54994110341879 50.70373873643445 49.14717804900665 54.28601063484892 54.50232284611261
          53.0684062483401 39.13673754029109 38.26853651269913 37.40033548510718 46.36927943122447 45.20464812333618
          43.77525597148318 42.718515126358916 44.0400168154479 40.24042666871856 53.067207606762324 53.204393121153984
          52.06580797042632 53.29066679209507 36.48399475861003 34.47336131860314 48.04986887352696 42.43518184783064
          42.910894641860054 49.388929323260236 50.843584117699315 50.874370745225455 52.98447003552096 53.52224212117959
          53.67268012409534 46.245264755153684 47.41914172706389 50.27472001535788 52.44833312711087 50.33981471490833
          47.059717648449244 45.9333840995959 40.17360302531242 52.629760556289696 49.3251075975118 48.955873557331735
          31.986635246514723 34.12050816617923 35.32661076529723 35.674363655193005 33.10388498814616 32.71082084234636
          31.50995327543205 32.27109748747018 31.863931268214312 31.339207949024797 30.886683576501518 38.519356314978545
          36.07092511547603 30.622749911381852 29.61987899585928 33.746505782374996 28.15714997576524 30.62143555604467
          33.52158536645337 34.93939729010966 35.01483075687024 32.51363570996576 29.278293021661717 31.82231278717616
          33.1315879876515 35.56384913554855 36.006974782609646 34.970756394852955 34.68927216567633 41.18033023025888
          40.095165741768085 33.85742036316756 37.80146348008387 51.47615131607616 49.41934388445449 44.38808932450537
          32.47764185258147 33.30244684220223 35.68270782910493 30.77071964802744 33.55804151347135 39.09853874833202
          35.80396701440832 54.66354489950651 55.07462411100817 51.79968703793601 52.062991245567936 54.98742415133589
          54.55928941853109 43.33374126007047 37.35553543586333 45.48176842999942 38.11073485294899 29.24736979623505
          29.799700832947984 31.128957138150287 28.16092334716082 29.1667074877453 29.710484263196033 33.132679320746945
          30.286250894071507 34.43786120820569 31.205985674966207 32.07259926155409 34.843548559039874 31.570272795193702
        </DataArray>
        <DataArray type="Float64" Name="dk/dtemperature" format="ascii" RangeMin="0.0059525" RangeMax="0.08006374843042302">
          0.0060908750000000025 0.008635959938706566 0.008074359516556927 0.006715374999999996 0.037753021714834835 0.01984316957312322
          0.009519453260535563 0.009422920001827312 0.00998462005395855 0.008648349674052364 0.008487496678811025 0.008510772547347573
          0.007914839933799225 0.008345107350114058 0.008458528673848865 0.008342810575493983 0.011410675288076782 0.01192224139936803
          0.00906173028373454 0.0096941921812479 0.012553822437985595 0.010377350615297796 0.009542197378573107 0.033091685331891676
          0.03944831250000019 0.015521385897683765 0.008247481927869709 0.008809278021440497 0.007682750000000002 0.013755625000000018
          0.007935375000000001 0.033998957691417316 0.030867858920158947 0.013335297876013815 0.008119308412191033 0.02421929136619506
          0.008591900515607787 0.00829350369086307 0.006030000000000008 0.007565249999999999 0.016496250000000004 0.033083855402102166
          0.007989863174286078 0.00829400997729924 0.00809114951338417 0.008008800115127217 0.008804012406209392 0.008357784599289568
          0.026140551218105934 0.02196591584710418 0.007828065200442231 0.007146500000000007 0.02454858552048811 0.00812026910185688
          0.008943603877106335 0.008895250071904642 0.008934172980794977 0.008948579782421702 0.00907977926898954 0.008519658060084104
          0.008549880920271462 0.008489992218141127 0.007913299192249156 0.008914874964722526 0.008986129745213305 0.009055693325928212
          0.009146979744560187 0.00909613334633775 0.0091413187177858 0.008654308512784684 0.008427212474572229 0.008242058144162468
          0.007561523086380169 0.007247541324908646 0.007097318890880007 0.00715582724150118 0.006526716921849409 0.009834748189172944
          0.020538347200799133 0.02401357771152481 0.02033523276224596 0.020523824233889328 0.02033690302000226 0.0400906841649909
          0.024537804151688138 0.01598140766241713 0.015106944951734704 0.020046761697937007 0.01996100402960477 0.024001264260477283
          0.018610062306336925 0.008999628602243083 0.008442416494762364 0.02630152736298873 0.010141415530587046 0.014820670695621728
          0.00846999754245502 0.00841237562615942 0.01333553335609668 0.01636038765417634 0.009326188460792053 0.008005249999999995
          0.008227562499999997 0.024212684448573624 0.00791775 0.007566500000000001 0.007828562499999999 0.007161999999999993
          0.007462781249999998 0.011286263028414564 0.008934093750000047 0.007191875000000005 0.007474749999999998 0.007050062499999995
          0.008235437499999998 0.03704137439704193 0.03410725489693662 0.0393702573218018 0.029663307893251126 0.024885358032907777
          0.04484471472967312 0.03966609106581546 0.04438849921521151 0.0382012899305652 0.08006374843042302 0.04789431248236131
          0.028444516633083856 0.03175240631401462 0.020379691446003007 0.017833477926211174 0.013245734766157232 0.04711437500000002
          0.027779795510477195 0.01962396978303889 0.018301238053931097 0.013257314853805019 0.014533226561279143 0.009006774912534616
          0.016608985568920192 0.012443616122001795 0.01885498647574806 0.012319935680636138 0.01375472345238623 0.016182112562527846
          0.017895548264954275 0.017416816596116554 0.012654108474011811 0.008161398123617164 0.007823723993700557 0.01932023527135667
          0.013960136900798049 0.01048321045580552 0.008428476885044828 0.008024231081986681 0.00777885979483933 0.00790589518734071
          0.014783648113577713 0.019399740689435205 0.0089657109213832 0.0068233749999999874 0.007173218749999989 0.006625624999999995
          0.007003187499999985 0.008891312500000012 0.00830292946007951 0.00629175000000001 0.006689750000000002 0.006462125000000003
          0.007700124999999997 0.006586937499999993 0.007000062499999988 0.006745812499999993 0.007179937499999996 0.01346853838023859
          0.02038400759720599 0.0059525 0.006415812499999997 0.006559312499999996 0.0076059999999999964 0.022726134854927096
          0.021854502865203296 0.03519270720985415 0.03448389681024755 0.03340337421521147 0.03353542579045395 0.05849424843042295
          0.02614626202671789 0.02679938579121699 0.03276863479295858 0.020444818888022 0.03248486270549 0.028945478009517262