<?xml version="1.0"?>
<VTKFile type="UnstructuredGrid" version="0.1" byte_order="LittleEndian" header_type="UInt32" compressor="vtkZLibDataCompressor">
  <UnstructuredGrid>
    <Piece NumberOfPoints="585" NumberOfCells="364">
      <PointData>
        <DataArray type="Int32" Name="libmesh_node_id" format="ascii" RangeMin="657" RangeMax="4586">
          657 773 775 1192 1195 1197
          1231 1232 1236 1241 1246 1248
          1250 1252 1253 1254 1255 1256
          1258 1262 1264 1266 2018 2024
          2025 2027 2028 2052 2057 2058
          2059 2061 2062 2083 2085 2086
          2087 2089 2092 2096 2117 2119
          2120 2121 2123 2126 2130 2132
          2133 2134 2136 2138 2140 2141
          2142 2143 2144 2145 2146 2147
          2148 2149 2150 2151 2152 2153
          2154 2155 2156 2157 2158 2159
          2160 2161 2162 2163 2164 2165
          2166 2169 2170 2172 2174 2175
          2176 2177 2178 2179 2180 2181
          2182 2184 2186 2188 2612 2613
          2614 2615 2616 2617 2618 2619
          2620 2621 2622 2623 2624 2625
          2626 2627 2628 2629 2630 2631
          2632 2633 2634 2635 2636 2637
          2643 3621 3622 3623 3624 3625
          3626 3627 3628 3629 3630 3631
          3632 3633 3634 3641 3645 3646
          3647 3648 3649 3650 3651 3652
          3653 3654 3817 3821 3822 3823
          3824 3825 3826 3827 3828 3829
          3830 3837 3841 3842 3843 3844
          3845 3846 3847 3848 3849 3850
          4000 4001 4002 4003 4004 4005
          4006 4007 4008 4009 4010 4011
          4012 4013 4014 4015 4016 4017
          4018 4019 4020 4023 4024 4027
          4030 4034 4035 4036 4037 4038
          4039 4040 4041 4042 4043 4044
          4045 4046 4047 4048 4066 4067
          4070 4071 4073 4075 4100 4102
          4103 4104 4106 4252 4253 4256
          4259 4263 4264 4265 4266 4267
          4268 4269 4270 4271 4272 4273
          4274 4275 4276 4277 4280 4281
          4284 4287 4291 4292 4293 4294
          4295 4296 4297 4298 4299 4300
          4301 4302 4303 4304 4305 4320
          4322 4323 4324 4326 4348 4350
          4351 4352 4354 4362 4363 4364
          4365 4366 4367 4368 4369 4370
          4371 4372 4373 4374 4375 4376
          4377 4378 4379 4380 4381 4382
          4383 4384 4385 4386 4387 4388
          4389 4390 4391 4392 4393 4394
          4395 4396 4397 4398 4399 4400
          4401 4402 4403 4404 4405 4406
          4407 4408 4409 4410 4411 4412
          4413 4414 4415 4416 4417 4418
          4419 4420 4421 4422 4423 4424
          4425 4426 4427 4428 4429 4430
          4431 4432 4433 4434 4435 4436
          4437 4438 4439 4440 4441 4442
          4443 4444 4445 4446 4447 4448
          4449 4450 4451 4452 4453 4454
          4455 4456 4457 4458 4459 4470
          4471 4472 4473 4474 4475 4476
          4477 4478 4479 4480 4481 4482
          4483 4484 4485 4486 4487 4488
          4489 4490 4491 4492 4493 4494
          4495 4496 4497 4498 4499 4500
          4501 4502 4503 4504 4505 4506
          4507 4508 4509 4510 4511 4512
          4513 4514 4515 4516 4517 4518
          4519 4520 4521 4522 4523 4524
          4525 4526 4527 4528 4529 4530
          4531 4532 4533 4534 4535 4536
          4537 4538 4546 4547 4548 4549
          4550 4551 4552 4553 4554 4555
          4566 4567 4568 4569 4570 4571
          4572 4580 4581 4582 4583 4584
          4585 4586 1191 1247 1251 757
          1249 770 1257 1261 1935 1944
          1946 1212 2016 2022 2020 2026
          2050 2056 2054 2060 2135 2131
          2139 2137 765 1984 1226 1994
          2582 2578 2583 2579 2584 2585
          2589 2581 2590 2592 2593 2599
          3417 3612 3616 1945 3617 3620
          2023 3618 3619 3638 3639 3640
          3642 3643 3644 3636 3814 3815
          3816 3818 3819 3820 3812 3834
          3835 3836 3838 3839 3840 3832
          3987 3988 3990 3989 3991 3992
          3993 3994 3996 3998 3995 3997
          3999 2084 3523 1982 3533 1983
          4021 4022 4025 4026 4028 4029
          4031 4032 4033 2088 3543 4051
          4055 4088 4092 4250 4251 4254
          4255 4257 4258 4260 4261 4262
          2118 4278 4279 4282 4283 4285
          4286 4288 4289 4290 2122 4308
          4312 4336 4340
        </DataArray>
        <DataArray type="Float64" Name="bounds" format="ascii" RangeMin="0" RangeMax="0">
          0 0 0 0 0 0
          0 0 0 0 0 0
          0 0 0 0 0 0
          0 0 0 0 0 0
          0 0 0 0 0 0
          0 0 0 0 0 0
          0 0 0 0 0 0
          0 0 0 0 0 0
          0 0 0 0 0 0
          0 0 0 0 0 0
          0 0 0 0 0 0
          0 0 0 0 0 0
          0 0 0 0 0 0
          0 0 0 0 0 0
          0 0 0 0 0 0
          0 0 0 0 0 0
          0 0 0 0 0 0
          0 0 0 0 0 0
          0 0 0 0 0 0
          0 0 0 0 0 0
          0 0 0 0 0 0
          0 0 0 0 0 0
          0 0 0 0 0 0
          0 0 0 0 0 0
          0 0 0 0 0 0
          0 0 0 0 0 0
          0 0 0 0 0 0
          0 0 0 0 0 0
          0 0 0 0 0 0
          0 0 0 0 0 0
          0 0 0 0 0 0
          0 0 0 0 0 0
          0 0 0 0 0 0
          0 0 0 0 0 0
          0 0 0 0 0 0
          0 0 0 0 0 0
          0 0 0 0 0 0
          0 0 0 0 0 0
          0 0 0 0 0 0
          0 0 0 0 0 0
          0 0 0 0 0 0
          0 0 0 0 0 0
          0 0 0 0 0 0
          0 0 0 0 0 0
          0 0 0 0 0 0
          0 0 0 0 0 0
          0 0 0 0 0 0
          0 0 0 0 0 0
          0 0 0 0 0 0
          0 0 0 0 0 0
          0 0 0 0 0 0
          0 0 0 0 0 0
          0 0 0 0 0 0
          0 0 0 0 0 0
          0 0 0 0 0 0
          0 0 0 0 0 0
          0 0 0 0 0 0
          0 0 0 0 0 0
          0 0 0 0 0 0
          0 0 0 0 0 0
          0 0 0 0 0 0
          0 0 0 0 0 0
          0 0 0 0 0 0
          0 0 0 0 0 0
          0 0 0 0 0 0
          0 0 0 0 0 0
          0 0 0 0 0 0
          0 0 0 0 0 0
          0 0 0 0 0 0
          0 0 0 0 0 0
          0 0 0 0 0 0
          0 0 0 0 0 0
          0 0 0 0 0 0
          0 0 0 0 0 0
          0 0 0 0 0 0
          0 0 0 0 0 0
          0 0 0 0 0 0
          0 0 0 0 0 0
          0 0 0 0 0 0
          0 0 0 0 0 0
          0 0 0 0 0 0
          0 0 0 0 0 0
          0 0 0 0 0 0
          0 0 0 0 0 0
          0 0 0 0 0 0
          0 0 0 0 0 0
          0 0 0 0 0 0
          0 0 0 0 0 0
          0 0 0 0 0 0
          0 0 0 0 0 0
          0 0 0 0 0 0
          0 0 0 0 0 0
          0 0 0 0 0 0
          0 0 0 0 0 0
          0 0 0 0 0 0
          0 0 0 0 0 0
          0 0 0 0 0 0
          0 0 0
        </DataArray>
        <DataArray type="Float64" Name="gradient_error" format="ascii" RangeMin="2.804609724677799e-11" RangeMax="6.343818587239876e-8">
          5.747214120821217e-9 2.5691072754391196e-9 1.957086603160932e-10 4.907859095091219e-8 5.4059160458477885e-9 6.343818587239876e-8
          3.54249104192501e-8 1.2073293950828832e-9 5.3431390699585074e-8 4.950126049540706e-10 1.2333865822531073e-9 2.1971228132960137e-8
          9.183960592089902e-10 1.937976223484359e-9 5.991017466487786e-10 2.8907590376089148e-8 4.359859429709355e-10 1.6100629918130442e-9
          2.9654285696245255e-10 2.1248228386379623e-10 1.2512066684354285e-10 6.586289311119595e-11 1.1610397468136676e-8 5.062884416730993e-9
          6.282869162770409e-10 3.358158628337911e-9 9.579612394135087e-9 3.281775638494584e-8 6.233018100134529e-9 1.438542159255399e-8
          2.1130697115396964e-9 7.631523902874422e-9 1.6490751977839883e-8 8.469238254714005e-10 4.875124556119529e-10 2.8652656286268135e-10
          2.3958176335130614e-9 7.849711027381849e-10 1.6168441398966348e-10 2.9395109943477285e-10 4.78991789146539e-9 1.4695766172073949e-9
          9.724398973778678e-10 5.9482226558806184e-9 1.8297305515104291e-9 5.997799081325282e-10 7.721317844690105e-10 4.276619364341028e-9
          3.0591607549270486e-9 6.822722869741299e-9 2.570552872701539e-9 7.153376804000135e-10 2.192278791481618e-9 9.607479905353972e-10
          3.8785707184448455e-9 6.141672934711899e-10 2.2398742975911274e-9 9.573469600130953e-9 3.971512741171839e-9 1.093455923253362e-8
          5.239910444889281e-9 5.612478275206724e-10 2.2687482847555323e-9 3.740324001371649e-10 5.996851540583055e-9 6.61612581872584e-10
          2.6189503191747592e-9 6.022172453498391e-10 4.96637220500533e-10 3.449561340721567e-10 2.837393426669067e-10 3.0959301883047857e-10
          4.678793434501087e-10 2.6496016591527617e-10 3.296881829274825e-10 1.9160616587510386e-10 3.237937798129249e-10 1.9093612261561618e-10
          1.5755712356112376e-10 9.522243488749485e-11 1.4661629108020735e-10 1.0796717608329855e-10 9.900721290068742e-11 3.436618753980513e-10
          2.0916809838578857e-10 2.0173882377775612e-10 1.100525742148925e-10 4.127630492319324e-10 2.5391495626978645e-10 2.303194673184853e-10
          1.2095733984639337e-10 5.918050250390211e-11 1.4825708512942004e-10 6.863558957920078e-11 4.346909415738749e-10 4.523617679831412e-10
          2.706766446364697e-10 4.700325943924074e-10 4.205638434330283e-10 4.4619103478351794e-10 3.24570774528641e-10 3.483311708257751e-10
          2.6625955464944417e-10 2.1002441710895788e-10 1.340026269130335e-10 4.718182261340076e-10 3.7209156712290925e-10 1.537892795684716e-10
          1.9114241308732757e-10 1.9979254128662822e-10 1.0292607335365337e-10 1.0838186566649424e-10 1.1811478410739393e-10 9.467543613938261e-11
          5.298843048286715e-11 2.0844266948592887e-10 1.1383765797933516e-10 7.123608817137129e-11 5.156245305878495e-11 5.682766752152615e-11
          6.209288198426735e-11 6.449229094073183e-10 7.807172634414111e-10 5.271105974352813e-10 1.2756297350201998e-9 5.390054935121447e-10
          6.806131915363992e-10 3.7694171488072317e-10 5.086879703597102e-10 3.61951388626059e-10 4.4734753861106895e-10 3.586164575624142e-10
          1.1193775654493689e-9 8.5671624200816e-10 7.066246880502508e-10 2.166012967667953e-9 1.9568297313369915e-9 1.2271426524109643e-9
          2.796246705543794e-9 1.740748881327665e-9 1.3766681060244161e-9 1.0726932585867658e-9 8.174993295608984e-10 2.53829040364859e-9
          2.0836936930974315e-9 1.52955420642988e-9 4.8018026731816735e-9 3.817120359404352e-9 2.321482959022483e-9 4.655562872889026e-9
          3.4962600532879392e-9 2.934368533491508e-9 2.073798135685027e-9 1.664700148426515e-9 4.350833248695433e-9 3.773128962409555e-9
          2.570585371441396e-9 7.267741592986241e-9 5.304188637359328e-9 3.243131085031498e-9 5.617910446770808e-9 4.992979869950481e-9
          4.386668137891384e-9 2.9456486164688885e-9 2.4460851455115003e-9 5.26519606310604e-9 4.608765985623021e-9 3.103495178234387e-9
          6.731113641302127e-10 2.8094928698916565e-10 3.856917450497715e-10 2.1172492668767268e-10 2.958318965049525e-10 2.2704934984284246e-10
          2.980270750859404e-10 2.2433579686190793e-10 6.705753101896821e-10 5.277864135827456e-10 4.542758138176337e-10 1.6174860182218757e-10
          2.2814884111982945e-10 1.2328560972363144e-10 1.7495004591973555e-10 1.2779638982136147e-10 1.7192993613166754e-10 1.3156776995980397e-10
          4.139319423257494e-10 3.2142565381473226e-10 2.727251179067239e-10 1.7892270724702537e-9 1.470222860063125e-9 2.846229033563852e-9
          1.1937253564346059e-9 1.988510969161918e-9 1.110843938202504e-9 8.953333086605294e-10 6.418506903983815e-10 5.071536992064109e-10
          1.7244309982985853e-9 1.4210401394100582e-9 9.736160459408702e-10 7.154397424942451e-10 5.642583195352295e-10 3.988590484945746e-10
          3.105189560639419e-10 1.1573252688351002e-9 9.280396790240628e-10 6.274052239069235e-10 9.177596092783996e-11 1.3184569385166994e-10
          7.144723440378261e-11 9.807647495460742e-11 2.461655966051653e-10 1.5985896028699564e-10 4.3825392982997214e-10 2.3865642579865837e-10
          1.807060311009109e-10 7.313563129777262e-10 3.846141778628315e-10 4.166615677117347e-9 3.5833042904725353e-9 5.491797450588163e-9
          3.0343128066176477e-9 4.1159817110625235e-9 2.4843966770629942e-9 2.0875449848525983e-9 1.370598289695804e-9 1.1238615397080689e-9
          3.25236570739458e-9 2.7745573696739755e-9 1.7686707551702342e-9 1.730055712014311e-9 1.409491382939787e-9 9.111255052149053e-10
          7.277713882945153e-10 2.3314141457211353e-9 1.9240885098181624e-9 1.2051388589604808e-9 6.439756734799709e-9 5.650187000427612e-9
          6.770480456194146e-9 4.89192824736716e-9 5.160169235119542e-9 3.8188754302999246e-9 3.2881049829482513e-9 2.0673305368905016e-9
          1.7319327708771096e-9 4.0239222624755274e-9 3.475137573911433e-9 2.178074111185233e-9 2.7869065011798073e-9 2.31881273373881e-9
          1.430683522551754e-9 1.1620155710646398e-9 2.9540102780302276e-9 2.4646316692295782e-9 1.5151920511485606e-9 1.1268831943278579e-9
          5.716927711186322e-10 4.4124162892482975e-10 1.556883829134124e-9 7.708477805175069e-10 1.8906906116245218e-9 9.265489739543896e-10
          7.246983072494528e-10 2.0147594209061715e-9 9.854368423049062e-10 2.72391921638781e-10 3.3112227390667174e-10 2.6840297716255596e-10
          4.96575798342778e-10 2.2573302741783424e-10 2.763349493074169e-10 1.7907413319688745e-10 2.2154762470816217e-10 1.7922067943320872e-10
          2.2098400411271678e-10 1.735650310628776e-10 4.2057128439858796e-10 3.332486212947853e-10 3.3214913887870145e-10 7.066027283675818e-10
          5.767828358496243e-10 9.503205814737912e-10 6.149044202436767e-10 4.5920718820976557e-10 4.770127042975211e-10 3.2921228008833474e-10
          8.462723235789102e-10 6.61518374541599e-10 5.552403499204012e-10 1.2373743773512328e-9 7.536578876979577e-10 1.4757432231716218e-9
          1.1132275666297999e-9 8.891513322436242e-10 6.358502743733273e-10 4.554170049730931e-10 1.349756771055333e-9 1.1077288689903417e-9
          7.695407308129483e-10 3.665124111261064e-10 4.1123411503946015e-10 3.473750517424947e-10 4.831806281673962e-10 3.0898272951358333e-10
          3.4461664675998556e-10 2.100542975347321e-10 2.356372835996605e-10 2.5510365364425307e-10 2.7301853601606735e-10 1.6597962183023233e-10
          4.060448960128277e-10 2.8254715537713823e-10 3.1049425022568345e-10 1.6446401552398342e-9 1.0116389729791406e-9 1.7218079421154786e-9
          1.5204167969115216e-9 1.269315607849783e-9 8.622356844262988e-10 6.348687784185377e-10 1.5908336807013338e-9 1.3289913957100052e-9
          9.004671609076857e-10 5.346264903802566e-10 4.4595893685664803e-10 5.588475433785346e-10 4.510936549849803e-10 3.1628950305480736e-10
          3.45104409130978e-10 2.0632035477250486e-10 4.703480819506932e-10 3.287049650199272e-10 3.601537361984708e-10 2.752990860880456e-10
          3.5130674908339485e-10 2.115093078243387e-10 2.726746564815347e-10 2.0407923320540947e-10 2.491463642182792e-10 1.914397302895349e-10
          5.197762093943686e-10 4.1011554140486997e-10 2.984433279926058e-10 1.618951315808552e-10 2.1082123302358104e-10 1.2337375670073513e-10
          1.617981301396703e-10 1.1805286848383508e-10 1.461141735848464e-10 1.108316933595869e-10 3.217175289166454e-10 2.4970453877195e-10
          1.7831150507738982e-10 9.354763191466657e-11 1.2319267009884428e-10 7.015104218510507e-11 9.263527594421059e-11 6.731978678901667e-11
          8.393562350652713e-11 6.293571679467911e-11 1.915995917806949e-10 1.4498085818578266e-10 1.0396339912395604e-10 7.11131655255881e-10
          5.690574370487884e-10 3.494017194323935e-10 2.7224993178691595e-10 8.981990297676152e-10 7.264611548483302e-10 4.372246722278181e-10
          4.5179798002031915e-10 3.5437847925597965e-10 2.119618705787006e-10 1.6377362896052882e-10 5.8204154015938e-10 4.602162391422851e-10
          2.6939805391198157e-10 1.4765478469233122e-10 1.692788363856729e-10 1.1073271828324763e-10 1.2778928118099826e-10 1.0962464310619746e-10
          1.1559963229936611e-10 8.567211253091566e-11 2.0762634877798898e-10 1.5829511925319744e-10 1.3176178725578166e-10 8.535717029931875e-11
          9.823358005461132e-11 6.629501650676871e-11 7.559898844634703e-11 6.321200928139133e-11 6.589424132652202e-11 5.099612927393407e-11
          1.214566501294906e-10 9.274945050479283e-11 7.45065054965077e-11 1.0382324549214227e-9 8.455084040457418e-10 4.986577389777824e-10
          3.9420754980056047e-10 1.090092154109384e-9 8.898182948213905e-10 5.211113279913813e-10 6.812768170747844e-10 5.41302135849363e-10
          3.103450349572933e-10 2.418487958456253e-10 7.183787905044628e-10 5.717421779608204e-10 3.2543818497486875e-10 2.3372288083281496e-10
          1.7917131926607526e-10 1.473377175628014e-10 1.109135451598522e-10 2.4309595218866657e-10 1.8659824410450455e-10 1.5272648210657426e-10
          1.3783241795488347e-10 1.0542638645902678e-10 8.390600119546745e-11 6.327167180900886e-11 1.4386152546068953e-10 1.1025683229439324e-10
          8.737546476957222e-11 2.7413646830297103e-10 2.0891865755307595e-10 1.249176581991568e-10 9.382726616989203e-11 3.5839949382294494e-10
          2.7470684875521157e-10 1.6030970833387382e-10 4.94407941277248e-11 5.676548184312572e-11 3.629072803749919e-11 4.197227642942862e-11
          3.6456194300877044e-11 3.787488077014132e-11 2.804609724677799e-11 7.014699741487244e-11 5.237401085676843e-11 4.238405101617182e-11
          4.2333089468189754e-10 3.2558787757469494e-10 1.859659575099677e-10 1.408419225440261e-10 4.477742630454795e-10 3.4475716607686936e-10
          1.9547844617658608e-10 7.990797261737016e-11 5.985035423152393e-11 4.760268330186079e-11 3.5714601419733556e-11 8.361211996352209e-11
          6.260651157086904e-11 4.9730831810783554e-11 2.538950858498248e-8 9.532044542815446e-9 2.537828581928512e-9 1.4109050135275917e-8
          1.0696039649489488e-9 8.748459149159093e-10 5.129747467134652e-10 3.1012330535710343e-10 9.993001777774869e-9 4.363157981884092e-9
          2.4529746386148423e-9 1.540517351133057e-8 2.2043637338972228e-8 1.0874192666701742e-8 4.573821180118212e-8 2.3490249333273885e-8
          5.752965679183317e-8 3.7114605118367383e-8 5.504917862051911e-8 4.281199523161374e-8 1.2813117005194274e-9 2.0002008733941406e-9
          1.0107231715242141e-9 6.15279541842026e-10 8.774460699686771e-10 5.988760049846296e-10 5.069273266242895e-10 1.8634798282593715e-10
          2.236119048421349e-10 3.1831376046094077e-10 3.0286290820179746e-10 4.102813704530686e-10 9.493375850292851e-11 1.3228424091081964e-10
          3.8211391156146004e-10 5.022489804451965e-10 1.6963472331871078e-10 4.8381766845135243e-11 5.0061396744493096e-11 5.1741026643850956e-11
          6.577299035703293e-10 1.123543507411829e-9 9.907835797182511e-10 7.039166851869833e-10 7.612126578591008e-10 1.6760444030079965e-9
          1.3170714103203842e-9 2.38742148775207e-9 1.9081164916342877e-9 3.78991546644592e-9 3.1876198786058513e-9 2.6465613105863005e-9
          5.810238938998587e-9 5.014199585895816e-9 3.9648320228141935e-9 2.9214688221596225e-9 8.368683198039986e-9 7.2947222435104795e-9
          5.5961370622618946e-9 1.0546271542238063e-8 9.54678181983636e-9 7.057550634961979e-9 6.0556353343828765e-9 1.2090047262981914e-8
          1.101375653494674e-8 8.185276847574246e-9 1.2711145207255043e-8 1.145530948794891e-8 8.667086548685939e-9 8.6777793227729e-9
          8.577085154496593e-10 6.799747948674719e-10 4.644836363156785e-10 5.92793620634238e-10 1.5580477488999576e-9 1.26719427868485e-9
          1.0563341930453302e-9 5.349848316507214e-10 3.620096827534495e-10 1.0191029515943696e-9 4.1600725775543774e-10 2.792826571664216e-10
          8.075435487079244e-10 5.280781192314438e-10 3.59392654961427e-10 3.9124710632921927e-10 2.121352520622945e-10 2.2206005737186345e-10
          2.6886475729518837e-9 2.247233666372306e-9 4.344283600797502e-9 3.7275218266471645e-9 1.8518600389703235e-9 1.5000806184278394e-9
          9.542772472872261e-10 3.148399332982109e-9 2.6107190256804375e-9 1.6220625015641045e-9 1.212753612455675e-10 2.1297087765522512e-10
          4.0800725868026075e-10 7.497273866207882e-10 1.2981452709285497e-9 6.4507709939783815e-9 5.63785945849267e-9 8.557332175276344e-9
          7.559779177688377e-9 4.855492463706698e-9 4.109829009031619e-9 2.5226285378640692e-9 6.575376976129998e-9 5.631491457316788e-9
          3.4735401289264572e-9 9.947686089219698e-9 8.843517195152746e-9 1.0372742726630129e-8 9.241478332634888e-9 7.721118692411447e-9
          6.63813211989769e-9 4.165277580834666e-9 8.078853679336807e-9 6.9501209424387196e-9 4.405811574386828e-9 2.0554882357421274e-9
          2.872192757713161e-9 3.4767353638846326e-9 3.689325058615015e-9
        </DataArray>
        <DataArray type="Float64" Name="gradient_matprop_error" format="ascii" RangeMin="0" RangeMax="0">
          0 0 0 0 0 0
          0 0 0 0 0 0
          0 0 0 0 0 0
          0 0 0 0 0 0
          0 0 0 0 0 0
          0 0 0 0 0 0
          0 0 0 0 0 0
          0 0 0 0 0 0
          0 0 0 0 0 0
          0 0 0 0 0 0
          0 0 0 0 0 0
          0 0 0 0 0 0
          0 0 0 0 0 0
          0 0 0 0 0 0
          0 0 0 0 0 0
          0 0 0 0 0 0
          0 0 0 0 0 0
          0 0 0 0 0 0
          0 0 0 0 0 0
          0 0 0 0 0 0
          0 0 0 0 0 0
          0 0 0 0 0 0
          0 0 0 0 0 0
          0 0 0 0 0 0
          0 0 0 0 0 0
          0 0 0 0 0 0
          0 0 0 0 0 0
          0 0 0 0 0 0
          0 0 0 0 0 0
          0 0 0 0 0 0
          0 0 0 0 0 0
          0 0 0 0 0 0
          0 0 0 0 0 0
          0 0 0 0 0 0
          0 0 0 0 0 0
          0 0 0 0 0 0
          0 0 0 0 0 0
          0 0 0 0 0 0
          0 0 0 0 0 0
          0 0 0 0 0 0
          0 0 0 0 0 0
          0 0 0 0 0 0
          0 0 0 0 0 0
          0 0 0 0 0 0
          0 0 0 0 0 0
          0 0 0 0 0 0
          0 0 0 0 0 0
          0 0 0 0 0 0
          0 0 0 0 0 0
          0 0 0 0 0 0
          0 0 0 0 0 0
          0 0 0 0 0 0
          0 0 0 0 0 0
          0 0 0 0 0 0
          0 0 0 0 0 0
          0 0 0 0 0 0
          0 0 0 0 0 0
          0 0 0 0 0 0
          0 0 0 0 0 0
          0 0 0 0 0 0
          0 0 0 0 0 0
          0 0 0 0 0 0
          0 0 0 0 0 0
          0 0 0 0 0 0
          0 0 0 0 0 0
          0 0 0 0 0 0
          0 0 0 0 0 0
          0 0 0 0 0 0
          0 0 0 0 0 0
          0 0 0 0 0 0
          0 0 0 0 0 0
          0 0 0 0 0 0
          0 0 0 0 0 0
          0 0 0 0 0 0
          0 0 0 0 0 0
          0 0 0 0 0 0
          0 0 0 0 0 0
          0 0 0 0 0 0
          0 0 0 0 0 0
          0 0 0 0 0 0
          0 0 0 0 0 0
          0 0 0 0 0 0
          0 0 0 0 0 0
          0 0 0 0 0 0
          0 0 0 0 0 0
          0 0 0 0 0 0
          0 0 0 0 0 0
          0 0 0 0 0 0
          0 0 0 0 0 0
          0 0 0 0 0 0
          0 0 0 0 0 0
          0 0 0 0 0 0
          0 0 0 0 0 0
          0 0 0 0 0 0
          0 0 0 0 0 0
          0 0 0 0 0 0
          0 0 0 0 0 0
          0 0 0
        </DataArray>
        <DataArray type="Float64" Name="initial_marker" format="ascii" RangeMin="0" RangeMax="2">
          0 2 0 1 0 1
          2 2 2 2 2 0.75
          0 0 0 1 0 0
          0 0 0 0 2 2
          1.75 2 2 2 2 2
          2 2 2 2 1.5 1.5
          2 2 1.5 2 2 2
          2 2 2 2 2 1
          0 1.5 0.5 0 0 0
          1.5 1.5 0.3333333333333333 2 1 2
          2 2 0.5 0 2 2
          0.5 0 0 0 0 0
          0 0 1.5 1.5 0 0
          0 0 0 1 0 2
          2 0 0 2 2 0
          2 0 2 0 0 0
          0 0 0 0 0 0
          0 0 0 0 0 0
          0 0 0 0 0 0
          0 0 0 0 0 0
          0 1 1.5 1 2 1
          1.5 1 1.5 0 1 1
          2 2 2 2 2 2
          2 2 2 2 2 2
          2 2 2 2 2 2
          2 2 2 2 2 2
          2 2 2 2 2 2
          2 2 2 2 2 2
          2 1 1.5 1 1.5 0
          1 1 2 2 2 1
          1.5 1 1.5 0 1 1
          2 2 2 2 2 2
          2 2 2 2 2 2
          2 2 2 2 2 2
          2 2 2 2 1 1.5
          0 1 2 2 2 2
          2 2 2 2 2 2
          2 2 2 2 2 2
          2 2 2 2 2 2
          2 2 2 2 2 2
          2 2 2 2 2 2
          2 2 2 2 2 2
          2 2 2 2 2 2
          2 2 2 2 2 2
          2 2 2 0 0.5 0
          1 0 0.5 0 0.5 0
          0 0 1 1 0 1.5
          1 2 1.5 1.5 1 1
          2 2 2 2 2 2
          2 2 2 2 2 2
          2 1 1 0 1 1
          1 1 1 0 0 0
          1 1 0 2 2 2
          2 2 2 2 2 2
          2 1 0 1 1 1
          0 0 1 1 0 1
          1.5 1 1.5 0 1 1
          2 2 2 1 1.5 1
          1.5 0 1 1 2 2
          2 1 1.5 1 1.5 0
          1 1 2 2 1.6666666666666667 2
          2 2 2 2 2 2
          2 2 2 2 2 2
          2 1 1 1 1 0
          0 0 1 1 0 1
          1 1 1 0 0 0
          1 1 0 2 2 2
          2 2 2 2 2 2
          2 2 2 2 2 1
          1 0 0 1 1 0
          1 1 0 0 1 1
          0 2 2 1.75 1.5 2
          2 2 0.5 0.75 0 0.5
          0 0 0 1 1 0
          2 2 2 2 2 2
          2 1 1 0 0 1
          1 0 0.6666666666666666 0.25 0 0
          0 0 0 0 1.6666666666666667 1.25
          0.5 1.25 2 2 2 2
          2 2 2 2 0.25 0.5
          0 0 0 0 0 0
          0 0 0 0 0 0
          0 0 0 0 0 0
          1.3333333333333333 2 2 1 2 2
          2 2 2 2 2 2
          2 2 2 2 2 2
          2 2 2 2 2 2
          2 2 2 2 2 2
          2 2 2 2 2 2
          2 2 2 2 2 2
          2 2 1.3333333333333333 1 1.3333333333333333 1
          2 2 2 2 2 2
          2 2 2 2 1.3333333333333333 2
          2 2 2 2 2 2
          2 2 2 2 2 2
          2 2 2 2 2 2
          2 2 2 2 2 2
          2 2 2
        </DataArray>
        <DataArray type="Float64" Name="markers_norefine" format="ascii" RangeMin="0" RangeMax="0">
          0 0 0 0 0 0
          0 0 0 0 0 0
          0 0 0 0 0 0
          0 0 0 0 0 0
          0 0 0 0 0 0
          0 0 0 0 0 0
          0 0 0 0 0 0
          0 0 0 0 0 0
          0 0 0 0 0 0
          0 0 0 0 0 0
          0 0 0 0 0 0
          0 0 0 0 0 0
          0 0 0 0 0 0
          0 0 0 0 0 0
          0 0 0 0 0 0
          0 0 0 0 0 0
          0 0 0 0 0 0
          0 0 0 0 0 0
          0 0 0 0 0 0
          0 0 0 0 0 0
          0 0 0 0 0 0
          0 0 0 0 0 0
          0 0 0 0 0 0
          0 0 0 0 0 0
          0 0 0 0 0 0
          0 0 0 0 0 0
          0 0 0 0 0 0
          0 0 0 0 0 0
          0 0 0 0 0 0
          0 0 0 0 0 0
          0 0 0 0 0 0
          0 0 0 0 0 0
          0 0 0 0 0 0
          0 0 0 0 0 0
          0 0 0 0 0 0
          0 0 0 0 0 0
          0 0 0 0 0 0
          0 0 0 0 0 0
          0 0 0 0 0 0
          0 0 0 0 0 0
          0 0 0 0 0 0
          0 0 0 0 0 0
          0 0 0 0 0 0
          0 0 0 0 0 0
          0 0 0 0 0 0
          0 0 0 0 0 0
          0 0 0 0 0 0
          0 0 0 0 0 0
          0 0 0 0 0 0
          0 0 0 0 0 0
          0 0 0 0 0 0
          0 0 0 0 0 0
          0 0 0 0 0 0
          0 0 0 0 0 0
          0 0 0 0 0 0
          0 0 0 0 0 0
          0 0 0 0 0 0
          0 0 0 0 0 0
          0 0 0 0 0 0
          0 0 0 0 0 0
          0 0 0 0 0 0
          0 0 0 0 0 0
          0 0 0 0 0 0
          0 0 0 0 0 0
          0 0 0 0 0 0
          0 0 0 0 0 0
          0 0 0 0 0 0
          0 0 0 0 0 0
          0 0 0 0 0 0
          0 0 0 0 0 0
          0 0 0 0 0 0
          0 0 0 0 0 0
          0 0 0 0 0 0
          0 0 0 0 0 0
          0 0 0 0 0 0
          0 0 0 0 0 0
          0 0 0 0 0 0
          0 0 0 0 0 0
          0 0 0 0 0 0
          0 0 0 0 0 0
          0 0 0 0 0 0
          0 0 0 0 0 0
          0 0 0 0 0 0
          0 0 0 0 0 0
          0 0 0 0 0 0
          0 0 0 0 0 0
          0 0 0 0 0 0
          0 0 0 0 0 0
          0 0 0 0 0 0
          0 0 0 0 0 0
          0 0 0 0 0 0
          0 0 0 0 0 0
          0 0 0 0 0 0
          0 0 0 0 0 0
          0 0 0 0 0 0
          0 0 0 0 0 0
          0 0 0 0 0 0
          0 0 0
        </DataArray>
        <DataArray type="Float64" Name="markers_mustrefine" format="ascii" RangeMin="0" RangeMax="2">
          0 2 0 1 0 1
          2 2 2 2 2 0.75
          0 0 0 1 0 0
          0 0 0 0 2 2
          1.75 2 2 2 2 2
          2 2 2 2 1.5 1.5
          2 2 1.5 2 2 2
          2 2 2 2 2 1
          0 1.5 0.5 0 0 0
          1.5 1.5 0.3333333333333333 2 1 2
          2 2 0.5 0 2 2
          0.5 0 0 0 0 0
          0 0 1.5 1.5 0 0
          0 0 0 1 0 2
          2 0 0 2 2 0
          2 0 2 0 0 0
          0 0 0 0 0 0
          0 0 0 0 0 0
          0 0 0 0 0 0
          0 0 0 0 0 0
          0 1 1.5 1 2 1
          1.5 1 1.5 0 1 1
          2 2 2 2 2 2
          2 2 2 2 2 2
          2 2 2 2 2 2
          2 2 2 2 2 2
          2 2 2 2 2 2
          2 2 2 2 2 2
          2 1 1.5 1 1.5 0
          1 1 2 2 2 1
          1.5 1 1.5 0 1 1
          2 2 2 2 2 2
          2 2 2 2 2 2
          2 2 2 2 2 2
          2 2 2 2 1 1.5
          0 1 2 2 2 2
          2 2 2 2 2 2
          2 2 2 2 2 2
          2 2 2 2 2 2
          2 2 2 2 2 2
          2 2 2 2 2 2
          2 2 2 2 2 2
          2 2 2 2 2 2
          2 2 2 2 2 2
          2 2 2 0 0.5 0
          1 0 0.5 0 0.5 0
          0 0 1 1 0 1.5
          1 2 1.5 1.5 1 1
          2 2 2 2 2 2
          2 2 2 2 2 2
          2 1 1 0 1 1
          1 1 1 0 0 0
          1 1 0 2 2 2
          2 2 2 2 2 2
          2 1 0 1 1 1
          0 0 1 1 0 1
          1.5 1 1.5 0 1 1
          2 2 2 1 1.5 1
          1.5 0 1 1 2 2
          2 1 1.5 1 1.5 0
          1 1 2 2 1.6666666666666667 2
          2 2 2 2 2 2
          2 2 2 2 2 2
          2 1 1 1 1 0
          0 0 1 1 0 1
          1 1 1 0 0 0
          1 1 0 2 2 2
          2 2 2 2 2 2
          2 2 2 2 2 1
          1 0 0 1 1 0
          1 1 0 0 1 1
          0 2 2 1.75 1.5 2
          2 2 0.5 0.75 0 0.5
          0 0 0 1 1 0
          2 2 2 2 2 2
          2 1 1 0 0 1
          1 0 0.6666666666666666 0.25 0 0
          0 0 0 0 1.6666666666666667 1.25
          0.5 1.25 2 2 2 2
          2 2 2 2 0.25 0.5
          0 0 0 0 0 0
          0 0 0 0 0 0
          0 0 0 0 0 0
          1.3333333333333333 2 2 1 2 2
          2 2 2 2 2 2
          2 2 2 2 2 2
          2 2 2 2 2 2
          2 2 2 2 2 2
          2 2 2 2 2 2
          2 2 2 2 2 2
          2 2 1.3333333333333333 1 1.3333333333333333 1
          2 2 2 2 2 2
          2 2 2 2 1.3333333333333333 2
          2 2 2 2 2 2
          2 2 2 2 2 2