<?xml version="1.0"?>
<VTKFile type="UnstructuredGrid" version="0.1" byte_order="LittleEndian" header_type="UInt32" compressor="vtkZLibDataCompressor">
  <UnstructuredGrid>
    <Piece NumberOfPoints="623" NumberOfCells="373">
      <PointData>
        <DataArray type="Int32" Name="libmesh_node_id" format="ascii" RangeMin="778" RangeMax="5765">
          778 786 787 1279 1283 1284
          1286 1289 1291 1293 1308 1313
          2217 2218 2219 2222 2225 2240
          2241 2242 2243 2245 2246 2259
          2260 2262 2265 2275 2276 2277
          2279 2280 2281 2282 2283 2284
          2285 2286 2287 2288 2289 2291
          2292 2293 2294 2310 2314 2316
          2318 2329 2330 2333 2335 2336
          2338 2349 2351 2353 2355 2373
          2374 2375 2376 2377 2378 2379
          2380 2381 2382 2390 2391 2392
          2393 2394 2395 2396 2397 2398
          2401 2402 2404 2406 2651 2652
          2680 2681 2682 2683 2684 2685
          2686 2726 2727 4728 4729 4730
          4733 4736 4750 4751 4754 4756
          4770 4771 4773 4776 4786 4788
          4790 4872 4873 4876 4878 4889
          4898 4900 4902 4903 4906 4907
          4910 4913 4914 4917 4918 4919
          4920 5001 5002 5004 5007 5017
          5019 5021 5035 5036 5038 5041
          5051 5053 5055 5121 5122 5123
          5125 5126 5129 5130 5133 5134
          5135 5136 5137 5138 5139 5140
          5149 5150 5151 5153 5154 5157
          5158 5161 5162 5163 5164 5165
          5166 5167 5168 5169 5170 5171
          5172 5173 5174 5175 5176 5177
          5178 5179 5180 5181 5182 5183
          5184 5185 5186 5187 5188 5189
          5190 5191 5192 5193 5194 5195
          5196 5197 5198 5199 5200 5201
          5202 5203 5204 5205 5206 5207
          5208 5209 5210 5211 5212 5213
          5214 5215 5216 5217 5218 5219
          5220 5221 5222 5223 5224 5225
          5226 5227 5228 5229 5230 5231
          5232 5233 5234 5235 5236 5237
          5238 5239 5240 5241 5242 5243
          5244 5245 5246 5248 5249 5250
          5251 5252 5253 5254 5255 5256
          5257 5258 5259 5260 5261 5262
          5264 5289 5309 5310 5311 5312
          5313 5314 5315 5316 5317 5318
          5319 5320 5321 5322 5323 5324
          5325 5326 5327 5330 5331 5333
          5335 5336 5337 5338 5339 5340
          5341 5342 5343 5344 5345 5346
          5347 5348 5349 5350 5351 5352
          5353 5355 5376 5377 5378 5379
          5380 5381 5382 5383 5384 5385
          5386 5387 5388 5389 5390 5391
          5392 5393 5395 5396 5397 5398
          5399 5400 5401 5402 5403 5404
          5405 5407 5409 5410 5411 5412
          5413 5414 5415 5416 5417 5418
          5419 5420 5421 5424 5426 5427
          5429 5430 5431 5432 5433 5434
          5435 5436 5437 5439 5441 5443
          5512 5513 5514 5515 5516 5517
          5518 5519 5521 5523 5525 5526
          5527 5528 5529 5530 5531 5532
          5533 5535 5537 5539 5540 5541
          5542 5543 5544 5545 5546 5547
          5549 5551 5553 5554 5555 5556
          5557 5558 5559 5560 5561 5563
          5565 5567 5650 5651 5652 5653
          5654 5655 5656 5657 5658 5659
          5708 5709 5710 5711 5712 5713
          5714 5715 5716 5717 5718 5719
          5720 5721 5722 5723 5724 5725
          5726 5727 5728 5729 5730 5731
          5732 5733 5734 5735 5736 5737
          5738 5739 5740 5741 5742 5743
          5744 5745 5746 5747 5748 5749
          5750 5751 5752 5753 5754 5755
          5756 5757 5758 5759 5760 5761
          5762 5763 5764 5765 1305 1307
          784 1309 1306 1311 1310 1312
          789 1314 1315 1319 1316 1320
          1322 1324 1275 1276 1561 1559
          1280 779 2296 2302 1292 2298
          2303 2290 2311 2309 2312 2239
          2313 1298 2315 2365 2233 2366
          2369 2371 2384 2386 2388 1299
          2399 2352 2400 2403 2405 2729
          2730 2732 2655 2733 2736 2737
          2295 2742 2745 2666 2747 5247
          1294 2297 5263 5265 5266 5267
          5268 5269 5270 5271 5272 5274
          5290 5291 5292 5293 5294 5295
          5296 5298 5328 5329 5332 5334
          2317 5354 2331 5394 2332 5406
          5408 2334 5422 5423 5425 1301
          5428 2337 5438 5440 5442 1302
          5444 5445 5448 5450 5451 5453
          5464 5466 5468 5470 5520 5522
          5524 2350 5534 5536 5538 5548
          5550 5552 2354 5562 5564 5566
          1304 5642 4856 5643 5646 1285
          5648 5081 5668 5670 2270 5672
          5109 5682 5684 1290 5686
        </DataArray>
        <DataArray type="Float64" Name="bounds" format="ascii" RangeMin="0" RangeMax="0">
          0 0 0 0 0 0
          0 0 0 0 0 0
          0 0 0 0 0 0
          0 0 0 0 0 0
          0 0 0 0 0 0
          0 0 0 0 0 0
          0 0 0 0 0 0
          0 0 0 0 0 0
          0 0 0 0 0 0
          0 0 0 0 0 0
          0 0 0 0 0 0
          0 0 0 0 0 0
          0 0 0 0 0 0
          0 0 0 0 0 0
          0 0 0 0 0 0
          0 0 0 0 0 0
          0 0 0 0 0 0
          0 0 0 0 0 0
          0 0 0 0 0 0
          0 0 0 0 0 0
          0 0 0 0 0 0
          0 0 0 0 0 0
          0 0 0 0 0 0
          0 0 0 0 0 0
          0 0 0 0 0 0
          0 0 0 0 0 0
          0 0 0 0 0 0
          0 0 0 0 0 0
          0 0 0 0 0 0
          0 0 0 0 0 0
          0 0 0 0 0 0
          0 0 0 0 0 0
          0 0 0 0 0 0
          0 0 0 0 0 0
          0 0 0 0 0 0
          0 0 0 0 0 0
          0 0 0 0 0 0
          0 0 0 0 0 0
          0 0 0 0 0 0
          0 0 0 0 0 0
          0 0 0 0 0 0
          0 0 0 0 0 0
          0 0 0 0 0 0
          0 0 0 0 0 0
          0 0 0 0 0 0
          0 0 0 0 0 0
          0 0 0 0 0 0
          0 0 0 0 0 0
          0 0 0 0 0 0
          0 0 0 0 0 0
          0 0 0 0 0 0
          0 0 0 0 0 0
          0 0 0 0 0 0
          0 0 0 0 0 0
          0 0 0 0 0 0
          0 0 0 0 0 0
          0 0 0 0 0 0
          0 0 0 0 0 0
          0 0 0 0 0 0
          0 0 0 0 0 0
          0 0 0 0 0 0
          0 0 0 0 0 0
          0 0 0 0 0 0
          0 0 0 0 0 0
          0 0 0 0 0 0
          0 0 0 0 0 0
          0 0 0 0 0 0
          0 0 0 0 0 0
          0 0 0 0 0 0
          0 0 0 0 0 0
          0 0 0 0 0 0
          0 0 0 0 0 0
          0 0 0 0 0 0
          0 0 0 0 0 0
          0 0 0 0 0 0
          0 0 0 0 0 0
          0 0 0 0 0 0
          0 0 0 0 0 0
          0 0 0 0 0 0
          0 0 0 0 0 0
          0 0 0 0 0 0
          0 0 0 0 0 0
          0 0 0 0 0 0
          0 0 0 0 0 0
          0 0 0 0 0 0
          0 0 0 0 0 0
          0 0 0 0 0 0
          0 0 0 0 0 0
          0 0 0 0 0 0
          0 0 0 0 0 0
          0 0 0 0 0 0
          0 0 0 0 0 0
          0 0 0 0 0 0
          0 0 0 0 0 0
          0 0 0 0 0 0
          0 0 0 0 0 0
          0 0 0 0 0 0
          0 0 0 0 0 0
          0 0 0 0 0 0
          0 0 0 0 0 0
          0 0 0 0 0 0
          0 0 0 0 0 0
          0 0 0 0 0 0
          0 0 0 0 0
        </DataArray>
        <DataArray type="Float64" Name="gradient_error" format="ascii" RangeMin="6.775190062549553e-13" RangeMax="6.861227263538642e-10">
          1.80060427941511e-11 6.819512272167159e-10 2.2577826032662596e-11 1.0928004023329559e-11 1.9887989929994103e-10 8.329065535871308e-11
          1.1725456036412844e-11 3.3535596734449743e-10 2.751892855738149e-12 2.7663774752323664e-11 1.2193571019842535e-11 1.6712842279178606e-11
          1.5899289922533478e-11 3.75173866694297e-11 3.132332616585563e-11 1.8384011376501522e-11 1.5962124787226668e-10 1.2067234348410354e-11
          1.536436364307575e-11 1.5566589711722817e-11 1.3390584188921757e-11 2.941736399744593e-11 2.085078985409031e-11 5.98208764987429e-10
          4.832013208165519e-10 2.4577267885378685e-10 5.964894561769271e-10 7.777849990062024e-11 4.0295097381167016e-11 1.691921353814151e-11
          1.0835928425590937e-10 5.3611538335649664e-11 7.285313732467841e-12 6.408877015320905e-12 1.459701914279991e-11 1.2183096590401373e-11
          3.2385019854490533e-12 5.275227015212034e-12 5.062894057721214e-12 5.6958503664448805e-12 8.17985189036839e-12 7.743070591388206e-11
          6.210430367753767e-11 2.2189225627288438e-11 3.236740255470328e-11 6.0908379671490914e-12 5.673470480920187e-12 1.14242993621137e-11
          5.7472998730435594e-12 2.3875968914348454e-10 1.9151048973620712e-10 9.622846779277393e-11 2.857714985419763e-10 2.4416543596528444e-10
          1.3295349499426717e-10 3.0269274273189254e-11 7.482542680960786e-12 4.2323070816824606e-11 8.778921382318026e-12 1.0927730434944557e-11
          1.2464703381611955e-11 5.001521684215354e-12 8.885028320868838e-12 5.954158874886156e-12 8.79322491498392e-12 3.9030091986096995e-12
          1.459331640989411e-11 9.579648695672102e-12 1.7144420302196017e-11 1.8481494186474667e-11 8.069543205663433e-12 2.6905870783239267e-11
          1.1928090733487653e-11 2.191885952535812e-11 9.647321896020113e-12 3.1155191917168184e-11 5.155978903994794e-12 4.419037123038714e-12
          3.114859720603781e-12 4.72940445072651e-12 3.8256598320394564e-12 5.562993557335456e-12 1.6382003555558276e-11 1.4692752747745866e-11
          2.494722602077002e-12 3.944566342862255e-12 1.6979142561174663e-12 2.3409257350286882e-12 1.4983036392635065e-12 1.9161038681767532e-12
          1.3461100183419025e-12 6.99892608352777e-12 6.244843709607294e-12 8.783781020917562e-12 1.5654330421633608e-11 1.503079648895925e-11
          1.3307722679323707e-11 3.5857333795884025e-11 6.530815904072597e-12 1.0885830304867106e-11 8.232406044762494e-12 2.5053459655324076e-11
          8.848976784740399e-11 8.413811435877876e-11 7.2375068885908e-11 1.8822180529992731e-10 5.6448915195739384e-11 4.005704288375656e-11
          1.214923318236397e-10 3.755670890088385e-12 5.734358612737635e-12 4.567382943321966e-12 1.2344287541863927e-11 1.0471998563463136e-11
          2.6003512172761113e-11 1.5482712123123956e-11 5.175245846859815e-11 4.5835480687551926e-11 1.6163997674602644e-11 1.2385835271626715e-11
          2.74410659623445e-11 5.867440031092786e-12 8.491730264645154e-12 5.845128350867806e-12 2.4146895112067198e-11 1.543950006974526e-11
          1.3706429006154058e-11 3.898749508904806e-10 3.6833787302489813e-10 3.104298594657867e-10 5.676117104673507e-10 2.3319265024722166e-10
          1.562937972401922e-10 3.6625133066668915e-10 6.861227263538642e-10 6.599468782098301e-10 5.80200236591003e-10 6.627418440176909e-10
          4.5511409867769586e-10 3.1307132079053467e-10 4.791579286556695e-10 9.393983230377124e-11 7.95830458340806e-11 5.1164244078395366e-11
          1.4616053395076251e-10 1.2076142050898576e-10 4.2987357878107775e-11 2.8562998948474007e-11 6.040239665133081e-11 3.994326138772489e-11
          2.5642995447065884e-11 1.8581998881423914e-11 1.1884313580006987e-11 5.856203995374615e-11 3.767434922978884e-11 2.637104054064678e-11
          1.8825559393529636e-10 1.5485199518557666e-10 9.991490641568762e-11 2.0359636323659516e-10 1.6780338493446094e-10 7.467611627133538e-11
          4.989237137074467e-11 8.0202320894469e-11 7.411878211209422e-11 4.772009907803136e-11 3.268639600219407e-11 2.0997266032989246e-11
          8.014556206383442e-11 5.161451094932383e-11 3.5136287141980986e-11 5.7237392345278685e-12 5.507345328878381e-12 9.84546643323122e-12
          9.45032330515483e-12 3.420223943342282e-12 6.092913747946849e-12 5.845196820771744e-12 4.928337580788923e-12 8.370551145321007e-12
          5.182369546820263e-12 2.3619091223030512e-11 2.2575241988840252e-11 1.3951135703681439e-11 1.9716984600505474e-11 2.159351110718796e-12
          2.1098071242085007e-12 3.7042498116505045e-12 3.547957836933979e-12 1.3317999930177582e-12 2.220650228705922e-12 2.115909703419057e-12
          1.94430875370591e-12 3.130097804015101e-12 2.047023436829815e-12 8.854357578778293e-12 8.459102858829405e-12 5.008548172774886e-12
          7.380334052138954e-12 4.1525422831988394e-12 6.846794190502988e-12 2.6645371259243515e-12 4.221098638598611e-12 3.280331535896054e-12
          5.152316277095661e-12 3.533688347672711e-12 1.5773482766925818e-11 9.708371954869485e-12 1.1557364475749944e-11 1.7359123174445785e-12
          2.551138758072609e-12 1.3982437816714068e-12 1.922374540962624e-12 1.6434702651755422e-12 2.23374777033247e-12 1.7260171277001834e-12
          5.842681126917581e-12 4.114537259945552e-12 4.94391743951195e-12 5.57256921553111e-11 5.298640605280213e-11 3.4403379178891195e-11
          3.271899690441319e-11 4.5576410652072113e-11 2.815123533937857e-11 1.2544936647787361e-10 1.1870894745971663e-10 7.326695223489789e-11
          1.0063324797170001e-10 2.082088703369784e-11 1.9818468756169238e-11 1.2359313186097775e-11 1.176934908611087e-11 1.7082805698012593e-11
          1.0152079816066079e-11 4.6778088444661647e-11 4.426202537964016e-11 2.6176071822696748e-11 3.7517461528946696e-11 3.557346962606959e-11
          2.198871253921247e-11 2.5280715818260902e-11 1.563356896623265e-11 7.655689526964142e-11 4.723852030593067e-11 5.2459341095666876e-11
          1.3335507732643737e-11 7.912423912558203e-12 9.440829260213828e-12 2.854096784640437e-11 1.6885647334497998e-11 1.956200646380617e-11
          8.09027702377897e-13 8.542352068255436e-13 1.2919131068941246e-12 1.246692875389157e-12 6.775190062549553e-13 9.34394086158721e-13
          9.300914910784047e-13 8.9944271127319e-13 1.2014726438841897e-12 9.257888959980887e-13 3.08117694970058e-12 2.908861943511563e-12
          2.9075310065366647e-12 2.8319879667554226e-12 2.4617471171507758e-12 3.5910397633541075e-12 2.016721422411486e-12 2.7672443836703367e-12
          2.102191990558171e-12 2.885113239959293e-12 2.2832998786292122e-12 7.739597908576297e-12 5.6140680388998604e-12 5.578304065823096e-12
          1.640306713557012e-11 1.0134713119906756e-11 9.742145874010045e-12 6.016086891194071e-12 3.258516117940859e-11 2.0111894337503028e-11
          1.8515247783330043e-11 3.9797866171550974e-12 6.106195245417115e-12 2.443282319696222e-12 3.6098394184332772e-12 1.2177005844079234e-11
          6.907777908570811e-12 3.681986231545888e-12 5.331905092987827e-12 2.3019618152925394e-12 3.306828354293758e-12 2.64677217190926e-12
          3.665458970862097e-12 2.293340263150576e-12 9.71686823377682e-12 6.007633346727789e-12 5.466744743454213e-12 1.4043346122851392e-12
          1.989297074616874e-12 1.092683963233114e-12 1.4926947070628347e-12 1.0270100778277267e-12 1.4111018306766923e-12 1.1072039112810595e-12
          3.627398862423491e-12 2.462215617785508e-12 2.4711329967485743e-10 2.333560667998299e-10 1.52943056957191e-10 1.4438294075496566e-10
          1.964302122319439e-10 1.2143714969304188e-10 3.828383865060256e-10 3.628630626971508e-10 2.261074175682509e-10 3.0802488304671445e-10
          9.247935654923312e-11 8.728649996307423e-11 5.465342021834959e-11 5.1579670895140946e-11 7.338051850783506e-11 4.335424183650396e-11
          1.4522475507263083e-10 1.374360395350704e-10 1.1620792648721571e-10 1.4732377847939434e-10 9.09897940392522e-11 9.859641128362367e-11
          6.085044981545684e-11 2.3262802470360112e-10 1.4423679567606405e-10 1.5557278047688256e-10 5.495661576622346e-11 3.2468032428428136e-11
          3.674589289598521e-11 8.734717423920332e-11 5.818379952178732e-11 4.460284159623043e-10 4.27916893291721e-10 2.8200871289771743e-10
          2.6997408765811124e-10 3.738758959279835e-10 2.346497832846138e-10 4.47888320803021e-10 4.336175292787218e-10 2.75771209319521e-10
          3.868275710960121e-10 1.736137490281302e-10 1.6589961126296235e-10 1.4355679603937833e-10 1.7736273154256302e-10 1.7068093296699116e-10
          1.5014468320817355e-10 2.9117954038383035e-10 1.8166891382392133e-10 1.9906101054667742e-10 1.2358303221425763e-10 3.0777781759605903e-10
          1.9270512508231636e-10 2.1372160421882043e-10 1.1060131493508111e-10 7.494814218525309e-11 1.176915956415467e-10 8.077425319019405e-11
          5.920219946320821e-11 3.6533607248106295e-11 3.222667700888011e-11 1.9893163176354366e-11 9.228549298554971e-11 5.6996178594436837e-11
          4.903756890522932e-11 2.208528451971346e-11 1.2045210898342804e-11 3.443648062137297e-11 1.829028760956075e-11 1.618476498235074e-11
          1.0008341557093053e-11 7.450478028185133e-12 5.435701254204741e-12 2.3795837621966717e-11 1.4713685031722875e-11 1.0633399516609962e-11
          6.045727851264433e-12 3.92565504699191e-12 8.876255368752963e-12 4.534572305004496e-12 1.1916453669099436e-10 7.373824211562936e-11
          6.308066886380547e-11 3.897390322204549e-11 1.290394348420336e-10 7.993476071751987e-11 6.845991126221809e-11 4.461747344303917e-11
          2.3563158025403994e-11 4.841114686827998e-11 2.55970033284008e-11 3.011481761976052e-11 1.86188457422458e-11 1.322176763701375e-11
          8.120553921454063e-12 3.255557744716522e-11 2.012343273507135e-11 1.4219648066903981e-11 1.1281617771607137e-11 4.872329074162885e-12
          1.2221642320338842e-11 5.3038359117882565e-12 6.041901527390784e-12 7.96059461205451e-12 5.016333224424682e-12 6.407137618001044e-12
          4.361483516987535e-12 5.493210567356812e-12 4.670483216813273e-12 1.2798964662741348e-11 9.48630658175518e-12 8.241326075224896e-12
          1.917521852485811e-11 1.267984326915198e-11 1.1672309772909742e-11 7.84821771715897e-12 2.5987603113690823e-11 1.722260406965756e-11
          1.533177529227026e-11 6.6837568365910795e-12 8.236209635669902e-12 4.286841837188597e-12 5.269696703179176e-12 4.5697965833292045e-12
          5.1755807765219785e-12 3.3467158330291495e-12 1.122030457265776e-11 7.183669127143363e-12 6.520177212093934e-12 3.145984760555122e-11
          2.0808771492955364e-11 1.836030905321443e-11 1.1941694453417377e-11 3.357628440467256e-11 2.2201532518055492e-11 1.9543972534984124e-11
          1.3557354623037259e-11 8.69555982687501e-12 7.72593197403202e-12 4.974273441164406e-12 1.446276253550772e-11 9.276332968633048e-12
          8.192874493590924e-12 2.690312431328779e-12 3.2922660600782553e-12 2.112515240491926e-12 2.5289045053263e-12 1.921798843933739e-12
          2.1972947895998607e-12 1.8002749919130627e-12 4.494538356399799e-12 3.059008912435765e-12 2.7582623324380684e-12 5.46824654150614e-12
          3.3660870560994515e-12 3.1809671423600455e-12 2.069094609554845e-12 5.841636059040414e-12 3.6163076286255934e-12 3.318200355109936e-12
          1.8937145865258925e-12 2.030127438422056e-12 1.4591241516225533e-12 1.5263388841687069e-12 1.3899466961201972e-12 1.3656900256968989e-12
          1.0997386989607134e-12 2.16654029031822e-12 1.5935536167148601e-12 1.3414333552736005e-12 4.5669942758556275e-11 1.2293323868583826e-11
          1.59753321234655e-11 3.066569963900655e-11 3.6659620732258994e-11 1.3223579401334707e-11 2.220735171366929e-11 2.348395126443999e-11
          1.233252452691727e-11 1.2791923069806364e-11 3.830589766793597e-12 3.264919793633148e-12 3.8425727055497504e-12 4.969922932373724e-12
          4.015551063702717e-12 6.039689897331416e-12 4.189705532808653e-11 1.1471100843518136e-11 1.1275614849496356e-11 3.9842349764946064e-11
          4.115320309743677e-11 1.4111426963665277e-11 2.390309582744627e-12 3.0182900649223262e-12 4.648211928721701e-12 2.8557714795139324e-12
          2.5801817649519946e-12 4.933099283403718e-12 4.468026651077568e-12 5.808971220938427e-12 4.200546023011424e-12 1.0782831126136663e-11
          5.046070050720435e-12 3.932807982228491e-12 3.3813868164847174e-12 2.4837211210967265e-11 2.0821017345495597e-11 2.0659371589007757e-11
          1.978115204014161e-11 2.5022321031299846e-11 3.0489624081055466e-11 2.944631141987224e-11 2.8297827054376877e-11 4.447882582623156e-12
          3.841159275784613e-12 4.3450613457817186e-12 3.4983647599321854e-12 1.7742647659129816e-12 2.718707149050385e-12 2.785136668957494e-12
          2.449504066004746e-12 4.438911918846518e-12 1.0553165386970514e-11 2.0351942295097123e-12 9.952548070076849e-13 9.072914539787224e-13
          1.7140189338377812e-12 8.193281009497601e-13 2.641653835382872e-12 6.170002962856477e-12 1.577089707499259e-12 5.586893161053092e-12
          1.1579788325650125e-11 2.4236175165267325e-12 1.9886111452799953e-12 7.213320186679538e-12 6.855301279339467e-12 4.114200530768556e-12
          3.903905791219274e-12 5.886931641073409e-12 3.342840609061194e-12 1.601138323794432e-11 1.5152230235782478e-11 1.2849594632646293e-11
          4.5753727908316195e-12 1.6013847659997451e-12 2.5965402282975247e-12 2.0292596330722843e-12 3.233537312419248e-12 1.8372424024762025e-12
          9.78447779436671e-12 6.716338012475368e-12 2.3491210853861955e-12 3.5978177107737363e-12 2.440676686647872e-12 7.2054990231863005e-12
          4.60530277499908e-12 2.468600165037738e-12 8.62073740465393e-11 8.154150520199997e-11 6.885856310398778e-11 2.1715759607251897e-11
          5.168493811378962e-11 3.4398656002542435e-11 1.0415844811364783e-10 9.937566995580822e-11 8.567346899060119e-11 1.0718017605830964e-10
          1.0289714889299721e-10 9.001763217628027e-11 6.574162623461556e-11 4.4417136840854284e-11 7.015444101483715e-11 4.794480593293305e-11
          3.157797359635948e-11 2.9801380337970397e-11 2.5049907332598976e-11 4.9969972809790484e-11 4.724675957412518e-11 3.98607434528237e-11
          1.876630644815212e-11 1.2562065623557377e-11 2.989235972129443e-11 1.988902572281284e-11 1.3071175821824876e-11 7.124166538773423e-12
          2.0357642282948842e-11 1.0817002263854171e-11 3.566214682963436e-12 2.3284314733066394e-12 5.241931432609689e-12 2.6404313509077198e-11
          1.3940670043422793e-11 2.8671210385695136e-11 1.5148073468707457e-11 6.680857217452045e-12 3.4402690034599992e-12 7.253733413501258e-12
          4.254094656952635e-12 8.834737488486403e-12 2.4032070515490504e-11 1.1840278322693264e-11 7.835189321580959e-12 4.0663316077125086e-11
          1.9078138147374144e-11 6.334064486016094e-11 2.8414756314297498e-11 1.724357169032062e-11 8.882429281150229e-11 3.849834584996586e-11
          1.0959503891007614e-10 4.660934312367466e-11 2.2205687725707622e-11 1.1762867236462697e-10 4.9741050038164426e-11
        </DataArray>
        <DataArray type="Float64" Name="gradient_matprop_error" format="ascii" RangeMin="0" RangeMax="0">
          0 0 0 0 0 0
          0 0 0 0 0 0
          0 0 0 0 0 0
          0 0 0 0 0 0
          0 0 0 0 0 0
          0 0 0 0 0 0
          0 0 0 0 0 0
          0 0 0 0 0 0
          0 0 0 0 0 0
          0 0 0 0 0 0
          0 0 0 0 0 0
          0 0 0 0 0 0
          0 0 0 0 0 0
          0 0 0 0 0 0
          0 0 0 0 0 0
          0 0 0 0 0 0
          0 0 0 0 0 0
          0 0 0 0 0 0
          0 0 0 0 0 0
          0 0 0 0 0 0
          0 0 0 0 0 0
          0 0 0 0 0 0
          0 0 0 0 0 0
          0 0 0 0 0 0
          0 0 0 0 0 0
          0 0 0 0 0 0
          0 0 0 0 0 0
          0 0 0 0 0 0
          0 0 0 0 0 0
          0 0 0 0 0 0
          0 0 0 0 0 0
          0 0 0 0 0 0
          0 0 0 0 0 0
          0 0 0 0 0 0
          0 0 0 0 0 0
          0 0 0 0 0 0
          0 0 0 0 0 0
          0 0 0 0 0 0
          0 0 0 0 0 0
          0 0 0 0 0 0
          0 0 0 0 0 0
          0 0 0 0 0 0
          0 0 0 0 0 0
          0 0 0 0 0 0
          0 0 0 0 0 0
          0 0 0 0 0 0
          0 0 0 0 0 0
          0 0 0 0 0 0
          0 0 0 0 0 0
          0 0 0 0 0 0
          0 0 0 0 0 0
          0 0 0 0 0 0
          0 0 0 0 0 0
          0 0 0 0 0 0
          0 0 0 0 0 0
          0 0 0 0 0 0
          0 0 0 0 0 0
          0 0 0 0 0 0
          0 0 0 0 0 0
          0 0 0 0 0 0
          0 0 0 0 0 0
          0 0 0 0 0 0
          0 0 0 0 0 0
          0 0 0 0 0 0
          0 0 0 0 0 0
          0 0 0 0 0 0
          0 0 0 0 0 0
          0 0 0 0 0 0
          0 0 0 0 0 0
          0 0 0 0 0 0
          0 0 0 0 0 0
          0 0 0 0 0 0
          0 0 0 0 0 0
          0 0 0 0 0 0
          0 0 0 0 0 0
          0 0 0 0 0 0
          0 0 0 0 0 0
          0 0 0 0 0 0
          0 0 0 0 0 0
          0 0 0 0 0 0
          0 0 0 0 0 0
          0 0 0 0 0 0
          0 0 0 0 0 0
          0 0 0 0 0 0
          0 0 0 0 0 0
          0 0 0 0 0 0
          0 0 0 0 0 0
          0 0 0 0 0 0
          0 0 0 0 0 0
          0 0 0 0 0 0
          0 0 0 0 0 0
          0 0 0 0 0 0
          0 0 0 0 0 0
          0 0 0 0 0 0
          0 0 0 0 0 0
          0 0 0 0 0 0
          0 0 0 0 0 0
          0 0 0 0 0 0
          0 0 0 0 0 0
          0 0 0 0 0 0
          0 0 0 0 0 0
          0 0 0 0 0 0
          0 0 0 0 0 0
          0 0 0 0 0
        </DataArray>
        <DataArray type="Float64" Name="initial_marker" format="ascii" RangeMin="0" RangeMax="2">
          1 2 2 0 2 2
          1.25 2 0 2 0 0
          1 2 2 2 2 1.25
          0 0.25 0 2 1.75 2
          2 2 2 2 2 2
          2 2 0 0 2 2
          0 2 1.75 0 1.75 2
          2 2 2 0.5 0 2
          0.5 2 2 2 2 2
          2 2 1.75 2 2 0
          0 0 0 0 0 0
          0 0 0 0.75 0 0
          0 1 0.5 0 0 0
          0 0 0 0 0 0
          0 0 0 0 0 0
          0 0 0 2 2 2
          2 2 1 1.5 1 2
          2 2 2 2 2 2
          2 0 0.75 0.5 1.75 0.6666666666666666
          2 2 2 2 1.5 1.3333333333333333
          2 1 1.5 1 2 2
          2 2 2 2 2 2
          2 2 2 2 2 2
          2 2 2 2 2 2
          2 2 2 2 2 2
          2 2 1.75 2 2 2
          2 2 2 2 2 2
          2 2 2 2 2 2
          2 2 2 1 1 1.5
          1.5 0 1 1 1 1.5
          1 2 2 2 2 0
          0 1 1 0 1 1
          0 1 1 2 2 2
          2 0.5 1.25 0 1 0
          1 1 2 2 2 0
          0.75 0 0.5 0 0.5 0
          1.75 1.6666666666666667 1.6666666666666667 2 2 2
          2 2 2 2 2 2
          2 2 2 2 2 2
          2 2 2 2 2 2
          2 2 2 2 2 2
          2 2 2 2 2 2
          0 0 0.5 0.5 0 0
          0 0 0.5 0 1.5 1.5
          1.6666666666666667 2 0 0.5 0 0.5
          0 0 0 1.5 1.6666666666666667 1
          2 2 1.75 1.5 2 2
          2 2 2 1 1.5 2
          2 0.5 1 0 0.5 0
          0.5 0 1.75 1.5 1 0
          0.5 0 0.5 0 0 0
          1.25 0.5 2 2 2 2
          2 2 2 2 2 2
          2 2 2 2 2 2
          2 2 2 2 2 2
          2 2 2 2 2 2
          2 2 2 2 2 2
          2 2 2 2 2 2
          2 2 2 2 2 2
          2 2 2 2 2 2
          2 2 2 2 2 2
          2 2 2 2 2 2
          2 2 2 2 2 2
          2 1.5 1.6666666666666667 2 2 2
          1.75 1.5 2 1.6666666666666667 2 2
          2 2 2 2 2 2
          2 2 2 2 2 2
          2 2 2 2 2 1.5
          2 1.5 0 0.5 0 0.5
          0 0 0 1 1 0
          1.5 1.25 1 0.5 2 1.75
          2 1 1 0.5 0.75 0
          0 0 1.25 1 0.5 2
          2 2 2 2 2 2
          1.75 1.25 1.5 0.5 2 1.5
          2 0 0.5 0 0.5 0
          0 0 1 1 0 1
          1 0 0 1 1 0
          0.5 0.5 0 0 0 0
          0 0.5 0 0 0 0
          0 0 0 0 0 0
          0 0 0 0 0 0
          0 0 0 0 0 0
          0 0 0 0 0 1
          0.25 1 0 0 0.25 0
          0 0 0 0 0.5 0
          0 0.25 1 0 1 0
          0 1 0 0 0 0
          0 0 0 0 0 0
          0 0 0 0 0 2
          2 1 1.3333333333333333 2 2 2
          2 2 2 2 2 2
          2 1.5 1.75 1.5 1.75 1.25
          2 2 1.5 1.75 1.3333333333333333 2
          1.75 1 2 2 2 2
          2 2 2 2 2 2
          2 2 2 2 2 2
          2 2 2 2 2 2
          2 2 2 2 2 2
          2 2 1.5 1 2 2
          2 2 2 2 1.3333333333333333 2
          1 0 1.5 0.5 0 2
          1.25 2 1.75 1.5 2 2
          2 2 1.3333333333333333 2 2
        </DataArray>
        <DataArray type="Float64" Name="markers_norefine" format="ascii" RangeMin="0" RangeMax="0">
          0 0 0 0 0 0
          0 0 0 0 0 0
          0 0 0 0 0 0
          0 0 0 0 0 0
          0 0 0 0 0 0
          0 0 0 0 0 0
          0 0 0 0 0 0
          0 0 0 0 0 0
          0 0 0 0 0 0
          0 0 0 0 0 0
          0 0 0 0 0 0
          0 0 0 0 0 0
          0 0 0 0 0 0
          0 0 0 0 0 0
          0 0 0 0 0 0
          0 0 0 0 0 0
          0 0 0 0 0 0
          0 0 0 0 0 0
          0 0 0 0 0 0
          0 0 0 0 0 0
          0 0 0 0 0 0
          0 0 0 0 0 0
          0 0 0 0 0 0
          0 0 0 0 0 0
          0 0 0 0 0 0
          0 0 0 0 0 0
          0 0 0 0 0 0
          0 0 0 0 0 0
          0 0 0 0 0 0
          0 0 0 0 0 0
          0 0 0 0 0 0
          0 0 0 0 0 0
          0 0 0 0 0 0
          0 0 0 0 0 0
          0 0 0 0 0 0
          0 0 0 0 0 0
          0 0 0 0 0 0
          0 0 0 0 0 0
          0 0 0 0 0 0
          0 0 0 0 0 0
          0 0 0 0 0 0
          0 0 0 0 0 0
          0 0 0 0 0 0
          0 0 0 0 0 0
          0 0 0 0 0 0
          0 0 0 0 0 0
          0 0 0 0 0 0
          0 0 0 0 0 0
          0 0 0 0 0 0
          0 0 0 0 0 0
          0 0 0 0 0 0
          0 0 0 0 0 0
          0 0 0 0 0 0
          0 0 0 0 0 0
          0 0 0 0 0 0
          0 0 0 0 0 0
          0 0 0 0 0 0
          0 0 0 0 0 0
          0 0 0 0 0 0
          0 0 0 0 0 0
          0 0 0 0 0 0
          0 0 0 0 0 0
          0 0 0 0 0 0
          0 0 0 0 0 0
          0 0 0 0 0 0
          0 0 0 0 0 0
          0 0 0 0 0 0
          0 0 0 0 0 0
          0 0 0 0 0 0
          0 0 0 0 0 0
          0 0 0 0 0 0
          0 0 0 0 0 0
          0 0 0 0 0 0
          0 0 0 0 0 0
          0 0 0 0 0 0
          0 0 0 0 0 0
          0 0 0 0 0 0
          0 0 0 0 0 0
          0 0 0 0 0 0
          0 0 0 0 0 0
          0 0 0 0 0 0
          0 0 0 0 0 0
          0 0 0 0 0 0
          0 0 0 0 0 0
          0 0 0 0 0 0
          0 0 0 0 0 0
          0 0 0 0 0 0
          0 0 0 0 0 0
          0 0 0 0 0 0
          0 0 0 0 0 0
          0 0 0 0 0 0
          0 0 0 0 0 0
          0 0 0 0 0 0
          0 0 0 0 0 0
          0 0 0 0 0 0
          0 0 0 0 0 0
          0 0 0 0 0 0
          0 0 0 0 0 0
          0 0 0 0 0 0
          0 0 0 0 0 0
          0 0 0 0 0 0
          0 0 0 0 0 0
          0 0 0 0 0 0
          0 0 0 0 0
        </DataArray>
        <DataArray type="Float64" Name="markers_mustrefine" format="ascii" RangeMin="0" RangeMax="2">
          1 2 2 0 2 2
          1.25 2 0 2 0 0
          1 2 2 2 2 1.25
          0 0.25 0 2 1.75 2
          2 2 2 2 2 2
          2 2 0 0 2 2
          0 2 1.75 0 1.75 2
          2 2 2 0.5 0 2