<?xml version="1.0"?>
<VTKFile type="UnstructuredGrid" version="0.1" byte_order="LittleEndian" header_type="UInt32" compressor="vtkZLibDataCompressor">
  <UnstructuredGrid>
    <Piece NumberOfPoints="654" NumberOfCells="370">
      <PointData>
        <DataArray type="Int32" Name="libmesh_node_id" format="ascii" RangeMin="532" RangeMax="3159">
          647 655 739 744 746 890
          891 897 910 914 915 919
          1077 1078 1079 1080 1081 1082
          1083 1087 1088 1089 1101 1102
          1103 1104 1105 1106 1107 1108
          1109 1110 1131 1132 1133 1134
          1138 1139 1141 1142 1144 1159
          1160 1163 1165 1166 1168 1179
          1180 1183 1184 1186 1188 1524
          1525 1526 1527 1528 1529 1530
          1609 1610 1611 1612 1613 1614
          1615 1616 1635 1636 1637 1653
          1671 1672 1673 1674 1675 1676
          1677 1678 1679 1680 1681 1682
          1683 1684 1685 1686 1687 1688
          1689 1690 1691 1692 1693 1694
          1695 1696 1697 1698 1699 1700
          1701 1702 1703 1704 1705 1706
          1707 1708 1709 1710 1711 1712
          1713 1714 1715 1716 1717 1718
          1719 1720 1721 1722 1723 1724
          1725 1726 1727 1728 1729 1730
          1731 1732 1733 1734 1735 1736
          1737 1738 1739 1740 1741 1742
          1743 1744 1745 1746 1747 1748
          1749 1750 1752 1753 1754 1756
          1771 1772 1773 1774 1775 1776
          1777 1778 1779 1780 1791 1792
          1793 1794 1795 1796 1797 1798
          1799 1807 1808 1809 1810 1811
          1812 1813 1814 1815 1816 1827
          1828 1829 1830 1831 1832 1833
          2751 2775 2776 2777 2780 2798
          2799 2804 2816 2817 2818 2819
          2820 2821 2822 2823 2824 2825
          2826 2827 2828 2829 2830 2831
          2832 2833 2834 2835 2836 2837
          2838 2839 2840 2841 2842 2843
          2844 2845 2846 2847 2848 2849
          2850 2851 2852 2853 2854 2855
          2856 2857 2858 2859 2860 2861
          2862 2863 2864 2865 2866 2867
          2868 2869 2870 2871 2872 2873
          2874 2875 2876 2877 2878 2879
          2880 2881 2882 2883 2884 2885
          2886 2887 2888 2889 2890 2891
          2892 2893 2894 2895 2896 2897
          2898 2899 2900 2901 2902 2903
          2904 2905 2906 2907 2908 2909
          2910 2911 2912 2913 2914 2915
          2916 2917 2918 2919 2920 2921
          2922 2923 2924 2925 2926 2927
          2928 2929 2930 2931 2932 2933
          2934 2935 2936 2937 2938 2939
          2940 2941 2942 2943 2944 2945
          2946 2947 2948 2949 2950 2951
          2952 2953 2954 2955 2956 2957
          2958 2959 2960 2961 2962 2963
          2964 2965 2966 2967 2968 2969
          2970 2971 2972 2973 2974 2975
          2976 2977 2978 2979 2980 2981
          2982 2983 2984 2986 2991 2993
          2997 2998 2999 3000 3001 3002
          3003 3004 3005 3006 3007 3008
          3009 3010 3011 3012 3013 3014
          3015 3016 3017 3018 3019 3020
          3021 3022 3023 3024 3025 3026
          3027 3028 3029 3030 3031 3032
          3033 3034 3035 3036 3037 3038
          3039 3040 3041 3042 3043 3044
          3045 3046 3047 3048 3049 3050
          3051 3052 3053 3054 3055 3056
          3057 3058 3059 3060 3061 3062
          3063 3064 3065 3066 3069 3071
          3072 3074 3085 3087 3089 3091
          3099 3100 3103 3105 3106 3108
          3119 3121 3123 3125 3133 3134
          3135 3136 3137 3138 3139 3140
          3141 3142 3143 3144 3145 3146
          3147 3149 3153 3155 3157 3159
          646 649 533 652 648 651
          654 653 808 812 813 809
          645 532 845 843 658 584
          850 849 880 884 885 881
          734 738 735 883 892 893
          894 895 896 898 889 899
          748 749 755 902 743 756
          911 903 912 757 913 906
          916 656 761 917 908 918
          1066 1067 1068 1084 1085 1072
          1086 736 1075 1090 737 740
          1121 1113 1096 1122 1114 1123
          1124 745 1128 1119 1129 1135
          1136 1137 1140 750 1143 751
          1181 1164 1182 1127 1185 759
          1187 1519 1520 1523 1630 1093
          1632 1631 1651 1654 1652 1607
          1626 1627 1629 1094 1639 1656
          1665 1667 1099 1669 1781 1782
          1751 1783 1784 1785 1786 1787
          1788 1790 1800 1755 1801 1802
          1803 1804 1806 1821 1834 1836
          1838 1840 2778 2779 2796 2797
          2781 2801 2800 2802 2803 1659
          2805 2784 2810 2812 2814 2985
          3067 3068 3070 1817 3073 1818
          2992 3086 3088 3090 3101 3102
          3104 1823 3107 1824 3120 3122
          3124 1826 3148 3154 3156 3158
        </DataArray>
        <DataArray type="Float64" Name="bounds" format="ascii" RangeMin="0" RangeMax="0">
          0 0 0 0 0 0
          0 0 0 0 0 0
          0 0 0 0 0 0
          0 0 0 0 0 0
          0 0 0 0 0 0
          0 0 0 0 0 0
          0 0 0 0 0 0
          0 0 0 0 0 0
          0 0 0 0 0 0
          0 0 0 0 0 0
          0 0 0 0 0 0
          0 0 0 0 0 0
          0 0 0 0 0 0
          0 0 0 0 0 0
          0 0 0 0 0 0
          0 0 0 0 0 0
          0 0 0 0 0 0
          0 0 0 0 0 0
          0 0 0 0 0 0
          0 0 0 0 0 0
          0 0 0 0 0 0
          0 0 0 0 0 0
          0 0 0 0 0 0
          0 0 0 0 0 0
          0 0 0 0 0 0
          0 0 0 0 0 0
          0 0 0 0 0 0
          0 0 0 0 0 0
          0 0 0 0 0 0
          0 0 0 0 0 0
          0 0 0 0 0 0
          0 0 0 0 0 0
          0 0 0 0 0 0
          0 0 0 0 0 0
          0 0 0 0 0 0
          0 0 0 0 0 0
          0 0 0 0 0 0
          0 0 0 0 0 0
          0 0 0 0 0 0
          0 0 0 0 0 0
          0 0 0 0 0 0
          0 0 0 0 0 0
          0 0 0 0 0 0
          0 0 0 0 0 0
          0 0 0 0 0 0
          0 0 0 0 0 0
          0 0 0 0 0 0
          0 0 0 0 0 0
          0 0 0 0 0 0
          0 0 0 0 0 0
          0 0 0 0 0 0
          0 0 0 0 0 0
          0 0 0 0 0 0
          0 0 0 0 0 0
          0 0 0 0 0 0
          0 0 0 0 0 0
          0 0 0 0 0 0
          0 0 0 0 0 0
          0 0 0 0 0 0
          0 0 0 0 0 0
          0 0 0 0 0 0
          0 0 0 0 0 0
          0 0 0 0 0 0
          0 0 0 0 0 0
          0 0 0 0 0 0
          0 0 0 0 0 0
          0 0 0 0 0 0
          0 0 0 0 0 0
          0 0 0 0 0 0
          0 0 0 0 0 0
          0 0 0 0 0 0
          0 0 0 0 0 0
          0 0 0 0 0 0
          0 0 0 0 0 0
          0 0 0 0 0 0
          0 0 0 0 0 0
          0 0 0 0 0 0
          0 0 0 0 0 0
          0 0 0 0 0 0
          0 0 0 0 0 0
          0 0 0 0 0 0
          0 0 0 0 0 0
          0 0 0 0 0 0
          0 0 0 0 0 0
          0 0 0 0 0 0
          0 0 0 0 0 0
          0 0 0 0 0 0
          0 0 0 0 0 0
          0 0 0 0 0 0
          0 0 0 0 0 0
          0 0 0 0 0 0
          0 0 0 0 0 0
          0 0 0 0 0 0
          0 0 0 0 0 0
          0 0 0 0 0 0
          0 0 0 0 0 0
          0 0 0 0 0 0
          0 0 0 0 0 0
          0 0 0 0 0 0
          0 0 0 0 0 0
          0 0 0 0 0 0
          0 0 0 0 0 0
          0 0 0 0 0 0
          0 0 0 0 0 0
          0 0 0 0 0 0
          0 0 0 0 0 0
          0 0 0 0 0 0
          0 0 0 0 0 0
          0 0 0 0 0 0
        </DataArray>
        <DataArray type="Float64" Name="gradient_error" format="ascii" RangeMin="2.4273249691796724e-10" RangeMax="1.3089456686925207e-7">
          3.1746765255961446e-8 1.6343854405511262e-9 1.198393731956762e-7 6.731447304385577e-10 1.2662380832034222e-7 1.2252973073008374e-9
          1.1012908283239898e-9 9.772843493471422e-10 2.284769634636329e-9 8.763924392873754e-10 1.0481259857077266e-9 1.2198595321280778e-9
          5.06075392191962e-8 4.398005839504469e-8 1.2231777210092751e-7 1.0481299491338451e-7 3.474210447302807e-8 1.1392642135888704e-7
          9.620588178788163e-8 1.2024224576767386e-7 1.022966920438669e-7 9.97265221629077e-8 2.8226396534487873e-8 4.212839944911257e-8
          3.321028068532146e-8 4.336668560813328e-8 1.0516177780967743e-7 1.051895269664065e-7 6.908853882208954e-10 2.661629360091817e-8
          3.0963913149096116e-8 1.2330264806177525e-7 2.8785240777100286e-8 2.590455591661965e-8 1.0143307043981496e-7 8.440011692197576e-8
          1.8858362954384595e-8 4.6450133054876236e-8 1.1490362022470805e-7 9.320642395813747e-8 7.448119471764637e-8 3.987546144892374e-8
          5.036311614366186e-8 1.0196155223329656e-7 2.752457759972476e-9 6.815724067079963e-9 1.269771503049247e-7 4.980351429170758e-8
          9.40038839662884e-8 2.007794689518317e-8 2.9217810872525532e-8 1.1395732866107502e-7 3.301955601990978e-8 1.0525101940185135e-8
          1.8040845626049244e-8 1.028364606994813e-8 1.585134508199338e-8 6.35734902774009e-9 1.0548588546482573e-8 1.0177607346800836e-8
          4.38919735577974e-8 4.232739929524617e-8 4.4589130979729226e-8 3.750646034240344e-8 4.9039629476812434e-8 4.6877899937154125e-8
          4.906666639548346e-8 4.043859407644097e-8 3.042523569242406e-8 3.361508338494683e-8 3.016690141001854e-8 1.1248099538830207e-8
          4.531134267387373e-8 4.432899056085359e-8 4.8616296312665985e-8 4.742116719681395e-8 4.070702098171582e-8 4.313592836946936e-8
          2.6048172464418e-8 3.52627041551284e-8 3.284049612441361e-8 4.401630263680448e-8 5.20921131279174e-8 5.066202683742535e-8
          5.585480693582414e-8 5.411055247122668e-8 4.56157904994124e-8 4.813538298669386e-8 3.056901448171477e-8 3.042131281043274e-8
          3.305296882264192e-8 4.023209712618792e-8 3.068190881527651e-8 3.4290226073243035e-8 3.1283046413020516e-8 3.5642614423735603e-8
          2.7113721978441064e-8 3.051304863088789e-8 3.1239410189494384e-8 4.027893980142739e-8 4.2815443722992015e-8 3.703882270349187e-8
          3.18923703385278e-8 3.6960107966698036e-8 3.233135254877016e-8 3.8173474387942935e-8 2.762372292166946e-8 3.192057548150457e-8
          3.244248080912739e-8 4.542380926632624e-8 4.8138157974378744e-8 4.053163064213647e-8 2.750873139177084e-9 1.36491795956348e-8
          2.3884835903915047e-9 8.900714665878652e-9 3.441792654432128e-8 3.1827331524782916e-8 5.584655791882288e-10 2.2727602959812696e-9
          1.904337449309855e-9 2.4700874074123433e-8 2.4063798192393927e-9 3.775253834259669e-9 2.84116024971693e-9 3.904751357858969e-9
          2.9256097124234996e-8 3.1749205429336084e-8 1.1843200970358948e-9 1.9313461968476515e-9 2.4257730329546487e-9 2.8666714489594943e-8
          4.314666412147828e-8 4.6256968597827184e-8 4.151378834835681e-8 4.407272492491712e-8 4.363399197131134e-8 4.688523218412102e-8
          4.2862306573064596e-8 4.9620662040228304e-8 5.331744061363972e-8 4.674910964985228e-8 4.9540406041734666e-8 5.0421551142672396e-8
          5.437416150563767e-8 4.865238605677131e-8 5.38468575437735e-8 5.101190398470297e-8 5.251429747785101e-8 4.286089344880048e-8
          5.694904638259144e-8 5.335146895818106e-8 4.360223198896023e-8 3.2033832057937524e-8 3.244412255552901e-8 2.661709167172527e-8
          5.992758758748889e-8 5.775643550236736e-8 6.419201393148212e-8 6.149232845936058e-8 5.062384056756914e-8 5.297206907237023e-8
          3.625089898909987e-8 3.602012230400702e-8 3.933833011320217e-8 4.6742081859712334e-8 3.253337928937339e-8 3.9205443041378583e-8
          3.996938703565726e-8 2.7521922106778265e-8 3.274848836486473e-8 3.278727891381312e-8 5.0895498397621644e-8 5.362538679224124e-8
          4.3802426982648826e-8 3.6651984427805203e-9 4.411698116173872e-9 4.735079115984068e-9 5.306846119025733e-9 2.739056908393838e-8
          2.2757152141712654e-8 2.1520852179853875e-9 3.1448093095867824e-9 4.065484744198271e-9 1.9412946849461132e-8 5.020817721482231e-8
          4.6832051626695026e-8 5.2473424756260727e-8 5.545354801752696e-8 4.4563531705649186e-8 3.397434664885191e-8 5.5317050170174995e-8
          4.857766968734323e-9 4.697366578380315e-9 4.700299571688008e-9 4.703232564995702e-9 3.305629799983711e-9 1.5014660882281313e-9
          1.9669415101572484e-9 1.2468544076597785e-9 5.101209138393478e-9 5.043197461942766e-9 5.329320610478693e-9 4.985185785492054e-9
          5.534394100257646e-9 5.510494877609117e-9 5.684979208536806e-9 5.486595654960586e-9 5.963913273908657e-9 5.830185928774179e-9
          5.883578039770554e-9 6.086122971917771e-9 6.096122699105502e-9 6.14198786630278e-9 6.275169097967985e-9 6.447173861036616e-9
          6.669858554733277e-9 6.193238154830938e-9 6.581416017129102e-9 6.1312010622178e-9 6.904513931360247e-9 7.243418800022985e-9
          6.877661082887129e-9 4.666013445606545e-9 4.738353024939706e-9 4.6201353669431755e-9 4.793611634541755e-9 4.81069260427287e-9
          4.9670879021403354e-9 3.0881900624367716e-9 3.3999538572052316e-9 3.160071401689591e-9 3.9399916098836e-9 4.584688638802678e-9
          4.816109638208553e-9 4.5475390650846814e-9 4.815852078147357e-9 5.047530637614428e-9 5.353144784458591e-9 2.534583234270563e-9
          2.976893980616144e-9 2.8188438038718866e-9 3.707404109048838e-9 4.6195537803883685e-9 4.688757835590199e-9 4.842568035073322e-9
          5.906572915980771e-9 5.9220416610058325e-9 4.720859189108253e-9 5.085915021780803e-9 5.157915504993445e-9 1.2686258805141484e-9
          1.7151297750203867e-9 1.0927871312709938e-9 1.4982852761944574e-9 3.060096817386256e-9 2.8511065916931e-9 5.916893889743639e-10
          1.0638604235669582e-9 9.3433040761455e-10 2.528305931473956e-9 1.0037395304115623e-9 1.3487026221728862e-9 1.0247307175836017e-9
          1.2966794199583457e-9 2.657356696748302e-9 2.483517439372703e-9 5.7329576962971e-10 8.653416819214739e-10 9.023961799308267e-10
          2.057840040057482e-9 4.407044214130221e-9 4.40222795144771e-9 4.855528463014555e-9 5.00602614062714e-9 4.194534647872074e-9
          4.115698067305221e-9 4.868488890955789e-9 4.370200777461992e-9 4.310754644826189e-9 5.11935387536159e-9 5.223102533240062e-9
          4.019542365815731e-9 3.917253036007613e-9 5.080792245729735e-9 4.5327602366206965e-9 4.808251793275343e-9 4.558449790841844e-9
          4.833415052516995e-9 5.501608084687277e-9 5.566961731044028e-9 2.3400280636133022e-9 2.7180078908762507e-9 2.7250170743371736e-9
          3.896457732312843e-9 4.635625873970517e-9 4.912368171564619e-9 4.77762192555673e-9 5.045373671357676e-9 5.690139749752626e-9
          5.849693770507081e-9 2.573364205097034e-9 2.8466563981759177e-9 3.0694990087429296e-9 3.7944723356220905e-9 6.027012074870205e-9
          6.262399704818966e-9 6.1345513302958416e-9 6.499256261742023e-9 5.248653711173632e-9 5.2634165784750235e-9 5.800379675860776e-9
          6.500315012502019e-9 6.759230187354823e-9 6.809460994657505e-9 7.132198250854106e-9 5.340628574402284e-9 5.457800310538201e-9
          6.212261068815186e-9 1.1864630052234487e-9 1.3914649761242783e-9 1.4368061691190775e-9 1.6061604579113067e-9 2.368481240322696e-9
          2.3722011432239073e-9 9.282044276875073e-10 1.079839717276189e-9 1.3429939002644845e-9 1.851140486288761e-9 1.7120907798012614e-9
          1.879938515260633e-9 2.011403526160652e-9 2.192042341025457e-9 2.506825048888067e-9 2.7436936529861696e-9 1.406717031046709e-9
          1.6161314793306825e-9 1.8886601462437906e-9 2.1351263713039286e-9 4.227245421530556e-9 4.167659242425267e-9 5.313995309440829e-9
          5.366430945106254e-9 3.817969415623321e-9 3.751868720409317e-9 5.16513286553399e-9 4.172209596164527e-9 4.250936000932883e-9
          5.378555345272926e-9 5.3871658517836905e-9 3.759278137168282e-9 3.861312955476026e-9 5.073849459343363e-9 6.357492256761815e-9
          6.604351752554527e-9 6.783943221969741e-9 7.241337915262632e-9 6.735944993066766e-9 7.0328095424237706e-9 7.371592037557201e-9
          7.8526653517702e-9 7.608321309578914e-9 8.000860241910906e-9 7.585178036979803e-9 8.409517797432847e-9 8.848416865413598e-9
          8.443378983106063e-9 7.531705630689057e-9 7.789882478643033e-9 8.61732916437797e-9 9.337562384058999e-9 9.488525765959067e-9
          4.998388223240591e-9 5.245325241702865e-9 5.308619027741458e-9 5.527340990574044e-9 6.053648520902195e-9 6.308859795181255e-9
          3.2133667788323016e-9 3.393452550573474e-9 3.810083768176508e-9 4.1095508902178944e-9 5.707097171631414e-9 5.8974439721818654e-9
          6.186056847886204e-9 6.354205778802363e-9 6.6280875183639e-9 7.0230584979112266e-9 4.17353059233011e-9 4.302766491894684e-9
          4.860899501257249e-9 4.813038123593979e-9 7.042561747166507e-9 7.351543586180244e-9 7.470088712693762e-9 7.831430535404613e-9
          5.6275386773684205e-9 5.847594232068335e-9 6.6095138966156996e-9 7.695012359368663e-9 8.084441946226674e-9 8.221640454741842e-9
          8.645121606349418e-9 6.1251090752056775e-9 6.484998062018888e-9 7.446179693262716e-9 2.3350474530532024e-9 2.5377918970009822e-9
          2.6793621975294953e-9 2.9168950519040277e-9 3.059825059704876e-9 3.444881769777162e-9 1.8826455381611687e-9 2.1749774237062187e-9
          2.484361326633387e-9 2.766507465515719e-9 3.0555187797042215e-9 3.3315251050837293e-9 3.471868838968963e-9 3.784268165933555e-9
          3.900074154792319e-9 4.419680385980732e-9 2.442225724944284e-9 2.81959562831805e-9 3.183556849400135e-9 3.577581747354279e-9
          4.414315018571325e-9 4.633905479128989e-9 5.4495162586816605e-9 6.36050742103328e-9 4.050354867159906e-9 4.274849424570891e-9
          5.0350041125396426e-9 4.896843190388715e-9 5.26968574408625e-9 6.892290887733295e-9 7.1599117328665245e-9 4.523975151670553e-9
          4.889842391174475e-9 6.615263198761326e-9 6.737549636820247e-9 6.891821042904533e-9 7.492360543456601e-9 5.360134332812333e-9
          5.489160643391538e-9 5.883551316742083e-9 8.523989091036901e-9 9.109349544149418e-9 6.924570782447053e-9 8.158531376380624e-9
          3.930025392292859e-9 4.281291413666715e-9 4.993920818986347e-9 3.0831757619124885e-9 3.578021147716387e-9 4.5881309270237605e-9
          5.770991012419493e-9 7.516027376769286e-9 5.403256257959682e-9 7.1593443501375225e-9 7.956074264857967e-9 8.230415795449132e-9
          8.717488336822517e-9 8.23458110047543e-9 8.035543047729306e-9 8.054514482323194e-9 8.115011830600642e-9 8.25427587399255e-9
          8.673136891279865e-9 8.32503947417454e-9 8.823128525935863e-9 8.27813595253597e-9 8.628785445737213e-9 8.415497847873653e-9
          9.144797348846228e-9 9.214452339311956e-9 9.072889395383825e-9 9.300421859135942e-9 9.000981441921422e-9 9.386391378959928e-9
          2.3045547489951023e-9 9.453249734194766e-10 9.004616751221038e-10 2.644856018856947e-9 7.821693585676212e-9 1.1957882337115597e-8
          9.334981326131397e-10 2.3607810598820117e-9 6.343981120316756e-10 2.5514800582256587e-10 2.4273249691796724e-10 5.517137666865596e-10
          1.3777717532602423e-9 5.684300672985714e-10 2.5802409785102263e-10 6.241268265794564e-10 1.5668950778927727e-9 5.54290785329561e-10
          2.7941323122551273e-10 7.473343843483132e-10 2.439259023398928e-8 1.2736563545059463e-8 8.892122650444459e-9 1.7567024457362665e-8
          5.32742657048323e-8 1.9729490157985903e-8 3.352234347802025e-8 1.3881805397889258e-9 6.357503819290994e-9 4.456943137734687e-9
          7.08761589508112e-10 2.9164948310989114e-9 2.2284274860728245e-9 2.5563824561783826e-9 5.047681755829455e-9 1.5403601410467376e-9
          1.5239444768045528e-8 2.013558215681638e-8 1.7111278300923145e-8 5.1076982648628846e-9 2.0452115158074662e-8 2.033661837116808e-8
          4.2213404607225375e-9 8.920466406642068e-9 1.2232207182663053e-9 1.4109050135275917e-8 1.6827619554032578e-9 1.5121195202501136e-9
          6.314358753457151e-10 3.374775423689673e-8 1.6852056688380178e-8 6.157911286808746e-9 1.273323454842125e-8 2.179986016011988e-9
          5.277318307117088e-8 1.2701893903512402e-7 1.1033895797064033e-7 2.8413805759788378e-8 6.397856078326144e-8 7.039739729842936e-8
          5.591271294800499e-8 1.1740758190431771e-7 1.2992935685333839e-7 9.216133324106808e-8 1.250133255906254e-7 8.502412524535042e-8
          6.59104733520213e-8 7.162359906043985e-8 1.3089456686925207e-7 1.0924546116126547e-7 1.1266167875717718e-7 5.8589373942791894e-8
          1.0315880955447266e-7 1.1793916493198464e-7 1.2757903662279988e-7 1.2943820620318576e-7 1.2268674993272138e-7 1.8182365234254377e-8
          8.49569495248892e-8 6.96918989056812e-8 4.34595931300441e-8 1.0406511272287532e-7 8.20626437481916e-8 6.923641082087861e-8
          4.860003258916756e-8 9.41716262613204e-8 8.147929444757829e-8 3.816476133301744e-8 2.0864983101169972e-8 1.2223081002148028e-7
          1.0076806205842457e-7 1.1599776049290706e-8 2.257382737932525e-8 1.1807571079516736e-8 3.781060317873801e-8 3.172873350381221e-8
          3.655653291351542e-8 3.802095605644225e-8 1.9167496897555658e-8 1.7056168107715514e-8 2.3802565996418998e-8 4.011487952266586e-8
          4.221701620278509e-8 4.1397820275638305e-8 3.9406838018952724e-8 6.81869349732548e-8 3.8799379201580025e-8 3.1922566967656303e-8
          4.015517272269985e-8 3.906836423830946e-8 2.277078476199494e-8 4.051374218176446e-8 6.848607363057919e-8 6.512312591096506e-8
          5.3291156969520146e-8 7.247525798060735e-8 6.833694191687215e-8 5.497117048688595e-8 5.6369717636121075e-8 4.4023352470472794e-8
          4.299458365412788e-8 5.4141057453319027e-8 4.035368384413084e-8 3.096625870557587e-8 4.008338748349671e-8 3.252520490584074e-8
          3.162596554788821e-8 5.619296331085776e-8 4.602504972102485e-8 2.488431382917133e-8 4.994376608904976e-8 5.812338075931644e-8
          3.628427106440248e-8 6.26299802165394e-8 2.635505358352935e-9 2.923492443151611e-9 1.722576540323291e-9 2.2217974891263526e-9
          3.773661370807588e-9 3.2596734980866676e-9 3.4559044124013893e-9 8.096477222936473e-10 1.5201025351010939e-9 2.7999054846088976e-9
          3.1381474539951905e-9 4.531560562719201e-9 4.384652340283392e-9 4.6823746164798156e-9 4.237744117847584e-9 8.274896137193814e-9
          7.360852840649319e-9 7.506779255239455e-9 8.040068529628264e-9 6.064783264736287e-9 6.1961195843767145e-9 6.540650461113794e-9
          9.869295919983996e-9 9.023772937077214e-9 9.620114484727491e-9 7.444497186775601e-9 4.432713266836085e-9 4.827895437527201e-9
          5.620776309157812e-9 3.4339616231195663e-9 4.002214079586071e-9 5.146004310837866e-9 6.3649195989830355e-9 7.928403337098324e-9
          6.0190947785853e-9 7.574288259444322e-9 9.589629041095745e-9 9.487437260449563e-9 9.829432034571243e-9 9.385245479803381e-9
        </DataArray>
        <DataArray type="Float64" Name="gradient_matprop_error" format="ascii" RangeMin="0" RangeMax="0">
          0 0 0 0 0 0
          0 0 0 0 0 0
          0 0 0 0 0 0
          0 0 0 0 0 0
          0 0 0 0 0 0
          0 0 0 0 0 0
          0 0 0 0 0 0
          0 0 0 0 0 0
          0 0 0 0 0 0
          0 0 0 0 0 0
          0 0 0 0 0 0
          0 0 0 0 0 0
          0 0 0 0 0 0
          0 0 0 0 0 0
          0 0 0 0 0 0
          0 0 0 0 0 0
          0 0 0 0 0 0
          0 0 0 0 0 0
          0 0 0 0 0 0
          0 0 0 0 0 0
          0 0 0 0 0 0
          0 0 0 0 0 0
          0 0 0 0 0 0
          0 0 0 0 0 0
          0 0 0 0 0 0
          0 0 0 0 0 0
          0 0 0 0 0 0
          0 0 0 0 0 0
          0 0 0 0 0 0
          0 0 0 0 0 0
          0 0 0 0 0 0
          0 0 0 0 0 0
          0 0 0 0 0 0
          0 0 0 0 0 0
          0 0 0 0 0 0
          0 0 0 0 0 0
          0 0 0 0 0 0
          0 0 0 0 0 0
          0 0 0 0 0 0
          0 0 0 0 0 0
          0 0 0 0 0 0
          0 0 0 0 0 0
          0 0 0 0 0 0
          0 0 0 0 0 0
          0 0 0 0 0 0
          0 0 0 0 0 0
          0 0 0 0 0 0
          0 0 0 0 0 0
          0 0 0 0 0 0
          0 0 0 0 0 0
          0 0 0 0 0 0
          0 0 0 0 0 0
          0 0 0 0 0 0
          0 0 0 0 0 0
          0 0 0 0 0 0
          0 0 0 0 0 0
          0 0 0 0 0 0
          0 0 0 0 0 0
          0 0 0 0 0 0
          0 0 0 0 0 0
          0 0 0 0 0 0
          0 0 0 0 0 0
          0 0 0 0 0 0
          0 0 0 0 0 0
          0 0 0 0 0 0
          0 0 0 0 0 0
          0 0 0 0 0 0
          0 0 0 0 0 0
          0 0 0 0 0 0
          0 0 0 0 0 0
          0 0 0 0 0 0
          0 0 0 0 0 0
          0 0 0 0 0 0
          0 0 0 0 0 0
          0 0 0 0 0 0
          0 0 0 0 0 0
          0 0 0 0 0 0
          0 0 0 0 0 0
          0 0 0 0 0 0
          0 0 0 0 0 0
          0 0 0 0 0 0
          0 0 0 0 0 0
          0 0 0 0 0 0
          0 0 0 0 0 0
          0 0 0 0 0 0
          0 0 0 0 0 0
          0 0 0 0 0 0
          0 0 0 0 0 0
          0 0 0 0 0 0
          0 0 0 0 0 0
          0 0 0 0 0 0
          0 0 0 0 0 0
          0 0 0 0 0 0
          0 0 0 0 0 0
          0 0 0 0 0 0
          0 0 0 0 0 0
          0 0 0 0 0 0
          0 0 0 0 0 0
          0 0 0 0 0 0
          0 0 0 0 0 0
          0 0 0 0 0 0
          0 0 0 0 0 0
          0 0 0 0 0 0
          0 0 0 0 0 0
          0 0 0 0 0 0
          0 0 0 0 0 0
          0 0 0 0 0 0
          0 0 0 0 0 0
          0 0 0 0 0 0
        </DataArray>
        <DataArray type="Float64" Name="initial_marker" format="ascii" RangeMin="0" RangeMax="2">
          0 2 2 2 2 0
          0 0 0 0 0 0
          0 0 1 0.5 0 1
          0.5 2 1.5 1.5 2 2
          2 2 2 2 2 2
          2 2 0 0 1 0.75
          0 0.25 2 1.75 1.25 2
          2 2 2 2 2 0.5
          1 0 0 1 0 0
          0 0 0 0 0 0
          2 2 2 2 2 2
          2 2 2 2 2 2
          2 2 2 2 2 2
          2 2 2 2 2 2
          2 2 2 2 2 2
          2 2 2 2 2 2
          2 2 2 2 2 2
          2 2 2 2 2 2
          2 2 2 2 2 2
          2 2 2 2 2 2
          2 2 2 2 2 2
          2 2 2 2 2 2
          2 2 2 2 2 2
          2 2 2 2 2 2
          2 2 2 2 2 2
          2 2 2 2 2 2
          2 2 2 2 2 2
          2 2 2 2 2 2
          2 2 2 2 2 2
          2 2 2 2 2 2
          2 2 2 2 2 2
          2 2 2 2 2 2
          2 2 2 2 2 2
          2 2 2 2 2 2
          2 2 2 2 2 2
          2 2 2 2 2 2
          2 2 2 2 2 2
          2 2 2 2 2 2
          2 2 2 2 2 2
          2 2 2 2 2 2
          2 2 2 2 2 2
          2 2 2 2 2 2
          2 2 2 2 2 2
          2 2 2 2 2 2
          2 2 2 2 2 2
          2 2 2 2 2 2
          2 2 2 2 2 2
          2 2 2 2 2 2
          2 2 2 2 2 2
          2 2 2 2 2 2
          2 2 2 2 2 2
          2 2 2 2 2 2
          2 2 2 2 2 2
          2 2 2 2 2 2
          2 2 2 2 2 2
          2 2 2 2 2 2
          2 2 2 2 2 2
          2 2 2 2 2 2
          2 2 2 2 2 2
          2 2 2 2 2 2
          2 2 2 2 2 2
          2 2 2 2 2 2
          2 2 2 2 2 2
          2 2 2 2 2 2
          2 2 2 2 2 2
          2 2 2 2 2 2
          2 2 2 2 2 2
          2 2 2 2 2 2
          2 2 2 2 2 2
          2 2 2 2 2 2
          2 2 2 2 2 2
          2 2 2 2 2 2
          2 2 2 2 2 2
          2 2 2 2 2 2
          2 2 2 2 2 2
          2 2 2 2 2 2
          2 2 2 2 2 2
          2 2 2 2 2 2
          2 2 2 2 2 2
          2 2 2 2 2 2
          0 0 0 0 0 0
          0 0 0 0 0 0
          0 0 0 0 0 0
          0 0 0 0 0 0
          0 0 0 0 0 0
          0 0 0 0 0 0
          0 0 0 0 0 0
          0 0 0 0 0 0
          0 0 0 0 0 0
          0 1 0.5 0 0 0
          0 2 1.5 1 1 1
          0.5 0.5 2 1 1 0.5
          1 2 1 1 1 0
          1 1 0.6666666666666666 2 2 1.5
          0.6666666666666666 2 1 0 0 2
          1 0 0 0 2 2
          2 2 2 2 2 2
          2 2 2 2 2 2
          2 2 2 2 2 2
          2 2 2 2 2 2
          2 2 2 2 2 2
          2 2 2 2 2 2
          2 2 2 2 2 2
          2 2 2 2 2 2
          2 2 2 2 2 2
          2 2 2 2 2 2
          2 2 2 2 2 2
          2 2 2 2 2 2
          2 2 2 2 2 2
        </DataArray>
        <DataArray type="Float64" Name="markers_norefine" format="ascii" RangeMin="0" RangeMax="2">
          0 2 0 2 0 0
          0 0 0 0 0 0
          0 0 0 0 0 0
          0 0 0 0 0 0
          1 0 0 0 2 0.5
          1 0 0 0 0 0
          0 0 0 0 0 1
          0 0 2 2 0 0
          0 0 0 0 0 0
          0 0 0 0 0 0
          0 0 0 0 0 0
          0 0 0 0 0 1.5
          0 0 0 0 0 0
          0 0 0 0 0 0
          0 0 0 0 0.5 0
          0.5 0 0 0 0 0
          0 0 0 0 0 0
          0 0 0 0 0 0
          0 0 0 0 2 1.5
          2 1.5 0 0 2 2
          2 0 2 2 2 2
          0.25 0.5 2 2 2 1
          0 0 0 0 0 0
          0 0 0 0 0 0
          0 0 0 0 0 0
          0 0 0 0 0 0
          0 0 0 0 0 0
          1 0.75 1 0 0 0
          0 0 0 0 0 0
          0 2 2 2 2 1
          1 2 2 2 1 0
          0 0 0 0 0 0
          0 1 0.5 0 1.6666666666666667 2
          2 2 0 0 0 0
          0 0 0 0 0 0
          0 0.5 0 2 1.5 2
          0.5 0 0 0 0 0
          0 1 0.75 1 1 0.5
          1 2 1.75 2 1.3333333333333333 1
          1 1 1 1 0.6666666666666666 2
          2 2 2 0.5 1 0
          0 0 1 0.6666666666666666 0 2
          2 2 2 1.75 2 2
          2 2 2 2 2 2
          2 2 2 2 2 2
          2 0.75 1 0 0 1
          1 0 1 1.25 0 0.5
          1 1.5 0 1 1 1.5
          1.25 0.75 1 2 2 2
          1.75 2 1.75 2 2 1.25
          1.5 2 2 2 2 0.25
          0.5 0 0 0.75 1.25 0
          0.5 0.5 0 0 1.5 1.5
          1 2 2 2 2 2
          2 2 2 2 2 2
          2 2 2 2 2 2
          2 2 2 1.5 1.75 1
          1.5 2 2 2 2 2
          2 2 2 2 2 2
          2 2 1 2 2 2
          2 0 0.5 0 1 1
          0 2 2 2 1 0
          2 2 2 2 1.5 1.75
          2 2 2 2 2 2
          2 2 2 2 2 2
          2 2 0.75 1.25 0.5 1
          1.75 2 1.5 1.5 1.5 1
          1 2 2 1.3333333333333333 2 2
          2 2 2 2 2 2
          2 2 2 2 2 2
          2 2 2 2 2 2
          2 2 2 1.3333333333333333 2 2
          2 2 2 1.25 1.5 2
          2 1.5 2 2 2 2
          2 2 1.5 1 2 1.6666666666666667
          2 2 2 2 2 2
          2 1.75 2 2 0 0
          0 0 0 0 0 0.25
          0.5 0 0 0.5 1 0
          0.5 0 0.75 0 1 0
          0 0 0 0 0 0
          0 0 0 0 0 0
          0 0 0 0 0 0
          0 0 0 0 0 0
          0 0 0 0 0 0
          0 0 0 0 0 0
          0 0 0 0 0 0
          0 0 0 0 0 0
          0 0 0 0 0 0
          0 0 0 0 0 0
          0 0 0 0 0 0
          0 0 0 0 0 0
          0 0 0 0 0 0
          0 0 0 0 0 0
          0 0 0 0 0 0
          0 0 0 0 0 0
          0 0 1 0.5 0.25 0
          0 0 0 0 0 0
          0 0 0 0 0 0
          0 0 0 0 0 1