<?xml version="1.0"?>
<VTKFile type="UnstructuredGrid" version="0.1" byte_order="LittleEndian" header_type="UInt32" compressor="vtkZLibDataCompressor">
  <UnstructuredGrid>
    <Piece NumberOfPoints="622" NumberOfCells="327">
      <PointData>
        <DataArray type="Int32" Name="libmesh_node_id" format="ascii" RangeMin="448" RangeMax="2513">
          448 450 451 496 497 498
          499 528 529 530 531 532
          533 534 535 536 537 538
          539 540 541 542 543 544
          545 546 547 548 549 550
          554 555 557 558 560 589
          590 591 592 593 594 595
          596 597 598 599 600 601
          602 603 604 605 606 607
          608 609 610 611 612 613
          614 615 616 617 618 619
          620 621 622 623 629 630
          632 635 681 682 683 684
          732 733 740 741 764 765
          766 767 768 769 770 771
          772 773 774 775 776 777
          778 779 780 781 782 783
          784 788 789 790 792 793
          794 795 796 797 798 799
          800 801 802 803 804 805
          806 807 810 811 813 815
          880 881 882 883 884 885
          886 887 888 889 890 891
          892 893 894 895 896 897
          898 899 900 901 902 903
          904 905 906 907 908 909
          910 911 912 913 914 915
          916 917 918 919 920 921
          922 923 924 925 926 927
          928 929 930 931 932 933
          934 935 936 937 938 939
          940 941 942 943 944 945
          946 947 948 949 950 951
          952 953 954 955 956 957
          965 974 975 976 977 978
          980 981 983 984 985 986
          997 998 1001 1002 1003 1004
          1006 1011 1012 1016 1195 1196
          1213 1218 1221 1222 1223 1224
          1225 1226 1227 1228 1229 1230
          1231 1232 1233 1234 1235 1236
          1237 1238 1239 1240 1241 1242
          1243 1244 1245 1246 1247 1248
          1249 1250 1261 1262 1263 1264
          1265 1266 1267 1268 1269 1270
          1271 1272 1273 1274 1275 1276
          1277 1278 1279 1280 1281 1282
          1283 1284 1285 1286 1287 1288
          1289 1290 1291 1292 1293 1294
          1295 1296 1297 1298 1299 1300
          1301 1302 1303 1304 1305 1306
          1307 1308 1309 1310 1311 1312
          1313 1314 1315 1316 1317 1318
          1319 1320 1321 1322 1323 1324
          1325 1326 1327 1328 1329 1330
          1331 1332 1333 1334 1335 1336
          1337 1406 1407 1408 1409 1410
          1411 1412 1413 1414 1420 1421
          1422 1423 1424 1425 1426 1427
          1428 1429 1430 1431 1432 1433
          1434 1435 1436 1437 1441 1442
          1444 1445 1446 1447 1448 1449
          1450 1451 1452 1453 1456 1457
          1459 1461 1462 1463 1464 1465
          1466 1467 1468 1469 1470 1471
          1472 1473 1474 1475 1476 1478
          1479 1480 1481 1482 1483 1484
          1485 1487 1489 1491 2173 2174
          2175 2176 2177 2178 2179 2180
          2181 2182 2183 2184 2185 2186
          2187 2188 2189 2190 2191 2192
          2193 2194 2195 2196 2197 2198
          2199 2207 2208 2209 2210 2211
          2212 2213 2214 2215 2216 2217
          2218 2219 2220 2371 2372 2373
          2374 2375 2376 2377 2378 2379
          2380 2381 2382 2383 2384 2385
          2386 2387 2388 2389 2390 2391
          2392 2393 2394 2395 2396 2397
          2398 2399 2400 2401 2402 2403
          2404 2405 2406 2407 2408 2409
          2410 2411 2412 2413 2414 2415
          2416 2417 2418 2419 2420 2421
          2422 2423 2424 2425 2426 2427
          2428 2429 2430 2431 2432 2433
          2434 2435 2436 2437 2439 2459
          2460 2463 2465 2466 2468 2479
          2481 2487 2488 2491 2493 2494
          2496 2507 2509 2511 2513 551
          453 553 556 686 687 452
          735 501 742 785 786 787
          791 552 626 808 631 809
          812 559 814 958 959 960
          961 962 963 964 966 967
          968 625 999 982 1000 633
          1005 1007 1008 1009 1010 1013
          1014 1015 624 971 973 628
          1438 1439 1440 1443 979 1454
          1455 1458 1460 1477 1486 1488
          1490 1494 1495 1501 1502 1499
          1504 1536 1539 1555 1544 1559
          2438 2461 2462 2464 1535 2467
          2489 2490 2492 1541 2495 1542
          2480 2508 2510 2512
        </DataArray>
        <DataArray type="Float64" Name="bounds" format="ascii" RangeMin="0" RangeMax="0">
          0 0 0 0 0 0
          0 0 0 0 0 0
          0 0 0 0 0 0
          0 0 0 0 0 0
          0 0 0 0 0 0
          0 0 0 0 0 0
          0 0 0 0 0 0
          0 0 0 0 0 0
          0 0 0 0 0 0
          0 0 0 0 0 0
          0 0 0 0 0 0
          0 0 0 0 0 0
          0 0 0 0 0 0
          0 0 0 0 0 0
          0 0 0 0 0 0
          0 0 0 0 0 0
          0 0 0 0 0 0
          0 0 0 0 0 0
          0 0 0 0 0 0
          0 0 0 0 0 0
          0 0 0 0 0 0
          0 0 0 0 0 0
          0 0 0 0 0 0
          0 0 0 0 0 0
          0 0 0 0 0 0
          0 0 0 0 0 0
          0 0 0 0 0 0
          0 0 0 0 0 0
          0 0 0 0 0 0
          0 0 0 0 0 0
          0 0 0 0 0 0
          0 0 0 0 0 0
          0 0 0 0 0 0
          0 0 0 0 0 0
          0 0 0 0 0 0
          0 0 0 0 0 0
          0 0 0 0 0 0
          0 0 0 0 0 0
          0 0 0 0 0 0
          0 0 0 0 0 0
          0 0 0 0 0 0
          0 0 0 0 0 0
          0 0 0 0 0 0
          0 0 0 0 0 0
          0 0 0 0 0 0
          0 0 0 0 0 0
          0 0 0 0 0 0
          0 0 0 0 0 0
          0 0 0 0 0 0
          0 0 0 0 0 0
          0 0 0 0 0 0
          0 0 0 0 0 0
          0 0 0 0 0 0
          0 0 0 0 0 0
          0 0 0 0 0 0
          0 0 0 0 0 0
          0 0 0 0 0 0
          0 0 0 0 0 0
          0 0 0 0 0 0
          0 0 0 0 0 0
          0 0 0 0 0 0
          0 0 0 0 0 0
          0 0 0 0 0 0
          0 0 0 0 0 0
          0 0 0 0 0 0
          0 0 0 0 0 0
          0 0 0 0 0 0
          0 0 0 0 0 0
          0 0 0 0 0 0
          0 0 0 0 0 0
          0 0 0 0 0 0
          0 0 0 0 0 0
          0 0 0 0 0 0
          0 0 0 0 0 0
          0 0 0 0 0 0
          0 0 0 0 0 0
          0 0 0 0 0 0
          0 0 0 0 0 0
          0 0 0 0 0 0
          0 0 0 0 0 0
          0 0 0 0 0 0
          0 0 0 0 0 0
          0 0 0 0 0 0
          0 0 0 0 0 0
          0 0 0 0 0 0
          0 0 0 0 0 0
          0 0 0 0 0 0
          0 0 0 0 0 0
          0 0 0 0 0 0
          0 0 0 0 0 0
          0 0 0 0 0 0
          0 0 0 0 0 0
          0 0 0 0 0 0
          0 0 0 0 0 0
          0 0 0 0 0 0
          0 0 0 0 0 0
          0 0 0 0 0 0
          0 0 0 0 0 0
          0 0 0 0 0 0
          0 0 0 0 0 0
          0 0 0 0 0 0
          0 0 0 0 0 0
          0 0 0 0 0 0
          0 0 0 0
        </DataArray>
        <DataArray type="Float64" Name="gradient_error" format="ascii" RangeMin="5.881252168200338e-10" RangeMax="7.448828995434781e-7">
          4.3529306161381303e-7 1.9784603955634364e-8 1.9857735410064346e-8 6.001799699772745e-7 2.747484583026236e-7 1.0564891822306798e-7
          2.342235741494798e-8 2.275510271938716e-7 1.4421020158729618e-7 2.6884478619556086e-7 7.254427027922693e-7 4.162501492018266e-7
          3.5423100042717453e-7 4.6812060915252874e-7 2.6829680279191095e-8 9.965939317130504e-8 1.5056080753944e-7 4.942425613021713e-8
          1.5929780232715803e-7 1.8163893166748734e-7 2.801133860212048e-8 6.697914234546074e-8 4.5378543670927914e-7 5.842797170376424e-7
          1.2117790157189787e-7 2.605051097961416e-7 3.1396580304931775e-9 7.777045053548004e-9 5.982507809361126e-8 2.2766101588966985e-8
          9.188626044017674e-9 7.628093224345203e-9 1.1031665451863701e-7 8.092512623636137e-8 3.427006019979526e-9 1.0632832870958713e-7
          1.799529217517244e-7 3.2804063568246285e-7 2.7787463394860343e-7 1.3845434096839484e-7 2.0667704662144237e-7 3.631150985387491e-7
          1.6691912699413514e-7 1.6422344883143347e-7 2.1351357098888385e-7 1.98505745578853e-7 1.9232739499453897e-7 3.385542094506592e-7
          1.8050233090436386e-7 8.207826669704619e-8 1.3656828145631983e-7 2.8141226960085685e-7 1.6245942720687853e-7 1.2489211152768925e-7
          8.125576962500661e-8 1.0408241740303004e-7 1.971236377883889e-7 1.8276208946192398e-7 3.936265370062102e-8 1.6948307876314146e-7
          1.5614317918446293e-7 9.996551245383631e-8 1.1729389205540217e-7 5.167214131088818e-8 1.4636419821670833e-7 1.9666545556512503e-7
          2.4174013374663365e-7 1.0350001622882427e-7 3.801131825885535e-8 2.499096390679361e-8 1.361826947764806e-8 3.400390220255341e-8
          8.59072658942788e-10 5.5660905002273176e-8 1.807413351500942e-8 2.018576171167098e-9 1.8996937405533336e-9 1.1249954878409291e-8
          1.8258724784416363e-9 1.2587207676855937e-8 2.171277679976501e-9 2.1339136651084488e-8 7.273549496938517e-7 6.01594707590599e-7
          5.70964103225956e-7 6.399940379347813e-7 5.498888739326217e-7 5.793231959145291e-7 6.078867773001555e-7 4.7583446548734627e-7
          6.103586825154121e-7 4.292476012860481e-7 3.639825688854349e-7 5.582315038301016e-7 6.448094513743549e-7 7.448828995434781e-7
          2.069600678047242e-9 1.938560720757904e-9 2.840369114575773e-9 2.9257692639042532e-8 1.6563100028254233e-8 1.1888351017201044e-8
          2.0929924404894956e-8 1.8075207634685659e-9 7.213602006147851e-9 1.2602156170747386e-8 2.5957266062805658e-8 3.7722409057084336e-8
          4.345265941951325e-8 5.9426919712436365e-8 1.7784144892660463e-8 3.0041517342981746e-8 4.631233180481439e-9 4.356507421144405e-9
          1.0785259367080953e-8 3.1050745354489832e-9 6.094805277622083e-8 8.113143036778839e-8 4.229888979330302e-8 4.08178166180737e-9
          1.0122938915148204e-8 1.7780173302850046e-8 1.6535845826793647e-9 2.1313750176809167e-9 2.543740769055188e-8 2.6091654526824688e-9
          1.2736363704398098e-7 1.2333361767758723e-7 1.1761736154935895e-7 9.522783296800377e-8 1.0267934475055417e-7 1.1727251654487137e-7
          1.0828051341310871e-7 1.344144494655031e-7 1.1236444372952197e-7 1.280427442018907e-7 1.1470931377440867e-7 1.2341483660488744e-7
          1.1723061040449983e-7 1.3435884791735806e-7 7.317131347250868e-8 1.0047606611188971e-7 9.334319636237601e-8 1.0984977379625273e-7
          1.2609402189580213e-7 1.5057968181622966e-7 1.4541353115035907e-7 1.2508478384858947e-7 1.4163657135383435e-7 1.5726497668118516e-7
          1.408469598427475e-7 1.5777556317946013e-7 1.3366776376203522e-7 1.4554294202331958e-7 1.5773901585610243e-7 9.243737284227913e-8
          1.2221515113821656e-7 1.3760399741348385e-7 1.4863972474607262e-7 1.7969468940728063e-7 1.705553855498344e-7 1.6040662728330545e-7
          1.7722347945736753e-7 1.851627039816897e-7 1.852939405367389e-7 2.0051655600966454e-7 1.5163255522701607e-7 1.7156247713833977e-7
          1.8686087681548745e-7 1.2295482932272812e-7 1.5677873696821205e-7 1.813484014219276e-7 1.783531938039619e-7 2.165968119327486e-7
          2.0100752519252926e-7 2.16398761988745e-7 2.2843479311221306e-7 1.8305667776464831e-7 1.348144838416111e-7 2.0188608161776528e-7
          1.4889495758793228e-7 2.0373830316240862e-7 2.2220127579309313e-7 1.7664434387930416e-7 2.1238784237729965e-7 1.9909380681126884e-7
          2.1782201710436966e-7 8.312802524419307e-8 9.101207584731048e-8 1.219148591856063e-7 1.1967121755957319e-7 8.067396293006387e-8
          1.2272996584285635e-7 5.388437376483149e-8 7.682393628207646e-8 8.135985297076155e-8 7.075439247562675e-8 1.3674365145635245e-7
          1.3309200753505876e-7 1.3931524374605678e-7 8.597460957926071e-8 3.407822782543512e-8 3.128491157805203e-8 4.011047654347214e-8
          2.3962044152810164e-8 1.1415743775753994e-7 1.287606400071205e-7 4.316560945602769e-8 1.0383537091729008e-7 4.027452021498979e-8
          1.2726903262135392e-7 1.7074861900706334e-7 2.0534335364388953e-9 1.0792823727746938e-7 2.9185299263772147e-8 1.9128205440284875e-7
          7.61782812123532e-8 1.2179481155787947e-7 4.0347935728234784e-8 6.338230057575481e-8 5.452752644327047e-8 1.4045414980814909e-7
          7.312711489835913e-8 2.9249037426605597e-8 4.455672568498422e-8 5.1130725655812286e-8 4.4811554190676945e-8 2.6412195236598442e-8
          2.9489216927408714e-8 5.1710889524336794e-8 3.7435393355841036e-8 3.005262425850316e-8 4.6795162103543936e-8 9.223604980956415e-8
          8.254199698261349e-8 6.299577915029404e-8 7.162262875668446e-8 8.965676380850546e-9 6.322868610788716e-8 4.621451399897594e-8
          2.266985516116529e-8 4.344956131797462e-8 5.100920770380476e-8 2.9200341890064712e-8 5.2936008473206365e-8 6.100682674444475e-8
          7.756360938162485e-8 8.673128954703631e-8 2.6065097941451442e-8 3.625409742357284e-8 5.596034868474644e-8 1.0219121029004331e-7
          1.1245575234962788e-7 4.6443096905694226e-8 3.658542557171704e-9 4.04640153912934e-9 4.518626627248998e-8 3.197902614099357e-8
          4.434260521086975e-9 1.8771786009497157e-8 8.318997049771451e-8 7.90747541932211e-8 8.073041273785107e-8 1.0963305899229012e-7
          1.1330856963763702e-7 1.0442191246224355e-7 1.016617985306643e-7 7.767348840187475e-8 1.1712619528665321e-7 1.0712815640940434e-7
          7.49595378887277e-8 9.55352552868501e-8 9.369053806903846e-8 9.713011753215546e-8 9.990600035449746e-8 9.728015367286072e-8
          1.0912553453291872e-7 1.0548012218597197e-7 1.0240339688631193e-7 1.1295375362344465e-7 7.930347039186624e-8 8.535354387827747e-8
          8.596359321148726e-8 8.513364205085723e-8 1.1834506871133998e-7 1.1368009069908322e-7 1.235041103605774e-7 9.140361736468869e-8
          7.943893138670076e-8 7.520723683651434e-8 1.2048494247868962e-7 1.0932489299483003e-7 7.100482288979068e-8 1.2291057099110662e-7
          1.1082276012788433e-7 7.097554228632791e-8 9.816484351097046e-8 8.59185315002576e-8 7.084304649327808e-8 6.464828505382336e-8
          1.239417451302947e-7 1.110907957958777e-7 5.708363761750764e-8 1.2346467411088406e-7 1.0946966292793423e-7 4.8517979219449086e-8
          7.832665258743306e-8 7.466488411770056e-8 1.0452156599097518e-7 1.1653511879006372e-7 7.697762968567825e-8 8.398561493487747e-8
          1.285486715891523e-7 9.099360018407669e-8 5.523565274233031e-8 4.8933659415886196e-8 1.209660816886613e-7 1.0574070758607545e-7
          3.3496981759754185e-8 6.919418935697989e-8 1.774958087515563e-8 2.154067732876203e-8 3.348533499612609e-8 3.837195762461693e-8
          1.533774449434564e-8 2.8533025081768593e-8 1.1136864320244983e-8 1.909762476178203e-8 2.288879875881713e-8 1.640080238012971e-8
          1.4207861803948e-8 2.358072872967031e-8 1.4011677703718006e-8 2.1151277421332678e-8 8.983230632944608e-9 1.4749289885999826e-8
          1.4231636327329782e-8 3.727272254564354e-8 3.935125606979834e-8 3.805557565629943e-8 3.675989524280051e-8 3.5406776321452605e-8
          2.973079862104106e-8 3.073220589506612e-8 3.173361316909117e-8 2.948928791418233e-8 3.9517816702947605e-8 3.8432118015607344e-8
          4.06320099973132e-8 3.9543859141676774e-8 4.0643505324174955e-8 4.3537095221628065e-8 4.260207682911484e-8 3.734641932826707e-8
          3.845570828604035e-8 4.068065913588687e-8 3.860807575776372e-8 3.825193612697249e-8 4.332817194205997e-8 3.789579649618126e-8
          4.41407232709001e-8 4.273882052737423e-8 4.685049065364802e-8 4.578046594977063e-8 3.831059572954762e-8 4.212314426828421e-8
          4.710552176019648e-8 4.7521223421045157e-8 4.62274977884e-8 4.6604068005357656e-8 3.1584914825965114e-8 3.504983398973498e-8
          3.1391807445012604e-8 4.000216903400585e-8 3.164190466203798e-8 3.558157858317977e-8 2.7999535648829087e-8 3.1627309875684345e-8
          4.1792560050341015e-8 3.8313909171860545e-8 2.5467409895560607e-8 3.055760394482894e-8 2.2401352770666405e-8 3.2104369070837256e-8
          3.569768901363831e-8 4.272250721306064e-8 1.5377442401254358e-8 2.5308425899754287e-8 2.200023798733839e-8 3.516878227872774e-8
          2.4114600665147246e-8 3.0049107813497925e-8 1.4471483226154642e-8 2.1842586449699856e-8 4.144136394134504e-8 1.2215746723894455e-9
          1.3376306188214397e-8 3.285336187422154e-9 3.565508114913801e-8 4.3147157193977576e-8 4.169531611271712e-8 4.48047294734483e-8
          4.529429374251515e-8 4.3442257203156967e-8 4.652471988866983e-8 4.5511780165132435e-8 9.104697738134279e-8 8.52480598050098e-8
          8.856339773586798e-8 1.0562990540211968e-7 1.0679343772035256e-7 9.89231640911656e-8 9.7489910728131e-8 7.94491422286768e-8
          9.105289046197866e-8 8.934991605414232e-8 9.37878432236652e-8 9.160297762014596e-8 1.0207887911775732e-7 1.0036911224524669e-7
          8.205494174649135e-8 8.919377336492836e-8 9.17127809934212e-8 1.1036991501184947e-7 1.0913524687034743e-7 9.633260498336537e-8
          2.8982649588798998e-8 3.411166318587192e-8 4.407631658116251e-8 4.7323517779814116e-8 1.938286435306843e-8 2.973917444891961e-8
          3.4361339588179465e-8 1.0919595503928964e-7 1.0708567321327541e-7 9.667765642541982e-8 9.14397563774144e-8 9.162496658431957e-8
          9.871897934417585e-8 9.363736137408376e-8 1.0497539138726117e-7 1.0581299210403214e-7 9.583496637075313e-8 7.405397812934954e-8
          9.035228547507631e-8 9.059706632274769e-8 1.0665059282080311e-7 6.418164139989642e-9 3.579749294504306e-9 3.827007212313911e-9
          3.774115705425861e-9 3.950435881482139e-9 3.7212241985378096e-9 3.5921021675681866e-9 3.5775247077903867e-9 3.562947248012587e-9
          3.575300121076467e-9 3.3867545886447155e-9 3.5587101045532037e-9 2.99037286444243e-9 3.425563915344917e-9 3.730665620461692e-9
          3.860754966247404e-9 2.94650196497552e-9 3.343304503680547e-9 2.900691949207695e-9 3.740107042385574e-9 3.798814440117052e-9
          3.918727518853034e-9 3.836217021157337e-9 4.038640597589015e-9 6.178292288523397e-9 6.194767002117131e-9 6.211241715710865e-9
          3.278173944605649e-9 3.6386714198680675e-9 4.206499195092862e-9 4.746982753744727e-9 5.448801168560796e-9 5.6100206672291856e-9
          5.846939348183879e-9 5.7252447220994025e-9 2.6679618769489105e-9 3.2318453645811895e-9 2.39999525934346e-9 3.019003608976927e-9
          3.7957288522134684e-9 4.204173998407627e-9 1.5371093137807687e-9 2.544963210309345e-9 2.201790196796516e-9 3.5528171068379225e-9
          2.1367194206439137e-9 2.7171157210436817e-9 1.8692074683659317e-9 2.395970594532012e-9 4.263374698277462e-9 3.979297409699299e-9
          9.952648966821786e-10 1.795560022219296e-9 1.4678773285470422e-9 3.779766642810197e-9 5.448029907251889e-9 5.5595617365016845e-9
          5.4472586459429815e-9 5.503315051626856e-9 5.58035756347161e-9 5.7773927281422375e-9 6.124854028242715e-9 5.396609436024527e-9
          5.31377577875934e-9 5.829540734185073e-9 6.788715773536944e-9 6.70469804862046e-9 6.620680323703975e-9 6.182811025430573e-9
          6.279423482348718e-9 6.376035939266864e-9 3.998628608528374e-9 4.393837733477119e-9 5.055173949219026e-9 5.974594836528042e-9
          6.361761542250732e-9 1.6388520801003202e-9 2.1222385761038873e-9 3.73455250473882e-9 8.573532204680943e-10 1.3109506013305135e-9
          2.952039863063975e-9 5.6089128059818545e-9 6.354345674593527e-9 5.243230775435668e-9 6.346929806936321e-9 2.694759313485542e-9
          2.6919078900968248e-9 1.9946340177423602e-8 2.540000338793049e-9 6.757467400663697e-10 6.652152303375582e-10 1.3726456364315631e-9
          5.881252168200338e-10 1.3205602548987935e-9 6.494006141812856e-10 1.5757342701165093e-9 8.800908652291698e-9 6.191879404022792e-9
          3.5828501557538865e-9 1.9798212791447394e-8 2.7606550055505856e-8 3.4995654796033453e-9 3.1552488766360656e-8 8.21102440850317e-9
          1.479902170323526e-9 3.1261627046178796e-8 1.2922483337402993e-8 1.1525156318036579e-7 1.0543000521768993e-7 8.967458616237261e-8
          9.937634472096089e-8 2.310918983056223e-8 9.129102123314202e-8 7.658577954924508e-8 5.316566734019805e-8 6.208318702248171e-8
          5.06106647486773e-8 9.238536355094134e-8 6.969340528318456e-8 1.1139308052493509e-7 1.1836511234544055e-7 1.3194910581623152e-7
          1.3907171979370354e-7 6.11477518264378e-8 1.1149223709383382e-7 6.138552030549142e-8 1.0046534262629954e-7 3.412668111008877e-8
          1.3364256619018464e-7 1.2299784336383563e-7 1.1614955465480304e-7 9.90287179482576e-8 8.350146230258551e-8 8.263869838673233e-8
          4.489170025779005e-8 5.045854856365306e-8 4.913827701871645e-8 4.459629763000925e-8 5.094440102352851e-8 3.1993613849230205e-8
          3.682675959081171e-8 3.227892939538475e-8 4.512327790255044e-8 4.0644010948146645e-8 4.955531760332873e-8 4.6799080532358e-8
          5.052398473394982e-8 5.444972326873715e-8 5.2750966133628635e-8 3.344210712873201e-8 4.5141082591544054e-8 4.721168942414066e-8
          5.5321259430702704e-8 1.7867247882919437e-8 4.4606842976912036e-8 5.3823206386683594e-8 3.219297257446768e-8 5.514182636676051e-8
          7.175132838249984e-9 6.218201680363944e-9 6.43243483567793e-9 6.646667990991917e-9 3.673949589814484e-9 4.170939210785357e-9
          1.6277223104283315e-9 2.016146489656359e-9 3.547820053059659e-9 1.0874892081252337e-9 1.3801513908478823e-9 2.7475474272137617e-9
          6.074028615122598e-9 5.622120484875515e-9 6.553171532516098e-9 5.17021235462843e-9
        </DataArray>
        <DataArray type="Float64" Name="gradient_matprop_error" format="ascii" RangeMin="0" RangeMax="0">
          0 0 0 0 0 0
          0 0 0 0 0 0
          0 0 0 0 0 0
          0 0 0 0 0 0
          0 0 0 0 0 0
          0 0 0 0 0 0
          0 0 0 0 0 0
          0 0 0 0 0 0
          0 0 0 0 0 0
          0 0 0 0 0 0
          0 0 0 0 0 0
          0 0 0 0 0 0
          0 0 0 0 0 0
          0 0 0 0 0 0
          0 0 0 0 0 0
          0 0 0 0 0 0
          0 0 0 0 0 0
          0 0 0 0 0 0
          0 0 0 0 0 0
          0 0 0 0 0 0
          0 0 0 0 0 0
          0 0 0 0 0 0
          0 0 0 0 0 0
          0 0 0 0 0 0
          0 0 0 0 0 0
          0 0 0 0 0 0
          0 0 0 0 0 0
          0 0 0 0 0 0
          0 0 0 0 0 0
          0 0 0 0 0 0
          0 0 0 0 0 0
          0 0 0 0 0 0
          0 0 0 0 0 0
          0 0 0 0 0 0
          0 0 0 0 0 0
          0 0 0 0 0 0
          0 0 0 0 0 0
          0 0 0 0 0 0
          0 0 0 0 0 0
          0 0 0 0 0 0
          0 0 0 0 0 0
          0 0 0 0 0 0
          0 0 0 0 0 0
          0 0 0 0 0 0
          0 0 0 0 0 0
          0 0 0 0 0 0
          0 0 0 0 0 0
          0 0 0 0 0 0
          0 0 0 0 0 0
          0 0 0 0 0 0
          0 0 0 0 0 0
          0 0 0 0 0 0
          0 0 0 0 0 0
          0 0 0 0 0 0
          0 0 0 0 0 0
          0 0 0 0 0 0
          0 0 0 0 0 0
          0 0 0 0 0 0
          0 0 0 0 0 0
          0 0 0 0 0 0
          0 0 0 0 0 0
          0 0 0 0 0 0
          0 0 0 0 0 0
          0 0 0 0 0 0
          0 0 0 0 0 0
          0 0 0 0 0 0
          0 0 0 0 0 0
          0 0 0 0 0 0
          0 0 0 0 0 0
          0 0 0 0 0 0
          0 0 0 0 0 0
          0 0 0 0 0 0
          0 0 0 0 0 0
          0 0 0 0 0 0
          0 0 0 0 0 0
          0 0 0 0 0 0
          0 0 0 0 0 0
          0 0 0 0 0 0
          0 0 0 0 0 0
          0 0 0 0 0 0
          0 0 0 0 0 0
          0 0 0 0 0 0
          0 0 0 0 0 0
          0 0 0 0 0 0
          0 0 0 0 0 0
          0 0 0 0 0 0
          0 0 0 0 0 0
          0 0 0 0 0 0
          0 0 0 0 0 0
          0 0 0 0 0 0
          0 0 0 0 0 0
          0 0 0 0 0 0
          0 0 0 0 0 0
          0 0 0 0 0 0
          0 0 0 0 0 0
          0 0 0 0 0 0
          0 0 0 0 0 0
          0 0 0 0 0 0
          0 0 0 0 0 0
          0 0 0 0 0 0
          0 0 0 0 0 0
          0 0 0 0 0 0
          0 0 0 0 0 0
          0 0 0 0
        </DataArray>
        <DataArray type="Float64" Name="initial_marker" format="ascii" RangeMin="0" RangeMax="2">
          0 0 0 0 0 2
          0 0 0 0 0 0
          0 0 0 0 0 0
          0 0 0 0 0 0
          0 0 0 0 0 0
          0 0 2 0 0 0
          0 0 0 0.5 0 0
          0 1 0.25 0 0 0
          0 2 0.5 0 1 0
          0 0 1 0.5 0 1
          0.5 0 0 0 2 1.5
          2 0 0 0 0 0
          2 0 0 0 0 0
          0 0 0 0 0 0
          0 0 0 0 0 0
          0 0 0 0 0 0
          0 0 0 0 0 0
          0 0 0 0 0 0
          0 0 0 0 0 0
          0 0 0 0 0 0
          0 0 0 0 0 0
          0 0 0 0 0.5 0.25
          0 0.25 1.5 1 0 0
          0 0.25 1 0.5 0 1.5
          0 1 0.5 2 1.5 0.75
          2 1.75 0 0.5 0.75 2
          2 2 1 1 1 2
          2 1 2 2 0.6666666666666666 1
          1.25 2 2 2 1 1
          1 2 2 1 2 2
          0.5 1.5 1.5 2 2 2
          2 0 0 0.5 0.25 0
          0.5 0 0 0 0 1
          0.5 1 0 0 0 0
          0 1 1 2 2 2
          0.5 1.75 2 2 2 2
          0.25 0.75 0 0 0 1
          0 0 0 0 0 0
          0 0 0 0 0 0
          0 0 0 0 0 0
          0 0 0 0 0 0
          0 0 0 0 0 0
          0 0 0 0 0 0
          0 0 0 0 0 0
          0 0 0 0 0 0
          0 0 0 0 0 0
          0 0 0 0 0 0
          0 0 0 0 0 0
          0 0 0 0 0 0
          0 0 0 0 0 0
          0 0 0 0 0 0
          0 0 0 0 0 0
          0 0 0 0 0 0
          0 0 0 0 0 0
          0 0 0 0 0 0
          0 0 0 0 0 0
          0 2 2 2 2 2
          2 2 2 2 2 2
          2 2 2 2 2 2
          2 2 2 2 2 2
          2 2 2 2 2 2
          2 2 2 2 1 1.5
          1 2 1 1.5 0 1
          2 2 2 2 2 2
          2 2 2 2 2 2
          2 2 2 2 2 2
          2 2 2 2 2 2
          2 2 2 2 0 0
          0 0 0 0 0 0
          0 0 0 0 0 0
          0 0 0 0 0 0
          0 0 0 0 0 0
          0 0 0 0 0 0
          0 0 0 0 0 0
          0 0 0 2 2 2
          2 2 2 2 2 2
          2 2 2 2 2 2
          2 2 2 2 2 2
          2 2 2 2 2 2
          2 2 2 2 2 2
          2 2 2 2 2 2
          2 2 2 2 2 2
          2 2 2 2 2 2
          2 2 2 2 2 2
          2 2 2 2 2 2
          2 2 2 2 2 2
          2 2 2 2 2 2
          2 2 2 2 2 2
          2 2 2 2 2 0
          0 0 0 0 0 0
          0 0 0 0 0 0
          0 0 0 0 0 0
          0 0 0 0 0.5 0.25
          0 0 1 0.5 0 0
          0 0.75 0.5 2 1 2
          1 0.5 1 0.6666666666666666 1 0
          1 1 1 1 1 1
          2 2 2 2 2 1.5
          1.75 1.5 2 2 2 2
          2 2 2 2 2 2
          2 2 2 2 2 2
          2 2 2 2 2 2
          2 2 2 2 2 2
          2 2 2 2
        </DataArray>
        <DataArray type="Float64" Name="markers_norefine" format="ascii" RangeMin="0" RangeMax="2">
          0 0 0 0 0 0
          0 0 0 0 0 0
          0 0 0 0 0 0
          0 0 0 0 0 0
          0 0 0 0 0 0
          0 0 0 0 0 0
          0 0 0 0 0 0
          0 0 0 0 0 0
          0 0 0 0 0 0
          0 0 0 0 0 0
          0 0 0 0 0 0
          0 0 0 0 0 0
          2 0 0 0 0 0
          0 0 0 0 0 0
          0 0 0 0 0 0
          0 0 0 0 0 0
          0 0 0 0 0 0
          0 0 0 0 0 0
          0 0 0 0 0 0
          0 0 0 0 0 0
          0 0 0 0 0 0
          0 0 0 0 0 0
          0 0 0 0 0 0
          0 0 0 0 0 0
          0 0 0 0 0 0
          0 0 0 0 0 0
          0 0 0 0 0 0
          0 0 0 0 0 0
          0 0 0 0 0 0
          0 0 0 0 0 0
          0 0 0 0 0 0
          0 0 0 0 0 0
          0 0 0 0 0 0
          0 0 0 0 0 0
          0 0 0 0 0 0
          0 0 2 0 0 0
          0 0 0 0 0 0
          0 0 0 0 0 0
          0 0 0 0 0 0
          0 0 0 0 0 0
          0 0 0 0 0 0
          0 0 0 0 0 0
          0 0 0 0 0 0
          0 0 0 0 0 0
          0 0 0 0 0 0
          0 0 0 0 0 0
          0 0 0 0 0 0
          0 0 0 0 0 0
          0 0 0 0 0 0
          0 0 0 0 0 0
          0 0 0 0 0 0
          0 0 0 0 0 0
          0 0 0 0 0 0
          0 0 0 0 0 0
          0 0 0 0 0 0
          0 0 0 0 0 0
          0 0 0 0 0 0
          0 0 0 0 0 0
          0 0 0 0 0 0
          0 0 0 0 0 0
          0 0 0 0 0 0
          0 0 0 0 0 0
          0 0 0 0 0 0
          0 0 0 0 0.5 0
          0 0 0 0 0.5 0
          1 0.25 1.5 0.75 0 2
          1 2 0 0 0 0
          0 0 0 0 0 0
          0 0 0 0 0 0
          0 0 0 0 0 0
          0 0 0 0 0 0
          0 0 0 0 0 0
          0 0 0 0 0 0
          0 0 0 0 0 0
          0 0 0 0 0 0
          0 0.5 0 0 0 0
          0 0.5 0.25 1.5 1 0
          0.5 1 0.5 1.5 0 2
          1 1.5 0 1 0.5 0
          2 2 1.6666666666666667 1 0 0
          0.5 0 2 1.5 2 1.75
          1 1 2 2 2 2
          2 2 2 2 1.25 1.75
          2 2 2 1.5 0 0
          0 0.25 0.75 0 0 0.5
          1 0 0 0 0 1
          0.75 0.5 2 1.75 1.6666666666666667 1
          0 2 2 2 2 2
          2 1 0 1 0 0
          0 0 0 0 0 0
          0 0 0 0 0 0
          0 0 0 0 0 0
          0 0 0 0 0 0
          0 0 0 0 0 0
          0 0 0 0 0 0
          0 0 0 0 0 0
          0 0 0 0 0 0
          0 0 0 0 0 0
          0 0 0 0 0 0
          0 0 0 0 0 0
          0 1.5 0 0 0 0
          0 1 1 1 2 2
          2 2 2 2 2 2
          1 1 0 1
        </DataArray>
        <DataArray type="Float64" Name="markers_mustrefine" format="ascii" RangeMin="0" RangeMax="2">
          0 0 0 0 0 2
          0 0 0 0 0 0
          0 0 0 0 0 0
          0 0 0 0 0 0
          0 0 0 0 0 0
          0 0 2 0 0 0
          0 0 0 0.5 0 0
          0 1 0.25 0 0 0
          0 2 0.5 0 1 0
          0 0 1 0.5 0 1
          0.5 0 0 0 2 1.5
          2 0 0 0 0 0
          2 0 0 0 0 0
          0 0 0 0 0 0
          0 0 0 0 0 0
          0 0 0 0 0 0
          0 0 0 0 0 0
          0 0 0 0 0 0
          0 0 0 0 0 0
          0 0 0 0 0 0
          0 0 0 0 0 0
          0 0 0 0 0.5 0.25
          0 0.25 1.5 1 0 0
          0 0.25 1 0.5 0 1.5
          0 1 0.5 2 1.5 0.75
          2 1.75 0 0.5 0.75 2
          2 2 1 1 1 2
          2 1 2 2 0.6666666666666666 1
          1.25 2 2 2 1 1
          1 2 2 1 2 2
          0.5 1.5 1.5 2 2 2
          2 0 0 0.5 0.25 0
          0.5 0 0 0 0 1
          0.5 1 0 0 0 0
          0 1 1 2 2 2
          0.5 1.75 2 2 2 2
          0.25 0.75 0 0 0 1
          0 0 0 0 0 0
          0 0 0 0 0 0
          0 0 0 0 0 0
          0 0 0 0 0 0
          0 0 0 0 0 0
          0 0 0 0 0 0
          0 0 0 0 0 0
          0 0 0 0 0 0
          0 0 0 0 0 0
          0 0 0 0 0 0
          0 0 0 0 0 0
          0 0 0 0 0 0
          0 0 0 0 0 0
          0 0 0 0 0 0
          0 0 0 0 0 0
          0 0 0 0 0 0
          0 0 0 0 0 0
          0 0 0 0 0 0