<?xml version="1.0"?>
<VTKFile type="UnstructuredGrid" version="0.1" byte_order="LittleEndian" header_type="UInt32" compressor="vtkZLibDataCompressor">
  <UnstructuredGrid>
    <Piece NumberOfPoints="628" NumberOfCells="305">
      <PointData>
        <DataArray type="Int32" Name="libmesh_node_id" format="ascii" RangeMin="0" RangeMax="2145">
          0 1 2 3 4 5
          6 7 8 9 10 11
          12 13 14 15 16 17
          18 19 20 21 22 23
          24 25 26 27 28 29
          30 31 32 33 34 35
          36 37 38 39 40 41
          42 43 44 45 46 47
          48 49 50 51 52 53
          54 55 56 57 58 59
          60 61 62 63 64 65
          66 67 68 69 70 71
          72 73 74 75 76 77
          78 79 80 81 82 83
          84 85 86 87 88 89
          90 91 92 93 94 95
          96 97 98 99 100 101
          102 103 104 105 106 107
          108 109 110 111 112 113
          114 115 116 117 118 119
          120 121 122 123 124 125
          126 127 128 129 130 131
          132 133 134 135 136 137
          138 139 140 141 142 143
          144 145 146 147 148 149
          150 151 152 153 154 155
          156 157 158 159 160 161
          162 163 164 165 166 167
          168 169 170 171 172 173
          174 175 176 177 178 179
          180 181 182 183 184 185
          186 187 188 189 190 191
          192 193 194 195 196 197
          198 199 200 201 202 203
          204 205 206 207 208 209
          210 211 212 213 214 215
          216 217 218 219 220 221
          222 223 224 225 226 227
          228 229 230 231 232 233
          234 235 236 237 238 239
          240 241 242 243 244 245
          246 247 248 249 250 251
          252 253 254 255 256 257
          258 259 260 261 262 263
          264 265 266 267 268 269
          270 271 272 273 274 275
          276 277 278 279 280 281
          282 283 284 285 286 287
          288 289 290 291 292 293
          294 295 296 297 298 299
          300 301 302 303 304 305
          306 307 308 309 310 311
          312 313 314 315 316 317
          318 319 320 321 322 333
          334 335 336 337 338 339
          340 341 342 343 344 345
          346 347 348 354 355 356
          357 358 359 380 381 382
          383 384 385 386 387 388
          389 399 400 401 402 403
          404 426 427 428 429 430
          431 432 433 434 444 445
          446 447 448 449 487 489
          492 497 498 499 500 501
          502 503 504 505 506 508
          509 510 525 526 527 528
          529 530 531 532 533 534
          535 536 537 538 628 629
          632 634 635 636 637 642
          643 644 645 646 647 648
          649 650 651 653 654 655
          660 665 670 672 673 674
          675 676 678 679 680 681
          682 683 684 685 686 687
          688 689 724 725 726 727
          728 729 730 732 734 735
          736 737 738 739 740 741
          742 743 998 1007 1015 1017
          1018 1019 1021 1023 1025 1026
          1029 1030 1031 1032 1034 1037
          1063 1064 1067 1068 1069 1070
          1071 1072 1073 1074 1075 1076
          1077 1078 1079 1080 1081 1082
          1147 1148 1151 1152 1153 1154
          1155 1156 1157 1158 1159 1160
          1161 1162 1163 1164 1165 1166
          1167 1168 1169 1170 1171 1172
          1173 1174 1175 1176 1177 1178
          1179 1180 1181 1182 1183 1184
          1185 1186 1333 1334 1335 1336
          1337 1338 1339 1340 1341 1342
          1343 1346 1347 1350 1351 1352
          1353 1354 1355 1356 1357 1358
          1359 1360 1361 1362 1363 1364
          1365 1366 1367 1368 1369 1370
          2080 2081 2082 2083 2084 2085
          2086 2087 2088 2089 2090 2091
          2092 2093 2125 2126 2127 2128
          2129 2130 2131 2132 2133 2134
          2135 2136 2137 2138 2139 2140
          2141 2142 2143 2144 2145 379
          484 490 486 491 478 671
          661 496 677 668 716 717
          720 1065 1066 483 1141 1142
          1149 1150 1143 1146
        </DataArray>
        <DataArray type="Float64" Name="bounds" format="ascii" RangeMin="0" RangeMax="0">
          0 0 0 0 0 0
          0 0 0 0 0 0
          0 0 0 0 0 0
          0 0 0 0 0 0
          0 0 0 0 0 0
          0 0 0 0 0 0
          0 0 0 0 0 0
          0 0 0 0 0 0
          0 0 0 0 0 0
          0 0 0 0 0 0
          0 0 0 0 0 0
          0 0 0 0 0 0
          0 0 0 0 0 0
          0 0 0 0 0 0
          0 0 0 0 0 0
          0 0 0 0 0 0
          0 0 0 0 0 0
          0 0 0 0 0 0
          0 0 0 0 0 0
          0 0 0 0 0 0
          0 0 0 0 0 0
          0 0 0 0 0 0
          0 0 0 0 0 0
          0 0 0 0 0 0
          0 0 0 0 0 0
          0 0 0 0 0 0
          0 0 0 0 0 0
          0 0 0 0 0 0
          0 0 0 0 0 0
          0 0 0 0 0 0
          0 0 0 0 0 0
          0 0 0 0 0 0
          0 0 0 0 0 0
          0 0 0 0 0 0
          0 0 0 0 0 0
          0 0 0 0 0 0
          0 0 0 0 0 0
          0 0 0 0 0 0
          0 0 0 0 0 0
          0 0 0 0 0 0
          0 0 0 0 0 0
          0 0 0 0 0 0
          0 0 0 0 0 0
          0 0 0 0 0 0
          0 0 0 0 0 0
          0 0 0 0 0 0
          0 0 0 0 0 0
          0 0 0 0 0 0
          0 0 0 0 0 0
          0 0 0 0 0 0
          0 0 0 0 0 0
          0 0 0 0 0 0
          0 0 0 0 0 0
          0 0 0 0 0 0
          0 0 0 0 0 0
          0 0 0 0 0 0
          0 0 0 0 0 0
          0 0 0 0 0 0
          0 0 0 0 0 0
          0 0 0 0 0 0
          0 0 0 0 0 0
          0 0 0 0 0 0
          0 0 0 0 0 0
          0 0 0 0 0 0
          0 0 0 0 0 0
          0 0 0 0 0 0
          0 0 0 0 0 0
          0 0 0 0 0 0
          0 0 0 0 0 0
          0 0 0 0 0 0
          0 0 0 0 0 0
          0 0 0 0 0 0
          0 0 0 0 0 0
          0 0 0 0 0 0
          0 0 0 0 0 0
          0 0 0 0 0 0
          0 0 0 0 0 0
          0 0 0 0 0 0
          0 0 0 0 0 0
          0 0 0 0 0 0
          0 0 0 0 0 0
          0 0 0 0 0 0
          0 0 0 0 0 0
          0 0 0 0 0 0
          0 0 0 0 0 0
          0 0 0 0 0 0
          0 0 0 0 0 0
          0 0 0 0 0 0
          0 0 0 0 0 0
          0 0 0 0 0 0
          0 0 0 0 0 0
          0 0 0 0 0 0
          0 0 0 0 0 0
          0 0 0 0 0 0
          0 0 0 0 0 0
          0 0 0 0 0 0
          0 0 0 0 0 0
          0 0 0 0 0 0
          0 0 0 0 0 0
          0 0 0 0 0 0
          0 0 0 0 0 0
          0 0 0 0 0 0
          0 0 0 0 0 0
          0 0 0 0 0 0
          0 0 0 0
        </DataArray>
        <DataArray type="Float64" Name="gradient_error" format="ascii" RangeMin="7.350501516154678e-14" RangeMax="1.7562401671868841e-7">
          1.3288552190030906e-11 1.2208620253563506e-11 8.639331187923813e-12 9.21310228456635e-12 2.7563427925549368e-11 2.418467702288947e-11
          1.461925390129227e-11 1.6345425787779666e-11 9.313053460079772e-12 7.140897156477233e-12 1.5444507374831264e-11 1.0201067977541415e-11
          6.079506602579119e-12 5.505667628022625e-12 8.375511127727851e-12 6.6546596212161245e-12 4.393317216594772e-12 4.660130359691985e-12
          7.454917305792918e-12 6.188287486563339e-12 4.2416048411933025e-12 4.59352548109728e-12 7.763265907216914e-12 6.3261839936430595e-12
          4.802524305164243e-12 4.882468090780466e-12 6.332939950999554e-12 5.598433270284792e-12 5.38711944390665e-12 5.166686776354537e-12
          5.017480075560862e-12 4.943876626560319e-12 5.2624848257712154e-12 5.0952274836711995e-12 4.702628273556667e-12 4.796456351054538e-12
          4.942429712453925e-12 4.930616234994455e-12 4.858725964271441e-12 4.883526951073057e-12 4.897427122931437e-12 4.906135539285198e-12
          4.948755016977108e-12 4.932886572151904e-12 4.9106381178604505e-12 4.9128154327047e-12 4.925964316516736e-12 4.921652347226365e-12
          4.914656039898165e-12 4.915081037760786e-12 4.918308349233292e-12 4.917359796916142e-12 4.915799235025448e-12 4.915798283993749e-12
          4.915931584025138e-12 4.915871533860472e-12 4.915958282254683e-12 4.915900430282235e-12 4.915571528085853e-12 4.915641252939409e-12
          5.07004212228412e-12 5.137652379101793e-12 5.05383077969507e-12 5.127423650009963e-12 4.968740852874693e-12 4.9576285802515655e-12
          4.9318286534661316e-12 4.933808114704398e-12 4.926943502789197e-12 4.92165766733376e-12 4.945446121001256e-12 4.889102080069203e-12
          4.962411876396689e-12 4.863926589570028e-12 4.946254108802424e-12 4.870273177559777e-12 4.927970141571182e-12 4.89028442855241e-12
          4.918802757534984e-12 4.908327937874675e-12 4.9148439556389584e-12 4.917018127326699e-12 4.91499274754895e-12 4.9173403779359915e-12
          4.915506035623406e-12 4.916411244598993e-12 4.915797332962052e-12 4.9158114836958055e-12 4.915842578309786e-12 4.915710977792964e-12
          1.2230661870786807e-10 1.06388672704523e-10 5.86555494909868e-11 6.739406976722256e-11 6.558867349041931e-11 3.694042118763848e-11
          2.7730164639378804e-11 1.7281907620047162e-11 1.812146993880532e-11 1.2146936251968672e-11 1.8981197474527663e-11 1.2539852304516291e-11
          1.4314932636661539e-11 1.0209861346916085e-11 1.2146238687649217e-11 8.868790694253262e-12 9.144334617670168e-12 7.151067071406028e-12
          5.48309273574791e-12 5.233465510675718e-12 4.840971460172518e-12 4.878993211618497e-12 4.8841747076538106e-12 4.897630055025937e-12
          4.906527296902328e-12 4.9100133681562375e-12 4.914713153827508e-12 4.915129557444306e-12 4.9160706174853776e-12 4.915995823268378e-12
          1.0922426277450586e-11 1.2481520826577036e-11 8.292168884857649e-12 6.833650600715518e-12 6.1724025651320226e-12 6.098507134504923e-12
          6.1047900571706336e-12 5.591342700857305e-12 5.157799525141888e-12 4.983838285603527e-12 4.917014963064478e-12 4.911085402398064e-12
          4.913499439410147e-12 4.915545961061103e-12 4.915921029051378e-12 5.301105559064808e-10 4.582937099799798e-10 2.528293184836246e-10
          2.9312800215851874e-10 2.783023037830146e-10 1.5505193276295854e-10 1.1286278805133872e-10 6.73746809771548e-11 7.037807603045624e-11
          4.3437307849135825e-11 7.322419425501262e-11 4.407518206801871e-11 5.1401840829439514e-11 3.2686844219903245e-11 4.163831516520776e-11
          2.572001377096699e-11 2.616704975928093e-11 1.6250368754211726e-11 7.900057392548874e-12 6.522741202326981e-12 5.144197618485381e-12
          5.02786416449457e-12 5.016482740335018e-12 4.971964610681424e-12 4.9511965874219875e-12 4.937187961749307e-12 4.924026535505497e-12
          4.920163416419187e-12 4.919263117178574e-12 4.91711547496019e-12 4.736492698726934e-11 5.614544841055662e-11 3.180156174290251e-11
          2.188657390297087e-11 1.64965396678154e-11 1.4926169881024774e-11 1.3971847610366975e-11 9.801712376726226e-12 6.333687749142516e-12
          5.145425012105086e-12 4.911530710503761e-12 4.92744648102783e-12 4.923179336076628e-12 4.916300297332875e-12 4.914967832741806e-12
          2.301043421633473e-9 1.979858382098271e-9 1.1081714891902184e-9 1.2891479746765933e-9 1.1926664969461146e-9 6.769687820829907e-10
          4.769177257415244e-10 2.928018396900757e-10 2.8234496780241556e-10 1.8022256333811539e-10 2.873605649300216e-10 1.767303396764957e-10
          2.006508887699409e-10 1.293259714672281e-10 1.6712372268397924e-10 1.0226275087410206e-10 1.0744286537639693e-10 6.333981530996498e-11
          2.559090497909837e-11 1.7630729410354966e-11 5.64280327567178e-12 5.618829559233246e-12 4.797943118775421e-12 4.859808457986703e-12
          4.813699188317357e-12 4.8481699092343696e-12 4.881565389117968e-12 4.8908012887747965e-12 4.894753530389703e-12 4.8992791658901634e-12
          2.3648459628216556e-10 2.7725252771971363e-10 1.612710672198666e-10 1.0868595363862696e-10 7.81001588738152e-11 6.610011442296977e-11
          5.800105416451528e-11 3.740177906422488e-11 1.923676524353304e-11 9.670553841611565e-12 5.59485584279471e-12 4.921673797197985e-12
          4.882640630151382e-12 4.900037188431623e-12 4.903804801390624e-12 1.0019730138217915e-8 8.59044948130586e-9 4.8870643092078445e-9
          5.695911950677324e-9 5.151919689101485e-9 2.988052520264009e-9 2.0496091544553665e-9 1.3023993395019733e-9 1.1392773952811342e-9
          7.658201084434392e-10 1.1197179458377559e-9 7.187189295993447e-10 7.854490577655034e-10 5.258413653421455e-10 6.767567061196869e-10
          4.236926842888573e-10 4.4952587821831944e-10 2.6793269629939376e-10 1.0658353328986285e-10 7.129893600371252e-11 9.87487255166585e-12
          1.0394094416977228e-11 5.493602230663556e-12 5.39736919163943e-12 5.3323210891512345e-12 5.111680102273942e-12 5.2514934034779025e-12
          5.062993059851002e-12 5.235267052913565e-12 5.0522412926432715e-12 1.1836791371098283e-9 1.3720937631367342e-9 8.24185351426533e-10
          5.551895245485807e-10 3.923628216057441e-10 3.177199133609335e-10 2.662336729187876e-10 1.706286624580276e-10 8.633951438046824e-11
          3.601433871756222e-11 1.0913316282288607e-11 5.301136152615303e-12 4.891039115396648e-12 4.874492716224101e-12 4.8692155323729794e-12
          4.3827061565676206e-8 3.748610070430517e-8 2.1695360250725417e-8 2.5303773467522495e-8 2.2466064837255677e-8 1.3325003843188881e-8
          8.98023130712234e-9 5.901661716499484e-9 4.6645270543958765e-9 3.3173444990891007e-9 4.364209106828406e-9 2.95039330804656e-9
          3.100243901405985e-9 2.1677864851286638e-9 2.769119518277104e-9 1.7790559478897194e-9 1.9057757283357695e-9 1.1552816235172346e-9
          4.995049429424485e-10 3.3490016250916335e-10 6.035251853531032e-11 5.4621093611160313e-11 1.4764248549957724e-11 1.3633818780563632e-11
          5.990639318255364e-12 5.390824461547394e-12 4.928295848802021e-12 4.470498092950957e-12 4.7453235785083935e-12 4.321199572048535e-12
          5.904619797145666e-9 6.780485369368782e-9 4.183942849122089e-9 2.8230921258766277e-9 1.970161943782325e-9 1.5365775092647133e-9
          1.2353290688513426e-9 7.88992377502335e-10 4.047875186986992e-10 1.7029538207587821e-10 4.8889668687010316e-11 1.2503389011169538e-11
          4.791009604839425e-12 4.012700337099892e-12 3.897075565588675e-12 1.7562401671868841e-7 1.478958807493747e-7 8.646809994942318e-8
          1.0230840753552251e-7 8.445632254820121e-8 5.080100389423015e-8 2.8394691598152014e-8 1.87754040853684e-8 6.077011578229567e-10
          6.796033579821464e-10 7.950554284138388e-11 1.313036902867734e-10 1.4813649721434277e-11 2.499448326987439e-11 6.395933489843155e-12
          5.539339528169013e-12 3.9493140813116375e-12 3.4043688779742136e-12 3.5612475918017603e-12 3.080480323138333e-12 2.5040319149471646e-8
          2.8992798352356616e-8 1.7145685240259085e-8 1.0814024076840119e-8 8.225957262295482e-10 1.8051265851534123e-10 3.42490125299111e-11
          4.68274556649487e-12 2.8594236746367906e-12 2.5997130544749067e-12 1.5316168396568822e-10 4.414189353387344e-10 4.679974325543378e-12
          2.061251836159438e-11 4.042698595640253e-12 3.991118940220601e-12 2.6491001984204802e-12 2.1892375006624083e-12 2.3304881112017435e-12
          1.871031670460528e-12 7.593860529751969e-10 1.6197638409550555e-10 2.740656366341227e-11 3.95994331046854e-12 1.7293748029043364e-12
          1.4115752297193122e-12 1.0632819202545917e-10 2.3692422795321773e-13 2.8380779000755896e-12 1.0243339975646238e-12 2.114514184052835e-12
          1.5816172067210512e-12 1.240337387448934e-12 1.426531377465616e-12 9.99956206255035e-13 5.42951403103373e-10 3.6329074586380866e-11
          4.1965595968276576e-12 3.1829414802281125e-12 8.99057568176817e-13 5.733810350444539e-13 4.131124803976114e-10 4.729256866648489e-10
          3.669521195059988e-10 2.0263861199556466e-11 5.4511202016821755e-11 4.217997021373689e-12 4.426650216602995e-11 8.027133389469689e-12
          8.149194923302346e-13 4.068185975245927e-12 6.750259841244345e-11 4.6339443733099946e-11 6.95975540426945e-12 1.2963740712287119e-11
          1.0886302297694139e-12 1.1332905804742159e-11 1.373904817264723e-12 1.1771780982611451e-12 7.857989474180216e-13 9.309593253135163e-13
          6.750205263471937e-13 5.138967684175687e-13 5.043691879064445e-13 9.804513792575668e-13 1.0425700186765082e-12 4.948416073953201e-13
          1.8777689674298811e-13 6.807833629760971e-13 3.337178494656952e-13 1.1046886580954497e-12 2.483195985416993e-11 3.151235969261945e-11
          8.644816587301043e-12 3.918756020665064e-12 6.100072195126393e-11 6.59241068412864e-11 1.3393179003264738e-11 9.033481649546699e-13
          2.3961328694633327e-12 7.102726652591168e-13 1.5297792452299234e-12 1.0122843572145018e-12 2.8819591525505275e-13 6.418847244902547e-13
          3.840886415805916e-12 3.1832595896847485e-12 1.2223462616440385e-12 1.4329577918215376e-12 4.733812837102273e-13 2.4310744431393985e-12
          5.030318539671488e-10 3.496071122116541e-10 2.863480189091793e-10 1.1434995034121635e-10 1.0776194890802737e-10 9.81994571152459e-11
          1.2895766756068278e-10 4.074535922392467e-11 1.0117394747483839e-10 1.597158780061197e-10 2.0537408442898886e-11 1.6664422244802122e-11
          9.937889829329553e-12 6.587860654676452e-12 1.077241251790502e-11 9.22354591322729e-12 4.665956150604818e-12 1.2791436046705356e-11
          3.23783148002335e-12 7.674679308549559e-12 5.180556945811994e-10 7.815748752602651e-10 2.659191736997311e-10 1.761425504901959e-10
          2.3082805026242576e-10 1.700110535110083e-10 6.799590057035366e-11 8.28730217922224e-11 6.518370608160456e-11 6.210867820657665e-11
          1.7036381427975767e-11 1.5276634139139298e-11 2.73334207502784e-11 1.8666114200183225e-11 7.76632723526522e-12 5.903365033154875e-11
          1.3516886850302829e-11 9.998807650088044e-12 8.663554017946618e-12 2.3454164393143064e-11 7.390042722841239e-12 4.271089575065199e-12
          3.778496282308493e-12 7.607598928357639e-12 3.1974661357072063e-12 3.06460256039507e-12 1.1463967050245175e-12 9.868878196955737e-13
          6.589179683235876e-13 8.273495658184395e-13 1.029321593286996e-12 9.747192381178808e-13 1.0721194280733281e-12 1.3497926586878367e-12
          1.501820008058764e-10 1.4220899051065617e-10 5.496590160860546e-11 1.5530264235600983e-10 1.606523905888069e-10 1.3423598021543596e-10
          4.293460250318799e-10 1.6600213882160394e-10 7.560195682508693e-12 1.027991374528339e-11 2.1897649674938573e-11 2.5657044973408556e-11
          5.725121637736237e-12 5.295374521016899e-12 8.677854812375755e-12 1.2999631808058084e-11 2.941644027187854e-11 1.2060335103734612e-11
          2.790226563044413e-10 3.0809461311490915e-10 6.948490233845982e-11 1.6026520736402279e-10 1.7841119775921172e-10 3.3716656992537705e-10
          1.0129308066328093e-9 1.9655718815440068e-10 2.0413905478039892e-11 2.5021227733634762e-11 2.601001470521701e-11 3.7174916503920866e-11
          6.9484661311127435e-12 5.892925367706041e-12 1.0744554707838026e-11 2.962854998922964e-11 4.833981830262472e-11 1.559618404797001e-11
          7.924419567416494e-13 1.5248674455691187e-12 1.085280537203316e-12 2.0139436327144644e-12 9.121335246195895e-13 4.425691458859831e-13
          1.1474719911438236e-12 2.257292934396588e-12 2.942606728225613e-12 1.852374836401664e-12 3.2849572013728534e-12 3.199657275141009e-12
          1.8538279474783924e-12 1.467360969385964e-12 2.7724252498965586e-12 2.5700254541387133e-12 1.261571891794834e-12 3.114357348909165e-12
          1.0808939912935358e-12 2.3676256583808688e-12 1.9454319692240736e-11 3.5922915763132594e-12 3.4571387580612366e-12 4.207403444978599e-12
          6.808765912445529e-12 1.048206269100779e-12 2.997709448778708e-12 2.7773378169844764e-12 3.9912215483059e-12 7.828234457563391e-12
          2.665487613244646e-12 1.320312712426246e-11 2.0277000042190266e-11 1.6002263686776937e-11 3.7658393262566694e-13 4.21254490358167e-13
          8.673558931424998e-13 7.982136530832801e-13 3.225468557809209e-13 3.2018825938350847e-13 3.7633349361796025e-13 4.659250480906671e-13
          7.290714130240604e-13 4.3247872785241214e-13 1.160888167775275e-12 1.4298489062787267e-12 7.226811822954668e-13 7.743059304279709e-13
          9.75685056135245e-13 1.0528605614668087e-12 8.453548172667859e-13 1.698809644782179e-12 8.25930678560475e-13 1.1300360667983724e-12
          1.4442311261523618e-13 2.1253076133937782e-13 1.4820618172747362e-13 2.119208749209516e-13 1.5052056505488452e-13 7.350501516154678e-14
          1.4160528525092784e-13 2.8063841006351946e-13 2.7563556811442953e-13 2.097055553403089e-13 1.5198925083971107e-13 2.113109885025253e-13
          1.3269000544697117e-13 2.7063272616533955e-13 5.792441033393034e-12 6.540159917024981e-12 4.129645581425755e-12 3.961537487016478e-12
          6.924424909983483e-12 6.724006847939607e-12 5.040544504679509e-12 2.468769318170111e-13 2.178188939624332e-13 4.179259512866868e-13
          3.504812775816851e-13 1.1695467184611746e-13 1.7657756545522658e-13 1.620284251160598e-13 1.8876085610785528e-13 2.8303660387668325e-13
          1.4747928477689304e-13 5.889749707563624e-13 4.831436612009369e-13 2.0710217838600216e-13 3.7731235164551127e-13 2.430057580320493e-9
          1.3226151697535148e-9 1.360894190362212e-9 1.8927626515587604e-8 1.102887518358777e-9 2.321069504063862e-9 3.189630553730574e-10
          6.490024727080101e-10 5.065450699058932e-10 3.515780918369354e-10 7.949730914488714e-10 6.296901727405893e-10 2.2280540938331705e-9
          4.897665503365397e-10 4.258889174483324e-10 4.2761747124010614e-10 8.714920114682449e-10 1.0110335216927241e-9 3.675213963918515e-9
          1.0807500389962064e-9 1.046840422814508e-9 3.4383872024585285e-9 3.201560440998541e-9
        </DataArray>
        <DataArray type="Float64" Name="gradient_matprop_error" format="ascii" RangeMin="0" RangeMax="0">
          0 0 0 0 0 0
          0 0 0 0 0 0
          0 0 0 0 0 0
          0 0 0 0 0 0
          0 0 0 0 0 0
          0 0 0 0 0 0
          0 0 0 0 0 0
          0 0 0 0 0 0
          0 0 0 0 0 0
          0 0 0 0 0 0
          0 0 0 0 0 0
          0 0 0 0 0 0
          0 0 0 0 0 0
          0 0 0 0 0 0
          0 0 0 0 0 0
          0 0 0 0 0 0
          0 0 0 0 0 0
          0 0 0 0 0 0
          0 0 0 0 0 0
          0 0 0 0 0 0
          0 0 0 0 0 0
          0 0 0 0 0 0
          0 0 0 0 0 0
          0 0 0 0 0 0
          0 0 0 0 0 0
          0 0 0 0 0 0
          0 0 0 0 0 0
          0 0 0 0 0 0
          0 0 0 0 0 0
          0 0 0 0 0 0
          0 0 0 0 0 0
          0 0 0 0 0 0
          0 0 0 0 0 0
          0 0 0 0 0 0
          0 0 0 0 0 0
          0 0 0 0 0 0
          0 0 0 0 0 0
          0 0 0 0 0 0
          0 0 0 0 0 0
          0 0 0 0 0 0
          0 0 0 0 0 0
          0 0 0 0 0 0
          0 0 0 0 0 0
          0 0 0 0 0 0
          0 0 0 0 0 0
          0 0 0 0 0 0
          0 0 0 0 0 0
          0 0 0 0 0 0
          0 0 0 0 0 0
          0 0 0 0 0 0
          0 0 0 0 0 0
          0 0 0 0 0 0
          0 0 0 0 0 0
          0 0 0 0 0 0
          0 0 0 0 0 0
          0 0 0 0 0 0
          0 0 0 0 0 0
          0 0 0 0 0 0
          0 0 0 0 0 0
          0 0 0 0 0 0
          0 0 0 0 0 0
          0 0 0 0 0 0
          0 0 0 0 0 0
          0 0 0 0 0 0
          0 0 0 0 0 0
          0 0 0 0 0 0
          0 0 0 0 0 0
          0 0 0 0 0 0
          0 0 0 0 0 0
          0 0 0 0 0 0
          0 0 0 0 0 0
          0 0 0 0 0 0
          0 0 0 0 0 0
          0 0 0 0 0 0
          0 0 0 0 0 0
          0 0 0 0 0 0
          0 0 0 0 0 0
          0 0 0 0 0 0
          0 0 0 0 0 0
          0 0 0 0 0 0
          0 0 0 0 0 0
          0 0 0 0 0 0
          0 0 0 0 0 0
          0 0 0 0 0 0
          0 0 0 0 0 0
          0 0 0 0 0 0
          0 0 0 0 0 0
          0 0 0 0 0 0
          0 0 0 0 0 0
          0 0 0 0 0 0
          0 0 0 0 0 0
          0 0 0 0 0 0
          0 0 0 0 0 0
          0 0 0 0 0 0
          0 0 0 0 0 0
          0 0 0 0 0 0
          0 0 0 0 0 0
          0 0 0 0 0 0
          0 0 0 0 0 0
          0 0 0 0 0 0
          0 0 0 0 0 0
          0 0 0 0 0 0
          0 0 0 0 0 0
          0 0 0 0 0 0
          0 0 0 0
        </DataArray>
        <DataArray type="Float64" Name="initial_marker" format="ascii" RangeMin="0" RangeMax="0">
          0 0 0 0 0 0
          0 0 0 0 0 0
          0 0 0 0 0 0
          0 0 0 0 0 0
          0 0 0 0 0 0
          0 0 0 0 0 0
          0 0 0 0 0 0
          0 0 0 0 0 0
          0 0 0 0 0 0
          0 0 0 0 0 0
          0 0 0 0 0 0
          0 0 0 0 0 0
          0 0 0 0 0 0
          0 0 0 0 0 0
          0 0 0 0 0 0
          0 0 0 0 0 0
          0 0 0 0 0 0
          0 0 0 0 0 0
          0 0 0 0 0 0
          0 0 0 0 0 0
          0 0 0 0 0 0
          0 0 0 0 0 0
          0 0 0 0 0 0
          0 0 0 0 0 0
          0 0 0 0 0 0
          0 0 0 0 0 0
          0 0 0 0 0 0
          0 0 0 0 0 0
          0 0 0 0 0 0
          0 0 0 0 0 0
          0 0 0 0 0 0
          0 0 0 0 0 0
          0 0 0 0 0 0
          0 0 0 0 0 0
          0 0 0 0 0 0
          0 0 0 0 0 0
          0 0 0 0 0 0
          0 0 0 0 0 0
          0 0 0 0 0 0
          0 0 0 0 0 0
          0 0 0 0 0 0
          0 0 0 0 0 0
          0 0 0 0 0 0
          0 0 0 0 0 0
          0 0 0 0 0 0
          0 0 0 0 0 0
          0 0 0 0 0 0
          0 0 0 0 0 0
          0 0 0 0 0 0
          0 0 0 0 0 0
          0 0 0 0 0 0
          0 0 0 0 0 0
          0 0 0 0 0 0
          0 0 0 0 0 0
          0 0 0 0 0 0
          0 0 0 0 0 0
          0 0 0 0 0 0
          0 0 0 0 0 0
          0 0 0 0 0 0
          0 0 0 0 0 0
          0 0 0 0 0 0
          0 0 0 0 0 0
          0 0 0 0 0 0
          0 0 0 0 0 0
          0 0 0 0 0 0
          0 0 0 0 0 0
          0 0 0 0 0 0
          0 0 0 0 0 0
          0 0 0 0 0 0
          0 0 0 0 0 0
          0 0 0 0 0 0
          0 0 0 0 0 0
          0 0 0 0 0 0
          0 0 0 0 0 0
          0 0 0 0 0 0
          0 0 0 0 0 0
          0 0 0 0 0 0
          0 0 0 0 0 0
          0 0 0 0 0 0
          0 0 0 0 0 0
          0 0 0 0 0 0
          0 0 0 0 0 0
          0 0 0 0 0 0
          0 0 0 0 0 0
          0 0 0 0 0 0
          0 0 0 0 0 0
          0 0 0 0 0 0
          0 0 0 0 0 0
          0 0 0 0 0 0
          0 0 0 0 0 0
          0 0 0 0 0 0
          0 0 0 0 0 0
          0 0 0 0 0 0
          0 0 0 0 0 0
          0 0 0 0 0 0
          0 0 0 0 0 0
          0 0 0 0 0 0
          0 0 0 0 0 0
          0 0 0 0 0 0
          0 0 0 0 0 0
          0 0 0 0 0 0
          0 0 0 0 0 0
          0 0 0 0 0 0
          0 0 0 0 0 0
          0 0 0 0
        </DataArray>
        <DataArray type="Float64" Name="markers_norefine" format="ascii" RangeMin="0" RangeMax="0">
          0 0 0 0 0 0
          0 0 0 0 0 0
          0 0 0 0 0 0
          0 0 0 0 0 0
          0 0 0 0 0 0
          0 0 0 0 0 0
          0 0 0 0 0 0
          0 0 0 0 0 0
          0 0 0 0 0 0
          0 0 0 0 0 0
          0 0 0 0 0 0
          0 0 0 0 0 0
          0 0 0 0 0 0
          0 0 0 0 0 0
          0 0 0 0 0 0
          0 0 0 0 0 0
          0 0 0 0 0 0
          0 0 0 0 0 0
          0 0 0 0 0 0
          0 0 0 0 0 0
          0 0 0 0 0 0
          0 0 0 0 0 0
          0 0 0 0 0 0
          0 0 0 0 0 0
          0 0 0 0 0 0
          0 0 0 0 0 0
          0 0 0 0 0 0
          0 0 0 0 0 0
          0 0 0 0 0 0
          0 0 0 0 0 0
          0 0 0 0 0 0
          0 0 0 0 0 0
          0 0 0 0 0 0
          0 0 0 0 0 0
          0 0 0 0 0 0
          0 0 0 0 0 0
          0 0 0 0 0 0
          0 0 0 0 0 0
          0 0 0 0 0 0
          0 0 0 0 0 0
          0 0 0 0 0 0
          0 0 0 0 0 0
          0 0 0 0 0 0
          0 0 0 0 0 0
          0 0 0 0 0 0
          0 0 0 0 0 0
          0 0 0 0 0 0
          0 0 0 0 0 0
          0 0 0 0 0 0
          0 0 0 0 0 0
          0 0 0 0 0 0
          0 0 0 0 0 0
          0 0 0 0 0 0
          0 0 0 0 0 0
          0 0 0 0 0 0
          0 0 0 0 0 0
          0 0 0 0 0 0
          0 0 0 0 0 0
          0 0 0 0 0 0
          0 0 0 0 0 0
          0 0 0 0 0 0
          0 0 0 0 0 0
          0 0 0 0 0 0
          0 0 0 0 0 0
          0 0 0 0 0 0
          0 0 0 0 0 0
          0 0 0 0 0 0
          0 0 0 0 0 0
          0 0 0 0 0 0
          0 0 0 0 0 0
          0 0 0 0 0 0
          0 0 0 0 0 0
          0 0 0 0 0 0
          0 0 0 0 0 0
          0 0 0 0 0 0
          0 0 0 0 0 0
          0 0 0 0 0 0
          0 0 0 0 0 0
          0 0 0 0 0 0
          0 0 0 0 0 0
          0 0 0 0 0 0
          0 0 0 0 0 0
          0 0 0 0 0 0
          0 0 0 0 0 0
          0 0 0 0 0 0
          0 0 0 0 0 0
          0 0 0 0 0 0
          0 0 0 0 0 0
          0 0 0 0 0 0
          0 0 0 0 0 0
          0 0 0 0 0 0
          0 0 0 0 0 0
          0 0 0 0 0 0
          0 0 0 0 0 0
          0 0 0 0 0 0
          0 0 0 0 0 0
          0 0 0 0 0 0
          0 0 0 0 0 0
          0 0 0 0 0 0
          0 0 0 0 0 0
          0 0 0 0 0 0
          0 0 0 0 0 0
          0 0 0 0 0 0
          0 0 0 0 0 0
          0 0 0 0
        </DataArray>
        <DataArray type="Float64" Name="markers_mustrefine" format="ascii" RangeMin="0" RangeMax="0">
          0 0 0 0 0 0
          0 0 0 0 0 0
          0 0 0 0 0 0
          0 0 0 0 0 0
          0 0 0 0 0 0
          0 0 0 0 0 0
          0 0 0 0 0 0
          0 0 0 0 0 0
          0 0 0 0 0 0
          0 0 0 0 0 0
          0 0 0 0 0 0
          0 0 0 0 0 0
          0 0 0 0 0 0
          0 0 0 0 0 0
          0 0 0 0 0 0
          0 0 0 0 0 0
          0 0 0 0 0 0
          0 0 0 0 0 0
          0 0 0 0 0 0
          0 0 0 0 0 0
          0 0 0 0 0 0
          0 0 0 0 0 0
          0 0 0 0 0 0
          0 0 0 0 0 0
          0 0 0 0 0 0
          0 0 0 0 0 0
          0 0 0 0 0 0
          0 0 0 0 0 0
          0 0 0 0 0 0
          0 0 0 0 0 0
          0 0 0 0 0 0
          0 0 0 0 0 0
          0 0 0 0 0 0
          0 0 0 0 0 0
          0 0 0 0 0 0
          0 0 0 0 0 0
          0 0 0 0 0 0
          0 0 0 0 0 0
          0 0 0 0 0 0
          0 0 0 0 0 0
          0 0 0 0 0 0
          0 0 0 0 0 0
          0 0 0 0 0 0
          0 0 0 0 0 0
          0 0 0 0 0 0
          0 0 0 0 0 0
          0 0 0 0 0 0
          0 0 0 0 0 0
          0 0 0 0 0 0