<?xml version="1.0"?>
<VTKFile type="UnstructuredGrid" version="0.1" byte_order="LittleEndian" header_type="UInt32" compressor="vtkZLibDataCompressor">
  <UnstructuredGrid>
    <Piece NumberOfPoints="2331" NumberOfCells="1366">
      <PointData>
        <DataArray type="Int32" Name="libmesh_node_id" format="ascii" RangeMin="0" RangeMax="9134">
          0 1 2 3 4 5
          6 7 8 9 10 11
          12 13 14 15 16 17
          18 19 20 21 22 23
          24 25 26 27 28 29
          30 31 32 33 34 35
          36 37 38 39 40 41
          42 43 44 45 46 47
          48 49 50 51 52 53
          54 55 56 57 58 59
          60 61 62 63 64 65
          66 67 68 69 70 71
          72 73 74 75 76 77
          78 79 80 81 82 83
          128 129 130 131 132 133
          134 135 136 137 138 139
          140 141 142 143 144 145
          146 147 148 149 150 151
          152 153 154 155 156 157
          158 159 160 161 162 163
          164 165 166 167 168 169
          192 193 194 195 196 197
          198 199 200 201 202 203
          204 205 206 207 208 209
          210 211 212 213 214 215
          216 217 218 219 220 221
          222 223 224 225 226 227
          228 229 230 231 232 233
          256 257 258 259 260 261
          262 263 264 265 266 267
          268 269 270 271 272 273
          274 275 276 288 289 290
          291 292 293 294 295 296
          297 298 299 300 301 302
          303 304 305 306 307 308
          309 310 311 312 313 314
          315 316 317 318 319 320
          321 322 323 324 325 326
          327 328 329 352 353 354
          355 356 357 358 359 360
          361 362 363 364 365 366
          367 368 369 370 371 372
          384 385 386 387 388 389
          390 391 392 393 394 395
          396 397 398 399 400 401
          402 403 404 405 406 407
          408 409 410 411 412 413
          414 415 416 417 418 419
          420 421 422 423 448 449
          450 451 452 453 454 455
          456 457 458 459 460 461
          462 463 464 465 466 467
          480 481 482 483 484 485
          486 487 488 489 490 491
          492 493 494 495 496 497
          498 499 500 501 502 503
          504 505 506 507 508 509
          510 511 512 513 514 515
          516 517 518 519 544 545
          546 547 548 549 550 551
          552 553 554 555 556 557
          558 559 560 561 562 563
          576 577 578 579 580 581
          582 583 584 585 586 587
          588 589 590 591 592 593
          594 595 596 597 598 599
          600 601 602 603 604 605
          606 607 608 609 610 611
          612 613 615 640 641 642
          643 644 645 646 647 648
          649 650 651 652 653 654
          655 656 657 658 659 672
          673 674 675 676 677 678
          679 680 681 682 683 684
          685 686 687 688 689 690
          691 692 693 694 695 696
          697 698 699 700 701 702
          703 704 705 706 707 708
          709 710 711 712 713 714
          715 716 717 718 719 720
          721 722 723 725 726 727
          728 729 730 732 813 814
          815 816 817 818 819 820
          821 822 823 824 825 826
          827 828 829 830 831 832
          833 834 835 836 837 838
          839 840 841 842 843 844
          845 846 847 848 849 850
          851 852 853 854 855 856
          857 858 859 860 861 862
          863 864 865 866 867 868
          869 870 871 872 873 874
          875 876 877 878 879 880
          881 882 883 884 885 886
          887 888 889 890 891 892
          893 894 895 896 897 898
          899 900 901 902 903 904
          905 909 910 912 913 915
          1058 1059 1060 1061 1062 1063
          1064 1065 1066 1067 1068 1069
          1070 1071 1072 1073 1074 1075
          1076 1077 1078 1079 1080 1081
          1082 1083 1084 1085 1086 1087
          1088 1089 1090 1091 1108 1109
          1110 1111 1112 1113 1114 1115
          1116 1117 1118 1119 1120 1121
          1123 1125 1130 1133 1156 1157
          1158 1159 1160 1161 1162 1163
          1164 1165 1166 1167 1168 1169
          1170 1171 1172 1173 1174 1175
          1176 1177 1178 1179 1180 1181
          1182 1183 1184 1185 1186 1187
          1188 1189 1190 1191 1192 1193
          1194 1195 1196 1197 1198 1199
          1200 1201 1202 1203 1204 1205
          1206 1207 1208 1209 1210 1211
          1212 1213 1214 1215 1216 1217
          1218 1219 1220 1221 1222 1223
          1224 1225 1226 1227 1228 1229
          1230 1231 1232 1233 1314 1315
          1316 1317 1318 1319 1320 1321
          1322 1323 1324 1325 1326 1327
          1328 1329 1330 1331 1332 1333
          1334 1335 1336 1337 1338 1339
          1340 1341 1342 1343 1344 1345
          1346 1347 1348 1349 1350 1351
          1352 1353 1354 1355 1356 1357
          1358 1359 1360 1361 1362 1363
          1364 1365 1366 1367 1368 1369
          1370 1371 1372 1373 1374 1375
          1376 1377 1378 1379 1380 1381
          1382 1383 1384 1385 1386 1387
          1388 1389 1390 1391 1392 1393
          1394 1395 1396 1397 1398 1399
          1400 1401 1402 1403 1404 1405
          1406 1407 1408 1409 1410 1411
          1412 1413 1414 1415 1416 1417
          1418 1419 1420 1421 1422 1423
          1424 1425 1426 1427 1428 1429
          1430 1431 1432 1433 1434 1435
          1436 1437 1438 1439 1440 1441
          1442 1443 1444 1445 1446 1447
          1448 1449 1450 1451 1452 1453
          1454 1455 1456 1457 1458 1459
          1460 1461 1462 1463 1464 1465
          1466 1467 1468 1469 1470 1471
          1472 1473 1474 1475 1476 1477
          1478 1479 1480 1481 1482 1483
          1484 1485 1486 1487 1488 1489
          1490 1491 1492 1493 1494 1495
          1496 1497 1498 1499 1500 1501
          1502 1503 1504 1505 1506 1507
          1508 1509 1510 1511 1512 1513
          1514 1515 1516 1517 1518 1519
          1520 1521 1522 1523 1524 1525
          1526 1527 1528 1529 1530 1531
          1532 1533 1534 1535 1536 1537
          1538 1539 1540 1541 1542 1543
          1544 1545 1546 1547 1548 1549
          1550 1551 1552 1553 1554 1555
          1556 1557 1558 1559 1560 1561
          1562 1563 1564 1565 1566 1567
          1568 1569 1570 1571 1572 1573
          1574 1575 1576 1577 1578 1579
          1580 1581 1582 1583 1584 1585
          1586 1587 1588 1589 1590 1591
          1592 1593 1594 1609 1610 1611
          1612 1613 1614 1615 1616 1617
          1618 2069 2070 2071 2072 2073
          2074 2075 2076 2077 2078 2093
          2094 2095 2096 2097 2098 2099
          2100 2101 2102 2103 2104 2105
          2106 2107 2108 2109 2110 2111
          2112 2113 2114 2115 2116 2117
          2118 2119 2120 2121 2122 2133
          2134 2135 2136 2137 2138 2139
          2140 2141 2142 2143 2144 2145
          2146 2147 2148 2149 2150 2151
          2152 2153 2154 2155 2156 2157
          2158 2159 2160 2161 2162 2163
          2164 2165 2166 2167 2168 2169
          2170 2171 2172 2173 2174 2175
          2176 2177 2178 2179 2180 2181
          2182 2183 2184 2185 2186 2187
          2188 2189 2190 2191 2192 2193
          2194 2195 2196 2197 2198 2199
          2200 2201 2202 2203 2204 2205
          2206 2237 2238 2239 2240 2241
          2242 2243 2244 2245 2246 2247
          2248 2249 2250 2251 2252 2253
          2254 2255 2256 2257 2258 2259
          2260 2261 2262 2263 2264 2265
          2266 2267 2268 2269 2270 2271
          2272 2273 2274 2275 2276 2277
          2278 2279 2280 2281 2282 2283
          2284 2285 2286 2287 2288 2289
          2290 2291 2292 2293 2294 2295
          2296 2297 2298 2299 2300 2301
          2302 2303 2304 2305 2306 2307
          2308 2309 2310 2311 2312 2313
          2314 2315 2316 2317 2318 2319
          2320 2321 2322 2323 2324 2325
          2326 2327 2328 2329 2330 2331
          2332 2333 2334 2335 2336 2337
          2338 2339 2340 2341 2342 2343
          2344 2345 2346 2347 2348 2349
          2350 2351 2352 2353 2354 2355
          2356 2357 2358 2359 2360 2361
          2362 2363 2364 2365 2366 2367
          2368 2369 2370 2371 2372 2373
          2374 2375 2376 2377 2378 2379
          2380 2381 2382 2383 2384 2385
          2386 2387 2388 2389 2390 2391
          2392 2393 2394 2395 2396 2397
          2398 2399 2400 2401 2402 2403
          2404 2405 2406 2407 2408 2409
          2410 2411 2412 2413 2414 2415
          2426 2427 2428 2429 2430 2431
          2432 2563 2564 2565 2566 2567
          2568 2569 2570 2571 2572 2573
          2574 2575 2576 3786 3787 3788
          3789 3790 3791 3792 3793 3794
          3795 3796 3797 3798 3799 3800
          3801 3802 3803 3804 3805 3837
          3838 3839 3840 3841 3842 3843
          3844 3845 3846 3847 3848 3849
          3850 3851 3852 3853 3854 3855
          3856 3857 3858 3859 3860 3861
          3862 3863 3864 3865 3866 3867
          3868 3869 3870 3871 3872 3873
          3874 3875 3876 3877 3878 3879
          3880 8203 8204 8205 8206 8207
          8208 8209 8210 8211 8212 8213
          8214 8215 8216 8217 8218 8219
          8220 8221 8222 8223 8224 8225
          8226 8227 8228 8229 8230 8231
          8232 8233 8234 8235 8236 8237
          8238 8239 8240 8241 8242 8243
          8244 8245 8246 8247 8248 8249
          8250 8251 8252 8253 8254 8255
          8256 8257 8258 8259 8260 8261
          8262 8263 8264 8265 8266 8267
          8268 8269 8270 8271 8272 8273
          8274 8275 8276 8277 8278 8279
          8280 8281 8282 8283 8284 8285
          8286 8287 8288 8289 8290 8291
          8292 8293 8294 8295 8296 8297
          8298 8299 8300 8301 8302 8303
          8304 8305 8306 8307 8308 8309
          8310 8311 8312 8313 8314 8315
          8316 8317 8318 8319 8320 8321
          8322 8323 8324 8325 8326 8327
          8328 8329 8330 8331 8332 8333
          8334 8335 8336 8337 8338 8339
          8340 8341 8342 8343 8344 8345
          8346 8347 8348 8349 8350 8351
          8352 8353 8354 8355 8356 8357
          8358 8359 8360 8361 8362 8363
          8364 8365 8366 8367 8368 8369
          8370 8371 8372 8373 8374 8375
          8376 8377 8378 8379 8380 8381
          8382 8383 8384 8385 8386 8387
          8388 8389 8390 8391 8392 8393
          8394 8395 8396 8397 8398 8399
          8400 8401 8402 8403 8404 8405
          8406 8407 8408 8409 8410 8411
          8412 8413 8414 8415 8416 8417
          8418 8419 8420 8421 8422 8423
          8424 8425 8426 8427 8428 8429
          8430 8431 8432 8433 8434 8435
          8436 8437 8438 8439 8440 8441
          8442 8443 8444 8445 8446 8447
          8448 8449 8450 8451 8452 8453
          8454 8455 8456 8457 8458 8459
          8460 8461 8462 8463 8464 8465
          8466 8467 8468 8469 8470 8471
          8472 8473 8474 8475 8476 8477
          8478 8479 8480 8481 8482 8483
          8484 8485 8486 8487 8488 8489
          8490 8491 8492 8493 8494 8495
          8496 8497 8498 8499 8500 8501
          8502 8503 8504 8505 8506 8507
          8508 8509 8510 8511 8512 8513
          8514 8515 8516 8517 8518 8519
          8520 8521 8522 8523 8524 8525
          8526 8527 8528 8529 8530 8531
          8532 8533 8534 8535 8536 8537
          8538 8539 8540 8541 8542 8543
          8544 8545 8546 8547 8548 8549
          8550 8551 8552 8553 8554 8555
          8556 8557 8558 8559 8560 8561
          8562 8563 8564 8565 8566 8567
          8568 8569 8570 8571 8572 8573
          8574 8575 8576 8577 8578 8579
          8580 8581 8582 8583 8584 8585
          8586 8587 8588 8589 8590 8591
          8592 8593 8594 8595 8596 8597
          8598 8599 8600 8601 8602 8603
          8604 8605 8606 8607 8608 8609
          8610 8611 8612 8613 8614 8615
          8616 8617 8618 8619 8620 8621
          8622 8623 8624 8625 8626 8627
          8628 8629 8630 8631 8632 8633
          8634 8635 8636 8637 8638 8639
          8640 8641 8642 8643 8644 8645
          8646 8647 8648 8649 8650 8651
          8652 8653 8654 8655 8656 8657
          8658 8659 8660 8661 8662 8663
          8664 8665 8666 8667 8668 8669
          8670 8671 8672 8673 8674 8675
          8676 8677 8678 8679 8680 8681
          8682 8683 8684 8685 8686 8687
          8688 8689 8690 8691 8692 8693
          8694 8695 8696 8697 8698 8699
          8700 8701 8702 8703 8704 8705
          8706 8707 8708 8709 8710 8711
          8712 8713 8714 8715 8716 8717
          8718 8719 8720 8721 8722 8723
          8724 8725 8726 8727 8728 8729
          8730 8731 8732 8733 8734 8735
          8736 8737 8738 8739 8740 8741
          8742 8743 8744 8745 8746 8747
          8748 8749 8750 8751 8752 8753
          8754 8755 8756 8757 8758 8759
          8760 8761 8762 8763 8764 8765
          8766 8767 8768 8769 8770 8771
          8772 8773 8774 8775 8776 8777
          8778 8779 8780 8781 8782 8783
          8784 8785 8786 8787 8788 8789
          8790 8791 8792 8793 8794 8795
          8796 8797 8798 8799 8800 8801
          8802 8803 8804 8805 8806 8807
          8808 8809 8810 8811 8812 8813
          8814 8815 8816 8817 8818 8819
          8820 8821 8822 8823 8824 8825
          8826 8827 8828 8829 8830 8831
          8832 8833 8834 8835 8836 8837
          8838 8839 8840 8841 8842 8843
          8844 8845 8846 8847 8848 8849
          8850 8851 8852 8853 8854 8855
          8856 8857 8858 8859 8860 8861
          8862 8863 8864 8865 8866 8867
          8868 8869 8870 8871 8872 8873
          8874 8875 8876 8877 8878 8879
          8880 8881 8882 8883 8884 8885
          8886 8887 8888 8889 8890 8891
          8892 8893 8894 8895 8896 8897
          8898 8899 8900 8901 8902 8903
          8904 8905 8906 8907 8908 8909
          8910 8911 8912 8913 8914 8915
          8916 8917 8918 8919 8920 8921
          8922 8923 8924 8925 8926 8927
          8928 8929 8930 8931 8932 8933
          8934 8935 8936 8937 8938 8939
          8940 8941 8942 8943 8944 8945
          8946 8947 8948 8949 8950 8951
          8952 8953 8954 8955 8956 8957
          8958 8959 8960 8961 8962 8963
          8964 8965 8966 8967 8968 8969
          8970 8971 8972 8973 8974 8975
          8976 8977 8978 8979 8980 8981
          8982 8983 8984 8985 8986 8987
          8988 8989 8990 8991 8992 8993
          8994 8995 8996 8997 8998 8999
          9000 9001 9002 9003 9004 9005
          9006 9007 9008 9009 9010 9011
          9012 9013 9014 9015 9016 9017
          9018 9019 9020 9021 9022 9023
          9024 9025 9026 9027 9028 9029
          9030 9031 9032 9033 9034 9035
          9036 9037 9038 9039 9040 9041
          9042 9043 9044 9045 9046 9047
          9048 9049 9050 9051 9052 9053
          9054 9055 9056 9057 9058 9059
          9060 9061 9062 9063 9064 9065
          9066 9067 9068 9069 9070 9071
          9072 9073 9074 9075 9076 9077
          9078 9079 9080 9081 9082 9083
          9084 9085 9086 9087 9088 9089
          9090 9091 9092 9093 9094 9095
          9096 9097 9098 9099 9100 9101
          9102 9103 9104 9105 9106 9107
          9108 9109 9110 9111 9112 9113
          9114 9115 9116 9117 9118 9119
          9120 9121 9122 9123 9124 9125
          9126 9127 9128 9129 9130 9131
          9132 9133 9134 84 85 86
          87 170 171 234 235 277
          330 331 373
        </DataArray>
        <DataArray type="Float64" Name="bounds" format="ascii" RangeMin="0" RangeMax="0">
          0 0 0 0 0 0
          0 0 0 0 0 0
          0 0 0 0 0 0
          0 0 0 0 0 0
          0 0 0 0 0 0
          0 0 0 0 0 0
          0 0 0 0 0 0
          0 0 0 0 0 0
          0 0 0 0 0 0
          0 0 0 0 0 0
          0 0 0 0 0 0
          0 0 0 0 0 0
          0 0 0 0 0 0
          0 0 0 0 0 0
          0 0 0 0 0 0
          0 0 0 0 0 0
          0 0 0 0 0 0
          0 0 0 0 0 0
          0 0 0 0 0 0
          0 0 0 0 0 0
          0 0 0 0 0 0
          0 0 0 0 0 0
          0 0 0 0 0 0
          0 0 0 0 0 0
          0 0 0 0 0 0
          0 0 0 0 0 0
          0 0 0 0 0 0
          0 0 0 0 0 0
          0 0 0 0 0 0
          0 0 0 0 0 0
          0 0 0 0 0 0
          0 0 0 0 0 0
          0 0 0 0 0 0
          0 0 0 0 0 0
          0 0 0 0 0 0
          0 0 0 0 0 0
          0 0 0 0 0 0
          0 0 0 0 0 0
          0 0 0 0 0 0
          0 0 0 0 0 0
          0 0 0 0 0 0
          0 0 0 0 0 0
          0 0 0 0 0 0
          0 0 0 0 0 0
          0 0 0 0 0 0
          0 0 0 0 0 0
          0 0 0 0 0 0
          0 0 0 0 0 0
          0 0 0 0 0 0
          0 0 0 0 0 0
          0 0 0 0 0 0
          0 0 0 0 0 0
          0 0 0 0 0 0
          0 0 0 0 0 0
          0 0 0 0 0 0
          0 0 0 0 0 0
          0 0 0 0 0 0
          0 0 0 0 0 0
          0 0 0 0 0 0
          0 0 0 0 0 0
          0 0 0 0 0 0
          0 0 0 0 0 0
          0 0 0 0 0 0
          0 0 0 0 0 0
          0 0 0 0 0 0
          0 0 0 0 0 0
          0 0 0 0 0 0
          0 0 0 0 0 0
          0 0 0 0 0 0
          0 0 0 0 0 0
          0 0 0 0 0 0
          0 0 0 0 0 0
          0 0 0 0 0 0
          0 0 0 0 0 0
          0 0 0 0 0 0
          0 0 0 0 0 0
          0 0 0 0 0 0
          0 0 0 0 0 0
          0 0 0 0 0 0
          0 0 0 0 0 0
          0 0 0 0 0 0
          0 0 0 0 0 0
          0 0 0 0 0 0
          0 0 0 0 0 0
          0 0 0 0 0 0
          0 0 0 0 0 0
          0 0 0 0 0 0
          0 0 0 0 0 0
          0 0 0 0 0 0
          0 0 0 0 0 0
          0 0 0 0 0 0
          0 0 0 0 0 0
          0 0 0 0 0 0
          0 0 0 0 0 0
          0 0 0 0 0 0
          0 0 0 0 0 0
          0 0 0 0 0 0
          0 0 0 0 0 0
          0 0 0 0 0 0
          0 0 0 0 0 0
          0 0 0 0 0 0
          0 0 0 0 0 0
          0 0 0 0 0 0
          0 0 0 0 0 0
          0 0 0 0 0 0
          0 0 0 0 0 0
          0 0 0 0 0 0
          0 0 0 0 0 0
          0 0 0 0 0 0
          0 0 0 0 0 0
          0 0 0 0 0 0
          0 0 0 0 0 0
          0 0 0 0 0 0
          0 0 0 0 0 0
          0 0 0 0 0 0
          0 0 0 0 0 0
          0 0 0 0 0 0
          0 0 0 0 0 0
          0 0 0 0 0 0
          0 0 0 0 0 0
          0 0 0 0 0 0
          0 0 0 0 0 0
          0 0 0 0 0 0
          0 0 0 0 0 0
          0 0 0 0 0 0
          0 0 0 0 0 0
          0 0 0 0 0 0
          0 0 0 0 0 0
          0 0 0 0 0 0
          0 0 0 0 0 0
          0 0 0 0 0 0
          0 0 0 0 0 0
          0 0 0 0 0 0
          0 0 0 0 0 0
          0 0 0 0 0 0
          0 0 0 0 0 0
          0 0 0 0 0 0
          0 0 0 0 0 0
          0 0 0 0 0 0
          0 0 0 0 0 0
          0 0 0 0 0 0
          0 0 0 0 0 0
          0 0 0 0 0 0
          0 0 0 0 0 0
          0 0 0 0 0 0
          0 0 0 0 0 0
          0 0 0 0 0 0
          0 0 0 0 0 0
          0 0 0 0 0 0
          0 0 0 0 0 0
          0 0 0 0 0 0
          0 0 0 0 0 0
          0 0 0 0 0 0
          0 0 0 0 0 0
          0 0 0 0 0 0
          0 0 0 0 0 0
          0 0 0 0 0 0
          0 0 0 0 0 0
          0 0 0 0 0 0
          0 0 0 0 0 0
          0 0 0 0 0 0
          0 0 0 0 0 0
          0 0 0 0 0 0
          0 0 0 0 0 0
          0 0 0 0 0 0
          0 0 0 0 0 0
          0 0 0 0 0 0
          0 0 0 0 0 0
          0 0 0 0 0 0
          0 0 0 0 0 0
          0 0 0 0 0 0
          0 0 0 0 0 0
          0 0 0 0 0 0
          0 0 0 0 0 0
          0 0 0 0 0 0
          0 0 0 0 0 0
          0 0 0 0 0 0
          0 0 0 0 0 0
          0 0 0 0 0 0
          0 0 0 0 0 0
          0 0 0 0 0 0
          0 0 0 0 0 0
          0 0 0 0 0 0
          0 0 0 0 0 0
          0 0 0 0 0 0
          0 0 0 0 0 0
          0 0 0 0 0 0
          0 0 0 0 0 0
          0 0 0 0 0 0
          0 0 0 0 0 0
          0 0 0 0 0 0
          0 0 0 0 0 0
          0 0 0 0 0 0
          0 0 0 0 0 0
          0 0 0 0 0 0
          0 0 0 0 0 0
          0 0 0 0 0 0
          0 0 0 0 0 0
          0 0 0 0 0 0
          0 0 0 0 0 0
          0 0 0 0 0 0
          0 0 0 0 0 0
          0 0 0 0 0 0
          0 0 0 0 0 0
          0 0 0 0 0 0
          0 0 0 0 0 0
          0 0 0 0 0 0
          0 0 0 0 0 0
          0 0 0 0 0 0
          0 0 0 0 0 0
          0 0 0 0 0 0
          0 0 0 0 0 0
          0 0 0 0 0 0
          0 0 0 0 0 0
          0 0 0 0 0 0
          0 0 0 0 0 0
          0 0 0 0 0 0
          0 0 0 0 0 0
          0 0 0 0 0 0
          0 0 0 0 0 0
          0 0 0 0 0 0
          0 0 0 0 0 0
          0 0 0 0 0 0
          0 0 0 0 0 0
          0 0 0 0 0 0
          0 0 0 0 0 0
          0 0 0 0 0 0
          0 0 0 0 0 0
          0 0 0 0 0 0
          0 0 0 0 0 0
          0 0 0 0 0 0
          0 0 0 0 0 0
          0 0 0 0 0 0
          0 0 0 0 0 0
          0 0 0 0 0 0
          0 0 0 0 0 0
          0 0 0 0 0 0
          0 0 0 0 0 0
          0 0 0 0 0 0
          0 0 0 0 0 0
          0 0 0 0 0 0
          0 0 0 0 0 0
          0 0 0 0 0 0
          0 0 0 0 0 0
          0 0 0 0 0 0
          0 0 0 0 0 0
          0 0 0 0 0 0
          0 0 0 0 0 0
          0 0 0 0 0 0
          0 0 0 0 0 0
          0 0 0 0 0 0
          0 0 0 0 0 0
          0 0 0 0 0 0
          0 0 0 0 0 0
          0 0 0 0 0 0
          0 0 0 0 0 0
          0 0 0 0 0 0
          0 0 0 0 0 0
          0 0 0 0 0 0
          0 0 0 0 0 0
          0 0 0 0 0 0
          0 0 0 0 0 0
          0 0 0 0 0 0
          0 0 0 0 0 0
          0 0 0 0 0 0
          0 0 0 0 0 0
          0 0 0 0 0 0
          0 0 0 0 0 0
          0 0 0 0 0 0
          0 0 0 0 0 0
          0 0 0 0 0 0
          0 0 0 0 0 0
          0 0 0 0 0 0
          0 0 0 0 0 0
          0 0 0 0 0 0
          0 0 0 0 0 0
          0 0 0 0 0 0
          0 0 0 0 0 0
          0 0 0 0 0 0
          0 0 0 0 0 0
          0 0 0 0 0 0
          0 0 0 0 0 0
          0 0 0 0 0 0
          0 0 0 0 0 0
          0 0 0 0 0 0
          0 0 0 0 0 0
          0 0 0 0 0 0
          0 0 0 0 0 0
          0 0 0 0 0 0
          0 0 0 0 0 0
          0 0 0 0 0 0
          0 0 0 0 0 0
          0 0 0 0 0 0
          0 0 0 0 0 0
          0 0 0 0 0 0
          0 0 0 0 0 0
          0 0 0 0 0 0
          0 0 0 0 0 0
          0 0 0 0 0 0
          0 0 0 0 0 0
          0 0 0 0 0 0
          0 0 0 0 0 0
          0 0 0 0 0 0
          0 0 0 0 0 0
          0 0 0 0 0 0
          0 0 0 0 0 0
          0 0 0 0 0 0
          0 0 0 0 0 0
          0 0 0 0 0 0
          0 0 0 0 0 0
          0 0 0 0 0 0
          0 0 0 0 0 0
          0 0 0 0 0 0
          0 0 0 0 0 0
          0 0 0 0 0 0
          0 0 0 0 0 0
          0 0 0 0 0 0
          0 0 0 0 0 0
          0 0 0 0 0 0
          0 0 0 0 0 0
          0 0 0 0 0 0
          0 0 0 0 0 0
          0 0 0 0 0 0
          0 0 0 0 0 0
          0 0 0 0 0 0
          0 0 0 0 0 0
          0 0 0 0 0 0
          0 0 0 0 0 0
          0 0 0 0 0 0
          0 0 0 0 0 0
          0 0 0 0 0 0
          0 0 0 0 0 0
          0 0 0 0 0 0
          0 0 0 0 0 0
          0 0 0 0 0 0
          0 0 0 0 0 0
          0 0 0 0 0 0
          0 0 0 0 0 0
          0 0 0 0 0 0
          0 0 0 0 0 0
          0 0 0 0 0 0
          0 0 0 0 0 0
          0 0 0 0 0 0
          0 0 0 0 0 0
          0 0 0 0 0 0
          0 0 0 0 0 0
          0 0 0 0 0 0
          0 0 0 0 0 0
          0 0 0 0 0 0
          0 0 0 0 0 0
          0 0 0 0 0 0
          0 0 0 0 0 0
          0 0 0 0 0 0
          0 0 0 0 0 0
          0 0 0 0 0 0
          0 0 0 0 0 0
          0 0 0 0 0 0
          0 0 0 0 0 0
          0 0 0 0 0 0
          0 0 0 0 0 0
          0 0 0 0 0 0
          0 0 0 0 0 0
          0 0 0 0 0 0
          0 0 0 0 0 0
          0 0 0 0 0 0
          0 0 0 0 0 0
          0 0 0 0 0 0
          0 0 0 0 0 0
          0 0 0 0 0 0
          0 0 0 0 0 0
          0 0 0 0 0 0
          0 0 0 0 0 0
          0 0 0 0 0 0
          0 0 0 0 0 0
          0 0 0 0 0 0
          0 0 0 0 0 0
          0 0 0 0 0 0
          0 0 0 0 0 0
          0 0 0 0 0 0
          0 0 0 0 0 0
          0 0 0 0 0 0
          0 0 0 0 0 0
          0 0 0 0 0 0
          0 0 0 0 0 0
          0 0 0 0 0 0
          0 0 0 0 0 0
          0 0 0 0 0 0
          0 0 0 0 0 0
          0 0 0
        </DataArray>
        <DataArray type="Float64" Name="gradient_error" format="ascii" RangeMin="1.7086306237609122e-12" RangeMax="0.0000040795464224236974">
          2.842375878553687e-9 2.889825044119335e-9 1.6569416409372384e-9 1.6302621645541361e-9 1.0295057539605728e-8 1.0327133568994986e-8
          5.941812228997349e-9 5.931611924983891e-9 2.9932238726484204e-9 1.718729307725402e-9 1.0370797485685481e-8 5.956084652396701e-9
          3.070658472979162e-9 1.7704837252642236e-9 1.0288911214487466e-8 5.907777412005946e-9 3.1499712044781838e-9 1.802847527864223e-9
          1.017061836892815e-8 5.7916395129516374e-9 3.229792339966279e-9 1.8050300553433305e-9 1.001456256253521e-8 5.5854584086338306e-9
          3.1393561609119973e-9 1.7144991902965382e-9 9.401716793950242e-9 5.137529386121049e-9 2.838384931292187e-9 1.5201897201474465e-9
          8.244563111358773e-9 4.42726141324478e-9 2.3850079959005396e-9 1.2564404259554776e-9 6.724138497397271e-9 3.5586793427568275e-9
          1.6221410716022695e-9 8.545595365835497e-10 4.361771694456058e-9 2.3157787601824056e-9 7.761101331575715e-10 4.177931969081472e-10
          1.9945980540301293e-9 1.0915084740999063e-9 4.772732378684481e-10 2.5959292116429767e-10 1.2824857217539287e-9 7.104105857587088e-10
          5.129279500479479e-10 2.78349787768675e-10 1.365713918460542e-9 7.525562594762812e-10 4.288514669016411e-10 2.411728471676245e-10
          1.1004399727547363e-9 6.304945017183003e-10 3.0072152593089427e-10 1.7687659069713533e-10 7.486734530026538e-10 4.5229356343044697e-10
          2.710156324915826e-10 1.5787671316407338e-10 7.301820342603538e-10 4.307180420932551e-10 2.4334472246712247e-10 1.4681189359513692e-10
          6.973610142224579e-10 4.1875302586562146e-10 1.2404691273676995e-10 9.022314301827287e-11 3.6813514281642197e-10 2.591497826716555e-10
          4.680886468013399e-11 4.396280654061986e-11 1.4698280649266096e-10 1.2742569212235585e-10 2.411429121883059e-11 2.1302475968308547e-11
          6.882969714961262e-11 5.878497137650786e-11 1.2908754037449328e-11 9.25900922398474e-12 3.247391166363665e-11 2.3825020224351413e-11
          4.240582377551412e-10 4.1814845055458543e-10 1.5564908889997125e-9 1.568166310362056e-9 4.442347428023841e-10 1.5413718191079226e-9
          4.703089775492851e-10 1.5266436095244247e-9 4.5572385125026245e-10 1.4126606569751231e-9 3.8026777072038153e-10 1.156354254732451e-9
          2.896422196810793e-10 8.733419782918574e-10 2.01994509002706e-10 6.099597151307852e-10 1.2787285601041543e-10 3.9322018811638353e-10
          8.697800156482983e-11 2.69785825908753e-10 5.947626065872286e-11 1.8841889416968333e-10 4.191260446014723e-11 1.383354497634888e-10
          4.377162548940215e-11 1.3939860049202044e-10 5.349422743360787e-11 1.6054903068186442e-10 5.303165546337641e-11 1.5591367385824024e-10
          4.47377938365641e-11 1.3125404992615623e-10 5.027906472315138e-11 1.401450375087849e-10 5.639937329977577e-11 1.5016442252688893e-10
          4.111674840110574e-11 1.0786857775205069e-10 1.8490660717786505e-11 4.874024560340309e-11 5.609264410520155e-12 1.5176128785066176e-11
          5.760666152396549e-8 5.7027924326035986e-8 3.315552438925573e-8 3.355600032283909e-8 5.545715589702283e-8 3.212375601765583e-8
          5.2992288067411516e-8 3.060220011575156e-8 5.0284612343159793e-8 2.877564263069871e-8 4.742332229455705e-8 2.6626007509754488e-8
          4.286044262647865e-8 2.3610709298638574e-8 3.632549407159795e-8 1.968847315248377e-8 2.8623053587689704e-8 1.5313849335901045e-8
          1.795651897667329e-8 9.672644241365007e-9 8.013477999798172e-9 4.502332937344258e-9 5.20008123425088e-9 2.976589984782387e-9
          5.4677410746704325e-9 3.0996623377964964e-9 4.249394048525859e-9 2.5207352945306953e-9 2.8812145792478202e-9 1.8160534458194255e-9
          3.025194878644024e-9 1.8273420717415814e-9 2.9692260018603706e-9 1.8017850346938891e-9 1.5980955694208782e-9 1.1205439416549054e-9
          6.562894439270363e-10 5.551153632841149e-10 2.9608552750893804e-10 2.5160409222701843e-10 1.3091736511852756e-10 9.882026489826621e-11
          9.283124452475457e-9 9.505339121712696e-9 8.790356138288841e-9 8.2121121640916e-9 7.266672918237636e-9 5.82869272495192e-9
          4.360975970798503e-9 3.0514522333695906e-9 2.004645084112381e-9 1.3887695060567234e-9 9.911878748903447e-10 7.530987353138942e-10
          7.315836009225598e-10 7.920765405355309e-10 7.508923123910311e-10 6.294892648391389e-10 6.34344067527407e-10 6.429923138889327e-10
          4.539412826411934e-10 2.0712265694509884e-10 6.672316467800486e-11 3.058939928397579e-7 2.997196703123099e-7 1.7597658942278507e-7
          1.7997027395740068e-7 2.839767464893901e-7 1.659921773381531e-7 2.627835930628493e-7 1.529099186927157e-7 2.406017263004306e-7
          1.387027470614114e-7 2.1838125419833353e-7 1.2370582460286057e-7 1.9056311458428166e-7 1.06058021028004e-7 1.5637636975151303e-7
          8.574497962963456e-8 1.1918753810834244e-7 6.46385673623361e-8 7.282886028081635e-8 3.994256804037369e-8 3.189192613164623e-8
          1.8507022085183402e-8 2.04028958633677e-8 1.2188869350820925e-8 2.1173815209504678e-8 1.2459285074838517e-8 1.5961950299185247e-8
          9.90743190753145e-9 1.0999050652253176e-8 7.284154449924584e-9 1.2359223417094323e-8 7.665497648887624e-9 1.2293560011474081e-8
          7.57070581435669e-9 6.706729090812812e-9 4.72429046934813e-9 2.8076992384664324e-9 2.3555705451129765e-9 1.2438235050121721e-9
          1.0606851515440458e-9 5.282627164748346e-10 4.101833069143144e-10 5.223350853326022e-8 5.404655507504342e-8 4.8007608186916113e-8
          4.3036244322582076e-8 3.680376782239213e-8 2.903039500738765e-8 2.155292747172633e-8 1.511358950775607e-8 1.0089596616329748e-8
          7.056275799931038e-9 5.122118038720577e-9 3.97484283827415e-9 3.744754940172355e-9 3.852913515877656e-9 3.5692582475959935e-9
          2.971771880680924e-9 2.8478516172393e-9 2.7418518478834472e-9 1.9034418517595207e-9 8.775467980759193e-10 2.921038973537941e-10