<?xml version="1.0"?>
<VTKFile type="UnstructuredGrid" version="0.1" byte_order="LittleEndian" header_type="UInt32" compressor="vtkZLibDataCompressor">
  <UnstructuredGrid>
    <Piece NumberOfPoints="1862" NumberOfCells="1365">
      <PointData>
        <DataArray type="Int32" Name="libmesh_node_id" format="ascii" RangeMin="1006" RangeMax="20406">
          1006 1025 1027 1031 1032 1887
          1893 1894 1927 1928 1930 1933
          1935 1936 1938 1939 1940 1941
          1942 1943 1944 1950 1955 1956
          1959 1960 1961 1962 1964 1967
          1968 1973 1975 1976 1977 1978
          1982 1983 3141 3155 3156 3158
          3167 3169 3170 3171 3172 3173
          3174 3176 3177 3178 3179 3180
          3181 3182 3183 3184 3185 3186
          3187 3188 3191 3193 3194 3196
          3197 3198 3199 3200 3201 3202
          3231 3233 3235 3265 3267 3269
          3271 3272 3273 3274 3275 3276
          3277 3278 3279 3280 3281 3282
          3285 3287 3288 3290 3291 3292
          3293 3294 3295 3296 3297 3298
          3299 3300 3301 3302 3303 3304
          3305 3306 3307 3308 3309 3310
          3311 3312 3313 3314 3315 3316
          3319 3321 3322 3324 3325 3326
          3327 3328 3329 3330 3331 3332
          3333 3334 3335 3336 3337 3338
          5430 5432 5433 5434 5435 5436
          5437 5438 5439 5770 5771 5773
          5776 5778 5779 5780 5781 5782
          5783 5784 5785 5786 5787 5788
          5789 5790 5791 5792 5793 5794
          5795 5796 5797 5798 5799 5800
          5801 5802 5803 5804 5805 5806
          5807 5808 5809 5810 5811 5812
          5813 5814 5815 5816 5817 5818
          5819 5820 5821 5822 5823 5824
          5825 5826 5827 5828 5829 5830
          5831 5832 5833 5834 5835 5836
          5837 5848 5849 5850 5854 5855
          5856 5857 5858 5859 5860 5861
          5862 5863 5870 5871 5873 5874
          5875 5876 5877 5878 5879 5880
          5885 5887 5888 5889 5890 5891
          5892 5893 5894 5895 5896 5897
          5898 5899 5900 5901 5902 5903
          5904 5905 5906 5907 5908 5909
          5910 5911 5912 5913 5914 5915
          5916 5917 5918 5919 5920 5921
          5922 5923 5924 5925 5926 5927
          5928 5929 5930 5931 5932 5933
          5934 5935 5936 5937 5938 5939
          5940 5941 5942 5943 5944 5945
          5946 5947 5948 5949 5950 5951
          5952 5953 5954 5955 5956 5957
          5958 5959 5960 5961 5962 5963
          5964 5965 5966 5967 5968 5969
          5970 5971 5972 5973 5974 5975
          5976 5979 5981 5982 5984 5985
          5986 5987 5988 5989 5990 5991
          5992 5994 5996 5998 5999 6000
          6001 6002 6003 6004 6005 6006
          6007 6008 6009 6010 6013 6015
          6016 6018 6019 6020 6021 6022
          6023 6024 6025 6026 6028 6030
          6032 6033 6034 6035 6036 6037
          6038 6039 6040 6041 6042 6043
          6044 6045 6046 6047 6048 6049
          6050 6051 6052 6053 6054 6055
          6056 6057 6058 6059 6060 6061
          6062 6063 6064 6065 6066 6067
          6068 6070 6071 6072 6073 6074
          6075 6076 6077 6078 6080 6082
          6084 9704 9705 9708 9709 9710
          9711 9712 9713 9714 9715 9716
          9717 9718 9719 9720 9721 9722
          9730 9731 9732 9733 9734 9735
          9736 9737 9738 9739 9740 9741
          9742 9743 9744 9745 9746 9747
          9748 9749 9750 9758 9760 9761
          9763 18582 18583 18584 18587 18590
          18604 18605 18608 18610 18612 18613
          18614 18615 18616 18617 18618 18619
          18620 18621 18622 18623 18624 18625
          18626 18627 18628 18629 18630 18631
          18632 18633 18634 18635 18636 18637
          18638 18639 18640 18641 18642 18643
          18644 18645 18646 18647 18648 18649
          18650 18651 18652 18653 18654 18655
          18656 18657 18658 18659 18668 18670
          18671 18672 18673 18674 18675 18676
          18677 18678 18679 18685 18687 18688
          18689 18690 18691 18692 18693 18696
          18697 18699 18702 18704 18705 18706
          18707 18708 18709 18710 18711 18712
          18713 18715 18717 18719 18721 18722
          18723 18724 18725 18726 18727 18728
          18729 18730 18731 18732 18733 18734
          18735 18736 18737 18738 18739 18740
          18741 18742 18743 18744 18745 18746
          18747 18748 18749 18750 18751 18752
          18753 18754 18755 18756 18757 18758
          18759 18760 18761 18762 18763 18764
          18765 18766 18767 18768 18769 18770
          18771 18772 18773 18774 18775 18776
          18777 18778 18779 18780 18781 18782
          18783 18784 18785 18786 18787 18788
          18789 18790 18791 18792 18793 18794
          18795 18804 18807 18808 18809 18811
          18812 18813 18814 18815 18817 18819
          18821 18823 18824 18825 18826 18827
          18828 18829 18832 18833 18836 18838
          18840 18841 18842 18843 18844 18845
          18846 18847 18848 18849 18850 18851
          18852 18853 18854 18855 18856 18857
          18858 18859 18860 18861 18862 18863
          18864 18865 18866 18867 18868 18869
          18870 18871 18872 18873 18874 18875
          18876 18877 18878 18879 18880 18881
          18882 18883 18884 18885 18886 18887
          18888 18889 18890 18891 18892 18893
          18894 18895 18896 18897 18898 18899
          18900 18901 18902 18903 18904 18905
          18906 18907 18908 18909 18910 18911
          18912 18913 18914 18915 18916 18917
          18918 18919 18920 18921 18922 18923
          18924 18925 18926 18927 18928 18929
          18930 18931 18932 18933 18934 18935
          18936 18937 18938 18939 18940 18941
          18942 18943 18944 18945 18946 18947
          18948 18949 18950 18951 19000 19001
          19002 19003 19004 19005 19006 19007
          19008 19009 19010 19011 19012 19013
          19014 19015 19016 19017 19018 19019
          19020 19021 19022 19023 19024 19025
          19026 19027 19028 19029 19030 19031
          19032 19033 19034 19035 19036 19037
          19038 19039 19040 19041 19042 19043
          19044 19045 19046 19047 19048 19049
          19050 19051 19052 19053 19054 19055
          19056 19057 19058 19059 19060 19061
          19062 19063 19064 19065 19066 19067
          19068 19069 19072 19074 19075 19077
          19088 19090 19092 19094 19102 19103
          19106 19108 19109 19110 19111 19122
          19124 19126 19127 19128 19136 19137
          19138 19139 19140 19141 19142 19143
          19144 19145 19146 19147 19148 19149
          19150 19151 19152 19153 19154 19155
          19156 19157 19158 19159 19160 19161
          19162 19163 19164 19165 19166 19167
          19168 19169 19170 19171 19172 19173
          19174 19175 19176 19177 19178 19179
          19180 19181 19182 19183 19184 19185
          19186 19187 19188 19189 19191 19197
          19199 19210 19212 19214 19215 19216
          19224 19225 19228 19229 19231 19232
          19233 19246 19247 19249 19252 19254
          19255 19256 19257 19258 19259 19260
          19261 19262 19263 19265 19267 19269
          19271 19272 19273 19274 19275 19276
          19277 19280 19281 19283 19286 19288
          19289 19290 19291 19292 19293 19294
          19295 19296 19297 19299 19301 19303
          19305 19306 19307 19308 19309 19310
          19311 19312 19313 19314 19315 19316
          19317 19318 19319 19320 19321 19322
          19323 19324 19325 19326 19327 19328
          19329 19330 19331 19332 19333 19334
          19335 19336 19337 19338 19339 19340
          19341 19342 19343 19344 19345 19346
          19347 19348 19349 19350 19351 19352
          19353 19354 19355 19356 19357 19358
          19359 19360 19361 19362 19363 19364
          19365 19366 19367 19368 19369 19370
          19371 19372 19373 19374 19375 19376
          19377 19378 19379 19381 19383 19385
          19387 19388 19389 19390 19391 19392
          19393 19395 19397 19399 19401 19402
          19403 19404 19405 19406 19407 19409
          19411 19413 19415 19416 19417 19418
          19419 19420 19421 19423 19425 19427
          19429 19430 19431 19432 19433 19434
          19435 19436 19437 19438 19439 19440
          19441 19442 19443 19444 19445 19446
          19447 19448 19449 19450 19451 19452
          19453 19454 19455 19456 19457 19458
          19459 19460 19461 19462 19463 19464
          19465 19466 19467 19468 19469 19470
          19471 19472 19473 19474 19475 19476
          19477 19478 19479 19480 19481 19482
          19483 19484 19485 19486 19487 19488
          19489 19490 19491 19494 19495 19497
          19500 19502 19503 19504 19505 19506
          19507 19508 19509 19510 19511 19513
          19515 19517 19519 19520 19521 19522
          19523 19524 19525 19528 19529 19531
          19534 19536 19537 19538 19539 19540
          19541 19542 19543 19544 19545 19547
          19549 19551 19553 19554 19555 19556
          19557 19558 19559 19560 19561 19562
          19563 19564 19565 19566 19567 19568
          19569 19570 19571 19572 19573 19574
          19575 19576 19577 19578 19579 19580
          19581 19582 19583 19584 19585 19586
          19587 19588 19589 19590 19591 19592
          19593 19594 19595 19596 19597 19598
          19599 19600 19601 19602 19603 19604
          19605 19606 19607 19608 19609 19610
          19611 19612 19613 19614 19615 19616
          19617 19618 19619 19620 19621 19622
          19623 19624 19625 19626 19627 19629
          19631 19633 19635 19636 19637 19638
          19639 19640 19641 19643 19645 19647
          19649 19650 19651 19652 19653 19654
          19655 19657 19659 19661 19663 19664
          19665 19666 19667 19668 19669 19671
          19673 19675 19677 19678 19679 19680
          19681 19682 19683 19684 19685 19686
          19687 19688 19689 19690 19691 19692
          19693 19694 19695 19696 19697 19698
          19699 19700 19701 19702 19703 19704
          19705 19706 19707 19708 19709 19710
          19711 19712 19713 19714 19715 19716
          19717 19718 19719 19720 19721 19722
          19723 19724 19725 19726 19727 19728
          19729 19730 19731 19732 19733 19734
          19735 19736 19737 19738 19739 19740
          19741 19742 19743 19744 19745 19746
          19747 19748 19749 19750 19751 19752
          19753 19754 19755 19756 19757 19758
          19759 19760 19761 19762 19763 19764
          19765 19766 19767 19768 19769 19770
          19771 19772 19773 19774 19775 19776
          19777 19778 19779 19780 19781 19782
          19783 19784 19785 19786 19787 19788
          19789 19790 19791 19792 19793 19794
          19795 19796 19797 19798 19799 19800
          19801 19802 19803 19804 19805 19806
          19807 19808 19809 19810 19811 19812
          19813 19814 19815 19816 19817 19828
          19829 19830 19831 19832 19833 19834
          19842 19843 19844 19845 19846 19847
          19848 19849 19850 19851 19862 19863
          19864 19865 19866 19867 19868 19876
          19877 19878 19879 19880 19881 19882
          19883 19884 19885 19886 19887 19888
          19889 19890 19891 19892 19893 19894
          19895 19896 19897 19898 19899 19900
          19901 19902 19903 19904 19905 19906
          19907 19908 19909 19910 19911 19912
          19913 19914 19915 19916 19917 19918
          19919 19920 19921 19922 19923 19924
          19925 19926 19927 19928 19929 19930
          19931 19932 19933 19934 19935 19936
          19937 19938 19946 19947 19948 19949
          19950 19951 19952 19960 19961 19962
          19963 19964 19965 19966 19974 19975
          19976 19977 19978 19979 19980 19988
          19989 19990 19991 19992 19993 19994
          19995 19996 19997 19998 19999 20000
          20001 20002 20003 20004 20005 20006
          20007 20008 20009 20010 20011 20012
          20013 20014 20015 20016 20017 20018
          20019 20020 20021 20022 20023 20024
          20025 20026 20027 20028 20029 20030
          20031 20032 20033 20034 20035 20036
          20037 20038 20039 20040 20041 20042
          20043 20044 20045 20046 20047 20048
          20049 20050 20051 20052 20053 20054
          20055 20056 20057 20058 20059 20060
          20061 20062 20063 20064 20065 20076
          20077 20078 20079 20080 20081 20082
          20090 20091 20092 20093 20094 20095
          20096 20097 20098 20099 20110 20111
          20112 20113 20114 20115 20116 20124
          20125 20126 20127 20128 20129 20130
          20131 20132 20133 20134 20135 20136
          20137 20138 20139 20140 20141 20142
          20143 20144 20145 20146 20147 20148
          20149 20150 20151 20152 20153 20154
          20155 20156 20157 20158 20159 20160
          20161 20162 20163 20164 20165 20166
          20167 20168 20169 20170 20171 20172
          20173 20174 20175 20176 20177 20178
          20179 20180 20181 20182 20183 20184
          20185 20186 20194 20195 20196 20197
          20198 20199 20200 20208 20209 20210
          20211 20212 20213 20214 20222 20223
          20224 20225 20226 20227 20228 20238
          20239 20242 20244 20246 20247 20248
          20249 20250 20251 20252 20253 20254
          20255 20256 20257 20258 20259 20260
          20261 20262 20263 20264 20265 20266
          20267 20268 20269 20270 20271 20272
          20273 20274 20275 20277 20279 20281
          20283 20284 20285 20286 20287 20288
          20289 20291 20293 20295 20297 20298
          20299 20300 20301 20302 20303 20304
          20305 20306 20307 20308 20309 20310
          20311 20312 20313 20314 20315 20316
          20317 20318 20319 20320 20321 20322
          20323 20324 20325 20326 20327 20328
          20329 20330 20331 20332 20333 20334
          20335 20336 20337 20338 20339 20340
          20341 20342 20343 20344 20345 20346
          20347 20348 20349 20350 20351 20352
          20353 20354 20355 20356 20357 20358
          20359 20360 20361 20362 20363 20364
          20365 20366 20367 20368 20369 20370
          20371 20372 20373 20374 20375 20376
          20377 20378 20379 20380 20381 20382
          20383 20384 20385 20386 20387 20388
          20389 20400 20401 20402 20403 20404
          20405 20406
        </DataArray>
        <DataArray type="Float64" Name="bounds" format="ascii" RangeMin="0" RangeMax="0">
          0 0 0 0 0 0
          0 0 0 0 0 0
          0 0 0 0 0 0
          0 0 0 0 0 0
          0 0 0 0 0 0
          0 0 0 0 0 0
          0 0 0 0 0 0
          0 0 0 0 0 0
          0 0 0 0 0 0
          0 0 0 0 0 0
          0 0 0 0 0 0
          0 0 0 0 0 0
          0 0 0 0 0 0
          0 0 0 0 0 0
          0 0 0 0 0 0
          0 0 0 0 0 0
          0 0 0 0 0 0
          0 0 0 0 0 0
          0 0 0 0 0 0
          0 0 0 0 0 0
          0 0 0 0 0 0
          0 0 0 0 0 0
          0 0 0 0 0 0
          0 0 0 0 0 0
          0 0 0 0 0 0
          0 0 0 0 0 0
          0 0 0 0 0 0
          0 0 0 0 0 0
          0 0 0 0 0 0
          0 0 0 0 0 0
          0 0 0 0 0 0
          0 0 0 0 0 0
          0 0 0 0 0 0
          0 0 0 0 0 0
          0 0 0 0 0 0
          0 0 0 0 0 0
          0 0 0 0 0 0
          0 0 0 0 0 0
          0 0 0 0 0 0
          0 0 0 0 0 0
          0 0 0 0 0 0
          0 0 0 0 0 0
          0 0 0 0 0 0
          0 0 0 0 0 0
          0 0 0 0 0 0
          0 0 0 0 0 0
          0 0 0 0 0 0
          0 0 0 0 0 0
          0 0 0 0 0 0
          0 0 0 0 0 0
          0 0 0 0 0 0
          0 0 0 0 0 0
          0 0 0 0 0 0
          0 0 0 0 0 0
          0 0 0 0 0 0
          0 0 0 0 0 0
          0 0 0 0 0 0
          0 0 0 0 0 0
          0 0 0 0 0 0
          0 0 0 0 0 0
          0 0 0 0 0 0
          0 0 0 0 0 0
          0 0 0 0 0 0
          0 0 0 0 0 0
          0 0 0 0 0 0
          0 0 0 0 0 0
          0 0 0 0 0 0
          0 0 0 0 0 0
          0 0 0 0 0 0
          0 0 0 0 0 0
          0 0 0 0 0 0
          0 0 0 0 0 0
          0 0 0 0 0 0
          0 0 0 0 0 0
          0 0 0 0 0 0
          0 0 0 0 0 0
          0 0 0 0 0 0
          0 0 0 0 0 0
          0 0 0 0 0 0
          0 0 0 0 0 0
          0 0 0 0 0 0
          0 0 0 0 0 0
          0 0 0 0 0 0
          0 0 0 0 0 0
          0 0 0 0 0 0
          0 0 0 0 0 0
          0 0 0 0 0 0
          0 0 0 0 0 0
          0 0 0 0 0 0
          0 0 0 0 0 0
          0 0 0 0 0 0
          0 0 0 0 0 0
          0 0 0 0 0 0
          0 0 0 0 0 0
          0 0 0 0 0 0
          0 0 0 0 0 0
          0 0 0 0 0 0
          0 0 0 0 0 0
          0 0 0 0 0 0
          0 0 0 0 0 0
          0 0 0 0 0 0
          0 0 0 0 0 0
          0 0 0 0 0 0
          0 0 0 0 0 0
          0 0 0 0 0 0
          0 0 0 0 0 0
          0 0 0 0 0 0
          0 0 0 0 0 0
          0 0 0 0 0 0
          0 0 0 0 0 0
          0 0 0 0 0 0
          0 0 0 0 0 0
          0 0 0 0 0 0
          0 0 0 0 0 0
          0 0 0 0 0 0
          0 0 0 0 0 0
          0 0 0 0 0 0
          0 0 0 0 0 0
          0 0 0 0 0 0
          0 0 0 0 0 0
          0 0 0 0 0 0
          0 0 0 0 0 0
          0 0 0 0 0 0
          0 0 0 0 0 0
          0 0 0 0 0 0
          0 0 0 0 0 0
          0 0 0 0 0 0
          0 0 0 0 0 0
          0 0 0 0 0 0
          0 0 0 0 0 0
          0 0 0 0 0 0
          0 0 0 0 0 0
          0 0 0 0 0 0
          0 0 0 0 0 0
          0 0 0 0 0 0
          0 0 0 0 0 0
          0 0 0 0 0 0
          0 0 0 0 0 0
          0 0 0 0 0 0
          0 0 0 0 0 0
          0 0 0 0 0 0
          0 0 0 0 0 0
          0 0 0 0 0 0
          0 0 0 0 0 0
          0 0 0 0 0 0
          0 0 0 0 0 0
          0 0 0 0 0 0
          0 0 0 0 0 0
          0 0 0 0 0 0
          0 0 0 0 0 0
          0 0 0 0 0 0
          0 0 0 0 0 0
          0 0 0 0 0 0
          0 0 0 0 0 0
          0 0 0 0 0 0
          0 0 0 0 0 0
          0 0 0 0 0 0
          0 0 0 0 0 0
          0 0 0 0 0 0
          0 0 0 0 0 0
          0 0 0 0 0 0
          0 0 0 0 0 0
          0 0 0 0 0 0
          0 0 0 0 0 0
          0 0 0 0 0 0
          0 0 0 0 0 0
          0 0 0 0 0 0
          0 0 0 0 0 0
          0 0 0 0 0 0
          0 0 0 0 0 0
          0 0 0 0 0 0
          0 0 0 0 0 0
          0 0 0 0 0 0
          0 0 0 0 0 0
          0 0 0 0 0 0
          0 0 0 0 0 0
          0 0 0 0 0 0
          0 0 0 0 0 0
          0 0 0 0 0 0
          0 0 0 0 0 0
          0 0 0 0 0 0
          0 0 0 0 0 0
          0 0 0 0 0 0
          0 0 0 0 0 0
          0 0 0 0 0 0
          0 0 0 0 0 0
          0 0 0 0 0 0
          0 0 0 0 0 0
          0 0 0 0 0 0
          0 0 0 0 0 0
          0 0 0 0 0 0
          0 0 0 0 0 0
          0 0 0 0 0 0
          0 0 0 0 0 0
          0 0 0 0 0 0
          0 0 0 0 0 0
          0 0 0 0 0 0
          0 0 0 0 0 0
          0 0 0 0 0 0
          0 0 0 0 0 0
          0 0 0 0 0 0
          0 0 0 0 0 0
          0 0 0 0 0 0
          0 0 0 0 0 0
          0 0 0 0 0 0
          0 0 0 0 0 0
          0 0 0 0 0 0
          0 0 0 0 0 0
          0 0 0 0 0 0
          0 0 0 0 0 0
          0 0 0 0 0 0
          0 0 0 0 0 0
          0 0 0 0 0 0
          0 0 0 0 0 0
          0 0 0 0 0 0
          0 0 0 0 0 0
          0 0 0 0 0 0
          0 0 0 0 0 0
          0 0 0 0 0 0
          0 0 0 0 0 0
          0 0 0 0 0 0
          0 0 0 0 0 0
          0 0 0 0 0 0
          0 0 0 0 0 0
          0 0 0 0 0 0
          0 0 0 0 0 0
          0 0 0 0 0 0
          0 0 0 0 0 0
          0 0 0 0 0 0
          0 0 0 0 0 0
          0 0 0 0 0 0
          0 0 0 0 0 0
          0 0 0 0 0 0
          0 0 0 0 0 0
          0 0 0 0 0 0
          0 0 0 0 0 0
          0 0 0 0 0 0
          0 0 0 0 0 0
          0 0 0 0 0 0
          0 0 0 0 0 0
          0 0 0 0 0 0
          0 0 0 0 0 0
          0 0 0 0 0 0
          0 0 0 0 0 0
          0 0 0 0 0 0
          0 0 0 0 0 0
          0 0 0 0 0 0
          0 0 0 0 0 0
          0 0 0 0 0 0
          0 0 0 0 0 0
          0 0 0 0 0 0
          0 0 0 0 0 0
          0 0 0 0 0 0
          0 0 0 0 0 0
          0 0 0 0 0 0
          0 0 0 0 0 0
          0 0 0 0 0 0
          0 0 0 0 0 0
          0 0 0 0 0 0
          0 0 0 0 0 0
          0 0 0 0 0 0
          0 0 0 0 0 0
          0 0 0 0 0 0
          0 0 0 0 0 0
          0 0 0 0 0 0
          0 0 0 0 0 0
          0 0 0 0 0 0
          0 0 0 0 0 0
          0 0 0 0 0 0
          0 0 0 0 0 0
          0 0 0 0 0 0
          0 0 0 0 0 0
          0 0 0 0 0 0
          0 0 0 0 0 0
          0 0 0 0 0 0
          0 0 0 0 0 0
          0 0 0 0 0 0
          0 0 0 0 0 0
          0 0 0 0 0 0
          0 0 0 0 0 0
          0 0 0 0 0 0
          0 0 0 0 0 0
          0 0 0 0 0 0
          0 0 0 0 0 0
          0 0 0 0 0 0
          0 0 0 0 0 0
          0 0 0 0 0 0
          0 0 0 0 0 0
          0 0 0 0 0 0
          0 0 0 0 0 0
          0 0 0 0 0 0
          0 0 0 0 0 0
          0 0 0 0 0 0
          0 0 0 0 0 0
          0 0 0 0 0 0
          0 0 0 0 0 0
          0 0 0 0 0 0
          0 0 0 0 0 0
          0 0 0 0 0 0
          0 0 0 0 0 0
          0 0 0 0 0 0
          0 0 0 0 0 0
          0 0 0 0 0 0
          0 0 0 0 0 0
          0 0 0 0 0 0
          0 0 0 0 0 0
          0 0 0 0 0 0
          0 0 0 0 0 0
          0 0 0 0 0 0
          0 0 0 0 0 0
          0 0
        </DataArray>
        <DataArray type="Float64" Name="gradient_error" format="ascii" RangeMin="5.747596017725459e-10" RangeMax="2.691646298543772e-7">
          6.655284971165359e-8 2.0004048443720867e-7 8.424516509925838e-8 2.691646298543772e-7 1.062789137811397e-7 8.035044673789742e-8
          9.456004893705093e-8 5.911519157966865e-8 1.0471985132014258e-7 1.6278012168110345e-7 2.2689909597226198e-7 1.976746594899811e-7
          8.618127577647324e-8 1.2537673266400155e-7 8.804896339726753e-8 1.720112366793092e-7 7.854068762605688e-8 1.2779549291735656e-7
          1.67211734153643e-7 1.2711838030473529e-7 1.58999909828842e-7 2.0105774482554674e-7 5.066167845582673e-9 3.302026221653947e-8
          1.3482121342845554e-7 7.425339270003459e-8 2.435326311155595e-9 7.49588164628125e-9 1.8641450281054768e-7 8.841190038983509e-8
          1.2312484062093573e-7 1.578377808520363e-7 5.152263358929147e-8 7.369475110449243e-8 1.763945544824253e-8 3.676678286190242e-8
          9.58668686196934e-8 4.805751912672031e-8 8.156585159888822e-8 1.4760506432198343e-7 1.3225567192455164e-7 1.1690627952711986e-7
          1.3554720438041604e-7 8.286577273709665e-8 7.615144719941104e-8 7.036345548811624e-8 6.943712166172544e-8 7.251018299263956e-8
          6.429177778654888e-8 5.607337258045822e-8 1.4621927814065493e-7 1.296863416081018e-7 1.4356341531972725e-7 1.2586569804820495e-7
          1.1315340507554872e-7 1.0816798077668264e-7 1.263239403694044e-7 1.1169363996216504e-7 1.1157146407496365e-7 1.219677670527975e-7
          1.3936397393211938e-7 1.205371172313195e-7 1.0171026053051962e-7 1.2739763374996986e-7 1.096754743005167e-7 1.0756982075784874e-7
          1.2492035555846478e-7 1.1160529981317534e-7 7.459528685859939e-8 9.609594903810686e-8 7.887726600772087e-8 4.849798712788243e-8
          1.1042663965352536e-7 1.1315583437289713e-7 1.048168369626748e-7 1.330851275335445e-7 2.1666218713548035e-7 1.4306915981129222e-7
          4.3469347985175044e-9 1.6328321140107768e-8 5.1161826325036035e-9 1.7893331209260786e-8 7.774609905321833e-8 7.559007643298629e-8
          4.110720577317099e-9 5.296781465907935e-9 6.535641685796343e-9 3.088919833744948e-8 5.974758910876817e-9 1.9351261635642375e-8
          7.098173997904917e-8 6.326201513615957e-9 8.144794657147659e-9 3.3848665994970325e-8 1.0084008102567044e-7 8.889306619440555e-8
          9.880540804800121e-8 8.259650602397272e-8 9.61107358504476e-8 8.429633070171576e-8 1.519692637857046e-7 7.508173458702698e-8
          5.997579510632595e-8 6.557483789721915e-8 4.83507037116626e-8 6.993286270210983e-8 5.434267662459729e-8 1.0514401810287115e-7
          2.4408021876137975e-9 5.0031002374096385e-9 3.0061333614680813e-9 6.390607629466076e-9 6.506660620067103e-9 7.689473319314519e-9
          1.4079382370805938e-9 4.615736596941198e-9 5.530125753849206e-9 6.303612862207227e-9 3.725750718655541e-9 8.404848628021358e-9
          1.6896402389465045e-8 4.79961124415931e-9 6.81158970593221e-9 8.94951071445377e-9 1.2491917514380132e-7 1.1224100241584446e-7
          1.9832476822060637e-7 1.7299954244561737e-7 1.351198237346733e-7 1.2253156582681659e-7 2.1572653810720655e-7 9.486851562874695e-8
          7.455721819756193e-8 1.4194339142388025e-7 1.085424023332568e-7 1.0479596371059535e-7 8.264650386168554e-8 1.5625043530857403e-7
          4.236370053395209e-8 4.4707417696511065e-8 4.3803674260256996e-8 4.5167754622400536e-8 4.103724718463035e-8 4.7603124893048726e-8
          4.6333479905401014e-8 4.717881910031971e-8 4.2311940283367126e-8 2.4319634848977097e-8 2.4134210957485194e-8 3.381122711660949e-8
          4.609774806335598e-9 2.519764721056994e-8 2.4977954167057905e-8 2.6060686358860904e-8 2.5793279064190848e-8 3.4823243840385586e-8
          3.57540281897062e-8 4.712952685896832e-9 4.948634679444129e-9 5.332903789002178e-9 1.710117381084625e-8 3.642727432521927e-8
          3.779903229996776e-8 4.413080774334912e-8 3.9113321443625526e-8 4.029804129735067e-8 4.6176782467869727e-8 4.096076043481333e-9
          4.306138666440559e-9 4.468989906471507e-9 4.704143807215196e-9 4.6978522805930195e-9 5.117153912246071e-9 3.740079275614641e-9
          4.1079798468580674e-9 4.531327566606152e-9 4.809579396294229e-9 4.895946857531557e-9 5.161068728419936e-9 5.379506836997006e-9
          5.682241000710311e-9 5.590665395606612e-9 6.1216559039413374e-9 4.550032274360193e-9 5.0354530141721456e-9 5.632120442155608e-9
          5.8683764899746836e-9 1.6961622644411114e-8 1.7831866860783813e-8 3.69667928520203e-8 3.802552766505026e-8 5.292368764894035e-9
          5.761089232882455e-9 2.9652193771893847e-8 1.8730426224747434e-8 1.961316838170548e-8 3.8920771031940016e-8 3.956637106460763e-8
          6.291807689457778e-9 6.880037250573468e-9 3.204601516093135e-8 2.6842040759766586e-8 2.6514895774852233e-8 2.74782473007659e-8
          2.7087540267216756e-8 3.6534921836544046e-8 3.7072577819380066e-8 5.542528056442769e-9 5.75688041777609e-9 6.207898811592037e-9
          1.8665262452256632e-8 4.1251561353733254e-8 4.183304090349032e-8 4.7069479244656844e-8 5.916162841156576e-9 6.267798108413494e-9
          6.493157687662442e-9 6.906481602634393e-9 6.713069485225891e-9 7.356377069488542e-9 5.6610477690155726e-9 6.327164890290588e-9
          7.115461192071816e-9 7.298628552156999e-9 7.039120382824137e-9 7.975251073047497e-9 9.056016243917415e-9 2.0420483913037816e-8
          2.1117392524210892e-8 3.9824463358947124e-8 3.9500095411251447e-8 7.530154743212225e-9 8.246455373952259e-9 3.367965450363965e-8
          9.01115122981871e-9 3.3325998618113726e-8 4.666662903824165e-8 4.751549388057098e-8 4.0545056906085015e-8 4.803744438502067e-8
          4.812908693727015e-8 3.951974997806514e-8 4.768842137588953e-8 4.6591874776227264e-8 3.6735754888047156e-8 3.059552746627614e-9
          3.6409452482291974e-9 3.3688115487616847e-9 4.044401243317207e-9 4.7011183757564065e-9 5.219359669208571e-9 2.2403992043265893e-9
          3.0876005736455113e-9 3.433898677967396e-9 4.49272847115415e-9 3.747533623145665e-9 4.541666904679031e-9 4.207561725993169e-9
          5.152320092790505e-9 5.843036795065454e-9 6.589851095679662e-9 2.6932771467516505e-9 3.8731542898824004e-9 4.4305532424505425e-9
          5.627090066439349e-9 5.441108722397557e-9 5.9614947211515245e-9 1.8356286456193378e-8 1.9353504910294552e-8 5.4718875565809884e-9
          6.01269770983917e-9 5.995826628856208e-9 6.560047208217467e-9 7.241742382809846e-9 2.0361048917339555e-8 2.13248331409565e-8
          6.640859524238794e-9 7.368643508843241e-9 7.078203543815866e-9 1.5780903424534526e-9 2.6526286749764962e-9 1.6997004782354942e-9
          2.918499795576125e-9 4.299333759412087e-9 4.756907517360073e-9 1.2927038387196647e-9 2.457741005757485e-9 2.584699053421114e-9
          4.2132292611300854e-9 1.9081136975053088e-9 3.273753710200496e-9 2.2323923020791916e-9 3.757678809755575e-9 5.306940664443008e-9
          5.981647397743346e-9 1.7760179243962016e-9 2.814284336637257e-9 3.2466750442150093e-9 5.049084004028981e-9 5.4571705625481755e-9
          5.9868547048875705e-9 5.846020388783228e-9 6.330260554822167e-9 5.436434556929126e-9 5.957656242402742e-9 5.8417333802205685e-9
          6.591764193517219e-9 7.285677497502405e-9 6.903809685064514e-9 7.591642259172912e-9 6.545312774444831e-9 7.197780989617817e-9
          6.836826812296785e-9 4.754824457917213e-9 5.8915723452465935e-9 5.385816319097897e-9 6.764928927579626e-9 7.470472013720422e-9
          8.483115452043647e-9 3.3762323895160213e-9 5.127308681905659e-9 5.976452260866791e-9 7.314111612524573e-9 6.014472382586268e-9
          7.76061158151872e-9 9.605899027154754e-9 1.8263606844998324e-9 6.331905593267075e-9 9.647425836868894e-9 7.993595015840954e-9
          8.794823766958678e-9 2.2182731501170913e-8 3.076396285508344e-8 8.2058139926475e-9 9.133027373350545e-9 8.333146438793941e-9
          9.61383695707355e-9 3.8980537624455835e-8 1.0106295810794862e-8 2.5390159783980766e-8 2.6791968664510274e-9 4.399726389686305e-9
          3.168849081804462e-9 5.214132439348638e-9 6.809989671096934e-9 7.808931788837461e-9 3.4318690026117208e-9 3.930306426963037e-9
          4.901121551036753e-9 6.105541882177541e-9 1.1283986051335173e-9 5.290168742353903e-9 8.973535683462923e-9 6.213084961802248e-9
          6.1184895606136135e-9 7.662357260020434e-9 8.088551440839397e-9 8.993723738510406e-9 8.295543286470062e-9 8.959175011407715e-9
          7.946771960493907e-9 8.798575191417126e-9 8.264035207460704e-9 9.991614967649147e-9 9.65109968462731e-9 9.73302357785699e-9
          9.600773936797336e-9 3.893150079582805e-8 3.9791058950839536e-8 4.6614445229362575e-8 4.684830655766361e-8 2.906473097731414e-8
          2.9648463102456166e-8 5.067223935987704e-8 4.035238044629104e-8 4.049662964074301e-8 4.6553802166439636e-8 4.564811509736089e-8