<?xml version="1.0"?>
<VTKFile type="UnstructuredGrid" version="0.1" byte_order="LittleEndian" header_type="UInt32" compressor="vtkZLibDataCompressor">
  <UnstructuredGrid>
    <Piece NumberOfPoints="2228" NumberOfCells="1385">
      <PointData>
        <DataArray type="Int32" Name="libmesh_node_id" format="ascii" RangeMin="326" RangeMax="11194">
          424 425 468 520 521 522
          564 614 617 619 660 661
          724 731 733 734 735 736
          737 738 739 740 741 742
          743 744 745 746 747 748
          749 750 751 754 755 756
          758 760 789 790 791 792
          793 794 795 799 800 801
          906 907 908 911 914 916
          917 918 919 920 921 922
          923 924 925 926 927 928
          929 930 931 932 933 934
          936 937 938 939 940 941
          943 944 945 946 947 948
          949 950 951 952 953 954
          955 956 957 958 959 960
          961 962 963 966 969 970
          971 975 977 979 980 981
          985 987 990 995 996 997
          1003 1092 1093 1094 1095 1096
          1097 1122 1124 1126 1127 1128
          1129 1131 1132 1134 1135 1136
          1137 1138 1139 1140 1141 1142
          1143 1144 1145 1234 1235 1236
          1237 1238 1239 1240 1241 1242
          1243 1244 1245 1246 1247 1248
          1249 1250 1251 1252 1253 1254
          1255 1256 1257 1258 1259 1260
          1261 1262 1263 1264 1265 1266
          1267 1268 1269 1270 1271 1272
          1273 1274 1275 1276 1278 1279
          1280 1281 1283 1284 1288 1289
          1293 1595 1596 1597 1598 1599
          1600 1601 1602 1603 1604 1605
          1606 1607 1608 1619 1620 1621
          1622 1623 1624 1625 1626 1627
          1628 1629 1630 1631 1632 1633
          1634 1635 1636 1637 1638 1639
          1640 1641 1642 1643 1644 1645
          1646 1647 1648 1649 1650 1651
          1652 1653 1654 1655 1656 1657
          1658 1659 1660 1661 1662 1663
          1664 1665 1666 1667 1668 1669
          1670 1671 1672 1673 1674 1675
          1676 1677 1678 1679 1680 1681
          1682 1683 1684 1685 1686 1687
          1688 1689 1690 1691 1692 1693
          1694 1695 1696 1697 1698 1699
          1700 1701 1702 1704 1705 1706
          1707 1708 1709 1710 1711 1712
          1713 1714 1715 1716 1719 1720
          1721 1722 1724 1725 1726 1727
          1728 1729 1730 1731 1732 1733
          1734 1735 1736 1737 1738 1739
          1740 1741 1742 1743 1744 1745
          1746 1747 1748 1749 1750 1751
          1752 1753 1754 1755 1756 1760
          1765 1766 1767 1768 1769 1770
          1774 1775 1776 1777 1778 1779
          1780 1784 1789 1805 1806 1807
          1808 1809 1810 1811 1812 1813
          1814 1815 1816 1817 1818 1819
          1820 1821 1822 1823 1824 1829
          1830 1834 1865 1866 1867 1868
          1869 1870 1871 1872 1873 1874
          2207 2208 2209 2210 2211 2212
          2416 2417 2418 2419 2420 2421
          2422 2423 2424 2425 2433 2434
          2435 2436 2437 2438 2439 2440
          2441 2442 2443 2444 2445 2446
          2447 2448 2449 2450 2451 2452
          2453 2454 2455 2456 2457 2458
          2459 2460 2461 2462 2463 2464
          2465 2466 2467 2468 2469 2470
          2471 2472 2473 2474 2475 2476
          2477 2478 2479 2480 2481 2482
          2483 2484 2485 2486 2487 2488
          2489 2490 2491 2492 2493 2494
          2495 2496 2497 2498 2499 2500
          2501 2502 2503 2504 2587 2588
          2589 2590 2591 2592 2593 2594
          2595 2596 2597 2598 2599 2600
          2601 2602 2603 2604 2605 2606
          2607 2608 2609 2610 2611 2612
          2613 2614 2615 2616 2617 2618
          2619 2620 2621 2622 2623 2624
          2625 2626 2627 2628 2629 2630
          2631 2632 2633 2634 2635 2636
          2637 2638 2639 2640 2641 2642
          2643 2644 2645 2646 2647 2648
          2649 2654 2655 2656 2657 2658
          2659 2660 2661 2662 2663 2664
          2665 2666 2667 2668 2669 2670
          2671 2672 2673 2674 2675 2676
          2677 2678 2679 2680 2681 2682
          2683 2684 2685 2686 2687 2688
          2689 2690 2691 2692 2693 2694
          2695 2696 2697 2698 2699 2700
          2701 2702 2703 2704 2705 2706
          2707 2708 2709 2710 2711 2712
          2713 2714 2715 2716 2717 2728
          2729 2730 2734 2735 2736 2737
          2738 2739 2740 2741 2742 2743
          2754 2755 2756 2757 2758 2759
          2760 3806 3807 3808 3809 3810
          3811 3812 3813 3814 3815 3816
          3817 3818 3819 3820 3821 3822
          3823 3824 3827 3828 4011 4012
          4013 4014 4015 4016 4017 4018
          4019 4020 4021 4022 4023 4024
          4025 4026 4027 4028 4029 4030
          4031 4032 4033 4034 4035 4036
          4037 4038 4039 4040 4041 4042
          4043 4044 4045 4046 4047 4048
          4049 4050 4051 4052 4053 4054
          4055 4056 4057 4058 4059 4060
          4061 4062 4063 4064 4065 4066
          4067 4068 4069 4070 4071 4072
          4073 4074 4075 4076 4077 4078
          4079 4080 4081 4082 4083 4084
          4085 4086 4087 4088 4089 4090
          4091 4092 4093 4094 4095 4096
          4097 4098 4099 4100 4101 4102
          4103 4104 4105 4106 4107 4108
          4109 4110 4111 4112 4113 4114
          4115 4116 4117 4118 4119 4120
          4121 4122 4123 4124 4125 4126
          4127 4128 4129 4130 4131 4132
          4133 4134 4135 4136 4137 4138
          4139 4140 4141 4142 4143 4144
          4145 4146 4147 4148 4149 4150
          4151 4152 4153 4154 4155 4156
          4157 4158 4159 4160 4161 4162
          4163 4164 4165 4166 4167 4168
          4169 4170 4171 4172 4173 4174
          4175 4176 4177 4178 4179 4180
          4181 4182 4183 4184 4185 4186
          4187 4188 4189 4190 4191 4192
          4193 4194 4195 4196 4197 4198
          4199 4200 4201 4202 4203 4204
          4219 4220 4221 4222 4223 4224
          4225 4226 4227 4228 4229 4230
          4231 4232 4233 4234 4235 4236
          4237 4238 4239 4240 4241 4242
          4243 4244 4245 4246 4247 4248
          4249 4250 4251 4252 4253 4254
          4255 4256 4257 4258 4259 4260
          4261 4262 4263 4264 4265 4266
          4267 4268 4269 4270 4271 4272
          4273 4274 4275 4276 4277 4278
          4279 4280 9135 9136 9137 9138
          9139 9140 9141 9142 9143 9144
          9145 9146 9147 9148 9149 9150
          9151 9152 9153 9154 9155 9156
          9157 9158 9159 9160 9161 9162
          9163 9164 9165 9166 9167 9168
          9169 9170 9171 9172 9173 9174
          9209 9210 9211 9212 9213 9214
          9215 9216 9217 9218 9219 9220
          9221 9222 9223 9224 9225 9226
          9227 9228 9229 9230 9231 9232
          9233 9234 9235 9236 9237 9238
          9239 9240 9241 9242 9243 9244
          9245 9246 9247 9248 9249 9250
          9251 9252 9253 9254 9255 9256
          9257 9258 9259 9260 9261 9262
          9263 9264 9265 9266 9267 9268
          9269 9270 9271 9272 9273 9274
          9275 9276 9277 9278 9279 9280
          9281 9282 9283 9284 9285 9286
          9287 9288 9289 9290 9291 9292
          9293 9294 9295 9296 9297 9298
          9299 9300 9301 9302 9303 9304
          9305 9306 9307 9308 9309 9330
          9331 9332 9333 9334 9335 9336
          9337 9338 9339 9340 9830 9831
          9832 9833 9834 9835 9836 9837
          9838 9839 9840 9841 9842 9843
          9844 9845 9846 9847 9848 9849
          9850 9851 9852 9853 9854 9855
          9856 9857 9858 9859 9860 9861
          9862 9863 9864 9865 9866 9867
          9868 9869 9870 9871 9872 9873
          9874 9875 9876 9877 9878 9879
          9880 9881 9882 9883 9884 9885
          9886 9887 9888 9889 9890 9891
          9892 9893 9894 9895 9896 9897
          9898 9899 9900 9901 9902 9903
          9904 9905 9906 9907 9908 9909
          9910 9911 9912 9913 9914 9915
          9916 9917 9918 9919 9920 9921
          9922 9923 9924 9925 9926 9927
          9928 9929 9930 9931 9932 9933
          9934 9935 9936 9937 9938 9939
          9940 9941 9942 9943 9944 9945
          9946 9947 9948 9949 9950 9951
          9952 9953 9954 9955 9956 9957
          9958 9959 9960 9961 9962 9963
          9964 9965 9966 9967 9968 9969
          9970 9971 9972 9973 9974 9975
          9976 9977 9978 9979 9980 9981
          9982 9983 9984 9985 9986 9987
          9988 9989 9990 9991 9992 9993
          9994 9995 9996 9997 9998 9999
          10000 10001 10002 10003 10004 10005
          10006 10007 10008 10009 10010 10011
          10012 10013 10014 10015 10016 10017
          10018 10019 10020 10021 10022 10023
          10024 10025 10026 10027 10028 10029
          10030 10031 10032 10033 10034 10035
          10036 10037 10038 10039 10040 10041
          10042 10043 10044 10045 10046 10047
          10048 10049 10050 10051 10052 10053
          10054 10055 10056 10057 10058 10059
          10060 10061 10062 10063 10064 10065
          10066 10067 10068 10069 10070 10071
          10072 10073 10074 10075 10076 10077
          10078 10079 10080 10081 10082 10083
          10084 10085 10086 10087 10088 10089
          10090 10091 10092 10093 10094 10095
          10096 10097 10098 10099 10100 10101
          10102 10103 10104 10105 10106 10107
          10108 10109 10110 10111 10112 10113
          10114 10115 10116 10117 10118 10119
          10120 10121 10122 10123 10124 10125
          10126 10127 10128 10129 10130 10131
          10132 10133 10134 10135 10136 10137
          10138 10139 10140 10141 10142 10143
          10144 10145 10146 10147 10148 10149
          10150 10151 10152 10153 10154 10155
          10156 10157 10158 10159 10160 10161
          10162 10163 10164 10165 10166 10167
          10168 10169 10170 10171 10172 10173
          10174 10175 10176 10177 10178 10179
          10180 10181 10182 10183 10184 10185
          10186 10187 10188 10189 10190 10191
          10192 10193 10194 10195 10196 10197
          10198 10199 10200 10201 10202 10203
          10204 10205 10206 10207 10208 10209
          10210 10211 10212 10213 10214 10215
          10216 10217 10218 10219 10220 10221
          10222 10223 10224 10225 10226 10227
          10228 10229 10230 10231 10232 10233
          10234 10235 10236 10237 10238 10239
          10240 10241 10242 10243 10244 10245
          10246 10247 10248 10249 10250 10251
          10252 10253 10254 10255 10256 10257
          10258 10259 10260 10261 10262 10263
          10264 10265 10266 10267 10268 10269
          10270 10271 10272 10273 10274 10275
          10276 10277 10278 10279 10280 10281
          10282 10283 10284 10285 10286 10287
          10288 10289 10290 10291 10292 10293
          10294 10295 10296 10297 10298 10299
          10300 10301 10302 10303 10304 10305
          10306 10307 10308 10309 10310 10311
          10312 10313 10314 10315 10316 10317
          10318 10319 10320 10321 10322 10323
          10324 10325 10326 10327 10328 10329
          10330 10331 10332 10333 10334 10335
          10336 10337 10338 10339 10340 10341
          10342 10343 10344 10345 10346 10347
          10348 10349 10350 10351 10352 10353
          10354 10355 10356 10357 10358 10359
          10360 10361 10362 10363 10364 10365
          10366 10367 10368 10369 10370 10371
          10372 10373 10374 10375 10376 10377
          10378 10379 10380 10381 10382 10383
          10384 10385 10386 10387 10388 10389
          10390 10391 10392 10393 10394 10395
          10396 10397 10398 10399 10400 10401
          10402 10403 10404 10405 10406 10407
          10408 10409 10410 10411 10412 10413
          10414 10415 10416 10417 10418 10419
          10420 10421 10422 10423 10424 10425
          10426 10427 10428 10429 10430 10431
          10432 10433 10434 10435 10436 10437
          10438 10439 10440 10441 10442 10443
          10444 10445 10446 10447 10448 10449
          10450 10451 10452 10453 10454 10455
          10456 10457 10458 10459 10460 10461
          10462 10463 10464 10465 10466 10467
          10468 10469 10470 10471 10472 10473
          10474 10475 10476 10477 10478 10479
          10480 10481 10482 10483 10484 10485
          10486 10487 10488 10489 10490 10491
          10492 10493 10494 10495 10496 10497
          10498 10499 10500 10501 10502 10503
          10504 10505 10506 10507 10508 10509
          10510 10511 10512 10513 10514 10515
          10516 10517 10518 10519 10520 10521
          10522 10523 10524 10525 10526 10527
          10528 10529 10530 10531 10532 10533
          10534 10535 10536 10537 10538 10539
          10540 10541 10542 10543 10544 10545
          10546 10547 10548 10549 10550 10551
          10552 10553 10554 10555 10556 10557
          10558 10559 10560 10561 10562 10563
          10564 10565 10566 10567 10568 10569
          10570 10571 10572 10573 10574 10575
          10576 10577 10578 10579 10580 10581
          10582 10583 10584 10585 10586 10587
          10588 10589 10590 10591 10592 10593
          10594 10595 10596 10597 10598 10599
          10600 10601 10602 10603 10604 10605
          10606 10607 10608 10609 10610 10611
          10612 10613 10614 10615 10616 10617
          10618 10619 10620 10621 10622 10623
          10624 10625 10626 10627 10628 10629
          10630 10631 10632 10633 10634 10635
          10636 10637 10638 10639 10640 10641
          10642 10643 10644 10645 10646 10647
          10648 10649 10650 10651 10652 10653
          10654 10655 10656 10657 10658 10659
          10660 10661 10662 10663 10664 10665
          10666 10667 10668 10669 10670 10671
          10672 10673 10674 10675 10676 10677
          10678 10679 10680 10681 10682 10683
          10684 10685 10686 10687 10688 10689
          10690 10691 10692 10693 10694 10695
          10696 10697 10698 10699 10700 10701
          10702 10703 10704 10705 10706 10707
          10708 10709 10710 10711 10712 10713
          10714 10715 10716 10717 10718 10719
          10720 10721 10722 10723 10724 10725
          10726 10727 10728 10729 10730 10731
          10732 10733 10734 10735 10736 10737
          10738 10739 10740 10741 10742 10743
          10744 10745 10746 10747 10748 10749
          10750 10751 10752 10753 10754 10755
          10756 10757 10758 10759 10760 10761
          10762 10763 10764 10765 10766 10767
          10768 10769 10770 10771 10772 10773
          10774 10775 10776 10777 10778 10779
          10780 10781 10782 10783 10784 10785
          10786 10787 10788 10789 10790 10791
          10792 10793 10794 10795 10796 10797
          10798 10799 10800 10801 10802 10803
          10804 10805 10806 10807 10808 10809
          10810 10811 10812 10813 10814 10815
          10816 10817 10818 10819 10820 10821
          10822 10823 10824 10825 10826 10827
          10828 10829 10830 10831 10832 10833
          10834 10845 10846 10848 10877 10878
          10881 10883 10884 10886 10897 10898
          10901 10903 10905 10997 10998 11002
          11003 11005 11007 11038 11039 11042
          11044 11045 11047 11058 11060 11062
          11064 11072 11073 11076 11078 11079
          11081 11092 11094 11096 11098 11174
          11176 11178 11180 11188 11190 11192
          11194 326 328 329 327 422
          423 330 331 426 427 372
          371 467 373 469 519 563
          523 565 723 725 728 796
          797 798 802 805 806 761
          762 811 768 964 965 967
          968 973 974 753 998 999
          1000 1001 1002 1004 1005 1007
          1009 1086 1087 1088 1091 518
          1123 1125 1130 615 1133 659
          1146 769 1147 1150 1151 774
          1153 1155 1226 1229 1230 1227
          902 903 1233 1232 909 1228
          991 1277 1282 1028 1285 764
          1286 1029 1287 1290 1291 1292
          1585 1586 1587 1590 904 1593
          905 1611 1612 1614 912 1617
          913 2199 2197 910 2200 2198
          915 2205 2204 2203 2408 2409
          2412 2414 2427 2429 2431 3825
          3826 3829
        </DataArray>
        <DataArray type="Float64" Name="bounds" format="ascii" RangeMin="0" RangeMax="0">
          0 0 0 0 0 0
          0 0 0 0 0 0
          0 0 0 0 0 0
          0 0 0 0 0 0
          0 0 0 0 0 0
          0 0 0 0 0 0
          0 0 0 0 0 0
          0 0 0 0 0 0
          0 0 0 0 0 0
          0 0 0 0 0 0
          0 0 0 0 0 0
          0 0 0 0 0 0
          0 0 0 0 0 0
          0 0 0 0 0 0
          0 0 0 0 0 0
          0 0 0 0 0 0
          0 0 0 0 0 0
          0 0 0 0 0 0
          0 0 0 0 0 0
          0 0 0 0 0 0
          0 0 0 0 0 0
          0 0 0 0 0 0
          0 0 0 0 0 0
          0 0 0 0 0 0
          0 0 0 0 0 0
          0 0 0 0 0 0
          0 0 0 0 0 0
          0 0 0 0 0 0
          0 0 0 0 0 0
          0 0 0 0 0 0
          0 0 0 0 0 0
          0 0 0 0 0 0
          0 0 0 0 0 0
          0 0 0 0 0 0
          0 0 0 0 0 0
          0 0 0 0 0 0
          0 0 0 0 0 0
          0 0 0 0 0 0
          0 0 0 0 0 0
          0 0 0 0 0 0
          0 0 0 0 0 0
          0 0 0 0 0 0
          0 0 0 0 0 0
          0 0 0 0 0 0
          0 0 0 0 0 0
          0 0 0 0 0 0
          0 0 0 0 0 0
          0 0 0 0 0 0
          0 0 0 0 0 0
          0 0 0 0 0 0
          0 0 0 0 0 0
          0 0 0 0 0 0
          0 0 0 0 0 0
          0 0 0 0 0 0
          0 0 0 0 0 0
          0 0 0 0 0 0
          0 0 0 0 0 0
          0 0 0 0 0 0
          0 0 0 0 0 0
          0 0 0 0 0 0
          0 0 0 0 0 0
          0 0 0 0 0 0
          0 0 0 0 0 0
          0 0 0 0 0 0
          0 0 0 0 0 0
          0 0 0 0 0 0
          0 0 0 0 0 0
          0 0 0 0 0 0
          0 0 0 0 0 0
          0 0 0 0 0 0
          0 0 0 0 0 0
          0 0 0 0 0 0
          0 0 0 0 0 0
          0 0 0 0 0 0
          0 0 0 0 0 0
          0 0 0 0 0 0
          0 0 0 0 0 0
          0 0 0 0 0 0
          0 0 0 0 0 0
          0 0 0 0 0 0
          0 0 0 0 0 0
          0 0 0 0 0 0
          0 0 0 0 0 0
          0 0 0 0 0 0
          0 0 0 0 0 0
          0 0 0 0 0 0
          0 0 0 0 0 0
          0 0 0 0 0 0
          0 0 0 0 0 0
          0 0 0 0 0 0
          0 0 0 0 0 0
          0 0 0 0 0 0
          0 0 0 0 0 0
          0 0 0 0 0 0
          0 0 0 0 0 0
          0 0 0 0 0 0
          0 0 0 0 0 0
          0 0 0 0 0 0
          0 0 0 0 0 0
          0 0 0 0 0 0
          0 0 0 0 0 0
          0 0 0 0 0 0
          0 0 0 0 0 0
          0 0 0 0 0 0
          0 0 0 0 0 0
          0 0 0 0 0 0
          0 0 0 0 0 0
          0 0 0 0 0 0
          0 0 0 0 0 0
          0 0 0 0 0 0
          0 0 0 0 0 0
          0 0 0 0 0 0
          0 0 0 0 0 0
          0 0 0 0 0 0
          0 0 0 0 0 0
          0 0 0 0 0 0
          0 0 0 0 0 0
          0 0 0 0 0 0
          0 0 0 0 0 0
          0 0 0 0 0 0
          0 0 0 0 0 0
          0 0 0 0 0 0
          0 0 0 0 0 0
          0 0 0 0 0 0
          0 0 0 0 0 0
          0 0 0 0 0 0
          0 0 0 0 0 0
          0 0 0 0 0 0
          0 0 0 0 0 0
          0 0 0 0 0 0
          0 0 0 0 0 0
          0 0 0 0 0 0
          0 0 0 0 0 0
          0 0 0 0 0 0
          0 0 0 0 0 0
          0 0 0 0 0 0
          0 0 0 0 0 0
          0 0 0 0 0 0
          0 0 0 0 0 0
          0 0 0 0 0 0
          0 0 0 0 0 0
          0 0 0 0 0 0
          0 0 0 0 0 0
          0 0 0 0 0 0
          0 0 0 0 0 0
          0 0 0 0 0 0
          0 0 0 0 0 0
          0 0 0 0 0 0
          0 0 0 0 0 0
          0 0 0 0 0 0
          0 0 0 0 0 0
          0 0 0 0 0 0
          0 0 0 0 0 0
          0 0 0 0 0 0
          0 0 0 0 0 0
          0 0 0 0 0 0
          0 0 0 0 0 0
          0 0 0 0 0 0
          0 0 0 0 0 0
          0 0 0 0 0 0
          0 0 0 0 0 0
          0 0 0 0 0 0
          0 0 0 0 0 0
          0 0 0 0 0 0
          0 0 0 0 0 0
          0 0 0 0 0 0
          0 0 0 0 0 0
          0 0 0 0 0 0
          0 0 0 0 0 0
          0 0 0 0 0 0
          0 0 0 0 0 0
          0 0 0 0 0 0
          0 0 0 0 0 0
          0 0 0 0 0 0
          0 0 0 0 0 0
          0 0 0 0 0 0
          0 0 0 0 0 0
          0 0 0 0 0 0
          0 0 0 0 0 0
          0 0 0 0 0 0
          0 0 0 0 0 0
          0 0 0 0 0 0
          0 0 0 0 0 0
          0 0 0 0 0 0
          0 0 0 0 0 0
          0 0 0 0 0 0
          0 0 0 0 0 0
          0 0 0 0 0 0
          0 0 0 0 0 0
          0 0 0 0 0 0
          0 0 0 0 0 0
          0 0 0 0 0 0
          0 0 0 0 0 0
          0 0 0 0 0 0
          0 0 0 0 0 0
          0 0 0 0 0 0
          0 0 0 0 0 0
          0 0 0 0 0 0
          0 0 0 0 0 0
          0 0 0 0 0 0
          0 0 0 0 0 0
          0 0 0 0 0 0
          0 0 0 0 0 0
          0 0 0 0 0 0
          0 0 0 0 0 0
          0 0 0 0 0 0
          0 0 0 0 0 0
          0 0 0 0 0 0
          0 0 0 0 0 0
          0 0 0 0 0 0
          0 0 0 0 0 0
          0 0 0 0 0 0
          0 0 0 0 0 0
          0 0 0 0 0 0
          0 0 0 0 0 0
          0 0 0 0 0 0
          0 0 0 0 0 0
          0 0 0 0 0 0
          0 0 0 0 0 0
          0 0 0 0 0 0
          0 0 0 0 0 0
          0 0 0 0 0 0
          0 0 0 0 0 0
          0 0 0 0 0 0
          0 0 0 0 0 0
          0 0 0 0 0 0
          0 0 0 0 0 0
          0 0 0 0 0 0
          0 0 0 0 0 0
          0 0 0 0 0 0
          0 0 0 0 0 0
          0 0 0 0 0 0
          0 0 0 0 0 0
          0 0 0 0 0 0
          0 0 0 0 0 0
          0 0 0 0 0 0
          0 0 0 0 0 0
          0 0 0 0 0 0
          0 0 0 0 0 0
          0 0 0 0 0 0
          0 0 0 0 0 0
          0 0 0 0 0 0
          0 0 0 0 0 0
          0 0 0 0 0 0
          0 0 0 0 0 0
          0 0 0 0 0 0
          0 0 0 0 0 0
          0 0 0 0 0 0
          0 0 0 0 0 0
          0 0 0 0 0 0
          0 0 0 0 0 0
          0 0 0 0 0 0
          0 0 0 0 0 0
          0 0 0 0 0 0
          0 0 0 0 0 0
          0 0 0 0 0 0
          0 0 0 0 0 0
          0 0 0 0 0 0
          0 0 0 0 0 0
          0 0 0 0 0 0
          0 0 0 0 0 0
          0 0 0 0 0 0
          0 0 0 0 0 0
          0 0 0 0 0 0
          0 0 0 0 0 0
          0 0 0 0 0 0
          0 0 0 0 0 0
          0 0 0 0 0 0
          0 0 0 0 0 0
          0 0 0 0 0 0
          0 0 0 0 0 0
          0 0 0 0 0 0
          0 0 0 0 0 0
          0 0 0 0 0 0
          0 0 0 0 0 0
          0 0 0 0 0 0
          0 0 0 0 0 0
          0 0 0 0 0 0
          0 0 0 0 0 0
          0 0 0 0 0 0
          0 0 0 0 0 0
          0 0 0 0 0 0
          0 0 0 0 0 0
          0 0 0 0 0 0
          0 0 0 0 0 0
          0 0 0 0 0 0
          0 0 0 0 0 0
          0 0 0 0 0 0
          0 0 0 0 0 0
          0 0 0 0 0 0
          0 0 0 0 0 0
          0 0 0 0 0 0
          0 0 0 0 0 0
          0 0 0 0 0 0
          0 0 0 0 0 0
          0 0 0 0 0 0
          0 0 0 0 0 0
          0 0 0 0 0 0
          0 0 0 0 0 0
          0 0 0 0 0 0
          0 0 0 0 0 0
          0 0 0 0 0 0
          0 0 0 0 0 0
          0 0 0 0 0 0
          0 0 0 0 0 0
          0 0 0 0 0 0
          0 0 0 0 0 0
          0 0 0 0 0 0
          0 0 0 0 0 0
          0 0 0 0 0 0
          0 0 0 0 0 0
          0 0 0 0 0 0
          0 0 0 0 0 0
          0 0 0 0 0 0
          0 0 0 0 0 0
          0 0 0 0 0 0
          0 0 0 0 0 0
          0 0 0 0 0 0
          0 0 0 0 0 0
          0 0 0 0 0 0
          0 0 0 0 0 0
          0 0 0 0 0 0
          0 0 0 0 0 0
          0 0 0 0 0 0
          0 0 0 0 0 0
          0 0 0 0 0 0
          0 0 0 0 0 0
          0 0 0 0 0 0
          0 0 0 0 0 0
          0 0 0 0 0 0
          0 0 0 0 0 0
          0 0 0 0 0 0
          0 0 0 0 0 0
          0 0 0 0 0 0
          0 0 0 0 0 0
          0 0 0 0 0 0
          0 0 0 0 0 0
          0 0 0 0 0 0
          0 0 0 0 0 0
          0 0 0 0 0 0
          0 0 0 0 0 0
          0 0 0 0 0 0
          0 0 0 0 0 0
          0 0 0 0 0 0
          0 0 0 0 0 0
          0 0 0 0 0 0
          0 0 0 0 0 0
          0 0 0 0 0 0
          0 0 0 0 0 0
          0 0 0 0 0 0
          0 0 0 0 0 0
          0 0 0 0 0 0
          0 0 0 0 0 0
          0 0 0 0 0 0
          0 0 0 0 0 0
          0 0 0 0 0 0
          0 0 0 0 0 0
          0 0 0 0 0 0
          0 0 0 0 0 0
          0 0 0 0 0 0
          0 0 0 0 0 0
          0 0 0 0 0 0
          0 0 0 0 0 0
          0 0 0 0 0 0
          0 0 0 0 0 0
          0 0 0 0 0 0
          0 0 0 0 0 0
          0 0 0 0 0 0
          0 0 0 0 0 0
          0 0 0 0 0 0
          0 0 0 0 0 0
          0 0
        </DataArray>
        <DataArray type="Float64" Name="gradient_error" format="ascii" RangeMin="6.705118565140514e-11" RangeMax="7.09289541280133e-7">
          1.6133161407884081e-9 6.814604085004909e-10 8.439976332968232e-10 2.1508239316472106e-8 1.1733052886391622e-9 3.898524647127225e-9
          7.035352390714179e-10 4.019896709141883e-7 1.1145004175876349e-8 4.4428133168259006e-9 1.9637283141544893e-9 4.3257582536550493e-10
          4.3843618202051516e-7 3.7368564716314844e-7 2.7702071971843138e-8 1.1038997166641174e-8 3.6623584903692117e-7 7.671900328107446e-8
          5.95237412463424e-9 2.7858090571913033e-7 3.327286507861612e-8 6.2589014286404455e-9 1.0518599358997014e-8 4.474783857385359e-9
          1.393571531229856e-10 2.717006354196158e-7 1.617516058410166e-7 2.1329446191908137e-8 1.211469784469248e-8 2.966332196111348e-9
          1.8550922591648427e-7 1.940447804432027e-8 1.8347655687457723e-9 3.6333980333095675e-10 2.3131585167831007e-9 2.4282598026787706e-9
          7.7152523064808e-8 4.361686086214736e-9 1.589755514202774e-9 8.711541314984332e-10 1.2855095524901287e-9 6.877366776018659e-9
          4.405127713482578e-9 2.3653856183043726e-9 3.6336738587964056e-9 1.5255274879409237e-10 3.256435231261671e-10 3.899809415741521e-10
          3.0167559641265656e-7 5.913707315067114e-7 5.137508857715704e-7 2.559273718453987e-7 6.516612885020551e-7 4.043801940010892e-7
          2.695519612443178e-7 4.952184530177567e-7 5.408489342473614e-7 2.3474017508126929e-7 3.8292195144131314e-7 5.657547762956532e-7
          1.2893331051639236e-7 2.1604518418695418e-7 1.7478421614019748e-7 2.1944595585071397e-8 7.09289541280133e-7 4.006855179601846e-7
          3.2439670349518893e-7 3.2407651597982737e-7 1.9784113741697015e-7 4.1646370550300004e-7 5.927534534462211e-7 1.597825075345142e-7
          6.177138731931475e-7 6.872805792094443e-8 1.3370262837468374e-7 9.497941150269177e-8 7.792015439274261e-11 4.2566103592666856e-7
          2.1683162566879766e-7 2.397212275318248e-8 1.4795401771128708e-8 2.0607796656212183e-8 1.2621604606046638e-7 8.821930563492232e-8
          5.433636290083046e-8 8.240949882141588e-8 1.0349437165805139e-8 5.6831495440790893e-8 3.3813903311229604e-8 2.8903584960440102e-9
          1.0466633066677711e-8 2.5804520347655893e-8 6.074155823875973e-9 2.3097028331903324e-7 1.2248738658860174e-7 9.100222740962503e-8
          2.019805498130745e-8 1.1016654815081969e-8 7.74124327577728e-9 4.543283300245359e-9 2.626262281499476e-9 6.963669662656341e-9
          5.9323185231128395e-9 7.284277951890631e-8 3.961211084924651e-7 3.7049280039076e-7 6.604124167689534e-8 5.6393861998663426e-8
          1.121177209671625e-7 3.6244019990963767e-7 1.0146966001894549e-7 5.026725535982282e-8 2.4330655617442892e-9 1.988132843383323e-9
          9.511993186272033e-10 2.381868092285695e-9 1.4669002262592582e-9 7.246603402002557e-9 4.325920612376008e-9 5.519323602328211e-10
          1.4052378227494599e-9 1.640938966063727e-9 4.351388245562003e-9 4.1366783043477314e-10 2.6293129608079018e-9 6.775740781370149e-10
          1.6992998600580798e-9 1.0791539921074347e-9 7.061837525060278e-9 4.84495809118103e-9 2.7210256419791447e-9 2.8643880933067675e-10
          1.2145891837099873e-9 3.2013489617288524e-10 6.426647367477717e-10 1.4577864812391288e-10 5.193868639916058e-10 2.9085868067265203e-10
          2.1427395580892977e-9 9.65194577322658e-10 8.929950798592987e-10 4.5540444346010165e-8 3.17433799910616e-8 2.4660489376757857e-7
          1.7397781246062976e-7 2.958252737744062e-8 2.0799532176853835e-7 1.4379467698451578e-7 1.794631563611304e-8 1.0135073115368096e-7
          7.959403220049326e-8 3.8452942601358355e-8 2.5748064321689078e-8 1.6717451386916769e-7 1.1282331208316962e-7 1.3043186042019802e-8
          5.847211029717157e-8 3.468232794387516e-8 5.4531939805311074e-8 6.138301385309451e-8 9.338143654805994e-8 1.192805542090537e-8
          3.360544402704908e-8 1.0838821732792566e-8 1.7022124485067617e-8 2.270491500143314e-8 1.0864096251038008e-8 8.808369976231385e-8
          1.3223093329080884e-7 4.9474606414661245e-8 2.3205427237342667e-8 5.263580151059571e-9 1.662648819662656e-8 9.593999152705208e-9
          1.8882156749653454e-8 2.130274487681318e-9 5.437624488455048e-9 4.976877012666767e-9 2.3350098687385427e-8 2.0105350235887747e-8
          7.065609463829815e-9 1.4910591277765386e-8 2.7522077255006185e-8 1.2329026853784259e-8 4.4541659580695345e-9 7.96555870269743e-9
          7.116737949614149e-9 2.7586348146843814e-8 8.076070707505986e-9 5.453605732138776e-9 1.7104761510035414e-9 3.237161187501705e-9
          3.474180038800643e-9 3.559038365913495e-7 3.237007881922435e-7 4.5625171130831463e-7 4.264245659672373e-7 3.2450763559351263e-7
          4.6725735919197e-7 4.350160025568213e-7 2.3345432968434563e-7 3.3037878222745286e-7 3.3253318836474144e-7 5.658250836351946e-7
          5.672584253421252e-7 5.907465202045556e-7 5.00091062571198e-7 4.7219172130879236e-7 5.5783589541645e-7 5.043206025936822e-7
          5.910533613957019e-7 5.980640142552332e-7 6.223732832294951e-7 3.6933286137247505e-7 5.103032838908806e-7 5.461380519024224e-7
          6.232491381386304e-7 3.6019795155711383e-7 3.245472936649975e-7 4.786133594696972e-7 4.4367549618441186e-7 3.237112512825547e-7
          4.902226938232605e-7 4.5226025134134275e-7 2.2714945589313838e-7 3.341845329653156e-7 3.3519376526373114e-7 6.179868018378688e-7
          6.152285281861201e-7 5.645214318657933e-7 5.275122559548818e-7 3.6108105459347264e-7 3.2186877950813594e-7 5.018199086093425e-7
          4.6066694341956605e-7 3.1867756418910397e-7 5.136757110260864e-7 4.690831230923793e-7 2.1772290724878684e-7 3.3555813851525495e-7