<?xml version="1.0"?>
<VTKFile type="UnstructuredGrid" version="0.1" byte_order="LittleEndian" header_type="UInt32" compressor="vtkZLibDataCompressor">
  <UnstructuredGrid>
    <Piece NumberOfPoints="1533" NumberOfCells="961">
      <PointData>
        <DataArray type="Int32" Name="libmesh_node_id" format="ascii" RangeMin="52" RangeMax="15431">
          52 53 54 55 56 57
          58 59 60 61 62 63
          64 65 66 67 68 69
          70 71 72 73 74 75
          76 77 78 79 80 81
          82 83 84 85 86 87
          88 89 90 91 92 93
          94 95 96 97 98 99
          100 101 102 103 104 105
          106 107 108 109 110 111
          112 113 114 115 116 117
          118 119 146 147 148 149
          150 151 152 153 154 155
          156 157 158 159 160 161
          162 163 164 165 166 167
          168 169 170 171 172 173
          174 175 176 177 178 179
          206 207 208 209 210 211
          212 213 214 215 216 217
          218 219 220 221 222 223
          224 225 226 227 228 229
          230 231 232 233 234 235
          236 237 238 239 264 265
          266 267 268 269 270 271
          272 273 274 275 276 277
          278 279 280 281 282 283
          284 285 286 287 288 289
          290 291 292 293 294 295
          296 297 298 299 312 313
          314 315 316 317 318 319
          320 321 322 323 324 325
          326 327 328 329 342 343
          344 345 346 347 348 349
          350 351 352 353 354 355
          356 357 358 359 382 383
          384 385 386 387 388 389
          390 391 392 393 394 395
          396 397 398 399 400 401
          402 403 404 405 406 407
          408 409 410 411 412 413
          414 415 416 417 418 419
          431 432 433 434 435 436
          437 438 439 440 441 442
          443 444 445 446 447 448
          449 461 462 463 464 465
          466 467 468 469 470 471
          472 473 474 475 476 477
          478 479 502 503 504 505
          506 507 508 509 510 511
          512 513 514 515 516 517
          518 519 520 521 522 523
          524 525 526 527 528 529
          530 531 532 533 534 535
          536 537 538 539 551 552
          553 554 555 556 557 558
          559 560 561 562 563 564
          565 566 567 568 569 581
          582 583 584 585 586 587
          588 589 590 591 592 593
          594 595 596 597 598 599
          622 623 624 625 626 627
          628 629 630 631 632 633
          634 635 636 637 638 639
          640 641 642 643 644 645
          646 647 648 649 650 651
          652 653 654 655 656 657
          658 659 671 672 673 674
          675 676 677 678 679 680
          681 682 683 684 685 686
          687 688 689 701 702 703
          704 705 706 707 708 709
          710 711 712 713 714 715
          716 717 718 719 742 743
          744 745 746 747 748 749
          750 751 752 753 754 755
          756 757 758 759 760 761
          762 763 764 765 766 767
          768 769 770 771 772 773
          774 775 776 777 778 779
          791 792 793 794 795 796
          797 798 799 800 801 802
          803 804 805 806 807 808
          809 821 822 823 824 825
          826 827 828 829 830 831
          832 833 834 835 836 837
          838 839 862 863 864 865
          866 867 868 869 870 871
          872 873 874 875 876 877
          878 879 880 881 882 883
          884 885 886 887 888 889
          890 891 892 893 894 895
          896 897 898 899 911 912
          913 914 915 916 917 918
          919 920 921 922 923 924
          925 926 927 928 929 941
          942 943 944 945 946 947
          948 949 950 951 952 953
          954 955 956 957 958 959
          982 983 984 985 986 987
          988 989 990 991 992 993
          994 995 996 997 998 999
          1000 1001 1002 1003 1004 1005
          1006 1007 1008 1009 1010 1011
          1012 1013 1014 1015 1016 1017
          1018 1019 1031 1032 1033 1034
          1035 1036 1037 1038 1039 1040
          1041 1042 1043 1044 1045 1046
          1047 1048 1049 1061 1062 1063
          1064 1065 1066 1067 1068 1069
          1070 1071 1072 1073 1074 1075
          1076 1077 1078 1079 1104 1105
          1106 1107 1108 1109 1110 1111
          1112 1113 1114 1115 1116 1117
          1118 1119 1120 1121 1122 1123
          1124 1125 1126 1127 1128 1129
          1130 1131 1132 1133 1134 1135
          1136 1137 1138 1139 1152 1153
          1154 1155 1156 1157 1158 1159
          1160 1161 1162 1163 1164 1165
          1166 1167 1168 1169 1182 1183
          1184 1185 1186 1187 1188 1189
          1190 1191 1192 1193 1194 1195
          1196 1197 1198 1199 1224 1225
          1226 1227 1228 1229 1230 1231
          1232 1233 1234 1235 1236 1237
          1238 1239 1240 1241 1242 1243
          1244 1245 1246 1247 1248 1249
          1250 1251 1252 1253 1254 1255
          1256 1257 1258 1259 1272 1273
          1274 1275 1276 1277 1278 1279
          1280 1281 1282 1283 1284 1285
          1286 1287 1288 1289 1302 1303
          1304 1305 1306 1307 1308 1309
          1310 1311 1312 1313 1314 1315
          1316 1317 1318 1319 1344 1345
          1346 1347 1348 1349 1350 1351
          1352 1353 1354 1355 1356 1357
          1358 1359 1360 1361 1362 1363
          1364 1365 1366 1367 1368 1369
          1392 1393 1394 1395 1396 1397
          1398 1399 1400 1401 1402 1403
          1404 1423 1424 1425 1426 1427
          1428 1429 1430 1431 1432 1433
          1434 1464 1465 1466 1467 1468
          1469 1470 1471 1472 1473 1474
          1475 1476 1477 1478 1479 1480
          1481 1482 1483 1484 1485 1486
          1487 1488 1489 1512 1513 1514
          1515 1516 1517 1518 1519 1520
          1521 1522 1523 1524 1542 1543
          1544 1545 1546 1547 1548 1549
          1550 1551 1552 1553 1554 1584
          1585 1586 1587 1588 1589 1590
          1591 1592 1593 1594 1595 1596
          1597 1598 1599 1600 1601 1602
          1603 1604 1605 1606 1607 1632
          1633 1634 1635 1636 1637 1638
          1639 1640 1641 1642 1643 1662
          1663 1664 1665 1666 1667 1668
          1669 1670 1671 1672 1673 1704
          1705 1706 1707 1708 1709 1710
          1711 1712 1713 1714 1715 1716
          1717 1718 1719 1720 1721 1722
          1723 1724 1725 1752 1753 1754
          1755 1756 1757 1758 1759 1760
          1761 1762 1782 1783 1784 1785
          1786 1787 1788 1789 1790 1791
          1792 1824 1825 1826 1827 1828
          1829 1830 1831 1832 1833 1834
          1835 1836 1837 1838 1839 1840
          1841 1842 1843 1844 1845 1872
          1873 1874 1875 1876 1877 1878
          1879 1880 1881 1882 1902 1903
          1904 1905 1906 1907 1908 1909
          1910 1911 1912 1944 1945 1946
          1947 1948 1949 1950 1951 1952
          1953 1964 1965 1992 1993 1994
          1995 1996 2002 2022 2023 2024
          2025 2026 2032 2064 2065 2066
          2067 2068 2069 2070 2071 2072
          2073 2112 2113 2114 2115 2116
          2142 2143 2144 2145 2146 2186
          2187 2188 2189 2190 2191 2192
          2193 2233 2234 2235 2236 2263
          2264 2265 2266 2306 2307 2308
          2309 2310 2311 2312 2313 2353
          2354 2355 2356 2383 2384 2385
          2386 14883 14884 14885 14886 14887
          14890 14891 14892 14893 14895 14896
          14897 14898 14899 14900 14901 14902
          14903 14904 14905 14906 14907 14908
          14909 14910 14911 14912 14913 14914
          14915 14916 14917 14918 14919 14920
          14921 14922 14923 14924 14925 14926
          14927 14928 14929 14930 14931 14932
          14933 14934 14935 14936 14937 14938
          14939 14940 14941 14942 14943 14944
          14945 15072 15073 15076 15078 15080
          15081 15082 15083 15084 15085 15086
          15087 15088 15089 15154 15155 15156
          15157 15158 15159 15160 15161 15162
          15163 15164 15165 15166 15167 15168
          15169 15170 15171 15172 15173 15174
          15175 15176 15177 15178 15179 15180
          15181 15182 15183 15184 15185 15186
          15187 15188 15189 15190 15191 15192
          15193 15194 15195 15196 15197 15198
          15199 15200 15201 15202 15203 15204
          15205 15206 15207 15208 15209 15210
          15211 15212 15213 15214 15215 15216
          15217 15218 15219 15220 15221 15222
          15223 15224 15225 15226 15227 15228
          15229 15230 15231 15232 15233 15234
          15235 15236 15237 15238 15239 15240
          15241 15242 15243 15244 15245 15246
          15247 15248 15249 15250 15251 15252
          15253 15254 15255 15256 15257 15258
          15259 15260 15261 15262 15263 15264
          15265 15266 15267 15268 15269 15270
          15271 15272 15273 15274 15275 15276
          15277 15278 15279 15280 15281 15282
          15283 15284 15285 15286 15287 15288
          15289 15290 15291 15292 15293 15294
          15295 15296 15297 15298 15299 15300
          15301 15302 15303 15304 15305 15306
          15307 15308 15309 15310 15311 15312
          15313 15314 15315 15316 15317 15318
          15319 15320 15321 15322 15323 15324
          15325 15326 15327 15328 15329 15330
          15331 15332 15333 15334 15335 15336
          15337 15338 15339 15340 15341 15342
          15343 15344 15345 15346 15347 15348
          15349 15350 15351 15352 15353 15354
          15355 15356 15357 15358 15359 15360
          15361 15362 15363 15364 15365 15366
          15367 15368 15369 15370 15371 15372
          15373 15374 15375 15376 15377 15378
          15379 15380 15381 15382 15383 15384
          15385 15386 15387 15388 15389 15390
          15391 15392 15393 15394 15395 15396
          15397 15398 15399 15400 15401 15402
          15403 15404 15405 15406 15407 15408
          15409 15410 15411 15412 15413 15414
          15415 15416 15417 15418 15419 15420
          15421 15422 15423 15424 15425 15426
          15427 15428 15429 15430 15431 1954
          1955 1956 1957 1958 1959 1960
          1961 1962 1963 1997 1998 1999
          2000 2001 2027 2028 2029 2030
          2031 2074 2075 2117 2147 2195
          2237 2267 2357 2387 2477 2481
          2484 14749 14750 14753 14756 2194
          15091 15093 15096 2315 15098 15102
          15103 15106 15112 2478 15116 15124
          15127 15129 2314 15132 2487 15135
          15137 15142 15145
        </DataArray>
        <DataArray type="Float64" Name="bounds" format="ascii" RangeMin="0" RangeMax="0">
          0 0 0 0 0 0
          0 0 0 0 0 0
          0 0 0 0 0 0
          0 0 0 0 0 0
          0 0 0 0 0 0
          0 0 0 0 0 0
          0 0 0 0 0 0
          0 0 0 0 0 0
          0 0 0 0 0 0
          0 0 0 0 0 0
          0 0 0 0 0 0
          0 0 0 0 0 0
          0 0 0 0 0 0
          0 0 0 0 0 0
          0 0 0 0 0 0
          0 0 0 0 0 0
          0 0 0 0 0 0
          0 0 0 0 0 0
          0 0 0 0 0 0
          0 0 0 0 0 0
          0 0 0 0 0 0
          0 0 0 0 0 0
          0 0 0 0 0 0
          0 0 0 0 0 0
          0 0 0 0 0 0
          0 0 0 0 0 0
          0 0 0 0 0 0
          0 0 0 0 0 0
          0 0 0 0 0 0
          0 0 0 0 0 0
          0 0 0 0 0 0
          0 0 0 0 0 0
          0 0 0 0 0 0
          0 0 0 0 0 0
          0 0 0 0 0 0
          0 0 0 0 0 0
          0 0 0 0 0 0
          0 0 0 0 0 0
          0 0 0 0 0 0
          0 0 0 0 0 0
          0 0 0 0 0 0
          0 0 0 0 0 0
          0 0 0 0 0 0
          0 0 0 0 0 0
          0 0 0 0 0 0
          0 0 0 0 0 0
          0 0 0 0 0 0
          0 0 0 0 0 0
          0 0 0 0 0 0
          0 0 0 0 0 0
          0 0 0 0 0 0
          0 0 0 0 0 0
          0 0 0 0 0 0
          0 0 0 0 0 0
          0 0 0 0 0 0
          0 0 0 0 0 0
          0 0 0 0 0 0
          0 0 0 0 0 0
          0 0 0 0 0 0
          0 0 0 0 0 0
          0 0 0 0 0 0
          0 0 0 0 0 0
          0 0 0 0 0 0
          0 0 0 0 0 0
          0 0 0 0 0 0
          0 0 0 0 0 0
          0 0 0 0 0 0
          0 0 0 0 0 0
          0 0 0 0 0 0
          0 0 0 0 0 0
          0 0 0 0 0 0
          0 0 0 0 0 0
          0 0 0 0 0 0
          0 0 0 0 0 0
          0 0 0 0 0 0
          0 0 0 0 0 0
          0 0 0 0 0 0
          0 0 0 0 0 0
          0 0 0 0 0 0
          0 0 0 0 0 0
          0 0 0 0 0 0
          0 0 0 0 0 0
          0 0 0 0 0 0
          0 0 0 0 0 0
          0 0 0 0 0 0
          0 0 0 0 0 0
          0 0 0 0 0 0
          0 0 0 0 0 0
          0 0 0 0 0 0
          0 0 0 0 0 0
          0 0 0 0 0 0
          0 0 0 0 0 0
          0 0 0 0 0 0
          0 0 0 0 0 0
          0 0 0 0 0 0
          0 0 0 0 0 0
          0 0 0 0 0 0
          0 0 0 0 0 0
          0 0 0 0 0 0
          0 0 0 0 0 0
          0 0 0 0 0 0
          0 0 0 0 0 0
          0 0 0 0 0 0
          0 0 0 0 0 0
          0 0 0 0 0 0
          0 0 0 0 0 0
          0 0 0 0 0 0
          0 0 0 0 0 0
          0 0 0 0 0 0
          0 0 0 0 0 0
          0 0 0 0 0 0
          0 0 0 0 0 0
          0 0 0 0 0 0
          0 0 0 0 0 0
          0 0 0 0 0 0
          0 0 0 0 0 0
          0 0 0 0 0 0
          0 0 0 0 0 0
          0 0 0 0 0 0
          0 0 0 0 0 0
          0 0 0 0 0 0
          0 0 0 0 0 0
          0 0 0 0 0 0
          0 0 0 0 0 0
          0 0 0 0 0 0
          0 0 0 0 0 0
          0 0 0 0 0 0
          0 0 0 0 0 0
          0 0 0 0 0 0
          0 0 0 0 0 0
          0 0 0 0 0 0
          0 0 0 0 0 0
          0 0 0 0 0 0
          0 0 0 0 0 0
          0 0 0 0 0 0
          0 0 0 0 0 0
          0 0 0 0 0 0
          0 0 0 0 0 0
          0 0 0 0 0 0
          0 0 0 0 0 0
          0 0 0 0 0 0
          0 0 0 0 0 0
          0 0 0 0 0 0
          0 0 0 0 0 0
          0 0 0 0 0 0
          0 0 0 0 0 0
          0 0 0 0 0 0
          0 0 0 0 0 0
          0 0 0 0 0 0
          0 0 0 0 0 0
          0 0 0 0 0 0
          0 0 0 0 0 0
          0 0 0 0 0 0
          0 0 0 0 0 0
          0 0 0 0 0 0
          0 0 0 0 0 0
          0 0 0 0 0 0
          0 0 0 0 0 0
          0 0 0 0 0 0
          0 0 0 0 0 0
          0 0 0 0 0 0
          0 0 0 0 0 0
          0 0 0 0 0 0
          0 0 0 0 0 0
          0 0 0 0 0 0
          0 0 0 0 0 0
          0 0 0 0 0 0
          0 0 0 0 0 0
          0 0 0 0 0 0
          0 0 0 0 0 0
          0 0 0 0 0 0
          0 0 0 0 0 0
          0 0 0 0 0 0
          0 0 0 0 0 0
          0 0 0 0 0 0
          0 0 0 0 0 0
          0 0 0 0 0 0
          0 0 0 0 0 0
          0 0 0 0 0 0
          0 0 0 0 0 0
          0 0 0 0 0 0
          0 0 0 0 0 0
          0 0 0 0 0 0
          0 0 0 0 0 0
          0 0 0 0 0 0
          0 0 0 0 0 0
          0 0 0 0 0 0
          0 0 0 0 0 0
          0 0 0 0 0 0
          0 0 0 0 0 0
          0 0 0 0 0 0
          0 0 0 0 0 0
          0 0 0 0 0 0
          0 0 0 0 0 0
          0 0 0 0 0 0
          0 0 0 0 0 0
          0 0 0 0 0 0
          0 0 0 0 0 0
          0 0 0 0 0 0
          0 0 0 0 0 0
          0 0 0 0 0 0
          0 0 0 0 0 0
          0 0 0 0 0 0
          0 0 0 0 0 0
          0 0 0 0 0 0
          0 0 0 0 0 0
          0 0 0 0 0 0
          0 0 0 0 0 0
          0 0 0 0 0 0
          0 0 0 0 0 0
          0 0 0 0 0 0
          0 0 0 0 0 0
          0 0 0 0 0 0
          0 0 0 0 0 0
          0 0 0 0 0 0
          0 0 0 0 0 0
          0 0 0 0 0 0
          0 0 0 0 0 0
          0 0 0 0 0 0
          0 0 0 0 0 0
          0 0 0 0 0 0
          0 0 0 0 0 0
          0 0 0 0 0 0
          0 0 0 0 0 0
          0 0 0 0 0 0
          0 0 0 0 0 0
          0 0 0 0 0 0
          0 0 0 0 0 0
          0 0 0 0 0 0
          0 0 0 0 0 0
          0 0 0 0 0 0
          0 0 0 0 0 0
          0 0 0 0 0 0
          0 0 0 0 0 0
          0 0 0 0 0 0
          0 0 0 0 0 0
          0 0 0 0 0 0
          0 0 0 0 0 0
          0 0 0 0 0 0
          0 0 0 0 0 0
          0 0 0 0 0 0
          0 0 0 0 0 0
          0 0 0 0 0 0
          0 0 0 0 0 0
          0 0 0 0 0 0
          0 0 0 0 0 0
          0 0 0 0 0 0
          0 0 0 0 0 0
          0 0 0 0 0 0
          0 0 0 0 0 0
          0 0 0 0 0 0
          0 0 0 0 0 0
          0 0 0 0 0 0
          0 0 0 0 0 0
          0 0 0 0 0 0
          0 0 0
        </DataArray>
        <DataArray type="Float64" Name="gradient_error" format="ascii" RangeMin="1.9438620815915076e-16" RangeMax="3.229883180183914e-7">
          2.1449999697752382e-16 2.1458443678495968e-16 2.151291455160691e-16 2.1484642206105347e-16 2.1377649515208756e-16 2.1421244976891586e-16
          2.1673328731570299e-16 2.1567194636360007e-16 2.1459723811277969e-16 2.1462019816450518e-16 2.148788088402631e-16 2.1475042713825663e-16
          2.1495354935577965e-16 2.1479824079000335e-16 2.1397981222292914e-16 2.1430160481595035e-16 2.1462316427188927e-16 2.146307056521326e-16
          2.1464936527424667e-16 2.1464224013078684e-16 2.1462007095029164e-16 2.146258500913947e-16 2.1467283170448935e-16 2.146610512788717e-16
          2.146221899776759e-16 2.1462686547046996e-16 2.146697111201993e-16 2.1465919297766903e-16 2.146389053431944e-16 2.1463893142857799e-16
          2.1463379675598446e-16 2.1463316525083314e-16 2.1464050380231423e-16 2.146395643357554e-16 2.1462925457446199e-16 2.1463096028594928e-16
          2.1463594065083186e-16 2.146360488928026e-16 2.1463825364595442e-16 2.146379352324088e-16 2.1463676664024275e-16 2.146366794172812e-16
          2.1463713129696532e-16 2.1463701885299924e-16 2.1463696840890426e-16 2.1463689064383459e-16 2.1463688749126183e-16 2.1463680289543138e-16
          2.146368591174277e-16 2.146368433542252e-16 2.1463675297855977e-16 2.1463670989247182e-16 2.1463671199406576e-16 2.1463675613106982e-16
          2.1463665629749242e-16 2.1463665524663875e-16 2.1463671199430791e-16 2.1463676138561699e-16 2.1463664263617754e-16 2.146366510432362e-16
          2.146368549140639e-16 2.1463682023493688e-16 2.1463674877508905e-16 2.1463669412933368e-16 2.1463689905077264e-16 2.1463680867510962e-16
          2.1463683599798931e-16 2.1463674036792728e-16 2.1464918068024452e-16 2.1460926542031792e-16 2.146406072467047e-16 2.1462854325542547e-16
          2.1463937922099932e-16 2.1463145072870416e-16 2.146395657095482e-16 2.1463149660622703e-16 2.1463777695482343e-16 2.146360026617792e-16
          2.1463528886180943e-16 2.1464125736414412e-16 2.1463495992312289e-16 2.146413779591958e-16 2.146377486177099e-16 2.1463507344994697e-16
          2.1463752552253814e-16 2.1463510733233394e-16 2.1463645242953068e-16 2.146371087101881e-16 2.1463672355404184e-16 2.1463687855970638e-16
          2.1463689064382433e-16 2.146368407270747e-16 2.146368412524656e-16 2.146367655891274e-16 2.146368202347378e-16 2.1463676401265887e-16
          2.1463682548928494e-16 2.146367750470642e-16 2.1463681813317729e-16 2.1463676506376793e-16 2.1463680867510964e-16 2.146367824031525e-16
          2.1462948476809347e-16 2.14654832234598e-16 2.146328101076652e-16 2.1464648109935379e-16 2.14635600225768e-16 2.1464085602115817e-16
          2.146361991948693e-16 2.1463959580348244e-16 2.1463730687727095e-16 2.1463689033623144e-16 2.146389484911211e-16 2.1463324387503416e-16
          2.1463837888298185e-16 2.146340810832529e-16 2.1463653972145825e-16 2.1463761315421214e-16 2.146364261758797e-16 2.146375486672313e-16
          2.1463674772428801e-16 2.1463660060151297e-16 2.1463685491376404e-16 2.1463685071037955e-16 2.1463696840888373e-16 2.1463696315454846e-16
          2.146368549139085e-16 2.1463686437187088e-16 2.146368402014017e-16 2.1463687382953256e-16 2.1463684020164384e-16 2.146368906438335e-16
          2.1463685071054472e-16 2.1463689064395758e-16 2.1463689905077266e-16 2.1463692006843973e-16 2.2290131285319116e-16 2.1896448444811147e-16
          2.1404088777185035e-16 2.14496208933898e-16 2.101615987707437e-16 2.1245623090113104e-16 2.1585727873826832e-16 2.152794935504249e-16
          2.173665103702818e-16 2.1602898239039517e-16 2.1467114189280034e-16 2.1465530572209527e-16 2.1450395731239242e-16 2.1454399135493435e-16
          2.1450689233233844e-16 2.1454835406772732e-16 2.1464477142979688e-16 2.1464846060588107e-16 2.1466481365519355e-16 2.1465856774079539e-16
          2.1463184022382463e-16 2.1463282702778745e-16 2.1463588707722126e-16 2.146359658954394e-16 2.1463685071087907e-16 2.1463687488127322e-16
          2.1463686752481194e-16 2.1463690588185547e-16 2.1463673931742508e-16 2.1463679133610294e-16 2.1463666470488234e-16 2.146367246052172e-16
          2.1463668677335828e-16 2.1463670936746016e-16 2.1463669938413568e-16 2.1463671514753663e-16 2.1479183694472973e-16 2.147564690508666e-16
          2.1467387997081852e-16 2.1466067841496493e-16 2.1465880495898258e-16 2.146384512436566e-16 2.1461760584870728e-16 2.1461865114275825e-16
          2.146428484136301e-16 2.1464289140530437e-16 2.1463552143014838e-16 2.1463658695384452e-16 2.146369825963036e-16 2.1463697734166085e-16
          2.1463692111978442e-16 2.1463690010219901e-16 2.1463687593199998e-16 2.1463686437249514e-16 2.1455601784642758e-16 2.1456140800578756e-16
          2.1459689691011865e-16 2.1461964846734832e-16 2.1462615550745662e-16 2.1463743293592293e-16 2.1465118629993828e-16 2.146474864824003e-16
          2.1463354704529498e-16 2.1463346098421155e-16 2.1463722902854647e-16 2.1463712919403146e-16 2.146370661409399e-16 2.1463701044442273e-16
          2.14636998884788e-16 2.1463701569884593e-16 2.1463701990243784e-16 2.1463699783405269e-16 2.0150049491047578e-16 2.0786151376405668e-16
          1.9965689638965874e-16 2.06252671204837e-16 2.363363113708319e-16 2.248265665049142e-16 2.709294372727249e-16 2.4254339768765687e-16
          2.356972063677253e-16 2.2502369492730344e-16 2.0828621678259766e-16 2.113469456593295e-16 2.141936580003442e-16 2.1441755110588982e-16
          2.1514361119885671e-16 2.1500754632293417e-16 2.151754973306127e-16 2.150060845194258e-16 2.1462173559360776e-16 2.1460124447275976e-16
          2.1452743563295783e-16 2.1455099564172104e-16 2.1465398646761115e-16 2.1465086655636992e-16 2.146407382922672e-16 2.1464075564291834e-16
          2.1463695160839502e-16 2.1463716283317253e-16 2.1463681077754973e-16 2.1463686699952773e-16 2.146368843388138e-16 2.1463692374702351e-16
          2.146369043054431e-16 2.146369810198849e-16 2.1463687172818512e-16 2.1463692795046288e-16 2.1463677504740375e-16 2.146368454566335e-16
          2.145313119078337e-16 2.1394653900040118e-16 2.1414681713052286e-16 2.144826117296352e-16 2.1452914087714459e-16 2.145422069580034e-16
          2.1463425955617844e-16 2.1472246157724757e-16 2.147138185712047e-16 2.1461424950255393e-16 2.1461236748235456e-16 2.1464189934759305e-16
          2.1463857540624008e-16 2.1463699363502224e-16 2.1463686489766716e-16 2.1463694003573538e-16 2.1463697786730717e-16 2.14636911661906e-16
          2.1463683704962735e-16 2.1484009119802978e-16 2.150446319807871e-16 2.1497681262204923e-16 2.148078653566815e-16 2.1470809826740758e-16
          2.1467673937994543e-16 2.146270749009214e-16 2.1457344170748354e-16 2.1459096543417055e-16 2.1464774565319607e-16 2.146501793142249e-16
          2.146360520500574e-16 2.1463637781891069e-16 2.1463661321209443e-16 2.1463680657382852e-16 2.146369169162375e-16 2.1463689800028761e-16
          2.146368391510713e-16 2.146367582333915e-16 5.11383255593749e-16 3.6603824252494975e-16 3.8749824417037994e-16 3.0643865306628794e-16
          3.8539335443088564e-16 3.0363864383818256e-16 5.096783011249208e-16 3.634530946351929e-16 4.2798920100572486e-16 3.219843987330934e-16
          2.7491796299862124e-16 2.4527250611286204e-16 2.1795037632439868e-16 2.1626585807228747e-16 2.1281724941402507e-16 2.1324955931663817e-16
          2.1246601161015662e-16 2.131650022917877e-16 2.146842860737058e-16 2.1478177149030487e-16 2.1507441719314707e-16 2.1498816240470681e-16
          2.145804600626853e-16 2.1459185873651744e-16 2.1462141289312052e-16 2.1462198529068525e-16 2.146355783135829e-16 2.146352346527583e-16
          2.1463705458364189e-16 2.1463696210580968e-16 2.1463691796676874e-16 2.1463688486406407e-16 2.1463679501389816e-16 2.146368580666277e-16
          2.146368328457345e-16 2.1463687803342572e-16 2.1463686962656862e-16 2.1463686752458642e-16 2.1715067299234655e-16 2.1917192605575988e-16
          2.1758385035943846e-16 2.1558954935413946e-16 2.1516008921168147e-16 2.1505696765759904e-16 2.1464591627783566e-16 2.1430608202422896e-16
          2.1435281686420548e-16 2.1473922149349546e-16 2.1474259859860489e-16 2.146210887912639e-16 2.1463061270431319e-16 2.1463602638267314e-16
          2.146368359990824e-16 2.146367923865804e-16 2.1463680920062696e-16 2.146367992172952e-16 2.1463676138551609e-16 2.1360811652854252e-16
          2.129647901493238e-16 2.1328376747339756e-16 2.1395121056281388e-16 2.1434058196290109e-16 2.1448688608809525e-16 2.1471049273549507e-16
          2.1493029482920663e-16 2.1484164075499225e-16 2.1459918608008698e-16 2.1458328958094314e-16 2.1463892017217818e-16 2.146386677203764e-16
          2.1463716177341263e-16 2.1463680237018727e-16 2.1463673301180134e-16 2.1463669728189672e-16 2.146366752134735e-16 2.14636657348428e-16
          1.814989716443579e-15 1.0240358704542434e-15 1.0624417755099418e-15 6.431659592386715e-16 1.1320264413751575e-15 6.7315816715182215e-16
          1.8197865176886144e-15 1.015961919879265e-15 1.2807615127054425e-15 7.454202248228072e-16 4.764540280083898e-16 3.4380312596375607e-16
          2.0712646893154783e-16 2.1142324993048558e-16 2.2243541926180547e-16 2.2127803987335869e-16 2.242616374831767e-16 2.2163269966407692e-16
          2.15334409888546e-16 2.1476512993893554e-16 2.1302702171018452e-16 2.133514124130705e-16 2.1481822444125878e-16 2.147765010937198e-16
          2.1469673237412639e-16 2.1469422359469412e-16 2.146430040136269e-16 2.1464468976101103e-16 2.1463587135409722e-16 2.1463660905397172e-16
          2.1463570420133733e-16 2.1463608462032898e-16 2.146360467881135e-16 2.1463637834084914e-16 2.1463630635573623e-16 2.1463656171925162e-16
          2.1463642825787763e-16 2.1463657327876018e-16 2.2986697438763886e-16 2.255358701462245e-16 2.1835370023833797e-16 2.150300533611581e-16
          2.129609296727853e-16 2.1317892695587818e-16 2.1503470372086883e-16 2.168621713948755e-16 2.1647033534824963e-16 2.1450435421015676e-16
          2.1427073669339504e-16 2.1468587734781307e-16 2.1466157999664557e-16 2.1464103986168377e-16 2.1463714286958138e-16 2.1463679186234882e-16
          2.1463695001922886e-16 2.146370178005535e-16 2.1463697471424993e-16 2.2665192431037005e-16 2.271815973250479e-16 2.2241750754818917e-16
          2.17922784652401e-16 2.158429224053988e-16 2.1520562999263403e-16 2.1434937651231426e-16 2.1360368230483908e-16 2.1393690885152218e-16
          2.148128584309884e-16 2.1486567027083367e-16 2.1463697694944532e-16 2.1463144517802933e-16 2.1463570421497237e-16 2.146369389853165e-16
          2.14637118685377e-16 2.1463719014487294e-16 2.1463721851833998e-16 2.146372311288571e-16 7.675516205138987e-15 4.154808080195074e-15
          4.181502256401784e-15 2.414136882163407e-15 4.418146513406528e-15 2.4401006051612115e-15 7.238728080729152e-15 3.768731445002816e-15
          4.9699702986760095e-15 2.6081401211818187e-15 1.6615504449885328e-15 9.478067822600726e-16 3.76034501654202e-16 2.980248443703772e-16
          2.200171878105516e-16 2.1911664440091932e-16 1.9438620815915076e-16 2.0643251069279034e-16 2.220806690153295e-16 2.228096518561247e-16
          2.2222736917043747e-16 2.2123468172546024e-16 2.140848643929827e-16 2.142436818954022e-16 2.144035877803431e-16 2.1441851345855264e-16
          2.1460035445364535e-16 2.145966758602777e-16 2.146333316506164e-16 2.1463277717342671e-16 2.146363925378334e-16 2.146369668492439e-16
          2.1463569264761612e-16 2.1463656120188087e-16 2.1463518507188658e-16 2.1463605730531233e-16 2.1463511045864633e-16 2.1463588075763717e-16
          4.557290047165761e-16 4.4863056245827355e-16 3.382166165586955e-16 2.53862541038979e-16 2.289459052930686e-16 2.2424644351094857e-16
          2.198298894687455e-16 2.211013265146353e-16 2.1958710239220858e-16 2.1914388097877388e-16 2.1705069009874144e-16 2.1450602521682422e-16
          2.1454432631235023e-16 2.1461868147630402e-16 2.146360930612583e-16 2.1463822474782932e-16 2.146380891788582e-16 2.1463778862828453e-16
          2.1463760735207577e-16 2.7735805418199067e-16 2.5048961699151774e-16 2.1437853620149604e-16 2.08990272801478e-16 2.1158186689850873e-16
          2.1442976749028435e-16 2.196445918509386e-16 2.2398655203798354e-16 2.206953915579873e-16 2.1474912726062782e-16 2.1385938591699992e-16
          2.1460955103582674e-16 2.1465521348793838e-16 2.14644365685698e-16 2.1463996342627952e-16 2.1463890833500426e-16 2.1463874860157082e-16
          2.146386477178311e-16 2.146385636475235e-16 3.235229264023618e-14 1.7579406218020255e-14 1.7060928721440702e-14 9.842720502181842e-15
          1.8378227782481895e-14 9.940815361824648e-15 2.940097385600374e-14 1.5005336678568177e-14 1.9521596531286764e-14 9.918711543168495e-15
          6.364511892332371e-15 3.3171225597269414e-15 1.290133679671315e-15 8.084927827537965e-16 5.88802908521517e-16 5.178811090927816e-16
          4.449441941922348e-16 4.208850933868647e-16 3.0836638247559065e-16 2.9074391101975384e-16 2.2083614855858676e-16 2.230040929999813e-16
          2.1629721971582234e-16 2.1564569116173665e-16 2.1550355016534172e-16 2.154323864788225e-16 2.1479670134970754e-16 2.1481103140754319e-16
          2.146512399129705e-16 2.1465876529840046e-16 2.1463017942316064e-16 2.146341788354775e-16 2.146297720498104e-16 2.1463280179075573e-16
          2.1463066317217433e-16 2.1463345227387395e-16 2.1463101626532117e-16 2.1463371394041164e-16 1.820814316173042e-15 1.6452552097849119e-15
          9.639396398389786e-16 4.583152436495595e-16 2.913422885153474e-16 2.6122367431835127e-16 2.931244858050889e-16 3.569069422726571e-16
          3.213017271889874e-16 2.4930159307787847e-16 2.22372393977983e-16 2.149421550183788e-16 2.1498422596803357e-16 2.1472461718898703e-16