<?xml version="1.0"?>
<VTKFile type="UnstructuredGrid" version="0.1" byte_order="LittleEndian" header_type="UInt32" compressor="vtkZLibDataCompressor">
  <UnstructuredGrid>
    <Piece NumberOfPoints="1277" NumberOfCells="899">
      <PointData>
        <DataArray type="Int32" Name="libmesh_node_id" format="ascii" RangeMin="1753" RangeMax="12987">
          1968 2764 2851 2852 2858 2860
          2891 2893 2895 2897 2964 2970
          4015 4049 4234 4235 4239 4298
          4299 4300 4301 4302 4303 4304
          4305 4306 4307 4308 4309 4312
          4313 4315 4317 4318 4319 4320
          4321 4325 4326 4370 4374 4404
          4408 4484 4485 4486 4487 4488
          4489 4490 4491 4493 4495 4497
          4498 4499 4501 4502 4503 4505
          4506 4509 4510 4512 4514 4515
          4516 4517 4518 4519 4520 4521
          4522 4524 4526 4528 4529 4530
          4532 4533 4534 4536 4538 4540
          4542 4935 4940 4942 4943 4949
          4951 4953 4955 4957 4959 4961
          4963 4965 5292 5293 5296 5297
          7508 7536 7754 7782 7834 7838
          7862 7866 8036 8040 8064 8068
          8559 8560 8561 8562 8563 8564
          8565 8566 8567 8568 8569 8570
          8573 8574 8576 8578 8795 8796
          8797 8798 8799 8800 8801 8802
          8803 8804 8805 8806 8807 8808
          8809 8810 8811 8812 8813 8814
          8815 8816 8817 8818 8819 8820
          8821 8822 8823 8824 8825 8826
          8827 8828 8829 8830 8831 8832
          8833 8834 8835 8836 8837 8838
          8839 8840 8841 8842 8843 8844
          8845 8846 8849 8850 8852 8854
          8855 8856 8857 8858 8859 8860
          8861 8862 8863 8864 8865 8866
          8869 8870 8872 8874 8875 8876
          8877 8878 8879 8880 8881 8882
          8883 8884 8885 8886 8887 8888
          8889 8890 8891 8892 8893 8894
          9105 9106 9107 9108 9109 9110
          9111 9112 9114 9116 9118 9133
          9134 9135 9136 9137 9138 9139
          9140 9142 9144 9146 9353 9354
          9355 9356 9357 9358 9359 9360
          9362 9364 9366 9381 9382 9383
          9384 9385 9386 9387 9388 9390
          9392 9394 9947 9948 9949 9950
          9951 9952 9953 9954 9955 9956
          9957 9958 9959 9960 9961 9962
          9963 9964 9965 9966 9967 9968
          9969 9970 9971 9972 9973 9974
          9975 9976 9977 9978 9979 9980
          9981 9982 9983 9984 9985 9986
          9987 9988 9989 9990 9991 9992
          9993 9994 9995 9996 9997 9998
          9999 10000 10001 10002 10003 10004
          10005 10006 10007 10008 10009 10010
          10012 10014 10016 10017 10018 10019
          10020 10021 10022 10023 10024 10026
          10028 10030 10031 10032 10033 10034
          10035 10036 10037 10038 10040 10042
          10044 10045 10046 10047 10048 10049
          10050 10051 10052 10054 10056 10058
          10059 10060 10061 10062 10063 10064
          10065 10066 10067 10068 10069 10070
          10071 10072 10073 10074 10075 10076
          10080 10081 10083 10084 10085 10086
          10087 10088 10089 10090 10091 10092
          10093 10094 10095 10096 10097 10098
          10099 10100 10101 10102 10103 10104
          10105 10106 10107 10108 10111 10112
          10114 10115 10116 10117 10118 10119
          10120 10121 10122 10123 10124 10125
          10126 10127 10128 10129 10130 10131
          10132 10135 10136 10138 10140 10141
          10142 10143 10144 10145 10146 10147
          10148 10149 10150 10151 10152 10155
          10156 10158 10160 10161 10162 10163
          10164 10165 10166 10167 10168 10170
          10172 10174 10175 10176 10177 10178
          10179 10180 10181 10182 10184 10186
          10188 10189 10190 10191 10192 10193
          10194 10195 10196 10197 10198 10199
          10200 10201 10202 10203 10204 10205
          10206 10207 10208 10209 10210 10211
          10212 10213 10214 10215 10216 10217
          10218 10219 10220 10221 10222 10223
          10224 10225 10226 10227 10228 10229
          10230 10231 10232 10233 10234 10235
          10236 10237 10238 10239 10240 10241
          10242 10243 10244 10245 10246 10247
          10248 10249 10250 10251 10252 10254
          10256 10258 10259 10260 10261 10262
          10263 10264 10265 10266 10268 10270
          10272 10273 10274 10275 10276 10277
          10278 10279 10280 10282 10284 10286
          10287 10288 10289 10290 10291 10292
          10293 10294 10296 10298 10300 10301
          10302 10303 10304 10305 10306 10307
          10308 10309 10310 10311 10312 10313
          10314 10315 10316 10319 10320 10322
          10323 10324 10325 10326 10327 10328
          10329 10330 10331 10332 10333 10334
          10335 10336 10337 10338 10339 10340
          10341 10342 10343 10344 10347 10348
          10350 10351 10352 10353 10354 10355
          10356 10357 10358 10359 10360 10361
          10362 10363 10364 10366 10368 10370
          10371 10372 10373 10374 10375 10376
          10377 10378 10380 10382 10384 10385
          10386 10387 10388 10389 10390 10391
          10392 10394 10396 10398 10399 10400
          10401 10402 10403 10404 10405 10406
          10408 10410 10412 12772 12773 12774
          12775 12776 12777 12778 12779 12780
          12781 12789 12790 12791 12792 12793
          12794 12795 12806 12807 12808 12809
          12810 12811 12812 12813 12814 12815
          12816 12817 12818 12819 12820 12821
          12822 12823 12824 12825 12826 12827
          12830 12831 12833 12835 12836 12837
          12838 12839 12840 12841 12842 12843
          12844 12845 12846 12847 12848 12849
          12850 12851 12852 12853 12855 12863
          12864 12865 12866 12867 12868 12869
          12877 12878 12879 12880 12881 12882
          12883 12891 12892 12893 12894 12895
          12896 12897 12905 12906 12907 12908
          12909 12910 12911 12912 12913 12914
          12915 12916 12917 12918 12919 12921
          12923 12925 12926 12927 12928 12929
          12930 12931 12932 12933 12935 12937
          12939 12940 12941 12942 12943 12944
          12945 12946 12947 12949 12951 12953
          12954 12955 12956 12957 12958 12959
          12960 12961 12963 12965 12967 12978
          12979 12980 12981 12982 12983 12984
          12985 12986 12987 1960 2830 2741
          2724 2831 2742 1991 2853 2832
          2854 2855 1753 2856 2745 1997
          2857 3313 3311 1998 2965 2963
          3861 4230 3862 4231 3865 4232
          4233 4236 3889 3890 3893 4244
          4245 4310 4246 4311 4314 3909
          3910 4322 4323 3913 4324 3915
          4327 1965 4932 4934 4936 4933
          4938 4937 4944 4511 4945 4946
          4947 4948 4941 4968 4966 4954
          4969 4967 5294 5295 5298 2859
          4507 5323 5321 5328 5334 5330
          2966 5335 5337 4962 5338 5341
          4974 2971 5342 5504 5502 6944
          6945 1962 6946 7505 7506 7507
          7509 7510 7511 7533 7534 7535
          7537 7538 7539 7751 7752 7753
          7755 7756 7757 7779 7780 7781
          7783 7784 7785 6993 6992 7833
          3895 6994 7836 7835 7837 4089
          7839 7861 7864 7863 7865 4093
          7867 8035 8038 8037 8039 4117
          8041 8063 8066 8065 8067 4121
          8069 8543 6939 6923 8544 6940
          8545 6943 3867 8548 4237 8553
          8554 8571 8555 8572 8575 8558
          4238 8577 2836 6987 6988 6991
          7007 7008 7011 7013 2747 8603
          8604 8605 8608 4249 8613 8614
          8847 8615 8848 8851 8618 1993
          8853 4316 8867 8868 8871 8873
          7041 7042 7045 7047 7494 9093
          9094 4013 9097 4368 9100 9101
          9113 9115 9104 4369 9117 4371
          7522 9121 9122 4017 9125 4372
          9128 9129 9141 9143 9132 4373
          9145 2875 7740 9341 9342 4047
          9345 4402 9348 9349 9361 9363
          9352 4403 9365 4405 7768 9369
          9370 4051 9373 4406 9376 9377
          9389 9391 9380 4407 9393 2880
          7848 7850 7852 4091 7876 7878
          7880 2777 9163 9164 9167 4377
          9170 9171 10011 10013 9174 4378
          10015 4492 10025 10027 10029 4494
          9191 9192 9195 4381 9198 9199
          10039 10041 9202 2876 10043 4496
          10053 10055 10057 2892 7934 7936
          7938 4103 7952 7953 10077 10078
          7956 10079 7958 10082 4105 4500
          7968 7970 7972 4107 7982 10109
          7984 10110 7986 10113 2779 4504
          10133 10134 10137 10139 4508 10153
          10154 10157 10159 10169 10171 10173
          4513 10183 10185 10187 2894 8050
          8052 8054 4119 8078 8080 8082
          2781 9411 9412 9415 4411 9418
          9419 10253 10255 9422 4412 10257
          4523 10267 10269 10271 4525 9439
          9440 9443 4415 9446 9447 10281
          10283 9450 2001 10285 4527 10295
          10297 10299 2896 8132 8134 8136
          4131 8146 10317 8148 10318 8150
          10321 4133 4531 8160 8162 8164
          4135 8174 10345 8176 10346 8178
          10349 1759 4535 10365 10367 10369
          4537 10379 10381 10383 4539 10393
          10395 10397 4541 10407 10409 10411
          2003 12764 12765 12768 12770 12783
          12785 12787 4939 12798 12799 12802
          12804 12828 12829 12832 12834 4950
          12854 12857 12859 12861 4952 12871
          12873 12875 12885 12887 12889 4956
          12899 12901 12903 4958 12920 12922
          12924 4960 12934 12936 12938 12948
          12950 12952 4964 12962 12964 12966
          12970 12971 12974 12976 4973
        </DataArray>
        <DataArray type="Float64" Name="bounds" format="ascii" RangeMin="0" RangeMax="0">
          0 0 0 0 0 0
          0 0 0 0 0 0
          0 0 0 0 0 0
          0 0 0 0 0 0
          0 0 0 0 0 0
          0 0 0 0 0 0
          0 0 0 0 0 0
          0 0 0 0 0 0
          0 0 0 0 0 0
          0 0 0 0 0 0
          0 0 0 0 0 0
          0 0 0 0 0 0
          0 0 0 0 0 0
          0 0 0 0 0 0
          0 0 0 0 0 0
          0 0 0 0 0 0
          0 0 0 0 0 0
          0 0 0 0 0 0
          0 0 0 0 0 0
          0 0 0 0 0 0
          0 0 0 0 0 0
          0 0 0 0 0 0
          0 0 0 0 0 0
          0 0 0 0 0 0
          0 0 0 0 0 0
          0 0 0 0 0 0
          0 0 0 0 0 0
          0 0 0 0 0 0
          0 0 0 0 0 0
          0 0 0 0 0 0
          0 0 0 0 0 0
          0 0 0 0 0 0
          0 0 0 0 0 0
          0 0 0 0 0 0
          0 0 0 0 0 0
          0 0 0 0 0 0
          0 0 0 0 0 0
          0 0 0 0 0 0
          0 0 0 0 0 0
          0 0 0 0 0 0
          0 0 0 0 0 0
          0 0 0 0 0 0
          0 0 0 0 0 0
          0 0 0 0 0 0
          0 0 0 0 0 0
          0 0 0 0 0 0
          0 0 0 0 0 0
          0 0 0 0 0 0
          0 0 0 0 0 0
          0 0 0 0 0 0
          0 0 0 0 0 0
          0 0 0 0 0 0
          0 0 0 0 0 0
          0 0 0 0 0 0
          0 0 0 0 0 0
          0 0 0 0 0 0
          0 0 0 0 0 0
          0 0 0 0 0 0
          0 0 0 0 0 0
          0 0 0 0 0 0
          0 0 0 0 0 0
          0 0 0 0 0 0
          0 0 0 0 0 0
          0 0 0 0 0 0
          0 0 0 0 0 0
          0 0 0 0 0 0
          0 0 0 0 0 0
          0 0 0 0 0 0
          0 0 0 0 0 0
          0 0 0 0 0 0
          0 0 0 0 0 0
          0 0 0 0 0 0
          0 0 0 0 0 0
          0 0 0 0 0 0
          0 0 0 0 0 0
          0 0 0 0 0 0
          0 0 0 0 0 0
          0 0 0 0 0 0
          0 0 0 0 0 0
          0 0 0 0 0 0
          0 0 0 0 0 0
          0 0 0 0 0 0
          0 0 0 0 0 0
          0 0 0 0 0 0
          0 0 0 0 0 0
          0 0 0 0 0 0
          0 0 0 0 0 0
          0 0 0 0 0 0
          0 0 0 0 0 0
          0 0 0 0 0 0
          0 0 0 0 0 0
          0 0 0 0 0 0
          0 0 0 0 0 0
          0 0 0 0 0 0
          0 0 0 0 0 0
          0 0 0 0 0 0
          0 0 0 0 0 0
          0 0 0 0 0 0
          0 0 0 0 0 0
          0 0 0 0 0 0
          0 0 0 0 0 0
          0 0 0 0 0 0
          0 0 0 0 0 0
          0 0 0 0 0 0
          0 0 0 0 0 0
          0 0 0 0 0 0
          0 0 0 0 0 0
          0 0 0 0 0 0
          0 0 0 0 0 0
          0 0 0 0 0 0
          0 0 0 0 0 0
          0 0 0 0 0 0
          0 0 0 0 0 0
          0 0 0 0 0 0
          0 0 0 0 0 0
          0 0 0 0 0 0
          0 0 0 0 0 0
          0 0 0 0 0 0
          0 0 0 0 0 0
          0 0 0 0 0 0
          0 0 0 0 0 0
          0 0 0 0 0 0
          0 0 0 0 0 0
          0 0 0 0 0 0
          0 0 0 0 0 0
          0 0 0 0 0 0
          0 0 0 0 0 0
          0 0 0 0 0 0
          0 0 0 0 0 0
          0 0 0 0 0 0
          0 0 0 0 0 0
          0 0 0 0 0 0
          0 0 0 0 0 0
          0 0 0 0 0 0
          0 0 0 0 0 0
          0 0 0 0 0 0
          0 0 0 0 0 0
          0 0 0 0 0 0
          0 0 0 0 0 0
          0 0 0 0 0 0
          0 0 0 0 0 0
          0 0 0 0 0 0
          0 0 0 0 0 0
          0 0 0 0 0 0
          0 0 0 0 0 0
          0 0 0 0 0 0
          0 0 0 0 0 0
          0 0 0 0 0 0
          0 0 0 0 0 0
          0 0 0 0 0 0
          0 0 0 0 0 0
          0 0 0 0 0 0
          0 0 0 0 0 0
          0 0 0 0 0 0
          0 0 0 0 0 0
          0 0 0 0 0 0
          0 0 0 0 0 0
          0 0 0 0 0 0
          0 0 0 0 0 0
          0 0 0 0 0 0
          0 0 0 0 0 0
          0 0 0 0 0 0
          0 0 0 0 0 0
          0 0 0 0 0 0
          0 0 0 0 0 0
          0 0 0 0 0 0
          0 0 0 0 0 0
          0 0 0 0 0 0
          0 0 0 0 0 0
          0 0 0 0 0 0
          0 0 0 0 0 0
          0 0 0 0 0 0
          0 0 0 0 0 0
          0 0 0 0 0 0
          0 0 0 0 0 0
          0 0 0 0 0 0
          0 0 0 0 0 0
          0 0 0 0 0 0
          0 0 0 0 0 0
          0 0 0 0 0 0
          0 0 0 0 0 0
          0 0 0 0 0 0
          0 0 0 0 0 0
          0 0 0 0 0 0
          0 0 0 0 0 0
          0 0 0 0 0 0
          0 0 0 0 0 0
          0 0 0 0 0 0
          0 0 0 0 0 0
          0 0 0 0 0 0
          0 0 0 0 0 0
          0 0 0 0 0 0
          0 0 0 0 0 0
          0 0 0 0 0 0
          0 0 0 0 0 0
          0 0 0 0 0 0
          0 0 0 0 0 0
          0 0 0 0 0 0
          0 0 0 0 0 0
          0 0 0 0 0 0
          0 0 0 0 0 0
          0 0 0 0 0 0
          0 0 0 0 0 0
          0 0 0 0 0 0
          0 0 0 0 0 0
          0 0 0 0 0 0
          0 0 0 0 0 0
          0 0 0 0 0 0
          0 0 0 0 0 0
          0 0 0 0 0 0
          0 0 0 0 0 0
          0 0 0 0 0 0
          0 0 0 0 0
        </DataArray>
        <DataArray type="Float64" Name="gradient_error" format="ascii" RangeMin="1.7709771429075755e-12" RangeMax="3.285084521388994e-9">
          2.334752529741978e-9 1.166715995676656e-9 8.844469238092314e-11 6.067138795810322e-11 2.8897178155768376e-11 2.708507882148476e-11
          1.8833997453381386e-10 3.305379671960988e-11 4.773287415233129e-10 7.31424796361068e-11 1.3525508284266478e-11 1.3447741681466619e-11
          4.486817614784858e-10 2.1366404704626843e-9 1.2312926498588124e-10 7.994815802425492e-11 1.0065222375112639e-10 8.315178395084854e-11
          5.34026654794235e-11 5.335751902917602e-11 3.429145322819985e-11 5.230615699938641e-11 3.320552885397972e-11 2.7855999891826964e-11
          6.239484542047184e-11 4.14201342540499e-11 3.5028757078477475e-11 3.323322269543863e-11 2.1419747891760475e-11 2.0188623789524543e-11
          2.4168732142661592e-11 2.662075026912657e-11 2.4638722480778847e-11 3.023308717391515e-11 3.306873639407111e-11 1.8807725086268536e-11
          2.7655540175319133e-11 3.06839740612385e-11 2.6193626039294706e-11 3.2811138829128774e-10 9.127454076841531e-10 1.7511863899564612e-9
          1.915953694059247e-9 1.9459210317457756e-10 1.3483489355179465e-10 1.0347265356744925e-10 7.059192249770138e-11 5.248353669488327e-10
          3.8379421066009443e-10 2.642862835821785e-10 9.007366305380124e-11 4.6555402165980447e-11 2.6915546293786607e-10 1.2923608704562222e-10
          4.990123848119109e-11 3.353372209517336e-11 1.829353569956682e-11 1.185024256905306e-10 8.253715348066308e-11 2.3124339520057344e-11
          2.1806286061794694e-11 2.03141190324993e-11 1.5635437944669014e-11 5.554973571693915e-11 2.1849896937039335e-11 1.0310881585436622e-9
          7.919629522881091e-10 5.145522233050426e-10 3.815555312202928e-10 1.2211205189261486e-9 9.535284692953206e-10 6.348638877579036e-10
          5.815783819099616e-10 2.714889546442338e-10 7.118292599413374e-10 3.4400236171351293e-10 2.2074195110551345e-10 1.5866414161422317e-10
          5.916676778822434e-11 2.7436000307197563e-10 1.9946422279277923e-10 1.0994899490320405e-10 4.0058956426614304e-11 1.3966858443034855e-10
          4.996967972940299e-11 1.4405259707161774e-11 1.2330229011335676e-11 2.230021736228598e-11 1.3442193537688165e-11 8.010940675201819e-12
          8.517233465432344e-12 2.0533150656892625e-11 1.5072948591418675e-11 2.4743708281984085e-11 1.358015296330571e-11 1.2706545316522262e-11
          1.6477576972052968e-11 1.4613051619609236e-11 1.1673123307810099e-11 2.423672680408132e-11 9.103345102085392e-12 1.6678551157163597e-11
          2.597973079186764e-10 7.434289227796916e-10 1.685000151653527e-9 2.325073795030482e-9 2.0633262331295967e-10 3.536838119312267e-10
          5.827904315789262e-10 9.116912044816696e-10 1.3183386809958698e-9 1.6871578768937642e-9 1.871650118406584e-9 1.903207039007422e-9
          5.405682117646023e-11 7.887346170252099e-11 4.4236590935235516e-11 6.484871794129865e-11 4.499137669945378e-11 6.521755794976099e-11
          5.35287223024431e-11 1.4821742389432751e-10 1.2310525108078032e-10 1.2146045802196473e-10 3.5769274386574656e-11 5.2828183129465564e-11
          2.965619377017377e-11 4.3521904826913617e-11 1.0139858917461986e-10 8.273621963440555e-11 3.6558237490534044e-11 5.2641325577004316e-11
          2.9826947882028436e-11 4.312359271771557e-11 2.90119718295481e-11 4.149249985385972e-11 3.392961407395227e-11 9.705760822998237e-11
          8.023287261000547e-11 7.567042557645895e-11 2.399999194838599e-11 3.499009460664366e-11 1.916451762161835e-11 2.8172757958729866e-11
          1.9044925769150716e-11 2.749232668129041e-11 2.2112367302231383e-11 6.580504878863318e-11 5.353419179919646e-11 5.104473076956843e-11
          2.253541709186483e-11 3.196675746501333e-11 1.8408259200313118e-11 2.6092409155074385e-11 1.7222230420775334e-11 2.4101411238089887e-11
          1.9617026281319497e-11 5.758762448480371e-11 4.734910821004998e-11 4.277016624121038e-11 1.4945052442056665e-11 2.1094462573582542e-11
          1.2098799383562931e-11 1.6874396845539492e-11 1.1652085809160496e-11 1.573420844596865e-11 1.3515997158574044e-11 3.866026690715754e-11
          3.1252643938076946e-11 2.8399130545000395e-11 1.5282830002498764e-11 2.2554013946854356e-11 1.211772042189479e-11 1.792550831221379e-11
          1.2133130032604143e-11 1.767168714578829e-11 1.4017388407684558e-11 4.3192705893706916e-11 3.456276938769209e-11 3.3339461794617876e-11
          9.471301437873924e-12 1.4106173979559823e-11 7.500074235795046e-12 1.1014438793393044e-11 2.7433696976926996e-11 2.10920661092079e-11
          9.715589457555607e-12 1.3411360893431448e-11 7.696110862719453e-12 1.061007234917431e-11 8.752845036704655e-12 1.1411648031216595e-11
          9.016534694077595e-12 2.4990750733794903e-11 1.9851310040753875e-11 2.076690424285456e-11 6.013253531299752e-12 8.330015191066013e-12
          5.441379755893685e-12 7.080533147444049e-12 1.5690951641583613e-11 1.2941651015046835e-11 1.3131806289432845e-11 1.7636602001658603e-11
          1.075258345810724e-11 1.4335921492358722e-11 1.1508352301548566e-11 1.4739699059970604e-11 1.1993656149413008e-11 3.0901055783362994e-11
          2.5231966575352216e-11 2.4603905332051397e-11 8.99219843333907e-12 1.1517211366617215e-11 8.327645356890699e-12 1.0235615052838944e-11
          7.857684199749009e-12 9.753371442760261e-12 8.808321119111963e-12 2.0330978943617026e-11 1.839544240610885e-11 1.6344045674826746e-11
          2.7040236094940015e-10 2.2756710877806682e-10 2.1983702651077763e-10 1.84436178939793e-10 4.772619501975721e-10 4.0793687629408744e-10
          3.854860740622366e-10 1.8977142324329497e-10 1.5336721866913976e-10 3.452501974400678e-10 2.76600186952097e-10 8.078783610383543e-10
          7.027143863331771e-10 6.496191757335375e-10 5.620947201201716e-10 1.2923783019603909e-9 1.1440076335060599e-9 1.0369993284103588e-9
          6.049744062045888e-10 4.8143376255402e-10 1.002514292410049e-9 7.951757948273395e-10 1.8898512956902034e-9 1.6963991016467052e-9
          1.519266092950068e-9 1.3574918872565632e-9 2.3961481046107205e-9 2.1616266445668865e-9 1.941083134532974e-9 1.50949280194202e-9
          1.2011170854957517e-9 1.9392563452041477e-9 1.5669004285403915e-9 2.556517075649369e-9 2.3001640882213457e-9 2.1126615018047953e-9
          1.911504273624995e-9 2.524976727557213e-9 2.265797404010323e-9 2.1181533431433556e-9 2.0635926710753542e-9 1.7197340440931134e-9
          2.028710848345104e-9 1.725866577599236e-9 1.7396998612196923e-10 1.454808956624599e-10 1.3410493016094223e-10 1.1178233110242128e-10
          3.0244271166803785e-10 2.5630431115374563e-10 2.306357858432599e-10 1.2061529504634713e-10 9.912923166674871e-11 9.240011669326014e-11
          7.572304951227641e-11 2.1519132418493954e-10 1.7897518597247193e-10 1.627198397013636e-10 1.007821470216037e-10 8.37524874124003e-11
          7.3906113919462e-11 6.122022155424831e-11 1.7111878495162486e-10 1.4375288639596548e-10 1.2369558839071347e-10 6.911632013037464e-11
          5.6568346502047896e-11 5.0435849056683744e-11 4.119655749203963e-11 1.1972458922840303e-10 9.883470178341949e-11 8.583292890868453e-11
          5.062861239502587e-10 4.3561331957136107e-10 3.825270891213409e-10 3.2723462561127566e-10 8.051227693353665e-10 7.040393489467393e-10
          6.044385395609353e-10 3.710990834578263e-10 3.129530484701881e-10 2.7725902564855585e-10 2.3263498261170657e-10 6.093420862270702e-10
          5.218019242560353e-10 4.511354727206827e-10 2.804431967568022e-10 2.385325316931492e-10 1.99800297982049e-10 1.6899675772929241e-10
          4.389123943322682e-10 3.783834492865446e-10 3.087186688434151e-10 2.0102851832682564e-10 1.6784833682510588e-10 1.416973941289641e-10
          1.177555366597641e-10 3.2303838078672747e-10 2.730672663054764e-10 2.2415812403542254e-10 8.075784463885681e-11 6.521684181445216e-11
          6.15260470385561e-11 4.9566929136428644e-11 1.4744969751101116e-10 1.2033349981474413e-10 1.1070876294133263e-10 5.220883943381714e-11
          3.959680488054811e-11 9.728562918311349e-11 7.262493864775244e-11 4.582091545450649e-11 3.677809076999613e-11 3.3221764413110606e-11
          2.6548075602927288e-11 8.087639108820855e-11 6.560240848313827e-11 5.75719475183227e-11 2.930435066814732e-11 2.1095091479533972e-11
          5.274904981432169e-11 3.7328804465683643e-11 2.6123070203797063e-10 2.1583151687540262e-10 1.9328734694290945e-10 1.590281499680258e-10
          4.420021580565239e-10 3.703012556695723e-10 3.231004270811497e-10 1.7651153876265408e-10 1.2957229125960155e-10 3.0682215413943977e-10
          2.2187542179246382e-10 1.3883675773736557e-10 1.137698882333559e-10 9.698561598385647e-11 7.916757280127784e-11 2.2853187771746172e-10
          1.8935825939704544e-10 1.5675390111086536e-10 9.236496574392973e-11 6.404913342498516e-11 1.5534754972563358e-10 1.055490176840529e-10
          5.304671384928869e-11 4.378188878893574e-11 3.711161872238444e-11 3.0550059449235557e-11 8.723591139747305e-11 7.266591833982725e-11
          6.014314791386313e-11 3.591175118553614e-11 2.9177474757857687e-11 2.4995641942616228e-11 2.0267563143804254e-11 6.00451399010213e-11
          4.920723032828759e-11 4.107925570055314e-11 1.924602266671097e-11 2.5414868515314327e-11 1.579561110640604e-11 2.0887981373475914e-11
          4.058364136989263e-11 3.3545588063176096e-11 1.303081569232654e-11 1.7128746343714825e-11 1.0653612095137682e-11 1.389557582167534e-11
          8.892211883352643e-12 1.137150015350258e-11 1.0114821932313563e-11 2.7570709922084482e-11 2.245297522071291e-11 1.7966048199767682e-11
          1.3861392358435626e-10 1.1662084002558695e-10 9.386141745395935e-11 7.857327867429957e-11 2.1083445185379463e-10 1.7929173112419849e-10
          1.4022535017215607e-10 9.730317487215843e-11 8.04964999628867e-11 6.525375864711662e-11 5.3745443974974544e-11 1.5113562358561158e-10
          1.2626914783522063e-10 9.931872713861061e-11 6.217702575695953e-11 5.180361443176147e-11 9.112087030082052e-11 7.654977838576121e-11
          4.2870696537979146e-11 3.519839107812614e-11 2.7573534268284725e-11 2.2511377660112917e-11 6.380130443910326e-11 5.2743599795057034e-11
          4.0180598274360396e-11 1.709280246298069e-11 2.3430867429210203e-11 1.3484234881732132e-11 1.8671787462219117e-11 1.2013656036320363e-11
          1.6236586345927505e-11 1.2894935637623521e-11 3.9992786114331284e-11 3.2234677998430154e-11 2.7151067494543132e-11 1.0621786442011608e-11
          1.47977631021727e-11 7.421277018843419e-12 1.0187708968183805e-11 2.5771218970642592e-11 1.7377238542412647e-11 8.424596744685529e-12
          1.1042947499267483e-11 6.56607944747692e-12 8.693328754567942e-12 7.065237458458852e-12 8.91194633582023e-12 6.9578938504125016e-12
          1.8060309380511875e-11 1.440524328979058e-11 1.3169514413639674e-11 5.155142016885999e-12 6.847557910933472e-12 4.304409750554662e-12
          5.472480716357927e-12 1.1428172823999005e-11 8.259414430020378e-12 6.602322225778945e-11 5.368944069549832e-11 4.389904061637867e-11
          3.555974873672616e-11 1.0455036150320019e-10 8.57917336571823e-11 6.800424787542493e-11 4.328689898844786e-11 2.856858018715156e-11
          6.976882442037006e-11 4.4987350720046874e-11 2.862270142489236e-11 2.3074304266721226e-11 1.8192055632436823e-11 1.459485254957085e-11
          4.324881282151518e-11 3.5172432550526646e-11 2.6980730989552976e-11 1.846266565236963e-11 1.1632451062175755e-11 2.836786350149547e-11
          1.7551625817544955e-11 1.1814745856584047e-9 1.0486641483500558e-9 8.864297744840254e-10 7.80676777449604e-10 1.5277362345000217e-9
          1.3710582632922669e-9 1.158098762471041e-9 9.213060209394016e-10 8.007268156199335e-10 6.804604549065999e-10 5.867766554955022e-10
          1.2183934527287636e-9 1.0712713202167828e-9 9.085713388847583e-10 6.410770292838392e-10 5.599009324714849e-10 4.472709526518098e-10
          3.8739596842022737e-10 8.426786413589963e-10 7.43546148097336e-10 5.88558147442747e-10 4.840665114445981e-10 4.141778249306795e-10
          3.3228798486603036e-10 2.8221387501238873e-10 6.493209612636553e-10 5.610131337519435e-10 4.4536428970386803e-10 1.7029798364297633e-9
          1.5374052040414273e-9 1.319146142211034e-9 1.1816741588173644e-9 1.73342683051745e-9 1.5674777807984961e-9 1.3607018729294665e-9
          1.3751625314939237e-9 1.2173793925768994e-9 1.0478140304855367e-9 9.191420641936037e-10 1.4048822352810854e-9 1.2463927304744078e-9
          1.0848642189085895e-9 9.750862204073225e-10 8.654684961553556e-10 6.877550509023802e-10 6.045943377812986e-10 1.0155803945219108e-9
          9.03022270594824e-10 7.209602811306347e-10 7.602458862686209e-10 6.606561819506053e-10 5.261127988026077e-10 4.530776510977276e-10
          7.9466994867406e-10 6.918158831665608e-10 5.533754384053978e-10 6.881396683918554e-10 5.845745127241099e-10 5.004569579410625e-10
          4.221055075405216e-10 9.313210484349911e-10 8.001408748643227e-10 6.825885450256171e-10 4.907985861964718e-10 3.5206289355818893e-10
          6.791478681667932e-10 4.897793808225432e-10 3.50667929344741e-10 2.9377257572686165e-10 2.37308519825903e-10 1.975675191908028e-10
          4.794642967612326e-10 4.0528735281977194e-10 3.2352562736618904e-10 2.4352480442143416e-10 1.6285530723105176e-10 3.3883329404203965e-10
          2.2547419549729113e-10 1.065724266295874e-9 9.22004397779257e-10 7.972061167381994e-10 6.834280496328048e-10 1.0935989408278567e-9
          9.48311035116314e-10 8.286887878949928e-10 7.87957285659359e-10 5.789812255477813e-10 8.123148496933029e-10 6.04211619099296e-10
          5.677986916224554e-10 4.825512630853879e-10 3.8608702999187136e-10 3.255298808049927e-10 5.956290880460486e-10 5.070690079854131e-10
          4.0738777758731103e-10 4.0550870935844065e-10 2.715756204096532e-10 4.26810746787579e-10 2.873936365433198e-10 3.0180198463761903e-10
          2.59327821307289e-10 1.9768208544033788e-10 1.6859981373148588e-10 3.955374152186655e-10 3.427368520086399e-10 2.568836343290721e-10
          2.207909113130141e-10 1.8623363802880975e-10 1.4255849318298215e-10 1.1948361400436016e-10 2.9417155003070754e-10 2.5005851999143417e-10
          1.879981294346431e-10 1.2622704635704662e-10 1.069090482469641e-10 1.6208463293252786e-10 1.3820403983947004e-10 8.98156250808157e-11
          7.483026601206446e-11 5.5429114683499794e-11 4.5917054302010175e-11 1.1686106187054306e-10 9.797387733729472e-11 7.102170706546708e-11
          4.6414363922920854e-10 4.042169907382792e-10 3.012318783279297e-10 2.6004239033743144e-10 4.883362518082369e-10 4.2596140515075635e-10
          3.1734939997015937e-10 3.486293789245569e-10 2.977346707668695e-10 2.224474237916505e-10 1.8853303566056896e-10 3.6794607196851173e-10
          3.146933994881929e-10 2.35026871411763e-10 1.8920586850681858e-10 1.6200628550539602e-10 1.992253063990851e-10 1.7081943543197427e-10
          1.3753943283751572e-10 1.1575741326200224e-10 8.293070621884286e-11 6.93350527451814e-11 1.4521203344426267e-10 1.2236877554646936e-10
          8.738079168571697e-11 1.5561644043046576e-10 1.2881573711929975e-10 9.92590974367361e-11 8.172606995960556e-11 2.1050117057298471e-10
          1.75481815847643e-10 1.326873330467081e-10 1.0563404921316714e-10 6.669112331991228e-11 1.448708630732349e-10 9.02724264511694e-11
          6.18211093058213e-11 5.0640850072794006e-11 3.773332887967918e-11 3.07583203518086e-11 8.143199672071987e-11 6.709518884717822e-11
          4.888718539339024e-11 4.112899323904004e-11 2.4866134130656853e-11 5.479937504036902e-11 3.2550472757515327e-11 2.517536774272161e-10