<?xml version="1.0"?>
<VTKFile type="UnstructuredGrid" version="0.1" byte_order="LittleEndian" header_type="UInt32" compressor="vtkZLibDataCompressor">
  <UnstructuredGrid>
    <Piece NumberOfPoints="1307" NumberOfCells="880">
      <PointData>
        <DataArray type="Int32" Name="libmesh_node_id" format="ascii" RangeMin="1637" RangeMax="13195">
          1764 1772 1999 2007 2012 2015
          2017 2020 2021 2026 2029 2033
          2035 2037 2846 2863 2864 2867
          2869 2899 2901 2903 2912 2913
          2918 2924 2937 2942 2943 2944
          2945 2946 2947 2948 2949 2950
          2951 2952 2954 2958 2960 2962
          2975 2976 2979 2981 2983 2984
          2985 2986 2987 2988 2989 2990
          2991 2992 3296 3297 3298 3299
          3300 3301 3302 3319 3320 3323
          3334 3335 3338 3339 3341 3343
          4294 4340 4341 4344 4346 4551
          4553 4555 4569 4570 4573 4575
          4585 4587 4589 4599 4601 4603
          4637 4638 4639 4647 4648 4652
          4681 4682 4683 4685 4686 4715
          4716 4717 4719 4720 4753 4754
          4755 4758 4791 4792 4795 4803
          4804 4805 4806 4807 4808 4809
          4810 4811 4812 4813 4814 4815
          4816 4817 4818 4819 4820 4821
          4822 4823 4824 4825 4826 4827
          4828 4829 4830 4831 4832 4833
          4834 4835 4836 4837 4838 4839
          4840 4841 4842 4843 4844 4845
          4846 4847 4848 4849 4850 4851
          4852 4853 4854 4855 4856 4857
          4858 4859 4860 4861 4862 4863
          4864 4865 4866 4867 4868 4869
          4870 4871 4872 4873 4874 4875
          4876 4877 4878 4879 4880 4891
          4892 4893 4894 4895 4896 4897
          4898 4899 4900 4901 4902 4903
          4904 4905 4906 4907 4915 4916
          4917 4918 4919 4920 4921 4988
          4989 4992 4994 5004 5006 5008
          5010 5011 5012 5013 5014 5015
          5016 5017 5018 5019 5020 5021
          5022 5023 5024 5025 5026 5027
          5028 5029 5173 5174 5175 5176
          5177 5178 5179 5308 5309 5312
          5364 5365 5366 5367 5368 5369
          5370 5371 5372 5373 5374 5375
          5376 5377 5473 5474 5475 5476
          5477 5478 5479 5480 5481 5482
          5483 5484 5485 5486 5487 5488
          5489 5490 5491 5492 5493 5494
          5495 5496 5497 5498 5499 5500
          5508 5509 5510 5511 5512 5513
          5514 5515 5516 5517 10479 10495
          10496 10499 10501 10513 10525 10527
          10529 10611 10612 10615 10617 10637
          10639 10641 10652 10653 10656 10658
          10726 10738 10740 10742 10754 10766
          10768 10770 10836 10838 10840 10850
          10852 10854 10864 10866 10868 10878
          10880 10882 11218 11226 11227 11228
          11231 11234 11235 11236 11237 11238
          11240 11241 11252 11258 11259 11262
          11264 11265 11266 11268 11269 11472
          11478 11479 11482 11484 11485 11486
          11488 11489 11500 11506 11507 11510
          11512 11513 11514 11516 11517 11685
          11686 11687 11688 11689 11690 11691
          11692 11693 11694 11695 11696 11697
          11698 11699 11700 11701 11702 11703
          11704 11719 11720 11721 11722 11723
          11724 11725 11726 11727 11728 11729
          11730 11731 11732 11760 11761 11764
          11765 11767 11769 11930 11931 11932
          11933 11934 11935 11936 11937 11938
          11939 11940 11941 11942 11943 11958
          11959 11960 11961 11962 11963 11964
          11965 11966 11967 11968 11969 11970
          11971 11986 11988 11990 11992 12014
          12016 12018 12020 12032 12033 12034
          12037 12040 12041 12042 12043 12044
          12046 12047 12048 12049 12050 12051
          12052 12053 12054 12055 12056 12057
          12058 12059 12060 12061 12062 12063
          12064 12065 12066 12067 12070 12071
          12074 12076 12077 12078 12080 12081
          12082 12083 12084 12085 12086 12087
          12088 12089 12090 12091 12092 12093
          12094 12095 12096 12097 12098 12099
          12100 12101 12102 12103 12104 12105
          12106 12107 12108 12109 12110 12111
          12112 12113 12114 12115 12116 12117
          12118 12119 12120 12121 12122 12123
          12124 12125 12126 12127 12128 12129
          12130 12131 12132 12133 12134 12135
          12136 12137 12138 12139 12140 12141
          12142 12143 12144 12145 12146 12147
          12148 12149 12150 12151 12152 12153
          12154 12155 12156 12157 12158 12159
          12160 12161 12162 12163 12164 12165
          12166 12167 12168 12169 12170 12171
          12172 12173 12174 12175 12176 12177
          12178 12179 12180 12181 12182 12183
          12184 12185 12186 12187 12188 12189
          12190 12191 12192 12193 12194 12195
          12196 12197 12198 12199 12200 12201
          12202 12203 12204 12205 12206 12207
          12208 12209 12210 12211 12212 12213
          12214 12215 12216 12217 12218 12219
          12220 12221 12222 12223 12224 12225
          12226 12227 12228 12229 12230 12231
          12232 12233 12234 12235 12236 12237
          12238 12239 12240 12241 12242 12243
          12244 12245 12246 12247 12250 12251
          12254 12256 12257 12258 12260 12261
          12262 12263 12264 12265 12266 12267
          12268 12269 12270 12271 12272 12273
          12274 12275 12278 12279 12282 12284
          12285 12286 12288 12289 12290 12291
          12292 12293 12294 12295 12296 12297
          12298 12299 12300 12301 12302 12303
          12304 12305 12306 12307 12308 12309
          12310 12311 12312 12313 12314 12315
          12316 12317 12318 12319 12320 12321
          12322 12323 12324 12325 12326 12327
          12328 12329 12330 12331 12332 12333
          12334 12335 12336 12337 12338 12339
          12340 12341 12342 12343 12344 12345
          12346 12347 12348 12349 12350 12351
          12352 12353 12354 12355 12356 12357
          12358 12359 12360 12361 12362 12363
          12364 12365 12366 12367 12368 12369
          12370 12371 12372 12373 12374 12375
          12376 12377 12378 12379 12380 12381
          12382 12383 12384 12385 12386 12387
          12388 12389 12390 12391 12392 12393
          12394 12395 12396 12397 12398 12399
          12400 12401 12402 12403 12404 12405
          12406 12407 12408 12409 12410 12411
          12412 12413 12414 12415 12416 12417
          12418 12419 12420 12421 12422 12423
          12424 12425 12426 12427 12428 12429
          12430 12431 12432 12433 12434 12435
          12436 12437 12438 12439 12440 12441
          12442 12443 12444 12445 12446 12447
          12448 12449 12450 12451 12452 12453
          12454 12455 12456 12457 12458 12459
          12460 12461 12462 12463 12464 12465
          12466 12467 12468 12469 12470 12471
          12472 12473 12474 12475 12476 12477
          12478 12479 12480 12481 12482 12483
          12484 12485 12486 12487 12488 12489
          12490 12491 12492 12493 12494 12495
          12496 12497 12498 12499 12500 12501
          12502 12503 12504 12505 12506 12507
          12508 12509 12510 12511 12512 12513
          12514 12515 12516 12517 12518 12519
          12520 12521 12522 12523 12526 12527
          12529 12531 12542 12543 12544 12545
          12546 12547 12548 12549 12551 12552
          12553 12554 12555 12556 12557 12558
          12559 12560 12561 12562 12563 12564
          12565 12566 12567 12568 12569 12570
          12571 12572 12573 12574 12575 12576
          12577 12578 12579 12580 12581 12582
          12583 12584 12585 12586 12587 12588
          12589 12590 12591 12592 12593 12594
          12595 12596 12597 12598 12599 12600
          12601 12602 12603 12604 12605 12606
          12607 12608 12609 12610 12611 12612
          12613 12614 12615 12616 12617 12618
          12620 12622 12624 12632 12634 12636
          12638 12649 12651 12653 12655 12663
          12665 12667 12669 12677 12678 12679
          12680 12681 12682 12683 12684 12685
          12686 12687 12688 12689 12690 12691
          12692 12693 12694 12695 12696 12697
          12698 12699 12700 12701 12702 12703
          12704 12705 12706 12707 12708 12709
          12710 12711 12712 12713 12714 12715
          12716 12717 12718 12719 12720 12721
          12722 12723 12724 12725 12726 12727
          12728 12729 12730 12731 12732 12733
          12734 12735 12736 12737 12738 12739
          12740 12741 12742 12744 12745 12747
          12749 12751 13026 13098 13100 13102
          13122 13124 13126 13145 13146 13147
          13148 13149 13150 13151 13152 13153
          13154 13155 13156 13157 13158 13159
          13160 13161 13162 13163 13164 13165
          13166 13167 13168 13169 13170 13171
          13172 13173 13174 13175 13176 13177
          13178 13179 13180 13181 13182 13183
          13184 13185 13186 13187 13188 13189
          13190 13191 13192 13193 13194 13195
          2011 1767 2030 2028 2013 2031
          2032 1769 2024 1770 2034 1774
          2036 1637 2224 2231 2236 2227
          1994 2005 2914 3293 3303 3294
          3304 3307 3308 2953 2957 3336
          2959 3337 3340 1773 3342 4751
          4759 4763 2936 4752 4760 4764
          4881 4882 4885 4886 4922 4926
          4923 4927 4929 4931 5113 3105
          5117 3108 5313 5314 5317 5318
          4890 4646 5460 5464 4649 4651
          4749 5462 5465 5463 11669 11670
          11671 11674 4750 11679 11680 11681
          11684 11707 11708 11711 4756 11714
          11715 11718 4757 11742 11745 11762
          11746 11763 11766 11749 4766 11768
          4768 11918 11919 11922 4789 11925
          11926 11929 4790 11946 11947 11950
          4793 11953 11954 11957 4794 11974
          11975 11987 11989 11978 4796 11991
          4798 12002 12003 12015 12017 12006
          4800 12019 4802 12524 12525 12528
          12530 4888 12550 12619 12621 12623
          4908 12633 12635 12637 4910 12650
          12652 12654 4912 12664 12666 12668
          4914 12743 12746 12748 12750
        </DataArray>
        <DataArray type="Float64" Name="bounds" format="ascii" RangeMin="0" RangeMax="0">
          0 0 0 0 0 0
          0 0 0 0 0 0
          0 0 0 0 0 0
          0 0 0 0 0 0
          0 0 0 0 0 0
          0 0 0 0 0 0
          0 0 0 0 0 0
          0 0 0 0 0 0
          0 0 0 0 0 0
          0 0 0 0 0 0
          0 0 0 0 0 0
          0 0 0 0 0 0
          0 0 0 0 0 0
          0 0 0 0 0 0
          0 0 0 0 0 0
          0 0 0 0 0 0
          0 0 0 0 0 0
          0 0 0 0 0 0
          0 0 0 0 0 0
          0 0 0 0 0 0
          0 0 0 0 0 0
          0 0 0 0 0 0
          0 0 0 0 0 0
          0 0 0 0 0 0
          0 0 0 0 0 0
          0 0 0 0 0 0
          0 0 0 0 0 0
          0 0 0 0 0 0
          0 0 0 0 0 0
          0 0 0 0 0 0
          0 0 0 0 0 0
          0 0 0 0 0 0
          0 0 0 0 0 0
          0 0 0 0 0 0
          0 0 0 0 0 0
          0 0 0 0 0 0
          0 0 0 0 0 0
          0 0 0 0 0 0
          0 0 0 0 0 0
          0 0 0 0 0 0
          0 0 0 0 0 0
          0 0 0 0 0 0
          0 0 0 0 0 0
          0 0 0 0 0 0
          0 0 0 0 0 0
          0 0 0 0 0 0
          0 0 0 0 0 0
          0 0 0 0 0 0
          0 0 0 0 0 0
          0 0 0 0 0 0
          0 0 0 0 0 0
          0 0 0 0 0 0
          0 0 0 0 0 0
          0 0 0 0 0 0
          0 0 0 0 0 0
          0 0 0 0 0 0
          0 0 0 0 0 0
          0 0 0 0 0 0
          0 0 0 0 0 0
          0 0 0 0 0 0
          0 0 0 0 0 0
          0 0 0 0 0 0
          0 0 0 0 0 0
          0 0 0 0 0 0
          0 0 0 0 0 0
          0 0 0 0 0 0
          0 0 0 0 0 0
          0 0 0 0 0 0
          0 0 0 0 0 0
          0 0 0 0 0 0
          0 0 0 0 0 0
          0 0 0 0 0 0
          0 0 0 0 0 0
          0 0 0 0 0 0
          0 0 0 0 0 0
          0 0 0 0 0 0
          0 0 0 0 0 0
          0 0 0 0 0 0
          0 0 0 0 0 0
          0 0 0 0 0 0
          0 0 0 0 0 0
          0 0 0 0 0 0
          0 0 0 0 0 0
          0 0 0 0 0 0
          0 0 0 0 0 0
          0 0 0 0 0 0
          0 0 0 0 0 0
          0 0 0 0 0 0
          0 0 0 0 0 0
          0 0 0 0 0 0
          0 0 0 0 0 0
          0 0 0 0 0 0
          0 0 0 0 0 0
          0 0 0 0 0 0
          0 0 0 0 0 0
          0 0 0 0 0 0
          0 0 0 0 0 0
          0 0 0 0 0 0
          0 0 0 0 0 0
          0 0 0 0 0 0
          0 0 0 0 0 0
          0 0 0 0 0 0
          0 0 0 0 0 0
          0 0 0 0 0 0
          0 0 0 0 0 0
          0 0 0 0 0 0
          0 0 0 0 0 0
          0 0 0 0 0 0
          0 0 0 0 0 0
          0 0 0 0 0 0
          0 0 0 0 0 0
          0 0 0 0 0 0
          0 0 0 0 0 0
          0 0 0 0 0 0
          0 0 0 0 0 0
          0 0 0 0 0 0
          0 0 0 0 0 0
          0 0 0 0 0 0
          0 0 0 0 0 0
          0 0 0 0 0 0
          0 0 0 0 0 0
          0 0 0 0 0 0
          0 0 0 0 0 0
          0 0 0 0 0 0
          0 0 0 0 0 0
          0 0 0 0 0 0
          0 0 0 0 0 0
          0 0 0 0 0 0
          0 0 0 0 0 0
          0 0 0 0 0 0
          0 0 0 0 0 0
          0 0 0 0 0 0
          0 0 0 0 0 0
          0 0 0 0 0 0
          0 0 0 0 0 0
          0 0 0 0 0 0
          0 0 0 0 0 0
          0 0 0 0 0 0
          0 0 0 0 0 0
          0 0 0 0 0 0
          0 0 0 0 0 0
          0 0 0 0 0 0
          0 0 0 0 0 0
          0 0 0 0 0 0
          0 0 0 0 0 0
          0 0 0 0 0 0
          0 0 0 0 0 0
          0 0 0 0 0 0
          0 0 0 0 0 0
          0 0 0 0 0 0
          0 0 0 0 0 0
          0 0 0 0 0 0
          0 0 0 0 0 0
          0 0 0 0 0 0
          0 0 0 0 0 0
          0 0 0 0 0 0
          0 0 0 0 0 0
          0 0 0 0 0 0
          0 0 0 0 0 0
          0 0 0 0 0 0
          0 0 0 0 0 0
          0 0 0 0 0 0
          0 0 0 0 0 0
          0 0 0 0 0 0
          0 0 0 0 0 0
          0 0 0 0 0 0
          0 0 0 0 0 0
          0 0 0 0 0 0
          0 0 0 0 0 0
          0 0 0 0 0 0
          0 0 0 0 0 0
          0 0 0 0 0 0
          0 0 0 0 0 0
          0 0 0 0 0 0
          0 0 0 0 0 0
          0 0 0 0 0 0
          0 0 0 0 0 0
          0 0 0 0 0 0
          0 0 0 0 0 0
          0 0 0 0 0 0
          0 0 0 0 0 0
          0 0 0 0 0 0
          0 0 0 0 0 0
          0 0 0 0 0 0
          0 0 0 0 0 0
          0 0 0 0 0 0
          0 0 0 0 0 0
          0 0 0 0 0 0
          0 0 0 0 0 0
          0 0 0 0 0 0
          0 0 0 0 0 0
          0 0 0 0 0 0
          0 0 0 0 0 0
          0 0 0 0 0 0
          0 0 0 0 0 0
          0 0 0 0 0 0
          0 0 0 0 0 0
          0 0 0 0 0 0
          0 0 0 0 0 0
          0 0 0 0 0 0
          0 0 0 0 0 0
          0 0 0 0 0 0
          0 0 0 0 0 0
          0 0 0 0 0 0
          0 0 0 0 0 0
          0 0 0 0 0 0
          0 0 0 0 0 0
          0 0 0 0 0 0
          0 0 0 0 0 0
          0 0 0 0 0 0
          0 0 0 0 0 0
          0 0 0 0 0 0
          0 0 0 0 0 0
          0 0 0 0 0 0
          0 0 0 0 0 0
          0 0 0 0 0 0
          0 0 0 0 0 0
          0 0 0 0 0
        </DataArray>
        <DataArray type="Float64" Name="gradient_error" format="ascii" RangeMin="5.0780592334727875e-14" RangeMax="8.178741753699023e-11">
          5.0750031845916515e-12 4.393513948772456e-12 3.362863186065331e-12 5.617251178667831e-13 7.317540391855217e-13 1.3083803476736754e-11
          8.800264007801846e-13 3.0542214023122637e-12 2.8962233192312e-12 2.2828379340932244e-12 7.652265515359609e-13 1.0385072150676532e-12
          1.151778945854303e-12 1.290290118425261e-12 5.130602109204977e-12 3.948939498175582e-12 2.618650702971871e-12 2.312974809050892e-12
          2.9510184926040574e-12 1.1227523382503093e-11 2.031695142146478e-12 3.563324899922198e-11 2.2213282752850243e-12 1.5039440611789216e-12
          1.6565032928186477e-12 3.590857213199259e-12 7.65676331273669e-13 2.8988336382146584e-12 1.2217049771291245e-12 3.25035838219081e-12
          7.410492255051012e-13 8.026669012939527e-13 1.2070374984955322e-12 7.780967039111465e-13 6.737318536082576e-13 1.078651495283337e-11
          2.7655342581829434e-12 1.2737282074182658e-12 2.742694457072349e-13 4.553376752967295e-13 5.983574677903533e-13 4.4012856374377863e-13
          2.9864905369420582e-12 3.2738035609561684e-12 2.9090199758433733e-12 2.702670582697202e-12 9.686402262888784e-13 1.5421236364732849e-12
          4.871688910848629e-13 5.904064347236381e-13 1.0384253339829241e-12 2.2459225269997746e-12 7.492123124449218e-13 2.2793075428885232e-12
          6.963739474446905e-13 2.9562249199961734e-12 1.2543375969681853e-12 1.0726038643724197e-12 3.9542443266699137e-13 5.698717109821665e-13
          6.001370887905629e-13 9.690527806480326e-13 6.716117689299589e-13 8.973663720324558e-13 2.0545625504331796e-12 1.0956116107558191e-12
          3.71959897604732e-13 3.5295881958261006e-13 1.4386344210548275e-13 2.0311805547503018e-13 3.4230436458319264e-13 2.623726688445776e-13
          2.748928084020681e-12 1.9247631264107086e-12 3.4098447091915617e-12 2.9640463915657446e-12 3.709841426250504e-12 7.012734579625723e-12
          3.487683381804734e-12 2.4794026453169435e-11 2.669443541966676e-12 2.5792997839606808e-12 2.5773721453345705e-12 4.548173513907599e-12
          6.283329118388062e-11 2.6857315712941767e-11 8.178741753699023e-11 1.0066295755588128e-11 3.391568176171616e-12 1.3300295047001654e-11
          1.5154978497797607e-12 2.222932456343987e-12 1.4677020340585188e-12 3.9666301333951756e-13 1.0559703509177183e-12 1.1287011617517011e-12
          1.3885260359797164e-12 1.7884406706834791e-12 8.646831921546595e-13 6.164685315521649e-12 7.304469128829466e-12 1.7760160069947795e-11
          2.0282932527116046e-11 1.0102118531255482e-11 2.176617173662426e-11 2.602751933042918e-11 3.522252860560341e-13 4.773480353547361e-13
          3.5862985370007377e-13 1.6933808508655563e-12 4.818200586561625e-12 2.20059011925235e-12 6.294855643619003e-12 2.726440987110613e-12
          3.784119978236387e-12 1.4251236341947555e-12 1.9675658653339716e-12 1.5666678237959911e-12 1.8731430380227543e-12 1.1606742283618645e-12
          1.3683643378372144e-11 7.261830174614187e-12 6.1584281731686005e-12 7.075995984481671e-13 9.847049448430294e-13 4.4801628483631785e-13
          5.625826335013144e-13 8.427151911860495e-13 7.874269911215982e-13 4.806293160497531e-13 3.704165256861894e-12 1.8145339583641539e-12
          1.6486617766861206e-12 1.430896818085873e-12 1.3913025768508566e-12 1.1267520465291627e-12 9.290465702381082e-13 1.567191781198583e-12
          1.8388817828511922e-12 9.574092474328866e-13 2.4727546672214175e-12 1.2950890582411838e-12 1.4892247972666002e-12 1.1071523395778546e-12
          8.407210803548616e-13 5.497499952416125e-13 5.657145900377441e-13 5.091178683796313e-13 6.273335479335798e-13 5.627589592749842e-13
          7.806423323460303e-13 5.155930323536322e-13 6.480868938436749e-13 3.535998814893882e-11 1.9078193267955376e-11 1.498749480650185e-11
          8.030963834728466e-12 4.641182117388387e-11 2.5229500625617062e-11 2.0013304995030815e-11 9.868471136001047e-12 4.893116001603136e-12
          4.130474601929273e-12 2.03856587541429e-12 1.3140181457648773e-11 6.5569164966709905e-12 5.577014520824707e-12 5.567495094654301e-12
          2.962291977188721e-12 1.851349302040822e-12 9.721546920231788e-13 7.399556146733983e-12 3.9581203375589474e-12 2.412401028273233e-12
          1.5124303731206958e-12 7.397024239091877e-13 7.821169388171274e-13 6.982341978040782e-13 2.0311789568317485e-12 9.98097088200019e-13
          1.0024942766459997e-12 4.037187710897754e-13 4.4482829858268283e-13 3.526935494535682e-13 2.94445539293006e-13 3.9894021923409623e-13
          4.10686739104039e-13 2.758500050257545e-13 8.52370020836678e-13 3.8378402797934963e-13 4.4302909617694344e-13 2.609542378978216e-13
          3.483898597528388e-13 1.264339364281689e-13 2.478407301031948e-13 1.8269383790487643e-13 3.1941576968463654e-13 1.48828388566757e-13
          3.990276986804266e-13 3.4975926139455873e-13 4.2513425272300714e-13 2.3251867739648237e-12 1.0588323252955232e-12 9.639497101078068e-13
          4.360041083584033e-13 3.134397555153522e-12 1.43522120979838e-12 1.315242476814893e-12 4.179944872423086e-13 3.283419168591136e-13
          4.171491413286185e-13 4.034302680736052e-13 4.712832258762048e-13 3.272365272094709e-13 4.2076686927422197e-13 1.4516880470740826e-12
          1.7302243573468326e-12 1.3904582344677662e-12 2.2065872601932245e-12 2.2394005925020394e-12 2.5711618882209832e-12 2.1207522992810717e-12
          1.6484769436062862e-12 1.6610314800483767e-12 8.679063392022825e-13 8.662735625833395e-13 1.5794745521075267e-12 2.600119321582626e-12
          1.3581192423276707e-12 1.995704774193076e-12 1.0421165442630004e-12 3.067809459783213e-12 5.536307367780677e-13 7.524540692931937e-13
          4.829553378275242e-13 7.152777102043716e-13 4.2720529492340827e-13 6.538317501491272e-13 3.356748492331399e-13 9.083406592382084e-13
          8.68774420764308e-13 7.581776227513631e-13 3.2607737109088176e-13 6.720035821868504e-13 2.1218472254268209e-13 3.316366334440848e-13
          2.657449187101279e-13 4.0348772633630036e-13 2.3838030747443296e-13 8.61636764390098e-13 1.6450374728090914e-12 1.0909211359607595e-12
          8.127522163809933e-13 1.4013732845483013e-12 4.609269376259899e-13 7.581553630136743e-13 5.084360540422623e-13 7.674779874376385e-13
          4.3294117880281145e-13 2.458908489687745e-13 3.799642143541681e-13 1.7482779710405927e-13 2.5006590564888074e-13 1.698876682016927e-13
          2.37406190250809e-13 1.7522510279624508e-13 1.0297063884410157e-12 2.6124743092845076e-12 5.952678115023525e-13 1.400084778810258e-12
          7.430205780351227e-13 1.5988576252399546e-12 9.913078397351136e-13 3.272614480582464e-13 7.104738764604121e-13 1.7794384076025364e-13
          3.51288416403649e-13 2.9670739334326384e-13 5.470459256246019e-13 2.614400472451867e-13 4.943842204071051e-13 8.874468984377865e-13
          3.7505234755634686e-13 6.10302957422523e-13 3.853197801441982e-13 6.079700923740904e-13 4.4238621484579287e-13 9.827807237268304e-14
          1.6372554168947848e-13 7.34243821439771e-14 1.0616193006432406e-13 8.833669037271443e-14 1.2537383775051927e-13 8.961556485336968e-14
          2.8210556184631695e-13 3.6075659291935004e-13 1.8170376455582496e-13 2.2906087840847883e-13 1.7771911252016456e-13 2.017828406907286e-13
          1.4821031102475706e-13 4.394076239923832e-13 2.7641799226113276e-13 2.2584656886129268e-13 3.593908293437231e-12 1.7638383977977728e-12
          2.609126421405874e-12 1.8483424077608306e-12 5.014977197167645e-12 1.3419332937137198e-11 9.384939800323167e-12 6.380012412156077e-12
          1.6935190355788874e-11 9.034364681043298e-13 1.268831283944753e-12 1.0194345980097288e-12 2.349531446035112e-12 4.226957412404603e-12
          2.7188799638711995e-12 7.238170063168915e-12 1.2699329402896086e-12 1.7084231562094897e-12 1.1652746455839842e-12 2.8010563494427227e-12
          4.242351560698091e-11 2.8429532475503234e-11 1.8446720111611168e-11 4.181893867490936e-11 7.730732415105538e-11 5.17954278632698e-11
          3.3345225100254894e-11 5.513600226747461e-11 1.1617704098600125e-11 7.121494091525856e-12 1.6689490047916594e-11 4.269599979100127e-12
          2.488604160498451e-12 5.910393674014832e-12 2.06921374847321e-11 1.2420569603492221e-11 2.2153440977017586e-11 7.240139974802761e-12
          4.116797918956486e-12 7.74349323302004e-12 6.369796757975115e-13 7.825107709601063e-13 1.2164835780107506e-12 8.51441999793117e-13
          2.533954488386782e-12 3.264991082998038e-13 5.1812324086125e-13 3.7645240471991625e-13 5.923067100892194e-13 4.093173549403202e-13
          1.1140165937943042e-12 1.2499187240345274e-12 2.976738007293087e-12 5.1860984969917584e-12 3.676916886335687e-12 1.0260435716803796e-11
          2.3515924291794313e-12 2.5815782828087447e-12 1.795289814360906e-12 4.7916406231204986e-12 5.147617151993369e-12 1.1556251592938942e-11
          1.857811188371403e-11 1.3277635831915682e-11 2.827675469673713e-11 8.884840731305935e-12 9.389764526989255e-12 6.570391673149924e-12
          1.3671144424354428e-11 1.439206835482449e-11 2.1224867727479206e-11 3.4535912248591565e-11 2.4854669591302833e-11 3.6108411839800686e-11
          1.6618441742724116e-11 1.7691856583416326e-11 1.2456072156975608e-11 1.7265893897303204e-11 1.8555351340182392e-11 2.2616315481160647e-13
          3.5410921656244357e-13 1.594574461773978e-13 2.39238067741899e-13 1.864212975584479e-13 2.784128679153658e-13 2.0516530731841773e-13
          7.642127327167631e-13 5.167279015158819e-13 5.914977034005752e-13 1.1513488210915785e-13 1.5981301598271205e-13 9.828914956583965e-14
          1.2809825111998296e-13 1.0922271605581242e-13 1.4169097247991334e-13 1.1562593499328755e-13 3.441230235768718e-13 2.6762391043717837e-13
          3.0567745926474836e-13 1.6210902898517463e-12 1.1065158467253527e-12 1.2387298188949222e-12 8.454396176766635e-13 3.310023435090449e-12
          2.262865431942068e-12 2.4788355650387896e-12 7.477992795726387e-13 4.991561204546362e-13 5.68663285486884e-13 3.780349881485735e-13
          1.5306486964048715e-12 1.024344888022742e-12 1.1448179939955806e-12 2.0953199791221205e-13 3.2810103503699175e-13 1.5950479720370437e-13
          2.4835238616905444e-13 6.782642475078017e-13 5.065394447749644e-13 6.155677580022619e-12 4.21941949115302e-12 4.5490918021785544e-12
          3.116305978733254e-12 9.50166047766778e-12 6.532088418035533e-12 7.014548146622468e-12 2.8613575669601878e-12 1.9196398525853873e-12
          2.1121438855495866e-12 1.4163708598615827e-12 4.441851359646751e-12 2.9876797140685468e-12 3.2739061480912274e-12 1.1590832658410008e-11
          7.99549533582007e-12 8.674407219064833e-12 5.975221076269171e-12 1.2065463043932047e-11 8.338516533716322e-12 9.125099288425239e-12
          5.4549443245869265e-12 3.6808885228305674e-12 4.071223574475756e-12 2.7437957903018216e-12 5.6994473328387855e-12 3.852837598239899e-12
          4.295176632405723e-12 1.2740420636354056e-12 9.396295212813292e-13 1.9877242030104163e-12 1.4631903662107833e-12 2.4565753917714078e-12
          1.829067121728092e-12 2.575928081938962e-12 1.9351336391817512e-12 1.7526345687940217e-12 2.6284291102529552e-12 1.9051972782153735e-12
          5.1746747179801944e-12 8.543197729487978e-13 1.3148911766866252e-12 9.021895178285436e-13 1.3724289474675912e-12 9.815743040388696e-13
          2.685180812900251e-12 2.7415735093210944e-12 1.2842567055094877e-12 1.9108085226141005e-12 9.333336665217048e-13 1.3899244939048627e-12
          9.233527730148094e-13 1.3546604337015507e-12 9.874691139839632e-13 3.696927394808189e-12 2.7014169156975283e-12 2.5674943850231225e-12
          6.829337780469434e-13 1.0058752786787295e-12 4.981620557319036e-13 7.1862804838847e-13 5.065828690188388e-13 7.130047396719029e-13
          5.614481076573963e-13 1.9576143304952284e-12 1.4012005938743015e-12 1.352562833647629e-12 9.959448131600692e-12 7.323228299711378e-12
          1.850926013297286e-11 5.3639087204010955e-12 5.334088814453852e-12 3.848219549644013e-12 1.0351793506308257e-11 1.0017597138765238e-11
          6.956576051455594e-12 5.11022541273464e-12 4.722018140313931e-12 3.4645377122538564e-12 1.2623078308242065e-11 9.31910269917071e-12
          8.354577211528424e-12 3.721628882213285e-12 2.6843618115141032e-12 2.5226389588958138e-12 1.8173131967260877e-12 6.813253333912726e-12
          4.932468376160662e-12 4.495781101341745e-12 6.008587373735386e-13 9.303002108258784e-13 4.214954231702077e-13 6.529371957885708e-13
          4.557183103207906e-13 6.945151826041092e-13 4.870121381501213e-13 1.911782613794401e-12 1.3482973122169737e-12 1.3988857340028099e-12
          2.963699290183756e-13 4.543319654790238e-13 2.1055086047600384e-13 3.122141052403928e-13 2.294795360670497e-13 3.366736788618102e-13
          2.5346412142378703e-13 9.421857359576822e-13 6.493552258311214e-13 6.858976564687998e-13 3.5133079192668676e-13 5.035499546608244e-13
          2.439281849699932e-13 3.4970836019897745e-13 3.100509826527508e-13 4.175935527120856e-13 2.878458563372299e-13 9.89518604106503e-13
          6.930276652409591e-13 7.792277332979807e-13 1.752728140167727e-13 2.414529593800381e-13 1.5103374071440483e-13 1.9770300130962014e-13
          1.5260668714473653e-13 2.0048541703998232e-13 1.6777393408551233e-13 4.80488531890057e-13 3.8340577970703655e-13 3.77764495594944e-13
          3.837042668280355e-12 2.7190577277675826e-12 2.749974434557665e-12 1.9471448675149987e-12 7.437728215053263e-12 5.290717897223075e-12
          5.212241292954248e-12 1.909703914213333e-12 1.3283220491486378e-12 1.3682967890460213e-12 9.513315254521915e-13 3.7255456361886836e-12
          2.596737523802105e-12 2.60580187916128e-12 1.9147009778054336e-12 1.3525416920336067e-12 1.2916760426831401e-12 9.0963925462817e-13
          3.536031083218119e-12 2.509970946477711e-12 2.3267884499278155e-12 9.484347013364532e-13 6.575998002906141e-13 6.354378916057783e-13
          4.393341698288195e-13 1.7636593031805157e-12 1.2268514226855099e-12 1.1564172991948872e-12 6.60996176008395e-13 9.289645801129923e-13
          4.846712490498618e-13 6.767607312284883e-13 5.59171349812575e-13 7.459955162967468e-13 5.441506572434661e-13 1.7254509406142143e-12
          1.2579427834096427e-12 1.2845444933033716e-12 3.6075875140239047e-13 4.865191104144516e-13 3.1500894578728954e-13 4.0709673149551066e-13
          3.010470845227335e-13 3.937987175111647e-13 3.3530112707685977e-13 9.045341307469974e-13 7.37467043466799e-13 6.768166625375397e-13
          3.12140041719828e-12 2.2865375815898675e-12 2.0017829828673573e-12 1.4630116426100399e-12 5.375467792318748e-12 3.9552028969778666e-12
          3.369205938846076e-12 1.6613486804084896e-12 1.193168765055253e-12 1.060131376123087e-12 7.604342714483433e-13 2.882646013404986e-12
          2.0812925496780423e-12 1.7982546602004928e-12 9.267727009419782e-13 1.2479505738674121e-12 6.731357554606312e-13 9.062075377113065e-13