<?xml version="1.0"?>
<VTKFile type="UnstructuredGrid" version="0.1" byte_order="LittleEndian" header_type="UInt32" compressor="vtkZLibDataCompressor">
  <UnstructuredGrid>
    <Piece NumberOfPoints="1256" NumberOfCells="869">
      <PointData>
        <DataArray type="Int32" Name="libmesh_node_id" format="ascii" RangeMin="1764" RangeMax="13144">
          1998 2003 2853 2854 2859 2861
          2862 2865 2866 2868 2870 2892
          2894 2896 2898 2900 2902 2904
          2966 2971 2973 2974 2977 2978
          2980 2982 3317 3318 3321 3322
          4292 4293 4297 4310 4311 4314
          4316 4328 4329 4330 4331 4332
          4333 4334 4335 4336 4337 4338
          4339 4342 4343 4345 4347 4445
          4449 4479 4483 4492 4494 4496
          4507 4508 4511 4513 4523 4525
          4527 4537 4539 4541 4543 4544
          4545 4546 4547 4548 4549 4550
          4552 4554 4556 4557 4558 4559
          4560 4561 4562 4563 4564 4565
          4566 4567 4568 4571 4572 4574
          4576 4577 4578 4579 4580 4581
          4582 4583 4584 4586 4588 4590
          4591 4592 4593 4594 4595 4596
          4597 4598 4600 4602 4604 4944
          4945 4950 4960 4962 4964 4976
          4977 4978 4979 4980 4981 4982
          4983 4984 4985 4986 4987 4990
          4991 4993 4995 4996 4997 4998
          4999 5000 5001 5002 5003 5005
          5007 5009 5163 5164 5165 5166
          5167 5168 5169 5170 5171 5172
          5294 5295 5298 5299 5300 5301
          5302 5303 5304 5305 5306 5307
          5310 5311 5344 5345 5346 5347
          5348 5349 5350 5351 5352 5353
          5354 5355 5356 5357 5358 5359
          5360 5361 5362 5363 8775 8776
          8777 8778 8779 8780 8781 8782
          8783 8784 8785 8786 8789 8790
          8792 8794 8847 8848 8851 8853
          8867 8868 8871 8873 8895 8896
          8897 8898 8899 8900 8901 8902
          8903 8904 8905 8906 8907 8908
          8909 8910 8911 8912 8913 8914
          8915 8916 8917 8918 8919 8920
          8921 8922 8923 8924 8925 8926
          8927 8928 8929 8930 8931 8932
          8933 8934 8935 8936 8937 8938
          8939 8940 8941 8942 8943 8944
          8945 8946 8947 8948 8949 8950
          8951 8952 8954 9657 9658 9659
          9660 9661 9662 9663 9664 9666
          9668 9670 9685 9686 9687 9688
          9689 9690 9691 9692 9694 9696
          9698 9905 9906 9907 9908 9909
          9910 9911 9912 9914 9916 9918
          9933 9934 9935 9936 9937 9938
          9939 9940 9942 9944 9946 10011
          10013 10015 10025 10027 10029 10039
          10041 10043 10053 10055 10057 10133
          10134 10137 10139 10153 10154 10157
          10159 10169 10171 10173 10183 10185
          10187 10253 10255 10257 10267 10269
          10271 10281 10283 10285 10295 10297
          10299 10365 10367 10369 10379 10381
          10383 10393 10395 10397 10407 10409
          10411 10413 10414 10415 10416 10417
          10418 10419 10420 10421 10422 10423
          10424 10425 10426 10427 10428 10429
          10430 10431 10432 10433 10434 10435
          10436 10437 10438 10439 10440 10441
          10442 10443 10444 10445 10446 10447
          10448 10449 10450 10451 10452 10453
          10454 10455 10456 10457 10458 10459
          10460 10461 10462 10463 10464 10465
          10466 10467 10468 10469 10470 10471
          10472 10473 10474 10475 10476 10478
          10480 10482 10483 10484 10485 10486
          10487 10488 10489 10490 10491 10492
          10493 10494 10497 10498 10500 10502
          10503 10504 10505 10506 10507 10508
          10509 10510 10512 10514 10516 10517
          10518 10519 10520 10521 10522 10523
          10524 10526 10528 10530 10531 10532
          10533 10534 10535 10536 10537 10538
          10539 10540 10541 10542 10543 10544
          10545 10546 10547 10548 10549 10550
          10551 10552 10553 10554 10555 10556
          10557 10558 10559 10560 10561 10562
          10563 10564 10565 10566 10567 10568
          10569 10570 10571 10572 10573 10574
          10575 10576 10577 10578 10579 10580
          10581 10582 10583 10584 10585 10586
          10587 10588 10589 10590 10591 10592
          10593 10594 10595 10596 10597 10598
          10599 10600 10601 10602 10603 10604
          10605 10606 10607 10608 10609 10610
          10613 10614 10616 10618 10619 10620
          10621 10622 10623 10624 10625 10626
          10627 10628 10629 10630 10631 10632
          10633 10634 10635 10636 10638 10640
          10642 10643 10644 10645 10646 10647
          10648 10649 10650 10651 10654 10655
          10657 10659 10660 10661 10662 10663
          10664 10665 10666 10667 10668 10669
          10670 10671 10672 10673 10674 10675
          10676 10677 10678 10679 10680 10681
          10682 10683 10684 10685 10686 10687
          10688 10689 10690 10691 10692 10693
          10694 10695 10696 10697 10698 10699
          10700 10701 10702 10703 10704 10705
          10706 10707 10708 10709 10710 10711
          10712 10713 10714 10715 10716 10717
          10718 10719 10720 10721 10722 10723
          10725 10727 10729 10730 10731 10732
          10733 10734 10735 10736 10737 10739
          10741 10743 10744 10745 10746 10747
          10748 10749 10750 10751 10753 10755
          10757 10758 10759 10760 10761 10762
          10763 10764 10765 10767 10769 10771
          10772 10773 10774 10775 10776 10777
          10778 10779 10780 10781 10782 10783
          10784 10785 10786 10787 10788 10789
          10790 10791 10792 10793 10794 10795
          10796 10797 10798 10799 10800 10801
          10802 10803 10804 10805 10806 10807
          10808 10809 10810 10811 10812 10813
          10814 10815 10816 10817 10818 10819
          10820 10821 10822 10823 10824 10825
          10826 10827 10828 10829 10830 10831
          10832 10833 10834 10835 10837 10839
          10841 10842 10843 10844 10845 10846
          10847 10848 10849 10851 10853 10855
          10856 10857 10858 10859 10860 10861
          10862 10863 10865 10867 10869 10870
          10871 10872 10873 10874 10875 10876
          10877 10879 10881 10883 12828 12829
          12832 12834 12854 12920 12922 12924
          12934 12936 12938 12948 12950 12952
          12962 12964 12966 12988 12989 12990
          12991 12992 12993 12994 12995 12996
          12997 12998 12999 13000 13001 13002
          13003 13004 13005 13006 13007 13008
          13009 13010 13011 13012 13013 13014
          13015 13016 13017 13018 13019 13020
          13021 13022 13023 13024 13025 13027
          13028 13029 13030 13031 13032 13033
          13034 13035 13036 13037 13038 13039
          13040 13041 13042 13043 13044 13045
          13046 13047 13048 13049 13050 13051
          13052 13053 13054 13055 13056 13057
          13058 13059 13060 13061 13062 13063
          13064 13065 13066 13067 13068 13069
          13070 13071 13072 13073 13074 13075
          13076 13077 13078 13079 13080 13081
          13082 13083 13084 13085 13086 13087
          13088 13089 13090 13091 13092 13093
          13094 13095 13096 13097 13099 13101
          13103 13104 13105 13106 13107 13108
          13109 13110 13111 13112 13113 13114
          13115 13116 13117 13118 13119 13120
          13121 13123 13125 13127 13128 13129
          13130 13131 13132 13133 13134 13135
          13136 13137 13138 13139 13140 13141
          13142 13143 13144 2018 2020 1769
          2022 2019 2021 2024 2023 2221
          2224 2227 2226 1991 1994 1764
          1997 2844 2832 2845 2863 2846
          2864 2857 2867 2965 2969 2975
          2976 2979 3105 3103 3108 3107
          3160 3158 2027 1774 3165 3164
          3312 3313 3319 3320 3316 3323
          1999 4280 4288 4281 4289 4284
          4290 4291 4294 4282 4246 4283
          4340 4341 4344 4346 2869 4569
          4570 4573 4948 4988 4989 4992
          4994 5004 5006 3326 3327 3330
          2025 3332 2026 5308 5309 5312
          5335 5338 5340 5342 2981 8759
          8747 8731 8760 8748 8761 8751
          4286 8764 8753 4295 2850 8769
          8770 8787 8771 8788 8791 8774
          4296 8793 1996 8739 8615 8740
          8741 1993 8744 4287 8749 8750
          8754 8953 9597 9645 9609 9646
          9611 4437 9649 9613 4443 4439
          9652 9653 9665 9667 9656 4444
          9669 4446 9625 9673 9637 9674
          9639 4441 9677 9641 4447 2885
          9680 9681 9693 9695 9684 4448
          9697 2886 9845 9893 9857 9894
          9859 4471 9897 9861 4477 4473
          9900 9901 9913 9915 9904 4478
          9917 4480 9873 9921 9885 9922
          9887 4475 9925 9889 4481 2890
          9928 9929 9941 9943 9932 4482
          9945 2002 9171 9603 9604 4378
          9607 4438 9610 9614 9199 9631
          9632 2876 9635 4442 9638 9642
          10477 10479 10481 4551 10495 10496
          10499 10501 4553 10511 10513 10515
          4555 10525 10527 10529 2899 10611
          10612 10615 10617 10637 10639 10641
          4575 10652 10653 10656 10658 2901
          9419 9851 9852 4412 9855 4472
          9858 9862 9447 9879 9880 2001
          9883 4476 9886 9890 10724 10726
          10728 4585 10738 10740 10742 4587
          10752 10754 10756 4589 10766 10768
          10770 2903 10836 10838 10840 4599
          10850 10852 10854 4601 10864 10866
          10868 4603 10878 10880 10882 1772
          13026 13098 13100 13102 13122 13124
          13126 5008
        </DataArray>
        <DataArray type="Float64" Name="bounds" format="ascii" RangeMin="0" RangeMax="0">
          0 0 0 0 0 0
          0 0 0 0 0 0
          0 0 0 0 0 0
          0 0 0 0 0 0
          0 0 0 0 0 0
          0 0 0 0 0 0
          0 0 0 0 0 0
          0 0 0 0 0 0
          0 0 0 0 0 0
          0 0 0 0 0 0
          0 0 0 0 0 0
          0 0 0 0 0 0
          0 0 0 0 0 0
          0 0 0 0 0 0
          0 0 0 0 0 0
          0 0 0 0 0 0
          0 0 0 0 0 0
          0 0 0 0 0 0
          0 0 0 0 0 0
          0 0 0 0 0 0
          0 0 0 0 0 0
          0 0 0 0 0 0
          0 0 0 0 0 0
          0 0 0 0 0 0
          0 0 0 0 0 0
          0 0 0 0 0 0
          0 0 0 0 0 0
          0 0 0 0 0 0
          0 0 0 0 0 0
          0 0 0 0 0 0
          0 0 0 0 0 0
          0 0 0 0 0 0
          0 0 0 0 0 0
          0 0 0 0 0 0
          0 0 0 0 0 0
          0 0 0 0 0 0
          0 0 0 0 0 0
          0 0 0 0 0 0
          0 0 0 0 0 0
          0 0 0 0 0 0
          0 0 0 0 0 0
          0 0 0 0 0 0
          0 0 0 0 0 0
          0 0 0 0 0 0
          0 0 0 0 0 0
          0 0 0 0 0 0
          0 0 0 0 0 0
          0 0 0 0 0 0
          0 0 0 0 0 0
          0 0 0 0 0 0
          0 0 0 0 0 0
          0 0 0 0 0 0
          0 0 0 0 0 0
          0 0 0 0 0 0
          0 0 0 0 0 0
          0 0 0 0 0 0
          0 0 0 0 0 0
          0 0 0 0 0 0
          0 0 0 0 0 0
          0 0 0 0 0 0
          0 0 0 0 0 0
          0 0 0 0 0 0
          0 0 0 0 0 0
          0 0 0 0 0 0
          0 0 0 0 0 0
          0 0 0 0 0 0
          0 0 0 0 0 0
          0 0 0 0 0 0
          0 0 0 0 0 0
          0 0 0 0 0 0
          0 0 0 0 0 0
          0 0 0 0 0 0
          0 0 0 0 0 0
          0 0 0 0 0 0
          0 0 0 0 0 0
          0 0 0 0 0 0
          0 0 0 0 0 0
          0 0 0 0 0 0
          0 0 0 0 0 0
          0 0 0 0 0 0
          0 0 0 0 0 0
          0 0 0 0 0 0
          0 0 0 0 0 0
          0 0 0 0 0 0
          0 0 0 0 0 0
          0 0 0 0 0 0
          0 0 0 0 0 0
          0 0 0 0 0 0
          0 0 0 0 0 0
          0 0 0 0 0 0
          0 0 0 0 0 0
          0 0 0 0 0 0
          0 0 0 0 0 0
          0 0 0 0 0 0
          0 0 0 0 0 0
          0 0 0 0 0 0
          0 0 0 0 0 0
          0 0 0 0 0 0
          0 0 0 0 0 0
          0 0 0 0 0 0
          0 0 0 0 0 0
          0 0 0 0 0 0
          0 0 0 0 0 0
          0 0 0 0 0 0
          0 0 0 0 0 0
          0 0 0 0 0 0
          0 0 0 0 0 0
          0 0 0 0 0 0
          0 0 0 0 0 0
          0 0 0 0 0 0
          0 0 0 0 0 0
          0 0 0 0 0 0
          0 0 0 0 0 0
          0 0 0 0 0 0
          0 0 0 0 0 0
          0 0 0 0 0 0
          0 0 0 0 0 0
          0 0 0 0 0 0
          0 0 0 0 0 0
          0 0 0 0 0 0
          0 0 0 0 0 0
          0 0 0 0 0 0
          0 0 0 0 0 0
          0 0 0 0 0 0
          0 0 0 0 0 0
          0 0 0 0 0 0
          0 0 0 0 0 0
          0 0 0 0 0 0
          0 0 0 0 0 0
          0 0 0 0 0 0
          0 0 0 0 0 0
          0 0 0 0 0 0
          0 0 0 0 0 0
          0 0 0 0 0 0
          0 0 0 0 0 0
          0 0 0 0 0 0
          0 0 0 0 0 0
          0 0 0 0 0 0
          0 0 0 0 0 0
          0 0 0 0 0 0
          0 0 0 0 0 0
          0 0 0 0 0 0
          0 0 0 0 0 0
          0 0 0 0 0 0
          0 0 0 0 0 0
          0 0 0 0 0 0
          0 0 0 0 0 0
          0 0 0 0 0 0
          0 0 0 0 0 0
          0 0 0 0 0 0
          0 0 0 0 0 0
          0 0 0 0 0 0
          0 0 0 0 0 0
          0 0 0 0 0 0
          0 0 0 0 0 0
          0 0 0 0 0 0
          0 0 0 0 0 0
          0 0 0 0 0 0
          0 0 0 0 0 0
          0 0 0 0 0 0
          0 0 0 0 0 0
          0 0 0 0 0 0
          0 0 0 0 0 0
          0 0 0 0 0 0
          0 0 0 0 0 0
          0 0 0 0 0 0
          0 0 0 0 0 0
          0 0 0 0 0 0
          0 0 0 0 0 0
          0 0 0 0 0 0
          0 0 0 0 0 0
          0 0 0 0 0 0
          0 0 0 0 0 0
          0 0 0 0 0 0
          0 0 0 0 0 0
          0 0 0 0 0 0
          0 0 0 0 0 0
          0 0 0 0 0 0
          0 0 0 0 0 0
          0 0 0 0 0 0
          0 0 0 0 0 0
          0 0 0 0 0 0
          0 0 0 0 0 0
          0 0 0 0 0 0
          0 0 0 0 0 0
          0 0 0 0 0 0
          0 0 0 0 0 0
          0 0 0 0 0 0
          0 0 0 0 0 0
          0 0 0 0 0 0
          0 0 0 0 0 0
          0 0 0 0 0 0
          0 0 0 0 0 0
          0 0 0 0 0 0
          0 0 0 0 0 0
          0 0 0 0 0 0
          0 0 0 0 0 0
          0 0 0 0 0 0
          0 0 0 0 0 0
          0 0 0 0 0 0
          0 0 0 0 0 0
          0 0 0 0 0 0
          0 0 0 0 0 0
          0 0 0 0 0 0
          0 0 0 0 0 0
          0 0 0 0 0 0
          0 0 0 0 0 0
          0 0 0 0 0 0
          0 0 0 0 0 0
          0 0
        </DataArray>
        <DataArray type="Float64" Name="gradient_error" format="ascii" RangeMin="5.337216586398711e-13" RangeMax="8.836391294235483e-10">
          1.9142088682847953e-11 3.2991511027924345e-11 3.3167249017430565e-11 2.2735147563701645e-11 1.5294433545743656e-11 1.1760356800151331e-11
          7.885674737817987e-12 4.9450873592379765e-12 6.741433783722552e-12 6.7111267570647255e-12 6.997965272223616e-12 8.53985595191897e-11
          1.398196270194537e-11 2.3756246944564454e-10 3.3349067966403735e-11 5.184042500429304e-12 9.989707512328112e-11 1.2948620851181343e-11
          8.270599734641789e-12 9.389722426763076e-12 8.410734421722712e-12 5.6929568485713866e-12 5.872095834813457e-12 4.819432298206439e-12
          3.3773163746352884e-12 2.676149103143893e-12 2.086180418798303e-12 5.7051692759136545e-12 1.5640337178695762e-12 2.6214466056736047e-12
          5.611024038256202e-12 3.690017505695999e-12 5.500225412611198e-12 2.009433366926035e-11 1.2954449287261227e-11 1.488012458254329e-11
          1.6579931837623608e-11 1.1809975913957687e-11 7.651665698065902e-12 6.643696536373599e-12 5.898033106496867e-12 7.2051814331305245e-12
          8.768583125509113e-12 6.528934054043861e-12 9.988410074057366e-12 7.129394943803472e-12 9.107286880796644e-12 3.5992454787134313e-12
          4.822422282086726e-12 2.213189627747867e-12 5.2591189441447925e-12 5.435820308213459e-12 5.310552117462462e-12 2.2396668814303618e-11
          8.35242354572444e-11 2.127403220541994e-10 2.603714889718245e-10 5.803343157867224e-11 2.968164786064928e-11 1.810080631510224e-10
          1.4338739758430095e-11 1.3741429153733674e-11 9.740830630736456e-12 3.612098009635886e-11 4.076976848997942e-10 1.8533996482238913e-10
          5.067554817240554e-10 7.34365312165966e-11 2.622579979432779e-11 9.417728215148531e-11 3.608476985504724e-11 2.165058566140929e-11
          1.8302821309243964e-11 1.0907077667832625e-11 1.1683336056583737e-10 7.245992753152379e-11 5.4363391804320416e-11 1.2542558501443603e-11
          6.275699790963477e-12 4.3215362741504494e-11 1.9714730775224176e-11 8.501365241166641e-12 8.392157295053622e-12 4.8990843691909685e-12
          4.95851947402289e-12 7.482435530477844e-12 5.840863531090718e-12 3.3946169196471444e-12 2.2690389365239273e-11 1.3766368586692286e-11
          8.653843275623662e-12 3.477627689146032e-12 3.4524902693626152e-12 3.3608629936011545e-12 2.6082902232369838e-12 8.05928882172426e-12
          2.995518370782432e-12 2.729200640027121e-10 1.746742846873269e-10 1.2146006987137472e-10 7.645059800227784e-11 3.4397552606771874e-10
          2.2285924859625306e-10 1.572802988203586e-10 1.0702598750712397e-10 4.622949481321101e-11 1.3800961709235053e-10 6.089701262518697e-11
          4.726852317000687e-11 2.931441082513135e-11 1.6591607453179685e-11 1.0140972270797644e-11 6.114430127508264e-11 3.8216169515398265e-11
          2.103787447876283e-11 1.7509017212021342e-11 5.979012070098634e-12 2.2987004092761364e-11 7.688530165730895e-12 1.3914854244904266e-11
          9.799262986099432e-12 6.325107850750035e-12 8.704716845071178e-12 7.998314024914836e-12 1.0636293198785199e-11 8.277661530719209e-12
          7.319635722774877e-12 4.802041132247485e-12 4.2517868255100536e-12 4.9863726516959935e-12 7.783238134621008e-12 4.551392625118374e-12
          5.195866428914669e-12 3.045004816699638e-12 6.111206811682796e-12 2.6521201975032413e-12 2.3537825788328956e-12 1.6474249350702081e-12
          2.531336989540656e-12 2.2333717000333065e-12 2.6921730812582615e-12 5.403162170789477e-12 3.242123948247216e-12 4.818982688695718e-12
          2.8291447471481528e-12 6.653878338229243e-12 4.025786992680463e-12 5.7428312669857585e-12 2.3462848676778436e-12 2.117225223887352e-12
          2.3524410743382675e-12 1.8583798231035942e-12 1.393694238102592e-12 1.841221590988211e-12 9.037472980243834e-13 1.0552018169543383e-12
          9.170202596538018e-13 9.182649428635928e-13 5.591323111694746e-13 2.2887489438738302e-12 1.2066563358842935e-12 9.19509626073384e-13
          7.343701851956444e-12 1.5110935306800242e-11 1.0457255712475329e-11 4.396676915972866e-12 8.974164115488221e-12 2.557696697638069e-12
          5.173986850624839e-12 3.5665259053418256e-12 6.263356858962979e-12 3.6436915549432385e-12 1.473418660060874e-12 2.920370560968366e-12
          1.1959210608139674e-12 1.9983610919756705e-12 4.407487673275899e-12 5.1417891640806165e-12 2.6218847493764573e-12 3.041769860443763e-12
          2.714480953358445e-12 2.7725840085805692e-12 1.6883114324011261e-12 5.876090654885336e-12 3.461654971511069e-12 2.8306870638026934e-12
          1.478868693998228e-12 1.7135074386554156e-12 1.063440605964339e-12 1.2125497838554483e-12 1.0440517037758494e-12 1.0543902986454753e-12
          8.418483399053271e-13 1.948146183312603e-12 1.3616589617465573e-12 1.0647288935151013e-12 2.8223639494206593e-12 4.3904259818214984e-12
          2.121231630607095e-12 3.2821281663533195e-12 2.3416690405276086e-12 3.5873942642697127e-12 2.6777396092657315e-12 9.122441037464629e-12
          6.843672229240473e-12 7.34528201765058e-12 1.5881882645613128e-12 2.4253114684661496e-12 1.3601051957347437e-12 1.9670166760949625e-12
          5.088870469154341e-12 4.074997374861544e-12 7.348198994403971e-12 1.10146997688321e-11 8.590221715866524e-12 2.1597691219166983e-11
          4.6605596810921795e-12 6.4908705508982795e-12 5.5166012473075255e-12 1.2320201399864417e-11 5.690184769751015e-12 8.54758208546405e-12
          4.397123393341273e-12 6.585059466734493e-12 4.501956397373797e-12 6.6588372351022505e-12 5.1224533291168134e-12 1.6863163668552727e-11
          1.3055436573617063e-11 1.2927312422042011e-11 3.378922523900265e-12 5.017095106532312e-12 2.6028819422069317e-12 3.780365043957113e-12
          2.746238810178233e-12 3.878375368876536e-12 3.1478947231045776e-12 1.0023953870431233e-11 7.609400788251222e-12 7.635376256839156e-12
          3.6026968728150604e-12 5.021765112448015e-12 2.794153900592938e-12 3.8603540423222026e-12 3.2568942377519996e-12 4.261225575475859e-12
          3.2786500898553714e-12 9.588189453911079e-12 7.396284582070195e-12 7.898323681950294e-12 2.2147745696869645e-12 2.923577649922945e-12
          2.00018383627732e-12 2.5136960027925874e-12 1.9811344965969004e-12 2.501083329884361e-12 2.180526949102464e-12 5.632527689701942e-12
          4.898183501751732e-12 4.661805950938625e-12 1.991883294392818e-12 2.8343101436220844e-12 1.5083390728579499e-12 2.115022661578007e-12
          1.8655116239344318e-12 2.4648084252260374e-12 1.842903300594951e-12 5.714807039079193e-12 4.262518875517675e-12 4.968244785204615e-12
          1.1659110880891827e-12 1.554001271931831e-12 1.0387978727888436e-12 1.3121426196125272e-12 1.081927463048204e-12 1.362399756266412e-12
          1.1646935475692013e-12 3.1471465024556553e-12 2.7301387504716565e-12 1.8646255830728676e-11 1.4086103417052304e-11 1.4831182277299676e-11
          1.1197567701569136e-11 3.763184643598129e-11 2.861464405621406e-11 2.948184956642861e-11 1.0558090044483152e-11 8.402826985919995e-12
          2.156113891169706e-11 1.6860074648034906e-11 7.467525359520944e-11 5.722284595875244e-11 5.753347932126987e-11 4.4027170903660165e-11
          1.4267538209469763e-10 1.1031176014793793e-10 1.0824258108054227e-10 4.342736156143862e-11 3.3373304287047e-11 8.44041845792162e-11
          6.37987886635085e-11 2.4780254443728524e-10 1.9341071431466805e-10 1.8641808250717e-10 1.4507992348893198e-10 3.583700184296814e-10
          2.8216456683956945e-10 2.7128684784329926e-10 1.4925629605996118e-10 1.1168251975380615e-10 2.1948437130709783e-10 1.6490464908617406e-10
          4.125413404359697e-10 3.2702737801198035e-10 3.198861307125079e-10 2.5224930000741166e-10 4.1768990061695866e-10 3.3206782156108217e-10
          3.294577481086652e-10 2.5599585918129257e-10 1.965400053109152e-10 2.606605178323912e-10 2.032942212866739e-10 4.1435144538588854e-11
          3.136931307360949e-11 7.792381457327067e-11 2.317304635629748e-11 1.6650248458968216e-11 4.2048444238954403e-11 1.4290370981283227e-10
          1.04558120608731e-10 2.5144924946977884e-10 7.429691523018027e-11 5.135928218397681e-11 1.261956017707526e-10 8.326645735125105e-12
          1.165008623589265e-11 7.996366154108533e-12 2.043850482301233e-11 4.026504110100014e-12 5.363943699111798e-12 4.284760019930834e-12
          9.009707641127732e-12 3.460256956779628e-11 2.2764439751267428e-11 5.623148727188065e-11 1.466203296391616e-11 9.206414347643869e-12
          2.2690068744322375e-11 4.072489846586625e-10 2.903967153193831e-10 5.694230302132545e-10 1.9976839345169326e-10 1.3292287221374e-10
          2.801876170515638e-10 6.650480269855673e-10 4.84689764064181e-10 6.871653615836201e-10 3.3696037841399644e-10 2.2418598528957833e-10
          3.5521491940276867e-10 8.581613051120295e-11 5.393688599497909e-11 1.1844455863909108e-10 3.3117482196266816e-11 1.9933891363037593e-11
          4.436384093021478e-11 1.4337477711490873e-10 8.858954501968482e-11 1.5233137965650803e-10 5.316009179160517e-11 3.113796646590458e-11
          5.64533625603701e-11 3.260464256381182e-11 2.5443497278367066e-11 2.46469531196537e-11 1.9212610787010488e-11 6.184394041854749e-11
          4.863797313802918e-11 4.596335004828904e-11 1.970321268389443e-11 1.5126975150900277e-11 1.4885890206679153e-11 1.1429336607195993e-11
          3.7906322459059505e-11 2.927723531971133e-11 2.8076078266285507e-11 1.8174213207918687e-11 1.4142368001217661e-11 1.303144468680575e-11
          1.0120392697367963e-11 3.3232220300553064e-11 2.6040396395379444e-11 2.3406130134991154e-11 1.0936302097952286e-11 8.372926181959886e-12
          7.802797650884286e-12 5.960753983814415e-12 2.0225993900612626e-11 1.5572113730892103e-11 1.4190223377751038e-11 1.1454779249145411e-10
          9.092196657002966e-11 8.357121547821729e-11 6.616817987836654e-11 2.0384965065361402e-10 1.6351257189820772e-10 1.461600192361122e-10
          7.147501846953918e-11 5.565424952907929e-11 5.190152368628371e-11 4.033522554275491e-11 1.297963631994243e-10 1.0198243170762223e-10
          9.246412554293793e-11 5.921684153643283e-11 4.676846309583038e-11 4.082048093127501e-11 3.21591357664736e-11 1.0151857745039867e-10
          8.088144975634708e-11 6.845338997646173e-11 3.660337344524511e-11 2.8389696466399934e-11 2.5113442608661894e-11 1.943956888483716e-11
          6.38245692211059e-11 4.988702332660606e-11 4.277603169247887e-11 1.1494325986649252e-11 8.658369693013644e-12 8.657886868043391e-12
          6.49837973247632e-12 2.241306426984467e-11 1.7007577514068018e-11 1.65515325591461e-11 6.486835719926675e-12 4.85231097719761e-12
          1.278961127201466e-11 9.420399919875731e-12 4.352437270477932e-12 6.3225460362975424e-12 3.2198231504122737e-12 4.733143648298848e-12
          3.123501883395026e-12 4.498797906674072e-12 3.366355904167224e-12 1.1885926573147434e-11 8.992911063286776e-12 8.310264520958282e-12
          2.3868631339983772e-12 3.525913934063039e-12 1.7132587126917193e-12 2.502972491631291e-12 6.744850994968828e-12 4.698494050400315e-12
          4.2928183674294085e-11 3.280315927657825e-11 3.105861381374958e-11 2.3696839191235305e-11 7.932412884262817e-11 6.108692035042656e-11
          5.623128250115221e-11 2.4833485776735095e-11 1.791470391357716e-11 4.6578400954586146e-11 3.2892263069090283e-11 2.1820936112426472e-11
          1.6621203892621497e-11 1.4913849254589115e-11 1.133893175182371e-11 3.8624682805327774e-11 2.9622864468077814e-11 2.576045204945621e-11
          1.2546332360420988e-11 8.543704598086211e-12 2.2504654535988788e-11 1.494757451613575e-11 6.470792274570542e-12 9.09827999849408e-12
          4.997170822004149e-12 7.052439395227588e-12 4.4883563617943305e-12 6.2252510534300096e-12 4.810746183449232e-12 1.6078702847019714e-11
          1.2544971207361835e-11 1.0782008299701473e-11 3.8250207369988625e-12 5.420995507097436e-12 2.9116195053463734e-12 4.1343581697724034e-12
          2.633894796477475e-12 3.688746597581759e-12 2.807110744215894e-12 9.707443589737702e-12 7.449150371034222e-12 6.479575345070406e-12
          3.0790582705160953e-12 4.145702913306802e-12 2.341190980305145e-12 3.1828041861483393e-12 2.5450526087242746e-12 3.2887321156538958e-12
          2.509770209463056e-12 7.048091097399589e-12 5.471309313893508e-12 5.075241258116404e-12 1.802511140274945e-12 2.4445316521316194e-12
          1.3920194286060168e-12 1.868744761815364e-12 1.4913276621597908e-12 1.933553088314046e-12 1.4899054438416248e-12 4.211747982201618e-12
          3.215581532860973e-12 3.0149709503773577e-12 2.7425025716617148e-11 2.1551313744870042e-11 1.7990124691749715e-11 1.4099172251644471e-11
          4.491658981850357e-11 3.555890201981677e-11 2.8752879164833717e-11 1.6791437153673705e-11 1.297323502699431e-11 1.0958254604031243e-11
          8.448054420597079e-12 2.7900099122741005e-11 2.1695404479173408e-11 1.775117621250434e-11 1.1553294146621211e-11 9.029862596617922e-12
          7.2300041178287105e-12 5.631231824000304e-12 1.7997022325160074e-11 1.4154730742927392e-11 1.1046212081391148e-11 6.996723437780346e-12
          5.3779106232048816e-12 4.344861270614397e-12 3.328472543579636e-12 1.1039176658458739e-11 8.536083330167562e-12 6.725249060870993e-12
          2.2009535182795326e-12 3.1253314221769396e-12 1.6566796569128578e-12 2.3361353389950166e-12 1.5352198787670867e-12 2.1073877731613697e-12
          1.7328302402842838e-12 5.674562083025628e-12 4.276395808507195e-12 3.755518871126291e-12 1.2302324441597092e-12 1.7262609418022244e-12
          1.0408766684808757e-12 1.392434557075472e-12 3.1818658538474954e-12 2.3880658534606837e-12 1.063801713551993e-12 1.3982944907537936e-12
          9.303424507645803e-13 1.1910343477898155e-12 8.855926356015958e-13 1.130250387133261e-12 9.815302853616779e-13 2.424399048296322e-12
          2.0457050423076785e-12 1.752539170036124e-12 9.944607533815018e-12 7.555285831259448e-12 6.467781408780043e-12 4.902330168237847e-12
          1.671753434229552e-11 1.276373178364573e-11 1.0580445512223313e-11 5.678339239594814e-12 3.667343157910509e-12 9.656246112325292e-12
          6.08310945272146e-12 4.104641424965068e-12 3.0988432974465076e-12 2.536041337437158e-12 1.913531195583812e-12 6.542351645741077e-12
          4.971149344912758e-12 3.960578929762054e-12 1.7310992911480704e-12 2.3133465761634425e-12 1.092678814792684e-12 1.4156950760495574e-12
          3.7511998917592e-12 2.239376891935929e-12 3.3400700339881673e-10 2.708140998154102e-10 2.369140449750909e-10 1.9120033665102972e-10
          4.716190837245821e-10 3.859179529595875e-10 3.354766449946896e-10 2.1712084084702658e-10 1.7216431967756212e-10 1.5267243161653562e-10
          1.2063548573677903e-10 3.1205410800531437e-10 2.4939667199694835e-10 2.1954935109868609e-10 1.6218532223658266e-10 1.3033166161074007e-10
          1.0743307859858445e-10 8.598891456312764e-11 2.2919006122759726e-10 1.8547328921168908e-10 1.5080066206898368e-10 1.0367827571746403e-10
          8.165095434941831e-11 6.816030670035293e-11 5.3507749662289735e-11 1.4851207979661513e-10 1.17675661918011e-10 9.684724824189062e-11
          5.543221074505857e-10 4.5632260252787226e-10 4.0097645037512646e-10 3.2785746462707697e-10 5.74016394279921e-10 4.735294587846031e-10
          4.199783925667415e-10 3.7107187514647763e-10 2.9813386228645823e-10 2.6499202764237796e-10 2.117576007842724e-10 3.858356669145813e-10
          3.1058518180864074e-10 2.784643959018304e-10 2.768968320269581e-10 2.250452362865706e-10 1.831380557341746e-10 1.4806038620425052e-10
          2.9232915450294533e-10 2.379191722817973e-10 1.9431104847448079e-10 1.8092269945679676e-10 1.4389459258610208e-10 1.1847488096131496e-10