<?xml version="1.0"?>
<VTKFile type="UnstructuredGrid" version="0.1" byte_order="LittleEndian" header_type="UInt32" compressor="vtkZLibDataCompressor">
  <UnstructuredGrid>
    <Piece NumberOfPoints="382" NumberOfCells="204">
      <PointData>
        <DataArray type="Int32" Name="libmesh_node_id" format="ascii" RangeMin="239" RangeMax="1848">
          239 292 295 300 302 306
          314 315 551 552 553 554
          560 561 567 569 570 571
          572 574 575 576 577 589
          590 591 592 607 608 609
          610 611 612 613 614 615
          616 941 942 943 944 945
          946 947 948 949 950 951
          952 953 954 955 956 957
          958 959 960 961 962 963
          964 965 966 967 968 969
          970 971 972 973 974 975
          976 977 978 979 980 981
          982 983 984 985 986 987
          988 989 990 991 992 1007
          1008 1009 1010 1011 1012 1013
          1014 1015 1016 1017 1018 1019
          1020 1021 1022 1023 1024 1025
          1026 1027 1028 1029 1030 1031
          1032 1033 1034 1035 1036 1037
          1038 1039 1040 1041 1042 1043
          1044 1045 1046 1047 1048 1049
          1050 1051 1052 1053 1054 1055
          1056 1057 1058 1059 1060 1061
          1062 1063 1064 1065 1066 1067
          1068 1069 1070 1071 1072 1073
          1074 1075 1076 1077 1078 1081
          1083 1084 1086 1097 1099 1101
          1103 1111 1112 1115 1117 1118
          1120 1131 1133 1135 1137 1634
          1635 1636 1637 1638 1639 1640
          1641 1642 1643 1644 1645 1646
          1647 1648 1649 1650 1651 1652
          1653 1654 1655 1656 1657 1658
          1659 1660 1661 1662 1663 1664
          1665 1666 1667 1668 1669 1670
          1671 1672 1673 1674 1675 1676
          1677 1678 1679 1680 1681 1682
          1683 1684 1685 1686 1687 1688
          1689 1690 1691 1692 1693 1694
          1695 1696 1697 1698 1699 1700
          1701 1702 1703 1704 1705 1706
          1707 1708 1709 1710 1711 1712
          1713 1714 1715 1716 1717 1718
          1719 1720 1721 1722 1723 1724
          1725 1726 1727 1728 1729 1730
          1731 1732 1733 1734 1735 1736
          1737 1738 1739 1740 1741 1742
          1743 1744 1745 1746 1747 1748
          1749 1754 1755 1756 1788 1789
          1790 1791 1792 1793 1794 1795
          1796 1797 1808 1809 1810 1811
          1812 1813 1814 1822 1823 1824
          1825 1826 1827 1828 1829 1830
          1831 1842 1843 1844 1845 1846
          1847 1848 540 541 542 543
          545 546 548 549 555 293
          550 296 556 557 558 559
          562 564 563 565 566 301
          568 573 578 581 582 584
          585 587 588 307 627 628
          629 630 631 632 637 638
          639 857 858 860 871 872
          875 879 880 882
        </DataArray>
        <DataArray type="Float64" Name="bounds" format="ascii" RangeMin="0" RangeMax="0">
          0 0 0 0 0 0
          0 0 0 0 0 0
          0 0 0 0 0 0
          0 0 0 0 0 0
          0 0 0 0 0 0
          0 0 0 0 0 0
          0 0 0 0 0 0
          0 0 0 0 0 0
          0 0 0 0 0 0
          0 0 0 0 0 0
          0 0 0 0 0 0
          0 0 0 0 0 0
          0 0 0 0 0 0
          0 0 0 0 0 0
          0 0 0 0 0 0
          0 0 0 0 0 0
          0 0 0 0 0 0
          0 0 0 0 0 0
          0 0 0 0 0 0
          0 0 0 0 0 0
          0 0 0 0 0 0
          0 0 0 0 0 0
          0 0 0 0 0 0
          0 0 0 0 0 0
          0 0 0 0 0 0
          0 0 0 0 0 0
          0 0 0 0 0 0
          0 0 0 0 0 0
          0 0 0 0 0 0
          0 0 0 0 0 0
          0 0 0 0 0 0
          0 0 0 0 0 0
          0 0 0 0 0 0
          0 0 0 0 0 0
          0 0 0 0 0 0
          0 0 0 0 0 0
          0 0 0 0 0 0
          0 0 0 0 0 0
          0 0 0 0 0 0
          0 0 0 0 0 0
          0 0 0 0 0 0
          0 0 0 0 0 0
          0 0 0 0 0 0
          0 0 0 0 0 0
          0 0 0 0 0 0
          0 0 0 0 0 0
          0 0 0 0 0 0
          0 0 0 0 0 0
          0 0 0 0 0 0
          0 0 0 0 0 0
          0 0 0 0 0 0
          0 0 0 0 0 0
          0 0 0 0 0 0
          0 0 0 0 0 0
          0 0 0 0 0 0
          0 0 0 0 0 0
          0 0 0 0 0 0
          0 0 0 0 0 0
          0 0 0 0 0 0
          0 0 0 0 0 0
          0 0 0 0 0 0
          0 0 0 0 0 0
          0 0 0 0 0 0
          0 0 0 0
        </DataArray>
        <DataArray type="Float64" Name="gradient_error" format="ascii" RangeMin="2.1646059163218087e-9" RangeMax="5.954858820004274e-7">
          3.403700462277903e-8 5.374053248949642e-7 4.6446749879783304e-7 4.2962766999877443e-7 3.1423760610060627e-7 3.142963560397318e-7
          3.4641462738525586e-9 3.237022482331032e-7 5.954858820004274e-7 5.492810453009694e-7 5.034772539237614e-7 4.161295251592315e-7
          5.287162072601858e-7 5.713993809627503e-7 5.371249425861806e-7 4.988397289692387e-7 5.092107155504305e-7 2.726546005988311e-7
          2.640492791429808e-7 3.441900626474228e-7 2.69702590675726e-7 3.355971701670046e-7 1.0742915245586275e-7 3.095685303554495e-7
          2.6141847400306816e-7 2.5689366500993816e-7 2.2464362650700187e-7 9.836249412413101e-8 1.3122596694640065e-7 9.201469435293651e-8
          1.3832053885824724e-7 2.7138375856980056e-7 2.6239285363160413e-7 2.861112756716456e-9 1.030682650260854e-7 9.662520095654363e-8
          3.2484431708083387e-7 1.0508614688793171e-7 7.865812194078919e-8 1.1338309290613239e-7 1.0938887009723534e-7 1.0213358847875278e-7
          8.632365902570668e-8 8.817099398101252e-8 1.0746253180855627e-7 9.561777323751194e-8 9.378726027194401e-8 8.067909649480272e-8
          9.026748616954313e-8 8.166244266991896e-8 9.88125882225767e-8 1.0543854317566986e-7 9.640795890644792e-8 7.266130550821369e-8
          7.574750753008974e-8 8.867054509790007e-8 7.283689311939031e-8 7.47259987128261e-8 8.12822988376656e-8 6.741798611832313e-8
          8.555527881205181e-8 9.562293561078552e-8 1.0891433046492357e-7 6.312833839994554e-8 7.439360369431872e-8 6.69112726899455e-8
          9.562809798405912e-8 9.707234997121232e-8 9.563731929859033e-8 1.0035743967048064e-7 1.0149421167278413e-7 1.1050215553577343e-7
          9.958115108650234e-8 1.0699976811950322e-7 1.0417583512299156e-7 1.1277443423018381e-7 1.0275434326655679e-7 1.1393056334053392e-7
          1.0905788052327612e-7 1.1703923692557985e-7 9.727618291858821e-8 1.3115497244227737e-7 1.2507964812083105e-7 1.3333332421223237e-7
          1.0813387933586908e-7 8.654509268694943e-8 8.36791155632969e-8 8.828312840983823e-8 7.582675050154545e-8 1.1750069127422555e-7
          1.1458501933476881e-7 1.2734858257936845e-7 1.251056959121792e-7 1.0667820083109252e-7 1.1529833367605088e-7 1.1516980244152226e-7
          1.1771837088378126e-7 1.1568864137933631e-7 1.1945163006764893e-7 1.3960777744564844e-7 1.3631263013578046e-7 1.5315226936764474e-7
          1.4857614933687515e-7 1.235294303671457e-7 1.3201459461887932e-7 8.268699188029672e-8 1.1432772658872729e-7 1.082366919586929e-7
          1.4323851745482673e-7 8.145013265898902e-8 9.202822689752299e-8 9.606723565118984e-8 7.253309718681996e-8 8.2369399528173e-8
          8.440061319526787e-8 1.098354855254939e-7 1.173463984696015e-7 1.0103465024173019e-7 1.0055761157161235e-7 1.0435546422942594e-7
          8.707384523484576e-8 8.868176852719878e-8 1.2530495567554215e-7 1.3351376930397646e-7 1.1016595249228331e-7 5.959498916411919e-8
          8.824153376289641e-8 3.5791996542966515e-8 6.836254153217508e-8 1.2094451652432514e-7 1.1880260881582409e-7 4.887286005767139e-9
          6.083765656930858e-8 3.742017014955086e-8 1.1906599165694922e-7 8.77457737659249e-9 4.642835110780985e-8 7.538357339680009e-9
          3.113255871353978e-8 1.1707329692290383e-7 1.1122024342686001e-7 2.1646059163218087e-9 9.768074743614366e-9 8.699711042261447e-9
          8.673966154895893e-8 1.197558197178046e-7 1.2969004664403954e-7 1.1399793764315472e-7 1.213107875423395e-7 1.2244698952067835e-7
          1.3314265208795886e-7 1.1813227667237511e-7 1.4075221579324752e-7 1.527532687418863e-7 1.2883190922332448e-7 1.3627521562981797e-7
          1.4546465069168606e-7 1.5890679892483334e-7 1.356528534302284e-7 1.6797496728926838e-7 1.6194865445806417e-7 1.4067065311960168e-7
          1.0243082680832427e-7 1.0225036951318952e-7 1.3355052000921356e-7 1.0669594043225252e-7 8.797291625216167e-8 1.4170996515827496e-7
          1.1766525839144272e-7 8.497207784949462e-9 1.4387854351197819e-8 1.0559529668295486e-7 5.805706428594393e-9 9.73778404913494e-9
          1.0787451646236212e-7 1.655198019454536e-7 1.4306095007083098e-7 1.7326714235783823e-7 1.5260632314788358e-7 9.546383833664092e-9
          9.390737967594398e-9 9.48573055401302e-9 9.580723140431641e-9 9.425077274361947e-9 1.546413366025611e-8 1.6303921164230394e-8
          1.6141223822532003e-8 1.724878655787926e-8 1.5978526480833613e-8 1.8007346836723903e-8 1.8026613054718883e-8 1.874832825775543e-8
          1.8045879272713857e-8 2.070804184694773e-8 9.998765931649886e-9 1.0037234467764556e-8 1.0433939758588878e-8 1.0075703003879224e-8
          1.5076114742137534e-8 1.5104503419280683e-8 1.5132892096423828e-8 9.311705475893765e-9 1.0170259347722262e-8 1.129421914275929e-8
          1.102881321955076e-8 1.575437255980627e-8 8.650125473936004e-9 9.392820584757357e-9 7.404239329439095e-9 9.015049429161302e-9
          1.0135515695578708e-8 1.062585952888351e-8 7.301485016222121e-9 8.748406701750158e-9 7.596159099733724e-9 1.0195328387278194e-8
          6.4975512239633964e-9 8.453496969118207e-9 5.5459871327463886e-9 7.702316244056796e-9 1.0409442714273021e-8 1.169963901760002e-8
          3.6833969720330274e-9 6.736734590514155e-9 5.835740363127286e-9 9.790072208995282e-9 1.57810480343422e-8 1.618046972661874e-8
          1.5807723508878124e-8 1.4978637935838053e-8 1.5289495215906794e-8 1.4807174782716717e-8 1.5558304151322106e-8 1.5600352495975537e-8
          1.6309433519927494e-8 1.013590442108602e-8 1.143596472673774e-8 1.0557503336843172e-8 1.373877313687335e-8 1.4627224129264425e-8
          1.5673831378597404e-8 1.4456742996536543e-8 1.571065655255071e-8 1.6720438627930386e-8 1.820211398169288e-8 7.907244098464158e-9
          9.872837811632904e-9 9.427242643012174e-9 1.325485865991091e-8 1.621337623669724e-8 1.6954834151898142e-8 1.6682483127553357e-8
          2.075771058565046e-8 2.0838219443352028e-8 1.7472224771448073e-8 1.8855308037210248e-8 1.8856736612766712e-8 4.479468659326263e-9
          6.629974166973567e-9 3.7064062078236263e-9 5.654155878739443e-9 1.1971111438511421e-8 1.119483710838325e-8 2.3404831839261978e-9
          4.82578548975324e-9 4.06112682855749e-9 1.094515242727155e-8 3.519616119550587e-9 5.13429791816287e-9 4.0894759576613995e-9
          5.284167065815764e-9 1.0594604149748327e-8 1.022043726399214e-8 2.4718454639778065e-9 3.843969915535866e-9 4.38683369295317e-9
          9.004419301203748e-9 1.6021770517415607e-8 1.642276129875149e-8 1.6881797832429242e-8 1.805775393039174e-8 1.5830164798133973e-8
          1.589068844560484e-8 1.7081112537305128e-8 1.6702656801902982e-8 1.693803256407821e-8 1.896508502108446e-8 1.991404877414227e-8
          1.593308883235789e-8 1.5996792734517637e-8 1.9073433429402205e-8 1.9056140345297157e-8 1.9490276858193043e-8 2.0162672698283282e-8
          2.0859560836294583e-8 2.1647179534276774e-8 2.3360921144524763e-8 2.1499650767053312e-8 1.4436876738723692e-8 1.5759322872455356e-8
          1.4673305996145873e-8 1.6006586838778594e-8 1.900811221789592e-8 1.951414326659157e-8 7.75270355457838e-9 9.394124054107496e-9
          9.888092340650086e-9 1.4353045877145318e-8 2.1380087889839003e-8 2.2651616289242018e-8 2.1825720350073195e-8 2.3614813726712215e-8
          1.9671820289872927e-8 2.0354335675939206e-8 2.167309337909183e-8 5.187215054891867e-9 6.115791077698044e-9 6.454949381715886e-9
          7.331115810031205e-9 1.0263473301718995e-8 1.0804387601059443e-8 4.6866361327771995e-9 5.471702933898762e-9 6.736547918036145e-9
          8.977518448644602e-9 1.7248054951683038e-8 1.7790492470890405e-8 2.101353040043231e-8 2.2179491978008445e-8 1.6265465569021457e-8
          1.6814625023861674e-8 2.0832663975774035e-8 3.1375971919260773e-7 3.163151491521227e-7 2.7979683224974555e-7 2.812046781657615e-7
          3.145970392792082e-7 2.739579445625554e-7 1.8724995558257971e-7 1.9620454848421295e-7 3.9320628878445716e-7 3.787803677650208e-7
          1.7409706338032819e-7 3.1731087435517496e-7 4.860084479335299e-7 4.61280205677331e-7 4.5216539366664873e-7 4.99232675961503e-7
          3.57729607559226e-7 5.188416939459939e-7 4.747715085954452e-7 3.564873196479624e-7 4.5863850137303844e-7 5.602751785306112e-7
          5.054555499973392e-7 4.781097395035579e-7 4.4748223909143255e-7 3.0613640464423155e-7 2.6173147664259144e-7 2.865675380355746e-7
          2.402171499375049e-7 1.5564641643135824e-7 1.566893529770745e-7 2.3356190784164745e-7 1.6100863116231178e-7 1.811268509446277e-7
          2.7701308068196176e-7 2.931156152250502e-7 1.6070376343695473e-7 2.4986347823225e-7 3.272205388078226e-7 3.4040757446224526e-7
          3.0040368057983193e-7 3.079894416849646e-7 2.787940269787976e-7 2.0088653046913688e-7 1.9562004236358277e-7 3.009363633253117e-7
          3.4378471806950015e-7 6.88934852810086e-8 8.113684796967749e-8 6.263788771735863e-8
        </DataArray>
        <DataArray type="Float64" Name="gradient_matprop_error" format="ascii" RangeMin="0" RangeMax="0">
          0 0 0 0 0 0
          0 0 0 0 0 0
          0 0 0 0 0 0
          0 0 0 0 0 0
          0 0 0 0 0 0
          0 0 0 0 0 0
          0 0 0 0 0 0
          0 0 0 0 0 0
          0 0 0 0 0 0
          0 0 0 0 0 0
          0 0 0 0 0 0
          0 0 0 0 0 0
          0 0 0 0 0 0
          0 0 0 0 0 0
          0 0 0 0 0 0
          0 0 0 0 0 0
          0 0 0 0 0 0
          0 0 0 0 0 0
          0 0 0 0 0 0
          0 0 0 0 0 0
          0 0 0 0 0 0
          0 0 0 0 0 0
          0 0 0 0 0 0
          0 0 0 0 0 0
          0 0 0 0 0 0
          0 0 0 0 0 0
          0 0 0 0 0 0
          0 0 0 0 0 0
          0 0 0 0 0 0
          0 0 0 0 0 0
          0 0 0 0 0 0
          0 0 0 0 0 0
          0 0 0 0 0 0
          0 0 0 0 0 0
          0 0 0 0 0 0
          0 0 0 0 0 0
          0 0 0 0 0 0
          0 0 0 0 0 0
          0 0 0 0 0 0
          0 0 0 0 0 0
          0 0 0 0 0 0
          0 0 0 0 0 0
          0 0 0 0 0 0
          0 0 0 0 0 0
          0 0 0 0 0 0
          0 0 0 0 0 0
          0 0 0 0 0 0
          0 0 0 0 0 0
          0 0 0 0 0 0
          0 0 0 0 0 0
          0 0 0 0 0 0
          0 0 0 0 0 0
          0 0 0 0 0 0
          0 0 0 0 0 0
          0 0 0 0 0 0
          0 0 0 0 0 0
          0 0 0 0 0 0
          0 0 0 0 0 0
          0 0 0 0 0 0
          0 0 0 0 0 0
          0 0 0 0 0 0
          0 0 0 0 0 0
          0 0 0 0 0 0
          0 0 0 0
        </DataArray>
        <DataArray type="Float64" Name="initial_marker" format="ascii" RangeMin="0" RangeMax="2">
          2 1.5 2 2 1 2
          2 2 2 1.5 1.25 1.5
          2 2 2 2 2 2
          2 1 2 2 2 2
          1.75 2 0.5 2 2 2
          2 1.25 1.5 2 2 2
          1.5 2 2 2 2 2
          2 2 2 2 2 1
          1.5 1 2 2 2 2
          2 2 2 2 2 2
          2 2 2 2 2 2
          2 2 2 2 2 2
          2 2 2 2 2 2
          2 2 2 2 2 2
          2 2 1.5 2 2 2
          2 2 2 2 2 2
          2 2 2 2 2 2
          2 2 2 2 2 2
          2 1 1.5 1.75 0 1
          1.5 2 2 2 2 2
          2 2 2 2 2 2
          2 2 2 2 2 2
          2 2 2 2 2 2
          2 2 2 2 2 2
          2 2 2 2 2 2
          2 2 2 2 2 2
          2 2 2 2 2 2
          2 2 2 2 2 2
          2 2 2 2 2 2
          2 2 2 2 2 2
          2 2 2 2 2 2
          2 2 2 2 2 2
          2 2 2 2 2 2
          2 2 2 2 2 2
          2 2 2 2 2 2
          2 2 2 2 2 2
          2 2 2 2 2 2
          2 2 2 2 2 2
          2 2 2 2 2 2
          2 2 2 2 2 2
          2 2 2 2 2 2
          2 2 2 2 2 2
          2 2 2 2 2 2
          2 2 2 2 2 2
          2 2 2 2 2 2
          2 2 2 2 2 2
          2 2 2 2 2 2
          2 2 2 2 2 2
          2 2 2 2 2 2
          2 2 2 2 2 2
          2 2 2 2 2 2
          2 2 2 2 2 2
          2 2 2 2 2 2
          2 2 2 2 2 2
          2 2 2 2 2 2
          2 2 0.5 1 0.5 0.25
          1 0.5 0 0 0.5 0.5
          0 0.25 1 1 2 2
          0.5 1 1 2 2 1
          1 1 1 1 0.75 1
          1 0.25 0.6666666666666666 1 0 0
          0.25 0 0 0.5 0.5 0
          1 0 0 0 0 0
          0 0 0 0
        </DataArray>
        <DataArray type="Float64" Name="markers_norefine" format="ascii" RangeMin="0" RangeMax="2">
          0 0 0 0 0 0
          2 0 0 0 0 0
          0 0 0 0 0 0
          0 0 0 0 0 0
          0 0 0 0 0 0
          0 0 0 2 0 0
          0 0 0 0 0 0
          0 0 0 0 0 0
          0 0 0 0 0 0
          0 0 0 0 0 0
          0 0 0 0 0 0
          0 0 0 0 0 0
          0 0 0 0 0 0
          0 0 0 0 0 0
          0 0 0 0 0 0
          0 0 0 0 0 0
          0 0 0 0 0 0
          0 0 0 0 0 0
          0 0 0 0 0 0
          0 0 0 0 0 0
          0 0 0 0 0 0.5
          0 1 0.5 0 0 2
          0.5 1 0 2 1 2
          1.5 0 0 2 2 2
          0 0 0 0 0 0
          0 0 0 0 0 0
          0 0 0 0 0 0
          1 0.25 0 0 0 0
          0 2 2 0 2 2
          0.5 0 0 0 0 0
          0 0 0 0 0 0
          0 0 0 0 0 0
          0 0 0 0 0.5 0
          0 0 0 2 1.5 1.3333333333333333
          1 0 0.5 0.25 1.5 1
          0 0.5 1 0.5 1.5 0
          2 1.75 2 2 1.5 1.3333333333333333
          2 2 2 2 0 0
          0 0.5 0.25 1 0.75 0
          0.5 1.5 1.25 1.75 0.6666666666666666 1
          1 1 1 1 0.6666666666666666 2
          2 2 2 0 0.5 0
          0 0 1 0.6666666666666666 0 2
          2 2 2 1.25 1.75 2
          2 2 1.5 2 2 2
          2 2 2 2 2 2
          2 0.25 0.75 0 0 0.5
          1 0 1 1 0 0
          1 1 0 1 0.5 1.5
          0 0 0 0 1.5 1.25
          2 1.75 0.75 1.25 2 2
          2 1.75 0.25 0.5 0 0
          0.75 1 0 2 2 2
          2 2 2 2 2 2
          2 1 1.25 0 0.5 1
          1.5 0 0 0 0 0
          0 0 0 0 0 0
          0 0 0 0 0 0
          0 0 0 0 0 0
          0 0 0 0 0 0
          0 0 0 0 0 0
          0 0 0 0 0 0
          0 0 0 0 0 0
          0 0 0 0
        </DataArray>
        <DataArray type="Float64" Name="markers_mustrefine" format="ascii" RangeMin="0" RangeMax="2">
          2 1.5 2 2 1 2
          2 2 2 1.5 1.25 1.5
          2 2 2 2 2 2
          2 1 2 2 2 2
          1.75 2 0.5 2 2 2
          2 1.25 1.5 2 2 2
          1.5 2 2 2 2 2
          2 2 2 2 2 1
          1.5 1 2 2 2 2
          2 2 2 2 2 2
          2 2 2 2 2 2
          2 2 2 2 2 2
          2 2 2 2 2 2
          2 2 2 2 2 2
          2 2 1.5 2 2 2
          2 2 2 2 2 2
          2 2 2 2 2 2
          2 2 2 2 2 2
          2 1 1.5 1.75 0 1
          1.5 2 2 2 2 2
          2 2 2 2 2 2
          2 2 2 2 2 2
          2 2 2 2 2 2
          2 2 2 2 2 2
          2 2 2 2 2 2
          2 2 2 2 2 2
          2 2 2 2 2 2
          2 2 2 2 2 2
          2 2 2 2 2 2
          2 2 2 2 2 2
          2 2 2 2 2 2
          2 2 2 2 2 2
          2 2 2 2 2 2
          2 2 2 2 2 2
          2 2 2 2 2 2
          2 2 2 2 2 2
          2 2 2 2 2 2
          2 2 2 2 2 2
          2 2 2 2 2 2
          2 2 2 2 2 2
          2 2 2 2 2 2
          2 2 2 2 2 2
          2 2 2 2 2 2
          2 2 2 2 2 2
          2 2 2 2 2 2
          2 2 2 2 2 2
          2 2 2 2 2 2
          2 2 2 2 2 2
          2 2 2 2 2 2
          2 2 2 2 2 2
          2 2 2 2 2 2
          2 2 2 2 2 2
          2 2 2 2 2 2
          2 2 2 2 2 2
          2 2 2 2 2 2
          2 2 0.5 1 0.5 0.25
          1 0.5 0 0 0.5 0.5
          0 0.25 1 1 2 2
          0.5 1 1 2 2 1
          1 1 1 1 0.75 1
          1 0.25 0.6666666666666666 1 0 0
          0.25 0 0 0.5 0.5 0
          1 0 0 0 0 0
          0 0 0 0
        </DataArray>
        <DataArray type="Float64" Name="gradient_marker" format="ascii" RangeMin="0" RangeMax="1">
          0 1 1 1 0.75 1
          0 1 1 1 1 0.75
          1 1 1 0.75 0.75 0.5
          0.75 0.625 0.5 0.5 0.5 1
          0.75 0.75 0.75 0.75 1 0.5
          0.875 0.75 0.75 0 0.75 0.5
          1 0.5 0 1 0.75 0.5
          0 0 0.5 0 0 0
          0.25 0 0 0.3333333333333333 0 0
          0 0 0 0 0 0
          0.125 0.125 0.5 0 0 0
          0.25 0 0 0 0.125 0.5
          0 0.25 0.25 0.75 0 1
          0.75 1 0.25 1 1 1
          0.5 0 0 0 0 1
          0.875 1 1 0.625 0.75 0.75
          0.875 0.875 1 1 1 1
          1 0.75 0.75 0.5 0.75 0.625
          1 0 0.25 0.25 0 0
          0 0.625 0.75 0.25 0.25 0.25
          0 0 0.75 0.75 0.5 0.25
          0.5 0.25 0.5 0.875 0.875 0
          0.25 0.25 0.75 0 0.25 0
          0.125 0.75 0.625 0 0 0
          0.5 0.875 1 0.75 1 1
          1 1 1 1 1 1
          1 1 1 1 1 0.75
          0.5 0.5 0.75 0.25 0 0.75
          0.5 0 0 0.5 0 0
          0.5 1 1 1 1 0
          0 0 0 0 0 0
          0 0 0 0 0 0
          0 0 0 0 0 0
          0 0 0 0 0 0
          0 0 0 0 0 0
          0 0 0 0 0 0
          0 0 0 0 0 0
          0 0 0 0 0 0
          0 0 0 0 0 0
          0 0 0 0 0 0
          0 0 0 0 0 0
          0 0 0 0 0 0
          0 0 0 0 0 0
          0 0 0 0 0 0
          0 0 0 0 0 0
          0 0 0 0 0 0
          0 0 0 0 0 0
          0 0 0 0 0 0
          0 0 0 0 0 0
          0 0 0 0 0 0
          0 0 0 0 0 0
          0 0 0 0 0 0
          0 0 0 0 0 0
          0 0 0 0 0 0
          0 0 0 0 0 0
          0 0 1 1 1 1
          1 0.875 0.75 0.75 1 1
          0.625 0.875 1 1 1 1
          1 1 1 1 1 1
          1 0.875 0.75 0.75 0.625 0.5
          0.5 0.5 0.5 0.75 0.625 0.75
          0.875 1 0.5 0.625 1 1
          0.75 1 1 0.875 0.75 1
          1 0.25 0.25 0.25
        </DataArray>
        <DataArray type="Float64" Name="gradient_matprop_marker" format="ascii" RangeMin="0" RangeMax="0">
          0 0 0 0 0 0
          0 0 0 0 0 0
          0 0 0 0 0 0
          0 0 0 0 0 0
          0 0 0 0 0 0
          0 0 0 0 0 0
          0 0 0 0 0 0
          0 0 0 0 0 0
          0 0 0 0 0 0
          0 0 0 0 0 0
          0 0 0 0 0 0
          0 0 0 0 0 0
          0 0 0 0 0 0
          0 0 0 0 0 0
          0 0 0 0 0 0
          0 0 0 0 0 0
          0 0 0 0 0 0
          0 0 0 0 0 0
          0 0 0 0 0 0
          0 0 0 0 0 0
          0 0 0 0 0 0
          0 0 0 0 0 0
          0 0 0 0 0 0
          0 0 0 0 0 0
          0 0 0 0 0 0
          0 0 0 0 0 0
          0 0 0 0 0 0
          0 0 0 0 0 0
          0 0 0 0 0 0
          0 0 0 0 0 0
          0 0 0 0 0 0
          0 0 0 0 0 0
          0 0 0 0 0 0
          0 0 0 0 0 0
          0 0 0 0 0 0
          0 0 0 0 0 0
          0 0 0 0 0 0
          0 0 0 0 0 0
          0 0 0 0 0 0
          0 0 0 0 0 0
          0 0 0 0 0 0
          0 0 0 0 0 0
          0 0 0 0 0 0
          0 0 0 0 0 0
          0 0 0 0 0 0
          0 0 0 0 0 0
          0 0 0 0 0 0
          0 0 0 0 0 0
          0 0 0 0 0 0
          0 0 0 0 0 0
          0 0 0 0 0 0
          0 0 0 0 0 0
          0 0 0 0 0 0
          0 0 0 0 0 0
          0 0 0 0 0 0
          0 0 0 0 0 0
          0 0 0 0 0 0
          0 0 0 0 0 0
          0 0 0 0 0 0
          0 0 0 0 0 0
          0 0 0 0 0 0
          0 0 0 0 0 0
          0 0 0 0 0 0
          0 0 0 0
        </DataArray>
        <DataArray type="Float64" Name="combo" format="ascii" RangeMin="0" RangeMax="2">
          0 1 1 1 0.75 1
          2 1 1 1 1 0.75
          1 1 1 0.75 0.75 0.5
          0.75 0.625 0.5 0.5 0.5 1
          0.75 0.75 0.75 0.75 1 0.5
          0.875 0.75 0.75 2 0.75 0.5
          1 0.5 0 1 0.75 0.5
          0 0 0.5 0 0 0
          0.25 0 0 0.3333333333333333 0 0
          0 0 0 0 0 0
          0.125 0.125 0.5 0 0 0
          0.25 0 0 0 0.125 0.5
          0 0.25 0.25 0.75 0 1
          0.75 1 0.25 1 1 1
          0.5 0 0 0 0 1
          0.875 1 1 0.625 0.75 0.75
          0.875 0.875 1 1 1 1
          1 0.75 0.75 0.5 0.75 0.625
          1 0 0.25 0.25 0 0
          0 0.625 0.75 0.25 0.25 0.25
          0 0 0.75 0.75 0.5 0.75
          0.5 1.25 1 0.875 0.875 2
          0.75 1.25 0.75 2 1.25 2
          1.625 0.75 0.625 2 2 2
          0.5 0.875 1 0.75 1 1
          1 1 1 1 1 1
          1 1 1 1 1 0.75
          1.5 0.75 0.75 0.25 0 0.75
          0.5 2 2 0.5 2 2
          1 1 1 1 1 0
          0 0 0 0 0 0
          0 0 0 0 0 0
          0 0 0 0 0.5 0
          0 0 0 2 1.5 1.3333333333333333
          1 0 0.5 0.25 1.5 1
          0 0.5 1 0.5 1.5 0
          2 1.75 2 2 1.5 1.3333333333333333
          2 2 2 2 0 0
          0 0.5 0.25 1 0.75 0
          0.5 1.5 1.25 1.75 0.6666666666666666 1
          1 1 1 1 0.6666666666666666 2
          2 2 2 0 0.5 0
          0 0 1 0.6666666666666666 0 2
          2 2 2 1.25 1.75 2
          2 2 1.5 2 2 2
          2 2 2 2 2 2
          2 0.25 0.75 0 0 0.5
          1 0 1 1 0 0
          1 1 0 1 0.5 1.5
          0 0 0 0 1.5 1.25
          2 1.75 0.75 1.25 2 2
          2 1.75 0.25 0.5 0 0
          0.75 1 0 2 2 2
          2 2 2 2 2 2
          2 1 1.25 0 0.5 1
          1.5 0 1 1 1 1
          1 0.875 0.75 0.75 1 1
          0.625 0.875 1 1 1 1
          1 1 1 1 1 1
          1 0.875 0.75 0.75 0.625 0.5
          0.5 0.5 0.5 0.75 0.625 0.75
          0.875 1 0.5 0.625 1 1
          0.75 1 1 0.875 0.75 1
          1 0.25 0.25 0.25
        </DataArray>
        <DataArray type="Float64" Name="dHdT" format="ascii" RangeMin="26.235928186248696" RangeMax="138.32310452868677">
          46.83900160436549 33.734271084453724 33.58931694785159 37.02954040038563 33.985238969227595 32.973111435501515
          54.81500663729029 32.930180790920375 33.5583196282987 32.48664276400963 32.697720169169116 32.34745743082582
          36.59005627548904 35.82049336310417 36.60196667604683 36.46912901607056 35.855756257005815 37.90341264000176
          36.62261120399629 32.49942837930625 37.407801166535926 36.81892723634043 38.349636967115266 33.48391718108994
          32.028559431531065 31.47385825282398 28.522835682350724 40.20556337832371 38.09261359446988 48.96102611497065
          37.851945466281 32.106873309374066 31.476344930433708 138.32310452868677 40.238140193964796 47.708774048473735
          33.537430160618214 36.407756389992045 36.65727516975868 36.99163819295475 36.89943923406724 36.12760571106456
          37.04416206179454 36.851078099817904 37.85376704103299 37.16469536403728 37.104455593118345 32.35195917167941
          33.920851741429104 32.393732335908815 37.02115655069154 36.40707953133173 36.37091651114981 37.2503559592967
          36.9588059608951 37.09211730503942 37.26033675203152 38.035108155098754 37.449723500871386 39.945134331346004
          38.816741128063974 37.16356626211319 37.796441900056564 39.02605424840297 38.04836890192486 40.13218471745971
          37.16243716018909 37.14792354115126 36.77886843471717 37.19139148918417 37.080634350455696 36.95539685059048
          36.69847502332904 36.52545379911118 37.14011215021985 37.04504655977276 37.026033535508276 36.680477181132844
          36.32015378793926 36.12937057368025 34.86944790376458 36.29927633747734 35.905180241078924 35.63760454578725
          34.348319548647844 31.565621537023148 31.89818026736552 31.19503173307812 29.945688121431104 36.96597524899241
          36.843350041493224 36.926487044178586 36.74772103240707 36.01823169559534 35.813027116790934 40.906804282352375
          39.48519615196271 39.63594944574793 37.60711236562124 37.33708198822312 36.88639875032033 38.60207301711253
          37.46358301710458 35.612740106117414 35.40185174342159 41.26270697292349 39.477819318143794 41.800761406887204
          38.52654511047586 32.202540525263394 33.77847031278742 33.49162107881941 30.626015637743308 32.24120206837821
          31.926142944692522 36.036471697273626 35.82636786142311 34.92230668487781 33.183539598766934 32.83380029085176
          31.57731449771658 31.188990111956993 35.60525859562983 35.353122497300205 34.34677831146856 56.523311825479645
          43.87520170805286 83.02898894228264 51.814417445964274 39.556835250689744 39.65269163608732 113.61458208548832
          56.657937764897156 80.31140555886479 41.06646125756311 106.84886274252922 68.22768930463066 93.1825180169333
          80.03547705956355 39.33132702218479 41.371798364261466 114.00521091043902 103.88565750616704 91.47516871144961
          40.436079862914546 36.841749935820545 36.73411228612056 36.32735637500813 36.10034941604647 36.96495657740527
          36.90055073966819 36.66648787927375 36.82189967027851 37.3022364551324 35.83875785068011 35.529329706950556
          37.23473980980809 38.37079676428981 36.19289995242515 39.69145668222511 38.22184444813143 35.42856911326464
          56.06140964241391 45.82183156871791 37.41805133054113 32.436277943325535 30.76764987415951 35.275268920975655
          33.529793772733285 69.20373438384027 76.3539821700783 44.77998933102573 45.5087896448623 69.08743200983298
          53.09388150016842 37.92190766410769 35.15927673898716 39.37296098600045 35.580265239745074 39.95130605585671
          47.165762993468974 43.62313053521146 40.080498076953944 47.294955014566206 37.927967884087344 38.84404877834517
          38.36418225465697 41.654106629081554 37.884315730968765 52.33177910921711 47.553574169819335 52.040075212837344
          42.77536923042156 37.570261047968174 49.06342866880151 45.12314036120239 57.95405298898605 41.18285205360326
          49.87297806169079 46.401151561772366 42.92932506185393 90.1438224244676 72.83770953351376 78.70709780509382
          55.53159664255992 43.00261024771625 61.088483763225476 53.270311323105574 91.04953524429742 74.49226658841634
          45.452138882985686 57.93499793253523 73.11353885764944 61.41748228500878 91.03048018784659 49.7214257123681
          113.5939023615215 92.65338803751706 124.80282586879524 106.48093583744972 71.71287371351264 76.89868346769066
          137.0439822985754 112.46906654152039 122.3383925869874 87.89415078446535 46.12961958953963 37.88128038821569
          49.256628931363025 52.74348291082481 49.202033594173685 61.780950013712825 56.56438114363405 45.66058427752255