<?xml version="1.0"?>
<VTKFile type="UnstructuredGrid" version="0.1" byte_order="LittleEndian" header_type="UInt32" compressor="vtkZLibDataCompressor">
  <UnstructuredGrid>
    <Piece NumberOfPoints="431" NumberOfCells="211">
      <PointData>
        <DataArray type="Int32" Name="libmesh_node_id" format="ascii" RangeMin="0" RangeMax="3526">
          0 1 2 3 4 5
          6 7 8 9 10 11
          12 13 14 15 16 17
          18 19 20 21 22 23
          24 25 26 27 40 41
          42 43 44 45 46 47
          48 49 50 51 52 53
          60 61 62 63 64 65
          66 67 68 69 70 71
          72 73 80 81 82 83
          84 85 86 98 99 100
          101 102 103 114 115 116
          128 129 130 131 144 145
          158 159 160 161 174 175
          188 189 190 191 204 205
          210 211 212 213 214 215
          216 217 218 219 220 221
          222 223 224 225 226 227
          228 271 272 273 274 275
          276 277 278 279 280 281
          282 283 284 285 286 287
          288 289 348 349 352 358
          370 371 374 375 377 378
          380 381 383 385 387 392
          395 408 409 410 411 412
          413 414 415 416 417 418
          419 420 421 424 425 428
          434 504 505 506 507 508
          509 510 511 512 513 514
          515 516 517 518 519 520
          521 522 523 524 525 526
          527 528 529 530 531 532
          533 534 535 536 556 557
          558 559 562 563 565 566
          568 757 758 759 760 761
          762 763 764 765 766 767
          768 769 770 771 772 773
          774 775 776 777 778 779
          780 781 782 783 784 785
          786 787 788 789 790 791
          792 793 794 795 796 797
          798 799 800 817 818 819
          820 821 822 823 824 825
          826 827 828 829 830 831
          832 833 834 835 836 837
          838 839 840 841 842 843
          844 845 846 847 848 849
          850 851 852 853 854 857
          858 860 861 862 868 927
          928 929 930 931 932 933
          934 935 936 937 938 939
          940 1500 1501 1502 1503 1504
          1505 1506 1507 1508 1509 1512
          1513 3399 3400 3403 3404 3406
          3407 3451 3453 3455 3456 3458
          3460 3461 3462 3465 3466 3468
          3469 3470 3471 3472 3474 3475
          3476 3478 3479 3481 3482 3484
          3485 3486 3488 3489 3490 3492
          3493 3494 3495 3496 3497 3498
          3499 3500 3501 3502 3503 3505
          3507 3508 3509 3510 3512 3513
          3515 3516 3517 3518 3519 3520
          3521 3522 3523 3524 3525 3526
          90 91 92 93 94 95
          96 97 110 111 112 113
          126 127 143 157 173 372
          376 379 3401 3402 3405 3408
          156 3452 3454 3457 187 3459
          203 3463 3464 3467 3473 373
          3477 3480 3483 3487 186 3491
          382 3504 3506 3511 3514
        </DataArray>
        <DataArray type="Float64" Name="bounds" format="ascii" RangeMin="0" RangeMax="0">
          0 0 0 0 0 0
          0 0 0 0 0 0
          0 0 0 0 0 0
          0 0 0 0 0 0
          0 0 0 0 0 0
          0 0 0 0 0 0
          0 0 0 0 0 0
          0 0 0 0 0 0
          0 0 0 0 0 0
          0 0 0 0 0 0
          0 0 0 0 0 0
          0 0 0 0 0 0
          0 0 0 0 0 0
          0 0 0 0 0 0
          0 0 0 0 0 0
          0 0 0 0 0 0
          0 0 0 0 0 0
          0 0 0 0 0 0
          0 0 0 0 0 0
          0 0 0 0 0 0
          0 0 0 0 0 0
          0 0 0 0 0 0
          0 0 0 0 0 0
          0 0 0 0 0 0
          0 0 0 0 0 0
          0 0 0 0 0 0
          0 0 0 0 0 0
          0 0 0 0 0 0
          0 0 0 0 0 0
          0 0 0 0 0 0
          0 0 0 0 0 0
          0 0 0 0 0 0
          0 0 0 0 0 0
          0 0 0 0 0 0
          0 0 0 0 0 0
          0 0 0 0 0 0
          0 0 0 0 0 0
          0 0 0 0 0 0
          0 0 0 0 0 0
          0 0 0 0 0 0
          0 0 0 0 0 0
          0 0 0 0 0 0
          0 0 0 0 0 0
          0 0 0 0 0 0
          0 0 0 0 0 0
          0 0 0 0 0 0
          0 0 0 0 0 0
          0 0 0 0 0 0
          0 0 0 0 0 0
          0 0 0 0 0 0
          0 0 0 0 0 0
          0 0 0 0 0 0
          0 0 0 0 0 0
          0 0 0 0 0 0
          0 0 0 0 0 0
          0 0 0 0 0 0
          0 0 0 0 0 0
          0 0 0 0 0 0
          0 0 0 0 0 0
          0 0 0 0 0 0
          0 0 0 0 0 0
          0 0 0 0 0 0
          0 0 0 0 0 0
          0 0 0 0 0 0
          0 0 0 0 0 0
          0 0 0 0 0 0
          0 0 0 0 0 0
          0 0 0 0 0 0
          0 0 0 0 0 0
          0 0 0 0 0 0
          0 0 0 0 0 0
          0 0 0 0 0
        </DataArray>
        <DataArray type="Float64" Name="gradient_error" format="ascii" RangeMin="1.5480037890598502e-10" RangeMax="0.000001955463031813805">
          2.0501913614262967e-10 2.171872434397866e-10 2.039588127962694e-10 1.9970789612705117e-10 6.113289221794222e-10 6.628410645448779e-10
          4.738167737845367e-10 4.5577178572182475e-10 2.270678194040693e-10 2.058807805270397e-10 6.980692251134325e-10 4.767544899346962e-10
          2.298209367321886e-10 2.0395587127576122e-10 5.49453106048523e-10 3.8461324770889223e-10 2.368548765964965e-10 2.029016564868888e-10
          3.5374191815994296e-10 2.6708554226345364e-10 2.0722058853566662e-10 1.8461458093858972e-10 2.2057936464883396e-10 1.902801893171623e-10
          1.661110121649648e-10 1.625689935874035e-10 1.5480037890598502e-10 1.5626448462549008e-10 1.9073038215275216e-10 1.9439665611147265e-10
          2.8479248302419537e-10 3.0021464926422726e-10 1.8469374165001012e-10 2.5543975475596005e-10 1.7809080581933384e-10 2.1977338936926153e-10
          1.6894843637728108e-10 1.804291663669643e-10 1.6200857334151285e-10 1.599810139854906e-10 1.5902697500984217e-10 1.5772859034499515e-10
          2.896320230109542e-9 3.001961083328739e-9 2.0600621162778535e-9 2.0485365625146903e-9 2.9233278365616165e-9 1.936915940710959e-9
          2.176526546513369e-9 1.4577318819783776e-9 1.4026956630534928e-9 9.412519453660095e-10 8.103412714407178e-10 5.471642812121453e-10
          2.978013434938853e-10 2.4556323315460634e-10 1.1181631492269685e-9 1.2007528949198387e-9 9.505040448603017e-10 7.389372174433861e-10
          4.798082276785264e-10 2.83987290983573e-10 1.9332512281532743e-10 5.7636572310815045e-9 3.952372518315212e-9 3.34084057998754e-9
          2.201109479015846e-9 9.640089914254135e-10 7.093898511331185e-10 2.141087805548919e-9 1.061378378044152e-9 4.5477071084082323e-10
          2.314510281780587e-8 9.553065953783436e-9 8.884460391338595e-9 5.14857993749041e-9 1.1932066928251497e-8 6.433392588301599e-9
          9.86976208489173e-7 1.2923737178346943e-7 4.341766718576685e-8 4.050872493322111e-8 1.2413707674150072e-8 6.535619958973737e-9
          0.0000016046413448970681 6.515395797546442e-7 3.0312695718722034e-7 5.174739329522737e-8 3.812996070634954e-8 1.6621185838926577e-8
          5.064074438444123e-7 3.1900107583507016e-7 6.087653991413577e-7 0.0000017306231644215335 9.887843120230266e-7 8.279761969625764e-7
          0.0000010973372940930574 5.607966551090617e-8 2.2117685567265782e-7 2.2914910580242615e-7 1.0639611771703542e-7 3.677156840555192e-7
          4.2283922397310293e-7 5.8815640570797556e-8 1.8569869862428212e-7 0.0000011250154878386767 0.0000014754551572789269 2.7041215312565424e-7
          6.127064424357406e-7 2.420293535641096e-7 4.2343113036784396e-7 8.100259320042242e-7 7.155264741600875e-7 3.683997276910311e-7
          5.249611398490746e-7 9.292379301468721e-7 2.7603585911937165e-7 4.41404356015108e-7 4.4331858759288715e-7 4.6757085115708016e-7
          4.5560481154038363e-7 8.49980793626497e-7 3.0644610344914774e-7 2.31051509868871e-7 3.8005438652204583e-7 7.499613894681094e-7
          4.57696390909903e-7 2.9246114318852675e-7 7.453290920162169e-9 4.019406979696114e-8 2.4722408613106974e-8 9.2507474292528e-9
          6.592777877979681e-7 4.6775846595867887e-7 0.0000013084161780239497 7.650000751194819e-7 2.1392725217171875e-7 2.179141844264981e-7
          0.00000120376773334519 9.911484286161928e-7 1.850809062784457e-7 7.375222201317865e-9 2.7677460697869474e-8 9.269188104510739e-9
          4.7979699194421084e-8 0.0000018453256338014016 0.0000015180245101233893 0.0000014433178925400541 0.0000016645242797235516 0.0000014225651894274139
          0.0000014957965371668468 0.000001575280784101673 0.0000011907233864453773 0.0000015730932091295914 0.0000011021615856305621 9.790400260730293e-7
          0.000001478024328790031 0.0000017072436756632915 0.000001955463031813805 1.863904456223294e-8 1.3110517786478315e-7 9.559800998473789e-8
          6.00908421046926e-8 3.371801759799985e-7 3.27284280713906e-7 3.1309994860804725e-7 2.587584859155995e-7 2.802148398785714e-7
          3.2253304553306007e-7 2.9636909583069866e-7 3.5872086158309814e-7 3.0828411558224945e-7 3.541904754297534e-7 3.0389338610522527e-7
          3.3568667427751834e-7 3.1895027373084027e-7 3.6781472801260137e-7 2.0442252837456492e-7 2.8194192787099487e-7 2.600212334146392e-7
          3.107474939445283e-7 3.478010673411758e-7 4.0261636681676903e-7 3.901710054732481e-7 3.4545746083142676e-7 3.9452893047996535e-7
          4.237927552235826e-7 3.92477748019644e-7 4.4198348939688395e-7 3.576093203180822e-7 4.004685690339664e-7 4.3558373902017855e-7
          2.6257559734308284e-7 3.489079631914759e-7 3.97259659177025e-7 4.1626856611196706e-7 4.860084479335299e-7 4.61280205677331e-7
          4.5216539366664873e-7 4.99232675961503e-7 3.57729607559226e-7 4.747715085954452e-7 3.564873196479624e-7 4.5863850137303844e-7
          5.054555499973392e-7 3.0551049228671565e-8 1.7436402195369897e-8 2.1126615701341832e-8 1.3710547811257332e-7 1.028681465363858e-7
          6.037328085973179e-8 8.094079598295599e-8 4.3217551620682304e-9 1.787841518307776e-8 2.4776113853338647e-8 1.4903485455199536e-8
          1.9984196643141187e-8 6.738128088982591e-8 7.491243935415862e-8 3.723199614443129e-9 2.163348595053141e-8 2.130385562512206e-8
          1.1985907632445232e-7 1.2984068206517605e-7 3.9543772286619684e-8 7.959334850667315e-8 6.370071813582129e-8 9.981766330112675e-8
          1.9928026156756265e-7 1.7683477252105285e-7 1.3360015176590934e-7 1.5396478747015597e-7 4.780808776496942e-8 9.036553101076581e-8
          1.0864931337274926e-7 1.1376045101812958e-7 1.352966706038458e-7 1.7126529996744937e-7 1.9627860046492507e-7 7.69766113948658e-8
          1.23546082065703e-7 5.809194479556396e-8 8.192311419475246e-8 1.2795049241986255e-7 2.263448531589236e-8 2.2877014891676913e-7
          2.5726053032600427e-7 1.7011555273654017e-7 1.0575428359394097e-7 2.276626640754595e-7 2.117177415205067e-7 2.214024655399142e-7
          2.69860560869401e-7 2.7300793232643935e-7 2.515810698765967e-7 2.4763419743526983e-7 1.9817361964909242e-7 2.806326223396106e-7
          2.5899094295015523e-7 1.957728189655539e-7 2.3015420742675404e-7 2.254078340011387e-7 2.373492635606998e-7 2.0382879403064206e-7
          1.9212729525701965e-7 2.9036110167220475e-7 2.6615970421753054e-7 1.8560158754516735e-7 3.0002235379816536e-7 2.7323988918779477e-7
          1.8042579648339723e-7 2.419583067628563e-7 2.1601169927478853e-7 2.56569712335164e-7 2.5112179958962207e-7 2.8471704438396464e-7
          2.7626129158515163e-7 2.2681817790790737e-7 2.9307414235546543e-7 1.9576275197553573e-7 2.1209735082850063e-7 2.1698996242235774e-7
          2.0647003744469785e-7 3.1286437643276533e-7 3.014007835806811e-7 3.243750977358718e-7 2.2843194968146555e-7 3.079894416849646e-7
          2.787940269787976e-7 2.0088653046913688e-7 2.097769465641742e-7 2.996628783713687e-7 3.3396715675503413e-7 2.9298693041166755e-7
          2.882279206218579e-7 2.597335073660838e-7 2.470994368323094e-7 2.480242111656707e-7 2.6860071481125005e-7 2.538069124556118e-7
          2.834689108320482e-7 2.8917721845682935e-7 2.605143880789143e-7 2.0306149191967383e-7 2.4897350900064217e-7 2.478803175451399e-7
          2.9488552608161045e-7 2.4286488345690797e-7 2.3745876674949015e-7 2.6770104698554473e-7 2.631930900987461e-7 2.088263794937671e-7
          2.2887999660360172e-7 2.3749477049656696e-7 2.925372105141815e-7 2.88927413448002e-7 2.489336137134363e-7 1.160304628502685e-7
          1.2321228241477723e-7 2.8269138411218152e-8 1.628298779652329e-8 1.2270089425944904e-7 7.473067156785325e-8 4.29683718182843e-9
          2.6760448876257463e-8 1.9068554027859758e-8 4.77077671120147e-8 4.291003120787116e-9 1.357154887148601e-8 7.634698019616965e-8
          2.2852094622184903e-8 2.59544751434096e-7 2.101562884355781e-7 3.2975897095674434e-7 2.76253249095042e-7 2.1923671723363196e-7
          3.2307831271562894e-7 2.684399292926619e-7 1.607678254370602e-7 2.227475272333397e-7 2.1380154586969485e-7 8.645468118653575e-7
          7.563687751912561e-7 9.502675123215179e-7 5.561145632214864e-7 0.000001194720715685136 0.000001181275119962675 0.0000013353964658821405
          0.0000013006163036388086 8.175838358197961e-7 8.468994531441142e-7 0.0000010603209981189497 0.0000011921628992973437 0.000001334652909471186
          9.433594413221722e-7 0.000001596651787664854 0.0000013570396228313555 0.0000014882302781167842 0.0000014316130646331185 7.054079044141312e-7
          8.720935659490571e-7 0.0000013798087685687144 0.0000015061865064348818 0.000001038779227483983 2.620606173957785e-7 3.288982529512273e-7
          2.442119670708341e-7 3.113756631409022e-7 1.5215902216140753e-7 1.9045835850307664e-7 1.947885613890526e-7 3.957358885066762e-7
          3.785393592109702e-7 2.2875769484474568e-7 2.2266731512765816e-7 2.890686839352689e-7 2.1094819178652236e-7 2.7665858299902034e-7
          1.5194627942491078e-7 2.0894608712187668e-7 2.1890698606594249e-7 3.554700527428797e-7 3.4236897421151826e-7 2.6594589481884253e-7
          1.3981267738085495e-8 1.3964627648263504e-8 9.677711069215601e-9 9.888819436222507e-9 1.2697804187669225e-8 8.613426775517037e-9
          9.007311361087984e-9 6.227392072250775e-9 5.390794490167699e-9 5.7963711343595195e-9 4.529049363364846e-9 3.4474727834135662e-9
          1.6223552504031266e-8 1.2418387187003047e-8 1.5684737379093715e-8 1.9628677474501669e-7 1.5619272574390796e-8 2.5551806091340587e-7
          5.907694198193442e-7 2.331249662960627e-7 1.0844934594429562e-8 7.36880135930217e-8 4.911125037199573e-8 2.4534487150969766e-8
          1.823520359504153e-7 1.4913688700142353e-8 2.9287653019150226e-8 1.6499527923466627e-8 1.4301178884530456e-7 4.3661617338158096e-8
          2.745145835147955e-8 1.9634039498377818e-7 3.4177296045254653e-7 2.9030642868093796e-7 2.3883989690932945e-7 8.247085879609934e-7
          7.320781446080093e-7 0.00000106986655986125 0.000001075268691692265 7.861832146250528e-7 9.386173698872708e-7 0.000001070653556546609
          8.958897470487759e-7 2.7638447665567584e-7 3.4200262639218215e-7 1.9230964705753847e-7 4.0762077612868845e-7
        </DataArray>
        <DataArray type="Float64" Name="gradient_matprop_error" format="ascii" RangeMin="0" RangeMax="0">
          0 0 0 0 0 0
          0 0 0 0 0 0
          0 0 0 0 0 0
          0 0 0 0 0 0
          0 0 0 0 0 0
          0 0 0 0 0 0
          0 0 0 0 0 0
          0 0 0 0 0 0
          0 0 0 0 0 0
          0 0 0 0 0 0
          0 0 0 0 0 0
          0 0 0 0 0 0
          0 0 0 0 0 0
          0 0 0 0 0 0
          0 0 0 0 0 0
          0 0 0 0 0 0
          0 0 0 0 0 0
          0 0 0 0 0 0
          0 0 0 0 0 0
          0 0 0 0 0 0
          0 0 0 0 0 0
          0 0 0 0 0 0
          0 0 0 0 0 0
          0 0 0 0 0 0
          0 0 0 0 0 0
          0 0 0 0 0 0
          0 0 0 0 0 0
          0 0 0 0 0 0
          0 0 0 0 0 0
          0 0 0 0 0 0
          0 0 0 0 0 0
          0 0 0 0 0 0
          0 0 0 0 0 0
          0 0 0 0 0 0
          0 0 0 0 0 0
          0 0 0 0 0 0
          0 0 0 0 0 0
          0 0 0 0 0 0
          0 0 0 0 0 0
          0 0 0 0 0 0
          0 0 0 0 0 0
          0 0 0 0 0 0
          0 0 0 0 0 0
          0 0 0 0 0 0
          0 0 0 0 0 0
          0 0 0 0 0 0
          0 0 0 0 0 0
          0 0 0 0 0 0
          0 0 0 0 0 0
          0 0 0 0 0 0
          0 0 0 0 0 0
          0 0 0 0 0 0
          0 0 0 0 0 0
          0 0 0 0 0 0
          0 0 0 0 0 0
          0 0 0 0 0 0
          0 0 0 0 0 0
          0 0 0 0 0 0
          0 0 0 0 0 0
          0 0 0 0 0 0
          0 0 0 0 0 0
          0 0 0 0 0 0
          0 0 0 0 0 0
          0 0 0 0 0 0
          0 0 0 0 0 0
          0 0 0 0 0 0
          0 0 0 0 0 0
          0 0 0 0 0 0
          0 0 0 0 0 0
          0 0 0 0 0 0
          0 0 0 0 0 0
          0 0 0 0 0
        </DataArray>
        <DataArray type="Float64" Name="initial_marker" format="ascii" RangeMin="0" RangeMax="2">
          0 0 0 0 0 0
          0 0 0 0 0 0
          0 0 0 0 0 0
          0 0 0 0 0 0
          0 0 0 0 0 0
          0 0 0 0 0 0
          0 0 0 0 0 0
          0 0 0 0 0 0
          0 0 0 0 0 0
          0 0 0 0 0 0
          0 0 0 0 0 0
          0 0 0 0 0 0
          0 0 0 0 0 0
          0 0 0 0 0 0
          0 0 2 0 0 0
          0 0 0 0 0 0
          0 0 0 0 0 0
          0 0 1 0 0 0
          0 0 0 0 0 1
          0 0 0 1 0.5 0
          0 0 0 2 0.5 0
          1 0 0 0 0 0
          0 0 0 0 0 0
          0 0 0 0 0 0
          0 0 0 0 0 0
          0 0 0 0 0 0
          0 0 0 0 0 0
          0 0.5 0.25 0 0.5 1.5
          0.75 0.25 0.5 2 1.25 0
          0 0 0.25 2 1 0.5
          1.5 0 1 0.75 2 1.75
          1 2 2 0.3333333333333333 0.75 1
          2 2 2 1 1 1
          2 2 0.5 1 2 2
          1 0 0 0 0 0
          0 0 0 0 0 0
          0 0 0 0 0 0
          0 0 0 0 0 0
          0 0 0 0 0 0
          0 0 0 0 0 0
          0 0 0 0 0 0
          0 0 0 0 0 0
          0 0 0 0 0 0
          0 0 0 0 0 0
          0 0 0 0 0 0
          0 0 0 0 0 0
          0 0 0 0 0 0
          0 0 0 0 0 0
          0 0 0 0 0 0
          0 0 0 0 0 0
          0 0 0 0 0 0
          0 0 0 0 0 0
          0 0 0 0 0 0
          0 0 0 0 0 0
          0 0 0 0 0 0
          0 0 0 0 0 0
          0 0 0 0 0 0
          0 0 0 0 0 0
          0 0 0 0 0 0
          0 0 0 0 0 0
          0 0 0 0 0 0
          0 0 0 0 0 0
          0 0 0 0 0 0
          0 0 0 0 0 0
          0 0 0 0 0 0
          0 0 0 0 0 0
          0 0 0 0 0 0
          0 0 0 0 0 0
          0 0 0 0 0 0
          0 0 0 0 0 0
          0 0 0 0 0 0
          0 0 0 0 0
        </DataArray>
        <DataArray type="Float64" Name="markers_norefine" format="ascii" RangeMin="0" RangeMax="0">
          0 0 0 0 0 0
          0 0 0 0 0 0
          0 0 0 0 0 0
          0 0 0 0 0 0
          0 0 0 0 0 0
          0 0 0 0 0 0
          0 0 0 0 0 0
          0 0 0 0 0 0
          0 0 0 0 0 0
          0 0 0 0 0 0
          0 0 0 0 0 0
          0 0 0 0 0 0
          0 0 0 0 0 0
          0 0 0 0 0 0
          0 0 0 0 0 0
          0 0 0 0 0 0
          0 0 0 0 0 0
          0 0 0 0 0 0
          0 0 0 0 0 0
          0 0 0 0 0 0
          0 0 0 0 0 0
          0 0 0 0 0 0
          0 0 0 0 0 0
          0 0 0 0 0 0
          0 0 0 0 0 0
          0 0 0 0 0 0
          0 0 0 0 0 0
          0 0 0 0 0 0
          0 0 0 0 0 0
          0 0 0 0 0 0
          0 0 0 0 0 0
          0 0 0 0 0 0
          0 0 0 0 0 0
          0 0 0 0 0 0
          0 0 0 0 0 0
          0 0 0 0 0 0
          0 0 0 0 0 0
          0 0 0 0 0 0
          0 0 0 0 0 0
          0 0 0 0 0 0
          0 0 0 0 0 0
          0 0 0 0 0 0
          0 0 0 0 0 0
          0 0 0 0 0 0
          0 0 0 0 0 0
          0 0 0 0 0 0
          0 0 0 0 0 0
          0 0 0 0 0 0
          0 0 0 0 0 0
          0 0 0 0 0 0
          0 0 0 0 0 0
          0 0 0 0 0 0
          0 0 0 0 0 0
          0 0 0 0 0 0
          0 0 0 0 0 0
          0 0 0 0 0 0
          0 0 0 0 0 0
          0 0 0 0 0 0
          0 0 0 0 0 0
          0 0 0 0 0 0
          0 0 0 0 0 0
          0 0 0 0 0 0
          0 0 0 0 0 0
          0 0 0 0 0 0
          0 0 0 0 0 0
          0 0 0 0 0 0
          0 0 0 0 0 0
          0 0 0 0 0 0
          0 0 0 0 0 0
          0 0 0 0 0 0
          0 0 0 0 0 0
          0 0 0 0 0
        </DataArray>
        <DataArray type="Float64" Name="markers_mustrefine" format="ascii" RangeMin="0" RangeMax="2">
          0 0 0 0 0 0
          0 0 0 0 0 0
          0 0 0 0 0 0
          0 0 0 0 0 0
          0 0 0 0 0 0
          0 0 0 0 0 0
          0 0 0 0 0 0
          0 0 0 0 0 0
          0 0 0 0 0 0
          0 0 0 0 0 0
          0 0 0 0 0 0
          0 0 0 0 0 0
          0 0 0 0 0 0
          0 0 0 0 0 0
          0 0 2 0 0 0
          0 0 0 0 0 0
          0 0 0 0 0 0
          0 0 1 0 0 0
          0 0 0 0 0 1
          0 0 0 1 0.5 0
          0 0 0 2 0.5 0
          1 0 0 0 0 0
          0 0 0 0 0 0
          0 0 0 0 0 0
          0 0 0 0 0 0
          0 0 0 0 0 0
          0 0 0 0 0 0
          0 0.5 0.25 0 0.5 1.5
          0.75 0.25 0.5 2 1.25 0
          0 0 0.25 2 1 0.5
          1.5 0 1 0.75 2 1.75
          1 2 2 0.3333333333333333 0.75 1
          2 2 2 1 1 1
          2 2 0.5 1 2 2
          1 0 0 0 0 0
          0 0 0 0 0 0
          0 0 0 0 0 0
          0 0 0 0 0 0
          0 0 0 0 0 0
          0 0 0 0 0 0
          0 0 0 0 0 0
          0 0 0 0 0 0
          0 0 0 0 0 0
          0 0 0 0 0 0
          0 0 0 0 0 0
          0 0 0 0 0 0
          0 0 0 0 0 0
          0 0 0 0 0 0
          0 0 0 0 0 0
          0 0 0 0 0 0
          0 0 0 0 0 0
          0 0 0 0 0 0
          0 0 0 0 0 0
          0 0 0 0 0 0
          0 0 0 0 0 0
          0 0 0 0 0 0
          0 0 0 0 0 0
          0 0 0 0 0 0
          0 0 0 0 0 0
          0 0 0 0 0 0
          0 0 0 0 0 0
          0 0 0 0 0 0
          0 0 0 0 0 0
          0 0 0 0 0 0
          0 0 0 0 0 0
          0 0 0 0 0 0
          0 0 0 0 0 0
          0 0 0 0 0 0
          0 0 0 0 0 0
          0 0 0 0 0 0
          0 0 0 0 0 0
          0 0 0 0 0
        </DataArray>
        <DataArray type="Float64" Name="gradient_marker" format="ascii" RangeMin="0.5" RangeMax="1">
          1 1 1 1 1 1
          1 1 1 1 1 1
          1 1 1 1 1 1
          1 1 1 1 1 1
          1 1 1 1 1 1
          1 1 1 1 1 1
          1 1 1 1 1 1
          1 1 1 1 1 1
          1 1 1 1 1 1
          1 1 1 1 1 1
          1 1 1 1 1 1
          1 1 1 1 1 1
          1 1 1 1 1 1
          1 1 1 1 1 1
          1 1 1 1 1 1
          1 1 1 1 1 1
          1 1 1 0.875 1 1
          1 1 1 1 1 1
          1 1 1 1 1 1
          1 1 1 1 1 1
          1 1 1 1 1 1
          1 1 1 1 1 1
          1 1 1 1 1 1
          1 1 1 1 1 1
          1 1 1 1 1 1
          1 1 1 1 1 1
          1 1 1 1 1 1
          1 1 1 1 1 1
          1 1 1 1 1 1
          1 1 1 1 1 1
          1 1 1 1 1 1
          1 1 1 1 1 1
          1 1 1 1 1 1
          1 1 1 1 1 1
          1 1 1 1 1 1
          1 1 1 1 1 1
          1 1 1 1 1 1
          1 1 1 1 1 1
          1 1 1 1 1 1
          1 1 1 1 1 1
          1 1 1 1 1 1
          1 1 1 1 1 1
          1 1 1 1 1 1
          1 1 1 1 1 1
          1 1 1 1 1 1
          1 1 1 1 1 1
          1 1 1 1 1 1
          1 1 1 1 1 1
          1 0.875 0.875 1 1 1
          1 1 1 1 1 1
          1 1 1 1 1 1
          1 1 1 1 1 1
          1 1 1 1 1 0.5
          0.75 1 1 1 1 1
          1 1 1 1 1 1
          1 1 1 1 1 1
          1 1 1 1 1 1
          1 1 1 1 1 1
          1 1 1 1 1 1
          1 1 1 1 1 1
          1 1 1 1 1 1
          1 1 1 1 1 1
          1 1 1 1 1 1
          1 1 1 1 1 1
          1 1 1 1 1 1
          1 1 1 1 1 1
          1 1 1 1 1 1
          1 1 1 1 1 1
          1 1 1 1 1 1
          1 1 1 1 1 1
          1 1 1 1 1 1
          1 1 1 1 1
        </DataArray>
        <DataArray type="Float64" Name="gradient_matprop_marker" format="ascii" RangeMin="0" RangeMax="0">
          0 0 0 0 0 0
          0 0 0 0 0 0
          0 0 0 0 0 0
          0 0 0 0 0 0
          0 0 0 0 0 0
          0 0 0 0 0 0
          0 0 0 0 0 0
          0 0 0 0 0 0
          0 0 0 0 0 0
          0 0 0 0 0 0
          0 0 0 0 0 0
          0 0 0 0 0 0
          0 0 0 0 0 0
          0 0 0 0 0 0
          0 0 0 0 0 0
          0 0 0 0 0 0
          0 0 0 0 0 0
          0 0 0 0 0 0
          0 0 0 0 0 0
          0 0 0 0 0 0
          0 0 0 0 0 0
          0 0 0 0 0 0
          0 0 0 0 0 0
          0 0 0 0 0 0
          0 0 0 0 0 0
          0 0 0 0 0 0
          0 0 0 0 0 0
          0 0 0 0 0 0
          0 0 0 0 0 0
          0 0 0 0 0 0
          0 0 0 0 0 0
          0 0 0 0 0 0
          0 0 0 0 0 0
          0 0 0 0 0 0
          0 0 0 0 0 0
          0 0 0 0 0 0
          0 0 0 0 0 0
          0 0 0 0 0 0
          0 0 0 0 0 0
          0 0 0 0 0 0
          0 0 0 0 0 0
          0 0 0 0 0 0
          0 0 0 0 0 0
          0 0 0 0 0 0
          0 0 0 0 0 0
          0 0 0 0 0 0
          0 0 0 0 0 0
          0 0 0 0 0 0
          0 0 0 0 0 0
          0 0 0 0 0 0
          0 0 0 0 0 0
          0 0 0 0 0 0
          0 0 0 0 0 0
          0 0 0 0 0 0
          0 0 0 0 0 0
          0 0 0 0 0 0
          0 0 0 0 0 0
          0 0 0 0 0 0
          0 0 0 0 0 0
          0 0 0 0 0 0
          0 0 0 0 0 0
          0 0 0 0 0 0
          0 0 0 0 0 0
          0 0 0 0 0 0
          0 0 0 0 0 0
          0 0 0 0 0 0
          0 0 0 0 0 0
          0 0 0 0 0 0
          0 0 0 0 0 0
          0 0 0 0 0 0
          0 0 0 0 0 0
          0 0 0 0 0
        </DataArray>
        <DataArray type="Float64" Name="combo" format="ascii" RangeMin="0.5" RangeMax="1">
          1 1 1 1 1 1
          1 1 1 1 1 1
          1 1 1 1 1 1
          1 1 1 1 1 1
          1 1 1 1 1 1
          1 1 1 1 1 1
          1 1 1 1 1 1
          1 1 1 1 1 1
          1 1 1 1 1 1
          1 1 1 1 1 1
          1 1 1 1 1 1
          1 1 1 1 1 1
          1 1 1 1 1 1
          1 1 1 1 1 1
          1 1 1 1 1 1
          1 1 1 1 1 1
          1 1 1 0.875 1 1
          1 1 1 1 1 1
          1 1 1 1 1 1
          1 1 1 1 1 1
          1 1 1 1 1 1
          1 1 1 1 1 1
          1 1 1 1 1 1
          1 1 1 1 1 1
          1 1 1 1 1 1
          1 1 1 1 1 1
          1 1 1 1 1 1
          1 1 1 1 1 1
          1 1 1 1 1 1
          1 1 1 1 1 1
          1 1 1 1 1 1
          1 1 1 1 1 1
          1 1 1 1 1 1
          1 1 1 1 1 1
          1 1 1 1 1 1
          1 1 1 1 1 1
          1 1 1 1 1 1
          1 1 1 1 1 1
          1 1 1 1 1 1
          1 1 1 1 1 1
          1 1 1 1 1 1
          1 1 1 1 1 1
          1 1 1 1 1 1
          1 1 1 1 1 1
          1 1 1 1 1 1
          1 1 1 1 1 1
          1 1 1 1 1 1
          1 1 1 1 1 1
          1 0.875 0.875 1 1 1
          1 1 1 1 1 1
          1 1 1 1 1 1
          1 1 1 1 1 1
          1 1 1 1 1 0.5
          0.75 1 1 1 1 1
          1 1 1 1 1 1
          1 1 1 1 1 1
          1 1 1 1 1 1
          1 1 1 1 1 1
          1 1 1 1 1 1
          1 1 1 1 1 1
          1 1 1 1 1 1
          1 1 1 1 1 1
          1 1 1 1 1 1
          1 1 1 1 1 1
          1 1 1 1 1 1
          1 1 1 1 1 1
          1 1 1 1 1 1
          1 1 1 1 1 1
          1 1 1 1 1 1
          1 1 1 1 1 1
          1 1 1 1 1 1
          1 1 1 1 1
        </DataArray>
        <DataArray type="Float64" Name="dHdT" format="ascii" RangeMin="25.79052576197019" RangeMax="39.358880217724206">
          25.811460448931733 25.811458631419242 25.811462984639398 25.811463962281373 25.8114886837022 25.81149003484975
          25.811483525628212 25.8114827319987 25.811456519256396 25.811461825360226 25.811490811992456 25.811484134289998
          25.81146131336835 25.811464109107177 25.811484255866176 25.811481106067834 25.81146911811998 25.811467817789726
          25.811475304292934 25.811476952716127 25.811469543630153 25.811467851519666 25.811474927634244 25.811477044292108
          25.811466506956172 25.811466233086605 25.811478517675845 25.81147900186047 25.811467337859554 25.811467475631012
          25.811477016406677 25.81147678029521 25.811467131464052 25.811477456587543 25.811466904846007 25.811477956269496
          25.81146651745947 25.811478601139324 25.811466159409186 25.811479160949972 25.81146595921704 25.8114794860451
          25.811461260358822 25.811457261488254 25.811489598274175 25.811492260902092 25.811457851659764 25.81148856137785
          25.811488456219625 25.81150235366396 25.811526823611455 25.811519792885367 25.811527990759902 25.81151891517549
          25.811512131559383 25.811510125528116 25.811521935060092 25.811523261445366 25.81151927109594 25.811516251108294
          25.811512762159282 25.811509839591075 25.811508119496843 25.811439570981875 25.81147433153028 25.811437571967666
          25.811480749826075 25.811504610697867 25.811518677728827 25.81150909207869 25.81152392768449 25.811532744759788
          25.815576414516073 25.811833764548723 25.812250076755582 25.811638994056437 25.811778495284493 25.81168772498565
          25.981398205906107 25.827133724763307 25.8004499141974 25.815721798726855 25.812043236178077 25.811799723514593
          34.38288271163022 25.94316309139006 37.36235900381233 25.803123053103512 25.81691530122878 25.813207921940098
          25.89215099085002 25.85958553432499 25.913282104238895 27.86140408814675 27.538779917245066 26.370839201789785
          26.47730609103147 25.81456908334532 26.838609388717995 26.09654756724903 25.82357830899281 25.868695331678577
          25.882693014931746 25.81522434176304 39.358880217724206 27.723641808425942 28.143750033514593 27.00784183121003
          25.91351024262156 27.04744423863772 26.722325797822077 27.388886253128344 33.31837256554813 33.99800359240828
          30.296225059226956 30.151704728086337 26.522001276976898 33.97507163650499 30.313244741695364 26.422539460442476
          26.802921071564977 27.489856539213534 26.594504299500283 38.40891863254255 34.2861138131968 33.59382278670335
          34.232938279035196 27.24398510285884 25.81254086582896 25.806171273346052 25.808429867185808 25.810688461025563
          25.95481228789252 25.89661181430792 27.924494596373428 26.591629205515325 25.842154885079026 25.863997077321496
          33.25436604594524 28.248601028383078 25.9097188503697 25.810831178870835 25.808179761956737 25.812476128837787