<?xml version="1.0"?>
<VTKFile type="UnstructuredGrid" version="0.1" byte_order="LittleEndian" header_type="UInt32" compressor="vtkZLibDataCompressor">
  <UnstructuredGrid>
    <Piece NumberOfPoints="380" NumberOfCells="207">
      <PointData>
        <DataArray type="Int32" Name="libmesh_node_id" format="ascii" RangeMin="90" RangeMax="3790">
          90 91 92 93 94 95
          96 97 110 111 112 113
          120 121 122 123 124 125
          126 127 140 141 142 143
          150 151 152 153 154 155
          156 157 170 171 172 173
          180 181 182 183 184 185
          186 187 200 201 202 203
          372 373 376 379 382 3401
          3402 3405 3408 3409 3410 3411
          3412 3413 3414 3415 3416 3417
          3418 3419 3420 3421 3422 3423
          3424 3425 3426 3427 3428 3429
          3430 3431 3432 3433 3434 3435
          3436 3437 3438 3439 3440 3441
          3442 3443 3444 3445 3446 3447
          3448 3449 3450 3452 3454 3457
          3459 3463 3464 3467 3473 3477
          3480 3483 3487 3491 3504 3506
          3511 3514 3527 3528 3529 3530
          3531 3532 3533 3534 3535 3536
          3537 3538 3539 3540 3541 3542
          3543 3544 3545 3546 3547 3548
          3549 3550 3551 3552 3553 3554
          3555 3556 3557 3558 3559 3560
          3561 3562 3563 3564 3565 3566
          3567 3568 3569 3570 3571 3572
          3573 3574 3575 3576 3577 3578
          3579 3580 3581 3582 3583 3584
          3585 3586 3587 3588 3589 3590
          3591 3592 3593 3594 3595 3596
          3597 3598 3599 3600 3601 3602
          3603 3604 3605 3606 3607 3608
          3609 3610 3611 3612 3613 3614
          3615 3616 3617 3618 3619 3620
          3621 3622 3623 3624 3625 3626
          3627 3628 3629 3630 3631 3632
          3633 3634 3635 3636 3637 3638
          3639 3640 3641 3642 3643 3644
          3645 3646 3647 3648 3649 3650
          3651 3652 3653 3654 3655 3656
          3657 3658 3659 3660 3661 3662
          3663 3664 3665 3666 3667 3668
          3669 3670 3671 3672 3673 3674
          3675 3676 3677 3678 3679 3680
          3681 3682 3683 3684 3685 3686
          3687 3688 3689 3690 3691 3692
          3693 3694 3695 3696 3697 3698
          3699 3700 3701 3702 3703 3704
          3705 3706 3707 3708 3709 3710
          3711 3712 3713 3714 3715 3716
          3717 3718 3719 3720 3721 3722
          3723 3724 3725 3726 3727 3728
          3729 3730 3731 3732 3733 3734
          3735 3736 3737 3738 3739 3740
          3741 3742 3743 3744 3745 3746
          3747 3748 3749 3750 3751 3752
          3753 3754 3755 3756 3757 3758
          3759 3760 3761 3762 3763 3764
          3765 3766 3767 3768 3769 3770
          3771 3772 3773 3774 3775 3776
          3777 3778 3779 3780 3781 3782
          3783 3784 3785 3786 3787 3788
          3789 3790
        </DataArray>
        <DataArray type="Float64" Name="bounds" format="ascii" RangeMin="0" RangeMax="0">
          0 0 0 0 0 0
          0 0 0 0 0 0
          0 0 0 0 0 0
          0 0 0 0 0 0
          0 0 0 0 0 0
          0 0 0 0 0 0
          0 0 0 0 0 0
          0 0 0 0 0 0
          0 0 0 0 0 0
          0 0 0 0 0 0
          0 0 0 0 0 0
          0 0 0 0 0 0
          0 0 0 0 0 0
          0 0 0 0 0 0
          0 0 0 0 0 0
          0 0 0 0 0 0
          0 0 0 0 0 0
          0 0 0 0 0 0
          0 0 0 0 0 0
          0 0 0 0 0 0
          0 0 0 0 0 0
          0 0 0 0 0 0
          0 0 0 0 0 0
          0 0 0 0 0 0
          0 0 0 0 0 0
          0 0 0 0 0 0
          0 0 0 0 0 0
          0 0 0 0 0 0
          0 0 0 0 0 0
          0 0 0 0 0 0
          0 0 0 0 0 0
          0 0 0 0 0 0
          0 0 0 0 0 0
          0 0 0 0 0 0
          0 0 0 0 0 0
          0 0 0 0 0 0
          0 0 0 0 0 0
          0 0 0 0 0 0
          0 0 0 0 0 0
          0 0 0 0 0 0
          0 0 0 0 0 0
          0 0 0 0 0 0
          0 0 0 0 0 0
          0 0 0 0 0 0
          0 0 0 0 0 0
          0 0 0 0 0 0
          0 0 0 0 0 0
          0 0 0 0 0 0
          0 0 0 0 0 0
          0 0 0 0 0 0
          0 0 0 0 0 0
          0 0 0 0 0 0
          0 0 0 0 0 0
          0 0 0 0 0 0
          0 0 0 0 0 0
          0 0 0 0 0 0
          0 0 0 0 0 0
          0 0 0 0 0 0
          0 0 0 0 0 0
          0 0 0 0 0 0
          0 0 0 0 0 0
          0 0 0 0 0 0
          0 0 0 0 0 0
          0 0
        </DataArray>
        <DataArray type="Float64" Name="gradient_error" format="ascii" RangeMin="3.4474727834135662e-9" RangeMax="0.000001075268691692265">
          1.3981267738085495e-8 1.3964627648263504e-8 9.677711069215601e-9 9.888819436222507e-9 1.2697804187669225e-8 8.613426775517037e-9
          9.007311361087984e-9 6.227392072250775e-9 5.390794490167699e-9 5.7963711343595195e-9 4.529049363364846e-9 3.4474727834135662e-9
          3.6682236579297856e-8 3.445444363206879e-8 2.11495962055908e-8 2.3253835515370614e-8 2.720798345571335e-8 1.676976151354188e-8
          1.6223552504031266e-8 1.2418387187003047e-8 2.342754958458763e-8 2.575225599628981e-8 1.9026076436349333e-8 1.5684737379093715e-8
          2.3633220986457166e-7 2.0045486648869396e-7 3.15187238896e-7 3.510422134552156e-7 1.4082091473760502e-7 2.5305515690863566e-7
          1.823520359504153e-7 1.9628677474501669e-7 2.632243099656688e-8 2.9119365065575208e-8 2.0642106560098294e-8 1.5619272574390796e-8
          3.229797004059206e-7 4.130871815708767e-7 2.7522769430256695e-7 3.165602035024387e-7 5.991559892271525e-7 1.9892599742838218e-7
          9.386173698872708e-7 1.4301178884530456e-7 5.084009091051724e-8 5.0082718871853536e-8 4.755788298161294e-8 2.745145835147955e-8
          2.5551806091340587e-7 8.247085879609934e-7 5.907694198193442e-7 2.331249662960627e-7 8.958897470487759e-7 1.0844934594429562e-8
          7.36880135930217e-8 4.911125037199573e-8 2.4534487150969766e-8 2.2546127482054403e-7 4.0867606569882743e-7 4.2145579709345295e-7
          4.875847455316749e-7 5.124525002038815e-7 6.175034967525713e-7 6.122363198687459e-7 3.77350817754955e-7 5.611319541993688e-7
          6.246693989088122e-7 4.4079841831257555e-7 4.5611495305514237e-7 4.702811464757731e-7 4.2111807133823645e-7 3.5294912890826195e-7
          5.300840611764739e-7 5.026475052867828e-7 5.843063878985957e-7 3.0420583889576507e-7 1.6994950032828892e-7 3.3834644107293585e-7
          6.177064765643066e-7 6.277662082807319e-7 2.985419692128693e-7 6.808574070305294e-7 6.24968955634146e-7 3.67114981945602e-7
          3.758512603329172e-7 3.2525292959499275e-7 4.928795690880276e-7 6.485408401381224e-7 7.220394011134346e-7 2.388041838809877e-7
          1.3680426938365622e-7 2.678511450302561e-7 7.501054977480114e-7 6.13679956284175e-7 2.8962414236012327e-7 2.732296825100899e-7
          7.429795532418506e-7 8.049044456573363e-7 1.5883759212429503e-7 1.4913688700142353e-8 2.9287653019150226e-8 1.6499527923466627e-8
          4.3661617338158096e-8 1.9634039498377818e-7 3.4177296045254653e-7 2.9030642868093796e-7 2.3883989690932945e-7 7.320781446080093e-7
          0.00000106986655986125 0.000001075268691692265 7.861832146250528e-7 0.000001070653556546609 2.7638447665567584e-7 3.4200262639218215e-7
          1.9230964705753847e-7 4.0762077612868845e-7 4.900502968892343e-8 3.3146061045297695e-8 3.425011788958115e-8 1.4374969188506268e-7
          1.3430104214349559e-7 8.671971191988062e-8 9.38829982915931e-8 3.029225844314325e-8 1.1079369888669657e-7 6.933148703261933e-8
          1.7287092401671965e-8 3.913838169626565e-8 4.401630469812354e-8 2.786927517854207e-8 4.109874873075717e-8 2.6311584613149466e-8
          8.111990360235526e-8 4.9694562559406964e-8 2.1003406713409758e-8 5.0918454851135914e-8 3.3764704407490905e-8 1.1524420495541766e-8
          1.8269221516458676e-8 1.6610953963845895e-8 2.231479117687602e-8 1.3853157509645188e-8 4.049969303166914e-8 3.0471364144960615e-8
          5.391523842414354e-9 2.0443035258252095e-8 6.31935655989768e-8 6.88263729256792e-8 1.2837056286506295e-7 1.3643590883357002e-7
          4.9534696811057945e-8 1.085455707986656e-7 1.588408131363627e-8 3.311761988793283e-8 3.3207103065860336e-8 3.277698550012642e-8
          1.935475601311491e-7 2.0404544474146082e-7 1.6755644478627328e-7 5.03511584622294e-8 3.369592751280739e-8 8.432249575085735e-8
          2.0017467451979136e-8 5.969495137613013e-8 1.2971624754013345e-8 3.1701654124856703e-8 2.9136609816990934e-8 1.349490639889073e-7
          9.937243530028114e-8 5.043168349570005e-8 1.3411533212205647e-8 3.783218073057686e-8 8.137760560689629e-9 2.437428102138865e-8
          6.225282824894807e-8 4.0610801482087675e-8 2.342040733048923e-7 2.2027150941137076e-7 2.214511835367359e-7 3.4022428313412283e-7
          3.4161551309024934e-7 3.1084668111693744e-7 3.1005650903507743e-7 2.1727024909342656e-7 3.450496173521763e-7 3.1277458307741105e-7
          2.0633894551784923e-7 2.8007784914362554e-7 2.798887349360321e-7 2.8049954880264583e-7 4.946128671783278e-7 4.747651209013985e-7
          4.6886540199170753e-7 4.897556475425454e-7 4.2980450031605204e-7 2.2818370182885724e-7 2.137868518610293e-7 3.493953572398431e-7
          3.15252703885432e-7 2.1021293339971794e-7 3.5378477229662605e-7 3.1767138257082736e-7 1.9939000189320137e-7 2.8111005053102087e-7
          2.815579928450287e-7 5.355500633415688e-7 5.09329283420919e-7 5.310340155567621e-7 4.5274142922019385e-7 4.265213002972351e-7
          4.358994298835924e-7 4.916007868279208e-7 4.823341375035027e-7 4.5954019482734643e-7 5.151278915469183e-7 4.89093747920183e-7
          4.826980431374839e-7 5.053738702098061e-7 3.3160007828613556e-7 4.350931846755487e-7 4.2559930555700936e-7 4.5902340507014153e-7
          5.103891217509889e-7 4.90613908191875e-7 5.462106233692749e-7 5.264894699144877e-7 5.818740627131766e-7 5.267022200699662e-7
          5.504923726650999e-7 3.807347023514415e-7 4.904812358065463e-7 5.26809926054766e-7 5.557073458940617e-7 3.044769961222747e-7
          3.0399312032944224e-7 3.413252631828964e-7 3.400436442295403e-7 3.056520648294753e-7 3.445105716928347e-7 2.2937524054533156e-7
          2.5176517429767597e-7 2.528381768938832e-7 2.489889912325474e-7 3.781735302435181e-7 3.760941681296384e-7 3.833690785561941e-7
          2.741551080500204e-7 3.072895282536464e-7 3.486832342547487e-7 3.088913400539311e-7 3.5301134382737576e-7 2.2257177584724962e-7
          2.4576936691623987e-7 2.4229659783641744e-7 3.900769402558512e-7 3.9713134760082045e-7 2.6896695798523006e-7 2.2198782007303658e-7
          2.0625733134259412e-7 3.5760359681991857e-7 3.194612263053541e-7 2.0203896621760508e-7 3.605575375519079e-7 3.2036660900809487e-7
          1.905268426121517e-7 2.8131885579078965e-7 2.801756804642819e-7 5.885777034325136e-7 5.540418602797994e-7 5.781001937545453e-7
          4.817471851956078e-7 2.157387471969629e-7 1.976876930725476e-7 3.6233526359525444e-7 3.201020114865977e-7 1.9359981058189762e-7
          3.6264838875646507e-7 3.1840776503466387e-7 1.796366389481323e-7 2.7786875937794095e-7 2.7416714131286266e-7 6.484806298066698e-7
          6.030459459336399e-7 6.286891684360922e-7 5.10652881345757e-7 5.670760674348523e-7 6.216648251870021e-7 6.129676946477247e-7
          6.659352410798321e-7 5.759270707644204e-7 6.028011124238415e-7 4.502161015714777e-7 5.679110510825197e-7 6.143643464491581e-7
          6.15288798220143e-7 6.65068180347242e-7 7.15309897482644e-7 7.245384445633039e-7 7.70605882410347e-7 6.310192380946148e-7
          6.60474496278583e-7 5.421068810746905e-7 6.670442329986557e-7 7.270491474359398e-7 6.841095940744689e-7 3.098380792420042e-7
          3.5680981018889293e-7 3.098869958778271e-7 3.597871178753679e-7 2.1344663715135518e-7 2.3801906178809702e-7 2.3287479841499229e-7
          4.037815411357815e-7 4.096872398729087e-7 2.6259148642483887e-7 3.087673489993308e-7 3.616365281257822e-7 3.062504328454887e-7
          3.620755923777336e-7 2.0079857808261105e-7 2.2678619468038058e-7 2.198755124556914e-7 4.145057072522335e-7 4.1790075190997853e-7
          2.5277381127815007e-7 2.1280559967087776e-7 1.9030764221270065e-7 3.6112723737356047e-7 3.1495686094933314e-7 1.8872840394938216e-7
          3.5740837007051373e-7 3.093991443650024e-7 1.6780968475452354e-7 2.6878648452510576e-7 2.613899186594911e-7 7.147696407164174e-7
          6.547903143967575e-7 6.809979313808411e-7 5.36390957055377e-7 2.2150546820430858e-7 1.9006739227517096e-7 3.510370053295411e-7
          3.0130139906211083e-7 1.5862931634603336e-7 2.5156579279468065e-7 7.867516276931654e-7 7.069177151300701e-7 5.541815981854359e-7
          7.928133921607723e-7 8.328407540044303e-7 8.716488762388479e-7 9.032628665530205e-7 6.910184447012382e-7 7.223972921519366e-7
          6.655363779649532e-7 7.957069589013111e-7 8.745997551249813e-7 7.62332095967255e-7 9.631529291083903e-7 9.834259223069181e-7
          7.542849676963264e-7 8.333711452852235e-7 9.65551820202747e-7 8.495486727361629e-7 3.0207566314828403e-7 3.607641472551694e-7
          2.9594625759253584e-7 3.5731544468110344e-7 1.8460043128463232e-7 2.1235952095595033e-7 2.0471316192552647e-7 4.194526313620546e-7
          4.1868463176967094e-7 2.4011861062726834e-7 2.8751864269477355e-7 3.512435537077942e-7 1.6666009596718937e-7 1.9761608752838179e-7
          4.149684647208149e-7 2.2857207908957417e-7
        </DataArray>
        <DataArray type="Float64" Name="gradient_matprop_error" format="ascii" RangeMin="0" RangeMax="0">
          0 0 0 0 0 0
          0 0 0 0 0 0
          0 0 0 0 0 0
          0 0 0 0 0 0
          0 0 0 0 0 0
          0 0 0 0 0 0
          0 0 0 0 0 0
          0 0 0 0 0 0
          0 0 0 0 0 0
          0 0 0 0 0 0
          0 0 0 0 0 0
          0 0 0 0 0 0
          0 0 0 0 0 0
          0 0 0 0 0 0
          0 0 0 0 0 0
          0 0 0 0 0 0
          0 0 0 0 0 0
          0 0 0 0 0 0
          0 0 0 0 0 0
          0 0 0 0 0 0
          0 0 0 0 0 0
          0 0 0 0 0 0
          0 0 0 0 0 0
          0 0 0 0 0 0
          0 0 0 0 0 0
          0 0 0 0 0 0
          0 0 0 0 0 0
          0 0 0 0 0 0
          0 0 0 0 0 0
          0 0 0 0 0 0
          0 0 0 0 0 0
          0 0 0 0 0 0
          0 0 0 0 0 0
          0 0 0 0 0 0
          0 0 0 0 0 0
          0 0 0 0 0 0
          0 0 0 0 0 0
          0 0 0 0 0 0
          0 0 0 0 0 0
          0 0 0 0 0 0
          0 0 0 0 0 0
          0 0 0 0 0 0
          0 0 0 0 0 0
          0 0 0 0 0 0
          0 0 0 0 0 0
          0 0 0 0 0 0
          0 0 0 0 0 0
          0 0 0 0 0 0
          0 0 0 0 0 0
          0 0 0 0 0 0
          0 0 0 0 0 0
          0 0 0 0 0 0
          0 0 0 0 0 0
          0 0 0 0 0 0
          0 0 0 0 0 0
          0 0 0 0 0 0
          0 0 0 0 0 0
          0 0 0 0 0 0
          0 0 0 0 0 0
          0 0 0 0 0 0
          0 0 0 0 0 0
          0 0 0 0 0 0
          0 0 0 0 0 0
          0 0
        </DataArray>
        <DataArray type="Float64" Name="initial_marker" format="ascii" RangeMin="0" RangeMax="0">
          0 0 0 0 0 0
          0 0 0 0 0 0
          0 0 0 0 0 0
          0 0 0 0 0 0
          0 0 0 0 0 0
          0 0 0 0 0 0
          0 0 0 0 0 0
          0 0 0 0 0 0
          0 0 0 0 0 0
          0 0 0 0 0 0
          0 0 0 0 0 0
          0 0 0 0 0 0
          0 0 0 0 0 0
          0 0 0 0 0 0
          0 0 0 0 0 0
          0 0 0 0 0 0
          0 0 0 0 0 0
          0 0 0 0 0 0
          0 0 0 0 0 0
          0 0 0 0 0 0
          0 0 0 0 0 0
          0 0 0 0 0 0
          0 0 0 0 0 0
          0 0 0 0 0 0
          0 0 0 0 0 0
          0 0 0 0 0 0
          0 0 0 0 0 0
          0 0 0 0 0 0
          0 0 0 0 0 0
          0 0 0 0 0 0
          0 0 0 0 0 0
          0 0 0 0 0 0
          0 0 0 0 0 0
          0 0 0 0 0 0
          0 0 0 0 0 0
          0 0 0 0 0 0
          0 0 0 0 0 0
          0 0 0 0 0 0
          0 0 0 0 0 0
          0 0 0 0 0 0
          0 0 0 0 0 0
          0 0 0 0 0 0
          0 0 0 0 0 0
          0 0 0 0 0 0
          0 0 0 0 0 0
          0 0 0 0 0 0
          0 0 0 0 0 0
          0 0 0 0 0 0
          0 0 0 0 0 0
          0 0 0 0 0 0
          0 0 0 0 0 0
          0 0 0 0 0 0
          0 0 0 0 0 0
          0 0 0 0 0 0
          0 0 0 0 0 0
          0 0 0 0 0 0
          0 0 0 0 0 0
          0 0 0 0 0 0
          0 0 0 0 0 0
          0 0 0 0 0 0
          0 0 0 0 0 0
          0 0 0 0 0 0
          0 0 0 0 0 0
          0 0
        </DataArray>
        <DataArray type="Float64" Name="markers_norefine" format="ascii" RangeMin="0" RangeMax="0">
          0 0 0 0 0 0
          0 0 0 0 0 0
          0 0 0 0 0 0
          0 0 0 0 0 0
          0 0 0 0 0 0
          0 0 0 0 0 0
          0 0 0 0 0 0
          0 0 0 0 0 0
          0 0 0 0 0 0
          0 0 0 0 0 0
          0 0 0 0 0 0
          0 0 0 0 0 0
          0 0 0 0 0 0
          0 0 0 0 0 0
          0 0 0 0 0 0
          0 0 0 0 0 0
          0 0 0 0 0 0
          0 0 0 0 0 0
          0 0 0 0 0 0
          0 0 0 0 0 0
          0 0 0 0 0 0
          0 0 0 0 0 0
          0 0 0 0 0 0
          0 0 0 0 0 0
          0 0 0 0 0 0
          0 0 0 0 0 0
          0 0 0 0 0 0
          0 0 0 0 0 0
          0 0 0 0 0 0
          0 0 0 0 0 0
          0 0 0 0 0 0
          0 0 0 0 0 0
          0 0 0 0 0 0
          0 0 0 0 0 0
          0 0 0 0 0 0
          0 0 0 0 0 0
          0 0 0 0 0 0
          0 0 0 0 0 0
          0 0 0 0 0 0
          0 0 0 0 0 0
          0 0 0 0 0 0
          0 0 0 0 0 0
          0 0 0 0 0 0
          0 0 0 0 0 0
          0 0 0 0 0 0
          0 0 0 0 0 0
          0 0 0 0 0 0
          0 0 0 0 0 0
          0 0 0 0 0 0
          0 0 0 0 0 0
          0 0 0 0 0 0
          0 0 0 0 0 0
          0 0 0 0 0 0
          0 0 0 0 0 0
          0 0 0 0 0 0
          0 0 0 0 0 0
          0 0 0 0 0 0
          0 0 0 0 0 0
          0 0 0 0 0 0
          0 0 0 0 0 0
          0 0 0 0 0 0
          0 0 0 0 0 0
          0 0 0 0 0 0
          0 0
        </DataArray>
        <DataArray type="Float64" Name="markers_mustrefine" format="ascii" RangeMin="0" RangeMax="0">
          0 0 0 0 0 0
          0 0 0 0 0 0
          0 0 0 0 0 0
          0 0 0 0 0 0
          0 0 0 0 0 0
          0 0 0 0 0 0
          0 0 0 0 0 0
          0 0 0 0 0 0
          0 0 0 0 0 0
          0 0 0 0 0 0
          0 0 0 0 0 0
          0 0 0 0 0 0
          0 0 0 0 0 0
          0 0 0 0 0 0
          0 0 0 0 0 0
          0 0 0 0 0 0
          0 0 0 0 0 0
          0 0 0 0 0 0
          0 0 0 0 0 0
          0 0 0 0 0 0
          0 0 0 0 0 0
          0 0 0 0 0 0
          0 0 0 0 0 0
          0 0 0 0 0 0
          0 0 0 0 0 0
          0 0 0 0 0 0
          0 0 0 0 0 0
          0 0 0 0 0 0
          0 0 0 0 0 0
          0 0 0 0 0 0
          0 0 0 0 0 0
          0 0 0 0 0 0
          0 0 0 0 0 0
          0 0 0 0 0 0
          0 0 0 0 0 0
          0 0 0 0 0 0
          0 0 0 0 0 0
          0 0 0 0 0 0
          0 0 0 0 0 0
          0 0 0 0 0 0
          0 0 0 0 0 0
          0 0 0 0 0 0
          0 0 0 0 0 0
          0 0 0 0 0 0
          0 0 0 0 0 0
          0 0 0 0 0 0
          0 0 0 0 0 0
          0 0 0 0 0 0
          0 0 0 0 0 0
          0 0 0 0 0 0
          0 0 0 0 0 0
          0 0 0 0 0 0
          0 0 0 0 0 0
          0 0 0 0 0 0
          0 0 0 0 0 0
          0 0 0 0 0 0
          0 0 0 0 0 0
          0 0 0 0 0 0
          0 0 0 0 0 0
          0 0 0 0 0 0
          0 0 0 0 0 0
          0 0 0 0 0 0
          0 0 0 0 0 0
          0 0
        </DataArray>
        <DataArray type="Float64" Name="gradient_marker" format="ascii" RangeMin="1" RangeMax="1">
          1 1 1 1 1 1
          1 1 1 1 1 1
          1 1 1 1 1 1
          1 1 1 1 1 1
          1 1 1 1 1 1
          1 1 1 1 1 1
          1 1 1 1 1 1
          1 1 1 1 1 1
          1 1 1 1 1 1
          1 1 1 1 1 1
          1 1 1 1 1 1
          1 1 1 1 1 1
          1 1 1 1 1 1
          1 1 1 1 1 1
          1 1 1 1 1 1
          1 1 1 1 1 1
          1 1 1 1 1 1
          1 1 1 1 1 1
          1 1 1 1 1 1
          1 1 1 1 1 1
          1 1 1 1 1 1
          1 1 1 1 1 1
          1 1 1 1 1 1
          1 1 1 1 1 1
          1 1 1 1 1 1
          1 1 1 1 1 1
          1 1 1 1 1 1
          1 1 1 1 1 1
          1 1 1 1 1 1
          1 1 1 1 1 1
          1 1 1 1 1 1
          1 1 1 1 1 1
          1 1 1 1 1 1
          1 1 1 1 1 1
          1 1 1 1 1 1
          1 1 1 1 1 1
          1 1 1 1 1 1
          1 1 1 1 1 1
          1 1 1 1 1 1
          1 1 1 1 1 1
          1 1 1 1 1 1
          1 1 1 1 1 1
          1 1 1 1 1 1
          1 1 1 1 1 1
          1 1 1 1 1 1
          1 1 1 1 1 1
          1 1 1 1 1 1
          1 1 1 1 1 1
          1 1 1 1 1 1
          1 1 1 1 1 1
          1 1 1 1 1 1
          1 1 1 1 1 1
          1 1 1 1 1 1
          1 1 1 1 1 1
          1 1 1 1 1 1
          1 1 1 1 1 1
          1 1 1 1 1 1
          1 1 1 1 1 1
          1 1 1 1 1 1
          1 1 1 1 1 1
          1 1 1 1 1 1
          1 1 1 1 1 1
          1 1 1 1 1 1
          1 1
        </DataArray>
        <DataArray type="Float64" Name="gradient_matprop_marker" format="ascii" RangeMin="0" RangeMax="0">
          0 0 0 0 0 0
          0 0 0 0 0 0
          0 0 0 0 0 0
          0 0 0 0 0 0
          0 0 0 0 0 0
          0 0 0 0 0 0
          0 0 0 0 0 0
          0 0 0 0 0 0
          0 0 0 0 0 0
          0 0 0 0 0 0
          0 0 0 0 0 0
          0 0 0 0 0 0
          0 0 0 0 0 0
          0 0 0 0 0 0
          0 0 0 0 0 0
          0 0 0 0 0 0
          0 0 0 0 0 0
          0 0 0 0 0 0
          0 0 0 0 0 0
          0 0 0 0 0 0
          0 0 0 0 0 0
          0 0 0 0 0 0
          0 0 0 0 0 0
          0 0 0 0 0 0
          0 0 0 0 0 0
          0 0 0 0 0 0
          0 0 0 0 0 0
          0 0 0 0 0 0
          0 0 0 0 0 0
          0 0 0 0 0 0
          0 0 0 0 0 0
          0 0 0 0 0 0
          0 0 0 0 0 0
          0 0 0 0 0 0
          0 0 0 0 0 0
          0 0 0 0 0 0
          0 0 0 0 0 0
          0 0 0 0 0 0
          0 0 0 0 0 0
          0 0 0 0 0 0
          0 0 0 0 0 0
          0 0 0 0 0 0
          0 0 0 0 0 0
          0 0 0 0 0 0
          0 0 0 0 0 0
          0 0 0 0 0 0
          0 0 0 0 0 0
          0 0 0 0 0 0
          0 0 0 0 0 0
          0 0 0 0 0 0
          0 0 0 0 0 0
          0 0 0 0 0 0
          0 0 0 0 0 0
          0 0 0 0 0 0
          0 0 0 0 0 0
          0 0 0 0 0 0
          0 0 0 0 0 0
          0 0 0 0 0 0
          0 0 0 0 0 0
          0 0 0 0 0 0
          0 0 0 0 0 0
          0 0 0 0 0 0
          0 0 0 0 0 0
          0 0
        </DataArray>
        <DataArray type="Float64" Name="combo" format="ascii" RangeMin="1" RangeMax="1">
          1 1 1 1 1 1
          1 1 1 1 1 1
          1 1 1 1 1 1
          1 1 1 1 1 1
          1 1 1 1 1 1
          1 1 1 1 1 1
          1 1 1 1 1 1
          1 1 1 1 1 1
          1 1 1 1 1 1
          1 1 1 1 1 1
          1 1 1 1 1 1
          1 1 1 1 1 1
          1 1 1 1 1 1
          1 1 1 1 1 1
          1 1 1 1 1 1
          1 1 1 1 1 1
          1 1 1 1 1 1
          1 1 1 1 1 1
          1 1 1 1 1 1
          1 1 1 1 1 1
          1 1 1 1 1 1
          1 1 1 1 1 1
          1 1 1 1 1 1
          1 1 1 1 1 1
          1 1 1 1 1 1
          1 1 1 1 1 1
          1 1 1 1 1 1
          1 1 1 1 1 1
          1 1 1 1 1 1
          1 1 1 1 1 1
          1 1 1 1 1 1
          1 1 1 1 1 1
          1 1 1 1 1 1
          1 1 1 1 1 1
          1 1 1 1 1 1
          1 1 1 1 1 1
          1 1 1 1 1 1
          1 1 1 1 1 1
          1 1 1 1 1 1
          1 1 1 1 1 1
          1 1 1 1 1 1
          1 1 1 1 1 1
          1 1 1 1 1 1
          1 1 1 1 1 1
          1 1 1 1 1 1
          1 1 1 1 1 1
          1 1 1 1 1 1
          1 1 1 1 1 1
          1 1 1 1 1 1
          1 1 1 1 1 1
          1 1 1 1 1 1
          1 1 1 1 1 1
          1 1 1 1 1 1
          1 1 1 1 1 1
          1 1 1 1 1 1
          1 1 1 1 1 1
          1 1 1 1 1 1
          1 1 1 1 1 1
          1 1 1 1 1 1
          1 1 1 1 1 1
          1 1 1 1 1 1
          1 1 1 1 1 1
          1 1 1 1 1 1
          1 1
        </DataArray>
        <DataArray type="Float64" Name="dHdT" format="ascii" RangeMin="25.7945515732117" RangeMax="32.11561581825608">
          25.811741975235662 25.81174990394969 25.811603904922233 25.81159629623456 25.81172967465377 25.811601511254914
          25.811594570869026 25.811542656534527 25.811457905894777 25.811450617233458 25.811473347856058 25.81149074220003
          25.80536642232991 25.80627167003902 25.811246214717155 25.811061457797692 25.808334152112092 25.811569566491155
          25.81222994747838 25.81180808183621 25.811938330485148 25.811983696515142 25.811857396488328 25.811817249721905
          26.07091946452365 26.03135798400419 25.885456982855768 25.897303369922632 25.968006451111222 25.86401671262633
          25.911793601843822 25.843520501212407 25.810662647095484 25.810386694744956 25.811192551930027 25.81173519989155
          29.467783349073912 29.901903872150427 26.09824400652026 26.143247292012397 30.724387949283717 26.02177620013289
          32.11561581825608 25.94211564080772 25.80143284080623 25.7998946730566 25.80482785803339 25.809852044122948
          25.875066619342604 28.038342978503195 26.695247220329477 25.887632169437026 28.222319678580313 25.81230943376609
          25.7945515732117 25.80124737198883 25.807943170765956 26.058330517623475 25.98657468480426 25.994697987256327
          27.80341450347659 27.82853673681528 26.896695153183803 26.90187715703249 25.967727411565615 27.87854614396727
          26.881040812612085 25.92100901146128 26.013273981069734 26.022166770103762 25.992489301444373 29.608321005321308
          27.945060095957473 27.915526759274734 28.005013335739086 26.12918117624148 26.000123759190608 25.945008622644302
          27.926230424279446 26.855591542210046 25.921136248483712 27.97062991649237 26.817190868041006 25.895756609739987
          25.967214830790795 25.940548469472553 30.26451520421581 28.063287802303783 28.120695471260003 26.061361260542746
          25.93731501793986 25.897438674818368 28.008773130029226 26.764980296571316 25.867189060451967 25.913657442705897
          31.313269470602844 28.175184076137942 25.981142102785473 25.809684722252936 25.806922968236368 25.810562967169343
          25.804161214219803 26.00866919090351 26.48583099121616 26.36061753132575 26.23540407143534 27.585324130144947
          30.633932158694176 29.600188541262078 27.693787988289557 30.742294693982252 26.280388528744453 26.430550935559975
          26.039970818370822 26.5807133423755 25.799155839264145 25.803791972172974 25.803427293183802 25.82790159847093
          25.825534971496367 25.82064072990702 25.822259201628476 25.804719045785042 25.819843608136466 25.81677536416474
          25.808428105081802 25.81574648831767 25.816616804786022 25.813707120193015 25.80223999683524 25.805985251401935
          25.813212690767102 25.81235019865426 25.807547137889536 25.806792583759982 25.808236899609856 25.809730505968624
          25.811487706541417 25.809681215459733 25.807838289139475 25.809531274805654 25.800674422307374 25.80458871374149
          25.811224260471832 25.808503005175613 25.821272649072675 25.822394922490506 25.83221956940515 25.834303776503067
          25.8186054901556 25.827211284995617 25.80833370508694 25.80432934115091 25.804020733025904 25.805120055325023
          25.843166489737634 25.84621263051563 25.835817079835632 25.80032497721488 25.81560537241274 25.82140353571962
          25.81298618751302 25.815939677693144 25.809417053350522 25.806186703385364 25.807447052074032 25.827201699026503
          25.818893167873266 25.80295635342021 25.811005646547585 25.811133676576524 25.810695861257003 25.808889238060658
          25.811261706605453 25.807082614864314 26.279098904272963 26.22815088386143 26.233194822922904 26.728086821940533
          26.724426435665187 26.61584097802454 26.61982345124009 26.215158062840693 26.714899210121565 26.605446891013433
          26.1772028634499 26.507255520383893 26.51156008053965 26.4959945719053 27.81081961057224 27.553775064259742
          27.549901229392987 27.56277860678777 27.163262346557005 26.245402120899605 26.197409805001968 26.70175530262231
          26.590941790599636 26.17710910943313 26.685389993085085 26.573332439605025 26.14941748910433 26.48012827857697
          26.46127488612497 27.852289489670817 27.573922462790907 27.5856510825378 27.15481393753697 28.95156447034247
          28.97953022054539 28.563986289396354 28.544507268719435 29.050171495113545 28.613378339434206 27.625027910837304
          27.62055777283373 27.636182571307675 29.507175187003703 29.023953522460864 28.995664158210175 29.09693518447905
          27.923816390498047 29.146202647620157 28.680187533085572 29.25584077126258 28.75547025652875 27.65050486082992
          27.66497489225369 29.745934800243703 29.19700391678664 29.30919411775882 27.97420834937919 26.568028079104025
          26.572202767410786 26.707731797739722 26.711469520518683 26.557057424315524 26.697760006782943 26.239730154431538
          26.313850132052146 26.319273562466307 26.299740054705403 26.847435516375413 26.85073627362658 26.83846258925036
          26.387970109672757 26.54140238358829 26.683537734121426 26.52250826142068 26.66621138128195 26.20947382638768
          26.280238165134005 26.25757271985143 26.825673084654564 26.809914501143222 26.351002503880334 26.200202335928715
          26.155568504926304 26.666222727152267 26.552971031932547 26.133217550907737 26.645261294732205 26.530371852849612
          26.110934673923893 26.439719336712834 26.415482410967016 27.903258087080268 27.595999177167933 27.603690567156413
          27.137323975138454 26.15152039345092 26.110361915024782 26.622518988437818 26.50602722104541 26.087372402142044
          26.59769503440974 26.47997444704853 26.06920343659864 26.389535453653004 26.362253859687307 27.948596721788885
          27.60888911109557 27.611768758835396 27.10531224062565 29.373204599164435 28.83535151668707 29.501257798496276