<?xml version="1.0"?>
<VTKFile type="UnstructuredGrid" version="0.1" byte_order="LittleEndian" header_type="UInt32" compressor="vtkZLibDataCompressor">
  <UnstructuredGrid>
    <Piece NumberOfPoints="4228" NumberOfCells="2937">
      <PointData>
        <DataArray type="Int32" Name="libmesh_node_id" format="ascii" RangeMin="60" RangeMax="27808">
          64 65 66 67 68 69
          70 71 144 145 146 147
          200 201 202 203 256 257
          258 259 312 313 314 315
          368 369 370 371 408 409
          436 437 464 465 492 493
          536 537 538 539 540 541
          576 577 578 604 605 606
          632 633 634 660 661 662
          704 705 706 707 708 709
          744 745 746 772 773 774
          800 801 802 828 829 830
          872 873 874 875 876 877
          912 913 914 940 941 942
          968 969 970 996 997 998
          1040 1041 1042 1043 1045 1080
          1081 1082 1108 1109 1110 1136
          1137 1138 1164 1165 1166 1223
          1224 1225 1226 1227 1228 1229
          1230 1231 1232 1235 1237 1238
          1239 1240 1241 1242 1243 1244
          1245 1246 1247 1248 1249 1250
          1251 1252 1253 1254 1255 1256
          1257 1258 1259 1260 1261 1262
          1263 1264 1275 1357 1358 1360
          1363 1365 1366 1367 1368 1369
          1370 1371 1372 1373 1374 1375
          1376 1377 1378 1379 1380 1381
          1382 1383 1384 1385 1386 1461
          1462 1464 1467 1469 1470 1471
          1472 1473 1474 1475 1476 1477
          1478 1479 1480 1482 1483 1484
          1485 1486 1487 1488 1523 1524
          1525 1526 1527 1528 1529 1530
          1531 1532 1533 1534 1535 1536
          1537 1538 1539 1540 1541 1542
          1543 1544 1545 1546 1547 1548
          1549 1550 1551 1552 1599 1600
          1603 1605 1607 1608 1609 1610
          1611 1612 1613 1614 1615 1616
          1617 1618 1619 1620 1621 1622
          1623 1624 1625 1626 1682 1684
          1686 1688 1689 1690 1691 1692
          1693 1694 1695 1696 1697 1698
          1699 1700 1701 1815 1816 1817
          1818 1819 1820 1821 1822 1823
          1824 1825 1826 1827 1828 1829
          1830 1831 1832 1833 1834 1835
          1836 1837 1838 1839 1840 1841
          1842 1843 1844 1845 1846 1847
          1848 1853 1854 1855 1856 1857
          1858 1859 1860 1861 1862 1863
          1864 1865 1866 1867 1868 1869
          1870 1871 1872 1873 1874 1875
          1876 1877 1878 1879 1880 1881
          1882 1883 1884 1885 1886 1887
          1888 1889 1890 1891 1892 1893
          1894 1895 1896 1897 1898 1899
          1900 1901 1902 1903 1904 1905
          1906 1907 1908 1909 1910 1911
          1912 1913 1914 1915 1916 1917
          1918 1919 1920 1921 1922 1923
          1924 1925 1926 1927 1928 1929
          1930 1931 1932 1933 1934 1935
          1936 1937 1938 1939 1940 1941
          1942 1943 1944 1945 1946 1947
          1948 1949 1950 1951 1952 1953
          1954 1955 1956 1957 1958 1966
          1993 1994 1995 1996 2249 2250
          2251 2252 2253 2254 2255 2256
          2257 2258 2272 2273 2274 2275
          2276 2277 2278 2279 2280 2281
          2292 2293 2294 2295 2296 2297
          2298 2299 2300 2301 2309 2310
          2311 2312 2313 2314 2315 2316
          2317 2318 2319 2320 2321 2322
          2323 2324 2325 2326 2327 2328
          2329 2330 2331 2332 2333 2334
          2335 2336 2337 2338 2339 2340
          2341 2342 2343 2344 2345 2346
          2347 2348 2349 2350 2351 2352
          2353 2354 2355 2356 2357 2358
          2359 2360 2361 2362 2363 2364
          2365 2366 2367 2368 2369 2370
          2371 2372 2373 2374 2375 2376
          2377 2378 2379 2380 2381 2382
          2383 2384 2385 2386 2387 2388
          2389 2390 2391 2392 2393 2394
          2395 2396 2397 2398 2399 2400
          2401 2402 2403 2404 2405 2406
          2407 2408 2409 2410 2411 2412
          2413 2414 2415 2416 2417 2418
          2419 2420 2421 2422 2423 2424
          2425 2426 2427 2428 2429 2430
          2431 2432 2433 2434 2435 2436
          2437 2438 2439 2440 2441 2442
          2443 2444 2445 2446 2447 2448
          2449 2450 2451 2452 2453 2454
          2455 2456 2457 2458 2459 2460
          2461 2462 2463 2464 2465 2466
          2467 2468 2469 2470 2471 2472
          2473 2484 2485 2488 2489 2491
          2493 2504 2505 2506 2507 2508
          2509 2511 2513 2524 2526 2528
          2530 2865 2866 2867 2868 2869
          2870 2871 2872 2873 2874 2882
          2883 2884 2885 2886 2887 2888
          2899 2900 2901 2902 2903 2904
          2905 2906 2907 2908 2916 2917
          2918 2919 2920 2921 2922 2923
          2924 2925 2926 2927 2928 2929
          2930 2931 2932 2933 2934 2935
          2936 2937 2938 2939 2940 2941
          2942 2943 2944 2945 2946 2947
          2948 2949 2950 2951 2952 2953
          2954 2955 2956 2957 2958 2959
          2960 2961 2962 2963 2964 2965
          2966 2967 2968 2969 2970 2971
          2972 2973 2974 2975 2976 2977
          2978 2979 2980 2981 2982 2983
          2984 2985 2986 2987 2988 2989
          2990 2991 2992 2993 2994 2995
          2996 2997 2998 2999 3000 3002
          3005 3006 3010 3011 3012 3013
          3014 3015 3016 3017 3018 3019
          3020 3021 3022 3023 3024 3025
          3026 3027 3028 3029 3030 3031
          3032 3033 3034 3039 3040 3044
          3045 3046 3047 3048 3049 3050
          3051 3052 3053 3054 3055 3056
          3057 3058 3063 3068 3079 3081
          3083 3085 3113 3115 3117 3119
          3205 3206 3207 3208 3209 3210
          3211 3212 3213 3214 3215 3216
          3217 3218 3219 3220 3221 3222
          3223 3224 3225 3230 3231 3381
          3382 3383 3384 3385 3386 3387
          3388 3389 3390 3391 3392 3393
          3394 3395 3396 3397 3398 3399
          3400 3401 3402 3403 3404 3405
          3406 3407 3408 3409 3410 3411
          3412 3413 3414 3415 3416 3417
          3418 3419 3420 3421 3422 3423
          3424 3425 3426 3427 3428 3429
          3430 3431 3432 3433 3434 3435
          3436 3437 3438 3439 3440 3441
          3442 3443 3444 3445 3446 3447
          3448 3449 3450 3451 3452 3453
          3454 3455 3456 3457 3458 3459
          3460 3461 3462 3465 3466 3468
          3470 3481 3483 3710 3711 3712
          3713 3714 3715 3716 3717 3718
          3719 3720 3721 3722 3723 3724
          3725 3726 3727 3728 3729 3730
          3731 3732 3733 3734 3735 3736
          3737 3738 3739 3740 3741 3742
          3743 3744 3745 3746 3747 3748
          3749 3750 3751 3752 3753 3754
          3755 3756 3757 3758 3759 3760
          3761 3762 3763 3764 3765 3766
          3767 3771 3772 3882 3883 3884
          3885 3886 3887 3888 4118 4119
          4120 4121 4122 4123 4124 4125
          4126 4127 4128 4129 4130 4131
          4132 4133 4134 4135 4136 4137
          4138 4139 4140 4141 4142 4143
          4144 4145 4146 4147 4148 4149
          4150 4151 4152 4153 4154 4155
          4156 4157 4158 4159 4160 4161
          4162 4163 4164 4165 4172 4173
          4174 4175 4176 4177 4178 4179
          4180 4181 4182 4183 4184 4185
          4186 4187 4188 4189 4190 4191
          4192 4193 4194 4195 4196 4197
          4198 4199 4200 4201 4202 4203
          4204 4205 4206 4207 4208 4209
          4210 4211 4212 4213 4214 4215
          4216 4217 4218 4219 4220 4221
          4222 4223 4224 4225 4226 4227
          4228 4229 4230 4231 4232 4233
          4234 4235 4236 4237 4238 4239
          4240 4241 4242 4243 4244 4245
          4246 4247 4248 4249 4250 4251
          4252 4253 4254 4255 4256 4257
          4258 4259 4260 4261 4262 4263
          4264 4265 4266 4267 4268 4269
          4270 4271 4272 4273 4274 4275
          4276 4277 4278 4279 4280 4281
          4282 4283 4284 4285 4286 4287
          4288 4289 4290 4291 4292 4293
          4294 4295 4296 4297 4298 4299
          4300 4301 4302 4303 4304 4305
          4306 4307 4308 4309 4310 4311
          4312 4313 4314 4315 4316 4317
          4318 4319 4320 4321 4322 4323
          4324 4325 4326 4327 4328 4329
          4330 4331 4332 4333 4334 4335
          4336 4337 4338 4339 4340 4341
          4342 4343 4344 4345 4346 4347
          4348 4349 4350 4351 4352 4353
          4354 4355 4356 4357 4358 4359
          4360 4361 4362 4363 4364 4365
          4366 4367 4368 4369 4370 4371
          4372 4373 4374 4375 4376 4377
          4378 4379 4380 4381 4382 4383
          4384 4385 4386 4387 4388 4389
          4390 4391 4392 4393 4394 4395
          4396 4397 4398 4399 4400 4401
          4402 4403 4404 4405 4406 4407
          4408 4409 4410 4411 4412 4413
          4414 4415 4416 4417 4418 4419
          4420 4421 4422 4423 4424 4425
          4426 4427 4428 4429 4430 4431
          4432 4433 4434 4435 4436 4437
          4438 4439 4440 4441 4442 4443
          4444 4445 4446 4447 4448 4449
          4450 4451 4452 4453 4454 4455
          4456 4457 4458 4459 4460 4461
          4462 4463 4464 4465 4466 4467
          4536 4537 4538 4539 4540 4541
          4542 4577 4578 4579 4580 4581
          4582 4583 4584 4585 4586 4587
          4588 4589 4590 4591 4592 4593
          4594 4595 4596 4597 4598 4599
          4600 4601 4602 4603 4604 4605
          4606 4607 4608 4609 4610 4611
          4612 4613 4614 4615 4616 4617
          4618 4620 4621 4622 4625 4630
          4631 4632 4633 4634 4635 4636
          4637 4638 4639 4640 4641 4642
          4644 4713 4714 4715 4716 4717
          5591 5592 5593 5594 5595 5596
          5597 5598 5599 5600 5601 5602
          5603 5604 5605 5606 5607 5608
          5609 5610 5611 5612 5613 5614
          5615 5616 5617 5618 5619 5620
          5621 5622 5623 5624 5625 5626
          5627 5628 5629 5630 5631 5632
          5633 5634 5635 5636 5637 5638
          5639 5640 5641 5642 5643 5644
          5645 5646 5647 5648 5649 5650
          5651 5652 5653 5654 5655 5656
          5657 5658 5687 5688 5689 5690
          5691 5692 5693 5694 5695 5696
          5697 5698 5699 5700 5701 5702
          5703 5704 5705 5706 5707 5708
          5709 5710 5711 5712 5713 5714
          5783 5784 5785 5786 5787 5788
          5789 5790 5791 5792 5793 5794
          5795 5796 5797 5798 5799 5800
          5801 5802 5803 5804 5805 5806
          5807 5808 5809 5810 5811 5812
          5813 5814 5815 5816 5817 5818
          5819 5820 5821 5822 5823 5824
          5825 5826 5827 5828 5829 5830
          5831 5832 5833 5834 5835 5836
          5837 5838 5839 5840 5841 5842
          5843 5844 5845 5846 5847 5848
          5849 5850 5879 5880 5881 5882
          5883 5884 5885 5886 5887 5888
          5889 5890 5891 5892 5893 5894
          5895 5896 5897 5898 5899 5900
          5901 5902 5903 5904 5905 5906
          5907 5908 5909 5910 5911 5912
          5913 5914 5915 5916 5917 5918
          5919 5920 5921 5922 5923 5924
          5925 5926 5927 5928 5929 5930
          5931 5932 5933 5934 5935 5936
          5937 5938 5939 5940 5941 5942
          5943 5944 5945 5946 5947 5948
          5949 5950 5951 5952 5953 5954
          5955 5956 5957 5958 5959 5960
          5961 5962 5963 5964 5965 5966
          5967 5968 5969 5970 5971 5972
          5973 5974 5975 5976 5977 5978
          5979 5980 5981 5982 5983 5984
          5985 5986 5987 5988 5989 5990
          5991 5992 5993 5994 5995 5996
          5997 5998 5999 6000 6001 6002
          6003 6004 6005 6006 6007 6008
          6009 6010 6011 6012 6013 6014
          6015 6016 6017 6018 6019 6020
          6021 6022 6023 6024 6025 6026
          6027 6028 6029 6030 6031 6032
          6033 6034 6035 6036 6037 6038
          6039 6040 6041 6042 6043 6044
          6045 6046 6047 6048 6049 6050
          6051 6052 6053 6054 6055 6056
          6057 6058 6059 6060 6061 6062
          6063 6064 6065 6066 6067 6068
          6069 6070 6071 6072 6073 6074
          6075 6076 6077 6078 6079 6080
          6081 6082 6083 6084 6085 6086
          6087 6088 6089 6090 6091 6092
          6093 6094 6095 6096 6097 6098
          6099 6100 6101 6102 6103 6104
          6105 6106 6107 6108 6109 6110
          6111 6112 6113 6114 6115 6116
          6117 6118 6119 6120 6121 6122
          6123 6124 6125 6126 6127 6128
          6129 6130 6131 6132 6133 6134
          6135 6136 6137 6138 6139 6140
          6141 6142 6143 6144 6145 6146
          6147 6148 6149 6150 6151 6152
          6153 6154 6155 6156 6157 6158
          6159 6160 6161 6162 6163 6164
          6165 6166 6167 6168 6169 6170
          6171 6172 6173 6174 6175 6176
          6177 6178 6179 6180 6181 6182
          6183 6184 6185 6186 6187 6188
          6189 6190 6191 6192 6193 6194
          6195 6196 6197 6198 6199 6200
          6201 6202 6203 6204 6205 6206
          6207 6208 6209 6210 6211 6212
          6213 6214 6215 6216 6217 6218
          6219 6220 6221 6222 6223 6224
          6225 6226 6227 6228 6229 6230
          6231 6232 6233 6234 6235 6236
          6237 6238 6239 6240 6241 6242
          6243 6244 6245 6246 6247 6248
          6249 6250 6251 6252 6253 6254
          6255 6256 6257 6258 6259 6260
          6261 6262 6263 6264 6265 6266
          6267 6268 6269 6270 6271 6272
          6273 6274 6275 6276 6277 6278
          6279 6280 6281 6282 6283 6284
          6285 6286 6287 6288 6289 6290
          6291 6292 6293 6294 6295 6296
          6297 6298 6299 6300 6301 6302
          6303 6304 6305 6306 6307 6308
          6309 6310 6311 6312 6313 6314
          6315 6316 6317 6318 6319 6320
          6321 6322 6323 6324 6325 6326
          6327 6328 6329 6330 6331 6332
          6333 6334 6335 6336 6337 6338
          6339 6340 6341 6342 6343 6344
          6345 6346 6347 6348 6349 6350
          6351 6352 6353 6354 6355 6356
          6357 6358 6359 6360 6361 6362
          6363 6364 6365 6366 6368 6369
          6370 6373 6374 6378 6379 6380
          6381 6382 6383 6384 6385 6386
          6387 6388 6389 6390 6392 6393
          6394 6397 6399 6400 6402 6413
          6414 6415 6416 6417 6419 6420
          6422 6423 6426 6427 6428 6429
          6430 6431 6432 6433 6434 6435
          6436 6437 6438 6439 6440 6441
          6442 6443 6444 6445 6446 6447
          6448 6449 6450 6451 6452 6453
          6454 6455 6456 6457 6458 6459
          6460 6461 6462 6463 6464 6465
          6466 6467 6468 6469 6470 6471
          6472 6473 6474 6475 6476 6477
          6478 6479 6480 6481 6482 6483
          6484 6485 6486 6487 6488 6489
          6490 6491 6492 6493 6494 6495
          6496 6497 6498 6499 6500 6501
          6502 6503 6504 6505 6506 6507
          6508 6509 6510 6511 6512 6513
          6514 6515 6516 6517 6518 6519
          6520 6521 6522 6523 6524 6525
          6526 6527 6528 6529 6530 6531
          6532 6533 6534 6535 6536 6537
          6538 6539 6540 6541 6542 6543
          6544 6545 6546 6547 6548 6551
          6553 6554 6556 6567 6569 6570
          6571 6573 6576 6577 6580 6603
          6604 6607 6610 6611 6614 6615
          6616 6617 6618 6619 6620 6621
          6622 6623 6624 6625 6626 6627
          6628 6629 6630 6631 6632 6633
          6634 6635 6636 6637 6638 6639
          6640 6641 6642 6643 6644 6645
          6646 6647 6648 6649 6650 6651
          6652 6653 6654 6655 6656 6657
          6658 6659 6660 6661 6662 6663
          6664 6665 6666 6667 6668 6669
          6670 6675 6691 6692 6693 6694
          6697 6698 6700 6704 6727 6728
          6731 6734 6738 6807 6808 6809
          6813 6814 6815 6816 6817 6818
          6819 6873 6874 6877 6880 6907
          6911 6987 6988 6989 6990 6991
          6992 6993 6996 6998 6999 7000
          7001 7002 7003 7004 7005 7006
          7008 7010 7012 7259 7260 7261
          7262 7342 7343 7344 7345 7346
          7347 7358 7359 7360 7361 7364
          7365 7366 7368 7369 7371 7396
          7398 7400 7401 7402 7403 7405
          7406 7408 7409 7410 7411 7412
          7413 7414 7415 7416 7417 7418
          7419 7420 7421 7422 7423 7424
          7425 7426 7427 7428 7429 7430
          7431 7432 7433 7434 7435 7436
          7437 7438 7439 7440 7441 7442
          7443 7444 7445 7446 7447 7448
          7449 7450 7451 7452 7453 7454
          7455 7456 7457 7458 7459 7460
          7461 7462 7463 7464 7465 7466
          7467 7468 7469 7470 7471 7472
          7473 7474 7475 7476 7477 7478
          7479 7480 7482 7484 7486 7494
          7496 7498 7500 7621 7622 7623
          7624 7625 7626 7627 7628 7629
          7630 7631 7632 7633 7634 7635
          7636 7637 7638 7639 7640 7641
          7642 7643 7644 7645 7646 7647
          10447 10448 10449 10450 10451 10452
          10453 10454 10455 10456 10457 10458
          10459 10460 10462 10463 10464 10466
          10467 10468 10469 10470 10471 10472
          10473 10474 10475 10478 10480 10481
          10483 10484 10485 10487 10528 10529
          10530 10531 10532 10533 10534 10535
          10536 10537 10538 10539 10540 10541
          10542 10543 10544 10545 10546 10547
          10548 10549 10550 10551 10552 10553
          10554 10555 10556 10557 10558 10559
          10560 10561 10562 10563 10564 10565
          10566 10567 10568 10569 10570 10571
          10572 10573 10574 10575 10576 10577
          10578 10579 10580 10581 10582 10583
          10584 10585 10586 10587 10588 10589
          10590 10591 10592 10593 10594 10595
          10596 10597 10598 10599 10600 10601
          10602 10603 10604 10605 10606 10607
          10608 10609 10610 10611 10612 10613
          10614 10615 10616 10617 10618 10619
          10620 10621 10622 10623 10624 10625
          10626 10627 10628 10629 10630 10631
          10632 10633 10634 10635 10636 10637
          10638 10639 10640 10641 10642 10643
          10644 10645 10646 10647 10648 10649
          10650 10651 10652 10653 10654 10655
          10656 10657 10658 10659 10660 10661
          10662 10663 10664 10665 10666 10667
          10668 10669 10670 10671 10672 10673
          10674 10675 10676 10677 10678 10679
          10680 10681 10682 10683 10684 10685
          10686 10687 10688 10689 10690 10691
          10692 10693 10694 10695 10696 10697
          10698 10699 10700 10701 10702 10703
          10704 10705 10706 10707 10708 10709
          10710 10711 10712 10713 10714 10715
          10716 10717 10718 10719 10720 10721
          10722 10723 10724 10725 10726 10727
          10728 10729 10732 10734 10735 10737
          10738 10739 10740 10741 10742 10743
          10745 10747 10749 10750 10751 10752
          10753 10754 10755 10756 10757 10758
          10759 10770 10771 10772 10773 10774
          10775 10776 10779 10783 10852 10853
          10854 10855 10856 10857 10858 10859
          10861 10872 10873 10874 10875 10876
          10878 10886 10887 10890 10892 10893
          10895 10906 10908 10910 10912 13729
          13730 13731 13732 13733 13734 13735
          13736 13737 13738 13739 13740 13741
          13742 13743 13744 13745 13746 13747
          13748 13749 13750 13751 13752 13753
          13754 13755 13756 13757 13758 13759
          13760 13761 13762 13763 13764 13765
          13766 13767 13768 13769 13770 13771
          13772 13773 13774 13775 13776 13777
          13778 13779 13780 13781 13784 13785
          13840 13841 13975 13976 13977 13978
          13979 14008 14009 14010 14011 14012
          14013 14014 14015 14016 14017 14018
          14019 26561 26562 26563 26565 26620
          26621 26622 26623 26624 26625 26626
          26627 26628 26629 26630 26631 26632
          26633 26634 26635 26636 26637 26638
          26639 26640 26641 26642 26643 26644
          26645 26646 26647 26648 26649 26650
          26651 26652 26653 26654 26655 26656
          26657 26658 26659 26660 26661 26662
          26663 26664 26665 26666 26667 26668
          26669 26670 26671 26672 26673 26674
          26675 26676 26677 26678 26679 26680
          26681 26682 26683 26684 26685 26686
          26687 26688 26689 26690 26691 26692
          26693 26694 26695 26696 26697 26698
          26699 26700 26701 26702 26703 26704
          26705 26706 26707 26708 26709 26710
          26711 26712 26713 26714 26715 26716
          26717 26718 26719 26720 26721 26722
          26723 26724 26725 26726 26727 26728
          26729 26730 26731 26732 26733 26734
          26735 26736 26737 26738 26739 26740
          26741 26742 26743 26744 26745 26746
          26747 26748 26749 26750 26751 26752
          26753 26754 26755 26756 26757 26758
          26759 26760 26761 26762 26763 26764
          26765 26766 26767 26768 26769 26770
          26771 26772 26773 26774 26775 26776
          26777 26778 26779 26780 26781 26782
          26783 26784 26785 26786 26787 26788
          26789 26790 26791 26792 26793 26794
          26795 26796 26797 26798 26799 26800
          26801 26802 26803 26804 26805 26806
          26807 26808 26809 26810 26811 26812
          26813 26814 26815 26816 26817 26818
          26819 26820 26821 26822 26823 26824
          26825 26826 26827 26828 26829 26830
          26831 26832 26833 26834 26835 26836
          26837 26838 26839 26840 26841 26842
          26843 26844 26845 26846 26847 26848
          26849 26850 26851 26852 26853 26854
          26855 26856 26857 26858 26859 26860
          26861 26862 26863 26864 26865 26866
          26867 26868 26869 26870 26871 26872
          26873 26874 26875 26876 26877 26878
          26879 26880 26881 26882 26883 26884
          26885 26886 26887 26888 26889 26890
          26891 26892 26893 26894 26895 26896
          26897 26898 26899 26900 26901 26902
          26903 26904 26905 26906 26907 26908
          26909 26910 26911 26912 26913 26914
          26915 26916 26917 26918 26919 26920
          26921 26922 26923 26924 26925 26926
          26927 26928 26929 26930 26931 26932
          26933 26934 26935 26936 26937 26938
          26939 26940 26941 26942 26943 26944
          26945 26946 26947 26948 26949 26950
          26951 26952 26953 26954 26955 26956
          26957 26958 26959 26960 26961 26962
          26963 26964 26965 26966 26967 26968
          26969 26970 26971 26972 26973 26974
          26975 26976 26977 26978 26979 26980
          26981 26982 26983 26984 26985 26986
          26987 26988 26989 26990 26991 26992
          26993 26994 26995 26996 26997 26998
          26999 27000 27001 27002 27003 27004
          27005 27006 27007 27008 27009 27010
          27011 27012 27013 27014 27015 27016
          27017 27018 27019 27020 27021 27022
          27023 27024 27025 27026 27027 27028
          27029 27030 27031 27032 27033 27034
          27035 27036 27037 27038 27039 27040
          27041 27042 27043 27044 27045 27046
          27047 27048 27049 27050 27051 27052
          27053 27054 27055 27056 27057 27058
          27059 27060 27061 27062 27063 27064
          27065 27066 27067 27068 27069 27070
          27071 27072 27073 27074 27075 27076
          27077 27078 27079 27080 27081 27082
          27083 27084 27085 27086 27087 27088
          27089 27090 27091 27092 27093 27094
          27095 27096 27097 27098 27099 27100
          27101 27102 27103 27104 27105 27106
          27107 27108 27109 27110 27111 27112
          27113 27114 27115 27116 27117 27118
          27119 27120 27121 27122 27123 27126
          27128 27129 27131 27132 27133 27135
          27136 27137 27138 27139 27140 27141
          27142 27143 27144 27145 27146 27147
          27150 27152 27153 27155 27156 27157
          27158 27159 27160 27161 27163 27165
          27167 27168 27169 27170 27171 27172
          27173 27174 27175 27176 27177 27178
          27179 27180 27181 27182 27183 27184
          27185 27186 27187 27188 27189 27190
          27191 27192 27193 27194 27195 27196
          27197 27198 27199 27200 27201 27202
          27203 27204 27205 27206 27207 27208
          27209 27210 27211 27212 27213 27214
          27215 27216 27217 27218 27219 27220
          27221 27222 27223 27224 27225 27226
          27227 27228 27229 27230 27231 27232
          27233 27234 27235 27236 27237 27238
          27239 27240 27241 27243 27244 27245
          27248 27254 27255 27256 27257 27258
          27260 27261 27263 27268 27269 27272
          27274 27275 27277 27288 27290 27292
          27294 27598 27599 27600 27601 27602
          27603 27604 27605 27606 27607 27608
          27609 27610 27611 27612 27613 27614
          27615 27616 27617 27618 27619 27620
          27621 27622 27623 27624 27625 27626
          27627 27628 27629 27630 27631 27632
          27633 27634 27635 27636 27637 27638
          27639 27640 27641 27642 27643 27644
          27645 27646 27647 27648 27649 27651
          27652 27653 27654 27655 27656 27657
          27658 27659 27660 27661 27662 27663
          27665 27666 27667 27670 27672 27673
          27675 27686 27688 27690 27692 27700
          27701 27704 27720 27722 27741 27742
          27743 27744 27745 27746 27747 27748
          27749 27750 27751 27752 27755 27757
          27758 27760 27761 27762 27763 27764
          27765 27766 27767 27768 27770 27772
          27774 27775 27776 27777 27778 27779
          27780 27781 27782 27783 27784 27785
          27786 27789 27791 27792 27794 27795
          27796 27797 27798 27799 27800 27801
          27802 27804 27806 27808 60 61
          62 63 72 73 74 75
          142 143 148 149 198 199
          204 205 254 255 260 261
          310 311 316 317 366 367
          372 373 407 410 435 438
          463 466 491 494 535 575
          375 411 543 579 603 439
          607 631 467 635 659 495
          663 743 771 747 775 799
          803 827 831 911 939 915
          943 967 971 995 999 1079
          1107 1083 1111 1135 1139 1163
          1167 1516 1517 1518 1522 1213
          1553 1554 1555 1556 1560 1561
          1266 1272 1236 1597 1359 1598
          1601 1602 1604 1606 1627 1631
          1628 1632 1634 1636 1681 1683
          1685 1687 1702 1704 1706 1708
          534 1785 1786 1787 1790 1214
          1793 1215 1807 1808 1810 702
          1849 1850 1813 1233 1851 1852
          1221 1234 1959 1960 1961 1962
          1967 1963 1965 1968 1969 1970
          1972 1987 1988 1991 1989 1990
          1992 1276 2241 2242 2244 1355
          2247 1356 2263 2264 2268 2270
          2284 2285 2287 2303 2305 1362
          2307 1364 2486 2487 1278 2490
          2492 1389 2525 2527 1392 2529
          1394 2876 2878 2880 1463 3064
          3080 3082 1490 3084 1493 3097
          3098 3114 3116 3118 1498 3200
          1218 3201 3204 703 1587 3226
          1273 3227 3228 3229 3232 1629
          3374 3375 3378 2259 2260 2265
          3463 3464 3467 1268 3469 3482
          3484 3768 3769 3770 3773 1265
          3895 3896 3878 3923 3924 3898
          3927 3929 3930 3932 3913 3881
          3943 3915 3945 3947 3949 4083
          4098 4099 4101 1361 4104 2290
          4087 4112 4114 4116 4468 4469
          4472 4474 4475 4477 4488 4490
          4492 4494 4502 4503 4506 4508
          4509 4511 4522 4524 4526 4528
          4543 4544 4547 4548 4550 4552
          4563 4565 4567 4569 2510 4619
          4623 4624 4626 4627 4628 1391
          4629 2512 4643 4645 4646 4649
          4651 4652 4654 4665 4667 4669
          4671 4679 4680 4683 4699 4701
          4688 4703 4705 4719 4721 4723
          4725 4733 4735 4737 4718 4739
          5535 5536 5538 2857 5541 2858
          5551 5553 5555 2860 5569 5570
          5572 1459 5575 2863 5585 5587
          5589 1460 4170 5667 5669 5671
          5681 5683 5685 5727 5728 5730
          2891 5733 2892 5743 5745 5747
          2894 5761 5762 5764 1465 5767
          2897 5777 5779 5781 1466 5859
          5861 5863 2910 5873 5875 5877
          2914 3001 6367 6371 6372 6375
          6376 3003 6377 3004 6391 6395
          6396 6398 6401 3008 6404 6407
          6406 6408 6418 6421 6412 6424
          3009 6425 6552 6568 3036 6572
          6574 6575 6578 6579 6585 6601
          6586 6602 6590 6605 6606 6608
          6609 6612 6613 6671 6672 6673
          6674 6676 6678 6680 6679 3060
          6682 6685 6684 6686 6695 6696
          6699 6701 6690 6702 3062 6703
          6725 6726 6729 6730 6732 6733
          6735 6736 6737 6871 6872 6875
          6876 6878 6879 6881 6882 6884
          6883 6905 6906 6908 6909 6910
          3102 6914 6997 6915 7007 7009
          6918 1496 7011 7253 7254 7258
          7335 7336 7337 7341 7362 7363
          7367 7370 7397 2912 7399 7404
          1468 7407 7481 7483 7485 7495
          7497 7499 10465 10476 10477 10479
          3007 10482 10731 10733 10486 10744
          10746 6550 10748 10764 10777 10765
          10778 10780 10769 10781 10782 6582
          10877 10866 10879 10881 10880 10882
          10871 10883 10885 10891 10907 10909
          6588 10911 13719 13720 13724 13727
          13782 13783 13786 13835 13837 13973
          13988 13990 13992 14002 14004 14006
          26564 27124 27125 27127 10730 27130
          27148 27149 27151 6549 27154 10736
          27134 27162 27164 27166 10760 27242
          10761 27246 27247 27249 27250 27251
          10762 27252 27253 10763 27259 27262
          27264 27265 27266 27267 27270 27271
          27273 10766 27276 10767 27289 27291
          27293 6581 27650 10860 27664 27668
          27669 27671 10862 27674 10863 27687
          27689 27691 27702 27703 27705 27706
          27707 10868 27708 27709 10869 27721
          27723 27724 27725 27726 27753 27754
          27756 10888 27759 10889 27769 27771
          27773 27787 27788 27790 6587 27793
          10894 27803 27805 27807
        </DataArray>
        <DataArray type="Float64" Name="bounds" format="ascii" RangeMin="0" RangeMax="0">
          0 0 0 0 0 0
          0 0 0 0 0 0
          0 0 0 0 0 0
          0 0 0 0 0 0
          0 0 0 0 0 0
          0 0 0 0 0 0
          0 0 0 0 0 0
          0 0 0 0 0 0
          0 0 0 0 0 0
          0 0 0 0 0 0
          0 0 0 0 0 0