<?xml version="1.0"?>
<VTKFile type="UnstructuredGrid" version="0.1" byte_order="LittleEndian" header_type="UInt32" compressor="vtkZLibDataCompressor">
  <UnstructuredGrid>
    <Piece NumberOfPoints="3878" NumberOfCells="3026">
      <PointData>
        <DataArray type="Int32" Name="libmesh_node_id" format="ascii" RangeMin="710" RangeMax="22534">
          710 711 1276 1277 1992 1997
          1998 2000 2001 2002 2003 2004
          2005 2006 2021 2022 2023 2024
          2025 2026 2027 2028 2030 2486
          2494 2496 2498 2548 2550 2552
          3482 3485 3486 3487 3488 3501
          3502 3507 3513 3514 3515 3895
          3896 3897 3898 3905 3906 3907
          3908 3913 3914 3915 3920 3921
          3922 3923 3924 3925 3926 3927
          3928 3929 3930 3931 3932 3933
          3934 3935 3936 3937 3938 3939
          3940 3941 3942 3943 3944 3945
          3946 3947 3948 3949 3950 3951
          3952 3953 3954 3955 3956 3998
          3999 4000 4005 4006 4007 4008
          4009 4010 4011 4012 4013 4014
          4015 4016 4017 4018 4019 4020
          4021 4022 4023 4024 4025 4026
          4027 4028 4029 4031 4032 4033
          4034 4035 4036 4037 4038 4468
          4469 4470 4471 4472 4473 4478
          4479 4480 4481 4482 4483 4488
          4489 4490 4491 4495 4496 4497
          4498 4543 4544 4545 4546 4547
          4548 4549 4553 4554 4555 4556
          4557 4558 4559 4747 4748 4749
          4750 4751 4752 4753 4754 4756
          4767 4768 4769 4770 4774 4776
          4778 4779 4780 4818 4819 4820
          4821 4822 4823 4824 7569 7570
          7571 7572 7573 7574 7575 7750
          7758 7759 7760 7761 7762 7763
          7764 7765 7766 7774 7775 7776
          7777 7778 7779 7780 8151 8154
          8195 8196 8197 8198 8208 8213
          8214 8215 8220 8221 8222 8232
          8235 8274 8275 8276 8281 8282
          8283 8288 8289 8290 8295 8296
          8297 8298 8299 8300 8301 8302
          8303 8304 8305 8306 8307 8308
          8309 8310 8311 8312 8313 8314
          8315 8316 8317 8318 8319 8320
          8321 8322 8323 8324 8325 8326
          8327 8328 8329 8330 8331 8332
          8333 8334 8335 8336 8337 8338
          8339 8340 8341 8342 8343 8344
          8345 8346 8347 8348 8349 8350
          8351 8352 8353 8354 8355 8356
          8357 8358 8359 8360 8361 8362
          8363 8364 8365 8366 8367 8368
          8369 8370 8371 8372 8373 8374
          8375 8376 8377 8378 8379 8380
          8381 8382 8383 8384 8385 8386
          8387 8388 8389 8390 8391 8392
          8393 8394 8395 8396 8397 8398
          8399 8400 8401 8402 8403 8404
          8405 8406 8407 8408 8409 8410
          8411 8412 8413 8414 8415 8416
          8417 8418 8419 8420 8421 8422
          8423 8424 8425 8426 8427 8428
          8429 8430 8431 8432 8433 8434
          8435 8436 8437 8438 8439 8440
          8441 8442 8443 8444 8445 8446
          8447 8610 8619 8620 8625 8626
          8627 8632 8633 8634 8656 8657
          8658 8663 8664 8665 8673 8674
          8675 8676 8677 8678 8679 8680
          8681 8682 8683 8684 8685 8686
          8687 8688 8689 8690 8691 8692
          8693 8694 8695 8696 8697 8698
          8699 8700 8701 8702 8703 8704
          8705 8706 8707 8708 8709 8710
          8711 8712 8713 8714 8715 8716
          8717 8718 8719 8720 8721 8722
          8723 8724 8725 8726 8727 8728
          8729 8730 8731 8732 8733 8734
          8735 8736 8737 8738 8739 8740
          8741 8742 8743 8744 8745 8746
          8747 8748 8749 8750 8751 8752
          8753 8754 8755 8756 8757 8758
          8759 8760 8761 8762 8763 8764
          8765 8766 8767 8768 8769 8770
          8771 8772 8773 8774 8775 8776
          8777 8778 8779 8780 8781 8782
          8783 8784 8785 8786 8787 8788
          8789 8790 8791 8792 8793 8794
          8795 8796 8797 8798 8799 8800
          8801 8802 8803 8804 8805 8806
          8807 8808 8809 8810 8811 8812
          8813 8814 8815 8816 8817 8818
          8819 8820 8821 8822 8823 8824
          8825 8826 8827 8828 8829 8830
          8831 8832 8833 8834 8835 8836
          8844 8845 8846 8847 8848 8849
          8850 8851 8852 8853 8854 8855
          8856 8857 8858 8859 8860 8861
          8862 8863 8864 8865 8866 8867
          8868 8869 8870 8871 8872 8873
          8874 8875 8876 8877 8878 8879
          8880 8881 8882 8883 8888 8889
          8890 8891 8892 8893 8898 8899
          8900 8901 8905 8906 8907 8908
          8912 8913 8914 8915 8916 8917
          8924 8925 8926 8927 8928 8929
          8930 8931 8932 8933 8934 8935
          8936 8937 8938 8939 8940 8941
          8942 8943 8944 8945 8946 8947
          8948 8949 8950 8951 8952 8953
          8959 8960 9130 9131 9132 9133
          9137 9138 9139 9140 9141 9142
          9143 9144 9145 9146 9147 9148
          9149 9150 9151 9152 9153 9154
          9155 9156 9615 9616 9617 9618
          9619 9620 9621 9622 9623 9624
          9625 9626 9627 9628 9629 9630
          9631 9632 9633 9634 9635 9636
          9637 9638 9639 9640 9641 9642
          9643 9644 9645 9646 9647 9648
          9649 9650 9651 9652 9653 9654
          9655 9656 9657 9658 9659 9660
          9661 9662 9663 9664 9669 9670
          9671 9672 9673 9674 9675 9676
          9677 9678 9679 9683 9684 9685
          9686 9687 9688 9689 9690 9692
          9693 9694 9695 9696 9697 9698
          9699 9710 9711 9712 9713 9717
          9718 9719 9720 9721 9722 9723
          9724 9725 9726 9727 9728 9729
          9730 9731 9732 9733 9734 9735
          9736 9737 9738 9739 9740 9741
          9742 9743 9744 9745 9746 9752
          9753 9773 9774 9775 9776 9777
          9955 9957 9959 13883 13884 13885
          13886 14157 14158 14159 14160 14161
          14162 14163 14164 14165 14166 14167
          14168 14169 14170 14225 14226 14227
          14228 14229 14230 14231 14290 14291
          14292 14293 14294 14295 14296 14598
          14599 14600 14601 14602 14603 14604
          14605 14606 14607 14608 14609 14610
          14611 14678 14679 14680 14681 14682
          14683 14684 14685 14686 14687 14688
          14689 14690 14691 14692 14693 14694
          14695 14696 14697 14698 14699 14700
          14701 14702 14703 14704 14705 14706
          14707 14708 14709 14710 14711 15564
          15567 15608 15609 15611 15626 15627
          15628 15633 15635 15644 15647 15680
          15681 15682 15687 15688 15689 15694
          15695 15696 15701 15702 15703 15814
          15817 15850 15851 15852 15857 15858
          15859 15864 15865 15866 15871 15872
          15873 15879 15898 15899 15900 15905
          15906 15907 15908 15909 15910 15911
          15912 15913 15914 15915 15916 15917
          15918 15919 15920 15921 15922 15923
          15924 15925 15926 15927 15928 15929
          15930 15931 15932 15933 15934 15935
          15936 15937 15938 15939 15940 15941
          15942 15943 15944 15945 15946 15947
          15948 15949 15950 15951 15952 15953
          15954 15955 15956 15957 15958 15959
          15960 15961 15962 15963 15964 15965
          15966 15967 15968 15969 15970 15971
          15972 15973 15974 15975 15976 15977
          15978 15979 15980 15981 15982 15983
          15984 15985 15986 15987 15988 15989
          15990 15991 15992 15993 15994 15995
          15996 15997 15998 15999 16000 16001
          16002 16003 16004 16005 16006 16007
          16008 16009 16010 16011 16012 16013
          16014 16015 16016 16017 16018 16019
          16020 16021 16022 16023 16024 16025
          16026 16027 16028 16029 16030 16031
          16032 16033 16034 16035 16036 16037
          16038 16039 16040 16041 16042 16043
          16044 16045 16046 16047 16048 16049
          16050 16051 16052 16053 16054 16055
          16056 16057 16058 16059 16060 16061
          16062 16063 16064 16065 16066 16067
          16068 16069 16070 16071 16072 16073
          16074 16075 16076 16077 16078 16079
          16080 16081 16082 16083 16084 16085
          16086 16087 16088 16089 16090 16091
          16092 16093 16094 16095 16096 16097
          16098 16099 16100 16101 16102 16103
          16104 16105 16106 16107 16108 16109
          16110 16111 16112 16113 16114 16115
          16116 16117 16118 16119 16120 16121
          16122 16123 16124 16125 16126 16127
          16128 16129 16130 16131 16132 16133
          16134 16135 16136 16137 16138 16139
          16140 16141 16142 16143 16144 16145
          16146 16147 16148 16149 16150 16151
          16152 16153 16154 16155 16156 16157
          16158 16159 16160 16161 16162 16163
          16164 16165 16166 16167 16168 16169
          16170 16171 16172 16173 16174 16175
          16176 16177 16178 16179 16180 16181
          16182 16183 16184 16185 16186 16187
          16188 16189 16190 16191 16192 16193
          16194 16195 16196 16197 16198 16199
          16200 16201 16202 16203 16204 16205
          16206 16207 16208 16209 16210 16211
          16212 16213 16214 16215 16216 16217
          16218 16219 16220 16221 16222 16223
          16224 16225 16226 16227 16228 16229
          16230 16231 16232 16233 16234 16235
          16236 16237 16238 16239 16240 16241
          16242 16243 16244 16245 16246 16247
          16248 16249 16250 16251 16252 16253
          16254 16255 16256 16257 16258 16259
          16260 16261 16262 16263 16264 16265
          16266 16267 16268 16269 16270 16271
          16272 16273 16274 16275 16276 16277
          16278 16279 16280 16281 16282 16283
          16284 16285 16286 16287 16288 16289
          16290 16291 16292 16293 16294 16295
          16296 16297 16298 16299 16300 16301
          16302 16303 16304 16305 16306 16307
          16308 16309 16310 16311 16312 16313
          16314 16315 16316 16317 16318 16319
          16320 16321 16322 16323 16324 16325
          16326 16327 16328 16329 16330 16331
          16332 16333 16334 16335 16336 16337
          16338 16339 16340 16341 16342 16343
          16344 16345 16346 16347 16348 16349
          16350 16351 16352 16353 16354 16355
          16356 16357 16358 16359 16360 16361
          16362 16363 16364 16365 16366 16367
          16368 16369 16370 16371 16372 16373
          16374 16375 16376 16377 16378 16379
          16380 16381 16382 16383 16384 16385
          16386 16387 16388 16389 16390 16391
          16392 16393 16394 16395 16396 16397
          16398 16399 16400 16401 16402 16403
          16404 16405 16406 16407 16408 16409
          16410 16411 16412 16413 16414 16415
          16416 16417 16418 16419 16420 16421
          16422 16423 16424 16425 16426 16427
          16428 16429 16430 16431 16432 16433
          16434 16435 16436 16437 16438 16439
          16440 16441 16442 16443 16444 16445
          16446 16447 16448 16449 16450 16451
          16452 16453 16454 16455 16456 16457
          16458 16459 16460 16461 16462 16463
          16464 16465 16466 16467 16468 16469
          16470 16471 16472 16473 16474 16475
          16476 16477 16478 16479 16480 16481
          16482 16483 16484 16485 16486 17269
          17274 17275 17276 17335 17336 17337
          17342 17343 17344 17377 17378 17379
          17384 17385 17386 17391 17392 17393
          17398 17399 17400 17426 17427 17428
          17433 17434 17435 17440 17441 17442
          17450 17451 17452 17547 17548 17549
          17554 17555 17556 17561 17562 17563
          17568 17569 17570 17582 17583 17584
          17592 17593 17594 17609 17610 17611
          17619 17620 17621 17622 17623 17624
          17625 17626 17627 17628 17629 17630
          17631 17632 17633 17634 17635 17636
          17637 17638 17639 17640 17641 17642
          17643 17644 17645 17646 17647 17648
          17649 17650 17651 17652 17653 17654
          17655 17656 17657 17658 17659 17660
          17661 17662 17663 17664 17665 17666
          17667 17668 17669 17670 17671 17672
          17673 17674 17675 17676 17677 17678
          17679 17680 17681 17682 17683 17684
          17685 17686 17687 17688 17689 17690
          17691 17694 17695 17696 17697 17698
          17699 17704 17705 17706 17707 17708
          17709 17710 17711 17712 17713 17714
          17715 17716 17717 17718 17719 17720
          17721 17722 17723 17724 17725 17726
          17727 17728 17729 17730 17731 17732
          17733 17734 17735 17736 17737 17738
          17739 17740 17741 17742 17743 17744
          17745 17746 17747 17748 17749 17750
          17751 17752 17753 17754 17755 17756
          17757 17758 17759 17760 17761 17762
          17763 17764 17765 17766 17767 17768
          17769 17770 17771 17772 17773 17774
          17775 17776 17777 17778 17779 17780
          17781 17782 17783 17784 17785 17786
          17787 17788 17789 17790 17791 17792
          17793 17794 17795 17796 17797 17798
          17799 17800 17801 17802 17803 17804
          17805 17806 17807 17808 17809 17810
          17811 17812 17813 17814 17815 17816
          17817 17818 17819 17820 17821 17822
          17823 17824 17825 17826 17827 17828
          17829 17830 17831 17832 17833 17834
          17835 17836 17837 17838 17839 17840
          17841 17842 17843 17844 17845 17846
          17847 17848 17849 17850 17851 17852
          17853 17854 17855 17856 17857 17858
          17859 17860 17861 17862 17863 17864
          17865 17866 17867 17868 17869 17870
          17871 17872 17873 17874 17875 17876
          17877 17878 17879 17880 17881 17882
          17883 17884 17885 17886 17887 17888
          17889 17890 17891 17892 17893 17894
          17895 17896 17897 17898 17899 17900
          17901 17902 17903 17904 17905 17906
          17907 17908 17909 17910 17911 17912
          17913 17914 17915 17916 17917 17918
          17919 17920 17921 17922 17923 17924
          17925 17926 17927 17928 17929 17930
          17931 17932 17933 17934 17935 17936
          17937 17938 17939 17940 17941 17942
          17943 17944 17945 17946 17947 17948
          17949 17950 17951 17952 17953 17954
          17955 17956 17957 17958 17959 17960
          17961 17962 17963 17964 17965 17966
          17967 17968 17969 17970 17971 17972
          17973 17974 17975 17976 17977 17978
          17979 17980 17981 17982 17983 17984
          17985 17986 17987 17988 17989 17990
          17991 17992 17993 17994 17995 17996
          17997 17998 17999 18000 18001 18002
          18003 18004 18005 18006 18007 18008
          18009 18010 18011 18012 18013 18014
          18015 18016 18017 18018 18019 18020
          18021 18022 18023 18024 18025 18026
          18027 18028 18029 18030 18031 18032
          18033 18034 18035 18036 18037 18038
          18039 18040 18041 18042 18043 18044
          18045 18046 18047 18048 18049 18050
          18051 18052 18053 18054 18055 18056
          18057 18058 18059 18060 18061 18062
          18063 18064 18065 18066 18067 18068
          18069 18070 18071 18072 18073 18074
          18075 18076 18077 18078 18079 18080
          18081 18082 18083 18084 18085 18086
          18087 18088 18089 18090 18091 18092
          18093 18094 18095 18096 18097 18098
          18099 18100 18101 18102 18103 18104
          18105 18106 18107 18108 18109 18110
          18111 18112 18113 18114 18115 18116
          18117 18118 18119 18120 18121 18122
          18123 18124 18125 18126 18127 18128
          18129 18130 18131 18132 18133 18134
          18135 18136 18137 18138 18139 18140
          18141 18142 18143 18144 18145 18146
          18147 18148 18149 18150 18151 18152
          18153 18154 18155 18156 18157 18158
          18159 18160 18161 18162 18163 18164
          18165 18166 18167 18168 18169 18170
          18171 18172 18173 18174 18175 18176
          18177 18178 18179 18180 18181 18182
          18183 18184 18185 18186 18187 18188
          18189 18190 18191 18192 18193 18194
          18195 18196 18197 18198 18199 18200
          18201 18202 18203 18204 18205 18206
          18207 18208 18209 18210 18211 18212
          18213 18214 18215 18216 18217 18218
          18219 18220 18221 18222 18223 18224
          18225 18226 18227 18228 18229 18230
          18231 18232 18233 18234 18235 18236
          18237 18238 18239 18240 18241 18242
          18243 18244 18245 18246 18247 18248
          18249 18250 18251 18252 18253 18254
          18255 18256 18257 18258 18259 18260
          18261 18262 18263 18264 18265 18266
          18267 18268 18269 18270 18271 18272
          18273 18274 18275 18276 18277 18278
          18279 18280 18281 18282 18283 18284
          18285 18286 18287 18288 18289 18290
          18291 18292 18293 18294 18295 18296
          18297 18298 18299 18300 18301 18302
          18303 18304 18305 18306 18307 18308
          18309 18310 18311 18312 18313 18314
          18315 18316 18317 18318 18319 18320
          18321 18322 18323 18324 18325 18326
          18327 18328 18329 18330 18331 18332
          18333 18334 18335 18336 18337 18338
          18339 18340 18341 18342 18343 18344
          18345 18346 18347 18348 18349 18350
          18351 18352 18353 18354 18355 18356
          18357 18358 18359 18360 18361 18362
          18363 18364 18365 18366 18367 18368
          18369 18370 18371 18372 18373 18374
          18375 18376 18377 18378 18379 18380
          18381 18382 18383 18384 18385 18386
          18387 18388 18389 18390 18391 18392
          18393 18394 18395 18396 18397 18398
          18399 18400 18401 18402 18403 18404
          18405 18406 18407 18408 18409 18410
          18411 18412 18413 18414 18415 18416
          18417 18418 18419 18420 18421 18422
          18423 18424 18425 18426 18427 18428
          18429 18430 18431 18432 18433 18434
          18435 18436 18437 18438 18439 18440
          18441 18442 18443 18444 18445 18446
          18447 18448 18449 18450 18451 18452
          18453 18454 18455 18456 18457 18458
          18459 18460 18461 18462 18463 18464
          18465 18466 18467 18468 18469 18470
          18471 18472 18473 18474 18475 18476
          18477 18478 18479 18480 18481 18482
          18483 18484 18485 18486 18487 18488
          18489 18490 18491 18492 18493 18494
          18495 18496 18497 18498 18499 18500
          18501 18502 18503 18504 18505 18506
          18507 18508 18509 18510 18511 18512
          18513 18514 18515 18516 18517 18518
          18519 18520 18521 18522 18523 18524
          18525 18526 18527 18528 18529 18530
          18531 18532 18533 18534 18535 18536
          18537 18538 18539 18540 18541 18542
          18543 18544 18545 18546 18547 18548
          18549 18550 18551 18552 18553 18554
          18555 18556 18557 18558 18559 18560
          18561 18562 18563 18564 18565 18566
          18567 18568 18569 18570 18571 18572
          18573 18574 18575 18576 18577 18578
          18579 18580 18581 18582 18583 18584
          18585 18586 18587 18588 18589 18590
          18591 18592 18593 18594 18595 18596
          18597 18598 18599 18600 18601 18602
          18603 18604 18605 18606 18607 18608
          18609 18610 18611 18612 18613 18614
          18615 18616 18617 18618 18619 18620
          18621 18622 18623 18624 18625 18626
          18627 18628 18629 18630 18631 18632
          18633 18634 18635 18636 18637 18638
          18639 18640 18641 18642 18643 18644
          18645 18646 18647 18648 18649 18650
          18651 18652 18653 18654 18655 18656
          18657 18658 18659 18660 18661 18662
          18663 18664 18665 18666 18667 18668
          18676 18677 18678 18679 18680 18681
          18682 18683 18684 18685 18686 18687
          18688 18689 18690 18691 18692 18693
          18694 18695 18696 18697 18698 18699
          18700 18701 18702 18703 18704 18705
          18706 18707 18708 18709 18744 18745
          18746 18747 18748 18749 18756 18757
          18758 18759 18760 18761 18762 18763
          18764 18765 18766 18767 18768 18769
          18770 18771 18772 18773 18774 18775
          18776 18777 18778 18779 18780 18781
          18782 18783 18812 18813 18814 18815
          18816 18817 18818 18819 18820 18821
          18822 18823 18824 18825 18826 18827
          18828 18829 18830 18831 18832 18833
          18834 18835 18836 18837 18838 18839
          18840 18841 18842 18843 18844 18845
          18846 18847 18848 18849 18850 18851
          18852 18853 18854 18855 18856 18857
          18858 18859 18860 18861 18862 18863
          18864 18865 18866 18867 18868 18869
          18870 18871 18872 18873 18874 18875
          18876 18877 18878 18879 18880 18881
          18882 18883 18884 18885 18886 18887
          18888 18889 18890 18891 18892 18893
          18894 18895 18896 18897 18898 18899
          18900 18901 18902 18903 18904 18905
          18906 18907 18908 18909 18910 18911
          18912 18913 18914 18915 18916 18917
          18918 18919 18920 18921 18922 18923
          18924 18925 18926 18927 18928 18929
          18930 18931 18932 18933 18934 18935
          18936 18937 18938 18939 18940 18941
          18942 18943 18944 18945 18946 18947
          18948 18949 18950 18960 18961 18962
          18963 18964 18965 18966 18967 18968
          18969 18970 18971 18972 18973 19656
          19657 19658 19659 19660 19661 19662
          19663 19664 19665 19666 19667 19668
          19669 19670 19671 19672 19673 19674
          19675 19676 19677 19678 19679 19680
          19681 19682 19683 19684 19685 19686
          19687 19688 19689 19690 19691 19692
          19693 19694 19695 19696 21280 21281
          21282 21283 21284 21285 21286 21287
          21288 21289 21290 21291 21292 21293
          21294 21295 21296 21297 21298 21299
          21300 21301 21302 21303 21304 21305
          21306 21307 21308 21309 21310 21311
          21312 21313 21314 21315 21316 21317
          21318 21319 21320 21321 21322 21323
          21324 21325 21326 21327 21328 21329
          21330 21331 21332 21333 21334 21335
          21336 21337 21338 21339 21340 21341
          21342 21343 21344 21345 21346 21347
          21348 21349 21350 21351 21352 21353
          21354 21355 21356 21357 21358 21359
          21360 21361 21362 21363 21364 21365
          21366 21367 21368 21369 21370 21371
          21372 21373 21374 21375 21376 21377
          21378 21379 21380 21381 21382 21383
          21384 21385 21386 21387 21388 21389
          21390 21391 21392 21393 21394 21395
          21396 21397 21398 21399 21400 21401
          21402 21403 21404 21405 21406 21407
          21408 21409 21410 21411 21412 21413
          21414 21415 21416 21417 21418 21419
          21420 21421 21422 21423 21424 21425
          21426 21427 21428 21429 21430 21431
          21432 21433 21434 21435 21436 21437
          21438 21439 21440 21441 21442 21443
          21444 21445 21446 21447 21448 21449
          21450 21451 21452 21453 21454 21455
          21456 21457 21458 21459 21460 21461
          21462 21463 21464 21465 21466 21467
          21468 21469 21470 21471 21472 21473
          21474 21475 21476 21477 21478 21479
          21480 21481 21482 21483 21484 21485
          21486 21487 21488 21489 21490 21491
          21492 21493 21494 21495 21496 21497
          21498 21499 21500 21501 21502 21503
          21504 21505 21506 21507 21508 21509
          21510 21511 21512 21513 21514 21515
          21516 21517 21518 21519 21520 21521
          21522 21523 21524 21525 21526 21527
          21528 21529 21530 21531 21532 21533
          21534 21535 21536 21537 21538 21539
          21540 21541 21542 21543 21544 21545
          21546 21547 21548 21549 21550 21551
          21552 21553 21554 21555 21556 21557
          21558 21559 21560 21561 21562 21563
          21564 21565 21566 21567 21568 21569
          21570 21571 21572 21573 21574 21575
          21576 21577 21578 21579 21580 21581
          21582 21583 21584 21585 21586 21587
          21588 21589 21590 21591 21592 21593
          21594 21595 21596 21597 21598 21599
          21600 21601 21602 21603 21604 21605
          21606 21607 21608 21609 21610 21611
          21612 21613 21614 21615 21616 21617
          21618 21619 21620 21621 21622 21623
          21624 21625 21626 21627 21628 21629
          21630 21631 21632 21633 21634 21635
          21636 21637 21639 21640 21641 21642
          21643 21644 21645 21650 21651 21652
          21653 21654 21656 21657 21658 21659
          21660 21664 21665 21666 21667 21668
          21669 21670 21671 21672 21673 21674
          21675 21676 21677 21678 21679 21680
          21681 21682 21683 21684 21685 21686
          21687 21688 21689 21690 21691 21692
          21693 21694 21695 21696 21697 21698
          21699 21700 21701 21702 21703 21704
          21705 21706 21707 21708 21709 21710
          21711 21712 21713 21714 21715 21716
          21717 21718 21719 21720 21721 21722
          21723 21724 21725 21726 21727 21728
          21729 21730 21731 21732 21733 21734
          21735 21736 21737 21738 21739 21740
          21741 21742 21743 21744 21745 21746
          21747 21748 21749 21750 21751 21752
          21754 21755 21756 21757 21758 21762
          21763 21764 21765 21766 21768 21769
          21770 21771 21772 21776 21777 21778
          21779 21780 21781 21782 21783 21784
          21785 21786 21787 21788 21789 21790
          21791 21792 21793 21794 21795 21796
          21797 21798 21799 21800 21801 21802
          21803 21804 21805 21806 21807 21808
          21809 21810 21811 21812 21813 21814
          21815 21816 21817 21818 21819 21820
          21821 21822 21823 21824 21825 21826
          21827 21828 21829 21830 21831 21832
          21833 21834 21835 21836 21837 21838
          21839 21840 21841 21842 21843 21844
          21845 21847 21848 21849 21850 21851
          21852 21853 21854 21855 21856 21859
          21879 21880 21881 21882 21886 21887
          21888 21889 21890 21891 21892 21893
          21894 21895 21896 21897 21898 21899
          21900 21901 21902 21903 21907 21908
          21909 21910 21914 21915 21916 21917
          21918 21919 21920 21921 21922 21923
          21924 21925 21926 21927 21928 21929
          21930 21931 21932 21933 21934 21935
          21936 21937 21938 21939 21940 21941
          21942 21943 21944 21945 21946 21947
          21948 21949 21950 21951 21952 21953
          21954 21955 21956 21957 21958 21959
          21960 21961 21962 21963 21964 21965
          21966 21967 21968 21969 21970 21971
          21972 21973 21974 21975 21976 21977
          21978 21979 21980 21981 21982 21983
          21984 21985 21986 21987 21988 21989
          21990 21991 21992 21993 21994 21995
          21996 21997 21998 21999 22000 22001
          22002 22003 22004 22005 22006 22007
          22008 22009 22010 22011 22012 22013
          22014 22015 22016 22017 22018 22019
          22020 22021 22022 22023 22024 22025
          22026 22027 22028 22029 22030 22031
          22032 22033 22034 22035 22036 22037
          22038 22039 22040 22041 22042 22043
          22044 22045 22046 22047 22048 22049
          22050 22051 22052 22053 22054 22055
          22056 22057 22058 22059 22060 22061
          22062 22063 22064 22065 22066 22067
          22068 22069 22070 22071 22072 22073
          22074 22075 22076 22077 22078 22079
          22080 22081 22082 22083 22084 22085
          22086 22087 22088 22089 22090 22091
          22092 22093 22094 22095 22096 22097
          22098 22099 22100 22101 22102 22103
          22104 22105 22106 22107 22108 22109
          22131 22132 22152 22153 22154 22155
          22156 22157 22158 22159 22160 22161
          22162 22163 22164 22165 22180 22181
          22183 22187 22188 22189 22190 22305
          22306 22307 22308 22309 22310 22311
          22312 22313 22314 22315 22316 22317
          22318 22322 22323 22324 22325 22326
          22327 22332 22333 22334 22335 22336
          22337 22342 22343 22344 22345 22349
          22350 22351 22352 22390 22391 22394
          22410 22412 22458 22459 22460 22461
          22465 22466 22467 22468 22472 22473
          22474 22475 22479 22480 22481 22482
          22514 22516 22528 22530 1289 3509
          3510 2029 3512 1290 4030 4757
          4759 4760 4758 4762 4761 4777
          4775 9691 9700 9702 9703 9701
          9705 9704 9709 4764 9715 9714
          4766 9716 9781 9780 9665 21638
          9666 21646 21647 2538 21648 21649
          9667 21655 9668 21661 21662 21663
          4755 21753 9680 21759 21760 21761
          9681 21767 9682 21773 21774 21775
          2539 21846 21857 21858 21860 21861
          21862 9706 21863 21864 9707 21883
          21884 21885 21904 21905 21906 21911
          21912 21913 22191 22185 22192 22193
          9756 9757 22319 22320 22321 22328
          9783 22330 22329 9784 22331 22338
          22339 9785 22340 22341 9786 22347
          22346 9787 22348 22353 22354 22355
          9788 22392 22393 22395 22396 22397
          9793 22398 22399 9794 22411 22413
          22414 22415 22416 9797 22463 22462
          9803 22464 22469 22470 22471 9804
          22477 22476 9805 22478 22483 22484
          22485 9806 22515 22517 22518 22519
          22520 9810 22529 22531 22532 22533
          22534 9812
        </DataArray>
        <DataArray type="Float64" Name="bounds" format="ascii" RangeMin="0" RangeMax="0">
          0 0 0 0 0 0
          0 0 0 0 0 0
          0 0 0 0 0 0
          0 0 0 0 0 0
          0 0 0 0 0 0
          0 0 0 0 0 0
          0 0 0 0 0 0
          0 0 0 0 0 0
          0 0 0 0 0 0
          0 0 0 0 0 0
          0 0 0 0 0 0
          0 0 0 0 0 0
          0 0 0 0 0 0
          0 0 0 0 0 0
          0 0 0 0 0 0
          0 0 0 0 0 0
          0 0 0 0 0 0
          0 0 0 0 0 0
          0 0 0 0 0 0
          0 0 0 0 0 0
          0 0 0 0 0 0
          0 0 0 0 0 0
          0 0 0 0 0 0
          0 0 0 0 0 0
          0 0 0 0 0 0
          0 0 0 0 0 0
          0 0 0 0 0 0
          0 0 0 0 0 0
          0 0 0 0 0 0
          0 0 0 0 0 0