<?xml version="1.0"?>
<VTKFile type="UnstructuredGrid" version="0.1" byte_order="LittleEndian" header_type="UInt32" compressor="vtkZLibDataCompressor">
  <UnstructuredGrid>
    <Piece NumberOfPoints="1731" NumberOfCells="1029">
      <PointData>
        <DataArray type="Int32" Name="libmesh_node_id" format="ascii" RangeMin="598" RangeMax="16759">
          598 599 600 601 602 603
          604 605 647 648 649 650
          676 677 678 679 710 711
          712 713 714 715 716 717
          718 719 720 721 761 762
          763 764 765 766 790 791
          792 793 794 795 822 823
          824 825 826 827 828 829
          830 831 832 833 834 835
          836 837 875 876 877 878
          879 880 881 882 904 905
          906 907 908 909 910 911
          936 937 938 939 940 941
          942 943 944 945 946 947
          948 949 950 951 952 953
          954 955 990 991 992 993
          994 995 996 997 998 999
          1019 1020 1021 1022 1023 1024
          1025 1026 1027 1028 1052 1053
          1054 1055 1056 1057 1058 1059
          1060 1061 1062 1063 1064 1065
          1066 1067 1068 1069 1070 1071
          1072 1073 1106 1107 1108 1109
          1110 1111 1112 1113 1114 1115
          1116 1135 1136 1137 1138 1139
          1140 1141 1142 1143 1144 1145
          1160 1161 1162 1163 1164 1165
          1166 1167 1168 1169 1170 1171
          1172 1173 1174 1175 1176 1177
          1178 1179 1180 1181 1182 1183
          1184 1185 1186 1187 1188 1189
          1190 1191 1192 1193 1194 1195
          1218 1219 1220 1221 1222 1223
          1224 1225 1226 1227 1228 1229
          1230 1231 1232 1233 1234 1235
          1247 1248 1249 1250 1251 1252
          1253 1254 1255 1256 1257 1258
          1259 1260 1261 1262 1263 1264
          1276 1277 1278 1279 1280 1281
          1282 1283 1284 1285 1286 1287
          1288 1289 1290 1291 1292 1293
          1294 1295 1296 1297 1298 1299
          1300 1301 1302 1303 1304 1305
          1306 1307 1308 1309 1310 1311
          1334 1335 1336 1337 1338 1339
          1340 1341 1342 1343 1344 1345
          1346 1347 1348 1349 1350 1351
          1363 1364 1365 1366 1367 1368
          1369 1370 1371 1372 1373 1374
          1375 1376 1377 1378 1379 1380
          1392 1393 1394 1395 1396 1397
          1398 1399 1400 1401 1402 1403
          1404 1405 1406 1407 1408 1409
          1410 1411 1412 1413 1414 1415
          1416 1417 1418 1419 1420 1421
          1422 1423 1424 1425 1426 1427
          1450 1451 1452 1453 1454 1455
          1456 1457 1458 1459 1460 1461
          1462 1463 1464 1465 1466 1467
          1479 1480 1481 1482 1483 1484
          1485 1486 1487 1488 1489 1490
          1491 1492 1493 1494 1495 1496
          1508 1509 1510 1511 1512 1513
          1514 1515 1516 1517 1518 1519
          1520 1521 1522 1523 1524 1525
          1526 1527 1528 1529 1530 1531
          1532 1533 1534 1535 1536 1537
          1538 1539 1540 1541 1542 1543
          1566 1567 1568 1569 1570 1571
          1572 1573 1574 1575 1576 1577
          1578 1579 1580 1581 1582 1583
          1595 1596 1597 1598 1599 1600
          1601 1602 1603 1604 1605 1606
          1607 1608 1609 1610 1611 1612
          1624 1625 1626 1627 1628 1629
          1630 1631 1632 1633 1634 1635
          1636 1637 1638 1639 1640 1641
          1642 1643 1644 1645 1646 1647
          1648 1649 1650 1651 1652 1653
          1654 1655 1656 1657 1658 1659
          1682 1683 1684 1685 1686 1687
          1688 1689 1690 1691 1692 1693
          1694 1695 1696 1697 1698 1699
          1711 1712 1713 1714 1715 1716
          1717 1718 1719 1720 1721 1722
          1723 1724 1725 1726 1727 1728
          1740 1741 1742 1743 1744 1745
          1746 1747 1748 1749 1750 1751
          1752 1753 1754 1755 1756 1757
          1758 1759 1760 1761 1762 1763
          1764 1765 1766 1767 1768 1769
          1798 1799 1800 1801 1802 1803
          1804 1805 1806 1807 1808 1809
          1810 1811 1812 1827 1828 1829
          1830 1831 1832 1833 1834 1835
          1836 1837 1838 1839 1840 1841
          1842 1856 1857 1858 1859 1860
          1861 1862 1863 1864 1865 1866
          1867 1868 1869 1870 1871 1872
          1873 1874 1875 1876 1877 1878
          1879 1880 1881 1882 1883 1884
          1885 1914 1915 1916 1917 1918
          1919 1920 1921 1922 1923 1924
          1925 1926 1927 1928 1943 1944
          1945 1946 1947 1948 1949 1950
          1951 1952 1953 1954 1955 1956
          1957 1958 1972 1973 1974 1975
          1976 1977 1978 1979 1980 1981
          1982 1983 1984 1985 1986 1987
          1988 1989 1990 1991 1992 1993
          1994 1995 1996 1997 1998 1999
          2000 2001 2030 2031 2032 2033
          2034 2035 2036 2037 2038 2039
          2040 2041 2042 2043 2044 2059
          2060 2061 2062 2063 2064 2065
          2066 2067 2068 2069 2070 2071
          2072 2073 2074 2088 2089 2090
          2091 2092 2093 2094 2095 2096
          2097 2098 2099 2100 2101 2102
          2103 2104 2105 2106 2107 2108
          2109 2110 2111 2112 2113 2114
          2115 2116 2117 2146 2147 2148
          2149 2150 2151 2152 2153 2154
          2155 2156 2157 2158 2159 2160
          2161 2175 2176 2177 2178 2179
          2180 2181 2182 2183 2184 2185
          2186 2187 2188 2189 2190 5553
          5554 5556 5612 5614 5615 5620
          13546 13547 13548 13551 13554 13565
          13566 13569 13571 13585 13586 13588
          13601 13603 13982 13983 13984 13985
          13986 13987 13988 13989 13990 13991
          13992 13993 13994 13995 13996 13997
          13998 13999 14006 14007 14010 14011
          14012 14013 14014 14015 14016 14017
          14018 14019 14030 14031 14032 14033
          14034 14035 14050 14051 14052 14053
          14139 14140 14143 14144 14146 14148
          14179 14181 15932 15933 15934 15935
          15936 15937 15938 15939 15940 15941
          15942 15943 15944 15945 15946 15947
          15948 15949 15950 15951 15952 15953
          15954 15955 15956 15957 15958 15959
          15960 15961 15962 15963 15964 15965
          15966 15967 15968 15969 15970 15971
          15972 15973 15974 15975 15976 15977
          15978 15979 15980 15981 15982 15983
          15984 15985 15986 15987 15988 15989
          15990 15991 15992 15993 15994 15995
          15996 15997 15998 15999 16000 16001
          16002 16003 16004 16005 16006 16007
          16008 16009 16010 16011 16012 16013
          16014 16015 16016 16017 16018 16019
          16020 16021 16022 16023 16024 16025
          16026 16027 16028 16029 16030 16031
          16032 16033 16034 16035 16036 16037
          16038 16039 16040 16041 16042 16043
          16044 16045 16046 16047 16048 16049
          16050 16051 16052 16053 16054 16055
          16056 16057 16058 16059 16060 16061
          16062 16073 16074 16075 16076 16077
          16078 16079 16080 16081 16082 16083
          16084 16085 16086 16087 16088 16089
          16090 16091 16092 16093 16094 16095
          16096 16097 16098 16099 16100 16101
          16102 16103 16104 16105 16106 16107
          16108 16109 16110 16111 16112 16113
          16114 16115 16116 16117 16118 16119
          16120 16121 16122 16123 16124 16125
          16126 16127 16128 16129 16130 16131
          16132 16133 16134 16135 16136 16137
          16138 16139 16140 16141 16142 16143
          16144 16145 16146 16147 16148 16149
          16150 16151 16152 16153 16154 16155
          16156 16157 16158 16159 16160 16161
          16162 16163 16164 16165 16166 16167
          16168 16169 16170 16171 16172 16173
          16174 16175 16176 16177 16178 16179
          16180 16181 16182 16183 16184 16185
          16186 16187 16188 16189 16190 16191
          16192 16193 16194 16195 16196 16197
          16198 16199 16200 16201 16202 16203
          16204 16205 16206 16207 16208 16209
          16210 16211 16212 16213 16214 16215
          16216 16217 16218 16219 16220 16221
          16222 16223 16224 16225 16226 16227
          16228 16229 16230 16231 16232 16233
          16234 16235 16236 16246 16247 16248
          16249 16250 16251 16252 16253 16254
          16255 16256 16257 16258 16259 16260
          16261 16262 16263 16264 16265 16266
          16267 16268 16269 16270 16271 16272
          16273 16274 16275 16276 16277 16278
          16279 16280 16281 16282 16283 16284
          16285 16286 16287 16288 16289 16290
          16291 16292 16293 16294 16295 16296
          16297 16298 16299 16300 16301 16302
          16303 16304 16305 16306 16307 16308
          16309 16310 16311 16312 16313 16314
          16315 16316 16317 16318 16319 16320
          16321 16322 16323 16324 16325 16326
          16327 16328 16329 16330 16331 16332
          16333 16334 16335 16336 16337 16338
          16339 16340 16341 16342 16343 16344
          16345 16346 16347 16348 16349 16350
          16351 16352 16353 16354 16355 16356
          16357 16358 16359 16360 16361 16362
          16363 16364 16365 16366 16367 16368
          16369 16370 16371 16372 16373 16374
          16375 16376 16377 16378 16379 16444
          16445 16446 16447 16448 16449 16450
          16451 16452 16453 16454 16455 16456
          16457 16458 16459 16460 16461 16462
          16463 16464 16465 16466 16467 16468
          16469 16472 16473 16474 16475 16476
          16477 16478 16479 16480 16481 16482
          16483 16486 16487 16489 16490 16491
          16492 16493 16494 16495 16496 16497
          16498 16499 16500 16501 16502 16503
          16504 16505 16506 16507 16508 16509
          16510 16511 16512 16513 16514 16515
          16516 16517 16518 16519 16520 16521
          16522 16523 16524 16525 16526 16527
          16528 16529 16530 16531 16532 16533
          16534 16535 16536 16537 16538 16539
          16540 16541 16542 16543 16544 16545
          16546 16547 16548 16549 16550 16551
          16552 16553 16554 16555 16556 16557
          16558 16559 16560 16561 16562 16563
          16564 16565 16566 16567 16568 16569
          16570 16571 16572 16573 16574 16575
          16576 16577 16578 16579 16580 16581
          16582 16583 16584 16585 16586 16587
          16588 16589 16590 16591 16592 16593
          16594 16595 16596 16597 16598 16599
          16600 16601 16602 16603 16604 16605
          16606 16607 16608 16609 16610 16611
          16612 16613 16614 16615 16616 16617
          16618 16619 16620 16621 16622 16623
          16624 16625 16626 16627 16628 16629
          16630 16631 16632 16633 16634 16635
          16636 16637 16638 16639 16640 16641
          16642 16643 16644 16645 16646 16647
          16648 16649 16650 16651 16652 16653
          16654 16655 16656 16657 16658 16659
          16660 16661 16662 16663 16664 16665
          16666 16667 16668 16669 16670 16671
          16672 16673 16674 16675 16676 16677
          16678 16679 16680 16681 16682 16683
          16684 16685 16686 16687 16688 16689
          16690 16691 16692 16693 16694 16695
          16696 16697 16698 16702 16703 16705
          16706 16708 16718 16719 16722 16724
          16725 16727 16734 16735 16738 16739
          16741 16743 16750 16751 16752 16753
          16754 16755 16756 16757 16758 16759
          1770 1771 1772 1773 1774 1775
          1813 1814 1815 1843 1844 1886
          1887 1929 1930 1959 2003 2045
          2046 2075 2162 2191 5522 6420
          6421 5523 2538 5613 5529 6423
          6424 3475 5616 6426 5526 5619
          3463 6439 6278 5640 5570 13542
          13543 13544 13545 13549 13550 13552
          13553 13555 13563 13564 13567 13568
          13570 13572 13583 13584 13587 13589
          3467 13591 13590 5559 13592 13600
          13602 13605 13604 3468 13606 13678
          13676 13679 13677 13684 13683 13714
          13713 13718 13717 14000 14001 14002
          14003 14004 14005 5617 14008 14009
          5618 14020 14021 14024 14025 14027
          14029 14036 14037 5622 14038 14039
          5623 14040 14041 14042 14043 14044
          14045 14046 14047 14049 14054 14055
          14056 5625 14057 14059 14061 14063
          14141 14142 13682 14145 14147 5571
          5641 14149 14150 14156 14159 13698
          14160 13699 14161 14162 14166 13704
          14167 14180 13716 14182 14183 14184
          14185 5576 5647 14186 14190 14193
          13728 14194 14197 13732 14198 16238
          16241 16240 16242 16383 16382 16385
          16386 16388 16387 16389 16470 16471
          16065 16066 16069 16072 16237 2295
          16484 16485 16381 16245 16488 16699
          16700 16701 16704 16239 16707 16720
          16721 16723 16243 16726 16244 16736
          16737 16740 16742
        </DataArray>
        <DataArray type="Float64" Name="bounds" format="ascii" RangeMin="0" RangeMax="0">
          0 0 0 0 0 0
          0 0 0 0 0 0
          0 0 0 0 0 0
          0 0 0 0 0 0
          0 0 0 0 0 0
          0 0 0 0 0 0
          0 0 0 0 0 0
          0 0 0 0 0 0
          0 0 0 0 0 0
          0 0 0 0 0 0
          0 0 0 0 0 0
          0 0 0 0 0 0
          0 0 0 0 0 0
          0 0 0 0 0 0
          0 0 0 0 0 0
          0 0 0 0 0 0
          0 0 0 0 0 0
          0 0 0 0 0 0
          0 0 0 0 0 0
          0 0 0 0 0 0
          0 0 0 0 0 0
          0 0 0 0 0 0
          0 0 0 0 0 0
          0 0 0 0 0 0
          0 0 0 0 0 0
          0 0 0 0 0 0
          0 0 0 0 0 0
          0 0 0 0 0 0
          0 0 0 0 0 0
          0 0 0 0 0 0
          0 0 0 0 0 0
          0 0 0 0 0 0
          0 0 0 0 0 0
          0 0 0 0 0 0
          0 0 0 0 0 0
          0 0 0 0 0 0
          0 0 0 0 0 0
          0 0 0 0 0 0
          0 0 0 0 0 0
          0 0 0 0 0 0
          0 0 0 0 0 0
          0 0 0 0 0 0
          0 0 0 0 0 0
          0 0 0 0 0 0
          0 0 0 0 0 0
          0 0 0 0 0 0
          0 0 0 0 0 0
          0 0 0 0 0 0
          0 0 0 0 0 0
          0 0 0 0 0 0
          0 0 0 0 0 0
          0 0 0 0 0 0
          0 0 0 0 0 0
          0 0 0 0 0 0
          0 0 0 0 0 0
          0 0 0 0 0 0
          0 0 0 0 0 0
          0 0 0 0 0 0
          0 0 0 0 0 0
          0 0 0 0 0 0
          0 0 0 0 0 0
          0 0 0 0 0 0
          0 0 0 0 0 0
          0 0 0 0 0 0
          0 0 0 0 0 0
          0 0 0 0 0 0
          0 0 0 0 0 0
          0 0 0 0 0 0
          0 0 0 0 0 0
          0 0 0 0 0 0
          0 0 0 0 0 0
          0 0 0 0 0 0
          0 0 0 0 0 0
          0 0 0 0 0 0
          0 0 0 0 0 0
          0 0 0 0 0 0
          0 0 0 0 0 0
          0 0 0 0 0 0
          0 0 0 0 0 0
          0 0 0 0 0 0
          0 0 0 0 0 0
          0 0 0 0 0 0
          0 0 0 0 0 0
          0 0 0 0 0 0
          0 0 0 0 0 0
          0 0 0 0 0 0
          0 0 0 0 0 0
          0 0 0 0 0 0
          0 0 0 0 0 0
          0 0 0 0 0 0
          0 0 0 0 0 0
          0 0 0 0 0 0
          0 0 0 0 0 0
          0 0 0 0 0 0
          0 0 0 0 0 0
          0 0 0 0 0 0
          0 0 0 0 0 0
          0 0 0 0 0 0
          0 0 0 0 0 0
          0 0 0 0 0 0
          0 0 0 0 0 0
          0 0 0 0 0 0
          0 0 0 0 0 0
          0 0 0 0 0 0
          0 0 0 0 0 0
          0 0 0 0 0 0
          0 0 0 0 0 0
          0 0 0 0 0 0
          0 0 0 0 0 0
          0 0 0 0 0 0
          0 0 0 0 0 0
          0 0 0 0 0 0
          0 0 0 0 0 0
          0 0 0 0 0 0
          0 0 0 0 0 0
          0 0 0 0 0 0
          0 0 0 0 0 0
          0 0 0 0 0 0
          0 0 0 0 0 0
          0 0 0 0 0 0
          0 0 0 0 0 0
          0 0 0 0 0 0
          0 0 0 0 0 0
          0 0 0 0 0 0
          0 0 0 0 0 0
          0 0 0 0 0 0
          0 0 0 0 0 0
          0 0 0 0 0 0
          0 0 0 0 0 0
          0 0 0 0 0 0
          0 0 0 0 0 0
          0 0 0 0 0 0
          0 0 0 0 0 0
          0 0 0 0 0 0
          0 0 0 0 0 0
          0 0 0 0 0 0
          0 0 0 0 0 0
          0 0 0 0 0 0
          0 0 0 0 0 0
          0 0 0 0 0 0
          0 0 0 0 0 0
          0 0 0 0 0 0
          0 0 0 0 0 0
          0 0 0 0 0 0
          0 0 0 0 0 0
          0 0 0 0 0 0
          0 0 0 0 0 0
          0 0 0 0 0 0
          0 0 0 0 0 0
          0 0 0 0 0 0
          0 0 0 0 0 0
          0 0 0 0 0 0
          0 0 0 0 0 0
          0 0 0 0 0 0
          0 0 0 0 0 0
          0 0 0 0 0 0
          0 0 0 0 0 0
          0 0 0 0 0 0
          0 0 0 0 0 0
          0 0 0 0 0 0
          0 0 0 0 0 0
          0 0 0 0 0 0
          0 0 0 0 0 0
          0 0 0 0 0 0
          0 0 0 0 0 0
          0 0 0 0 0 0
          0 0 0 0 0 0
          0 0 0 0 0 0
          0 0 0 0 0 0
          0 0 0 0 0 0
          0 0 0 0 0 0
          0 0 0 0 0 0
          0 0 0 0 0 0
          0 0 0 0 0 0
          0 0 0 0 0 0
          0 0 0 0 0 0
          0 0 0 0 0 0
          0 0 0 0 0 0
          0 0 0 0 0 0
          0 0 0 0 0 0
          0 0 0 0 0 0
          0 0 0 0 0 0
          0 0 0 0 0 0
          0 0 0 0 0 0
          0 0 0 0 0 0
          0 0 0 0 0 0
          0 0 0 0 0 0
          0 0 0 0 0 0
          0 0 0 0 0 0
          0 0 0 0 0 0
          0 0 0 0 0 0
          0 0 0 0 0 0
          0 0 0 0 0 0
          0 0 0 0 0 0
          0 0 0 0 0 0
          0 0 0 0 0 0
          0 0 0 0 0 0
          0 0 0 0 0 0
          0 0 0 0 0 0
          0 0 0 0 0 0
          0 0 0 0 0 0
          0 0 0 0 0 0
          0 0 0 0 0 0
          0 0 0 0 0 0
          0 0 0 0 0 0
          0 0 0 0 0 0
          0 0 0 0 0 0
          0 0 0 0 0 0
          0 0 0 0 0 0
          0 0 0 0 0 0
          0 0 0 0 0 0
          0 0 0 0 0 0
          0 0 0 0 0 0
          0 0 0 0 0 0
          0 0 0 0 0 0
          0 0 0 0 0 0
          0 0 0 0 0 0
          0 0 0 0 0 0
          0 0 0 0 0 0
          0 0 0 0 0 0
          0 0 0 0 0 0
          0 0 0 0 0 0
          0 0 0 0 0 0
          0 0 0 0 0 0
          0 0 0 0 0 0
          0 0 0 0 0 0
          0 0 0 0 0 0
          0 0 0 0 0 0
          0 0 0 0 0 0
          0 0 0 0 0 0
          0 0 0 0 0 0
          0 0 0 0 0 0
          0 0 0 0 0 0
          0 0 0 0 0 0
          0 0 0 0 0 0
          0 0 0 0 0 0
          0 0 0 0 0 0
          0 0 0 0 0 0
          0 0 0 0 0 0
          0 0 0 0 0 0
          0 0 0 0 0 0
          0 0 0 0 0 0
          0 0 0 0 0 0
          0 0 0 0 0 0
          0 0 0 0 0 0
          0 0 0 0 0 0
          0 0 0 0 0 0
          0 0 0 0 0 0
          0 0 0 0 0 0
          0 0 0 0 0 0
          0 0 0 0 0 0
          0 0 0 0 0 0
          0 0 0 0 0 0
          0 0 0 0 0 0
          0 0 0 0 0 0
          0 0 0 0 0 0
          0 0 0 0 0 0
          0 0 0 0 0 0
          0 0 0 0 0 0
          0 0 0 0 0 0
          0 0 0 0 0 0
          0 0 0 0 0 0
          0 0 0 0 0 0
          0 0 0 0 0 0
          0 0 0 0 0 0
          0 0 0 0 0 0
          0 0 0 0 0 0
          0 0 0 0 0 0
          0 0 0 0 0 0
          0 0 0 0 0 0
          0 0 0 0 0 0
          0 0 0 0 0 0
          0 0 0 0 0 0
          0 0 0 0 0 0
          0 0 0 0 0 0
          0 0 0 0 0 0
          0 0 0 0 0 0
          0 0 0 0 0 0
          0 0 0 0 0 0
          0 0 0 0 0 0
          0 0 0 0 0 0
          0 0 0 0 0 0
          0 0 0 0 0 0
          0 0 0 0 0 0
          0 0 0 0 0 0
          0 0 0 0 0 0
          0 0 0 0 0 0
          0 0 0 0 0 0
          0 0 0
        </DataArray>
        <DataArray type="Float64" Name="gradient_error" format="ascii" RangeMin="2.3487328696996097e-15" RangeMax="4.209439391098647e-7">
          6.7469643280103235e-15 4.581091565565546e-15 3.993097854784851e-15 3.179031014588709e-15 7.72780784420707e-15 5.079688940944946e-15
          1.0318141238245323e-14 6.427649029485555e-15 2.500596202352517e-15 2.4632631024989086e-15 2.483196508179004e-15 2.523785651957022e-15
          2.585973601584266e-15 2.56156203060525e-15 2.534822978675186e-15 2.5104144831882576e-15 4.852072831683059e-14 2.7079991901899572e-14
          4.724923048084301e-14 2.69546149848699e-14 2.533651776972819e-14 1.563174961519127e-14 1.2931040616687182e-14 8.768071372002623e-15
          2.9167034728086494e-14 1.6345267320726586e-14 3.941207429233564e-14 2.112994280488191e-14 4.055416532235387e-15 4.560899894051414e-15
          4.151389657198142e-15 3.4769174985088377e-15 2.995783568202333e-15 2.7234862655016365e-15 2.4715775775022174e-15 2.461800299206034e-15
          2.3757978537419326e-15 2.3487328696996097e-15 2.4680672230379854e-15 2.5991612135750916e-15 8.044947345064519e-14 4.5605123880955975e-14
          1.5517759781373771e-13 8.440252955323559e-14 2.145743132533255e-13 1.1887063867117588e-13 1.9334579632958983e-13 1.0985385041557253e-13
          9.461079159129525e-14 5.765643724445204e-14 5.2404991137485866e-14 3.2495722055400143e-14 1.2683924792402921e-13 6.71411497954182e-14
          1.6132626195231633e-13 8.366499980215639e-14 7.0012024459829276e-15 8.922312599764072e-15 1.4167301582057046e-14 1.5762502379960517e-14
          1.2412258613103647e-14 7.929955752780338e-15 5.402898169816427e-15 4.8317221485493676e-15 3.241630580699093e-15 4.217163906794649e-15
          5.167639075087824e-15 5.163100258365814e-15 4.122434328598447e-15 3.273458532246252e-15 3.362744672825643e-15 3.65970664510228e-15
          2.439024127569991e-13 1.4482598483103302e-13 4.735471370077306e-13 2.6141427672028383e-13 7.636234109709346e-13 4.247614843184535e-13
          9.29654507870221e-13 5.236874741816674e-13 7.735396536135459e-13 4.455001033809909e-13 3.565787469119569e-13 2.2013165070879997e-13
          2.386005759136956e-13 1.4150960382846384e-13 5.652836677050883e-13 2.9556767493732844e-13 6.699865410785767e-13 3.4757184030525633e-13
          3.6322418938894406e-13 1.9058379477939573e-13 2.4340245184954798e-14 2.757707800279613e-14 4.833166683054896e-14 6.620923849036525e-14
          6.562608070481662e-14 4.637376862484518e-14 2.5779336261739944e-14 1.812730646608095e-14 1.9035690344792393e-14 1.381553467038156e-14
          2.930933464842645e-15 5.872739572755309e-15 1.0763775995125434e-14 1.4698036487616846e-14 1.3791608261197435e-14 9.06298274404734e-15
          7.140040780247791e-15 1.0402930762593332e-14 1.291424115764889e-14 9.687669170915737e-15 1.5902695541491161e-12 9.004124267035791e-13
          2.6612419775903678e-12 1.5066332086938254e-12 3.595676005167912e-12 2.0436951645910753e-12 3.910803176359878e-12 2.2349606752467397e-12
          2.9933089281437473e-12 1.7445215022329682e-12 1.408016767856648e-12 8.617616893535024e-13 1.24073538283318e-12 6.922326515051385e-13
          2.5725622536837913e-12 1.3380582375563237e-12 2.8188555972380547e-12 1.474778541883145e-12 1.4589169673006962e-12 7.762941752196235e-13
          4.5376672478351427e-13 2.481358920865639e-13 1.1714156058888183e-13 1.9114318885983202e-13 2.6665061274575673e-13 3.045130853764615e-13
          2.705327618121474e-13 1.7656106842866557e-13 9.257461932413514e-14 7.994144832032862e-14 9.688047085854955e-14 6.933377026940165e-14
          3.3556033200367785e-14 2.3727821919721688e-14 3.026193792238149e-14 4.158690147727406e-14 4.990799661932016e-14 4.533144730210561e-14
          3.761552600697438e-14 4.14193184711734e-14 5.632867521180119e-14 6.305945518886374e-14 4.4996157400252443e-14 2.4607007011121996e-14
          1.9049109360616245e-12 2.2783923188910677e-12 1.4753521360162038e-12 1.2789349206186393e-12 3.71618348093383e-12 2.2789659964246435e-12
          6.524299713810051e-12 3.879197688880016e-12 1.0188909251457527e-11 5.970445677676954e-12 1.3739686078238247e-11 7.98399492770631e-12
          1.611705313374651e-11 9.308547345315099e-12 1.5774909913893392e-11 9.111715689032167e-12 1.103717523444377e-11 6.481555063806877e-12
          5.941839566403753e-12 3.5045720437659822e-12 6.890183822543121e-12 3.69276758835731e-12 1.1863720838585655e-11 6.212066560038127e-12
          1.2002759749584674e-11 6.360257995590731e-12 5.906076020916548e-12 3.204137794463163e-12 1.7414294376974567e-12 9.931802971530507e-13
          9.324969185757841e-13 5.511289012406181e-13 4.733500455545002e-13 3.320981877965552e-13 2.464775856896422e-13 2.1755275819592625e-13
          4.0805886330884767e-13 3.900344247052852e-13 5.090693799282056e-13 7.12582593891962e-13 9.672418479535098e-13 1.2002055273313113e-12
          1.3354851836111094e-12 1.309093780085483e-12 1.050580012751217e-12 6.436484716479178e-13 3.8415182749708013e-13 4.3721234563549414e-13
          5.145475760385463e-13 3.5905676290488394e-13 1.8245430718107777e-13 1.2765310273108582e-13 1.383436481760172e-13 1.325609145573692e-13
          1.4380577347635593e-13 1.271099442349164e-13 1.7639024794095355e-13 1.910695238339436e-13 1.8250159201064088e-13 1.7210727748824698e-13
          1.709288103385307e-13 1.6966609600002506e-13 1.7522513233244814e-13 2.1999242216762462e-13 2.729523008226617e-13 3.14012409780388e-13
          3.113389104803038e-13 2.1591395779998962e-13 1.1997745775351075e-13 8.554532155671944e-14 8.584096631342424e-14 7.649389841252815e-14
          2.188293921721127e-11 2.5127162910437632e-11 1.62193038977415e-11 1.4336132013979112e-11 3.3765635316391554e-11 2.1194117108711092e-11
          4.509859749365432e-11 2.75976585985349e-11 5.6352824685793693e-11 3.376964832170239e-11 6.504026016615447e-11 3.8321330402878306e-11
          6.780886570941985e-11 3.9466304628007314e-11 5.954190783940691e-11 3.4520339315602726e-11 3.889030798476237e-11 2.2683009606480438e-11
          2.7690235654413573e-11 1.5563359656391794e-11 3.843022655975939e-11 2.057010163385209e-11 5.53523344978641e-11 2.9542801700674004e-11
          5.179688206329055e-11 2.789854715499936e-11 2.4144597984714754e-11 1.342578008080249e-11 6.593057034965459e-12 3.988791759288142e-12
          3.9767290708242235e-12 2.448765781267243e-12 2.0865424032366554e-12 1.4978936522255562e-12 1.060351003994724e-12 9.456821864176508e-13
          4.360587085492971e-12 4.059743005510868e-12 5.070874878371215e-12 5.794667071759821e-12 6.2627499575619055e-12 6.373473887281067e-12
          6.052052898037767e-12 5.1986745131740115e-12 3.76235649769952e-12 2.4244582580604527e-12 2.1698375027584993e-12 2.7011143982988e-12
          2.7576244737858966e-12 1.866024479771031e-12 9.80300177163229e-13 6.620024341873458e-13 6.454211315948136e-13 5.784435205702068e-13
          1.409729285940581e-12 1.3301612002747812e-12 1.5191508557118054e-12 1.4926144401041491e-12 1.339027957512725e-12 1.1445471349599945e-12
          9.803622494807408e-13 8.985782345494963e-13 1.0490017672005222e-12 1.4124328577508882e-12 1.6296982975722047e-12 1.668959893113679e-12
          1.5150367008636237e-12 1.0250867826518375e-12 5.760738707156316e-13 4.0320237666442885e-13 3.8159736197517006e-13 3.258736722998359e-13
          1.9567252534892165e-10 2.0424367212961187e-10 1.3228095532962677e-10 1.2790003682996944e-10 2.2584684324733767e-10 1.4304494990106042e-10
          2.5138664795506933e-10 1.5508360213033892e-10 2.716964240407811e-10 1.634686077079073e-10 2.7798710194538673e-10 1.6362744380785748e-10
          2.5897992986876895e-10 1.4980190653801786e-10 1.9910333213417226e-10 1.1415114781408928e-10 1.3017672840256712e-10 7.427286248998151e-11
          1.4240424214326936e-10 7.938358072038463e-11 2.1101022975071076e-10 1.1607225076802633e-10 2.611804698522046e-10 1.4275003864162082e-10
          2.2686678067859436e-10 1.246017489304112e-10 1.004633669522194e-10 5.7556215197788124e-11 2.5066372205760638e-11 1.6392097886527904e-11
          1.6853686792658427e-11 1.0899237983464986e-11 9.216649870576975e-12 6.794268162272276e-12 4.6238477951290136e-12 4.1658640607041635e-12
          3.54672000598963e-11 3.530509603484673e-11 3.541657272049155e-11 3.436261496213102e-11 3.204819138253851e-11 2.847522408624407e-11
          2.3674515061467894e-11 1.7764283047069458e-11 1.2732404302022091e-11 1.2454147199642927e-11 1.5075387281930334e-11 1.6425619310372434e-11
          1.479412671731164e-11 9.725444086159932e-12 5.216752543341424e-12 3.407307180453567e-12 3.0290521059186476e-12 2.5478583577185732e-12
          1.061616159015094e-11 1.0482643758676286e-11 1.0590088886199905e-11 9.944673618653563e-12 8.855591390043447e-12 7.682662502159908e-12
          6.72514691566898e-12 6.329602600132602e-12 7.095812026648275e-12 8.545375101785954e-12 9.016502778518755e-12 8.531631189707857e-12
          7.251536252395284e-12 4.801824728963008e-12 2.7156815193876737e-12 1.8698251866355865e-12 1.6862177578697172e-12 1.3878363891578333e-12
          1.1621542929035018e-9 1.162172664656069e-9 7.411784042660039e-10 7.472664319654511e-10 1.1617561179279448e-9 7.250463044230702e-10
          1.1517772232937786e-9 6.986220609386882e-10 1.1108295632125558e-9 6.53929858520405e-10 1.0115076747317648e-9 5.788119545219973e-10
          8.194233216941608e-10 4.596910642465531e-10 5.18697942155089e-10 2.9823159699970064e-10 4.789471886901631e-10 2.8716227270623123e-10
          8.394893376306572e-10 4.87058333963709e-10 1.1429654398962254e-9 6.497310524148719e-10 1.2465660652986773e-9 6.990672565016546e-10
          1.0100224229023375e-9 5.674250300037297e-10 4.2815277116146503e-10 2.5391297408837006e-10 9.829447493963182e-11 7.051661202651458e-11
          7.217990061886521e-11 4.9318257424724874e-11 4.095665724883733e-11 3.110114012257041e-11 2.0449244117556496e-11 1.861301178269629e-11
          1.9168980280391643e-10 1.9797812309342507e-10 1.7467018910758627e-10 1.5089968285281745e-10 1.237831281134992e-10 9.563679262486648e-11
          7.059362069407723e-11 5.881181111036428e-11 6.90766034303374e-11 9.099562045163957e-11 1.0174038356352612e-10 9.682967001329431e-11
          7.943357022239597e-11 5.0895547347231733e-11 2.763920321219576e-11 1.7484702923850898e-11 1.431538803535213e-11 1.1334599543466054e-11
          6.319546173189408e-11 6.357767515944976e-11 6.100388729697694e-11 5.633246712203685e-11 5.0536102398744126e-11 4.515735093750333e-11
          4.122843458920912e-11 3.98583703764163e-11 4.277585013837547e-11 4.73639106065182e-11 4.698410219353372e-11 4.2090892321956645e-11
          3.4039503339670096e-11 2.2117917679188453e-11 1.2539657310994187e-11 8.512791617117256e-12 7.385153074400773e-12 5.892419639096023e-12