<?xml version="1.0"?>
<VTKFile type="UnstructuredGrid" version="0.1" byte_order="LittleEndian" header_type="UInt32" compressor="vtkZLibDataCompressor">
  <UnstructuredGrid>
    <Piece NumberOfPoints="1454" NumberOfCells="1046">
      <PointData>
        <DataArray type="Int32" Name="libmesh_node_id" format="ascii" RangeMin="2488" RangeMax="10297">
          2488 2489 2490 2491 2498 2499
          3257 3258 3259 3262 3263 3264
          3265 3280 3289 3298 3301 3302
          3303 3304 3306 3307 3308 3309
          3315 3320 4569 4571 4572 4573
          4574 4575 4576 4577 4578 4579
          4580 4581 4582 4583 4584 4593
          4595 4596 4597 4598 4599 4600
          4601 4602 4603 4604 4605 4606
          4607 4608 4612 4613 4615 4616
          4618 4633 4634 4637 4638 4640
          4641 4642 4663 4664 4665 4666
          4667 4668 4669 4670 4671 4672
          4693 4694 4697 4698 4699 4700
          4701 4702 4735 4736 4738 4741
          4743 4744 4745 4746 4747 4748
          4749 4750 4751 4752 4754 4758
          4760 4761 4762 4763 4764 4765
          4766 4769 4770 4772 4775 4777
          4778 4779 4780 4781 4782 4783
          4784 4785 4786 4788 4792 4794
          4795 4796 4797 4798 4799 4800
          4801 4802 4805 4807 4808 4810
          4821 4822 4823 4824 4825 4826
          4827 4835 4836 4839 4841 4842
          4844 4855 4856 4857 4858 4859
          4860 4861 4876 4877 4878 4880
          4881 4904 4905 4908 4909 4925
          4926 4929 4930 4953 4954 4957
          4958 6103 6104 6107 6157 6158
          6159 6160 6161 6163 6164 6173
          6174 6175 6178 6179 6180 6181
          6182 6186 6187 6199 6200 6203
          6204 7941 7951 7957 7958 7959
          7962 7963 7964 7965 7966 7967
          7968 7969 7970 7971 7972 7973
          7974 7975 7976 7977 7978 7979
          7980 7983 7984 7987 7988 7989
          7990 7991 7992 7993 7994 7995
          7996 7997 7998 7999 8000 8001
          8002 8003 8004 8005 8006 8007
          8008 8009 8010 8011 8012 8013
          8014 8015 8016 8017 8018 8019
          8020 8021 8022 8023 8024 8025
          8026 8027 8028 8029 8030 8031
          8032 8033 8034 8057 8075 8076
          8079 8080 8081 8082 8083 8084
          8085 8086 8087 8088 8089 8090
          8091 8092 8093 8094 8095 8096
          8097 8098 8099 8100 8101 8102
          8103 8104 8105 8106 8107 8108
          8109 8110 8111 8112 8113 8114
          8115 8116 8117 8118 8119 8120
          8121 8122 8123 8124 8125 8126
          8127 8128 8129 8130 8131 8132
          8133 8134 8135 8136 8137 8138
          8139 8140 8141 8142 8143 8144
          8148 8149 8151 8152 8154 8155
          8156 8157 8158 8159 8160 8161
          8162 8163 8164 8165 8166 8169
          8170 8172 8174 8175 8176 8177
          8178 8179 8180 8181 8182 8183
          8184 8185 8186 8189 8191 8192
          8194 8195 8196 8197 8198 8199
          8200 8201 8202 8204 8206 8208
          8291 8292 8293 8294 8295 8296
          8297 8298 8299 8300 8301 8302
          8305 8306 8308 8310 8311 8312
          8313 8314 8315 8316 8317 8318
          8319 8320 8321 8322 8323 8324
          8325 8326 8327 8328 8329 8330
          8331 8332 8333 8334 8335 8336
          8337 8338 8339 8340 8341 8342
          8343 8344 8421 8422 8423 8426
          8427 8428 8430 8431 8432 8433
          8434 8435 8436 8437 8438 8439
          8442 8443 8446 8448 8450 8451
          8452 8453 8454 8455 8456 8457
          8458 8459 8484 8485 8486 8487
          8490 8491 8494 8495 8496 8497
          8498 8499 8500 8501 8502 8503
          8504 8505 8506 8507 8508 8509
          8510 8511 8512 8513 8514 8515
          8516 8517 8518 8519 8520 8521
          8522 8523 8524 8525 8526 8527
          8528 8529 8530 8531 8532 8533
          8554 8555 8558 8559 8574 8575
          8576 8577 8578 8579 8580 8584
          8585 8586 8587 8588 8589 8590
          8594 8595 8598 8599 8620 8621
          8623 8626 8632 8634 8636 8647
          8648 8650 8653 8661 8663 8665
          8667 8668 8669 8670 8671 8672
          8673 8674 8675 8676 8677 8678
          8679 8680 8681 8682 8683 8684
          8685 8686 8687 8688 8689 8690
          8691 8692 8693 8694 8695 8696
          8697 8698 8699 8700 8701 8702
          8703 8704 8705 8706 8707 8708
          8709 8710 8711 8712 8713 8714
          8715 8716 8717 8718 8719 8720
          8721 8722 8723 8724 8725 8726
          8727 8728 8729 8730 8731 8732
          8733 8734 8739 8741 8743 8759
          8761 8763 8775 8776 8777 8778
          8779 8780 8781 8782 8783 8784
          8785 8786 8787 8788 8789 8790
          8791 8792 8793 8794 8795 8796
          8797 8798 8799 8800 8801 8802
          8803 8804 8805 8806 8807 8808
          8809 8810 8811 8812 8813 8814
          8815 8816 8817 8818 8819 8820
          8821 8822 8823 8824 8825 8826
          8827 8828 8829 8830 8843 8844
          8846 8849 8859 8861 8863 8877
          8878 8880 8883 8893 8895 8897
          8899 8900 8901 8902 8903 8904
          8905 8906 8907 8908 8909 8910
          8911 8912 8913 8914 8915 8916
          8917 8918 8919 8920 8921 8922
          8923 8924 8925 8926 8927 8928
          8929 8930 8931 8932 8933 8934
          8935 8936 8937 8938 8939 8940
          8941 8942 8943 8944 8945 8946
          8947 8948 8949 8950 8951 8952
          8953 8954 8955 8956 8957 8958
          8959 8960 8961 8962 8963 8964
          8965 8966 8973 8975 8977 8997
          8999 9001 9013 9014 9015 9016
          9017 9018 9019 9020 9021 9022
          9023 9024 9025 9026 9027 9028
          9029 9030 9031 9032 9033 9034
          9035 9036 9037 9038 9039 9040
          9041 9042 9043 9044 9045 9046
          9047 9048 9049 9050 9051 9052
          9053 9054 9055 9056 9057 9058
          9059 9060 9061 9062 9063 9064
          9065 9066 9067 9068 9069 9070
          9071 9072 9073 9074 9075 9076
          9077 9078 9079 9080 9083 9085
          9086 9088 9089 9090 9091 9092
          9093 9094 9095 9096 9098 9100
          9102 9103 9104 9105 9106 9107
          9108 9109 9110 9111 9112 9113
          9114 9117 9119 9120 9122 9123
          9124 9125 9126 9127 9128 9129
          9130 9132 9134 9136 9205 9206
          9207 9208 9209 9210 9211 9212
          9213 9214 9215 9216 9217 9218
          9219 9220 9221 9222 9223 9224
          9225 9226 9227 9228 9229 9230
          9231 9232 9233 9234 9235 9236
          9237 9238 9239 9240 9241 9242
          9243 9244 9245 9246 9247 9248
          9249 9250 9251 9252 9253 9254
          9255 9256 9257 9258 9259 9260
          9317 9318 9319 9320 9321 9322
          9323 9324 9325 9326 9327 9328
          9331 9333 9334 9336 9337 9338
          9339 9340 9341 9342 9343 9344
          9346 9348 9350 9351 9352 9353
          9354 9355 9356 9357 9358 9359
          9360 9361 9362 9365 9367 9368
          9370 9371 9372 9373 9374 9375
          9376 9377 9378 9380 9382 9384
          9453 9454 9455 9456 9457 9458
          9459 9460 9461 9462 9463 9464
          9465 9466 9467 9468 9469 9470
          9471 9472 9473 9474 9475 9476
          9477 9478 9479 9480 9481 9482
          9483 9484 9485 9486 9487 9488
          9489 9490 9491 9492 9493 9494
          9495 9496 9497 9498 9499 9500
          9501 9502 9503 9504 9505 9506
          9507 9508 9605 9606 9608 9609
          9610 9612 9613 9614 9615 9616
          9617 9618 9620 9622 9624 9626
          9627 9628 9629 9633 9634 9636
          9637 9638 9640 9641 9642 9643
          9644 9645 9646 9712 9807 9808
          9810 9811 9812 9814 9815 9816
          9817 9818 9819 9820 9835 9836
          9838 9839 9840 9842 9843 9844
          9845 9846 9847 9848 9959 9960
          9961 9962 9963 9964 9965 9966
          9967 9968 9969 9970 9971 9972
          9973 9974 9975 9976 9980 9981
          9982 9983 9987 9988 9989 9990
          9991 9992 9993 9994 9995 9996
          9997 9998 9999 10000 10195 10196
          10197 10198 10199 10200 10201 10202
          10203 10204 10205 10206 10207 10208
          10223 10224 10225 10226 10227 10228
          10229 10230 10231 10232 10233 10234
          10235 10236 3274 3291 3283 3275
          3292 3284 4635 4636 4639 4695
          4696 4703 4707 4704 4708 4713
          4685 4714 4686 4715 4716 4723
          4724 6110 6111 3267 3268 6116
          6183 6184 6185 6188 3269 4609
          3270 6201 6202 6205 8145 8146
          8147 8150 4610 8153 4611 8167
          8168 8171 8173 4614 8187 8188
          8190 3277 8193 4617 8203 8205
          8207 3278 8303 8304 8307 8309
          8246 8352 8279 8355 8354 8357
          8283 8359 8361 8372 8373 8376
          8377 8379 8381 8492 8534 8535
          8538 8539 8541 8543 8556 8540
          8557 8560 8561 4710 8562 8563
          4712 8581 8582 8583 4691 4720
          8591 8592 8593 4721 8596 8597
          8600 8601 8602 8603 4730 9081
          9082 9084 4803 9087 4804 9097
          9099 9101 4806 9115 9116 9118
          3311 9121 4809 9131 9133 9135
          3312 9159 9261 9263 9163 9265
          9267 9275 9277 9279 9281 9193
          9289 9291 9197 9293 9295 9303
          9305 9307 9309 9329 9330 9332
          4837 9335 4838 9345 9347 9349
          4840 9363 9364 9366 3317 9369
          4843 9379 9381 9383 3318 9407
          9509 9511 9411 9513 9515 9523
          9525 9527 9529 9441 9537 9539
          9445 9541 9543 9551 9553 9555
          9557 9630 9631 9632 4879 9654
          9648 9655 9656 9650 9658 9652
          9659 9713 9717 9716 9828 9822
          9829 9832 9826 9833 9856 9850
          9857 9860 9854 9861 9977 9978
          9979 4927 9984 9985 9986 4928
          10001 10002 10005 10006 10008 10009
          10012 10013 10015 10017 10019 10021
          10029 10031 10033 10035 10043 10045
          10047 10049 10057 10061 10071 10072
          10075 10076 10078 10079 10082 10083
          10133 10032 10134 10137 10209 10210
          10213 10214 10216 10217 10220 10221
          10237 10238 10241 10242 10244 10245
          10248 10249 10251 10253 10255 10257
          10265 10269 10279 10281 10283 10285
          10293 10297
        </DataArray>
        <DataArray type="Float64" Name="bounds" format="ascii" RangeMin="0" RangeMax="0">
          0 0 0 0 0 0
          0 0 0 0 0 0
          0 0 0 0 0 0
          0 0 0 0 0 0
          0 0 0 0 0 0
          0 0 0 0 0 0
          0 0 0 0 0 0
          0 0 0 0 0 0
          0 0 0 0 0 0
          0 0 0 0 0 0
          0 0 0 0 0 0
          0 0 0 0 0 0
          0 0 0 0 0 0
          0 0 0 0 0 0
          0 0 0 0 0 0
          0 0 0 0 0 0
          0 0 0 0 0 0
          0 0 0 0 0 0
          0 0 0 0 0 0
          0 0 0 0 0 0
          0 0 0 0 0 0
          0 0 0 0 0 0
          0 0 0 0 0 0
          0 0 0 0 0 0
          0 0 0 0 0 0
          0 0 0 0 0 0
          0 0 0 0 0 0
          0 0 0 0 0 0
          0 0 0 0 0 0
          0 0 0 0 0 0
          0 0 0 0 0 0
          0 0 0 0 0 0
          0 0 0 0 0 0
          0 0 0 0 0 0
          0 0 0 0 0 0
          0 0 0 0 0 0
          0 0 0 0 0 0
          0 0 0 0 0 0
          0 0 0 0 0 0
          0 0 0 0 0 0
          0 0 0 0 0 0
          0 0 0 0 0 0
          0 0 0 0 0 0
          0 0 0 0 0 0
          0 0 0 0 0 0
          0 0 0 0 0 0
          0 0 0 0 0 0
          0 0 0 0 0 0
          0 0 0 0 0 0
          0 0 0 0 0 0
          0 0 0 0 0 0
          0 0 0 0 0 0
          0 0 0 0 0 0
          0 0 0 0 0 0
          0 0 0 0 0 0
          0 0 0 0 0 0
          0 0 0 0 0 0
          0 0 0 0 0 0
          0 0 0 0 0 0
          0 0 0 0 0 0
          0 0 0 0 0 0
          0 0 0 0 0 0
          0 0 0 0 0 0
          0 0 0 0 0 0
          0 0 0 0 0 0
          0 0 0 0 0 0
          0 0 0 0 0 0
          0 0 0 0 0 0
          0 0 0 0 0 0
          0 0 0 0 0 0
          0 0 0 0 0 0
          0 0 0 0 0 0
          0 0 0 0 0 0
          0 0 0 0 0 0
          0 0 0 0 0 0
          0 0 0 0 0 0
          0 0 0 0 0 0
          0 0 0 0 0 0
          0 0 0 0 0 0
          0 0 0 0 0 0
          0 0 0 0 0 0
          0 0 0 0 0 0
          0 0 0 0 0 0
          0 0 0 0 0 0
          0 0 0 0 0 0
          0 0 0 0 0 0
          0 0 0 0 0 0
          0 0 0 0 0 0
          0 0 0 0 0 0
          0 0 0 0 0 0
          0 0 0 0 0 0
          0 0 0 0 0 0
          0 0 0 0 0 0
          0 0 0 0 0 0
          0 0 0 0 0 0
          0 0 0 0 0 0
          0 0 0 0 0 0
          0 0 0 0 0 0
          0 0 0 0 0 0
          0 0 0 0 0 0
          0 0 0 0 0 0
          0 0 0 0 0 0
          0 0 0 0 0 0
          0 0 0 0 0 0
          0 0 0 0 0 0
          0 0 0 0 0 0
          0 0 0 0 0 0
          0 0 0 0 0 0
          0 0 0 0 0 0
          0 0 0 0 0 0
          0 0 0 0 0 0
          0 0 0 0 0 0
          0 0 0 0 0 0
          0 0 0 0 0 0
          0 0 0 0 0 0
          0 0 0 0 0 0
          0 0 0 0 0 0
          0 0 0 0 0 0
          0 0 0 0 0 0
          0 0 0 0 0 0
          0 0 0 0 0 0
          0 0 0 0 0 0
          0 0 0 0 0 0
          0 0 0 0 0 0
          0 0 0 0 0 0
          0 0 0 0 0 0
          0 0 0 0 0 0
          0 0 0 0 0 0
          0 0 0 0 0 0
          0 0 0 0 0 0
          0 0 0 0 0 0
          0 0 0 0 0 0
          0 0 0 0 0 0
          0 0 0 0 0 0
          0 0 0 0 0 0
          0 0 0 0 0 0
          0 0 0 0 0 0
          0 0 0 0 0 0
          0 0 0 0 0 0
          0 0 0 0 0 0
          0 0 0 0 0 0
          0 0 0 0 0 0
          0 0 0 0 0 0
          0 0 0 0 0 0
          0 0 0 0 0 0
          0 0 0 0 0 0
          0 0 0 0 0 0
          0 0 0 0 0 0
          0 0 0 0 0 0
          0 0 0 0 0 0
          0 0 0 0 0 0
          0 0 0 0 0 0
          0 0 0 0 0 0
          0 0 0 0 0 0
          0 0 0 0 0 0
          0 0 0 0 0 0
          0 0 0 0 0 0
          0 0 0 0 0 0
          0 0 0 0 0 0
          0 0 0 0 0 0
          0 0 0 0 0 0
          0 0 0 0 0 0
          0 0 0 0 0 0
          0 0 0 0 0 0
          0 0 0 0 0 0
          0 0 0 0 0 0
          0 0 0 0 0 0
          0 0 0 0 0 0
          0 0 0 0 0 0
          0 0 0 0 0 0
          0 0 0 0 0 0
          0 0 0 0 0 0
          0 0 0 0 0 0
          0 0 0 0 0 0
          0 0 0 0 0 0
          0 0 0 0 0 0
          0 0 0 0 0 0
          0 0 0 0 0 0
          0 0 0 0 0 0
          0 0 0 0 0 0
          0 0 0 0 0 0
          0 0 0 0 0 0
          0 0 0 0 0 0
          0 0 0 0 0 0
          0 0 0 0 0 0
          0 0 0 0 0 0
          0 0 0 0 0 0
          0 0 0 0 0 0
          0 0 0 0 0 0
          0 0 0 0 0 0
          0 0 0 0 0 0
          0 0 0 0 0 0
          0 0 0 0 0 0
          0 0 0 0 0 0
          0 0 0 0 0 0
          0 0 0 0 0 0
          0 0 0 0 0 0
          0 0 0 0 0 0
          0 0 0 0 0 0
          0 0 0 0 0 0
          0 0 0 0 0 0
          0 0 0 0 0 0
          0 0 0 0 0 0
          0 0 0 0 0 0
          0 0 0 0 0 0
          0 0 0 0 0 0
          0 0 0 0 0 0
          0 0 0 0 0 0
          0 0 0 0 0 0
          0 0 0 0 0 0
          0 0 0 0 0 0
          0 0 0 0 0 0
          0 0 0 0 0 0
          0 0 0 0 0 0
          0 0 0 0 0 0
          0 0 0 0 0 0
          0 0 0 0 0 0
          0 0 0 0 0 0
          0 0 0 0 0 0
          0 0 0 0 0 0
          0 0 0 0 0 0
          0 0 0 0 0 0
          0 0 0 0 0 0
          0 0 0 0 0 0
          0 0 0 0 0 0
          0 0 0 0 0 0
          0 0 0 0 0 0
          0 0 0 0 0 0
          0 0 0 0 0 0
          0 0 0 0 0 0
          0 0 0 0 0 0
          0 0 0 0 0 0
          0 0 0 0 0 0
          0 0 0 0 0 0
          0 0 0 0 0 0
          0 0 0 0 0 0
          0 0 0 0 0 0
          0 0 0 0 0 0
          0 0 0 0 0 0
          0 0 0 0 0 0
          0 0 0 0 0 0
          0 0 0 0 0 0
          0 0
        </DataArray>
        <DataArray type="Float64" Name="gradient_error" format="ascii" RangeMin="7.031053066825326e-12" RangeMax="4.255550276037083e-9">
          7.63583196817915e-11 2.063118596719272e-10 4.288105780550495e-10 1.7954806503685548e-10 1.6943071438616406e-9 2.0024178442885134e-9
          6.663224950496525e-11 1.1290618770635702e-10 9.493142317221647e-11 2.619865366045012e-10 6.710439162578225e-10 5.505540460844452e-10
          3.454490485826642e-10 1.001146131329564e-10 6.069041314115656e-11 3.237389286891629e-11 3.4960920469887858e-9 2.8027556161376504e-9
          2.785954951380493e-9 2.2063233563107757e-9 1.1034027232642529e-9 1.802010842542924e-9 2.4175011055848207e-9 2.311778083130576e-9
          7.591853107118152e-10 1.4749996591381728e-9 6.386386135506912e-10 1.6220877607108864e-10 1.5573387197328455e-10 1.8186688412599672e-10
          1.728453234104933e-10 1.0832695575318288e-10 1.3652834824419162e-10 1.2958372612762508e-10 1.368752379737159e-10 1.480501678352355e-10
          1.1056811960894218e-10 5.395208236369158e-10 5.122496561914937e-10 4.063055799078082e-10 4.3817459833162434e-10 4.299057351470907e-10
          2.105556462096064e-10 2.087901601688518e-10 1.486519413371163e-10 1.5252402596728544e-10 3.0250370601923903e-10 2.4533643898723e-10
          1.768575446183405e-10 3.3723778589952275e-10 2.632583839800526e-10 2.330189106993511e-10 7.933745668375575e-11 7.603082381053572e-11
          1.0075392481241109e-10 9.55286578843452e-11 6.639093276612186e-11 8.126564727373301e-11 3.3275247875181216e-10 3.147109062727688e-10
          2.661592499997835e-10 1.0512524378720464e-10 1.1065548746845025e-10 1.5335182241134823e-10 1.2747780344974788e-10 2.0111997372757543e-10
          1.4975870653965612e-10 1.357098195679986e-10 2.5847152085562e-10 1.6168020273241956e-10 1.8318600487821761e-10 1.153008432149045e-10
          1.5607398147568275e-10 9.684884024174827e-11 6.823932754709748e-11 1.4489058256872345e-10 1.0992344636537181e-10 8.134315153756612e-11
          1.3064310180697727e-10 8.259586409356476e-11 7.734764572015956e-11 4.84744397439831e-11 3.392456089638882e-11 8.211564560434268e-11
          5.998574484562424e-11 4.4780290954449315e-11 1.6185883365242478e-9 1.537925440671508e-9 1.3216160870384907e-9 3.3003305448080484e-9
          1.3832178660813468e-9 1.3129309047859202e-9 1.1692470931760608e-9 1.107762137543184e-9 1.1225948550315205e-9 9.411205423806327e-10
          3.1367495504608048e-9 2.9719646411548936e-9 2.631810060507945e-9 2.515668526869623e-9 1.0276373828583572e-9 2.1358835394048708e-9
          8.625903813092063e-10 7.145334360558407e-10 5.923634515295513e-10 4.823369230158866e-10 1.8896593850614892e-9 1.647498065046324e-9
          1.2808763038049426e-9 4.045506352661299e-9 3.992428287452684e-9 3.817620739940293e-9 2.1129615556411623e-9 3.99840478108279e-9
          3.9281483041513455e-9 3.825965152276191e-9 3.7624678678595154e-9 3.6928564428474715e-9 3.50308819164764e-9 1.8091549177739266e-9
          2.020865695905742e-9 1.7905977949005801e-9 2.3334698959744385e-9 3.2880774065868815e-9 2.8423639705836448e-9 3.0934544041039988e-9
          2.824816129444388e-9 2.126240664653955e-9 1.882018821425659e-9 2.7456708923747984e-9 2.620813064422118e-9 2.265477145629699e-9
          9.649483600222071e-10 9.12095155538274e-10 7.694116887256207e-10 2.4145852163903962e-9 2.270592997619812e-9 1.8912542653282426e-9
          5.772599920080264e-10 4.5326888878054195e-10 3.834449293079252e-10 2.965350045319341e-10 1.4057801590775908e-9 1.1699470200772875e-9
          9.277978190958557e-10 3.6654570754285397e-9 3.5970544484520914e-9 3.2526838162344175e-9 1.436509292443168e-9 1.7262044852527137e-9
          2.367759881669643e-9 2.4786462836739817e-9 2.1039371147733977e-9 1.634151546412761e-9 1.3919657548239213e-9 2.3771261227716627e-9
          2.031247236205585e-9 1.7287435402331175e-9 3.617167434519516e-10 2.884182711366712e-10 1.9653327066369946e-10 7.741528618253413e-10
          6.515862886380321e-10 1.283994566819552e-9 1.1252519670569562e-9 1.4380548696895802e-9 1.270765648817449e-9 2.250800902074047e-10
          1.7116610824894698e-10 5.352414381048537e-10 4.276244312466814e-10 9.634793309808612e-10 8.030869392272122e-10 1.0997230732724721e-9
          9.277797472988012e-10 6.301015835773024e-11 5.787883798257019e-11 5.2747517607410156e-11 1.6340472296114024e-10 1.570820645263501e-10
          4.897485789424825e-11 1.1271923060391374e-10 1.0824308254042393e-10 1.3905778514465485e-10 9.56203746564279e-11 1.1313159140991564e-10
          4.434846937779746e-11 7.793017641787598e-11 6.838653799983021e-11 3.5018202165512406e-11 3.3496974100045006e-11 7.839534053700043e-11
          7.522371464166114e-11 3.013205172958392e-11 6.625377357071469e-11 3.014373153228905e-11 5.344889647118799e-11 3.199910563998787e-11
          4.644233454726846e-11 6.628091447720194e-10 6.003163812968732e-10 7.060533795598403e-11 1.0111386263017428e-10 9.98839993109384e-11
          9.621533967201795e-11 2.100555813779305e-10 2.07450952692847e-10 1.7957051317115257e-10 1.9981915315724883e-10 6.075845080537669e-11
          6.004380206437899e-11 8.660925436209947e-11 8.554216942961061e-11 5.102784127096642e-11 7.411012939140068e-11 7.318765719837486e-11
          5.784370347041356e-11 8.23632041515344e-11 7.044248528353408e-11 1.5777655179071325e-10 1.5575633439898812e-10 1.347595709896446e-10
          1.498424471609155e-10 6.387962514179132e-11 9.034623464721303e-11 8.299686838884357e-11 1.876789876990317e-10 1.621623356312446e-10
          1.716164494877342e-10 5.426860417664044e-11 7.728368281562204e-11 4.6089166534121827e-11 6.606260283486015e-11 5.0208228016198663e-11
          7.093034094000444e-11 6.057713205567692e-11 1.4045576554747076e-10 1.2137523049040266e-10 1.2807957213568502e-10 3.6098567698035587e-10
          3.5645166525319437e-10 3.1825075283741675e-10 3.141734368771346e-10 3.431756828991774e-10 3.022390364395305e-10 6.017302879595205e-10
          5.941487621242597e-10 5.325766825716832e-10 5.719523346308681e-10 2.8011087429791065e-10 2.764613281302175e-10 2.455144720692247e-10
          2.422675258900857e-10 2.657841468950438e-10 2.3277343104941322e-10 4.822132518371298e-10 4.758815922975672e-10 4.230747665871802e-10
          4.5735846348110195e-10 3.220739722529048e-10 2.8328637934877173e-10 2.9450224192718464e-10 2.5856396562825284e-10 5.367171076662307e-10
          4.800047919757365e-10 4.909534527142498e-10 2.488456002242208e-10 2.1772832806504315e-10 2.2678554304217349e-10 1.9816550320639978e-10
          4.280088558557435e-10 3.7976569402898103e-10 3.8999582551290126e-10 4.925896343001192e-10 5.736810843001649e-11 7.427095604427963e-11
          6.946410125296478e-11 1.5105714398674368e-10 1.300951856236051e-10 1.4542098148632672e-10 4.864239636813578e-11 6.332169438680342e-11
          4.128116944383589e-11 5.401702056068547e-11 4.904729143970931e-11 5.909874871889498e-11 5.0385197118018317e-11 1.1236655044119713e-10
          9.688390629665185e-11 1.0832694280759375e-10 2.6300383191331986e-10 2.3037173723451303e-10 2.2913055265556995e-10 2.0017622989410874e-10
          4.376901295963452e-10 3.8958151125153095e-10 3.8017851327296266e-10 2.016958299725228e-10 1.759514950348062e-10 1.7488848238559939e-10
          1.5225613386168372e-10 3.4593109053410484e-10 3.057608718456404e-10 2.986022841623288e-10 1.4378486596270444e-10 1.9379232563024054e-10
          1.2437527800279134e-10 1.6883622522017174e-10 1.1799440888995978e-10 1.596347264169481e-10 1.3857806853163508e-10 3.216579245965089e-10
          2.841328187031805e-10 2.650938441130915e-10 1.0756488027683585e-10 1.4710397627062316e-10 9.2699122525475e-11 1.2774495529676225e-10
          8.782151538682574e-11 1.203350111621209e-10 1.0420368971231776e-10 2.507566367519676e-10 2.2044212277952163e-10 2.0488532736321922e-10
          4.3757009115245645e-11 4.3236291154097824e-11 6.318476610608521e-11 6.239337434666423e-11 3.6466029325302624e-11 5.3606513158775076e-11
          5.293268531611498e-11 4.1629201004870446e-11 6.003498211123769e-11 5.092109680384341e-11 1.1760442793870704e-10 1.1606487486003249e-10
          9.942209008171939e-11 1.1156207582537226e-10 3.096255399425463e-11 3.060039137220312e-11 4.5234006240156324e-11 4.466406332963836e-11
          2.94804591969597e-11 4.2963534583853555e-11 8.581182897476359e-11 8.466629996793933e-11 8.131843336502818e-11 3.901611630166199e-11
          5.6268633690702515e-11 3.289987635411543e-11 4.7704670603015495e-11 3.6054959184380155e-11 5.1565496880084384e-11 4.36930049734097e-11
          1.0442683363729199e-10 8.93636578467357e-11 9.504492875443903e-11 2.7661011929989602e-11 4.024122338150501e-11 2.5583846218161262e-11
          3.6832096837570536e-11 7.601697035628691e-11 6.906350213045028e-11 2.140207792460377e-10 2.111516549258542e-10 1.8543376412580515e-10
          1.8291667499561517e-10 2.0276811192271017e-10 1.7556812895015874e-10 3.7899928911986233e-10 3.7384115919821763e-10 3.281493780636023e-10
          3.587699478689799e-10 1.5964066703219977e-10 1.57447640854779e-10 1.5105416067217189e-10 2.9013128520723743e-10 2.8605620192578195e-10
          2.741711640586002e-10 1.894981249157502e-10 1.6395171053856244e-10 1.722677582198323e-10 1.4888759476074127e-10 3.3494740917326943e-10
          2.934984450039717e-10 3.041968601053652e-10 1.4096957113318458e-10 1.2790721635843884e-10 2.55440306644311e-10 2.3133392724045018e-10
          3.49923646080688e-11 4.5960023552247234e-11 2.956300786289489e-11 3.8945281701267175e-11 3.536421463391039e-11 4.2858339090498644e-11
          3.6330558527514006e-11 8.318461394937571e-11 7.105888099570103e-11 8.019185505470281e-11 2.4844106118189046e-11 3.278738915908569e-11
          2.511985401626697e-11 3.056008265745359e-11 6.033054681224874e-11 5.81801591521271e-11 1.5272052285460777e-10 1.3180253876795518e-10
          1.3191653514633013e-10 1.1365494966517089e-10 2.6870955952515154e-10 2.346679074152323e-10 2.3081016973294116e-10 1.1308308161629893e-10
          9.648704164881396e-11 9.734150618474145e-11 8.288474768943688e-11 2.0360335143260422e-10 1.7547830810903694e-10 1.7412371626455313e-10
          7.968405024253124e-11 1.1047957642961651e-10 6.815110639205758e-11 9.503031679516036e-11 6.478938169188893e-11 8.994689080202826e-11
          7.723659510324542e-11 1.927578207965596e-10 1.6754318875969927e-10 1.5654938102221085e-10 5.786583272620489e-11 8.122044911327478e-11
          4.884884223135839e-11 6.899922706940122e-11 4.689788402705256e-11 6.586749449573303e-11 5.583331446953619e-11 1.4471293222122813e-10
          1.24183848561821e-10 1.1692999791527545e-10 1.2890225031240428e-10 8.22749155994508e-11 1.113341094575147e-10 8.73332643891172e-11
          2.129140972033274e-10 1.8612165316374812e-10 7.062734576930106e-11 9.631004909068993e-11 6.051159832546898e-11 8.315747276125631e-11
          5.548733208046895e-11 7.524706227431132e-11 6.477654817089966e-11 1.6298027508826506e-10 1.4233880605337537e-10 1.2631764646159207e-10
          4.989503908727223e-11 6.683076861010189e-11 4.9980792980354484e-11 1.0995944044214329e-10 4.250202136944218e-11 5.734650338008718e-11
          3.621758366385945e-11 4.92116015129262e-11 3.192758799699269e-11 4.2711840939625674e-11 3.6536045439965447e-11 9.542561939730296e-11
          8.273347128744916e-11 7.026456678874433e-11 2.375482687626228e-11 3.0842643876100366e-11 2.0143725797194953e-11 2.629663973508728e-11
          2.1778861641350216e-11 5.027330959352263e-11 5.1871393091758254e-11 7.161714540733949e-11 4.426402903389625e-11 6.137196395219717e-11
          4.056046999173059e-11 5.5648194834027556e-11 4.758169347110911e-11 1.2373231025288493e-10 1.069664930677563e-10 9.525544499937025e-11
          3.741445232066689e-11 5.22281147096627e-11 3.1441930044637244e-11 4.418815109591795e-11 2.914758944389425e-11 4.040762073890617e-11
          3.412508521954057e-11 9.193191168596154e-11 7.852919189796458e-11 7.039149607365416e-11 3.09120634761876e-11 4.216599277297251e-11
          2.627857438443603e-11 3.5970116891576095e-11 2.3104643935222596e-11 3.122157159097491e-11 2.6569493113074313e-11 7.14636687560322e-11
          6.142735448892402e-11 5.225163911192315e-11 2.2125278528206484e-11 3.047949851303328e-11 1.8532971603036263e-11 2.5689323972119223e-11
          1.6470036951082533e-11 2.246295701466217e-11 1.8892836274845513e-11 5.251703240033753e-11 4.46434651094508e-11 3.818041928040986e-11
          1.5504856312205124e-11 2.15621237243215e-11 1.1500868078297617e-11 1.582657371908647e-11 1.711923089607932e-11 2.2409994362958222e-11
          1.4498861576475564e-11 1.902685839377992e-11 1.475733460146166e-11 1.8527119060353408e-11 1.570968641688798e-11 1.2159767814190679e-11
          1.6044336678825136e-11 1.0152034920518925e-11 1.3463293219995622e-11 1.046303309255693e-11 1.3222807276610092e-11 1.1078896909649119e-11
          8.466313704047486e-12 1.125458084412929e-11 7.2756507837392816e-12 9.248423287107406e-12 1.0609960880241655e-9 1.0479423943696253e-9
          1.0096307779880839e-9 1.5980132304437525e-9 9.488660749912964e-10 8.698005513830036e-10 1.4434706441281496e-9 2.4262257219352562e-9
          2.392569876856945e-9 2.2945647536976353e-9 3.446171684634222e-9 2.1419839274028576e-9 1.9488805749760152e-9 3.078181908100141e-9
          9.664930251698166e-10 9.543330768827587e-10 8.806741876022994e-10 8.693579413375084e-10 9.187267350318267e-10 8.362373960638408e-10
          1.495450568189556e-9 1.4762777024548753e-9 1.3653003951837983e-9 1.420376539771574e-9 7.99740381929302e-10 7.892510663554394e-10
          7.223615343149234e-10 7.126877950170344e-10 7.585567355550599e-10 6.843904343715945e-10 1.275044990393246e-9 1.258253992722348e-9
          1.153571790072702e-9 1.2091745721299342e-9 8.622014241782579e-10 7.836940430164443e-10 7.886452251444063e-10 7.153657045713627e-10
          1.3321591152884323e-9 1.2300566671244551e-9 1.2179509804773646e-9 7.098889538525956e-10 6.395745706891008e-10 6.466863349574942e-10
          5.814786323371528e-10 1.1314909264199797e-9 1.0352233758242304e-9 1.0307003174410388e-9 2.273465230292184e-9 2.2415697709477233e-9
          2.121803991048678e-9 2.0921196893203587e-9 2.148997029117389e-9 2.0061006701069162e-9 3.322103336817587e-9 3.2738295898831406e-9