<?xml version="1.0"?>
<VTKFile type="UnstructuredGrid" version="0.1" byte_order="LittleEndian" header_type="UInt32" compressor="vtkZLibDataCompressor">
  <UnstructuredGrid>
    <Piece NumberOfPoints="1562" NumberOfCells="1068">
      <PointData>
        <DataArray type="Int32" Name="libmesh_node_id" format="ascii" RangeMin="2268" RangeMax="15556">
          2268 2276 2530 2531 2535 2543
          2544 2549 2553 2558 2560 2561
          2564 2565 2567 2569 2740 3403
          3411 3412 3413 3416 3438 3440
          3442 3444 3446 3447 3448 3450
          3493 3494 3495 3498 3517 3519
          3520 3521 3522 3523 3524 3525
          3526 3527 3528 3529 3530 3531
          3532 3533 3534 3535 3536 3537
          3538 3898 3899 3900 3910 3911
          3914 3915 3916 3917 3918 3919
          3920 3921 5391 5392 5393 5394
          5395 5403 5404 5405 5406 5407
          5408 5409 5410 5411 5412 5420
          5421 5422 5423 5424 5425 5426
          5434 5435 5436 5437 5438 5439
          5440 5443 5444 5445 5446 5447
          5450 5452 5454 5455 5456 5457
          5458 5459 5460 5461 5462 5463
          5464 5465 5466 5467 5468 5469
          5470 5471 5472 5473 5474 5475
          5476 5477 5478 5479 5480 5481
          5482 5484 5486 5488 5489 5490
          5491 5492 5493 5494 5495 5496
          5497 5498 5499 5500 5501 5502
          5714 5715 5718 5719 5720 5721
          5723 5728 5729 5730 5733 5748
          5750 5751 5752 5754 5757 5758
          5761 5833 5835 5836 5837 5839
          5841 5851 5853 5855 5857 5858
          5859 5860 5861 5862 5863 5864
          5865 5866 5867 5868 5869 5870
          5871 5872 5873 5874 5875 5876
          5877 5878 5879 5880 5881 5882
          5883 5884 5885 5886 5887 5888
          5889 5890 5891 5892 5893 5894
          5895 5896 5897 5898 5899 5900
          5901 5902 5903 5904 5905 5906
          5907 5908 5909 5910 5997 6050
          6051 6052 6053 6054 6055 6056
          6057 6058 6059 6060 6061 6062
          6063 6064 6065 6066 6254 6255
          6256 6257 6258 6259 6260 6261
          6262 6263 6264 6265 6266 6267
          6268 6269 6270 6271 6272 6273
          6274 6316 6317 6318 6319 6320
          6321 6322 6323 6324 6325 6326
          6327 6328 6329 6330 6331 6332
          6333 6334 6335 6336 6337 6338
          6339 6340 6341 6342 6466 6467
          6468 6469 6470 6471 6472 12496
          12498 12502 12503 12504 12505 12506
          12520 12522 12524 12526 12528 12529
          12530 12531 12532 12533 12534 12600
          12601 12602 12603 12604 12605 12606
          12608 12610 12611 12612 12613 12614
          12615 12616 12617 12618 12619 12620
          12621 12622 12623 12624 12625 12626
          12628 12630 12631 12632 12633 12634
          12635 12636 12637 12638 12639 12641
          12643 12645 12647 12648 12649 12650
          12651 12652 12653 12655 12657 12659
          12661 12662 12663 12664 12665 12666
          12667 12727 12733 12734 12737 12739
          12741 12743 12745 12746 12747 12748
          12749 12750 12751 12755 12761 12762
          12765 12767 12769 12771 12773 12774
          12775 12776 12777 12778 12779 12837
          12839 12841 12843 12844 12845 12846
          12847 12848 12849 12851 12853 12855
          12857 12858 12859 12860 12861 12862
          12863 12865 12867 12869 12871 12872
          12873 12874 12875 12876 12877 12879
          12881 12883 12885 12886 12887 12888
          12889 12890 12891 12908 12909 12910
          12911 12912 12917 12918 12919 12920
          12921 12922 12929 12936 12937 12938
          12939 12940 12941 12942 12943 12944
          12945 12946 12947 12948 12949 12950
          12972 12973 12974 12975 12976 12977
          12982 12983 12985 12987 12994 13001
          13002 13003 13004 13005 13006 13007
          13008 13009 13011 13013 13015 13016
          13017 13018 13019 13020 13021 13022
          13023 13024 13025 13026 13027 13028
          13029 13030 13031 13032 13033 13034
          13035 13036 13037 13038 13039 13040
          13041 13042 13043 13044 13045 13046
          13047 13048 13049 13050 13051 13052
          13053 13054 13055 13056 13057 13058
          13059 13060 13061 13062 13063 13064
          13065 13066 13067 13068 13069 13070
          13071 13072 13073 13074 13075 13076
          13077 13078 13079 13080 13081 13082
          13083 13084 13085 13086 13087 13088
          13089 13090 13091 13092 13093 13094
          13095 13096 13097 13098 13099 13100
          13101 13102 13103 13104 13105 13106
          13107 13108 13109 13110 13111 13112
          13113 13114 13115 13116 13117 13118
          13119 13120 13121 13122 13123 13124
          13125 13126 13127 13128 13129 13130
          13131 13132 13133 13134 13135 13136
          13137 13140 13141 13144 13147 13148
          13151 13152 13153 13154 13155 13156
          13157 13158 13159 13160 13161 13162
          13163 13164 13165 13168 13169 13172
          13175 13176 13179 13180 13181 13182
          13183 13184 13185 13186 13187 13188
          13189 13190 13191 13192 13193 13196
          13197 13200 13203 13207 13208 13209
          13210 13211 13212 13213 13214 13215
          13217 13219 13221 13224 13225 13228
          13231 13235 13236 13237 13238 13239
          13240 13241 13242 13243 13245 13247
          13249 13250 13251 13252 13253 13254
          13255 13256 13257 13258 13259 13260
          13261 13262 13263 13264 13265 13266
          13267 13268 13269 13270 13271 13272
          13273 13274 13275 13276 13277 13278
          13279 13280 13281 13282 13283 13284
          13285 13286 13287 13288 13289 13290
          13291 13292 13293 13294 13295 13296
          13297 13298 13299 13300 13301 13302
          13303 13304 13305 13306 13307 13308
          13309 13310 13311 13312 13313 13314
          13315 13316 13317 13318 13319 13320
          13321 13322 13323 13324 13325 13326
          13327 13328 13329 13330 13331 13332
          13333 13334 13335 13336 13337 13338
          13339 13340 13341 13342 13343 13344
          13345 13346 13347 13348 13349 13350
          13351 13352 13353 13354 13355 13356
          13357 13358 13359 13360 13361 14631
          14632 14633 14634 14635 14636 14637
          14638 14639 14640 14641 14642 14643
          14644 14645 14646 14647 14648 14649
          14652 14653 14655 14657 14658 14659
          14660 14661 14662 14663 14664 14665
          14666 14667 14668 14669 14670 14671
          14672 14673 14674 14675 14676 14677
          14810 14811 14812 14813 14814 14815
          14816 14817 14819 14821 14823 14824
          14825 14826 14827 14828 14829 14830
          14831 14832 14833 14834 14835 14836
          14837 14838 14839 14840 14841 14842
          14843 14844 14845 14847 14849 14851
          14852 14853 14854 14855 14856 14857
          14858 14859 14860 14861 14862 14863
          14864 14865 14880 14881 14882 14883
          14884 14885 14886 14887 14888 14889
          14890 14891 14892 14893 14894 14895
          14896 14897 14898 14899 14914 14915
          14916 14917 14918 14919 14920 14921
          14922 14923 14924 14925 14926 14927
          15244 15245 15248 15250 15252 15253
          15254 15255 15256 15257 15258 15259
          15260 15261 15319 15323 15325 15326
          15327 15328 15329 15330 15331 15342
          15343 15344 15345 15346 15347 15348
          15349 15350 15351 15353 15357 15359
          15360 15361 15362 15363 15364 15365
          15373 15374 15375 15376 15377 15378
          15379 15380 15381 15382 15383 15384
          15385 15386 15387 15388 15389 15390
          15391 15392 15393 15394 15395 15396
          15397 15398 15399 15400 15401 15402
          15403 15404 15405 15406 15407 15408
          15409 15410 15411 15412 15413 15414
          15415 15416 15417 15418 15419 15420
          15421 15422 15423 15424 15425 15426
          15427 15428 15429 15430 15431 15432
          15433 15434 15435 15436 15437 15438
          15439 15440 15441 15442 15443 15444
          15445 15446 15447 15448 15449 15450
          15451 15452 15453 15454 15455 15456
          15457 15458 15459 15460 15461 15462
          15463 15464 15465 15466 15467 15468
          15469 15470 15471 15472 15473 15474
          15475 15476 15477 15478 15479 15480
          15481 15482 15483 15484 15485 15486
          15487 15488 15489 15490 15491 15492
          15493 15494 15495 15496 15497 15498
          15499 15500 15501 15502 15503 15504
          15505 15506 15507 15508 15509 15510
          15511 15512 15513 15514 15515 15516
          15517 15518 15519 15520 15521 15522
          15523 15524 15525 15526 15527 15528
          15529 15530 15531 15532 15533 15534
          15535 15536 15537 15538 15539 15540
          15541 15542 15543 15544 15545 15546
          15547 15548 15549 15550 15551 15552
          15553 15554 15555 15556 2550 2552
          2273 2554 2551 2556 2555 2278
          2725 2728 2731 2730 2523 2526
          2529 2735 2537 3397 3399 3401
          3398 3400 3402 3407 3408 3409
          3410 3511 3512 3515 3668 3666
          3894 3895 3896 3897 3489 3491
          3908 3909 3912 3913 3406 3509
          3513 5698 5716 5699 5700 5717
          5724 5725 5726 5727 5722 5731
          5732 5825 5399 5834 5826 5838
          5829 5840 5842 6016 6014 2559
          6021 6020 6042 6043 6046 2557
          6048 5210 5218 5202 5211 5219
          5212 5222 3404 5215 5224 3405
          5230 5231 5232 5235 3414 5240
          5241 5242 5245 3415 6308 6306
          5852 6309 6307 5856 6314 6313
          6312 6456 6457 6458 11368 11369
          11370 12493 12494 12495 12481 12482
          12485 5389 12497 12499 11378 11380
          12500 11379 12501 12488 12492 12489
          5390 12507 12508 12510 12509 12511
          12512 12513 12514 12516 12518 12515
          12517 12519 12521 12523 12525 12527
          12544 12447 12545 12548 5385 12607
          12550 12609 5397 12564 12565 12568
          12627 12570 12629 12640 12642 12644
          12646 12654 12656 12658 12660 12724
          12725 12726 12728 12729 12730 12731
          12732 12735 12736 12738 12740 12742
          12744 12752 12753 12754 12756 12757
          12758 12759 12760 12763 12764 12766
          12768 12770 12772 12836 12838 12840
          12842 12850 12852 12854 12856 12864
          12866 12868 12870 12878 12880 12882
          12884 11418 11420 12906 11419 12907
          12894 12898 12895 5441 12913 12914
          12915 12916 12901 12905 12902 5442
          12923 12925 12927 12924 12926 12928
          12930 12932 12934 12931 12933 12935
          12968 12969 12970 12971 12953 12957
          12954 5448 12978 12979 12980 12981
          12984 12963 12967 12964 5449 12986
          5451 12988 12990 12992 12989 12991
          12993 12995 12997 12999 12996 12998
          13000 5453 13010 13012 13014 3445
          13138 13139 13142 13143 13145 13146
          13149 13150 13166 13167 13170 13171
          13173 13174 13177 13178 13194 13195
          13198 13199 13201 13202 13204 13205
          13206 5483 13216 13218 13220 5485
          13222 13223 13226 13227 13229 13230
          13232 13233 13234 5487 13244 13246
          13248 3449 14526 14527 14528 14531
          14558 14559 14562 5703 14541 14565
          14650 14566 14651 14654 14569 3490
          14656 14714 14715 14718 5736 14721
          14722 14818 14820 14725 5737 14822
          5749 14742 14743 14746 5740 14749
          14750 14846 14848 14753 3496 14850
          5753 14687 14868 14869 14872 5755
          14697 14875 14876 14879 5756 14902
          14903 14906 5759 14909 14910 14913
          5760 15242 15243 15246 15247 15249
          15251 15318 15321 15320 15322 5850
          15324 15334 15335 15338 15340 15352
          15355 15354 15356 5854 15358 15367
          15369 15371
        </DataArray>
        <DataArray type="Float64" Name="bounds" format="ascii" RangeMin="0" RangeMax="0">
          0 0 0 0 0 0
          0 0 0 0 0 0
          0 0 0 0 0 0
          0 0 0 0 0 0
          0 0 0 0 0 0
          0 0 0 0 0 0
          0 0 0 0 0 0
          0 0 0 0 0 0
          0 0 0 0 0 0
          0 0 0 0 0 0
          0 0 0 0 0 0
          0 0 0 0 0 0
          0 0 0 0 0 0
          0 0 0 0 0 0
          0 0 0 0 0 0
          0 0 0 0 0 0
          0 0 0 0 0 0
          0 0 0 0 0 0
          0 0 0 0 0 0
          0 0 0 0 0 0
          0 0 0 0 0 0
          0 0 0 0 0 0
          0 0 0 0 0 0
          0 0 0 0 0 0
          0 0 0 0 0 0
          0 0 0 0 0 0
          0 0 0 0 0 0
          0 0 0 0 0 0
          0 0 0 0 0 0
          0 0 0 0 0 0
          0 0 0 0 0 0
          0 0 0 0 0 0
          0 0 0 0 0 0
          0 0 0 0 0 0
          0 0 0 0 0 0
          0 0 0 0 0 0
          0 0 0 0 0 0
          0 0 0 0 0 0
          0 0 0 0 0 0
          0 0 0 0 0 0
          0 0 0 0 0 0
          0 0 0 0 0 0
          0 0 0 0 0 0
          0 0 0 0 0 0
          0 0 0 0 0 0
          0 0 0 0 0 0
          0 0 0 0 0 0
          0 0 0 0 0 0
          0 0 0 0 0 0
          0 0 0 0 0 0
          0 0 0 0 0 0
          0 0 0 0 0 0
          0 0 0 0 0 0
          0 0 0 0 0 0
          0 0 0 0 0 0
          0 0 0 0 0 0
          0 0 0 0 0 0
          0 0 0 0 0 0
          0 0 0 0 0 0
          0 0 0 0 0 0
          0 0 0 0 0 0
          0 0 0 0 0 0
          0 0 0 0 0 0
          0 0 0 0 0 0
          0 0 0 0 0 0
          0 0 0 0 0 0
          0 0 0 0 0 0
          0 0 0 0 0 0
          0 0 0 0 0 0
          0 0 0 0 0 0
          0 0 0 0 0 0
          0 0 0 0 0 0
          0 0 0 0 0 0
          0 0 0 0 0 0
          0 0 0 0 0 0
          0 0 0 0 0 0
          0 0 0 0 0 0
          0 0 0 0 0 0
          0 0 0 0 0 0
          0 0 0 0 0 0
          0 0 0 0 0 0
          0 0 0 0 0 0
          0 0 0 0 0 0
          0 0 0 0 0 0
          0 0 0 0 0 0
          0 0 0 0 0 0
          0 0 0 0 0 0
          0 0 0 0 0 0
          0 0 0 0 0 0
          0 0 0 0 0 0
          0 0 0 0 0 0
          0 0 0 0 0 0
          0 0 0 0 0 0
          0 0 0 0 0 0
          0 0 0 0 0 0
          0 0 0 0 0 0
          0 0 0 0 0 0
          0 0 0 0 0 0
          0 0 0 0 0 0
          0 0 0 0 0 0
          0 0 0 0 0 0
          0 0 0 0 0 0
          0 0 0 0 0 0
          0 0 0 0 0 0
          0 0 0 0 0 0
          0 0 0 0 0 0
          0 0 0 0 0 0
          0 0 0 0 0 0
          0 0 0 0 0 0
          0 0 0 0 0 0
          0 0 0 0 0 0
          0 0 0 0 0 0
          0 0 0 0 0 0
          0 0 0 0 0 0
          0 0 0 0 0 0
          0 0 0 0 0 0
          0 0 0 0 0 0
          0 0 0 0 0 0
          0 0 0 0 0 0
          0 0 0 0 0 0
          0 0 0 0 0 0
          0 0 0 0 0 0
          0 0 0 0 0 0
          0 0 0 0 0 0
          0 0 0 0 0 0
          0 0 0 0 0 0
          0 0 0 0 0 0
          0 0 0 0 0 0
          0 0 0 0 0 0
          0 0 0 0 0 0
          0 0 0 0 0 0
          0 0 0 0 0 0
          0 0 0 0 0 0
          0 0 0 0 0 0
          0 0 0 0 0 0
          0 0 0 0 0 0
          0 0 0 0 0 0
          0 0 0 0 0 0
          0 0 0 0 0 0
          0 0 0 0 0 0
          0 0 0 0 0 0
          0 0 0 0 0 0
          0 0 0 0 0 0
          0 0 0 0 0 0
          0 0 0 0 0 0
          0 0 0 0 0 0
          0 0 0 0 0 0
          0 0 0 0 0 0
          0 0 0 0 0 0
          0 0 0 0 0 0
          0 0 0 0 0 0
          0 0 0 0 0 0
          0 0 0 0 0 0
          0 0 0 0 0 0
          0 0 0 0 0 0
          0 0 0 0 0 0
          0 0 0 0 0 0
          0 0 0 0 0 0
          0 0 0 0 0 0
          0 0 0 0 0 0
          0 0 0 0 0 0
          0 0 0 0 0 0
          0 0 0 0 0 0
          0 0 0 0 0 0
          0 0 0 0 0 0
          0 0 0 0 0 0
          0 0 0 0 0 0
          0 0 0 0 0 0
          0 0 0 0 0 0
          0 0 0 0 0 0
          0 0 0 0 0 0
          0 0 0 0 0 0
          0 0 0 0 0 0
          0 0 0 0 0 0
          0 0 0 0 0 0
          0 0 0 0 0 0
          0 0 0 0 0 0
          0 0 0 0 0 0
          0 0 0 0 0 0
          0 0 0 0 0 0
          0 0 0 0 0 0
          0 0 0 0 0 0
          0 0 0 0 0 0
          0 0 0 0 0 0
          0 0 0 0 0 0
          0 0 0 0 0 0
          0 0 0 0 0 0
          0 0 0 0 0 0
          0 0 0 0 0 0
          0 0 0 0 0 0
          0 0 0 0 0 0
          0 0 0 0 0 0
          0 0 0 0 0 0
          0 0 0 0 0 0
          0 0 0 0 0 0
          0 0 0 0 0 0
          0 0 0 0 0 0
          0 0 0 0 0 0
          0 0 0 0 0 0
          0 0 0 0 0 0
          0 0 0 0 0 0
          0 0 0 0 0 0
          0 0 0 0 0 0
          0 0 0 0 0 0
          0 0 0 0 0 0
          0 0 0 0 0 0
          0 0 0 0 0 0
          0 0 0 0 0 0
          0 0 0 0 0 0
          0 0 0 0 0 0
          0 0 0 0 0 0
          0 0 0 0 0 0
          0 0 0 0 0 0
          0 0 0 0 0 0
          0 0 0 0 0 0
          0 0 0 0 0 0
          0 0 0 0 0 0
          0 0 0 0 0 0
          0 0 0 0 0 0
          0 0 0 0 0 0
          0 0 0 0 0 0
          0 0 0 0 0 0
          0 0 0 0 0 0
          0 0 0 0 0 0
          0 0 0 0 0 0
          0 0 0 0 0 0
          0 0 0 0 0 0
          0 0 0 0 0 0
          0 0 0 0 0 0
          0 0 0 0 0 0
          0 0 0 0 0 0
          0 0 0 0 0 0
          0 0 0 0 0 0
          0 0 0 0 0 0
          0 0 0 0 0 0
          0 0 0 0 0 0
          0 0 0 0 0 0
          0 0 0 0 0 0
          0 0 0 0 0 0
          0 0 0 0 0 0
          0 0 0 0 0 0
          0 0 0 0 0 0
          0 0 0 0 0 0
          0 0 0 0 0 0
          0 0 0 0 0 0
          0 0 0 0 0 0
          0 0 0 0 0 0
          0 0 0 0 0 0
          0 0 0 0 0 0
          0 0 0 0 0 0
          0 0 0 0 0 0
          0 0 0 0 0 0
          0 0 0 0 0 0
          0 0 0 0 0 0
          0 0 0 0 0 0
          0 0 0 0 0 0
          0 0 0 0 0 0
          0 0 0 0 0 0
          0 0 0 0 0 0
          0 0 0 0 0 0
          0 0
        </DataArray>
        <DataArray type="Float64" Name="gradient_error" format="ascii" RangeMin="8.041267918107615e-14" RangeMax="4.035790950688062e-10">
          1.8040560637505568e-12 1.2879576269857742e-12 5.087580822756578e-12 1.0495022847797273e-12 8.829182999777941e-12 4.1889443721607165e-13
          4.4776006940225876e-13 3.1250335002365194e-13 6.791049496915133e-13 5.41182428962775e-13 2.29512702771105e-13 2.1225589923562923e-13
          1.6383469334123558e-13 2.490861833328678e-13 2.934195506722092e-13 2.9410514749498466e-13 4.86427073500898e-13 5.030443519441148e-12
          1.6472795772372766e-12 2.0208064374140404e-12 7.548934463872835e-13 2.325719297196557e-12 2.6083022345365647e-11 3.661807188153669e-12
          7.415769546791855e-11 1.045928795060379e-11 1.410906786044547e-12 7.94425684263044e-13 3.1395223944912174e-11 3.5727875354237007e-12
          5.557618419544247e-13 5.230098337114665e-13 3.8060384546787633e-13 4.1224754857393263e-13 1.9665692247380654e-12 2.167853380359297e-12
          1.56267521688895e-12 8.07061546448424e-13 8.329338935884141e-13 1.3966700948291876e-12 1.073360027696452e-12 6.858722175880063e-13
          7.252224872422921e-13 1.1128239917401052e-12 5.099133693544319e-13 4.1785286724159043e-13 5.504004402118268e-13 3.5316429314754805e-13
          3.307916200822422e-13 2.740488833157421e-13 5.907674827212245e-13 2.1521881947014069e-13 6.232307474090266e-13 2.1096599230431679e-13
          7.905039807788991e-13 2.3499121417226706e-13 3.648840526230995e-13 2.848342418180182e-13 1.426431570813332e-12 3.715983141722344e-12
          1.371401586568967e-12 6.368358815298653e-13 1.5844678383965955e-12 2.925597905445057e-13 6.16623407641736e-13 4.3549679744126443e-13
          6.87412452643814e-13 3.058517534782659e-13 1.4064884402223392e-11 9.042416003519063e-12 8.824389781699554e-11 5.879854454264576e-11
          3.9523909682655536e-11 6.846315226767674e-12 6.131654417388366e-12 4.247275395200731e-12 3.9099600509300035e-12 5.450999635382599e-12
          4.0131815348430686e-12 2.508521443008804e-12 1.573625150507486e-11 1.0280725840472215e-11 5.6716434582735625e-12 1.997330148039578e-10
          1.3687603315342401e-10 8.572498575660969e-11 5.7917219311514405e-11 2.454334809959823e-10 1.6988826429514065e-10 1.0892793569520668e-10
          3.191552226319613e-11 2.1284638849705033e-11 1.0609974216889271e-11 6.980455682652326e-12 4.0738629633241756e-11 2.7355650576262805e-11
          1.3330942048002352e-11 5.664934901335562e-12 3.4553107033583526e-12 3.805979976803441e-11 2.3936268711510914e-11 1.6747260752066766e-11
          2.052986626247057e-12 1.4625676462802083e-11 6.351355145057741e-12 2.571684092426439e-12 2.430048628269629e-12 1.9237944708577586e-12
          1.8047264670873945e-12 2.0387237845516853e-12 1.5353676742952322e-12 1.2921479682868642e-12 6.542993780421865e-12 4.052688605660428e-12
          2.3055964574653577e-12 1.5333071210687603e-12 1.4231870557445981e-12 8.86456569869353e-13 8.2459071717099e-13 1.539609796554629e-12
          1.357583810041277e-12 1.0118885774461532e-12 2.441313651113646e-12 1.43026221368256e-12 1.0255734199350828e-12 9.084408765790421e-11
          5.841712839545818e-11 3.7989803875969566e-11 2.41909087369605e-11 1.1377796034269375e-10 7.377136540009599e-11 4.898579725181184e-11
          3.640331976528105e-11 1.495151374354177e-11 4.632224079643986e-11 1.9521065181970563e-11 1.3805399382355639e-11 8.704860333554805e-12
          4.474142398940631e-12 2.7899335559750524e-12 1.7856452994533084e-11 1.132603105162528e-11 5.6930840884801466e-12 5.333529254410861e-12
          3.174231555055957e-12 1.6894504722870866e-12 9.938532048540441e-13 6.977844140261901e-12 4.174213348749837e-12 2.1772483803500767e-12
          6.50969441284453e-13 6.199250095201965e-13 5.107978442763635e-13 5.646000823989483e-13 4.778596726939405e-13 8.144407640492669e-13
          4.446651265139361e-13 2.7485656299457195e-13 5.06154933847984e-13 2.704185500952013e-13 4.68864410067321e-13 1.8350038905448765e-12
          5.67892850771999e-13 3.7862840271440833e-13 2.423960354436121e-12 7.398789191908348e-13 3.393463602122774e-13 2.474624778983724e-13
          3.4518851111519547e-13 5.5325130415937835e-12 3.4485104775710366e-12 2.954652717992547e-12 3.1541601855594505e-12 3.024803425047347e-12
          2.012351858937137e-12 2.0960060306951036e-12 1.6535835729827359e-12 2.5819572960384233e-12 2.0921729434831376e-12 1.7954835520630605e-12
          1.2319023672262311e-12 1.0612918965074293e-12 1.2219035016739602e-12 1.8427328143758657e-12 1.1030660793132582e-12 1.2368816194358006e-12
          9.667881155229593e-13 1.3686026232428662e-12 7.123680239527685e-13 8.417069750741598e-13 4.3122069975933765e-13 7.264788703008922e-13
          4.335991624464336e-13 6.424194146114715e-13 3.840773042756062e-13 1.0250840728636411e-12 8.291288824339537e-13 9.80151634151154e-13
          1.3209183422001505e-12 1.0104227035750376e-12 1.02582939220944e-12 8.487186812651177e-13 1.6395497274270736e-12 1.0117142834883513e-12
          1.2201551666286414e-12 1.017761832863799e-12 8.078211267435976e-13 9.294208990800397e-13 9.454054318093396e-13 9.786222781597187e-13
          9.703668290993054e-13 8.16629030597649e-13 4.734816478073539e-13 4.671716524811996e-13 3.732873959306057e-13 3.3336281318247506e-13
          4.54996024299079e-13 7.260711587366734e-13 3.923787946952212e-13 5.610132703623529e-13 3.0191234221570387e-13 8.56412878581308e-13
          3.626725058972288e-13 3.28613943309584e-13 2.031294591974191e-13 2.51822809897313e-13 1.8772288109611167e-13 2.0965064352711084e-13
          1.2221070203061793e-13 2.9620081737017495e-13 3.0051616059720683e-13 2.3157840595811e-13 2.1968734347013868e-13 2.8102859092020095e-13
          3.453364061204963e-13 1.8984628980272852e-13 2.0968615742655092e-13 1.7937521452593006e-13 1.5946540657781333e-13 1.072872302649e-13
          4.096442213207917e-13 2.295260250503733e-13 1.395555986296966e-13 1.1679586510369737e-13 2.1867067744909348e-13 8.081967624082011e-14
          1.125517012529827e-13 9.175850006525596e-14 1.2441264101659518e-13 8.041267918107615e-14 3.662163791313617e-12 7.337819029734865e-12
          2.2804005056772723e-12 4.551117386292606e-12 2.757583047765397e-12 4.868887955659166e-12 3.0327910871987878e-12 1.391158627048253e-12
          2.756331676917172e-12 8.616778508727898e-13 1.660770558758911e-12 1.080296807090973e-12 1.8472511516084996e-12 1.0922220679723454e-12
          5.280423104013428e-13 9.945569909625437e-13 3.147382687789227e-13 5.767829503163422e-13 3.89526612754127e-13 6.273676504140607e-13
          3.7087705574728467e-13 9.282654135108547e-13 1.0638865194853371e-12 5.501676629191248e-13 6.328169267162243e-13 5.792238260977467e-13
          5.587109708559806e-13 3.5155949241484994e-13 1.1995076254598198e-12 7.15466190513324e-13 5.381981156142145e-13 3.1830165153847663e-13
          3.6281012558222506e-13 2.4698581836479945e-13 2.683870805223429e-13 2.3324756602288604e-13 2.370252717581183e-13 2.0121783246056548e-13
          4.073185996259735e-13 2.897883426798864e-13 2.408029774933505e-13 2.658101866902144e-13 4.2368418421456625e-13 2.0432379379937565e-13
          3.0442817045532053e-13 1.7336967501956717e-13 2.438161423628432e-13 1.9238022454780788e-13 1.9301669274558623e-13 3.18575364206526e-13
          1.5436023235062797e-13 2.2571310538163656e-13 1.420140768732647e-13 2.1560354063812602e-13 1.6334190927250759e-13 8.040892129754868e-12
          2.0467837386607242e-11 6.428052254989682e-12 5.109807589284044e-12 1.649156333012308e-11 1.3203389635215858e-11 1.1313064303947719e-11
          7.229463701693227e-11 3.561759197082986e-11 2.397396302397764e-11 6.000068163082667e-11 2.8892471439351646e-11 2.328012784609085e-11
          1.940806794240533e-11 1.5608984695666453e-11 4.903210621177497e-11 3.978733099096102e-11 3.22176360485604e-11 4.947757441369203e-12
          6.806309802948565e-12 3.9607232985634385e-12 5.4650500189695775e-12 3.362147386413405e-12 4.548663851963272e-12 3.641026847652151e-12
          9.406454019654598e-12 3.1456859259809524e-12 4.359832790037472e-12 2.4866936491827818e-12 3.458614139924196e-12 2.1219856445826946e-12
          2.8973591742954736e-12 2.2923527616540095e-12 7.551608101617326e-12 6.02491031631015e-12 4.911603022720808e-12 2.272187918797461e-12
          2.9732135863272256e-12 1.7896569037762573e-12 2.3642176518299534e-12 1.873829615913332e-12 2.343224106572154e-12 1.8520628512630952e-12
          3.894699112607895e-12 1.4155660075016302e-12 1.876130310315474e-12 1.1160007396594345e-12 1.4817449349139288e-12 1.1563111164321042e-12
          1.466936493286824e-12 1.1580408615489066e-12 3.1105760260123834e-12 2.4692817475265785e-12 2.1608674042859576e-12 1.569193974097289e-11
          1.0005293187543821e-11 2.5279228259858042e-11 1.2676217928877477e-11 1.0174680722334377e-11 8.063772651173004e-12 6.458377963202601e-12
          2.0553829202729638e-11 1.6600805692747803e-11 1.2760710525599121e-11 6.23071663494504e-12 3.767623830346096e-12 9.553664424309451e-12
          5.008466468666513e-12 4.000869142960855e-12 3.01794058722896e-12 2.4034514865914223e-12 7.725159672312019e-12 6.207068865536413e-12
          4.5711741816443955e-12 1.4177439239808234e-10 1.1707552882082076e-10 9.593730084410972e-11 1.6601353853109727e-10 9.496128935528522e-11
          6.144031200365205e-11 1.3341494792211202e-10 7.816723261156367e-11 6.386902260417006e-11 5.041956580131705e-11 4.108125072919621e-11
          1.1046028365394674e-10 9.075433502911422e-11 7.072313486428058e-11 2.3616407540711767e-10 1.9706214000689833e-10 1.6307725106837893e-10
          2.0504957776044884e-10 1.5961314120092895e-10 1.0321783282933105e-10 1.6740982001215474e-10 1.3259508281832795e-10 1.0928820602167164e-10
          8.541132415623524e-11 7.014799201655929e-11 1.3921302792835064e-10 1.1485417816469203e-10 9.0216130290698e-11 3.850269610461402e-11
          2.3439673447241588e-11 5.315318370912428e-11 3.150119079805486e-11 2.5595276683506362e-11 1.9118961223891282e-11 1.549013406291204e-11
          4.3702687325526805e-11 3.56773339290379e-11 2.615371224984677e-11 1.3905290190742137e-11 8.063131925079125e-12 1.8628651078789213e-11
          1.1306060149534854e-11 9.132636407515362e-12 6.533244018810954e-12 5.260295336234036e-12 1.5213725022801062e-11 1.2341743762183365e-11
          8.633939977134972e-12 6.411062400391729e-11 3.8406327612532296e-11 6.790216446111028e-11 5.286021441254897e-11 4.3269481947855996e-11
          3.155725218600381e-11 2.5748643503216767e-11 5.603297667330906e-11 4.590331346186738e-11 3.3500653229811056e-11 2.2290932177975734e-11
          1.2591251614784965e-11 2.363862717579635e-11 1.8252349182677585e-11 1.4844185265891782e-11 1.0272731507406463e-11 8.325989978122485e-12
          1.937152477263629e-11 1.5766682012411705e-11 1.0885083737975855e-11 4.040164047982973e-12 3.1708741662046396e-12 1.050066606138771e-11
          8.295613664802203e-12 7.180762581493887e-12 1.741280085706572e-12 2.463715586324926e-12 1.9016425125699503e-12 6.5110171818643925e-12
          5.076260207853957e-12 4.439191932991798e-12 4.7476966275884535e-11 3.029174668864982e-11 1.863232372323492e-11 1.4812126023531286e-11
          1.2471173618222415e-11 9.898452961770397e-12 3.205929707877783e-11 2.565123525704097e-11 2.097228655622456e-11 1.1695620824812332e-11
          9.172341857989743e-12 7.803515410155083e-12 6.110088440315947e-12 2.0379863578571997e-11 1.6077639447247605e-11 1.3281188804193351e-11
          1.0182945910007056e-12 1.4610174949816967e-12 1.1167350609028153e-12 3.931401146940827e-12 3.024713458660963e-12 2.672138894403013e-12
          5.893198177874519e-13 8.487717326593278e-13 2.3119925388176656e-12 1.5670195090553825e-12 1.877833157215334e-11 1.1308910725282971e-11
          7.1444900760297005e-12 5.52701573081879e-12 4.751907809917279e-12 3.670709729326582e-12 1.2593914405001088e-11 9.79497004850793e-12
          8.179261210001998e-12 4.246570200156063e-12 2.8165196010720285e-12 7.563722419515484e-12 4.897316671843571e-12 1.956577614492932e-12