<?xml version="1.0"?>
<VTKFile type="UnstructuredGrid" version="0.1" byte_order="LittleEndian" header_type="UInt32" compressor="vtkZLibDataCompressor">
  <UnstructuredGrid>
    <Piece NumberOfPoints="440" NumberOfCells="232">
      <PointData>
        <DataArray type="Int32" Name="libmesh_node_id" format="ascii" RangeMin="246" RangeMax="3579">
          246 249 254 255 352 355
          364 367 368 369 373 489
          498 502 503 508 774 776
          793 794 797 799 814 816
          819 822 824 889 890 892
          896 897 991 992 995 1006
          1007 1008 1009 1010 1011 1012
          1013 1014 1015 1016 1017 1018
          1019 1020 1021 1022 1023 1024
          1025 1026 1027 1028 1029 1030
          1031 1032 1426 1428 1430 1482
          1483 1486 1488 1527 1537 1548
          1549 1550 1551 1552 1553 1554
          1569 1570 1574 1585 1586 1587
          1588 1589 1590 1591 1592 1594
          1596 1598 1711 1712 1715 1744
          1745 1746 1747 1748 1749 1750
          1751 1752 1753 1754 1755 1756
          1757 1758 1759 1760 1761 1762
          1763 1764 1765 1766 1767 1768
          1769 1770 2691 2707 2708 2711
          2713 2723 2725 2727 2737 2739
          2741 3175 3182 3250 3260 3261
          3264 3269 3270 3271 3274 3275
          3276 3277 3278 3279 3280 3281
          3282 3283 3284 3285 3286 3287
          3288 3289 3290 3291 3292 3293
          3294 3295 3296 3297 3298 3299
          3300 3301 3302 3303 3304 3305
          3306 3307 3308 3309 3310 3311
          3312 3313 3314 3315 3320 3321
          3322 3325 3326 3328 3330 3332
          3365 3366 3367 3368 3369 3370
          3371 3372 3373 3374 3375 3376
          3397 3398 3399 3400 3401 3402
          3403 3404 3405 3406 3407 3408
          3409 3410 3431 3433 3435 3437
          3465 3467 3469 3471 3479 3480
          3482 3483 3484 3486 3487 3488
          3489 3490 3491 3492 3494 3496
          3498 3500 3501 3502 3503 3504
          3505 3506 3507 3508 3510 3511
          3512 3514 3515 3516 3517 3518
          3519 3520 3522 3524 3526 3528
          3529 3530 3531 3532 3533 3534
          3535 3537 3538 3539 3541 3549
          3550 3551 3552 3553 3554 3555
          3556 3557 3558 3559 3561 3562
          3563 3565 3573 3574 3575 3576
          3577 3578 3579 361 363 366
          486 493 350 808 756 809
          810 820 832 833 834 371
          838 372 1323 1519 1523 1326
          1328 1525 1521 1524 1526 1555
          1559 1556 1560 1562 1564 1563
          1593 1595 1597 1717 1721 3169
          3170 3172 3171 3173 3174 3176
          3178 3180 3177 3179 3181 3244
          3246 3248 3245 3247 3249 1547
          2310 3112 3114 2689 3258 3113
          3259 2693 3262 3263 3265 3266
          3267 3268 3272 3273 1413 3141
          2633 1532 3148 1533 3316 3317
          3318 3319 3323 3324 3213 1542
          3327 3329 3331 3363 3364 3347
          3348 3352 1566 1535 3168 3357
          1536 3358 3362 1568 3381 3382
          3386 1572 3391 3392 3396 1573
          3233 3415 1545 3416 3432 3434
          3420 1576 3436 1579 3449 3450
          3466 3468 3454 1582 3470 1584
          3536 3540 3340 3342 3542 3544
          3546 3548 3560 3564 3566 3568
          3570 3572
        </DataArray>
        <DataArray type="Float64" Name="bounds" format="ascii" RangeMin="0" RangeMax="0">
          0 0 0 0 0 0
          0 0 0 0 0 0
          0 0 0 0 0 0
          0 0 0 0 0 0
          0 0 0 0 0 0
          0 0 0 0 0 0
          0 0 0 0 0 0
          0 0 0 0 0 0
          0 0 0 0 0 0
          0 0 0 0 0 0
          0 0 0 0 0 0
          0 0 0 0 0 0
          0 0 0 0 0 0
          0 0 0 0 0 0
          0 0 0 0 0 0
          0 0 0 0 0 0
          0 0 0 0 0 0
          0 0 0 0 0 0
          0 0 0 0 0 0
          0 0 0 0 0 0
          0 0 0 0 0 0
          0 0 0 0 0 0
          0 0 0 0 0 0
          0 0 0 0 0 0
          0 0 0 0 0 0
          0 0 0 0 0 0
          0 0 0 0 0 0
          0 0 0 0 0 0
          0 0 0 0 0 0
          0 0 0 0 0 0
          0 0 0 0 0 0
          0 0 0 0 0 0
          0 0 0 0 0 0
          0 0 0 0 0 0
          0 0 0 0 0 0
          0 0 0 0 0 0
          0 0 0 0 0 0
          0 0 0 0 0 0
          0 0 0 0 0 0
          0 0 0 0 0 0
          0 0 0 0 0 0
          0 0 0 0 0 0
          0 0 0 0 0 0
          0 0 0 0 0 0
          0 0 0 0 0 0
          0 0 0 0 0 0
          0 0 0 0 0 0
          0 0 0 0 0 0
          0 0 0 0 0 0
          0 0 0 0 0 0
          0 0 0 0 0 0
          0 0 0 0 0 0
          0 0 0 0 0 0
          0 0 0 0 0 0
          0 0 0 0 0 0
          0 0 0 0 0 0
          0 0 0 0 0 0
          0 0 0 0 0 0
          0 0 0 0 0 0
          0 0 0 0 0 0
          0 0 0 0 0 0
          0 0 0 0 0 0
          0 0 0 0 0 0
          0 0 0 0 0 0
          0 0 0 0 0 0
          0 0 0 0 0 0
          0 0 0 0 0 0
          0 0 0 0 0 0
          0 0 0 0 0 0
          0 0 0 0 0 0
          0 0 0 0 0 0
          0 0 0 0 0 0
          0 0 0 0 0 0
          0 0
        </DataArray>
        <DataArray type="Float64" Name="gradient_error" format="ascii" RangeMin="9.896573680607793e-12" RangeMax="1.683958847826072e-8">
          1.3040399238316504e-9 1.9702933215323554e-10 1.3597866091122502e-9 6.238214804589102e-11 5.817984746736731e-10 9.524599588733575e-10
          6.290337011694782e-11 2.2279759969501443e-10 2.017558703914289e-10 7.241256391271658e-11 2.0293548761527388e-10 4.973730953684161e-10
          1.8689638853186072e-10 5.146662495779597e-10 6.494193542868116e-10 7.841724589956636e-10 4.057419862545296e-9 3.702008399246163e-10
          8.41830309429869e-10 6.67152418968434e-10 1.1137277562991257e-9 7.749188190398838e-10 1.4436787016957108e-10 4.563504981268439e-10
          1.048226962627752e-10 1.1243452933124769e-9 1.2432459769407379e-10 2.0089542937362132e-10 2.0396749221192499e-10 8.598949763317988e-11
          2.0703955505022863e-10 7.156630209419949e-11 5.620475374296131e-10 8.401816176215537e-10 5.431991552420296e-10 1.4781896861641712e-10
          1.885639952578581e-10 6.646522330832185e-11 7.587211147587519e-11 1.1024833990891269e-10 1.4231410836957687e-10 6.655816417343406e-11
          1.9260994501537024e-10 7.631977483162823e-11 1.9031156935940272e-10 1.5572839012685536e-10 5.759788408270155e-11 2.3383146901223296e-10
          5.229817610452312e-11 1.5861681631088794e-10 4.3446788203713294e-11 2.614196761359016e-10 1.8597198469137966e-11 2.1293922371930657e-11
          1.2332172414636219e-11 1.2207058993951081e-11 1.5233026484292733e-11 1.7463268094551965e-11 1.3530040439323095e-11 2.3990646274723345e-11
          1.2081945573265945e-11 1.96935097048112e-11 3.76146786381995e-10 3.000092304470523e-10 9.269252090275437e-10 3.424700323125611e-10
          3.0919799761894444e-10 2.566106109284576e-10 3.4100216126084346e-10 1.2152594586470142e-10 1.5010491933198784e-9 1.5486688330287336e-10
          8.649708005634419e-11 1.3349419961974116e-10 1.0604323837788853e-10 3.401142947612537e-10 1.2147405942910834e-10 2.0007062462197311e-10
          2.958829665718878e-9 8.945534647501254e-10 3.71734735552827e-9 5.974461520294234e-10 1.8851567662073274e-10 2.9200698404781267e-10
          1.0836664665995685e-10 7.235750535018626e-10 2.276346030037044e-10 3.330395560300898e-10 6.968049762179429e-11 5.5305979885574335e-11
          8.273313115024062e-11 6.365288132082055e-11 2.6625771845399224e-10 3.363725114988491e-10 1.9050245449628665e-10 9.814615853053833e-11
          1.2846210955290066e-10 6.224659726611071e-11 7.662128171798184e-11 7.152424564891307e-11 7.742811576571935e-11 5.488826002323679e-11
          1.967493419793659e-10 9.462626495697946e-11 8.722387141546072e-11 2.6430138834321916e-10 1.0990894126240546e-10 9.446537631735736e-11
          5.233438250546132e-11 2.938821533029695e-10 1.233764681742682e-10 9.781499568631892e-11 3.380792762171239e-11 3.8254578741338823e-11
          1.9755412907934982e-11 1.9759712219727757e-11 2.241512425141305e-11 2.3805594766981664e-11 1.5956553362528324e-11 4.270122986096526e-11
          1.9764011531520535e-11 2.5196065282550277e-11 2.132481082255456e-10 8.218336922680895e-11 1.1027776938785396e-10 7.664181855126481e-11
          1.8308215344687205e-10 1.2687493465222713e-9 6.144822713056055e-10 1.9944143746195036e-9 2.8803537194020943e-10 1.8112777508654487e-10
          4.214044521041843e-10 2.5325502205858913e-9 8.469494296942096e-10 2.355146759820684e-10 1.3063750445226672e-10 9.044285182789341e-11
          2.3127488814383037e-10 4.160503882421884e-11 5.864557445473603e-11 3.245465424862815e-11 9.116807147161185e-11 4.841537055252507e-11
          6.594937957614171e-11 3.678478135595902e-11 4.9229918448395584e-11 3.487037953971312e-11 4.549990789483465e-11 3.499287535732921e-11
          1.1176320737056782e-10 7.59880358080823e-11 7.293680931415102e-11 7.840401230608148e-10 4.657255065124989e-10 3.788389655272674e-10
          2.2513157224112176e-10 1.2349966957768395e-9 7.328333895781519e-10 5.715762862988899e-10 2.66140490700624e-10 1.4600672006436004e-10
          1.2876486156311428e-10 8.410541403574568e-11 4.1780797336051355e-10 2.2850778439303438e-10 1.953317491917652e-10 1.7669336893423326e-10
          1.0522961450403773e-10 1.1092397502350797e-10 6.75408661784707e-11 2.5776200688306135e-10 1.5326531769336076e-10 1.5829795479242433e-10
          4.7847002130892313e-11 6.059854039879733e-11 3.574180004201686e-11 4.4213796179534074e-11 3.411741817443996e-11 4.087924646029778e-11
          3.161471324383542e-11 8.857774169696757e-11 5.6014727186742263e-11 5.604734774988456e-11 1.2912379932090557e-11 1.7657375189707286e-11
          1.2989796456079473e-11 3.1167971479750266e-11 7.694692643506819e-11 5.150575998539444e-11 1.1986342347017226e-10 6.570350732864627e-11
          3.744407984047243e-9 2.2266862467321973e-9 9.239709595709181e-9 5.606851691242454e-9 4.956127024168198e-9 2.361165389263267e-9
          1.257896674435304e-9 1.2557124961065861e-9 6.740560130654859e-10 3.1814978983008763e-9 1.6963323293905198e-9 1.6697598461289647e-9
          1.0920553419182867e-8 6.674397313169025e-9 5.863294746138574e-9 3.5110965260448968e-9 1.153819303405977e-8 7.071005336255241e-9
          6.20066799000124e-9 3.8027697710433635e-9 2.0303180699014095e-9 1.98337320848471e-9 1.0616962368932519e-9 4.03500639608655e-9
          2.155627888490042e-9 2.100821617192492e-9 6.356751657593868e-10 3.456660937460541e-10 8.550860173874315e-10 4.568020913391377e-10
          1.0225325817374725e-9 5.409342294292088e-10 1.0854517329315342e-9 5.724478629938745e-10 1.7727771466096705e-9 1.052004353027748e-9
          4.715669255639741e-10 2.302775516119161e-9 1.3673048309609815e-9 5.977343890789311e-10 3.257499380391675e-10 2.7030056109244694e-10
          1.4880255889551494e-10 7.754883607869446e-10 4.213941456837648e-10 3.4175348852681973e-10 2.0575702943377342e-10 1.2300376569600151e-10
          2.5473189526438204e-10 1.1882109082031554e-10 6.64421049799004e-11 7.19885178629003e-11 4.214434931738524e-11 1.464618823191942e-10
          8.202711727322648e-11 8.618184169020963e-11 2.6970926540192547e-9 1.602661647098371e-9 6.896187320724375e-10 2.8434444556595466e-9
          1.6901854912046114e-9 9.085360605803288e-10 4.929739491613583e-10 3.942197495618404e-10 2.1714549838658363e-10 9.580003175561668e-10
          5.195414978338906e-10 4.134908168328422e-10 2.899925448537526e-10 1.692012970969292e-10 3.0281942572593455e-10 1.6648870259735318e-10
          9.300225310265468e-11 9.698713245452351e-11 5.5242496169720176e-11 1.738904174697163e-10 9.715528699706946e-11 1.0113399650081488e-10
          1.7074676666732032e-10 7.893712183245574e-11 4.83649027257709e-11 2.2040308518213574e-10 1.0041166212898817e-10 3.0814008768605725e-11
          3.5570196713766864e-11 2.2000109265344745e-11 2.4735148924885416e-11 2.1867262446453055e-11 2.3654429411109296e-11 1.7141614868051975e-11
          4.406077403374772e-11 3.025556636422611e-11 2.7648577536357854e-11 2.572437440309504e-10 1.1543967673068599e-10 7.030384711321932e-11
          2.7088303877893516e-10 1.2091398560464387e-10 4.993521425389625e-11 3.440413045866813e-11 3.114778697291509e-11 2.3181699538730147e-11
          5.207526509922507e-11 3.5767316773310124e-11 3.244001524888e-11 1.5876780635470626e-10 6.10732162922702e-11 2.8511746910235556e-11
          3.364845064532047e-10 1.555708458139933e-10 6.521657047729698e-10 1.8726697657098145e-10 8.534030658715271e-10 1.7311770711532045e-10
          4.951452872003835e-11 5.2888752058078575e-11 1.6533947723227284e-11 1.7996265807270477e-11 9.896573680607793e-12 5.317096339328678e-11
          2.0497344339651738e-11 1.2037287480043314e-11 2.066454073746592e-10 9.740798889128266e-11 9.868502839549029e-11 2.717929672177531e-10
          1.8963647914513276e-10 1.0819353903010758e-10 5.817468406531881e-11 4.1679019487948745e-11 7.981546235639324e-11 3.412331190477719e-11
          3.2416155707224554e-11 5.039038767102949e-11 7.225386008391958e-11 5.881378317645256e-11 6.446568733427314e-11 2.911375948244822e-11
          3.8721599522243254e-11 4.883212493908736e-11 4.5034822687718423e-11 2.1404388671035717e-11 1.660420091190924e-11 2.754051414874409e-9
          1.6304774713898432e-9 9.123352133894352e-10 1.5417683806194768e-9 4.6436248818932576e-9 2.7667954119922563e-9 9.16809990230774e-10
          5.160788877309443e-10 1.5565442003287391e-9 4.912596572013632e-10 2.797817291420744e-10 8.302530856586113e-10 2.518257970425376e-10
          1.458398655999318e-10 4.2172416376418897e-10 1.2387238649794352e-10 7.292476190761045e-11 2.0494366401345377e-10 1.1678221463769267e-10
          2.0226090112797604e-10 1.2413707230036741e-10 8.078154899676934e-11 4.0135064259693387e-10 2.4770282883244834e-10 8.673749073353299e-11
          1.4706579616337318e-10 7.410020050182739e-10 4.5735403250921893e-10 2.717958322328048e-10 5.686314904126145e-11 8.349979261296997e-11
          3.140923601678193e-11 4.60912521173972e-11 1.551826655266817e-10 8.544456238014752e-11 1.3832083483120018e-9 8.537771616128776e-10
          2.4862292063976863e-9 5.053574754685832e-10 2.871923513770838e-10 1.568424498252383e-10 1.723645792369783e-11 2.467102468345968e-11
          1.2800672035514519e-11 1.729628122398423e-11 4.5282204813174135e-11 2.699880464298886e-11 8.256116725980224e-11 4.6714561461953336e-11
          3.909949404420213e-11 2.6671147705347106e-11 6.071089518753658e-11 6.955874021636293e-9 4.181863102405645e-9 1.058458506256409e-8
          6.4912659257708645e-9 1.380286689977411e-8 8.617583938100799e-9 4.3066108856121744e-9 2.434061879688931e-9 3.705741369629502e-9
          1.2956841544298856e-9 1.979788950363755e-9 4.974196919518165e-9 2.672581542878505e-9 1.60441353627277e-8 1.0153997352239531e-8
          1.683958847826072e-8 1.0711021390189707e-8 5.911659020700239e-9 3.1921088269544215e-9 6.2564881812992744e-9 3.3849487586150302e-9
          6.530484318334508e-10 9.961764834745476e-10 3.133190189009242e-10 4.751085662436364e-10 3.063342496041486e-10 1.6998868989749927e-10
          1.3463393698108838e-9 6.405096321708959e-10 4.0991348552183433e-10 2.2329903349825338e-10 1.6111153403428885e-9 7.660274236029419e-10
          4.888883736208386e-10 2.6353368650053287e-10 1.7099233528989004e-9 8.129972315459666e-10 5.185592783730245e-10 2.785818334316945e-10
          8.59416170883518e-11 1.1050665758691076e-10 2.946584386729177e-11 1.9734585244124964e-11 4.138633588473027e-11 2.7103492935067694e-11
          5.281594958840835e-11 3.4019652244877536e-11 1.286328178968508e-10 1.3531049075165846e-10 6.126616345448155e-11 3.912295614292505e-11
          6.437516716813887e-11 4.098263306051e-11
        </DataArray>
        <DataArray type="Float64" Name="gradient_matprop_error" format="ascii" RangeMin="0" RangeMax="0">
          0 0 0 0 0 0
          0 0 0 0 0 0
          0 0 0 0 0 0
          0 0 0 0 0 0
          0 0 0 0 0 0
          0 0 0 0 0 0
          0 0 0 0 0 0
          0 0 0 0 0 0
          0 0 0 0 0 0
          0 0 0 0 0 0
          0 0 0 0 0 0
          0 0 0 0 0 0
          0 0 0 0 0 0
          0 0 0 0 0 0
          0 0 0 0 0 0
          0 0 0 0 0 0
          0 0 0 0 0 0
          0 0 0 0 0 0
          0 0 0 0 0 0
          0 0 0 0 0 0
          0 0 0 0 0 0
          0 0 0 0 0 0
          0 0 0 0 0 0
          0 0 0 0 0 0
          0 0 0 0 0 0
          0 0 0 0 0 0
          0 0 0 0 0 0
          0 0 0 0 0 0
          0 0 0 0 0 0
          0 0 0 0 0 0
          0 0 0 0 0 0
          0 0 0 0 0 0
          0 0 0 0 0 0
          0 0 0 0 0 0
          0 0 0 0 0 0
          0 0 0 0 0 0
          0 0 0 0 0 0
          0 0 0 0 0 0
          0 0 0 0 0 0
          0 0 0 0 0 0
          0 0 0 0 0 0
          0 0 0 0 0 0
          0 0 0 0 0 0
          0 0 0 0 0 0
          0 0 0 0 0 0
          0 0 0 0 0 0
          0 0 0 0 0 0
          0 0 0 0 0 0
          0 0 0 0 0 0
          0 0 0 0 0 0
          0 0 0 0 0 0
          0 0 0 0 0 0
          0 0 0 0 0 0
          0 0 0 0 0 0
          0 0 0 0 0 0
          0 0 0 0 0 0
          0 0 0 0 0 0
          0 0 0 0 0 0
          0 0 0 0 0 0
          0 0 0 0 0 0
          0 0 0 0 0 0
          0 0 0 0 0 0
          0 0 0 0 0 0
          0 0 0 0 0 0
          0 0 0 0 0 0
          0 0 0 0 0 0
          0 0 0 0 0 0
          0 0 0 0 0 0
          0 0 0 0 0 0
          0 0 0 0 0 0
          0 0 0 0 0 0
          0 0 0 0 0 0
          0 0 0 0 0 0
          0 0
        </DataArray>
        <DataArray type="Float64" Name="initial_marker" format="ascii" RangeMin="0" RangeMax="2">
          0 0 0 0 0 0
          0 0 0 0 0 0
          0 0 0 0 2 1
          0 0 0 0 0 2
          0 2 0.5 0 0 0
          0 0 0 0 0 0
          0 0 0 0 0 0
          0 0 0 0 0 0
          0 0 0 0 0 0
          0 0 0 0 0 0
          0 0 2 0.25 2 0
          0 0 0 0 2 1.5
          0.75 0 0 2 1.75 0.5
          2 2 2 2 2 1
          0.25 2 2 1 1.5 0
          1.5 0 0 0 0 0
          0 0 0 0 0 0
          0 0 0 0 0 0
          0 0 0 0 0 0
          0 0 0 0 0 0
          0 0 1.5 0 0.5 0
          1.25 2 2 2 1.75 1.5
          2 2 2 2 1.25 1
          1.75 0 1 0.5 1.6666666666666667 0
          0.25 0 0 0 0 0
          0.75 0.6666666666666666 0 2 2 2
          2 2 2 2 2 2
          1.75 1.6666666666666667 2 2 2 1.25
          1 0.5 0 1.75 1.5 1.5
          0.5 0.75 0 0.5 0 0
          0 1.25 1 0.5 0 0
          0 0.5 1.75 1.5 2 1.6666666666666667
          2 2 2 2 2 2
          2 2 2 2 2 2
          2 2 2 2 2 2
          2 2 2 2 2 2
          2 2 2 2 2 2
          2 2 2 2 2 2
          2 2 2 2 2 2
          2 2 2 2 2 2
          2 1.5 1 1 0 1.75
          1.25 1.5 2 2 2 2
          2 2 2 2 2 2
          2 2 2 2 2 2
          1.5 2 1 2 1.5 2
          2 1.75 1.6666666666666667 2 2 0.5
          0.75 0 0.5 0 0 0
          1 1 0 2 2 2
          2 2 1 1 0 0
          1 1 0 0 0 0
          0 0 0 0 0 0
          0 0 0 0 0 0
          0 0 0 0 0 0
          0.5 0.25 0 0 0 0
          0 0 0 0.75 0 0
          0.5 0 0.5 0 0 2
          2 2 2 2 2 2
          2 2 2 2 2 2
          2 2 2 2 2 2
          1.5 1.5 0.6666666666666666 2 2 1.3333333333333333
          1.75 2 2 2 1 1.5
          0.5 1 2 1.75 2 2
          2 2 2 2 0 0.5
          0 0.5 1.25 1 2 1.75
          1.25 0.5 1.75 2 2 2
          2 2 2 2 2 2
          2 2 2 2 2 2
          2 2 2 2 2 2
          2 2 2 2 2 2
          2 2 2 2 2 2
          2 2 2 2 2 2
          2 2 1.25 0.5 1.75 1.5
          2 2 2 2 2 2
          2 2
        </DataArray>
        <DataArray type="Float64" Name="markers_norefine" format="ascii" RangeMin="0" RangeMax="0">
          0 0 0 0 0 0
          0 0 0 0 0 0
          0 0 0 0 0 0
          0 0 0 0 0 0
          0 0 0 0 0 0
          0 0 0 0 0 0
          0 0 0 0 0 0
          0 0 0 0 0 0
          0 0 0 0 0 0
          0 0 0 0 0 0
          0 0 0 0 0 0
          0 0 0 0 0 0
          0 0 0 0 0 0
          0 0 0 0 0 0
          0 0 0 0 0 0
          0 0 0 0 0 0
          0 0 0 0 0 0
          0 0 0 0 0 0
          0 0 0 0 0 0
          0 0 0 0 0 0
          0 0 0 0 0 0
          0 0 0 0 0 0
          0 0 0 0 0 0
          0 0 0 0 0 0
          0 0 0 0 0 0
          0 0 0 0 0 0
          0 0 0 0 0 0
          0 0 0 0 0 0
          0 0 0 0 0 0
          0 0 0 0 0 0
          0 0 0 0 0 0
          0 0 0 0 0 0
          0 0 0 0 0 0
          0 0 0 0 0 0
          0 0 0 0 0 0
          0 0 0 0 0 0
          0 0 0 0 0 0
          0 0 0 0 0 0
          0 0 0 0 0 0
          0 0 0 0 0 0
          0 0 0 0 0 0
          0 0 0 0 0 0
          0 0 0 0 0 0
          0 0 0 0 0 0
          0 0 0 0 0 0
          0 0 0 0 0 0
          0 0 0 0 0 0
          0 0 0 0 0 0
          0 0 0 0 0 0
          0 0 0 0 0 0
          0 0 0 0 0 0
          0 0 0 0 0 0
          0 0 0 0 0 0
          0 0 0 0 0 0
          0 0 0 0 0 0
          0 0 0 0 0 0
          0 0 0 0 0 0
          0 0 0 0 0 0
          0 0 0 0 0 0
          0 0 0 0 0 0
          0 0 0 0 0 0
          0 0 0 0 0 0
          0 0 0 0 0 0
          0 0 0 0 0 0
          0 0 0 0 0 0
          0 0 0 0 0 0
          0 0 0 0 0 0
          0 0 0 0 0 0
          0 0 0 0 0 0
          0 0 0 0 0 0
          0 0 0 0 0 0
          0 0 0 0 0 0
          0 0 0 0 0 0
          0 0
        </DataArray>
        <DataArray type="Float64" Name="markers_mustrefine" format="ascii" RangeMin="0" RangeMax="2">
          0 0 0 0 0 0
          0 0 0 0 0 0
          0 0 0 0 2 1
          0 0 0 0 0 2
          0 2 0.5 0 0 0
          0 0 0 0 0 0
          0 0 0 0 0 0
          0 0 0 0 0 0
          0 0 0 0 0 0
          0 0 0 0 0 0
          0 0 2 0.25 2 0
          0 0 0 0 2 1.5
          0.75 0 0 2 1.75 0.5
          2 2 2 2 2 1
          0.25 2 2 1 1.5 0
          1.5 0 0 0 0 0
          0 0 0 0 0 0
          0 0 0 0 0 0
          0 0 0 0 0 0
          0 0 0 0 0 0
          0 0 1.5 0 0.5 0
          1.25 2 2 2 1.75 1.5
          2 2 2 2 1.25 1
          1.75 0 1 0.5 1.6666666666666667 0
          0.25 0 0 0 0 0
          0.75 0.6666666666666666 0 2 2 2
          2 2 2 2 2 2
          1.75 1.6666666666666667 2 2 2 1.25
          1 0.5 0 1.75 1.5 1.5
          0.5 0.75 0 0.5 0 0
          0 1.25 1 0.5 0 0
          0 0.5 1.75 1.5 2 1.6666666666666667
          2 2 2 2 2 2
          2 2 2 2 2 2
          2 2 2 2 2 2
          2 2 2 2 2 2
          2 2 2 2 2 2
          2 2 2 2 2 2
          2 2 2 2 2 2
          2 2 2 2 2 2
          2 1.5 1 1 0 1.75
          1.25 1.5 2 2 2 2
          2 2 2 2 2 2
          2 2 2 2 2 2
          1.5 2 1 2 1.5 2
          2 1.75 1.6666666666666667 2 2 0.5
          0.75 0 0.5 0 0 0
          1 1 0 2 2 2
          2 2 1 1 0 0
          1 1 0 0 0 0
          0 0 0 0 0 0
          0 0 0 0 0 0
          0 0 0 0 0 0
          0.5 0.25 0 0 0 0
          0 0 0 0.75 0 0
          0.5 0 0.5 0 0 2
          2 2 2 2 2 2
          2 2 2 2 2 2
          2 2 2 2 2 2
          1.5 1.5 0.6666666666666666 2 2 1.3333333333333333
          1.75 2 2 2 1 1.5
          0.5 1 2 1.75 2 2
          2 2 2 2 0 0.5
          0 0.5 1.25 1 2 1.75
          1.25 0.5 1.75 2 2 2
          2 2 2 2 2 2
          2 2 2 2 2 2
          2 2 2 2 2 2
          2 2 2 2 2 2
          2 2 2 2 2 2
          2 2 2 2 2 2
          2 2 1.25 0.5 1.75 1.5
          2 2 2 2 2 2
          2 2
        </DataArray>
        <DataArray type="Float64" Name="gradient_marker" format="ascii" RangeMin="1" RangeMax="1">
          1 1 1 1 1 1
          1 1 1 1 1 1
          1 1 1 1 1 1
          1 1 1 1 1 1
          1 1 1 1 1 1
          1 1 1 1 1 1
          1 1 1 1 1 1
          1 1 1 1 1 1
          1 1 1 1 1 1
          1 1 1 1 1 1
          1 1 1 1 1 1
          1 1 1 1 1 1
          1 1 1 1 1 1
          1 1 1 1 1 1
          1 1 1 1 1 1
          1 1 1 1 1 1
          1 1 1 1 1 1
          1 1 1 1 1 1
          1 1 1 1 1 1
          1 1 1 1 1 1
          1 1 1 1 1 1
          1 1 1 1 1 1
          1 1 1 1 1 1
          1 1 1 1 1 1
          1 1 1 1 1 1
          1 1 1 1 1 1
          1 1 1 1 1 1
          1 1 1 1 1 1
          1 1 1 1 1 1
          1 1 1 1 1 1
          1 1 1 1 1 1
          1 1 1 1 1 1
          1 1 1 1 1 1
          1 1 1 1 1 1
          1 1 1 1 1 1
          1 1 1 1 1 1
          1 1 1 1 1 1
          1 1 1 1 1 1
          1 1 1 1 1 1
          1 1 1 1 1 1
          1 1 1 1 1 1
          1 1 1 1 1 1
          1 1 1 1 1 1
          1 1 1 1 1 1
          1 1 1 1 1 1
          1 1 1 1 1 1
          1 1 1 1 1 1
          1 1 1 1 1 1
          1 1 1 1 1 1
          1 1 1 1 1 1
          1 1 1 1 1 1
          1 1 1 1 1 1
          1 1 1 1 1 1
          1 1 1 1 1 1
          1 1 1 1 1 1
          1 1 1 1 1 1
          1 1 1 1 1 1
          1 1 1 1 1 1
          1 1 1 1 1 1
          1 1 1 1 1 1
          1 1 1 1 1 1
          1 1 1 1 1 1
          1 1 1 1 1 1
          1 1 1 1 1 1
          1 1 1 1 1 1
          1 1 1 1 1 1
          1 1 1 1 1 1
          1 1 1 1 1 1
          1 1 1 1 1 1
          1 1 1 1 1 1
          1 1 1 1 1 1
          1 1 1 1 1 1
          1 1 1 1 1 1
          1 1
        </DataArray>
        <DataArray type="Float64" Name="gradient_matprop_marker" format="ascii" RangeMin="0" RangeMax="0">
          0 0 0 0 0 0
          0 0 0 0 0 0
          0 0 0 0 0 0
          0 0 0 0 0 0
          0 0 0 0 0 0
          0 0 0 0 0 0
          0 0 0 0 0 0
          0 0 0 0 0 0
          0 0 0 0 0 0
          0 0 0 0 0 0
          0 0 0 0 0 0
          0 0 0 0 0 0
          0 0 0 0 0 0
          0 0 0 0 0 0
          0 0 0 0 0 0
          0 0 0 0 0 0
          0 0 0 0 0 0
          0 0 0 0 0 0
          0 0 0 0 0 0
          0 0 0 0 0 0
          0 0 0 0 0 0
          0 0 0 0 0 0
          0 0 0 0 0 0
          0 0 0 0 0 0
          0 0 0 0 0 0
          0 0 0 0 0 0
          0 0 0 0 0 0
          0 0 0 0 0 0
          0 0 0 0 0 0
          0 0 0 0 0 0
          0 0 0 0 0 0
          0 0 0 0 0 0
          0 0 0 0 0 0
          0 0 0 0 0 0
          0 0 0 0 0 0
          0 0 0 0 0 0
          0 0 0 0 0 0
          0 0 0 0 0 0
          0 0 0 0 0 0
          0 0 0 0 0 0
          0 0 0 0 0 0
          0 0 0 0 0 0
          0 0 0 0 0 0
          0 0 0 0 0 0
          0 0 0 0 0 0
          0 0 0 0 0 0
          0 0 0 0 0 0
          0 0 0 0 0 0
          0 0 0 0 0 0
          0 0 0 0 0 0
          0 0 0 0 0 0
          0 0 0 0 0 0
          0 0 0 0 0 0
          0 0 0 0 0 0
          0 0 0 0 0 0
          0 0 0 0 0 0
          0 0 0 0 0 0
          0 0 0 0 0 0
          0 0 0 0 0 0
          0 0 0 0 0 0
          0 0 0 0 0 0
          0 0 0 0 0 0
          0 0 0 0 0 0
          0 0 0 0 0 0
          0 0 0 0 0 0
          0 0 0 0 0 0
          0 0 0 0 0 0
          0 0 0 0 0 0
          0 0 0 0 0 0
          0 0 0 0 0 0
          0 0 0 0 0 0
          0 0 0 0 0 0
          0 0 0 0 0 0
          0 0
        </DataArray>
        <DataArray type="Float64" Name="combo" format="ascii" RangeMin="1" RangeMax="1">
          1 1 1 1 1 1
          1 1 1 1 1 1
          1 1 1 1 1 1
          1 1 1 1 1 1
          1 1 1 1 1 1
          1 1 1 1 1 1
          1 1 1 1 1 1
          1 1 1 1 1 1
          1 1 1 1 1 1
          1 1 1 1 1 1
          1 1 1 1 1 1
          1 1 1 1 1 1
          1 1 1 1 1 1
          1 1 1 1 1 1
          1 1 1 1 1 1
          1 1 1 1 1 1
          1 1 1 1 1 1
          1 1 1 1 1 1
          1 1 1 1 1 1
          1 1 1 1 1 1
          1 1 1 1 1 1
          1 1 1 1 1 1
          1 1 1 1 1 1
          1 1 1 1 1 1
          1 1 1 1 1 1
          1 1 1 1 1 1
          1 1 1 1 1 1
          1 1 1 1 1 1
          1 1 1 1 1 1
          1 1 1 1 1 1
          1 1 1 1 1 1
          1 1 1 1 1 1
          1 1 1 1 1 1
          1 1 1 1 1 1
          1 1 1 1 1 1
          1 1 1 1 1 1
          1 1 1 1 1 1
          1 1 1 1 1 1
          1 1 1 1 1 1
          1 1 1 1 1 1
          1 1 1 1 1 1
          1 1 1 1 1 1
          1 1 1 1 1 1
          1 1 1 1 1 1
          1 1 1 1 1 1
          1 1 1 1 1 1
          1 1 1 1 1 1
          1 1 1 1 1 1
          1 1 1 1 1 1
          1 1 1 1 1 1
          1 1 1 1 1 1
          1 1 1 1 1 1
          1 1 1 1 1 1
          1 1 1 1 1 1
          1 1 1 1 1 1
          1 1 1 1 1 1
          1 1 1 1 1 1
          1 1 1 1 1 1
          1 1 1 1 1 1
          1 1 1 1 1 1
          1 1 1 1 1 1
          1 1 1 1 1 1
          1 1 1 1 1 1
          1 1 1 1 1 1
          1 1 1 1 1 1
          1 1 1 1 1 1
          1 1 1 1 1 1
          1 1 1 1 1 1
          1 1 1 1 1 1
          1 1 1 1 1 1
          1 1 1 1 1 1
          1 1 1 1 1 1
          1 1 1 1 1 1
          1 1
        </DataArray>
        <DataArray type="Float64" Name="dHdT" format="ascii" RangeMin="25.811659885025048" RangeMax="30.076386825664596">
          25.812830579713637 25.811672673803667 25.815951397380125 25.811662424099232 25.824916914957036 25.814675036298702
          25.811684269592533 25.811995135507033 25.812040737208843 25.8117088954837 25.81207298722859 25.8120242434308
          25.811756267938357 25.812098688235963 25.81219438597045 25.81229008370493 26.510682701509577 25.847378267230592
          25.81881770127613 25.81998999818592 25.818049313399076 25.821526719630484 25.814303778836297 25.886807738330877
          25.81671713159978 26.00073256855618 25.820246235823436 25.811787759950462 25.811789660758024 25.811670647597683
          25.811791561565578 25.811659885025048 25.8151332492961 25.81701418037105 25.81511521744917 25.812927076208823
          25.813212157756038 25.81233259907824 25.812369681026496 25.812771908154097 25.812947569721928 25.812358340882334
          25.813428338674484 25.812283697260284 25.81320106209235 25.81356193608365 25.81218932685978 25.813394039410888
          25.812142713476934 25.813868179768086 25.81215298526664 25.813509185926826 25.811794467250923 25.811799879150357
          25.811703597207938 25.81170043965021 25.81178416752459 25.81179132690174 25.81170977069961 25.811805291049787
          25.811697282092474 25.811798486278896 25.878715142188728 25.832868392317984 25.97381358597165 25.82626159452175
          25.827781723784295 25.823393280116214 25.82928430897369 25.817456303890307 26.063179480929815 25.83528074907284