<?xml version="1.0"?>
<VTKFile type="UnstructuredGrid" version="0.1" byte_order="LittleEndian" header_type="UInt32" compressor="vtkZLibDataCompressor">
  <UnstructuredGrid>
    <Piece NumberOfPoints="420" NumberOfCells="219">
      <PointData>
        <DataArray type="Int32" Name="libmesh_node_id" format="ascii" RangeMin="160" RangeMax="1808">
          160 161 175 190 191 205
          210 211 214 215 217 218
          219 220 221 223 224 225
          227 228 229 230 231 232
          236 237 239 240 242 292
          293 294 298 302 304 305
          306 307 308 309 310 311
          312 313 314 315 316 317
          318 319 320 321 322 323
          324 325 326 327 328 329
          330 331 378 379 382 383
          385 387 390 391 396 408
          409 410 411 414 415 416
          418 419 421 432 433 434
          435 436 437 438 439 440
          441 442 443 444 445 446
          447 448 449 450 451 452
          453 454 455 467 469 474
          477 557 558 559 560 561
          562 563 564 565 566 567
          568 569 570 571 572 573
          574 575 576 577 578 579
          580 581 582 583 584 585
          586 587 588 589 590 591
          592 593 594 595 596 597
          598 599 600 601 602 603
          604 605 606 607 608 609
          610 611 612 613 614 615
          616 617 618 619 620 621
          622 623 624 625 626 627
          628 629 630 631 632 633
          634 635 636 637 638 639
          640 641 642 643 644 645
          646 647 648 649 650 651
          652 653 654 655 656 657
          658 659 660 710 712 717
          720 839 841 843 844 846
          848 863 864 868 871 873
          874 875 876 877 878 879
          880 881 882 883 884 885
          886 887 888 899 900 903
          904 906 907 908 909 910
          912 913 915 917 918 922
          923 925 927 928 929 930
          931 932 933 934 935 936
          937 938 939 940 941 942
          943 944 945 946 947 948
          949 950 951 952 953 954
          955 956 957 958 959 960
          961 962 963 964 965 966
          967 968 969 970 971 972
          973 974 975 976 977 978
          1033 1034 1035 1036 1037 1039
          1040 1041 1042 1043 1044 1045
          1046 1047 1048 1049 1050 1051
          1052 1053 1054 1055 1056 1057
          1058 1059 1060 1061 1064 1065
          1066 1067 1068 1069 1070 1071
          1072 1073 1074 1075 1076 1077
          1078 1079 1080 1081 1082 1083
          1084 1085 1086 1087 1088 1089
          1090 1091 1092 1093 1094 1095
          1096 1633 1634 1635 1636 1637
          1638 1639 1640 1641 1642 1643
          1644 1645 1646 1772 1773 1774
          1775 1776 1777 1778 1779 1780
          1784 1785 1786 1787 1789 1790
          1791 1792 1793 1794 1795 1796
          1797 1798 1799 1800 1801 1802
          1803 1804 1805 1806 1807 1808
        </DataArray>
        <DataArray type="Float64" Name="bounds" format="ascii" RangeMin="0" RangeMax="0">
          0 0 0 0 0 0
          0 0 0 0 0 0
          0 0 0 0 0 0
          0 0 0 0 0 0
          0 0 0 0 0 0
          0 0 0 0 0 0
          0 0 0 0 0 0
          0 0 0 0 0 0
          0 0 0 0 0 0
          0 0 0 0 0 0
          0 0 0 0 0 0
          0 0 0 0 0 0
          0 0 0 0 0 0
          0 0 0 0 0 0
          0 0 0 0 0 0
          0 0 0 0 0 0
          0 0 0 0 0 0
          0 0 0 0 0 0
          0 0 0 0 0 0
          0 0 0 0 0 0
          0 0 0 0 0 0
          0 0 0 0 0 0
          0 0 0 0 0 0
          0 0 0 0 0 0
          0 0 0 0 0 0
          0 0 0 0 0 0
          0 0 0 0 0 0
          0 0 0 0 0 0
          0 0 0 0 0 0
          0 0 0 0 0 0
          0 0 0 0 0 0
          0 0 0 0 0 0
          0 0 0 0 0 0
          0 0 0 0 0 0
          0 0 0 0 0 0
          0 0 0 0 0 0
          0 0 0 0 0 0
          0 0 0 0 0 0
          0 0 0 0 0 0
          0 0 0 0 0 0
          0 0 0 0 0 0
          0 0 0 0 0 0
          0 0 0 0 0 0
          0 0 0 0 0 0
          0 0 0 0 0 0
          0 0 0 0 0 0
          0 0 0 0 0 0
          0 0 0 0 0 0
          0 0 0 0 0 0
          0 0 0 0 0 0
          0 0 0 0 0 0
          0 0 0 0 0 0
          0 0 0 0 0 0
          0 0 0 0 0 0
          0 0 0 0 0 0
          0 0 0 0 0 0
          0 0 0 0 0 0
          0 0 0 0 0 0
          0 0 0 0 0 0
          0 0 0 0 0 0
          0 0 0 0 0 0
          0 0 0 0 0 0
          0 0 0 0 0 0
          0 0 0 0 0 0
          0 0 0 0 0 0
          0 0 0 0 0 0
          0 0 0 0 0 0
          0 0 0 0 0 0
          0 0 0 0 0 0
          0 0 0 0 0 0
        </DataArray>
        <DataArray type="Float64" Name="gradient_error" format="ascii" RangeMin="5.491310089681356e-10" RangeMax="6.543831803356834e-7">
          1.2773538817433383e-8 2.2639326220616828e-8 5.0045560131446145e-9 3.829100900659516e-7 1.1345136396923246e-8 2.4802981214642248e-9
          5.962982456380679e-8 7.673131952603278e-8 2.86790536149856e-7 4.251992566792899e-7 2.37986778078264e-8 2.1190043919604156e-7
          7.788624326060428e-8 7.016079902264672e-8 7.864289869915198e-8 2.3032785222338978e-8 2.2854529875506143e-7 3.320166380488958e-7
          2.4344112298621714e-7 6.688258605138656e-8 5.417265384620337e-9 8.838241237815118e-9 1.0555199748163027e-7 2.741533946309466e-8
          1.0067853327156003e-8 8.473328151897477e-9 2.70166241889064e-9 1.1731329278840925e-7 4.927230852035075e-9 4.724735817921028e-7
          3.768701308943264e-7 5.552153040916119e-7 5.012335560181809e-7 3.8929828092594146e-7 2.5702032492724217e-7 3.106727965336568e-7
          4.4125476217497787e-7 4.6380853978558157e-7 1.4198399818220354e-7 5.231325453127704e-7 3.903004873470998e-7 2.9243483898798675e-7
          3.3526364476486136e-7 1.6114879729373757e-7 2.875664538907913e-7 4.57715969937801e-7 5.449652234381126e-7 2.9649500774413436e-7
          1.599673979346456e-7 1.0242084947862954e-7 6.273716872572106e-7 4.212915782314767e-7 6.514566092621313e-8 3.339445715338344e-7
          3.382329126989757e-7 5.422561114550865e-8 1.1516183007691357e-7 7.194842962305914e-8 2.821736480488333e-7 6.543831803356834e-7
          3.4097438350309414e-7 1.818114523311413e-7 5.4376195620539384e-8 3.412669887616571e-8 7.074000771681303e-9 6.2696123413242805e-9
          1.3877202131792034e-8 5.465223910967259e-9 2.6653194969631696e-9 2.385024521134321e-9 2.1047295453054724e-9 1.8001874484206742e-9
          4.522666450392131e-9 2.103550503721233e-9 5.632443349977507e-9 5.491310089681356e-10 9.38014275463171e-10 1.869891760779963e-9
          2.406913559021792e-9 6.742220249562884e-9 1.3268975419582064e-9 1.3475153274543522e-8 1.3243891329076387e-8 2.671264935618039e-8
          1.8727078206715607e-7 1.532219613000493e-7 1.1066095150191522e-7 1.399243311744938e-7 1.1498672517127253e-8 1.1382755533226522e-7
          8.249069830143069e-8 1.301262938360925e-8 6.80999417037811e-8 9.257788028183152e-8 5.1153841270596164e-8 1.040958720864224e-8
          8.396523770213828e-9 7.359820171809975e-8 5.359932256661714e-8 5.313816194066092e-9 4.030711321811156e-8 2.8346748832349705e-8
          6.383460331785415e-9 3.3600443415134516e-8 1.6386384446587853e-8 1.8627337636593385e-8 3.3806461393948714e-8 5.1065172734179065e-9
          4.898558515130404e-8 3.485544680634102e-7 3.4000510511280956e-7 2.846535746260922e-7 3.310123394458711e-7 3.693685025972666e-7
          3.0841337022358206e-7 3.5827914153383294e-7 3.1714117518858386e-7 3.480009899191996e-7 3.781594219969412e-7 2.0519515994212624e-7
          2.8783107484197725e-7 3.124204794458513e-7 3.5960834982299624e-7 2.169997054481917e-7 1.9776185940450428e-7 2.0571304836151366e-7
          3.1704083639197106e-7 3.2632255051336164e-7 2.9757255140214215e-7 2.9044796613747667e-7 1.874214915922172e-7 3.345354133426653e-7
          3.026535599283561e-7 1.4685537459387516e-7 2.182942622794372e-7 2.3228767002928523e-7 2.166247140794114e-7 4.79611598228429e-7
          4.6095232321988167e-7 4.280743244918796e-7 4.977752477598915e-7 3.687586935341158e-7 4.0734313142719225e-7 3.9806918047122466e-7
          3.397745951856968e-7 3.9314121621893536e-7 3.78533092992867e-7 4.3301863037580793e-7 3.6921574149480666e-7 4.0783237715176926e-7
          4.390091893770085e-7 2.5486066260966924e-7 3.4488834451951833e-7 3.850714956812963e-7 4.21586547539095e-7 4.2622158873417666e-7
          4.795481960909808e-7 4.849679464152075e-7 5.366225989987468e-7 4.732070048021831e-7 5.114010211260814e-7 3.2886537659002697e-7
          4.3457498914197834e-7 4.955803307422056e-7 4.98629772501134e-7 1.9867883527532466e-7 1.754601036257346e-7 3.409873483148658e-7
          3.052492684047179e-7 1.6056483726228378e-7 3.447926483022302e-7 3.048934920629133e-7 1.1834255204260546e-7 2.1145801520945962e-7
          2.0326129488234418e-7 5.724661037755885e-7 5.385858724398325e-7 5.826131251488812e-7 4.0717310447390704e-7 1.6267605209619515e-7
          1.419160808670216e-7 3.453609390485902e-7 3.008776775192794e-7 1.197555826345619e-7 3.4077904734204455e-7 2.91858979185056e-7
          9.25730785185208e-8 1.9148428631790497e-7 1.7553665630251495e-7 4.906226639566303e-7 5.279112121671868e-7 3.696966140777196e-7
          4.3020869982459354e-7 5.579232025968736e-7 6.067231441253143e-7 5.176316605384965e-7 6.2506383030496e-7 5.534724257406548e-7
          5.982416623140936e-7 4.542100589969774e-7 5.713129765546651e-7 5.346197528095164e-7 5.971721209098093e-7 2.771107139497524e-7
          4.4376010255261673e-7 9.478835209640324e-8 2.0992330112350852e-7 5.385818683530121e-7 3.7325015580988093e-7 3.408828601541776e-8
          2.9009931015935445e-7 1.0079222474780329e-7 5.094962189218073e-7 1.7684117640411944e-7 2.9665276607988476e-7 1.2452106065465836e-7
          3.484221271208944e-7 1.1577359766379175e-8 3.5771677290891566e-8 3.3506495604106376e-9 1.1924142588009366e-8 5.996599481540394e-8
          2.049763561560809e-8 1.0960207658736266e-7 1.6801697691599258e-7 3.135797522261801e-8 2.2643187724462246e-7 8.041871345611553e-8
          1.3122449408227313e-7 5.907965159117384e-8 9.728079722390404e-8 1.350896366444924e-8 1.2446595295610888e-8 1.0217401639516271e-8
          1.820302747084307e-7 1.3548194285663425e-7 1.1384226926772533e-8 3.827297283481374e-8 6.335767453109695e-8 5.772793137897834e-9
          7.667071926206721e-9 8.844237622738016e-8 9.561350714515607e-9 2.423148453188675e-7 2.2498056620315946e-7 2.8765589606781495e-7
          2.653985861895068e-7 2.1390015029111775e-7 2.963586633388339e-7 2.742496759319181e-7 2.076462870874514e-7 2.431412763111986e-7
          2.5214068852500223e-7 2.5348639224062736e-7 2.787238361383491e-7 2.6327436012833273e-7 2.8858749041700683e-7 2.2900104968421505e-7
          3.039612800360709e-7 3.1390062070568093e-7 2.2342942720501829e-7 2.100233532502264e-7 3.0671358114883924e-7 2.8238381313716156e-7
          1.9661727929543456e-7 2.580540451254839e-7 2.6961452796073823e-7 2.974859956487035e-7 2.407315615463935e-7 3.0610824860292634e-7
          2.091722904675704e-7 2.2581507424604257e-7 2.2170228621058474e-7 3.2535746333666866e-7 3.3658454770099016e-7 2.4245785802451475e-7
          2.2503263361967053e-7 3.1347179774087666e-7 2.230682131331852e-7 3.1830524001996847e-7 1.548409283824439e-7 2.1340438932517185e-7
          2.0208568937006055e-7 3.4642448191502333e-7 3.546421830665581e-7 2.3587402052170848e-7 4.538726858537815e-8 5.259185735597814e-8
          8.640854753182425e-8 9.763874396492839e-8 3.969964789485932e-8 7.424929783211155e-8 2.6784489771562812e-8 4.624293841780727e-8
          5.374923398876496e-8 4.036419408726079e-8 1.9471562221861167e-7 2.0800198822012083e-7 9.637321553550937e-8 2.172511044737401e-7
          3.199383673708173e-7 3.1763437648858804e-7 1.2486164110374263e-7 1.8845496891408012e-7 1.7121902769325026e-7 3.6023817793293634e-7
          3.619504071108131e-7 2.1454800815860687e-7 3.10399102087805e-7 1.497205311194702e-7 3.587967862166571e-7 1.7239601823197336e-7
          1.0765982870833456e-7 1.1558961735688353e-7 1.1171326531718567e-7 1.1956289022200982e-7 1.0783691327748782e-7 7.93944456197325e-8
          7.448602868894348e-8 7.749883351531603e-8 8.051163834168857e-8 7.560322141089956e-8 1.1384465887995269e-7 1.10412117701879e-7
          1.0697957652380533e-7 8.683616961569228e-8 8.840579871163329e-8 1.0649418587146897e-7 8.997542780757429e-8 1.17400810051549e-7
          1.149953864528438e-7 1.2586995226073817e-7 1.2436019817012483e-7 1.125899628541386e-7 1.1919870826159034e-7 1.125291558863057e-7
          1.1545102013644257e-7 1.122235252556254e-7 1.1911942563364894e-7 1.1105790011445159e-7 1.1633254339288662e-7 1.2172020431597562e-7
          1.1205257865798523e-7 7.584675281625687e-8 8.297764812362627e-8 6.692460300018514e-8 8.622707936790387e-8 9.010854343099566e-8
          1.0977741555005383e-7 6.485733601682145e-8 7.754949753561922e-8 6.946823247585197e-8 9.024165905441701e-8 5.765893536418238e-8
          8.689646992354896e-8 3.437544036834179e-8 6.643010022000777e-8 1.1951772220592893e-7 1.1596776973858234e-7 4.374389309788151e-9
          6.08770868509568e-8 3.6581419852126646e-8 1.1902781217677909e-7 1.1530676570831039e-7 1.1257947679077476e-7 1.1955563130216918e-7
          1.199105289012313e-7 1.2926916411738064e-7 1.1635204828518374e-7 1.2371046941557847e-7 1.23488514409576e-7 1.3238099162792688e-7
          1.206515179123822e-7 8.719872744899208e-8 9.86682520760885e-8 1.2837244056080166e-7 1.3479951885277185e-7 7.025242808414256e-8
          1.1721027868856706e-7 5.921071907105067e-8 8.897890885365161e-8 1.0044621938365251e-7 7.194283573235838e-8 6.060987917394643e-8
          1.0773676565636418e-7 3.677602623882642e-8 6.206868938837912e-8 9.13443951636471e-9 8.768916639553043e-9 9.005287000959699e-9
          9.241657362366357e-9 8.876134485554688e-9 9.538360197223626e-9 9.619516201013578e-9 1.003913129030444e-8 9.70067220480353e-9
          8.939733162753598e-9 9.82934867290718e-9 1.0867858264967481e-8 1.0718964183060762e-8 8.040004115790467e-9 8.919886185031874e-9
          6.922975505878002e-9 8.619178036380555e-9 9.799768254273276e-9 1.0315380566883107e-8 6.5416480343573085e-9 8.220256169050166e-9
          7.1992247824566715e-9 9.898864303743023e-9 6.1831802764976e-9 8.164762250553075e-9 5.3328214522083926e-9 7.499032776055372e-9
          1.0146344224608548e-8 1.138990011603681e-8 3.426627390241604e-9 6.5001758281989685e-9 5.706733963227261e-9 9.573724266156332e-9
        </DataArray>
        <DataArray type="Float64" Name="gradient_matprop_error" format="ascii" RangeMin="0" RangeMax="0">
          0 0 0 0 0 0
          0 0 0 0 0 0
          0 0 0 0 0 0
          0 0 0 0 0 0
          0 0 0 0 0 0
          0 0 0 0 0 0
          0 0 0 0 0 0
          0 0 0 0 0 0
          0 0 0 0 0 0
          0 0 0 0 0 0
          0 0 0 0 0 0
          0 0 0 0 0 0
          0 0 0 0 0 0
          0 0 0 0 0 0
          0 0 0 0 0 0
          0 0 0 0 0 0
          0 0 0 0 0 0
          0 0 0 0 0 0
          0 0 0 0 0 0
          0 0 0 0 0 0
          0 0 0 0 0 0
          0 0 0 0 0 0
          0 0 0 0 0 0
          0 0 0 0 0 0
          0 0 0 0 0 0
          0 0 0 0 0 0
          0 0 0 0 0 0
          0 0 0 0 0 0
          0 0 0 0 0 0
          0 0 0 0 0 0
          0 0 0 0 0 0
          0 0 0 0 0 0
          0 0 0 0 0 0
          0 0 0 0 0 0
          0 0 0 0 0 0
          0 0 0 0 0 0
          0 0 0 0 0 0
          0 0 0 0 0 0
          0 0 0 0 0 0
          0 0 0 0 0 0
          0 0 0 0 0 0
          0 0 0 0 0 0
          0 0 0 0 0 0
          0 0 0 0 0 0
          0 0 0 0 0 0
          0 0 0 0 0 0
          0 0 0 0 0 0
          0 0 0 0 0 0
          0 0 0 0 0 0
          0 0 0 0 0 0
          0 0 0 0 0 0
          0 0 0 0 0 0
          0 0 0 0 0 0
          0 0 0 0 0 0
          0 0 0 0 0 0
          0 0 0 0 0 0
          0 0 0 0 0 0
          0 0 0 0 0 0
          0 0 0 0 0 0
          0 0 0 0 0 0
          0 0 0 0 0 0
          0 0 0 0 0 0
          0 0 0 0 0 0
          0 0 0 0 0 0
          0 0 0 0 0 0
          0 0 0 0 0 0
          0 0 0 0 0 0
          0 0 0 0 0 0
          0 0 0 0 0 0
          0 0 0 0 0 0
        </DataArray>
        <DataArray type="Float64" Name="initial_marker" format="ascii" RangeMin="0" RangeMax="2">
          0 0 0 2 0 0
          0 0 0 0 0 0
          0 0 0 0 2 0
          0 0 0 0 0 0
          0 0 2 0 0 0
          1 0 0 1 0 0
          1 0.5 0 2 0.5 0
          0 0 2 1 1 0
          0 0 2 0.5 0 2
          1 0 0 0 2 1
          1.5 0 0 0 0 0
          0 0 0 0 0 0
          0 0 0 0 0 0
          0 0 0 0 0 0
          0 0 0 0 0 0
          0 0 0 0 0 0
          0 0 0 0 0 0
          0 0 0 0 0 0
          0 0.5 0.25 1.5 1 0.5
          2 1.5 0 0.25 0.5 2
          1.5 2 0.5 0 0 0
          0 0.5 0.25 0 0 1
          0.5 0 0 0 0 1.5
          1.25 1 1.5 0.5 1 0.75
          2 1.75 2 2 0.3333333333333333 0.75
          1 2 2 2 1 2
          2 2 2 1 1 2
          2 2 1 0 0 1
          0.5 0 1 0.5 0 0
          0 2 1.5 1.5 0.5 0
          0 1 0.75 0 1 1
          0 0.25 0.5 2 1.75 2
          0.75 2 2 2 2 1
          1 2 2 2 1 2
          2 2 2 1 1.25 2
          2 2 1 0 0.25 0
          0.5 0 0 0 0 0
          0 0 0 0 0 0
          0 0 0 0 0 0
          0 0 0 0 0 0
          0 0 0 0 0 0
          0 0 0 0 0 0
          0 0 0 0 0 0
          0 0 0 0 0 0
          0 0 0 0 0 0
          0 0 0 0 0 0
          0 0 0 0 0 0
          0 0 0 0 0 0
          0 0 0 0 0 0
          0 0 0 0 0 0
          0 0 0 0 0 0
          0 0 0 0 0 0
          2 2 2 2 2 2
          2 2 2 2 2 2
          2 2 2 2 2 2
          2 2 2 2 2 2
          2 2 2 2 2 2
          2 2 2 2 2 2
          2 2 2 2 2 2
          2 2 2 2 2 2
          2 2 2 2 2 2
          2 2 2 2 2 2
          2 0 0 0 0 0
          0 0 0 0 0 0
          0 0 0 2 2 2
          2 2 2 2 2 2
          2 2 2 2 2 2
          2 2 2 2 2 2
          2 2 2 2 2 2
          2 2 2 2 2 2
        </DataArray>
        <DataArray type="Float64" Name="markers_norefine" format="ascii" RangeMin="0" RangeMax="2">
          0 0 0 0 0 0
          0 0 0 0 0 0
          0 0 0 0 0 0
          0 0 0 0 0 0
          0 0 2 0 0 0
          0 0 0 0 0 0
          0 0 0 0 0 0
          0 0 0 0 0 0
          0 0 0 0 0 0
          0 0 0 0 0 0
          0 0 0 0 0 0
          0 0 0 0 0 0
          0 0 0 0 0 0
          0 0 0 0 0 0
          0 0 0 0 0 0
          0 0 0 0 0 0
          0 0 0 0 0 0
          0 0 0 0 0 0
          0 0 0 0 0 0
          0 0 0 0 0 0
          0 0 0 0 0 0
          0 0 0 0 0 0
          0 0 0 0 0 0
          0 0 0 0 0 0
          0 0 0 0 0 0
          0 0 0 0 0 0
          0 0 0 0 0 0
          0 0 0 0 0 0
          0 0 0 0 0 0
          0 0 0 0 0 0
          0 0 0 0 0 0
          0 0 0 0 0 0
          0 0 0 0 0 0
          0 0 0 0 0 0
          0 0 0 0 0 1
          0 0 0 0 0 0
          0 0 0 0 0 0
          0 0 0 0 0 0
          0 0 0 0 0 0
          0 0 0 0 0 0
          0 0 0 0 0 0
          0 0 0 0 0 0
          0 0 0 0 0 0
          0 0 0 0 0 0
          0 0 0 0 0 0
          0 0 0 0 0 0
          0 0 0 0 0 0
          0 0 0 0 0 0
          0 0 0 0 0 0
          0 0 0 0 0 0
          0 0 0 0 0 0
          0 0 0 0 0 0
          0 0 0 0 0 0
          0 0 0 0 0 0
          0 0 0 0 0 0
          0 0 0 0 0 0
          0 0 0 0 0 0
          0 0 0 0 0 0
          0 0 0 0 0 1
          0 1 0.5 0 0 2
          0.5 1 0 0 0 0
          0 0 0 0 0 0
          0 0 0 0 0 0
          0 0 0 0 0 0
          0 0 0 0 1 0.5
          0 1 1 0.5 1 0
          2 1.5 1.3333333333333333 1 1.5 0.75
          2 1.25 0 0.5 2 1
          1.5 0 2 1.75 2 2
          1.5 1.3333333333333333 2 2 2 2
        </DataArray>
        <DataArray type="Float64" Name="markers_mustrefine" format="ascii" RangeMin="0" RangeMax="2">
          0 0 0 2 0 0
          0 0 0 0 0 0
          0 0 0 0 2 0
          0 0 0 0 0 0
          0 0 2 0 0 0
          1 0 0 1 0 0
          1 0.5 0 2 0.5 0
          0 0 2 1 1 0
          0 0 2 0.5 0 2
          1 0 0 0 2 1
          1.5 0 0 0 0 0
          0 0 0 0 0 0
          0 0 0 0 0 0
          0 0 0 0 0 0
          0 0 0 0 0 0
          0 0 0 0 0 0
          0 0 0 0 0 0
          0 0 0 0 0 0
          0 0.5 0.25 1.5 1 0.5
          2 1.5 0 0.25 0.5 2
          1.5 2 0.5 0 0 0
          0 0.5 0.25 0 0 1
          0.5 0 0 0 0 1.5
          1.25 1 1.5 0.5 1 0.75
          2 1.75 2 2 0.3333333333333333 0.75
          1 2 2 2 1 2
          2 2 2 1 1 2
          2 2 1 0 0 1
          0.5 0 1 0.5 0 0
          0 2 1.5 1.5 0.5 0
          0 1 0.75 0 1 1
          0 0.25 0.5 2 1.75 2
          0.75 2 2 2 2 1
          1 2 2 2 1 2
          2 2 2 1 1.25 2
          2 2 1 0 0.25 0
          0.5 0 0 0 0 0
          0 0 0 0 0 0
          0 0 0 0 0 0
          0 0 0 0 0 0
          0 0 0 0 0 0
          0 0 0 0 0 0
          0 0 0 0 0 0
          0 0 0 0 0 0
          0 0 0 0 0 0
          0 0 0 0 0 0
          0 0 0 0 0 0
          0 0 0 0 0 0
          0 0 0 0 0 0
          0 0 0 0 0 0
          0 0 0 0 0 0
          0 0 0 0 0 0
          2 2 2 2 2 2
          2 2 2 2 2 2
          2 2 2 2 2 2
          2 2 2 2 2 2
          2 2 2 2 2 2
          2 2 2 2 2 2
          2 2 2 2 2 2
          2 2 2 2 2 2
          2 2 2 2 2 2
          2 2 2 2 2 2
          2 0 0 0 0 0
          0 0 0 0 0 0
          0 0 0 2 2 2
          2 2 2 2 2 2
          2 2 2 2 2 2
          2 2 2 2 2 2
          2 2 2 2 2 2
          2 2 2 2 2 2
        </DataArray>
        <DataArray type="Float64" Name="gradient_marker" format="ascii" RangeMin="0" RangeMax="1">
          1 1 1 1 1 1
          1 1 1 1 1 1
          0.75 1 1 1 1 1
          1 1 1 1 1 0.75
          1 1 0 1 1 1
          1 1 1 1 1 1
          1 1 0.75 1 1 0.8333333333333334
          1 0.75 1 1 1 1
          1 0.75 1 1 0.5 0.75
          0.875 0.6666666666666666 0.75 0.5 0.5 1
          1 1 1 1 1 1
          1 1 1 1 1 1
          1 1 1 1 1 1
          1 1 1 1 1 1
          1 1 1 1 1 1
          1 1 1 1 1 1
          1 1 1 1 1 1
          1 1 1 1 1 1
          1 1 1 1 1 1
          1 1 1 1 1 1
          1 1 1 1 1 1
          1 1 1 1 1 1
          1 0.75 0.875 1 0.75 1
          1 1 1 1 1 1
          1 1 1 1 1 1
          1 1 1 1 1 1
          1 1 1 1 1 1
          1 1 1 1 1 1
          1 1 1 1 0.5 0.75
          0.75 1 1 1 1 1
          0.75 1 0.875 0.5 1 0.75
          0.25 0.625 0.5 0.75 0.875 0.625
          1 1 1 0.75 0.875 1
          1 1 1 0.75 1 0.25
          0.5 0.5 1 0.875 0.75 0
          0.25 0.5 0.75 0.5 0.75 0.5
          1 1 1 1 1 1
          1 1 1 1 1 1
          1 1 1 1 1 1
          1 1 1 1 1 1
          1 1 1 1 1 1
          1 1 1 1 1 1
          1 1 1 1 1 1
          1 1 1 1 1 1
          1 1 1 1 1 1
          1 1 1 1 1 1
          0.875 1 0.75 1 0.75 1
          1 1 1 1 0 0
          0.25 0.25 0 0.25 0 0
          0 0 0.625 0.75 0.25 0.75
          1 1 0.5 1 1 1
          1 1 0.875 0.75 1 1
          0 0 0 0.25 0 0
          0 0 0 0 0 0
          0 0 0 0 0 0.25
          0.25 0.75 0.625 0.25 0.5 0.25
          0.375 0.75 0.5 0 0.25 0.6666666666666666
          0 0 0 0 0 0
          0 0 0 0 0 0
          0.125 0 0.25 0.375 0.75 0
          0 0 0.25 0 0 0
          0.375 0.875 0.25 0.75 0.5 1
          0.5 0.25 0.5 0.5 0.75 0
          0.25 0 0.25 0.5 0 0
          0.25 0 0 0 0 0
          0 0 0 0 0 0
          0 0 0 0 0 0
          0 0 0 0 0 0
          0 0 0 0 0 0
          0 0 0 0 0 0
        </DataArray>
        <DataArray type="Float64" Name="gradient_matprop_marker" format="ascii" RangeMin="0" RangeMax="0">
          0 0 0 0 0 0
          0 0 0 0 0 0
          0 0 0 0 0 0
          0 0 0 0 0 0
          0 0 0 0 0 0
          0 0 0 0 0 0
          0 0 0 0 0 0
          0 0 0 0 0 0
          0 0 0 0 0 0
          0 0 0 0 0 0
          0 0 0 0 0 0
          0 0 0 0 0 0
          0 0 0 0 0 0
          0 0 0 0 0 0
          0 0 0 0 0 0
          0 0 0 0 0 0
          0 0 0 0 0 0
          0 0 0 0 0 0
          0 0 0 0 0 0
          0 0 0 0 0 0
          0 0 0 0 0 0
          0 0 0 0 0 0
          0 0 0 0 0 0
          0 0 0 0 0 0
          0 0 0 0 0 0
          0 0 0 0 0 0
          0 0 0 0 0 0
          0 0 0 0 0 0
          0 0 0 0 0 0
          0 0 0 0 0 0
          0 0 0 0 0 0
          0 0 0 0 0 0
          0 0 0 0 0 0
          0 0 0 0 0 0
          0 0 0 0 0 0
          0 0 0 0 0 0
          0 0 0 0 0 0
          0 0 0 0 0 0
          0 0 0 0 0 0
          0 0 0 0 0 0
          0 0 0 0 0 0
          0 0 0 0 0 0
          0 0 0 0 0 0
          0 0 0 0 0 0
          0 0 0 0 0 0
          0 0 0 0 0 0
          0 0 0 0 0 0
          0 0 0 0 0 0
          0 0 0 0 0 0
          0 0 0 0 0 0
          0 0 0 0 0 0
          0 0 0 0 0 0
          0 0 0 0 0 0
          0 0 0 0 0 0
          0 0 0 0 0 0
          0 0 0 0 0 0
          0 0 0 0 0 0
          0 0 0 0 0 0
          0 0 0 0 0 0
          0 0 0 0 0 0
          0 0 0 0 0 0
          0 0 0 0 0 0
          0 0 0 0 0 0
          0 0 0 0 0 0
          0 0 0 0 0 0
          0 0 0 0 0 0
          0 0 0 0 0 0
          0 0 0 0 0 0
          0 0 0 0 0 0
          0 0 0 0 0 0
        </DataArray>
        <DataArray type="Float64" Name="combo" format="ascii" RangeMin="0" RangeMax="2">
          1 1 1 1 1 1
          1 1 1 1 1 1
          0.75 1 1 1 1 1
          1 1 1 1 1 0.75
          1 1 2 1 1 1
          1 1 1 1 1 1
          1 1 0.75 1 1 0.8333333333333334
          1 0.75 1 1 1 1
          1 0.75 1 1 0.5 0.75
          0.875 0.6666666666666666 0.75 0.5 0.5 1
          1 1 1 1 1 1
          1 1 1 1 1 1
          1 1 1 1 1 1
          1 1 1 1 1 1
          1 1 1 1 1 1
          1 1 1 1 1 1
          1 1 1 1 1 1
          1 1 1 1 1 1
          1 1 1 1 1 1
          1 1 1 1 1 1
          1 1 1 1 1 1
          1 1 1 1 1 1
          1 0.75 0.875 1 0.75 1
          1 1 1 1 1 1
          1 1 1 1 1 1
          1 1 1 1 1 1
          1 1 1 1 1 1
          1 1 1 1 1 1
          1 1 1 1 0.5 0.75
          0.75 1 1 1 1 1
          0.75 1 0.875 0.5 1 0.75
          0.25 0.625 0.5 0.75 0.875 0.625
          1 1 1 0.75 0.875 1
          1 1 1 0.75 1 0.25
          0.5 0.5 1 0.875 0.75 1
          0.25 0.5 0.75 0.5 0.75 0.5
          1 1 1 1 1 1
          1 1 1 1 1 1
          1 1 1 1 1 1
          1 1 1 1 1 1
          1 1 1 1 1 1
          1 1 1 1 1 1
          1 1 1 1 1 1
          1 1 1 1 1 1
          1 1 1 1 1 1
          1 1 1 1 1 1
          0.875 1 0.75 1 0.75 1
          1 1 1 1 0 0
          0.25 0.25 0 0.25 0 0
          0 0 0.625 0.75 0.25 0.75
          1 1 0.5 1 1 1
          1 1 0.875 0.75 1 1
          0 0 0 0.25 0 0
          0 0 0 0 0 0
          0 0 0 0 0 0.25
          0.25 0.75 0.625 0.25 0.5 0.25
          0.375 0.75 0.5 0 0.25 0.6666666666666666
          0 0 0 0 0 0
          0 0 0 0 0 1
          0.125 1 0.75 0.375 0.75 2
          0.5 1 0.25 0 0 0
          0.375 0.875 0.25 0.75 0.5 1
          0.5 0.25 0.5 0.5 0.75 0
          0.25 0 0.25 0.5 0 0
          0.25 0 0 0 1 0.5
          0 1 1 0.5 1 0
          2 1.5 1.3333333333333333 1 1.5 0.75
          2 1.25 0 0.5 2 1
          1.5 0 2 1.75 2 2
          1.5 1.3333333333333333 2 2 2 2
        </DataArray>
        <DataArray type="Float64" Name="dHdT" format="ascii" RangeMin="25.793879986143953" RangeMax="139.18867460500496">
          25.801910596595526 25.81363706521411 25.811684155900075 36.873512565190765 25.803295528472216 25.81160124550184
          25.798162541060037 25.815314578663866 27.136196435160457 26.290429630218362 25.812869884426462 26.7564590431697
          25.937664270841335 25.81839268583742 25.81640295933856 25.813301537057473 38.19934782414501 27.27977666063154
          26.844590162444 25.802645569525573 25.808769442312162 25.812344553278386 26.2847491873058 25.855422306873045
          25.812562653101043 25.812459598769895 139.18867460500496 26.307874948379247 25.808961160726017 26.774112892055157
          34.34933368888038 30.53413894613378 26.83286356839225 34.530253948493154 26.957340714126055 26.58971610769739
          34.33983456062958 30.5722667037446 26.368775499885302 34.16471177488704 30.44942311113858 26.206396482887897
          26.641541404312036 26.411282495048024 37.23987921369602 34.47418516595562 34.23727227951849 27.075419310858255
          26.52844575486111 26.21390686846597 33.88809365156903 30.02658677478835 26.069126072047723 33.91009900850034
          29.12375510551754 25.91655532839574 26.239948762387883 26.080729868985692 37.86992743986433 33.883810175280445
          33.765661076072945 26.582265936495006 25.804617124179398 25.80743932287055 25.8102620983067 25.810666978466926
          25.810261521561706 25.811071858627155 25.811300899097784 25.811343094194903 25.811385289292026 25.811409598057814
          25.811123655492946 25.811365334183666 25.810721791279956 25.81158152197981 25.8115392373398 25.811618297476777
          25.811321070309518 25.81031992706697 25.811496952699787 25.793879986143953 25.803881771176933 25.81040949701024
          26.027502954794898 25.970196435088695 25.926337891849382 25.971702472602033 25.802389778881007 25.920335465310913
          25.88960318198398 25.813883556209916 25.882479348610055 25.91590199040917 25.858870898657045 25.799699571917024
          25.80457795429583 25.8775220187136 25.85866676052751 25.809075200404482 25.843998076052337 25.833996411037397
          25.80945633667464 25.839811502341412 25.823994746022453 25.82648239600102 25.839722946416472 25.8094688974692
          25.852963496831922 34.26067229175823 33.21526506058149 37.74400323967652 36.598858929439885 33.308401383890136
          37.51371181503552 36.557381778438014 31.56719440279781 33.344150858937155 33.4308425765099 38.762535607913485
          37.78389646135203 37.53511201172849 34.456281981274365 27.624616734250235 27.396972211709567 27.542719391035863
          29.86810280197567 29.788049146072474 29.179343960093146 29.280891971223983 27.245047657569934 29.674443387705534
          29.050390224016894 26.9016784634048 27.93225710735181 28.25976505784095 27.7739042845997 34.26769449010416
          33.22429337485799 33.29001363826578 33.11460569672579 30.59923626481411 34.36935733127069 33.320191812304785