<?xml version="1.0"?>
<VTKFile type="UnstructuredGrid" version="0.1" byte_order="LittleEndian" header_type="UInt32" compressor="vtkZLibDataCompressor">
  <UnstructuredGrid>
    <Piece NumberOfPoints="463" NumberOfCells="243">
      <PointData>
        <DataArray type="Int32" Name="libmesh_node_id" format="ascii" RangeMin="262" RangeMax="4335">
          306 307 308 309 310 311
          328 329 330 344 345 346
          347 348 349 350 351 352
          353 368 369 370 371 372
          384 386 387 388 389 390
          391 392 393 395 410 411
          412 413 414 422 426 432
          436 453 454 455 456 457
          458 459 460 461 462 463
          464 465 466 493 543 545
          550 553 602 603 606 607
          608 609 612 613 801 802
          805 811 848 850 853 855
          3933 3934 3935 3938 3939 3940
          3941 3942 3943 3944 3945 3946
          3947 3948 3949 3950 3951 3952
          3979 3980 3985 3987 3988 3989
          3990 3991 3992 3993 3994 3995
          3996 3997 3998 3999 4000 4001
          4002 4003 4004 4005 4006 4007
          4008 4009 4010 4011 4012 4013
          4014 4015 4016 4017 4018 4019
          4020 4021 4022 4023 4024 4025
          4026 4027 4028 4029 4030 4031
          4032 4033 4068 4069 4070 4071
          4072 4073 4074 4075 4076 4077
          4078 4079 4080 4081 4082 4083
          4084 4085 4086 4087 4088 4089
          4090 4091 4092 4093 4094 4095
          4096 4097 4098 4099 4100 4101
          4102 4103 4104 4105 4106 4107
          4108 4109 4110 4111 4112 4113
          4114 4115 4116 4117 4118 4119
          4120 4121 4122 4123 4124 4125
          4126 4127 4128 4129 4130 4131
          4132 4133 4134 4135 4136 4137
          4138 4139 4140 4141 4142 4143
          4144 4145 4146 4147 4148 4149
          4150 4151 4152 4153 4154 4155
          4156 4157 4158 4159 4160 4161
          4162 4163 4164 4165 4166 4167
          4168 4169 4170 4171 4172 4173
          4174 4175 4176 4177 4178 4179
          4180 4181 4182 4183 4184 4185
          4186 4187 4188 4189 4190 4191
          4192 4193 4194 4195 4196 4197
          4198 4199 4200 4201 4202 4203
          4204 4205 4206 4207 4208 4209
          4210 4211 4212 4213 4214 4215
          4216 4217 4218 4219 4220 4221
          4222 4223 4224 4225 4226 4227
          4228 4229 4230 4231 4232 4233
          4234 4235 4236 4237 4238 4239
          4240 4241 4242 4243 4244 4245
          4246 4247 4248 4249 4250 4251
          4252 4253 4254 4255 4256 4257
          4258 4259 4260 4261 4262 4263
          4264 4265 4266 4267 4268 4269
          4270 4271 4272 4273 4274 4275
          4276 4277 4278 4279 4280 4281
          4282 4283 4284 4285 4286 4287
          4288 4289 4290 4291 4292 4293
          4294 4295 4296 4297 4298 4299
          4300 4301 4302 4303 4304 4305
          4306 4307 4308 4309 4310 4311
          4312 4313 4314 4315 4316 4317
          4318 4319 4320 4321 4322 4323
          4324 4325 4326 4327 4328 4329
          4330 4331 4332 4333 4334 4335
          262 264 265 263 304 305
          266 267 268 269 286 285
          327 287 288 302 303 301
          326 325 343 367 3929 3930
          3931 3932 3936 3937 3920 3921
          342 3927 3924 3925 3926 3977
          3978 3928 3982 3981 3983 3984
          385 3986 4060 4061 4064 4066
          409
        </DataArray>
        <DataArray type="Float64" Name="bounds" format="ascii" RangeMin="0" RangeMax="0">
          0 0 0 0 0 0
          0 0 0 0 0 0
          0 0 0 0 0 0
          0 0 0 0 0 0
          0 0 0 0 0 0
          0 0 0 0 0 0
          0 0 0 0 0 0
          0 0 0 0 0 0
          0 0 0 0 0 0
          0 0 0 0 0 0
          0 0 0 0 0 0
          0 0 0 0 0 0
          0 0 0 0 0 0
          0 0 0 0 0 0
          0 0 0 0 0 0
          0 0 0 0 0 0
          0 0 0 0 0 0
          0 0 0 0 0 0
          0 0 0 0 0 0
          0 0 0 0 0 0
          0 0 0 0 0 0
          0 0 0 0 0 0
          0 0 0 0 0 0
          0 0 0 0 0 0
          0 0 0 0 0 0
          0 0 0 0 0 0
          0 0 0 0 0 0
          0 0 0 0 0 0
          0 0 0 0 0 0
          0 0 0 0 0 0
          0 0 0 0 0 0
          0 0 0 0 0 0
          0 0 0 0 0 0
          0 0 0 0 0 0
          0 0 0 0 0 0
          0 0 0 0 0 0
          0 0 0 0 0 0
          0 0 0 0 0 0
          0 0 0 0 0 0
          0 0 0 0 0 0
          0 0 0 0 0 0
          0 0 0 0 0 0
          0 0 0 0 0 0
          0 0 0 0 0 0
          0 0 0 0 0 0
          0 0 0 0 0 0
          0 0 0 0 0 0
          0 0 0 0 0 0
          0 0 0 0 0 0
          0 0 0 0 0 0
          0 0 0 0 0 0
          0 0 0 0 0 0
          0 0 0 0 0 0
          0 0 0 0 0 0
          0 0 0 0 0 0
          0 0 0 0 0 0
          0 0 0 0 0 0
          0 0 0 0 0 0
          0 0 0 0 0 0
          0 0 0 0 0 0
          0 0 0 0 0 0
          0 0 0 0 0 0
          0 0 0 0 0 0
          0 0 0 0 0 0
          0 0 0 0 0 0
          0 0 0 0 0 0
          0 0 0 0 0 0
          0 0 0 0 0 0
          0 0 0 0 0 0
          0 0 0 0 0 0
          0 0 0 0 0 0
          0 0 0 0 0 0
          0 0 0 0 0 0
          0 0 0 0 0 0
          0 0 0 0 0 0
          0 0 0 0 0 0
          0 0 0 0 0 0
          0
        </DataArray>
        <DataArray type="Float64" Name="gradient_error" format="ascii" RangeMin="1.8120179042748804e-9" RangeMax="8.499346997553393e-7">
          2.3800338225230875e-8 3.304095593931314e-8 7.922468565342784e-9 1.3251134178582518e-8 6.351299337854433e-9 6.38530371374933e-9
          4.323629693101711e-8 2.0965908781242205e-8 9.824107000268586e-9 6.041701479361441e-7 3.272609444403694e-7 6.493562524347246e-7
          3.0264906774331956e-7 1.0522153976167967e-7 1.8114589342534906e-7 7.497257312308992e-8 1.229149443204439e-7 2.5030985401182487e-7
          6.06703701848946e-8 1.1921492221401805e-7 7.86554083152549e-8 4.2065417179594586e-8 1.9937049468182302e-8 9.774989092126352e-9
          5.464393405654523e-7 3.8081183953208273e-7 5.471151429713518e-7 8.750291218296792e-8 3.86695310991061e-7 1.4594249608437938e-7
          1.582787174250746e-7 2.9229567048227807e-7 1.0309752423181332e-7 3.7301393361906256e-8 4.003245414901819e-8 2.064887686280332e-8
          4.723539194135613e-9 4.2385294356205e-9 2.16907114238965e-9 1.768498658425463e-7 3.1867509177589994e-7 7.135687435026376e-8
          3.2556678147421266e-7 2.614207953148213e-7 2.0840494590692573e-7 1.3725462177080435e-7 2.9268660586505117e-7 5.211865774944023e-7
          3.4644107734460203e-7 2.6868566502849366e-7 1.1518606214150788e-7 1.1492320846737964e-7 1.5694623339555997e-7 4.5595380131641093e-7
          4.09813985518237e-7 3.263917325434818e-7 6.92486040471481e-8 3.1353829739685844e-7 3.823617038459353e-9 1.0254847932573136e-8
          2.495094309172482e-9 1.6686078826686918e-8 3.6986887928321804e-7 5.034761098256606e-7 4.911423420851011e-7 3.090983071499313e-7
          3.826427353028006e-7 3.5378486479479134e-7 4.979748252189051e-7 4.561871634556699e-7 5.5957820451711885e-9 3.126233881222888e-8
          1.852440933127711e-8 5.786479850325338e-9 9.159216951915972e-8 1.2099399928485885e-7 4.052673381886099e-8 1.50395829050558e-7
          8.006864131651192e-8 1.2311774394345245e-7 1.0204948424597614e-7 8.098122454849983e-8 4.4319853192875947e-7 3.794451581760937e-7
          4.862913664990617e-7 2.716380463894386e-7 9.23270971962261e-9 6.086993554649912e-9 6.706671683605134e-9 2.9651317463498365e-8
          3.141553207825046e-8 1.910976473248915e-8 1.9748326340032986e-8 2.9412773896772153e-9 6.8039973867278474e-9 9.845335216567603e-9
          5.992882750355835e-7 5.873358968332394e-7 6.027080914819308e-7 6.759898639954958e-7 6.490448484854167e-7 5.90977575340456e-7
          6.295911325065403e-7 4.339206144074936e-7 4.517971773271509e-7 6.290386434461116e-7 6.777111034630812e-7 5.929748468867744e-7
          5.171678924189448e-7 8.499346997553393e-7 7.042135967892238e-7 4.89516561517652e-7 6.014265634206676e-7 5.179513315832306e-7
          5.295056452103393e-7 5.32887482472102e-7 3.568602458865225e-7 4.6577816199435684e-7 3.648070929426171e-7 7.347072982575432e-8
          4.989506191246529e-7 3.4172333639689253e-7 5.746960781021912e-7 3.187221870527646e-7 3.0949257707331015e-7 3.6620082901656894e-7
          3.5022717107129057e-7 1.9059867652049697e-7 2.0412840944877054e-7 2.611653372298962e-7 2.4087488943302417e-7 2.4788430573447145e-7
          2.2429075881242292e-7 1.1022181786788441e-7 1.772514674856134e-7 2.1378849212309294e-7 1.7502382550925685e-7 8.834064149396147e-8
          1.6557649188380636e-7 2.446011273182474e-7 2.6806459505038144e-7 1.8620633698456314e-7 1.93892335061399e-7 2.0046793774743196e-7
          2.621033482083031e-7 1.3358321843617076e-7 1.1320224143777516e-7 1.4596098246476087e-7 1.0339774604732924e-7 1.3595130619815457e-7
          4.28739125540901e-8 4.618056908987227e-8 3.781941965638449e-8 1.787197234917466e-7 1.685048663489799e-7 4.9487225625654435e-8
          9.170581911738781e-8 1.2341416228039247e-7 7.79372130617072e-8 1.0886318982053725e-7 2.818364028483905e-8 2.929142588403845e-8
          2.0881405831970716e-8 1.5512250544339717e-7 1.3978916657936733e-7 3.039921148323785e-8 9.26510291482208e-9 1.930980479778349e-8
          2.1218057079825014e-8 3.726762684445443e-8 3.4141388682175772e-9 3.415863306867326e-9 4.176786607430274e-9 3.3171011244827945e-8
          5.522544889112538e-8 3.4175877455170745e-9 1.1023760345047039e-7 9.385896000514125e-8 8.857388425656489e-8 1.4618050232231843e-7
          1.4243265666459448e-7 1.2313980026257494e-7 1.2864471871592607e-7 9.795731005725868e-8 1.3975273698342565e-7 1.1947211500215919e-7
          7.74803165598121e-8 1.0384694386055543e-7 1.1110893510953372e-7 9.919149302089274e-8 3.19880944827202e-7 2.8704909851451796e-7
          2.678561146838857e-7 2.3041361909457328e-7 3.425215847799759e-7 4.1323372985549976e-7 4.154115062360731e-7 3.5403864824720236e-7
          3.2311544312875693e-7 2.9417367073335463e-7 3.6133327993531406e-7 4.091454559631189e-7 3.410806203019205e-7 3.657172431963033e-7
          1.2758545830688364e-7 1.3185365769453436e-7 1.547108944271943e-7 1.5665197261786643e-7 1.198835593298209e-7 1.487430034812185e-7
          7.236456373371524e-8 8.078018521352108e-8 9.051231548345249e-8 6.872485171739597e-8 1.8183633054750494e-7 1.8145028754119856e-7
          1.7760244763261607e-7 8.919580669332695e-8 1.0798274060645492e-7 1.3755180606421002e-7 5.002410104164782e-8 5.498733529192989e-8
          1.671208715219651e-7 5.995056954221197e-8 3.694979960024248e-8 3.023406195630075e-8 4.674433378861907e-8 8.669605915977028e-8
          7.687979003514201e-8 6.075116703170607e-8 6.93111755722928e-8 1.1399858136336209e-8 6.21147475056831e-8 4.634787162314883e-8
          2.3518324312359013e-8 4.462254402827015e-8 5.192629198481532e-8 3.058099574061457e-8 1.0469372334746829e-8 8.420818286073908e-9
          4.585567839484724e-8 3.209097172719933e-8 6.3722642374009885e-9 1.832626505955142e-8 6.281035626254968e-8 9.293627236823602e-8
          4.760747968412779e-8 7.51253319834406e-8 1.4639617154528966e-8 1.2728379782514466e-8 6.976111513894945e-9 1.2306218847392239e-7
          1.0264318428275344e-7 1.081714241049997e-8 3.2756109473924255e-8 5.600536121811552e-8 5.814111727314201e-9 4.895155668738587e-9
          7.925461296230681e-8 3.976199610162973e-9 1.1246404072756174e-7 1.1099834521317901e-7 1.0071518268617383e-7 9.525927190760182e-8
          9.5864715295747e-8 1.0328437797399589e-7 9.78952230897013e-8 1.284155632916806e-7 1.0128457655285948e-7 1.1466418446439882e-7
          1.0953264969879627e-7 1.1070404065224479e-7 1.0053117427180079e-7 1.2804379237593815e-7 7.926538986393226e-8 9.557041073481277e-8
          9.507526349322878e-8 1.0091280563711703e-7 1.1187543160569329e-7 1.4379759137008362e-7 1.4254517962828372e-7 1.115090589236403e-7
          1.2694435793851542e-7 1.573772002764516e-7 1.233956971486544e-7 1.3962073179337485e-7 1.4129276788648382e-7 1.4237965695339054e-7
          1.4874183023329512e-7 7.922052647719695e-8 1.1134353624874709e-7 1.2186426331029812e-7 1.434665460202972e-7 1.0874207028300166e-7
          1.0007111773396248e-7 1.056764285728333e-7 1.3439620575438627e-7 1.3589580033254577e-7 1.2365503792791584e-7 1.2162362687057308e-7
          9.269640538463532e-8 1.3922221453956222e-7 1.2705586999704248e-7 9.140016518492328e-8 1.114142755232859e-7 1.0885104798675988e-7
          1.1488952545452277e-7 1.8565522905255542e-7 1.7777890990985464e-7 1.7373654714449105e-7 1.9522355199982908e-7 1.6349334296691634e-7
          1.774118250964112e-7 1.745006858744553e-7 1.3755842405812718e-7 1.533196888677081e-7 1.5219337191238626e-7 1.686708679007118e-7
          1.5041909499047235e-7 1.561419139960905e-7 1.7142139925566345e-7 9.770502301984321e-8 1.3213869186096085e-7 1.4552232766884339e-7
          1.6186473300170864e-7 1.6728312973039897e-7 1.860057292254106e-7 1.8716152591437356e-7 2.0741891356444604e-7 1.8693869976110143e-7
          2.0407640902032486e-7 1.2630533173777695e-7 1.6369259675298116e-7 1.858060577386836e-7 1.943515780026527e-7 1.1442408987453618e-7
          1.1059815453241111e-7 1.2611207138690043e-7 1.2274262199308793e-7 1.2052042779440225e-7 1.323653423928495e-7 9.959953642062702e-8
          1.0902126845890887e-7 1.1095128616248109e-7 1.0703625016340937e-7 1.378000528992647e-7 1.3488708945376472e-7 1.442102569912967e-7
          1.1844300049719073e-7 1.24737792481766e-7 1.381111181325752e-7 1.2834065406201894e-7 1.436458196140035e-7 9.880073759709082e-8
          1.0707316546336986e-7 1.0681512240187588e-7 1.5148444378338446e-7 1.5895098516598807e-7 1.1534559332964893e-7 9.599504416141397e-8
          9.020174474604849e-8 1.4283420246315654e-7 1.2953193696255906e-7 8.879118894004902e-8 1.45781159452532e-7 1.3110234855918103e-7
          8.440844533068302e-8 1.1622967146196162e-7 1.1642353766582998e-7 2.235346895532563e-7 2.12147126058361e-7 2.2984395989344372e-7
          1.8939095916764155e-7 9.597569047420832e-8 8.774652541114301e-8 1.4709568822302183e-7 1.3102403305546582e-7 7.95173603480777e-8
          1.149523778879098e-7 2.6766020586453546e-7 2.4858852717568557e-7 2.127131488687231e-7 2.1362641873665552e-7 2.340397260979635e-7
          2.4677358600591903e-7 2.6614367991393974e-7 2.2313660529856693e-7 2.442801106955354e-7 1.6985681913169757e-7 2.1264732925827468e-7
          2.4601294821930505e-7 2.3621222064229164e-7 2.886370401764357e-7 3.0538576826917004e-7 2.679239119920525e-7 2.401693545956358e-7
          2.878960228867576e-7 2.919717983948912e-7 1.3122276113878104e-7 1.4867151197868582e-7 1.3307086313597517e-7 1.5285596863881734e-7
          9.579176990156895e-8 1.0552284681950932e-7 1.0266548970852433e-7 1.6612026281859062e-7 1.726410741416595e-7 1.152539237374497e-7
          1.3346767477317702e-7 1.5574260918434315e-7 8.78295999138561e-8 9.777189074648571e-8 1.7801754359550922e-7 1.0771418157911533e-7
          4.970502384510616e-8 2.1171800714117254e-8 1.3929215324107045e-8 3.0272967531987535e-8 2.2792754029536476e-7 1.4945594032317473e-7
          4.2775777467039935e-9 3.9571401244768305e-9 2.420613247683925e-9 2.1163155759794028e-9 6.686629934096837e-9 1.0840911218868909e-8
          7.756724002402786e-8 3.6367025022496674e-9 1.8120179042748804e-9 2.436987821317795e-7 1.736902884422882e-7 1.031356704462887e-7
          1.1374808202315121e-7 1.461625438341232e-7 2.7100084956632076e-7 1.5803110932592244e-7 9.361319921792674e-8 7.614325765849353e-8
          1.285345892652828e-7 1.073274902514643e-7 5.86733160990603e-8 8.612039123764581e-8 1.3837008253180452e-7 1.1696665031737647e-7
          4.2270903325282636e-7 3.676921595443739e-7 9.556321810294844e-8 4.0285675888026675e-7 3.551377047302815e-7 5.351625771220016e-7
          5.342210595982783e-7 2.7100478614137327e-7 4.1418915655880483e-7 3.9471547416037624e-7 4.78479149044021e-7 5.3905603682737e-7
          4.862658484182019e-7 4.5687933991979375e-7 1.2113943056463678e-7 1.5351550297893371e-7 5.403621147115303e-8 1.8589157539323068e-7
          5.822829634846692e-8
        </DataArray>
        <DataArray type="Float64" Name="gradient_matprop_error" format="ascii" RangeMin="0" RangeMax="0">
          0 0 0 0 0 0
          0 0 0 0 0 0
          0 0 0 0 0 0
          0 0 0 0 0 0
          0 0 0 0 0 0
          0 0 0 0 0 0
          0 0 0 0 0 0
          0 0 0 0 0 0
          0 0 0 0 0 0
          0 0 0 0 0 0
          0 0 0 0 0 0
          0 0 0 0 0 0
          0 0 0 0 0 0
          0 0 0 0 0 0
          0 0 0 0 0 0
          0 0 0 0 0 0
          0 0 0 0 0 0
          0 0 0 0 0 0
          0 0 0 0 0 0
          0 0 0 0 0 0
          0 0 0 0 0 0
          0 0 0 0 0 0
          0 0 0 0 0 0
          0 0 0 0 0 0
          0 0 0 0 0 0
          0 0 0 0 0 0
          0 0 0 0 0 0
          0 0 0 0 0 0
          0 0 0 0 0 0
          0 0 0 0 0 0
          0 0 0 0 0 0
          0 0 0 0 0 0
          0 0 0 0 0 0
          0 0 0 0 0 0
          0 0 0 0 0 0
          0 0 0 0 0 0
          0 0 0 0 0 0
          0 0 0 0 0 0
          0 0 0 0 0 0
          0 0 0 0 0 0
          0 0 0 0 0 0
          0 0 0 0 0 0
          0 0 0 0 0 0
          0 0 0 0 0 0
          0 0 0 0 0 0
          0 0 0 0 0 0
          0 0 0 0 0 0
          0 0 0 0 0 0
          0 0 0 0 0 0
          0 0 0 0 0 0
          0 0 0 0 0 0
          0 0 0 0 0 0
          0 0 0 0 0 0
          0 0 0 0 0 0
          0 0 0 0 0 0
          0 0 0 0 0 0
          0 0 0 0 0 0
          0 0 0 0 0 0
          0 0 0 0 0 0
          0 0 0 0 0 0
          0 0 0 0 0 0
          0 0 0 0 0 0
          0 0 0 0 0 0
          0 0 0 0 0 0
          0 0 0 0 0 0
          0 0 0 0 0 0
          0 0 0 0 0 0
          0 0 0 0 0 0
          0 0 0 0 0 0
          0 0 0 0 0 0
          0 0 0 0 0 0
          0 0 0 0 0 0
          0 0 0 0 0 0
          0 0 0 0 0 0
          0 0 0 0 0 0
          0 0 0 0 0 0
          0 0 0 0 0 0
          0
        </DataArray>
        <DataArray type="Float64" Name="initial_marker" format="ascii" RangeMin="0" RangeMax="0">
          0 0 0 0 0 0
          0 0 0 0 0 0
          0 0 0 0 0 0
          0 0 0 0 0 0
          0 0 0 0 0 0
          0 0 0 0 0 0
          0 0 0 0 0 0
          0 0 0 0 0 0
          0 0 0 0 0 0
          0 0 0 0 0 0
          0 0 0 0 0 0
          0 0 0 0 0 0
          0 0 0 0 0 0
          0 0 0 0 0 0
          0 0 0 0 0 0
          0 0 0 0 0 0
          0 0 0 0 0 0
          0 0 0 0 0 0
          0 0 0 0 0 0
          0 0 0 0 0 0
          0 0 0 0 0 0
          0 0 0 0 0 0
          0 0 0 0 0 0
          0 0 0 0 0 0
          0 0 0 0 0 0
          0 0 0 0 0 0
          0 0 0 0 0 0
          0 0 0 0 0 0
          0 0 0 0 0 0
          0 0 0 0 0 0
          0 0 0 0 0 0
          0 0 0 0 0 0
          0 0 0 0 0 0
          0 0 0 0 0 0
          0 0 0 0 0 0
          0 0 0 0 0 0
          0 0 0 0 0 0
          0 0 0 0 0 0
          0 0 0 0 0 0
          0 0 0 0 0 0
          0 0 0 0 0 0
          0 0 0 0 0 0
          0 0 0 0 0 0
          0 0 0 0 0 0
          0 0 0 0 0 0
          0 0 0 0 0 0
          0 0 0 0 0 0
          0 0 0 0 0 0
          0 0 0 0 0 0
          0 0 0 0 0 0
          0 0 0 0 0 0
          0 0 0 0 0 0
          0 0 0 0 0 0
          0 0 0 0 0 0
          0 0 0 0 0 0
          0 0 0 0 0 0
          0 0 0 0 0 0
          0 0 0 0 0 0
          0 0 0 0 0 0
          0 0 0 0 0 0
          0 0 0 0 0 0
          0 0 0 0 0 0
          0 0 0 0 0 0
          0 0 0 0 0 0
          0 0 0 0 0 0
          0 0 0 0 0 0
          0 0 0 0 0 0
          0 0 0 0 0 0
          0 0 0 0 0 0
          0 0 0 0 0 0
          0 0 0 0 0 0
          0 0 0 0 0 0
          0 0 0 0 0 0
          0 0 0 0 0 0
          0 0 0 0 0 0
          0 0 0 0 0 0
          0 0 0 0 0 0
          0
        </DataArray>
        <DataArray type="Float64" Name="markers_norefine" format="ascii" RangeMin="0" RangeMax="0">
          0 0 0 0 0 0
          0 0 0 0 0 0
          0 0 0 0 0 0
          0 0 0 0 0 0
          0 0 0 0 0 0
          0 0 0 0 0 0
          0 0 0 0 0 0
          0 0 0 0 0 0
          0 0 0 0 0 0
          0 0 0 0 0 0
          0 0 0 0 0 0
          0 0 0 0 0 0
          0 0 0 0 0 0
          0 0 0 0 0 0
          0 0 0 0 0 0
          0 0 0 0 0 0
          0 0 0 0 0 0
          0 0 0 0 0 0
          0 0 0 0 0 0
          0 0 0 0 0 0
          0 0 0 0 0 0
          0 0 0 0 0 0
          0 0 0 0 0 0
          0 0 0 0 0 0
          0 0 0 0 0 0
          0 0 0 0 0 0
          0 0 0 0 0 0
          0 0 0 0 0 0
          0 0 0 0 0 0
          0 0 0 0 0 0
          0 0 0 0 0 0
          0 0 0 0 0 0
          0 0 0 0 0 0
          0 0 0 0 0 0
          0 0 0 0 0 0
          0 0 0 0 0 0
          0 0 0 0 0 0
          0 0 0 0 0 0
          0 0 0 0 0 0
          0 0 0 0 0 0
          0 0 0 0 0 0
          0 0 0 0 0 0
          0 0 0 0 0 0
          0 0 0 0 0 0
          0 0 0 0 0 0
          0 0 0 0 0 0
          0 0 0 0 0 0
          0 0 0 0 0 0
          0 0 0 0 0 0
          0 0 0 0 0 0
          0 0 0 0 0 0
          0 0 0 0 0 0
          0 0 0 0 0 0
          0 0 0 0 0 0
          0 0 0 0 0 0
          0 0 0 0 0 0
          0 0 0 0 0 0
          0 0 0 0 0 0
          0 0 0 0 0 0
          0 0 0 0 0 0
          0 0 0 0 0 0
          0 0 0 0 0 0
          0 0 0 0 0 0
          0 0 0 0 0 0
          0 0 0 0 0 0
          0 0 0 0 0 0
          0 0 0 0 0 0
          0 0 0 0 0 0
          0 0 0 0 0 0
          0 0 0 0 0 0
          0 0 0 0 0 0
          0 0 0 0 0 0
          0 0 0 0 0 0
          0 0 0 0 0 0
          0 0 0 0 0 0
          0 0 0 0 0 0
          0 0 0 0 0 0
          0
        </DataArray>
        <DataArray type="Float64" Name="markers_mustrefine" format="ascii" RangeMin="0" RangeMax="0">
          0 0 0 0 0 0
          0 0 0 0 0 0
          0 0 0 0 0 0
          0 0 0 0 0 0
          0 0 0 0 0 0
          0 0 0 0 0 0
          0 0 0 0 0 0
          0 0 0 0 0 0
          0 0 0 0 0 0
          0 0 0 0 0 0
          0 0 0 0 0 0
          0 0 0 0 0 0
          0 0 0 0 0 0
          0 0 0 0 0 0
          0 0 0 0 0 0
          0 0 0 0 0 0
          0 0 0 0 0 0
          0 0 0 0 0 0
          0 0 0 0 0 0
          0 0 0 0 0 0
          0 0 0 0 0 0
          0 0 0 0 0 0
          0 0 0 0 0 0
          0 0 0 0 0 0
          0 0 0 0 0 0
          0 0 0 0 0 0
          0 0 0 0 0 0
          0 0 0 0 0 0
          0 0 0 0 0 0
          0 0 0 0 0 0
          0 0 0 0 0 0
          0 0 0 0 0 0
          0 0 0 0 0 0
          0 0 0 0 0 0
          0 0 0 0 0 0
          0 0 0 0 0 0
          0 0 0 0 0 0
          0 0 0 0 0 0
          0 0 0 0 0 0
          0 0 0 0 0 0
          0 0 0 0 0 0
          0 0 0 0 0 0
          0 0 0 0 0 0
          0 0 0 0 0 0
          0 0 0 0 0 0
          0 0 0 0 0 0
          0 0 0 0 0 0
          0 0 0 0 0 0
          0 0 0 0 0 0
          0 0 0 0 0 0
          0 0 0 0 0 0
          0 0 0 0 0 0
          0 0 0 0 0 0
          0 0 0 0 0 0
          0 0 0 0 0 0
          0 0 0 0 0 0
          0 0 0 0 0 0
          0 0 0 0 0 0
          0 0 0 0 0 0
          0 0 0 0 0 0
          0 0 0 0 0 0
          0 0 0 0 0 0
          0 0 0 0 0 0
          0 0 0 0 0 0
          0 0 0 0 0 0
          0 0 0 0 0 0
          0 0 0 0 0 0
          0 0 0 0 0 0
          0 0 0 0 0 0
          0 0 0 0 0 0
          0 0 0 0 0 0
          0 0 0 0 0 0
          0 0 0 0 0 0
          0 0 0 0 0 0
          0 0 0 0 0 0
          0 0 0 0 0 0
          0 0 0 0 0 0
          0
        </DataArray>
        <DataArray type="Float64" Name="gradient_marker" format="ascii" RangeMin="1" RangeMax="1">
          1 1 1 1 1 1
          1 1 1 1 1 1
          1 1 1 1 1 1
          1 1 1 1 1 1
          1 1 1 1 1 1
          1 1 1 1 1 1
          1 1 1 1 1 1
          1 1 1 1 1 1
          1 1 1 1 1 1
          1 1 1 1 1 1
          1 1 1 1 1 1
          1 1 1 1 1 1
          1 1 1 1 1 1
          1 1 1 1 1 1
          1 1 1 1 1 1
          1 1 1 1 1 1
          1 1 1 1 1 1
          1 1 1 1 1 1
          1 1 1 1 1 1
          1 1 1 1 1 1
          1 1 1 1 1 1
          1 1 1 1 1 1
          1 1 1 1 1 1
          1 1 1 1 1 1
          1 1 1 1 1 1
          1 1 1 1 1 1
          1 1 1 1 1 1
          1 1 1 1 1 1
          1 1 1 1 1 1
          1 1 1 1 1 1
          1 1 1 1 1 1
          1 1 1 1 1 1
          1 1 1 1 1 1
          1 1 1 1 1 1
          1 1 1 1 1 1
          1 1 1 1 1 1
          1 1 1 1 1 1
          1 1 1 1 1 1
          1 1 1 1 1 1
          1 1 1 1 1 1
          1 1 1 1 1 1
          1 1 1 1 1 1
          1 1 1 1 1 1
          1 1 1 1 1 1
          1 1 1 1 1 1
          1 1 1 1 1 1
          1 1 1 1 1 1
          1 1 1 1 1 1
          1 1 1 1 1 1
          1 1 1 1 1 1
          1 1 1 1 1 1
          1 1 1 1 1 1
          1 1 1 1 1 1
          1 1 1 1 1 1
          1 1 1 1 1 1
          1 1 1 1 1 1
          1 1 1 1 1 1
          1 1 1 1 1 1
          1 1 1 1 1 1
          1 1 1 1 1 1
          1 1 1 1 1 1
          1 1 1 1 1 1
          1 1 1 1 1 1
          1 1 1 1 1 1
          1 1 1 1 1 1
          1 1 1 1 1 1
          1 1 1 1 1 1
          1 1 1 1 1 1
          1 1 1 1 1 1
          1 1 1 1 1 1
          1 1 1 1 1 1
          1 1 1 1 1 1
          1 1 1 1 1 1
          1 1 1 1 1 1
          1 1 1 1 1 1
          1 1 1 1 1 1
          1 1 1 1 1 1
          1
        </DataArray>
        <DataArray type="Float64" Name="gradient_matprop_marker" format="ascii" RangeMin="0" RangeMax="0">
          0 0 0 0 0 0
          0 0 0 0 0 0
          0 0 0 0 0 0
          0 0 0 0 0 0
          0 0 0 0 0 0
          0 0 0 0 0 0
          0 0 0 0 0 0
          0 0 0 0 0 0
          0 0 0 0 0 0
          0 0 0 0 0 0
          0 0 0 0 0 0
          0 0 0 0 0 0
          0 0 0 0 0 0
          0 0 0 0 0 0
          0 0 0 0 0 0
          0 0 0 0 0 0
          0 0 0 0 0 0
          0 0 0 0 0 0
          0 0 0 0 0 0
          0 0 0 0 0 0
          0 0 0 0 0 0
          0 0 0 0 0 0
          0 0 0 0 0 0
          0 0 0 0 0 0
          0 0 0 0 0 0
          0 0 0 0 0 0
          0 0 0 0 0 0
          0 0 0 0 0 0
          0 0 0 0 0 0
          0 0 0 0 0 0
          0 0 0 0 0 0
          0 0 0 0 0 0
          0 0 0 0 0 0
          0 0 0 0 0 0
          0 0 0 0 0 0
          0 0 0 0 0 0
          0 0 0 0 0 0
          0 0 0 0 0 0
          0 0 0 0 0 0
          0 0 0 0 0 0
          0 0 0 0 0 0
          0 0 0 0 0 0
          0 0 0 0 0 0
          0 0 0 0 0 0
          0 0 0 0 0 0
          0 0 0 0 0 0
          0 0 0 0 0 0
          0 0 0 0 0 0
          0 0 0 0 0 0
          0 0 0 0 0 0
          0 0 0 0 0 0
          0 0 0 0 0 0
          0 0 0 0 0 0
          0 0 0 0 0 0
          0 0 0 0 0 0
          0 0 0 0 0 0
          0 0 0 0 0 0
          0 0 0 0 0 0
          0 0 0 0 0 0
          0 0 0 0 0 0
          0 0 0 0 0 0
          0 0 0 0 0 0
          0 0 0 0 0 0
          0 0 0 0 0 0
          0 0 0 0 0 0
          0 0 0 0 0 0
          0 0 0 0 0 0
          0 0 0 0 0 0
          0 0 0 0 0 0
          0 0 0 0 0 0
          0 0 0 0 0 0
          0 0 0 0 0 0
          0 0 0 0 0 0
          0 0 0 0 0 0
          0 0 0 0 0 0
          0 0 0 0 0 0
          0 0 0 0 0 0
          0
        </DataArray>
        <DataArray type="Float64" Name="combo" format="ascii" RangeMin="1" RangeMax="1">
          1 1 1 1 1 1
          1 1 1 1 1 1
          1 1 1 1 1 1
          1 1 1 1 1 1
          1 1 1 1 1 1
          1 1 1 1 1 1
          1 1 1 1 1 1
          1 1 1 1 1 1
          1 1 1 1 1 1
          1 1 1 1 1 1
          1 1 1 1 1 1
          1 1 1 1 1 1
          1 1 1 1 1 1
          1 1 1 1 1 1
          1 1 1 1 1 1
          1 1 1 1 1 1
          1 1 1 1 1 1
          1 1 1 1 1 1
          1 1 1 1 1 1
          1 1 1 1 1 1
          1 1 1 1 1 1
          1 1 1 1 1 1
          1 1 1 1 1 1
          1 1 1 1 1 1
          1 1 1 1 1 1
          1 1 1 1 1 1
          1 1 1 1 1 1
          1 1 1 1 1 1
          1 1 1 1 1 1
          1 1 1 1 1 1
          1 1 1 1 1 1
          1 1 1 1 1 1
          1 1 1 1 1 1
          1 1 1 1 1 1
          1 1 1 1 1 1
          1 1 1 1 1 1
          1 1 1 1 1 1
          1 1 1 1 1 1
          1 1 1 1 1 1
          1 1 1 1 1 1
          1 1 1 1 1 1
          1 1 1 1 1 1
          1 1 1 1 1 1
          1 1 1 1 1 1
          1 1 1 1 1 1
          1 1 1 1 1 1
          1 1 1 1 1 1
          1 1 1 1 1 1
          1 1 1 1 1 1
          1 1 1 1 1 1
          1 1 1 1 1 1
          1 1 1 1 1 1
          1 1 1 1 1 1
          1 1 1 1 1 1
          1 1 1 1 1 1
          1 1 1 1 1 1
          1 1 1 1 1 1
          1 1 1 1 1 1
          1 1 1 1 1 1
          1 1 1 1 1 1
          1 1 1 1 1 1
          1 1 1 1 1 1
          1 1 1 1 1 1
          1 1 1 1 1 1
          1 1 1 1 1 1
          1 1 1 1 1 1
          1 1 1 1 1 1
          1 1 1 1 1 1
          1 1 1 1 1 1
          1 1 1 1 1 1
          1 1 1 1 1 1
          1 1 1 1 1 1
          1 1 1 1 1 1
          1 1 1 1 1 1
          1 1 1 1 1 1
          1 1 1 1 1 1
          1 1 1 1 1 1
          1
        </DataArray>
        <DataArray type="Float64" Name="dHdT" format="ascii" RangeMin="25.80296201639785" RangeMax="32.382873910945165">
          25.807593375026567 25.81342212964287 25.810965527707474 25.813282562745638 25.814324798257246 25.813078841032493
          25.815660560182803 25.81407732423547 25.81331849540991 26.332946772252114 26.003317457228064 26.311339143426096
          25.97203686682303 26.099271851825087 25.926659462442707 25.9887172445315 25.880624299821243 25.955932859538574
          25.840602837789994 25.83317520339036 25.823954766030937 25.81796682713421 25.815048233619798 25.813927370332785
          27.468592944445113 27.88785456535473 26.44939891032864 28.635727414705567 26.360511024726343 29.403621956322233
          26.209660103104138 30.87142393360536 26.069707778887427 25.90337331686625 25.844211300237497 25.82614018336355
          25.814791743105022 25.81211325920463 25.813035250365296 25.9062288563559 26.525039980957246 25.87559828112555
          28.024123435017028 26.00131852730017 25.93902399339673 25.942030039968202 27.927753889404865 27.835624161855073