<?xml version="1.0"?>
<VTKFile type="UnstructuredGrid" version="0.1" byte_order="LittleEndian" header_type="UInt32" compressor="vtkZLibDataCompressor">
  <UnstructuredGrid>
    <Piece NumberOfPoints="523" NumberOfCells="242">
      <PointData>
        <DataArray type="Int32" Name="libmesh_node_id" format="ascii" RangeMin="270" RangeMax="3854">
          270 271 272 273 274 275
          289 290 291 312 313 314
          315 316 317 318 319 320
          321 331 332 333 334 335
          355 356 357 358 359 360
          361 362 363 373 374 375
          376 377 398 399 400 401
          402 403 404 405 416 417
          418 419 427 439 440 442
          443 444 445 446 447 448
          451 452 467 468 469 470
          471 472 473 474 475 476
          477 478 479 480 528 529
          531 532 533 534 535 536
          537 540 541 556 557 558
          559 560 561 562 563 564
          565 582 583 586 588 590
          591 592 593 594 595 596
          597 598 599 614 615 616
          617 618 619 620 621 622
          623 624 625 626 627 775
          776 777 778 779 780 781
          782 783 784 785 786 787
          788 791 792 795 797 806
          807 808 812 813 814 815
          816 817 818 819 820 821
          822 861 862 863 866 867
          868 869 870 871 872 873
          874 875 876 970 979 980
          981 984 985 986 987 988
          989 990 991 992 993 994
          995 996 997 998 999 1000
          1001 1002 1003 1004 1005 1006
          1007 1008 1009 1010 1011 1012
          1013 1014 1015 1016 1017 1018
          1473 1517 1518 1519 1522 1525
          1529 1530 1532 1535 1537 1538
          1539 1540 1541 1542 1543 1544
          1545 1546 1547 1548 1549 1550
          1553 1554 1557 1558 1559 1560
          1588 1590 1591 1592 1593 1594
          1654 1655 1656 1657 1658 1659
          1660 1661 1662 1663 1664 1666
          1667 1668 1669 1670 1671 1672
          1673 1674 1675 1676 1677 1678
          1679 1680 1692 1693 1694 1697
          1783 1784 1787 1788 1789 1790
          1791 1792 1800 1801 1802 1803
          1804 1805 1806 1807 1808 1809
          3705 3706 3707 3708 3709 3710
          3711 3712 3713 3714 3715 3716
          3717 3718 3726 3727 3728 3729
          3730 3731 3732 3733 3734 3735
          3746 3747 3748 3749 3750 3751
          3752 3753 3754 3755 3763 3764
          3765 3766 3767 3768 3769 3770
          3771 3772 3773 3774 3775 3776
          3777 3778 3779 3780 3781 3782
          3783 3784 3785 3786 3787 3788
          3789 3790 3791 3792 3793 3794
          3795 3796 3797 3798 3799 3800
          3801 3802 3803 3804 3805 3806
          3807 3808 3809 3810 3821 3822
          3823 3824 3825 3826 3827 3828
          3829 3830 3832 3834 3836 3838
          3839 3840 3841 3842 3843 3844
          3845 3846 3847 3848 3849 3850
          3851 3852 3853 3854 523 450
          768 789 769 770 790 793
          794 796 798 441 518 975
          976 977 978 982 983 762
          765 530 1461 1469 1462 1470
          1474 1465 1471 1472 1475 1513
          1514 1515 1516 1520 1521 1523
          1524 1526 1551 1555 1552 1556
          960 1589 971 974 753 1454
          1665 1477 1563 1688 1564 1689
          1567 1690 1691 1569 1695 1696
          1777 1778 1785 1786 1779 1782
          1445 1449 1446 1435 1452 1509
          539 3683 3697 3698 3700 1527
          3703 1528 3693 3720 3722 3724
          1531 3738 3739 3741 1533 3744
          1534 3757 3759 3761 1536 3813
          3814 3817 3819 3725 3818 3758
          3831 3820 3833 3762 3835 3837
          1507 3641 3653 3665 3667 1511
          3669
        </DataArray>
        <DataArray type="Float64" Name="bounds" format="ascii" RangeMin="0" RangeMax="0">
          0 0 0 0 0 0
          0 0 0 0 0 0
          0 0 0 0 0 0
          0 0 0 0 0 0
          0 0 0 0 0 0
          0 0 0 0 0 0
          0 0 0 0 0 0
          0 0 0 0 0 0
          0 0 0 0 0 0
          0 0 0 0 0 0
          0 0 0 0 0 0
          0 0 0 0 0 0
          0 0 0 0 0 0
          0 0 0 0 0 0
          0 0 0 0 0 0
          0 0 0 0 0 0
          0 0 0 0 0 0
          0 0 0 0 0 0
          0 0 0 0 0 0
          0 0 0 0 0 0
          0 0 0 0 0 0
          0 0 0 0 0 0
          0 0 0 0 0 0
          0 0 0 0 0 0
          0 0 0 0 0 0
          0 0 0 0 0 0
          0 0 0 0 0 0
          0 0 0 0 0 0
          0 0 0 0 0 0
          0 0 0 0 0 0
          0 0 0 0 0 0
          0 0 0 0 0 0
          0 0 0 0 0 0
          0 0 0 0 0 0
          0 0 0 0 0 0
          0 0 0 0 0 0
          0 0 0 0 0 0
          0 0 0 0 0 0
          0 0 0 0 0 0
          0 0 0 0 0 0
          0 0 0 0 0 0
          0 0 0 0 0 0
          0 0 0 0 0 0
          0 0 0 0 0 0
          0 0 0 0 0 0
          0 0 0 0 0 0
          0 0 0 0 0 0
          0 0 0 0 0 0
          0 0 0 0 0 0
          0 0 0 0 0 0
          0 0 0 0 0 0
          0 0 0 0 0 0
          0 0 0 0 0 0
          0 0 0 0 0 0
          0 0 0 0 0 0
          0 0 0 0 0 0
          0 0 0 0 0 0
          0 0 0 0 0 0
          0 0 0 0 0 0
          0 0 0 0 0 0
          0 0 0 0 0 0
          0 0 0 0 0 0
          0 0 0 0 0 0
          0 0 0 0 0 0
          0 0 0 0 0 0
          0 0 0 0 0 0
          0 0 0 0 0 0
          0 0 0 0 0 0
          0 0 0 0 0 0
          0 0 0 0 0 0
          0 0 0 0 0 0
          0 0 0 0 0 0
          0 0 0 0 0 0
          0 0 0 0 0 0
          0 0 0 0 0 0
          0 0 0 0 0 0
          0 0 0 0 0 0
          0 0 0 0 0 0
          0 0 0 0 0 0
          0 0 0 0 0 0
          0 0 0 0 0 0
          0 0 0 0 0 0
          0 0 0 0 0 0
          0 0 0 0 0 0
          0 0 0 0 0 0
          0 0 0 0 0 0
          0 0 0 0 0 0
          0
        </DataArray>
        <DataArray type="Float64" Name="gradient_error" format="ascii" RangeMin="5.712060378486078e-13" RangeMax="1.0677082957462964e-8">
          1.1290842693402546e-9 9.805515305115935e-10 5.605979135465279e-10 5.367203800708416e-10 4.546400337687199e-10 4.591663112160702e-10
          8.320187916829324e-10 5.128428465951554e-10 4.6369258866342046e-10 1.3549539366061465e-9 2.427106555296266e-9 5.678594614947082e-10
          8.37638100600144e-10 5.446037787884021e-10 5.298295927202538e-10 4.590867897536229e-10 4.5409031406737246e-10 4.4737267538192216e-10
          4.437786633082976e-10 3.7110697611736293e-9 1.0833050542368017e-9 5.150554066521057e-10 4.4909383838112207e-10 4.401846512346731e-10
          1.0677082957462964e-8 3.849002391690765e-10 9.72422734322073e-10 3.6834396444443435e-10 4.3968338492906426e-10 2.986982577937004e-10
          2.991774691690603e-10 2.839962509960431e-10 2.840180096232484e-10 3.4440908123244598e-9 1.0247505586541058e-9 5.043887234388686e-10
          2.9965668054442027e-10 2.840397682504536e-10 3.785871036823919e-12 4.549697865424982e-10 9.76976414137114e-11 2.862374293556327e-10
          1.5033946094727612e-10 1.6060221672500326e-10 1.4451485469514144e-10 1.5038420978337488e-10 4.3594621408074997e-10 4.518998843704134e-10
          1.7086497250273038e-10 1.562535648716083e-10 1.0151809442818201e-8 7.35754514452917e-10 2.2024137257793878e-9 2.791671852034981e-9
          5.341826782628621e-10 1.3512268730178136e-10 4.1943652512785584e-10 2.805426432820749e-9 2.5074054024087796e-9 6.175530439891846e-10
          1.6003866164528147e-10 1.1637114226117025e-9 1.405611180542295e-10 1.3322621011864976e-10 8.735756298490891e-11 1.1695165555526848e-10
          5.975000482994651e-11 4.28565282541536e-11 6.092927669254952e-11 1.2589130218307002e-10 1.441806102194632e-10 7.900202513094544e-11
          2.283074687197864e-11 1.0030152923712636e-10 6.210854855515253e-11 1.624699182558564e-10 3.920533326732735e-10 3.656306526487247e-10
          1.253764298564106e-10 1.524835357071204e-10 1.9306807996209336e-11 6.844572516808083e-11 4.2105328595272917e-10 4.5919609411310176e-10
          1.6960461735100935e-10 2.2591652585155672e-11 5.402479161504671e-10 6.765531458142983e-10 7.638601460408105e-10 3.9626226267877563e-10
          4.080295803894154e-10 2.63044996572053e-10 2.3057937390684655e-10 1.6708380920453879e-10 8.511671462673227e-10 4.1979689810005514e-10
          1.981137512416401e-10 1.5428663475830179e-9 1.8926338249628706e-9 8.032812383798652e-10 2.2424013023427236e-9 4.3564957781220905e-10
          5.325940435209944e-10 2.3382809209374616e-10 2.3420752687548976e-10 2.9418124185698393e-10 3.130465510622926e-10 1.7969547095429193e-10
          6.295385092297794e-10 2.3458696165723337e-10 3.3191186026760126e-10 4.0450453392608395e-11 4.345615094129811e-11 2.263088012605022e-11
          3.5935579951269086e-11 3.380707601549433e-11 1.7753539159554937e-11 2.7769873738928644e-11 4.646184848998782e-11 4.8854961791192923e-11
          3.7786208318302345e-11 4.087672203820261e-12 2.8058075627543565e-11 2.1732671462362956e-11 5.1248075092398024e-11 2.2360809540429925e-11
          2.482748930680721e-11 5.751766127563293e-12 7.2675117991741016e-12 1.4080506082147737e-11 3.4531103533515087e-12 6.651043703507305e-12
          3.322632940501283e-11 2.0429334029195418e-11 1.4140233235251326e-11 3.9984971962731636e-12 3.224648212891402e-12 3.5449578887672555e-12
          9.552772533386801e-12 1.3512528925782875e-10 1.1109814760633328e-10 1.362856190886251e-10 8.677094432644634e-11 8.718664092228725e-10
          1.9001191275985337e-9 1.6147360006931657e-9 1.3293528737877977e-9 2.7993683550693343e-10 2.886466596740936e-10 5.295924440409159e-10
          5.076949437181372e-10 1.5922481977939852e-10 2.3568606485461746e-10 2.860448488216605e-10 2.973564838412539e-10 4.857974433953584e-10
          3.364036327887036e-10 6.982249117339418e-10 1.8426492085630186e-9 1.5659940045742417e-9 1.2893388005854646e-9 2.9103348270751866e-10
          2.781417252879009e-10 4.844098634306847e-10 4.3225521971297264e-10 1.5281130087532647e-10 1.8437141356590537e-10 2.002005850918138e-10
          2.652499678682832e-10 3.8010057599526065e-10 2.1602975661772226e-10 3.9890031347061485e-10 9.721433396049108e-11 7.265536345172076e-11
          8.856784081869762e-11 1.1021829759407724e-10 3.805513340669162e-11 3.427329185509458e-11 3.847862351337564e-11 3.6512290793059615e-11
          2.757731683209893e-11 2.3892388104859983e-11 2.520151912753439e-11 3.049145030349754e-11 3.4545958072743594e-11 2.651065015020879e-11
          4.2995186558728935e-11 3.886853126155987e-11 3.0361060184223375e-11 2.9861187345752075e-11 4.08939670712879e-11 4.838520979515547e-11
          3.667381668745574e-11 3.449612299388521e-11 2.9361314507280775e-11 5.5876452519023043e-11 4.12981574736575e-12 4.883377093261394e-12
          3.687449755686471e-12 4.310680521152667e-12 3.962971573628875e-12 2.4687009473670416e-12 3.2442209120964883e-12 5.636938439157038e-12
          4.933911286618862e-12 4.019740876825936e-12 3.2450837640071936e-12 3.73798394904394e-12 2.5254702505641023e-12 4.2308841340806856e-12
          4.204239932932522e-11 5.651720280207257e-12 7.737235424754037e-12 7.225417928258095e-12 7.280238770184429e-12 5.212466362704788e-12
          3.0806789939219293e-12 2.6267483917476845e-12 2.6394740010938116e-12 3.3918771615612153e-12 2.5403217019953103e-12 2.4080962841612083e-12
          1.7707259256466688e-12 1.6428946071686953e-12 2.1109475600274935e-12 2.4913887261232867e-12 2.3789076473307543e-12 2.5324500747619495e-12
          2.4831300170792898e-12 2.167719782745274e-12 2.0835812415380564e-12 1.862427607162694e-12 2.5846991122880442e-12 2.7241101848964473e-12
          6.009725577503732e-12 4.880087932875996e-12 7.063519913239421e-12 5.779509636180109e-12 5.287338430685533e-12 9.664945674509584e-12
          1.555736056277055e-10 1.0463149220019876e-10 1.19119279789504e-10 1.3205686594714967e-10 1.71947575299346e-10 1.1621529703441597e-10
          2.9566294175701585e-12 2.734296721403382e-12 3.2880161853588953e-12 3.059596565893706e-12 2.250399411138357e-12 2.0873870514854677e-12
          2.1495891744099398e-12 2.511964025236605e-12 2.8311769464285176e-12 2.211791297334412e-12 9.377259859123325e-12 7.251462961067319e-12
          8.148775437437309e-12 8.175434439446911e-12 9.978599222584076e-12 7.884035427845639e-12 2.7062329096912888e-12 2.996362121302556e-12
          2.097985550170681e-12 2.075445153417692e-12 2.313527637348583e-12 2.5278132970069837e-12 2.0818773098830567e-12 3.286491332913823e-12
          2.0529047566647026e-12 2.742098956665385e-12 3.378594748372077e-11 3.513436004168917e-11 1.975216523279806e-11 3.648277259965757e-11
          2.6200948337190175e-11 2.541137306773831e-11 1.8510353393678395e-11 2.1333173481886424e-11 2.247355001413228e-11 2.4621797798286442e-11
          3.141685767807126e-11 2.3613926546378135e-11 1.1282928972138817e-11 1.1531269293355517e-11 9.348064783247502e-12 8.5674785469482e-12
          1.0812210598203301e-11 1.0815733485187159e-11 9.143192613182378e-12 1.1779609614572217e-11 7.7868923106489e-12 1.0819256372171016e-11
          3.409585977897861e-12 3.2871970749476072e-12 4.298436774743722e-12 4.1360883492935016e-12 1.7874571678937581e-12 2.2524978215536702e-12
          2.1721221005244174e-12 2.9683911503695247e-12 3.699009425663717e-12 1.952445851288173e-12 6.037144899157121e-12 5.794143621284572e-12
          2.960274155494542e-12 5.127310023987647e-12 2.554118428448106e-12 3.118621103718296e-12 1.3891121057912311e-12 1.6342344234858416e-12
          2.0991720862685658e-12 2.4948006217348166e-12 1.5002110827799224e-12 4.229440393134906e-12 2.1513480147591375e-12 3.2702538988742326e-12
          7.373471702957528e-12 7.073386032345008e-12 3.751713203714187e-12 3.601061315096223e-12 6.2436065080818004e-12 3.1831496957904395e-12
          7.859941179190394e-12 7.543464445760268e-12 3.8383613523584395e-12 6.662220669146215e-12 5.114001055084047e-12 2.587975312755681e-12
          3.89291725991578e-12 2.2558513377587705e-12 5.4522451028867665e-12 2.75261133717354e-12 4.1357558792841645e-12 9.809243585442055e-13
          9.573420239867716e-13 1.1723665403727736e-12 1.1373900275438767e-12 7.544165387556506e-13 8.387937858309635e-13 8.19765736311414e-13
          8.723169617542368e-13 1.0269563117691756e-12 7.42741871628115e-13 1.5662532573148874e-12 1.5088469755170764e-12 1.015278295918553e-12
          1.3457412564806735e-12 7.10639087411438e-13 8.405312937545549e-13 5.712060378486078e-13 6.328278347649735e-13 6.104039407437404e-13
          7.295634786857384e-13 5.809096130655817e-13 1.0980340694394125e-12 7.847706379644494e-13 9.560263196367423e-13 1.889536575819161e-12
          1.8162503673163563e-12 1.2647023055968458e-12 1.2185500722639518e-12 1.6099238790622863e-12 1.0789558131488482e-12 2.0103753592098886e-12
          1.9322448146995417e-12 1.291658486557975e-12 1.7099609069473395e-12 1.2999997606615283e-12 9.199040248037868e-13 1.1231159220120356e-12
          8.542942622409355e-13 1.3743548825419035e-12 9.647164053600141e-13 1.1829022213783234e-12 1.6689432254512204e-12 1.8997905767236225e-12
          1.3725855135066577e-12 1.456192514284044e-12 1.4758050065198258e-12 1.6229431899300526e-12 1.322398828009327e-12 2.355913235391915e-12
          1.6898487811035077e-12 1.9267217547419077e-12 5.186114328942913e-12 4.089513344498095e-12 5.4898322175407125e-12 2.7330220754693398e-12
          1.9419714847660583e-12 2.1942990868441014e-12 1.6365102770732886e-12 2.884855608150874e-12 2.044044922386532e-12 2.3052360375446663e-12
          4.0595532109296205e-12 4.264259738468622e-12 3.3516753877359128e-12 3.3305499687377962e-12 3.374419128396592e-12 3.4554433834613323e-12
          2.831550426526153e-12 4.468966266007623e-12 3.3094245497396793e-12 3.5364676385260723e-12 1.8688913769829188e-9 2.53588287306325e-9
          1.804416732087751e-10 2.535148572463122e-10 1.0537594825866061e-10 5.64407181770402e-11 2.4875268820435755e-10 2.6793350775718445e-10
          3.799538323142942e-10 2.6028643517609815e-10 4.3587893376576196e-10 1.914338219427835e-9 1.4978202069089346e-9 2.826842344889363e-10
          2.5813701116858164e-10 1.699736256462491e-10 1.7391537046903137e-10 2.0634006657824418e-10 2.146350256322528e-10 1.1352673136359949e-10
          5.62845977910377e-11 4.025391959520088e-11 1.1108026123438054e-10 5.2176399361422174e-11 8.425021700228057e-11 4.743664927480315e-11
          5.8206153242158133e-11 8.996708916789075e-11 2.3287802949523723e-11 2.3139638776480585e-11 2.5296256083700283e-11 1.4420382968311892e-11
          1.3660430258608402e-11 1.1637229723229282e-11 1.0914314362538053e-11 1.1739781413852325e-11 1.2062895960049977e-11 8.186762610815782e-12
          7.318389756462991e-12 8.256995918355207e-12 1.2148992419847883e-11 1.3482686865188451e-11 7.822534853562933e-12 1.201062650690489e-11
          5.849119740083988e-10 2.1112920894423304e-10 6.073187178288333e-10 4.441405446401515e-10 6.897391805149524e-10 2.062809192186194e-11
          1.1966154694045405e-11 1.7560821826586452e-11 1.0698650080075684e-10 4.653477825590964e-11 9.045963908294155e-11 5.129313737003711e-11
          7.822018978942508e-11 2.3453397550180027e-11 2.469274808143997e-11 7.432056105633603e-11 5.605149648416457e-11 2.5932098612699912e-11
          5.476486980636547e-11 8.241118905919799e-11 3.529270543041792e-11 3.335478155424459e-11 7.629012778802103e-11 7.295067538924809e-11
          3.9123953629824764e-11 3.290651535386898e-11 5.057388794480196e-11 7.2867861299828e-11 6.199013167758001e-11 1.999220403900581e-11
          1.8889238407400215e-11 6.0646806451292224e-12 8.317243437180785e-12 7.995334277273833e-12 7.115908975206268e-12 1.1650146757638495e-11
          1.1169243976379358e-11 9.856390063736039e-12 4.672547002995828e-12 5.90512289531785e-12 4.610413586536815e-12 8.043233914087003e-12
          6.113022940962177e-12 1.4251642070549993e-11 1.3666021655850475e-11 1.204700945131959e-11 1.517988791278966e-11 1.4567766745317156e-11
          1.2859915630958444e-11 9.776569555710415e-12 7.346127423273006e-12 1.0435797810007101e-11 7.821087901339363e-12 2.9769183814698013e-12
          3.4461286429200517e-12 2.9232830703565164e-12 4.398867672357706e-12 1.1344895272696556e-11 8.036566742668321e-12 1.3701588141744344e-11
          9.61008834302415e-12 5.938300868679076e-12 6.438335707376479e-12 1.4609517165730777e-11 1.0222668973634973e-11 6.850761696592068e-12
          1.2056291646119532e-11 7.182917433487643e-12 1.1389082471807248e-11 7.35724994319997e-12 5.8618364097752084e-12 1.2088555393961113e-11
          7.791152746602803e-12
        </DataArray>
        <DataArray type="Float64" Name="gradient_matprop_error" format="ascii" RangeMin="0" RangeMax="0">
          0 0 0 0 0 0
          0 0 0 0 0 0
          0 0 0 0 0 0
          0 0 0 0 0 0
          0 0 0 0 0 0
          0 0 0 0 0 0
          0 0 0 0 0 0
          0 0 0 0 0 0
          0 0 0 0 0 0
          0 0 0 0 0 0
          0 0 0 0 0 0
          0 0 0 0 0 0
          0 0 0 0 0 0
          0 0 0 0 0 0
          0 0 0 0 0 0
          0 0 0 0 0 0
          0 0 0 0 0 0
          0 0 0 0 0 0
          0 0 0 0 0 0
          0 0 0 0 0 0
          0 0 0 0 0 0
          0 0 0 0 0 0
          0 0 0 0 0 0
          0 0 0 0 0 0
          0 0 0 0 0 0
          0 0 0 0 0 0
          0 0 0 0 0 0
          0 0 0 0 0 0
          0 0 0 0 0 0
          0 0 0 0 0 0
          0 0 0 0 0 0
          0 0 0 0 0 0
          0 0 0 0 0 0
          0 0 0 0 0 0
          0 0 0 0 0 0
          0 0 0 0 0 0
          0 0 0 0 0 0
          0 0 0 0 0 0
          0 0 0 0 0 0
          0 0 0 0 0 0
          0 0 0 0 0 0
          0 0 0 0 0 0
          0 0 0 0 0 0
          0 0 0 0 0 0
          0 0 0 0 0 0
          0 0 0 0 0 0
          0 0 0 0 0 0
          0 0 0 0 0 0
          0 0 0 0 0 0
          0 0 0 0 0 0
          0 0 0 0 0 0
          0 0 0 0 0 0
          0 0 0 0 0 0
          0 0 0 0 0 0
          0 0 0 0 0 0
          0 0 0 0 0 0
          0 0 0 0 0 0
          0 0 0 0 0 0
          0 0 0 0 0 0
          0 0 0 0 0 0
          0 0 0 0 0 0
          0 0 0 0 0 0
          0 0 0 0 0 0
          0 0 0 0 0 0
          0 0 0 0 0 0
          0 0 0 0 0 0
          0 0 0 0 0 0
          0 0 0 0 0 0
          0 0 0 0 0 0
          0 0 0 0 0 0
          0 0 0 0 0 0
          0 0 0 0 0 0
          0 0 0 0 0 0
          0 0 0 0 0 0
          0 0 0 0 0 0
          0 0 0 0 0 0
          0 0 0 0 0 0
          0 0 0 0 0 0
          0 0 0 0 0 0
          0 0 0 0 0 0
          0 0 0 0 0 0
          0 0 0 0 0 0
          0 0 0 0 0 0
          0 0 0 0 0 0
          0 0 0 0 0 0
          0 0 0 0 0 0
          0 0 0 0 0 0
          0
        </DataArray>
        <DataArray type="Float64" Name="initial_marker" format="ascii" RangeMin="0" RangeMax="2">
          0 0 0 0 0 0
          0 0 0 0 0 0
          0 0 0 0 0 0
          0 0 0 0 0 0
          0 0 0 0 0 0
          0 0 0 0 0 0
          0 0 0 0 0 0
          0 0 0 0 0 0
          0 0 0 0 0 0
          0 0 0 0 0 0
          0 0 0 0 0 0
          0 0 0 0 0 0
          0 0 0 0 0 0
          0 0 0 0 0 0
          0 0 0 0 0 0
          0 0 0 0 0 0
          0 0 0 0 0 0
          0 0 0 0 0 0
          0 0 0 0 0 0
          0 0 0 0 0 0
          0 0 0 0 0 0
          0 0.5 0 0 0 0
          0 0 0 2 1.5 0
          0 0 0 0 0 0
          0 0 0 0 0 0
          0 0 0 0 0 0
          0 0 0 0 0 0
          0 0 0 0 0 0
          0 0 0 0 0 0
          0 0 0 0 0 0
          0 0 0 0 0 0
          0 0 0 0 0 0
          0 0 0 0 0 0
          0 0 0 0 0 0
          0 0 0 0 0 0
          0 0 0 0 0 0.25
          2 2 1 2 0 0
          0.5 0.25 0 0 0 0
          0 0 1 1 0 0
          0 0 0 1 0 0
          0 0 0 0 0 0
          0 0 0 0 0 0
          0 0 0 0 0 0
          0 0 0 0 0 0
          0 0 0 0 0 0
          0 0 0 0 0 0
          0 0 0 0 0 0
          0 0 0 0 0 0
          0 0 0 0 0 0
          2 2 2 2 1 1.5
          1.5 1.5 1.75 1.25 2 2
          2 2 1 1.5 0 0.75
          0.5 1 0.3333333333333333 2 1.75 1.75
          2 2 2 2 2 2
          2 2 2 2 2 2
          2 2 2 2 2 0
          0 0.5 0.5 0 0 0
          0 0.5 0 1.5 1.5 1
          1.25 0 0.25 0 0 0
          0 0 0.75 0 0.5 2
          2 2 2 1.75 1.5 2
          2 2 2 1.25 0.5 1
          0 1.5 1 1 0 0.25
          0 0 0 0 0 0.75
          0.5 0 1.75 1 2 1.25
          1 0.5 0 1.5 1 1
          0.5 0.5 0 0 0 0
          0 0.5 0 0 0 0
          0 0 0.25 0 0 0
          0 0 0 0 0 0
          0 0 0 0 0 0
          0 0 0 0 0 0
          0 0 0 0 0 0
          0 0 0 0 0 1.5
          1.5 0.75 0 0 0.5 0
          0 0 0 0 0 0
          0 0.25 0 0 0 0
          0 0 0 0 0 0
          0 0 0 0 0 0
          0 0 0 0 0 0
          0 2 2 2 2 2
          2 2 1.6666666666666667 2 1.75 2
          2 2 2 2 2 2
          2 2 2 2 2 0.5
          1 0.5 1.5 2 2 2
          2 1.6666666666666667 1.5 2 2 1.5
          1.75 1 2 1 0 2
          1
        </DataArray>
        <DataArray type="Float64" Name="markers_norefine" format="ascii" RangeMin="0" RangeMax="0">
          0 0 0 0 0 0
          0 0 0 0 0 0
          0 0 0 0 0 0
          0 0 0 0 0 0
          0 0 0 0 0 0
          0 0 0 0 0 0
          0 0 0 0 0 0
          0 0 0 0 0 0
          0 0 0 0 0 0
          0 0 0 0 0 0
          0 0 0 0 0 0
          0 0 0 0 0 0
          0 0 0 0 0 0
          0 0 0 0 0 0
          0 0 0 0 0 0
          0 0 0 0 0 0
          0 0 0 0 0 0
          0 0 0 0 0 0
          0 0 0 0 0 0
          0 0 0 0 0 0
          0 0 0 0 0 0
          0 0 0 0 0 0
          0 0 0 0 0 0
          0 0 0 0 0 0
          0 0 0 0 0 0
          0 0 0 0 0 0
          0 0 0 0 0 0
          0 0 0 0 0 0
          0 0 0 0 0 0
          0 0 0 0 0 0
          0 0 0 0 0 0
          0 0 0 0 0 0
          0 0 0 0 0 0
          0 0 0 0 0 0
          0 0 0 0 0 0
          0 0 0 0 0 0
          0 0 0 0 0 0
          0 0 0 0 0 0
          0 0 0 0 0 0
          0 0 0 0 0 0
          0 0 0 0 0 0
          0 0 0 0 0 0
          0 0 0 0 0 0
          0 0 0 0 0 0
          0 0 0 0 0 0
          0 0 0 0 0 0
          0 0 0 0 0 0
          0 0 0 0 0 0
          0 0 0 0 0 0
          0 0 0 0 0 0
          0 0 0 0 0 0
          0 0 0 0 0 0
          0 0 0 0 0 0
          0 0 0 0 0 0
          0 0 0 0 0 0
          0 0 0 0 0 0
          0 0 0 0 0 0
          0 0 0 0 0 0
          0 0 0 0 0 0
          0 0 0 0 0 0
          0 0 0 0 0 0
          0 0 0 0 0 0
          0 0 0 0 0 0
          0 0 0 0 0 0
          0 0 0 0 0 0
          0 0 0 0 0 0
          0 0 0 0 0 0
          0 0 0 0 0 0
          0 0 0 0 0 0
          0 0 0 0 0 0
          0 0 0 0 0 0
          0 0 0 0 0 0
          0 0 0 0 0 0
          0 0 0 0 0 0
          0 0 0 0 0 0
          0 0 0 0 0 0
          0 0 0 0 0 0
          0 0 0 0 0 0
          0 0 0 0 0 0
          0 0 0 0 0 0
          0 0 0 0 0 0
          0 0 0 0 0 0
          0 0 0 0 0 0
          0 0 0 0 0 0
          0 0 0 0 0 0
          0 0 0 0 0 0
          0 0 0 0 0 0
          0
        </DataArray>
        <DataArray type="Float64" Name="markers_mustrefine" format="ascii" RangeMin="0" RangeMax="2">
          0 0 0 0 0 0
          0 0 0 0 0 0
          0 0 0 0 0 0
          0 0 0 0 0 0
          0 0 0 0 0 0
          0 0 0 0 0 0
          0 0 0 0 0 0
          0 0 0 0 0 0
          0 0 0 0 0 0
          0 0 0 0 0 0
          0 0 0 0 0 0
          0 0 0 0 0 0
          0 0 0 0 0 0
          0 0 0 0 0 0
          0 0 0 0 0 0
          0 0 0 0 0 0
          0 0 0 0 0 0
          0 0 0 0 0 0
          0 0 0 0 0 0
          0 0 0 0 0 0
          0 0 0 0 0 0
          0 0.5 0 0 0 0
          0 0 0 2 1.5 0
          0 0 0 0 0 0
          0 0 0 0 0 0
          0 0 0 0 0 0
          0 0 0 0 0 0
          0 0 0 0 0 0
          0 0 0 0 0 0
          0 0 0 0 0 0
          0 0 0 0 0 0
          0 0 0 0 0 0
          0 0 0 0 0 0
          0 0 0 0 0 0
          0 0 0 0 0 0
          0 0 0 0 0 0.25
          2 2 1 2 0 0
          0.5 0.25 0 0 0 0
          0 0 1 1 0 0
          0 0 0 1 0 0
          0 0 0 0 0 0
          0 0 0 0 0 0
          0 0 0 0 0 0
          0 0 0 0 0 0
          0 0 0 0 0 0
          0 0 0 0 0 0
          0 0 0 0 0 0
          0 0 0 0 0 0
          0 0 0 0 0 0
          2 2 2 2 1 1.5
          1.5 1.5 1.75 1.25 2 2
          2 2 1 1.5 0 0.75
          0.5 1 0.3333333333333333 2 1.75 1.75
          2 2 2 2 2 2
          2 2 2 2 2 2
          2 2 2 2 2 0
          0 0.5 0.5 0 0 0
          0 0.5 0 1.5 1.5 1
          1.25 0 0.25 0 0 0
          0 0 0.75 0 0.5 2
          2 2 2 1.75 1.5 2
          2 2 2 1.25 0.5 1
          0 1.5 1 1 0 0.25
          0 0 0 0 0 0.75
          0.5 0 1.75 1 2 1.25
          1 0.5 0 1.5 1 1
          0.5 0.5 0 0 0 0
          0 0.5 0 0 0 0
          0 0 0.25 0 0 0
          0 0 0 0 0 0
          0 0 0 0 0 0
          0 0 0 0 0 0
          0 0 0 0 0 0
          0 0 0 0 0 1.5
          1.5 0.75 0 0 0.5 0
          0 0 0 0 0 0
          0 0.25 0 0 0 0
          0 0 0 0 0 0
          0 0 0 0 0 0
          0 0 0 0 0 0
          0 2 2 2 2 2
          2 2 1.6666666666666667 2 1.75 2
          2 2 2 2 2 2
          2 2 2 2 2 0.5
          1 0.5 1.5 2 2 2
          2 1.6666666666666667 1.5 2 2 1.5
          1.75 1 2 1 0 2
          1
        </DataArray>
        <DataArray type="Float64" Name="gradient_marker" format="ascii" RangeMin="1" RangeMax="1">
          1 1 1 1 1 1
          1 1 1 1 1 1
          1 1 1 1 1 1
          1 1 1 1 1 1
          1 1 1 1 1 1
          1 1 1 1 1 1
          1 1 1 1 1 1
          1 1 1 1 1 1
          1 1 1 1 1 1
          1 1 1 1 1 1
          1 1 1 1 1 1
          1 1 1 1 1 1
          1 1 1 1 1 1
          1 1 1 1 1 1
          1 1 1 1 1 1
          1 1 1 1 1 1
          1 1 1 1 1 1
          1 1 1 1 1 1
          1 1 1 1 1 1
          1 1 1 1 1 1
          1 1 1 1 1 1
          1 1 1 1 1 1
          1 1 1 1 1 1
          1 1 1 1 1 1
          1 1 1 1 1 1
          1 1 1 1 1 1
          1 1 1 1 1 1
          1 1 1 1 1 1
          1 1 1 1 1 1
          1 1 1 1 1 1
          1 1 1 1 1 1
          1 1 1 1 1 1
          1 1 1 1 1 1
          1 1 1 1 1 1
          1 1 1 1 1 1
          1 1 1 1 1 1
          1 1 1 1 1 1
          1 1 1 1 1 1
          1 1 1 1 1 1
          1 1 1 1 1 1
          1 1 1 1 1 1
          1 1 1 1 1 1
          1 1 1 1 1 1
          1 1 1 1 1 1
          1 1 1 1 1 1
          1 1 1 1 1 1
          1 1 1 1 1 1
          1 1 1 1 1 1
          1 1 1 1 1 1
          1 1 1 1 1 1
          1 1 1 1 1 1
          1 1 1 1 1 1
          1 1 1 1 1 1
          1 1 1 1 1 1
          1 1 1 1 1 1
          1 1 1 1 1 1
          1 1 1 1 1 1
          1 1 1 1 1 1
          1 1 1 1 1 1
          1 1 1 1 1 1
          1 1 1 1 1 1
          1 1 1 1 1 1
          1 1 1 1 1 1
          1 1 1 1 1 1
          1 1 1 1 1 1
          1 1 1 1 1 1
          1 1 1 1 1 1
          1 1 1 1 1 1
          1 1 1 1 1 1
          1 1 1 1 1 1
          1 1 1 1 1 1
          1 1 1 1 1 1
          1 1 1 1 1 1
          1 1 1 1 1 1
          1 1 1 1 1 1
          1 1 1 1 1 1
          1 1 1 1 1 1
          1 1 1 1 1 1
          1 1 1 1 1 1
          1 1 1 1 1 1
          1 1 1 1 1 1
          1 1 1 1 1 1
          1 1 1 1 1 1
          1 1 1 1 1 1
          1 1 1 1 1 1
          1 1 1 1 1 1
          1 1 1 1 1 1
          1
        </DataArray>
        <DataArray type="Float64" Name="gradient_matprop_marker" format="ascii" RangeMin="0" RangeMax="0">
          0 0 0 0 0 0
          0 0 0 0 0 0
          0 0 0 0 0 0
          0 0 0 0 0 0
          0 0 0 0 0 0
          0 0 0 0 0 0
          0 0 0 0 0 0
          0 0 0 0 0 0
          0 0 0 0 0 0
          0 0 0 0 0 0
          0 0 0 0 0 0
          0 0 0 0 0 0
          0 0 0 0 0 0
          0 0 0 0 0 0
          0 0 0 0 0 0
          0 0 0 0 0 0
          0 0 0 0 0 0
          0 0 0 0 0 0
          0 0 0 0 0 0
          0 0 0 0 0 0
          0 0 0 0 0 0
          0 0 0 0 0 0
          0 0 0 0 0 0
          0 0 0 0 0 0
          0 0 0 0 0 0
          0 0 0 0 0 0
          0 0 0 0 0 0
          0 0 0 0 0 0
          0 0 0 0 0 0
          0 0 0 0 0 0
          0 0 0 0 0 0
          0 0 0 0 0 0
          0 0 0 0 0 0
          0 0 0 0 0 0
          0 0 0 0 0 0
          0 0 0 0 0 0
          0 0 0 0 0 0
          0 0 0 0 0 0
          0 0 0 0 0 0
          0 0 0 0 0 0