<?xml version="1.0"?>
<VTKFile type="UnstructuredGrid" version="0.1" byte_order="LittleEndian" header_type="UInt32" compressor="vtkZLibDataCompressor">
  <UnstructuredGrid>
    <Piece NumberOfPoints="457" NumberOfCells="251">
      <PointData>
        <DataArray type="Int32" Name="libmesh_node_id" format="ascii" RangeMin="428" RangeMax="3079">
          512 713 715 716 1195 1199
          1200 1201 1202 1203 1205 1206
          1207 1208 1209 1210 1211 1212
          1213 1214 1218 1234 1235 1238
          1239 1241 1243 1274 1276 1278
          1280 1370 1371 1374 1375 1377
          1390 1394 1698 1699 1700 1701
          1702 1703 1704 1705 1706 1707
          1708 1712 1713 1725 1726 1729
          1730 1997 1998 1999 2000 2001
          2002 2003 2004 2005 2006 2007
          2008 2009 2010 2011 2012 2013
          2014 2015 2016 2017 2018 2019
          2020 2021 2022 2023 2024 2025
          2027 2028 2029 2030 2031 2032
          2037 2038 2039 2040 2041 2042
          2043 2044 2045 2046 2047 2048
          2049 2050 2051 2052 2054 2055
          2056 2057 2058 2059 2060 2064
          2065 2067 2068 2070 2085 2086
          2092 2105 2106 2109 2111 2112
          2114 2125 2129 2139 2140 2141
          2142 2143 2144 2147 2148 2150
          2152 2153 2154 2155 2156 2157
          2158 2161 2162 2164 2166 2167
          2168 2169 2170 2172 2174 2175
          2176 2177 2178 2179 2180 2182
          2184 2186 2265 2266 2267 2268
          2269 2270 2275 2276 2280 2281
          2282 2283 2321 2322 2325 2341
          2389 2390 2391 2392 2393 2394
          2396 2397 2398 2399 2400 2401
          2402 2404 2406 2408 2409 2410
          2411 2412 2413 2414 2416 2417
          2418 2419 2420 2421 2422 2424
          2426 2428 3012 3013 3014 3015
          3016 3017 3020 3021 3023 3025
          3046 3047 3048 3049 3051 3053
          3055 3056 3057 3058 3059 3061
          3063 3065 3066 3067 3068 3069
          3070 3071 3074 3075 3077 3079
          683 684 706 704 688 711
          710 428 941 942 925 926
          943 944 927 948 504 949
          930 962 936 506 720 741
          705 1162 1163 1164 1192 1193
          1194 1196 1197 1198 505 1135
          1136 1137 679 1140 680 1216
          1217 1143 1219 681 1157 1158
          1161 1180 1258 687 1263 1372
          1240 1373 1376 1379 1378 742
          1392 1204 1391 1393 1396 1630
          1628 748 1635 1634 1709 1710
          1711 1714 714 1717 1718 1220
          1221 1723 1227 1727 1728 1731
          1236 2026 1215 2035 2053 2061
          2062 2063 2066 1222 2069 1223
          2087 2088 2089 2090 2091 2093
          2094 1228 2107 2108 2110 1230
          2113 1231 2126 2127 2128 2130
          2131 1233 2145 2146 2149 2151
          1237 2159 2160 2163 2165 2171
          2173 1242 2181 2183 2185 721
          2227 2231 2229 2233 2257 2258
          2260 1254 2271 2272 2263 1256
          2273 2274 1255 1257 2284 2278
          2285 2286 1259 2323 2324 2326
          2327 2328 1264 2329 2330 1265
          2342 2343 2344 2345 2346 2347
          1268 2395 1275 2403 2405 2407
          1277 2310 2316 2317 2415 2320
          724 1279 2423 2425 2427 726
          2429 2431 2433 2435 2377 2457
          2459 2381 2461 2463 3018 3019
          3022 3024 3050 3052 3054 3060
          3062 3064 1395 3072 3073 3076
          3078
        </DataArray>
        <DataArray type="Float64" Name="bounds" format="ascii" RangeMin="0" RangeMax="0">
          0 0 0 0 0 0
          0 0 0 0 0 0
          0 0 0 0 0 0
          0 0 0 0 0 0
          0 0 0 0 0 0
          0 0 0 0 0 0
          0 0 0 0 0 0
          0 0 0 0 0 0
          0 0 0 0 0 0
          0 0 0 0 0 0
          0 0 0 0 0 0
          0 0 0 0 0 0
          0 0 0 0 0 0
          0 0 0 0 0 0
          0 0 0 0 0 0
          0 0 0 0 0 0
          0 0 0 0 0 0
          0 0 0 0 0 0
          0 0 0 0 0 0
          0 0 0 0 0 0
          0 0 0 0 0 0
          0 0 0 0 0 0
          0 0 0 0 0 0
          0 0 0 0 0 0
          0 0 0 0 0 0
          0 0 0 0 0 0
          0 0 0 0 0 0
          0 0 0 0 0 0
          0 0 0 0 0 0
          0 0 0 0 0 0
          0 0 0 0 0 0
          0 0 0 0 0 0
          0 0 0 0 0 0
          0 0 0 0 0 0
          0 0 0 0 0 0
          0 0 0 0 0 0
          0 0 0 0 0 0
          0 0 0 0 0 0
          0 0 0 0 0 0
          0 0 0 0 0 0
          0 0 0 0 0 0
          0 0 0 0 0 0
          0 0 0 0 0 0
          0 0 0 0 0 0
          0 0 0 0 0 0
          0 0 0 0 0 0
          0 0 0 0 0 0
          0 0 0 0 0 0
          0 0 0 0 0 0
          0 0 0 0 0 0
          0 0 0 0 0 0
          0 0 0 0 0 0
          0 0 0 0 0 0
          0 0 0 0 0 0
          0 0 0 0 0 0
          0 0 0 0 0 0
          0 0 0 0 0 0
          0 0 0 0 0 0
          0 0 0 0 0 0
          0 0 0 0 0 0
          0 0 0 0 0 0
          0 0 0 0 0 0
          0 0 0 0 0 0
          0 0 0 0 0 0
          0 0 0 0 0 0
          0 0 0 0 0 0
          0 0 0 0 0 0
          0 0 0 0 0 0
          0 0 0 0 0 0
          0 0 0 0 0 0
          0 0 0 0 0 0
          0 0 0 0 0 0
          0 0 0 0 0 0
          0 0 0 0 0 0
          0 0 0 0 0 0
          0 0 0 0 0 0
          0
        </DataArray>
        <DataArray type="Float64" Name="gradient_error" format="ascii" RangeMin="1.0095555463557733e-9" RangeMax="1.2592725182923072e-7">
          7.943494990255152e-8 7.3766968730398295e-9 1.1359642974953463e-8 7.383856262143752e-9 4.081128568280362e-8 9.470474900597515e-9
          1.1925417636964673e-8 9.569131937773415e-9 1.6385085064232227e-8 2.0268904399726253e-8 2.2147999044319884e-8 1.7271410543095577e-8
          1.62823777689122e-8 3.000313720168823e-8 2.7814007679922164e-8 6.926036613853097e-9 5.233779605338889e-9 4.807974218367508e-9
          1.3738991546202786e-8 2.2390730820794118e-8 1.0185274467216458e-8 1.0376813204061105e-8 1.590166981913305e-8 8.951367037317993e-9
          1.1086442653661957e-8 2.6473547151802708e-8 1.5275142104827413e-8 3.704150245645367e-8 1.9950782150401623e-8 4.1459194353605765e-8
          2.1961580780743706e-8 7.921856502461048e-9 8.645575346436451e-9 6.06091587805513e-9 7.752631198131399e-9 1.0854298807890241e-8
          1.2276753385883905e-8 1.2302321645167155e-8 1.0700029619950598e-8 1.374802236676404e-8 1.294340095512069e-8 1.1196529999891239e-8
          7.031379817698468e-9 8.759632027663782e-9 7.264983599022427e-9 8.808682438526807e-9 8.304313879197799e-9 1.1909749953601223e-8
          1.12349793268734e-8 7.091233717547939e-9 9.629367913944471e-9 5.5472411069724666e-9 7.436519852739414e-9 4.711960098717851e-9
          6.174512577735463e-9 3.761922742106775e-9 4.255014082827608e-9 4.173370465424903e-9 3.981515634942412e-9 6.185289358068168e-9
          3.420385021710687e-9 3.355892021941893e-9 4.012721374748186e-9 3.936177128358161e-9 2.7292140272922812e-9 3.511820661508579e-9
          3.4434670881271584e-9 3.183999652481883e-9 3.736461788276007e-9 3.2462397423343916e-9 5.945518121774227e-9 5.803760438460143e-9
          5.1241007570613455e-9 5.454516594857368e-9 3.2691359363143655e-9 3.6607316540427114e-9 3.2440026593504993e-9 5.264216999108458e-9
          2.9121490270241927e-9 3.418574517767554e-9 2.3530786696708913e-9 2.9462035429852006e-9 2.5652838448497064e-9 3.01435429766682e-9
          4.932443208782505e-9 4.330472429539025e-9 4.293128814735364e-9 8.90421841171189e-9 8.622473760834141e-9 8.048227678307056e-9
          8.486544462804506e-9 8.253234961930385e-9 7.721504281374576e-9 7.537078491901306e-9 7.696252345743388e-9 7.0096063251395745e-9
          1.1848836743208019e-8 1.1579692609379176e-8 1.1057813813938896e-8 1.0830159936158627e-8 7.2347880768800275e-9 6.23378229610366e-9
          9.909829584121526e-9 6.890461261897737e-9 6.231805436475109e-9 5.921450829895181e-9 9.580863290334136e-9 8.88174950020053e-9
          8.042883009691052e-9 2.376191696268086e-9 2.329262139852564e-9 3.0323530369773676e-9 2.9702362489639574e-9 2.195091079312985e-9
          2.7922974188059404e-9 4.640368361325638e-9 4.538006046806307e-9 4.245257417577795e-9 1.9908206782293182e-9 2.5213647118389877e-9
          3.8016205533991165e-9 7.001289792260331e-9 6.8246993475151974e-9 6.328930524701962e-9 1.0528876301448135e-8 1.022373834559092e-8
          9.361813074090481e-9 5.597721345447539e-9 8.106109814618728e-9 2.464135788466233e-9 2.7998580721311574e-9 2.332377044586217e-9
          3.90152032608165e-9 2.1909585142568578e-9 2.578607841820314e-9 1.8181782100073426e-9 2.1344532570282087e-9 3.6258564625906855e-9
          2.949748233130166e-9 1.6770250348176864e-9 1.9020591595507883e-9 1.7012339417132566e-9 2.5476496827629944e-9 1.4929658825537424e-9
          1.7264570529047044e-9 1.3486224551648204e-9 1.53637302101121e-9 2.3353174063794433e-9 1.937245620717122e-9 5.25666247391239e-9
          4.229480131464954e-9 6.900603405122338e-9 4.940828517544474e-9 3.956407234144732e-9 6.556926852640509e-9 5.907465340379519e-9
          5.121153018295999e-9 3.344098834687771e-9 2.552171184041534e-9 4.166246338671772e-9 3.0908434498372745e-9 2.3334682853824477e-9
          3.910582924003349e-9 2.9237805919735615e-9 1.560168365092151e-8 1.529942235512235e-8 1.5221768231398854e-8 1.4880431597315718e-8
          1.4375618529842858e-8 1.3824556847606055e-8 1.3043590887336114e-8 1.0974496730074935e-8 1.2749335077122755e-8 1.2097872689162421e-8
          1.0634786836512527e-8 9.925851960940229e-9 1.4515622670991366e-8 1.4148695050081703e-8 1.304497850051806e-8 1.1277536675442612e-8
          8.961708579750206e-9 6.8014486157459586e-9 1.0546518626716462e-8 8.506552454403155e-9 7.716916456199753e-9 6.454541975195631e-9
          1.0222516781583452e-8 9.537885433939656e-9 7.637758574845022e-9 5.079867941944993e-9 3.798295497617492e-9 5.813792514028422e-9
          4.795646525364402e-9 3.527838703562377e-9 5.554162496580556e-9 4.037841929511672e-9 1.1754340998596021e-8 8.866817456298224e-9
          1.2383719744472416e-8 1.1470006505844094e-8 1.0825005403659908e-8 8.542658645981742e-9 1.199043193133792e-8 1.1250552881886367e-8
          8.94062436215091e-9 6.354701922035249e-9 4.672349561759654e-9 6.629053610693539e-9 6.105038255174854e-9 4.3911625984225475e-9
          6.34287903008203e-9 4.537887494117394e-9 1.675869892270041e-9 1.895682176064002e-9 1.675869653210366e-9 2.320182669985372e-9
          1.516759566464827e-9 1.71865851806799e-9 1.3306815211893467e-9 1.4863515654197187e-9 2.1234498373079666e-9 1.8182411718837737e-9
          2.7407619667937886e-9 2.441852634633487e-9 3.0649307152894645e-9 2.528690083292571e-9 2.172037249462162e-9 2.8543165258265113e-9
          2.1605892031941617e-9 3.2618507046469734e-9 2.3610478358201837e-9 3.3504930321898156e-9 3.059131547729079e-9 2.1472516140244743e-9
          3.1406680054454965e-9 2.228426305661139e-9 1.5570362682418286e-9 1.625658757616054e-9 1.472686737236618e-9 1.694281246990279e-9
          1.4360876040543476e-9 1.4837288736388491e-9 1.295583800185079e-9 1.2971524820423076e-9 1.5313701432233513e-9 1.2987211638995367e-9
          1.012125946079292e-7 6.09579173951511e-8 5.501968172671858e-8 1.0565220629374823e-7 1.2573086141227434e-7 6.438886362355013e-8
          1.2592725182923072e-7 2.540857424163065e-8 1.283240906447211e-8 1.134584456087185e-8 1.9679592739597965e-8 4.4706155034294375e-8
          8.973950869595167e-9 7.752256298557373e-9 3.874540843527993e-8 7.72575564370924e-9 1.8215838105820697e-8 9.615825874316168e-9
          2.7775070254933873e-8 8.983569981091434e-9 1.6120488246930583e-8 4.202682524137716e-8 8.28671463906804e-9 1.188250534064671e-8
          3.511144545625648e-8 5.094053202813306e-8 4.8974512812027865e-8 3.9598452764431214e-8 6.802413254033021e-8 6.724468212457733e-8
          5.207637136058047e-8 7.453561323237939e-8 7.444280401027954e-8 5.6859004182004115e-8 5.349577589080378e-8 2.8499100582495536e-8
          5.559020783602826e-8 5.171225113649812e-8 4.465103021846338e-8 4.193660223796237e-8 4.439206699947325e-8 2.767863677298175e-8
          3.7077885241359e-8 6.384950365403729e-8 3.9811783736287386e-8 7.220264672006735e-8 1.8309252669170745e-8 3.0061201135061086e-8
          2.081622926616225e-8 7.237199212841594e-8 4.261161503789409e-8 5.492588535792674e-8 3.473056185475315e-8 5.173599541546005e-9
          2.840908142615264e-9 4.325227461152333e-9 4.82389537226148e-9 8.939167891890274e-9 4.2556509884026315e-9 8.515031405608985e-9
          8.333497562386987e-9 1.132775365713996e-8 3.385586848033419e-9 4.337654688527754e-9 7.996353059960327e-9 3.0214023815327952e-9
          4.304370199837002e-9 2.7618312946632865e-9 3.2261394572725108e-9 4.619728126573615e-9 4.854015362966793e-9 8.544051013678953e-9
          8.062845285573647e-9 6.783866342782764e-9 5.737341411761686e-9 5.845532250956793e-9 5.491202424549949e-9 5.181530878590929e-9
          4.834559440303985e-9 4.56038941311281e-9 3.934138563473928e-9 3.3359255661062185e-9 5.085610165568645e-9 4.185127203040103e-9
          4.140087582854511e-9 2.574042094022172e-9 3.749189800384378e-9 1.2659828348008873e-8 5.316348701023535e-9 1.9668094840211035e-9
          2.5950946043274804e-9 2.5395273771834675e-9 2.3804844012879676e-9 4.0596366296351264e-9 3.9656876987783455e-9 3.6974762185795146e-9
          1.6695444373924032e-9 2.1393961330988032e-9 1.7357485359032557e-9 2.187477291799386e-9 1.8442701491593383e-9 3.2930769083752167e-9
          3.263576973846065e-9 2.8058355116044673e-9 6.2421947175453286e-9 6.080885922907538e-9 5.625659545292837e-9 9.525423317027713e-9
          9.23601222344834e-9 8.429198064139104e-9 4.950773812394532e-9 4.733661498482911e-9 4.153104865343112e-9 7.272757838747306e-9
          6.688565190515186e-9 5.969318484865658e-9 1.7525618959566018e-9 2.169998265457376e-9 1.7718772265380144e-9 3.124129350466463e-9
          2.5127609588176773e-9 1.1745908548000477e-9 1.4036044169983074e-9 1.2304078398383511e-9 1.9491553752587074e-9 4.3591173883900856e-9
          3.4464237240820716e-9 4.571723192977742e-9 2.634667871284899e-9 1.943960308327182e-9 3.4215059643627965e-9 2.4912680758028723e-9
          3.836913521371268e-9 5.296686301606549e-9 2.9899239468224473e-9 4.03694022927766e-9 1.5653926129766935e-8 1.537930686158535e-8
          1.4756966538982496e-8 1.4735897131538473e-8 1.5187978878922083e-8 1.5345502445383116e-8 1.4853206037732646e-8 1.5409359160630836e-8
          1.555315404153344e-8 1.550610910294494e-8 2.6370931133575524e-8 1.554506139818659e-8 1.4769635833112168e-8 1.4885719928784577e-8
          1.4529061098691912e-8 1.2744140985308414e-8 1.2314050286640767e-8 1.3524004977502898e-8 1.314244907780715e-8 1.2014258921149646e-8
          1.539585272989772e-8 1.5443806808765276e-8 1.5111091165294547e-8 1.503502604644762e-8 1.5174035021711627e-8 1.4486785204115044e-8
          1.0269264878247771e-8 9.130084021525314e-9 8.238409850190222e-9 1.3892839170865613e-8 1.295272212031892e-8 1.1518059915589938e-8
          1.0514314848639363e-8 5.810512041414617e-9 7.00354269875847e-9 4.255849800436419e-9 3.042586608550869e-9 5.023969645797467e-9
          3.5321977365211275e-9 1.4397604271026223e-8 1.390773431426222e-8 1.3613119510066567e-8 7.881930831159859e-9 1.4231063092354133e-8
          1.389891365956647e-8 8.200553544603392e-9 5.574508466838687e-9 3.874287504640548e-9 5.7734082854786385e-9 3.996474540921012e-9
          7.023923996417978e-9 5.214791650854492e-9 8.762758245807801e-9 6.354082281448872e-9 1.2913865484063357e-8 1.0016900764346925e-8
          7.187072095344404e-9 1.3254023895936303e-8 1.0449687956170006e-8 7.489992814157786e-9 1.2236847220617754e-9 1.3996131551751021e-9
          1.1703822879337048e-9 1.763891459432456e-9 2.133323581637417e-9 1.7400051010810706e-9 2.4487706339959513e-9 2.6565302958097208e-9
          1.7761016082870686e-9 2.7299251563258894e-9 1.8439331347821025e-9 1.1827091065447813e-9 1.2118583123844394e-9 1.0095555463557733e-9
          1.2410075182240976e-9
        </DataArray>
        <DataArray type="Float64" Name="gradient_matprop_error" format="ascii" RangeMin="0" RangeMax="0">
          0 0 0 0 0 0
          0 0 0 0 0 0
          0 0 0 0 0 0
          0 0 0 0 0 0
          0 0 0 0 0 0
          0 0 0 0 0 0
          0 0 0 0 0 0
          0 0 0 0 0 0
          0 0 0 0 0 0
          0 0 0 0 0 0
          0 0 0 0 0 0
          0 0 0 0 0 0
          0 0 0 0 0 0
          0 0 0 0 0 0
          0 0 0 0 0 0
          0 0 0 0 0 0
          0 0 0 0 0 0
          0 0 0 0 0 0
          0 0 0 0 0 0
          0 0 0 0 0 0
          0 0 0 0 0 0
          0 0 0 0 0 0
          0 0 0 0 0 0
          0 0 0 0 0 0
          0 0 0 0 0 0
          0 0 0 0 0 0
          0 0 0 0 0 0
          0 0 0 0 0 0
          0 0 0 0 0 0
          0 0 0 0 0 0
          0 0 0 0 0 0
          0 0 0 0 0 0
          0 0 0 0 0 0
          0 0 0 0 0 0
          0 0 0 0 0 0
          0 0 0 0 0 0
          0 0 0 0 0 0
          0 0 0 0 0 0
          0 0 0 0 0 0
          0 0 0 0 0 0
          0 0 0 0 0 0
          0 0 0 0 0 0
          0 0 0 0 0 0
          0 0 0 0 0 0
          0 0 0 0 0 0
          0 0 0 0 0 0
          0 0 0 0 0 0
          0 0 0 0 0 0
          0 0 0 0 0 0
          0 0 0 0 0 0
          0 0 0 0 0 0
          0 0 0 0 0 0
          0 0 0 0 0 0
          0 0 0 0 0 0
          0 0 0 0 0 0
          0 0 0 0 0 0
          0 0 0 0 0 0
          0 0 0 0 0 0
          0 0 0 0 0 0
          0 0 0 0 0 0
          0 0 0 0 0 0
          0 0 0 0 0 0
          0 0 0 0 0 0
          0 0 0 0 0 0
          0 0 0 0 0 0
          0 0 0 0 0 0
          0 0 0 0 0 0
          0 0 0 0 0 0
          0 0 0 0 0 0
          0 0 0 0 0 0
          0 0 0 0 0 0
          0 0 0 0 0 0
          0 0 0 0 0 0
          0 0 0 0 0 0
          0 0 0 0 0 0
          0 0 0 0 0 0
          0
        </DataArray>
        <DataArray type="Float64" Name="initial_marker" format="ascii" RangeMin="0" RangeMax="2">
          2 1 2 2 2 0
          0.5 0 1 1.5 2 1
          1 2 2 1 2 2
          1 2 2 0.5 2 0.3333333333333333
          1 2 2 2 2 2
          2 0 0.25 0 0 0.75
          1.25 2 0 0 0 0
          0 0 0 0 0 0
          0 0 0 0 0 0
          0 2 2 2 2 2
          2 2 2 2 2 2
          2 2 2 2 2 2
          2 2 2 2 2 2
          2 2 2 2 2 2
          2 2 2 2 2 2
          2 2 2 2 2 2
          2 2 2 2 2 2
          2 2 2 2 2 2
          2 2 2 2 2 2
          2 2 2 2 2 2
          2 2 2 2 2 2
          2 2 2 1 1.5 1
          2 1 1.5 0 1 2
          2 0 0.5 0 1.5 0
          0.5 0 0 1.5 0.6666666666666666 2
          2 2 2 2 2 2
          2 2 1.5 2 2 1.5
          2 2 2 2 2 2
          2 2 2 2 2 2
          2 2 2 2 2 2
          2 2 2 2 2 2
          2 2 2 2 2 2
          2 2 2 2 2 2
          2 2 2 2 2 2
          2 2 2 2 2 2
          2 2 0 0.5 0 1.5
          0 0.5 0 0 1.5 1
          2 2 2 2 2 2
          1.3333333333333333 2 1.5 2 2 1.5
          2 2 0 0.5 0 1
          0 0.5 0 0 1 0
          2 2 0.5 1 2 1
          1 0 0 0 0 0
          0 0 0 0 0 0
          0 0 0 0.75 0 0
          0.25 2 2 2 2 2
          2 2 2 2 1 1.3333333333333333
          2 2 1 2 2 2
          2 2 2 2 1.3333333333333333 2
          1.6666666666666667 2 2 2 2 0
          0.5 0 0 0 0.5 0
          0.25 0.5 1 0 0.5 0
          0 0 0 0 0 0
          0 0 1 0 0 1
          1 0 1 0 0 0
          0 2 2 2 2 2
          2 2 2 2 2 2
          2 2 2 2 2 2
          2 2 2 2 2 2
          2 2 2 2 2 2
          2 2 1 1.5 1 2
          2 0 0.5 0 1.5 2
          2 2 2 1.5 2 2
          2 2 2 2 2 2
          2 2 2 2 2 2
          2 2 2 2 2 2
          2 2 2 2 2 2
          2 2 2 2 2 2
          2 2 2 2 2 2
          2 2 2 2 2 2
          2 2 2 2 2 2
          2 2 2 2 2 2
          2 2 2 2 2 2
          2 2 2 2 0 0.5
          0 1.5 2 2 2 2
          1.5 2 2 0 0.5 0
          1
        </DataArray>
        <DataArray type="Float64" Name="markers_norefine" format="ascii" RangeMin="0" RangeMax="2">
          0 0 0 0 0 0
          0 0 0 0 0 0
          0 0 0 0 0 0
          0 0 0 0 0 0
          0 0 0 0 0 0
          0 0 0 0 0 0
          0 0 0 0 0 0
          0 0 0 0 0 0
          0 0 0 0 0 0
          0 0 0 0 0 0
          0 0 0 0 0 0
          0 0 0 0 0 0
          0 0 0 0 0 0
          0 0 0 0 0 0
          0 0 0 0 0 0
          0 0 0 0 0 0
          0 0 0 0 0 0
          0 0 0 0 0 0
          0 0 0 0 0 0
          0 0 0 0 0 0
          0 0 0 0 0 0
          0 0 0 0 0 0
          0 0 0 0 0 0
          0 0 0 0 0 0
          0 0 0 0 0 0
          0 0 0 0 0 0
          0 0 0 0 0 0
          0 0 0.5 0.25 0 0
          0 0 0 0 0 0
          0 0 0 0 0 0
          0 0 0 0 0 0
          0 0 0 0 0 0
          0 0 0 0 0 0
          0 0 0 0 0 0
          0 0 0 0 0 0
          0 0 0 0 0 0
          0 0 0 0 0 0
          0 0 0 0 0 0
          0 0 0 0 0 0
          0 0 0 0 0 0
          0 0 0 0 0 0
          0 0 0 0 0 0
          0 0 0 0 0 0
          0 0 0 0 0 0
          0 0 0 0 0 0
          0 0 0 0 0 0
          0 0 0 0 0 0
          0 0 0 0 0 0
          0 0 0 0 0 0
          0 0 0 1 0 0
          0 0 0 0 0 0
          0 0 0 0 0 0
          0 0 0 0 0 0
          0 0 0 0 0 0
          0 0 0 0 0 0
          0 0 0 0 0 0
          0 0 0 0 0 0
          0 0 0 0 0 0
          0 0 0 0 0 0
          0 0 0 0 0 0
          0 0 0 0 0 0
          0 0 0 0 0 0
          0 0 0 0 0 0
          0 0 0 0 1 0.75
          0.3333333333333333 2 1.5 1.25 1.75 1
          1 1 1.25 0.75 0.5 0.6666666666666666
          0.25 0 0 0 0 0
          1 0.75 0.5 0.25 0.25 0
          0 0 0 0 0 0
          0 0 0 0 0 0
          0 0 0 0 0 0
          0 0 0 0 0 0
          0 0 0 0 0 0
          0 0 0 0 0 0
          0 0 0 0 0 0
          0 0 0 0 0 0
          0
        </DataArray>
        <DataArray type="Float64" Name="markers_mustrefine" format="ascii" RangeMin="0" RangeMax="2">
          2 1 2 2 2 0
          0.5 0 1 1.5 2 1
          1 2 2 1 2 2
          1 2 2 0.5 2 0.3333333333333333
          1 2 2 2 2 2
          2 0 0.25 0 0 0.75
          1.25 2 0 0 0 0
          0 0 0 0 0 0
          0 0 0 0 0 0
          0 2 2 2 2 2
          2 2 2 2 2 2
          2 2 2 2 2 2
          2 2 2 2 2 2
          2 2 2 2 2 2
          2 2 2 2 2 2
          2 2 2 2 2 2
          2 2 2 2 2 2
          2 2 2 2 2 2
          2 2 2 2 2 2
          2 2 2 2 2 2
          2 2 2 2 2 2
          2 2 2 1 1.5 1
          2 1 1.5 0 1 2
          2 0 0.5 0 1.5 0
          0.5 0 0 1.5 0.6666666666666666 2
          2 2 2 2 2 2
          2 2 1.5 2 2 1.5
          2 2 2 2 2 2
          2 2 2 2 2 2
          2 2 2 2 2 2
          2 2 2 2 2 2
          2 2 2 2 2 2
          2 2 2 2 2 2
          2 2 2 2 2 2
          2 2 2 2 2 2
          2 2 0 0.5 0 1.5
          0 0.5 0 0 1.5 1
          2 2 2 2 2 2
          1.3333333333333333 2 1.5 2 2 1.5
          2 2 0 0.5 0 1
          0 0.5 0 0 1 0
          2 2 0.5 1 2 1
          1 0 0 0 0 0
          0 0 0 0 0 0
          0 0 0 0.75 0 0
          0.25 2 2 2 2 2
          2 2 2 2 1 1.3333333333333333
          2 2 1 2 2 2
          2 2 2 2 1.3333333333333333 2
          1.6666666666666667 2 2 2 2 0
          0.5 0 0 0 0.5 0
          0.25 0.5 1 0 0.5 0
          0 0 0 0 0 0
          0 0 1 0 0 1
          1 0 1 0 0 0
          0 2 2 2 2 2
          2 2 2 2 2 2
          2 2 2 2 2 2
          2 2 2 2 2 2
          2 2 2 2 2 2
          2 2 1 1.5 1 2
          2 0 0.5 0 1.5 2
          2 2 2 1.5 2 2
          2 2 2 2 2 2
          2 2 2 2 2 2
          2 2 2 2 2 2
          2 2 2 2 2 2
          2 2 2 2 2 2
          2 2 2 2 2 2
          2 2 2 2 2 2
          2 2 2 2 2 2
          2 2 2 2 2 2
          2 2 2 2 2 2
          2 2 2 2 0 0.5
          0 1.5 2 2 2 2
          1.5 2 2 0 0.5 0
          1
        </DataArray>
        <DataArray type="Float64" Name="gradient_marker" format="ascii" RangeMin="0" RangeMax="1">
          0.75 0.75 1 1 0.6666666666666666 0
          0 0 0 0 0 0
          0 0.25 0.25 0.75 1 1
          0 0.25 1 0 0.125 0
          0 0.375 0.125 0.5 0.25 0.5
          0.25 0 0 0 0 0
          0 0 0 0 0 0
          0 0 0 0 0 0
          0 0 0 0 0 0
          0 0 0 0 0 0
          0.5 0.5 0.5 0.5 1 1
          1 0.5 0.5 1 0.5 0.5
          1 0.5 0 0 0 0
          0.5 0.5 1 1 0.5 0.5
          0.5 1 0.5 0 0 0
          0.5 0.5 1 1 0.5 1
          0.5 0.5 1 0.5 0 0
          0 0.5 1 0.5 0.5 1
          0.5 1 1 1 1 1
          1 1 1 1 1 1
          1 1 1 1 1 1
          1 1 1 0 0 0
          0 0.5 0.5 0.5 0.5 0.5
          0.5 0 0 0 0 0.5
          0.5 0.5 0.5 0.5 0.5 0
          0 0 0.5 0.5 0.5 1
          0.5 0 0 0 0.5 0.5
          0.5 0.5 0.5 0.5 1 1
          0.5 1 0 0 0.5 1
          0.5 1 1 1 1 1
          0 0 0 0.5 1 0.5
          0.5 1 0.5 0 0 0
          0.5 0.5 0.5 0.5 0 0
          0 0.5 1 0.5 0.5 1
          0.5 0 0 0 0.5 0.5
          0.5 0.5 0 0 0 0
          0.5 0.5 0.5 0.5 0.5 0.5
          0 0 0 0.5 0.5 0.5
          0.5 0 0 0 0.5 0.5
          0.5 0.5 0 0 0 0
          0.5 0.5 0.5 0.5 0.5 0.5
          0.75 0.5 0.375 0.875 1 0.5
          1 0.5 0.5 0.5 0 0.25
          0.5 0.5 0.25 0.5 0.5 0.5
          0.25 0.5 0.125 0.375 0.625 0.5
          0.25 0.75 0.75 0.5 1 1
          1 1 1 1 0.5 0.16666666666666666
          0.75 0.625 0.25 0.5 0.5 0.25
          0.375 0.75 0.5 1 0 0.25
          0 0.75 0.375 0.5 0.25 0.5
          0.875 0.625 0.5 0 0.75 0.5
          0 0 0.875 0.625 0 0.5
          0 0.75 0.5 0 0.5 0.5
          0.5 0.5 0.75 1 1 1
          1 1 1 0.5 0.5 0.5
          0.75 1 1 0 1 1
          1 1 1 1 1 1
          1 1 1 1 1 1
          1 1 1 1 1 1
          1 1 1 1 1 1
          1 1 1 1 1 1
          1 1 1 1 1 1
          1 1 1 1 1 1
          1 1 1 1 0 0
          0 0 0.5 0.5 0 1
          1 0.5 0.125 1 0.5 0
          1 0.5 1 1 1 1
          1 1 1 1 1 1
          1 1 1 1 1 1
          1 1 1 1 1 1
          1 0 0.5 1 1 0.5
          1 1 1 1 1 1
          1 1 1 1 1 1
          1 1 1 1 1 1
          1 1 1 1 1 1
          1 1 1 1 1 1
          1
        </DataArray>
        <DataArray type="Float64" Name="gradient_matprop_marker" format="ascii" RangeMin="0" RangeMax="0">
          0 0 0 0 0 0
          0 0 0 0 0 0
          0 0 0 0 0 0
          0 0 0 0 0 0
          0 0 0 0 0 0
          0 0 0 0 0 0
          0 0 0 0 0 0
          0 0 0 0 0 0
          0 0 0 0 0 0
          0 0 0 0 0 0
          0 0 0 0 0 0
          0 0 0 0 0 0
          0 0 0 0 0 0
          0 0 0 0 0 0
          0 0 0 0 0 0
          0 0 0 0 0 0
          0 0 0 0 0 0
          0 0 0 0 0 0
          0 0 0 0 0 0
          0 0 0 0 0 0
          0 0 0 0 0 0
          0 0 0 0 0 0
          0 0 0 0 0 0
          0 0 0 0 0 0
          0 0 0 0 0 0
          0 0 0 0 0 0
          0 0 0 0 0 0
          0 0 0 0 0 0
          0 0 0 0 0 0
          0 0 0 0 0 0
          0 0 0 0 0 0
          0 0 0 0 0 0
          0 0 0 0 0 0
          0 0 0 0 0 0
          0 0 0 0 0 0
          0 0 0 0 0 0
          0 0 0 0 0 0
          0 0 0 0 0 0
          0 0 0 0 0 0
          0 0 0 0 0 0
          0 0 0 0 0 0
          0 0 0 0 0 0
          0 0 0 0 0 0
          0 0 0 0 0 0
          0 0 0 0 0 0
          0 0 0 0 0 0
          0 0 0 0 0 0
          0 0 0 0 0 0
          0 0 0 0 0 0
          0 0 0 0 0 0
          0 0 0 0 0 0
          0 0 0 0 0 0
          0 0 0 0 0 0
          0 0 0 0 0 0
          0 0 0 0 0 0
          0 0 0 0 0 0
          0 0 0 0 0 0
          0 0 0 0 0 0
          0 0 0 0 0 0
          0 0 0 0 0 0
          0 0 0 0 0 0
          0 0 0 0 0 0
          0 0 0 0 0 0
          0 0 0 0 0 0
          0 0 0 0 0 0
          0 0 0 0 0 0
          0 0 0 0 0 0
          0 0 0 0 0 0
          0 0 0 0 0 0
          0 0 0 0 0 0
          0 0 0 0 0 0
          0 0 0 0 0 0
          0 0 0 0 0 0
          0 0 0 0 0 0
          0 0 0 0 0 0
          0 0 0 0 0 0
          0
        </DataArray>
        <DataArray type="Float64" Name="combo" format="ascii" RangeMin="0" RangeMax="2">
          0.75 0.75 1 1 0.6666666666666666 0
          0 0 0 0 0 0
          0 0.25 0.25 0.75 1 1
          0 0.25 1 0 0.125 0
          0 0.375 0.125 0.5 0.25 0.5
          0.25 0 0 0 0 0
          0 0 0 0 0 0
          0 0 0 0 0 0
          0 0 0 0 0 0
          0 0 0 0 0 0
          0.5 0.5 0.5 0.5 1 1
          1 0.5 0.5 1 0.5 0.5
          1 0.5 0 0 0 0
          0.5 0.5 1 1 0.5 0.5
          0.5 1 0.5 0 0 0
          0.5 0.5 1 1 0.5 1
          0.5 0.5 1 0.5 0 0
          0 0.5 1 0.5 0.5 1
          0.5 1 1 1 1 1
          1 1 1 1 1 1
          1 1 1 1 1 1
          1 1 1 0 0 0
          0 0.5 0.5 0.5 0.5 0.5
          0.5 0 0 0 0 0.5
          0.5 0.5 0.5 0.5 0.5 0
          0 0 0.5 0.5 0.5 1
          0.5 0 0 0 0.5 0.5
          0.5 0.5 1 0.75 1 1
          0.5 1 0 0 0.5 1
          0.5 1 1 1 1 1
          0 0 0 0.5 1 0.5
          0.5 1 0.5 0 0 0
          0.5 0.5 0.5 0.5 0 0
          0 0.5 1 0.5 0.5 1
          0.5 0 0 0 0.5 0.5
          0.5 0.5 0 0 0 0
          0.5 0.5 0.5 0.5 0.5 0.5
          0 0 0 0.5 0.5 0.5
          0.5 0 0 0 0.5 0.5
          0.5 0.5 0 0 0 0
          0.5 0.5 0.5 0.5 0.5 0.5
          0.75 0.5 0.375 0.875 1 0.5
          1 0.5 0.5 0.5 0 0.25
          0.5 0.5 0.25 0.5 0.5 0.5
          0.25 0.5 0.125 0.375 0.625 0.5
          0.25 0.75 0.75 0.5 1 1
          1 1 1 1 0.5 0.16666666666666666
          0.75 0.625 0.25 0.5 0.5 0.25
          0.375 0.75 0.5 1 0 0.25
          0 0.75 0.375 1.5 0.25 0.5
          0.875 0.625 0.5 0 0.75 0.5
          0 0 0.875 0.625 0 0.5
          0 0.75 0.5 0 0.5 0.5
          0.5 0.5 0.75 1 1 1
          1 1 1 0.5 0.5 0.5
          0.75 1 1 0 1 1
          1 1 1 1 1 1
          1 1 1 1 1 1
          1 1 1 1 1 1
          1 1 1 1 1 1
          1 1 1 1 1 1
          1 1 1 1 1 1
          1 1 1 1 1 1
          1 1 1 1 1 0.75
          0.3333333333333333 2 1.75 1.5 1.75 1.5
          1.5 1.25 1.375 1.375 0.875 0.6666666666666666
          1.125 0.5 1 1 1 1
          1.5 1.375 1.25 1.125 1.125 1
          1 1 1 1 1 1
          1 1 1 1 1 1
          1 0 0.5 1 1 0.5
          1 1 1 1 1 1
          1 1 1 1 1 1
          1 1 1 1 1 1
          1 1 1 1 1 1
          1 1 1 1 1 1
          1
        </DataArray>