<?xml version="1.0"?>
<VTKFile type="UnstructuredGrid" version="0.1" byte_order="LittleEndian" header_type="UInt32" compressor="vtkZLibDataCompressor">
  <UnstructuredGrid>
    <Piece NumberOfPoints="466" NumberOfCells="249">
      <PointData>
        <DataArray type="Int32" Name="libmesh_node_id" format="ascii" RangeMin="396" RangeMax="2381">
          396 505 510 511 671 673
          675 676 677 678 679 680
          681 683 684 685 686 687
          688 723 724 1093 1094 1095
          1096 1097 1098 1099 1100 1101
          1102 1110 1111 1112 1113 1114
          1115 1116 1117 1118 1119 1120
          1121 1122 1123 1124 1125 1126
          1127 1128 1129 1130 1131 1132
          1133 1134 1135 1136 1137 1138
          1139 1140 1141 1142 1143 1144
          1145 1146 1147 1148 1149 1150
          1151 1152 1153 1154 1155 1156
          1157 1158 1159 1160 1161 1162
          1163 1164 1165 1166 1167 1168
          1169 1170 1171 1172 1173 1174
          1175 1176 1177 1178 1179 1180
          1181 1182 1183 1184 1185 1186
          1187 1188 1189 1190 1191 1192
          1193 1194 1196 1197 1198 1216
          1217 1219 1254 1255 1256 1257
          1258 1259 1260 1261 1262 1263
          1810 1811 1812 1813 1814 1815
          1816 1817 1818 1819 1820 1821
          1822 1823 1824 1825 1826 1827
          1828 1829 1830 1831 1832 1833
          1834 1835 1836 1837 1838 1839
          1840 1841 1842 1843 1844 1845
          1846 1847 1848 1849 1850 1851
          1852 1853 1854 1855 1856 1857
          1858 1859 1860 1861 1862 1863
          1864 1865 1866 1867 1868 1869
          1870 1871 1872 1873 1874 1875
          1876 1877 1878 1879 1880 1881
          1882 1883 1884 1885 1886 1887
          1888 1889 1890 1891 1892 1893
          1894 1895 1896 1897 1898 1899
          1900 1901 1902 1903 1904 1905
          1906 1907 1908 1909 1910 1911
          1912 1913 1914 1915 1916 1917
          1918 1919 1920 1921 1922 1923
          1924 1925 1926 1927 1928 1929
          1930 1931 1932 1933 1934 1935
          1936 1937 1938 1939 1940 1941
          1942 1943 1944 1945 1946 1947
          1948 1949 1950 1951 1952 1953
          1954 1955 1956 1957 1958 1959
          1960 1961 1962 1963 1964 1965
          1966 1967 1968 1969 1970 1971
          1972 1973 1974 1975 1976 1977
          1978 1979 1980 1981 1982 1983
          1984 1985 1986 1987 1988 1989
          1990 1991 1992 1993 1994 1995
          1996 2033 2034 2035 2036 2255
          2256 2257 2258 2259 2260 2261
          2262 2263 2264 2271 2272 2273
          2274 2277 2278 2279 2284 2285
          2286 2287 2288 2289 2290 2291
          2292 2293 2294 2295 2296 2297
          2298 2299 2300 2301 2302 2303
          2304 2305 2306 2307 2308 2309
          2310 2311 2312 2313 2314 2315
          2316 2317 2318 2319 2320 2327
          2328 2330 2345 2355 2356 2359
          2361 2362 2364 2375 2379 669
          670 694 691 674 701 699
          503 682 703 693 704 506
          705 706 710 916 923 924
          917 502 665 926 927 929
          920 930 1083 1085 1086 1084
          1089 1091 1090 663 1059 1060
          1047 666 1061 1062 664 1088
          667 672 1080 1071 1104 1081
          1082 1106 1108 1053 1054 1055
          1058 1075 1076 1079 1264 2329
          2357 2358 1265 2360 1270 2363
          1271 2346 2376 2347 2377 1268
          2378 2380 2381 1273
        </DataArray>
        <DataArray type="Float64" Name="bounds" format="ascii" RangeMin="0" RangeMax="0">
          0 0 0 0 0 0
          0 0 0 0 0 0
          0 0 0 0 0 0
          0 0 0 0 0 0
          0 0 0 0 0 0
          0 0 0 0 0 0
          0 0 0 0 0 0
          0 0 0 0 0 0
          0 0 0 0 0 0
          0 0 0 0 0 0
          0 0 0 0 0 0
          0 0 0 0 0 0
          0 0 0 0 0 0
          0 0 0 0 0 0
          0 0 0 0 0 0
          0 0 0 0 0 0
          0 0 0 0 0 0
          0 0 0 0 0 0
          0 0 0 0 0 0
          0 0 0 0 0 0
          0 0 0 0 0 0
          0 0 0 0 0 0
          0 0 0 0 0 0
          0 0 0 0 0 0
          0 0 0 0 0 0
          0 0 0 0 0 0
          0 0 0 0 0 0
          0 0 0 0 0 0
          0 0 0 0 0 0
          0 0 0 0 0 0
          0 0 0 0 0 0
          0 0 0 0 0 0
          0 0 0 0 0 0
          0 0 0 0 0 0
          0 0 0 0 0 0
          0 0 0 0 0 0
          0 0 0 0 0 0
          0 0 0 0 0 0
          0 0 0 0 0 0
          0 0 0 0 0 0
          0 0 0 0 0 0
          0 0 0 0 0 0
          0 0 0 0 0 0
          0 0 0 0 0 0
          0 0 0 0 0 0
          0 0 0 0 0 0
          0 0 0 0 0 0
          0 0 0 0 0 0
          0 0 0 0 0 0
          0 0 0 0 0 0
          0 0 0 0 0 0
          0 0 0 0 0 0
          0 0 0 0 0 0
          0 0 0 0 0 0
          0 0 0 0 0 0
          0 0 0 0 0 0
          0 0 0 0 0 0
          0 0 0 0 0 0
          0 0 0 0 0 0
          0 0 0 0 0 0
          0 0 0 0 0 0
          0 0 0 0 0 0
          0 0 0 0 0 0
          0 0 0 0 0 0
          0 0 0 0 0 0
          0 0 0 0 0 0
          0 0 0 0 0 0
          0 0 0 0 0 0
          0 0 0 0 0 0
          0 0 0 0 0 0
          0 0 0 0 0 0
          0 0 0 0 0 0
          0 0 0 0 0 0
          0 0 0 0 0 0
          0 0 0 0 0 0
          0 0 0 0 0 0
          0 0 0 0 0 0
          0 0 0 0
        </DataArray>
        <DataArray type="Float64" Name="gradient_error" format="ascii" RangeMin="2.8434271441075312e-9" RangeMax="1.436206142574303e-7">
          5.5586463334068215e-9 5.349577589080378e-8 3.29946860873072e-9 1.293227926184923e-7 2.0983156954086182e-8 3.887444422597875e-8
          8.972189911063426e-8 7.668383299373833e-8 4.3015288233486476e-8 6.967853256522979e-8 4.465103021846338e-8 4.439206699947325e-8
          7.220264672006735e-8 1.012125946079292e-7 6.09579173951511e-8 4.788246131391855e-9 4.936579084582108e-8 5.492588535792674e-8
          1.2573086141227434e-7 7.360717214030448e-9 1.389891365956647e-8 3.4466345303046716e-8 4.0479593928168475e-8 2.261472758925849e-8
          3.162838731849102e-8 5.1201179490444554e-8 5.250364105156651e-8 2.901320545833547e-9 1.8354999389059187e-8 6.01460995101507e-9
          4.484496924520774e-8 5.0610468643812596e-8 5.671787256672071e-8 4.503699919576154e-8 4.871399705361681e-8 5.293267978688138e-8
          6.007498688040038e-8 4.759871205517074e-8 4.351431311794266e-8 4.1386818233676035e-8 5.589865090886784e-8 5.305888211744773e-8
          4.0693104060076724e-8 5.8125028803049896e-8 5.4725736890745755e-8 3.559189610603133e-8 4.5287208208221226e-8 4.575106308436726e-8
          3.967432687019983e-8 5.550890524501222e-8 6.049954792779655e-8 6.488246977699308e-8 4.076622455808682e-8 3.853108261917738e-8
          5.813033518504745e-8 5.435193070733369e-8 2.8499100582495536e-8 5.559020783602826e-8 5.171225113649812e-8 3.244635791432222e-8
          4.464437125847022e-8 4.193660223796237e-8 4.475650313826887e-8 6.359271869410516e-8 6.384950365403729e-8 7.241019976517705e-8
          2.8280283216134532e-8 3.49459407557597e-8 2.699989629781608e-8 3.4325583784293556e-8 2.463609756961581e-8 2.9536578421104563e-8
          2.8475486378294223e-8 4.964343655607795e-8 5.111478006175749e-8 4.099039077462362e-8 2.488681040893575e-8 3.262761130846041e-8
          1.8309252669170745e-8 3.0061201135061086e-8 2.1176845669494992e-8 2.6540006329600306e-8 2.081622926616225e-8 5.094053202813306e-8
          4.8974512812027865e-8 3.9598452764431214e-8 8.6607882531024e-9 2.7641326024531607e-8 1.0120356779658517e-8 3.116844134496492e-8
          5.9562642048972964e-8 6.589710814215226e-8 4.2009154289726794e-9 6.647824691721632e-9 7.789027347261381e-9 4.446426077489949e-8
          1.1808958354329858e-8 3.435143532506486e-8 1.3349401161436939e-8 3.649602934226974e-8 7.053483535179761e-8 7.237199212841594e-8
          5.20353872088989e-9 9.072238224437908e-9 1.0099543770011074e-8 5.306056416552467e-8 6.21260548119958e-8 6.610992163154868e-8
          5.1447506898576126e-8 5.269771550794405e-8 6.657683480722057e-8 7.164155441035341e-8 5.5351291520498345e-8 6.802413254033021e-8
          6.724468212457733e-8 5.207637136058047e-8 7.453561323237939e-8 7.444280401027954e-8 5.6859004182004115e-8 2.767863677298175e-8
          3.7077885241359e-8 3.9811783736287386e-8 1.4735897131538473e-8 2.6370931133575524e-8 1.5409359160630836e-8 1.554506139818659e-8
          4.261161503789409e-8 1.2314050286640767e-8 6.705899899168631e-9 1.1061829220353148e-8 1.1892827813827617e-8 3.473056185475315e-8
          9.617308829964127e-9 6.04043111519921e-9 5.772123859327634e-9 5.8289841864064666e-9 5.8858445134852995e-9 5.617537257613724e-9
          6.354329567430797e-9 6.3071594712134374e-9 6.587426821593992e-9 6.259989374996078e-9 9.837212431759147e-9 9.704552308575966e-9
          9.571892185392784e-9 6.270303456429782e-9 6.656528838099343e-9 7.77334650856702e-9 7.731369269046898e-9 7.935652049944982e-9
          8.38918241818529e-9 9.1657076981042e-9 8.358380518045685e-9 5.2968818149567785e-9 5.6807712092257244e-9 4.636933399491948e-9
          5.386844180453447e-9 6.0646606034946696e-9 6.761894340898836e-9 4.23943406248276e-9 5.0543829472380115e-9 4.186261539312903e-9
          5.869331831993263e-9 4.556865300268656e-9 5.234919003573681e-9 4.7830214928772445e-9 5.343570025566426e-9 6.997301639636933e-9
          7.0882341959311736e-9 2.8434271441075312e-9 3.813309169048019e-9 3.923018181876224e-9 6.263234010226966e-9 8.044879367294162e-9
          8.077585634721708e-9 8.15410668464334e-9 8.321170710369803e-9 8.843516366475573e-9 8.560710848344445e-9 9.414682899344408e-9
          8.253159002554318e-9 8.521325034846947e-9 8.76304117864321e-9 1.0209895444412991e-8 1.0060978321117006e-8 1.0940691443977311e-8
          9.912061197821022e-9 1.1932827260259265e-8 1.1796445224123644e-8 1.2591803600847286e-8 1.1660063187988024e-8 1.33983270786906e-8
          1.3290571699844449e-8 1.3909706475951923e-8 1.3182816320998296e-8 1.453756402218215e-8 1.4410312262149883e-8 1.4697249925637791e-8
          1.4283060502117616e-8 1.0129872524342792e-8 1.0074545039740585e-8 1.0736337244216259e-8 1.0778903153757885e-8 1.0019217555138377e-8
          1.0821469063299512e-8 8.212504207388997e-9 8.50844940499915e-9 9.008991293256172e-9 9.062853913487e-9 1.1384700207440873e-8
          1.1460595432406522e-8 1.2094977819014892e-8 1.217670596228684e-8 1.1536490657372173e-8 1.2258434105558785e-8 9.329300398599259e-9
          9.651545631775425e-9 1.0392456693332201e-8 1.0208943761653714e-8 9.813614258720308e-9 1.0488127957921774e-8 1.0047455982198218e-8
          1.120363157241587e-8 1.1934841774512362e-8 1.1728013589773778e-8 5.082432172731087e-9 5.651617857273407e-9 5.557741243675786e-9
          6.150672025520999e-9 7.380491226802471e-9 7.818930518014182e-9 3.789705534956772e-9 4.374448662912678e-9 4.900476328068108e-9
          6.2298885396023085e-9 6.169693184780014e-9 6.786151762208713e-9 6.7753659117899396e-9 7.442542985535603e-9 8.390310350676557e-9
          9.04931461412396e-9 4.51735872698399e-9 5.393957901555977e-9 5.861780908133196e-9 7.173664122250703e-9 9.36454857195759e-9
          9.949502881994869e-9 1.0188918232125964e-8 1.1004747535327586e-8 8.91548288519487e-9 9.410877806067963e-9 1.0330380482053709e-8
          1.0593438915746272e-8 1.1276012547278016e-8 1.1808867469776841e-8 1.2563115925589382e-8 9.983246259076675e-9 1.0617183320043674e-8
          1.1889721349779908e-8 1.2844989449549252e-8 1.2905830642695748e-8 1.3577561807733413e-8 1.3608590312114639e-8 1.2966671835842243e-8
          1.3639618816495863e-8 1.0969766330196346e-8 1.1195621832404966e-8 1.2005899530060079e-8 1.1624454243510696e-8 1.4250248274087899e-8
          1.42395131492232e-8 1.4856861044924028e-8 1.4783057272340067e-8 1.42287780243585e-8 1.4709253499756108e-8 1.2601327725761963e-8
          1.2780205394194375e-8 1.3522256891149853e-8 1.3153763355154873e-8 1.2653315334200266e-8 1.33733422297882e-8 1.3276222607095616e-8
          1.4060549402948207e-8 1.4642017209153895e-8 1.4577974865685367e-8 7.340143660395184e-9 8.08609823148466e-9 7.84244613930622e-9
          8.689107442543716e-9 9.753783139739594e-9 1.0461841976362808e-8 5.03240648080558e-9 6.3020423837064356e-9 6.673889973244628e-9
          8.44614858955624e-9 8.26621210104198e-9 9.225100800432907e-9 8.701767402630131e-9 9.736762046906135e-9 1.1131362658896947e-8
          1.1743635401783073e-8 5.292701276553683e-9 6.958504848773582e-9 7.297874930554905e-9 9.619328058361278e-9 1.1965533951496193e-8
          1.2663956432786881e-8 1.3255554426087336e-8 1.393999765862936e-8 1.1277752568792122e-8 1.1954570635785564e-8 1.3234886245079056e-8
          1.3344631560231814e-8 1.3929854414335096e-8 1.4610527302493567e-8 1.5144194716286188e-8 1.262871371751542e-8 1.3217691619516296e-8
          1.4643079739301766e-8 1.4827648062695365e-8 1.4649655320754752e-8 1.2659828348008873e-8 1.4471662578814136e-8 1.537978701040585e-8
          1.5189032365232853e-8 1.5653926129766935e-8 1.537930686158535e-8 1.4998277720059852e-8 1.4756966538982496e-8 1.4085162672452827e-8
          1.4222348932239957e-8 1.4853206037732646e-8 1.4530474248604033e-8 1.5187978878922083e-8 1.5345502445383116e-8 1.555315404153344e-8
          1.550610910294494e-8 1.5008429811117307e-8 1.4885719928784577e-8 1.514450726047668e-8 1.4769635833112168e-8 1.4529061098691912e-8
          1.2744140985308414e-8 9.187320865559198e-9 1.023748728624094e-8 9.652496345520029e-9 1.0687160516020008e-8 1.2303054881260708e-8
          1.2827031781251849e-8 6.136242344329078e-9 7.758686117712916e-9 8.166373654869607e-9 1.0572844820268145e-8 1.0146253911842207e-8
          1.1136832385114725e-8 1.0618439370376393e-8 1.1569372618772201e-8 1.332640524501464e-8 1.3694520085367189e-8 7.109354291113476e-9
          8.437530652664485e-9 8.661348339873124e-9 1.1503904897350037e-8 1.4338267717760792e-8 1.4584325561062558e-8 1.535807937992285e-8
          1.4397604271026223e-8 1.3668105624404277e-8 1.3970567295819941e-8 1.557165149936902e-8 1.4782178047146279e-8 1.4816681900422361e-8
          1.390773431426222e-8 1.3613119510066567e-8 1.4203064116386837e-8 1.4349482411556355e-8 1.4231063092354133e-8 1.539585272989772e-8
          1.5443806808765276e-8 1.5174035021711627e-8 1.3892839170865613e-8 1.0930381614820074e-8 1.1898913412668792e-8 1.3826164578347482e-8
          7.452907748487198e-9 8.944723576281727e-9 1.2227439938674099e-8 1.450759905455415e-8 1.4216483818570345e-8 1.0514071944037075e-7
          1.077652503182639e-7 1.1992037212313864e-7 1.2559046783140689e-7 1.2231949164541436e-7 1.399247355339363e-7 1.436206142574303e-7
          8.895949078288463e-8 7.622862223588232e-8 6.08476831965086e-8 7.374933654970254e-8 1.0565220629374823e-7 4.202682524137716e-8
          3.511144545625648e-8 5.501968172671858e-8 1.2592725182923072e-7 1.0108386826887346e-7 8.497558650426835e-8 7.43733513327719e-8
          8.96714615173558e-8 9.95493833171785e-8 8.668988045865798e-8 4.4706155034294375e-8 3.874540843527993e-8 4.8969244414152926e-8
          6.166609340683236e-8 2.7775070254933873e-8 3.862733294202634e-8 3.653666717731031e-8 4.34660525836263e-8 3.9577804592289445e-8
          3.598335578401866e-8 3.540985532212089e-8 3.8083072861620086e-8 4.981972368443986e-8 5.869538185344972e-8 5.747934115409172e-8
          4.9141652354799204e-8 5.028545212436682e-8 5.707007628430357e-8 5.2541248875904694e-8 4.591957436607688e-8 4.9337611342909556e-8
          5.8949189619949176e-8 4.9437600550892455e-8 4.332819281699962e-8 3.9334807255611306e-8 4.451371401565271e-8 4.689211839672624e-8
          3.783718833692356e-8 4.0842086455055385e-8 4.606491359633418e-8 4.0732144587000625e-8 5.214620577309486e-8 4.992497923522596e-8
          4.354938849428694e-8 2.873632087726658e-8 3.4579899708839006e-8 2.9764775126461205e-8 1.5111091165294547e-8 1.503502604644762e-8
          1.129398912478209e-8 1.2195071297653e-8 1.4486785204115044e-8 1.3733878015324439e-8 7.91008736733837e-9 9.475605929732595e-9
          1.243307306048754e-8 1.295272212031892e-8 1.3861920858237095e-8 1.1518059915589938e-8 1.2913865484063357e-8 1.0514314848639363e-8
          1.1939735703045755e-8 1.3736053191681113e-8 1.3254023895936303e-8 1.2324421871048836e-8
        </DataArray>
        <DataArray type="Float64" Name="gradient_matprop_error" format="ascii" RangeMin="0" RangeMax="0">
          0 0 0 0 0 0
          0 0 0 0 0 0
          0 0 0 0 0 0
          0 0 0 0 0 0
          0 0 0 0 0 0
          0 0 0 0 0 0
          0 0 0 0 0 0
          0 0 0 0 0 0
          0 0 0 0 0 0
          0 0 0 0 0 0
          0 0 0 0 0 0
          0 0 0 0 0 0
          0 0 0 0 0 0
          0 0 0 0 0 0
          0 0 0 0 0 0
          0 0 0 0 0 0
          0 0 0 0 0 0
          0 0 0 0 0 0
          0 0 0 0 0 0
          0 0 0 0 0 0
          0 0 0 0 0 0
          0 0 0 0 0 0
          0 0 0 0 0 0
          0 0 0 0 0 0
          0 0 0 0 0 0
          0 0 0 0 0 0
          0 0 0 0 0 0
          0 0 0 0 0 0
          0 0 0 0 0 0
          0 0 0 0 0 0
          0 0 0 0 0 0
          0 0 0 0 0 0
          0 0 0 0 0 0
          0 0 0 0 0 0
          0 0 0 0 0 0
          0 0 0 0 0 0
          0 0 0 0 0 0
          0 0 0 0 0 0
          0 0 0 0 0 0
          0 0 0 0 0 0
          0 0 0 0 0 0
          0 0 0 0 0 0
          0 0 0 0 0 0
          0 0 0 0 0 0
          0 0 0 0 0 0
          0 0 0 0 0 0
          0 0 0 0 0 0
          0 0 0 0 0 0
          0 0 0 0 0 0
          0 0 0 0 0 0
          0 0 0 0 0 0
          0 0 0 0 0 0
          0 0 0 0 0 0
          0 0 0 0 0 0
          0 0 0 0 0 0
          0 0 0 0 0 0
          0 0 0 0 0 0
          0 0 0 0 0 0
          0 0 0 0 0 0
          0 0 0 0 0 0
          0 0 0 0 0 0
          0 0 0 0 0 0
          0 0 0 0 0 0
          0 0 0 0 0 0
          0 0 0 0 0 0
          0 0 0 0 0 0
          0 0 0 0 0 0
          0 0 0 0 0 0
          0 0 0 0 0 0
          0 0 0 0 0 0
          0 0 0 0 0 0
          0 0 0 0 0 0
          0 0 0 0 0 0
          0 0 0 0 0 0
          0 0 0 0 0 0
          0 0 0 0 0 0
          0 0 0 0 0 0
          0 0 0 0
        </DataArray>
        <DataArray type="Float64" Name="initial_marker" format="ascii" RangeMin="0" RangeMax="2">
          2 1 2 2 2 2
          1 1 2 2 1 2
          2 2 2 2 2 2
          2 2 2 2 2 2
          2 2 2 2 2 2
          2 2 2 2 2 2
          2 2 2 2 2 2
          2 2 2 2 2 2
          2 2 2 2 2 2
          2 2 1.3333333333333333 2 2 2
          2 2 2 2 2 2
          1.5 1.75 2 2 1 1.5
          2 2 2 2 2 2
          1.3333333333333333 2 2 2 1.6666666666666667 2
          2 2 2 2 2 2
          2 2 2 2 2 2
          2 2 2 2 2 2
          2 2 2 2 2 2
          2 2 2 2 2 2
          2 2 2 2 2 2
          2 2 2 2 2 2
          2 2 2 2 2 2
          2 2 2 2 2 2
          2 2 2 2 2 2
          2 2 2 2 2 2
          2 2 2 2 2 2
          2 2 2 2 2 2
          2 2 2 2 2 2
          2 2 2 2 2 2
          2 2 2 2 2 2
          2 2 2 2 2 2
          2 2 2 2 2 2
          2 2 2 2 2 2
          2 2 2 2 2 2
          2 2 2 2 2 2
          2 2 2 2 2 2
          2 2 2 2 2 2
          2 2 2 2 2 2
          2 2 2 2 2 2
          2 2 2 2 2 2
          2 2 2 2 2 2
          2 2 2 2 2 2
          2 2 2 2 2 2
          2 2 2 2 2 2
          2 2 2 2 2 2
          2 2 2 2 2 2
          2 2 2 2 2 2
          2 2 2 2 2 2
          2 2 2 2 2 2
          2 2 2 2 2 2
          2 2 2 2 2 2
          2 2 2 2 2 2
          2 2 2 2 2 2
          2 2 2 2 2 2
          2 2 2 2 2 2
          2 2 2 2 2 2
          2 2 2 2 2 2
          2 2 2 2 2 2
          2 2 2 2 2 2
          2 2 2 2 2 2
          2 2 2 2 2 2
          2 2 2 2 2 2
          2 2 2 2 2 2
          2 2 2 2 2 2
          2 2 2 2 2 1.5
          1.75 0.75 0.5 2 1 1
          0.25 1 0.5 0.25 1 0.75
          0.25 0.5 1 0 0 0
          0 1 1 0 0 0
          0 0 2 2 2 2
          2 2 2 2 2 2
          2 2 2 2 2 2
          2 2 2 2 2 2
          2 2 2 2 2 2
          2 1 1.5 1 2 2
          2 2 2 2 2 2
          2 2 2 2 2 2
          2 2 2 2
        </DataArray>
        <DataArray type="Float64" Name="markers_norefine" format="ascii" RangeMin="0" RangeMax="2">
          2 0 2 0 1 0
          0 0 0 0 0 0
          0 0 0 2 1 1
          0 2 0 1 0.25 1.5
          0.75 0 0 2 1.5 2
          0 0 0 0 0 0
          0 0 0 0 0 0
          0 0 0 0 0 0
          0 0 0 0 0 0
          0 0 0 0 0 0
          0 0 0 0 0 0
          0 0 0 0 0 0
          0 0 0 0 0 0
          0 0 0 0 0 0
          0 0 2 1.5 2 1.5
          0 0 2 2 2 0.5
          2 1.5 2 1.5 0 0
          2 2 2 1 0 0
          0 0 0 0 0 0
          0 0 0 0 0 0
          0 0 2 1.25 1 0.75
          0 0 2 2 2 0
          0 0 1 0.5 0 1
          1 0.5 1.5 0 1 0.5
          0 2 2 1.6666666666666667 1 0
          0 0.5 0 1.5 1 2
          1.75 0.5 1.3333333333333333 2 1.5 2
          1 2 2 2 2 1.5
          1.75 2 2 2 2 0.5
          0 1 0.5 0.75 0 0
          1 1 0 0 0 0
          0 0 0 0 0 0
          0 0 0 0 0 0
          0 1 0.75 1 1 0.5
          1 2 1.75 2 1.6666666666666667 1
          1 1 1 1 1 2
          2 2 2 1 1 0
          1 1 0 2 2 2
          2 2 2 2 2 2
          2 2 2 2 2 2
          2 2 2 2 2 1
          1.25 0 0.5 1 1.5 0
          1.5 1.5 1 1 2 2
          2 1 1 1 1 1
          1 2 2 2 2 1
          1 1 1 1 1 2
          2 2 2 1 1 0
          1 1 0 2 2 2
          2 2 2 2 2 2
          2 2 2 2 2 2
          2 2 2 2 2 1.5
          1.5 1 1 2 2 2
          1.5 1.5 1 1 2 2
          2 0 0 0 0 1
          1 1 0.75 1 0.3333333333333333 2
          2 1.75 2 1.5 1.25 1
          1 1 0.6666666666666666 0 0.5 0.25
          0 2 2 2 2 2
          2 2 2 2 2 2
          2 2 2 2 1.75 2
          2 2 2 1.25 1 0.5
          0 1.5 1 1 1 0.75
          0 0 1 1 0 1
          0.75 0.25 0 2 1.75 1
          2 2 1.5 0.25 0.5 0
          0 0 0 0 0 0
          0 0 0 0 0 0
          0 0 0 0 0 0
          0 0 0 0 0 0
          0 0 0 0 0 0
          0 0 0 0 0 0
          0 0 0 0 0 0
          0 0 0 0 0 0
          0 0 0 0 0 0
          0 0 0 0 0.5 0.25
          1.5 1.25 0 0.5 2 2
          1 0 0 0 0 0
          0 0 0 0
        </DataArray>
        <DataArray type="Float64" Name="markers_mustrefine" format="ascii" RangeMin="0" RangeMax="2">
          2 1 2 2 2 2
          1 1 2 2 1 2
          2 2 2 2 2 2
          2 2 2 2 2 2
          2 2 2 2 2 2
          2 2 2 2 2 2
          2 2 2 2 2 2
          2 2 2 2 2 2
          2 2 2 2 2 2
          2 2 1.3333333333333333 2 2 2
          2 2 2 2 2 2
          1.5 1.75 2 2 1 1.5
          2 2 2 2 2 2
          1.3333333333333333 2 2 2 1.6666666666666667 2
          2 2 2 2 2 2
          2 2 2 2 2 2
          2 2 2 2 2 2
          2 2 2 2 2 2
          2 2 2 2 2 2
          2 2 2 2 2 2
          2 2 2 2 2 2
          2 2 2 2 2 2
          2 2 2 2 2 2
          2 2 2 2 2 2
          2 2 2 2 2 2
          2 2 2 2 2 2
          2 2 2 2 2 2
          2 2 2 2 2 2
          2 2 2 2 2 2
          2 2 2 2 2 2
          2 2 2 2 2 2
          2 2 2 2 2 2
          2 2 2 2 2 2
          2 2 2 2 2 2
          2 2 2 2 2 2
          2 2 2 2 2 2
          2 2 2 2 2 2
          2 2 2 2 2 2
          2 2 2 2 2 2
          2 2 2 2 2 2
          2 2 2 2 2 2
          2 2 2 2 2 2
          2 2 2 2 2 2
          2 2 2 2 2 2
          2 2 2 2 2 2
          2 2 2 2 2 2
          2 2 2 2 2 2
          2 2 2 2 2 2
          2 2 2 2 2 2
          2 2 2 2 2 2
          2 2 2 2 2 2
          2 2 2 2 2 2
          2 2 2 2 2 2
          2 2 2 2 2 2
          2 2 2 2 2 2
          2 2 2 2 2 2
          2 2 2 2 2 2
          2 2 2 2 2 2
          2 2 2 2 2 2
          2 2 2 2 2 2
          2 2 2 2 2 2
          2 2 2 2 2 2
          2 2 2 2 2 2
          2 2 2 2 2 2
          2 2 2 2 2 1.5
          1.75 0.75 0.5 2 1 1
          0.25 1 0.5 0.25 1 0.75
          0.25 0.5 1 0 0 0
          0 1 1 0 0 0
          0 0 2 2 2 2
          2 2 2 2 2 2
          2 2 2 2 2 2
          2 2 2 2 2 2
          2 2 2 2 2 2
          2 1 1.5 1 2 2
          2 2 2 2 2 2
          2 2 2 2 2 2
          2 2 2 2
        </DataArray>
        <DataArray type="Float64" Name="gradient_marker" format="ascii" RangeMin="0" RangeMax="1">
          0 0.5 0 1 0 0.5
          1 0.75 0.5 1 0.25 0.5
          1 0.75 0.5 0 0.5 0.5
          1 1 1 0.5 0.625 0.25
          0.375 0.875 0.75 0 0.25 0
          0.75 1 1 1 1 1
          1 1 1 1 1 1
          1 1 1 0.5 0.75 0.75
          0.5 0.75 0.75 1 1 0.75
          1 0.875 0.16666666666666666 0.75 0.625 0.25
          0.625 0.5 0.5 0.75 0.75 1
          0 0.25 0 0.25 0 0
          0 0.75 0.75 0.5 0 0.25
          0 0.25 0 0 0 0.75
          0.75 0.5 0 0.25 0 0.25
          0.75 0.75 0 0 0 0.5
          0 0.25 0 0.25 0.75 0.75
          0 0 0 0.5 1 1
          1 1 1 1 1 1
          1 1 1 1 1 0.25
          0.375 0.5 0 0.125 1 1
          0.375 1 0 0 1 0.25
          0 0 0 0 0 0
          0 0 0 0 0 0
          0 0 0 0 0 0
          0 0 0 0 0 0
          0 0 0 0 0 0
          0 0 0 0 0 0
          0 0 0 0 0 0
          0 0 0 0 0 0
          0 0 0 0 0 0
          0 0 0 0 0 0
          0 0 0 0 0 0
          0 0 0 0 0 0
          0 0 0 0 0 0
          0 0 0 0 0 0
          0 0 0 0 0 0
          0 0 0 0 0 0
          0 0 0 0 0 0
          0 0 0 0 0 0
          0 0 0 0 0 0
          0 0 0 0 0 0
          0 0 0 0 0 0
          0 0 0 0 0 0
          0 0 0 0 0 0
          0 0 0 0 0 0
          0 0 0 0 0 0
          0 0 0 0 0 0
          0 0 0 0 0 0
          0 0 0 0 0 0
          0 0 0 0 0 0
          0 0 0 0 0 0
          0 0 0 0 0 0
          0 0 0 0 0 0
          0 0 0 0 0 0
          0 0 0 0.5 0.5 1
          0.5 0 0 0 0.5 1
          0.5 0 0 0 0 0
          0 0 0 0 0 0.5
          0.5 1 1 0.5 1 0.5
          0.5 1 0.5 0 0 0
          0 0 0 0 0.5 1
          0.5 1 0.5 1 0.5 1
          1 1 1 1 1 1
          1 1 1 1 1 0.625
          0.75 1 1 1 1 1
          0.75 0.75 0.625 0.75 0.875 0.375
          0.25 0.375 1 1 0.75 0.625
          0.875 1 0.75 0.25 0.25 0.5
          0.625 0.25 0.25 0.5 0.75 0.375
          0 0.5 0.25 1 1 1
          1 0.75 0.875 1 1 1
          1 1 0.75 0.625 0.875 0.75
          0.5 0.75 1 1 1 1
          0.75 0 0.25 0 1 1
          1 1 1 1 1 1
          1 1 1 1 1 1
          1 1 1 1
        </DataArray>
        <DataArray type="Float64" Name="gradient_matprop_marker" format="ascii" RangeMin="0" RangeMax="0">
          0 0 0 0 0 0
          0 0 0 0 0 0
          0 0 0 0 0 0
          0 0 0 0 0 0
          0 0 0 0 0 0
          0 0 0 0 0 0
          0 0 0 0 0 0
          0 0 0 0 0 0
          0 0 0 0 0 0
          0 0 0 0 0 0
          0 0 0 0 0 0
          0 0 0 0 0 0
          0 0 0 0 0 0
          0 0 0 0 0 0
          0 0 0 0 0 0
          0 0 0 0 0 0
          0 0 0 0 0 0
          0 0 0 0 0 0
          0 0 0 0 0 0
          0 0 0 0 0 0
          0 0 0 0 0 0
          0 0 0 0 0 0
          0 0 0 0 0 0
          0 0 0 0 0 0
          0 0 0 0 0 0
          0 0 0 0 0 0
          0 0 0 0 0 0
          0 0 0 0 0 0
          0 0 0 0 0 0
          0 0 0 0 0 0
          0 0 0 0 0 0
          0 0 0 0 0 0
          0 0 0 0 0 0
          0 0 0 0 0 0
          0 0 0 0 0 0
          0 0 0 0 0 0
          0 0 0 0 0 0
          0 0 0 0 0 0
          0 0 0 0 0 0
          0 0 0 0 0 0
          0 0 0 0 0 0
          0 0 0 0 0 0
          0 0 0 0 0 0
          0 0 0 0 0 0
          0 0 0 0 0 0
          0 0 0 0 0 0
          0 0 0 0 0 0
          0 0 0 0 0 0
          0 0 0 0 0 0
          0 0 0 0 0 0
          0 0 0 0 0 0
          0 0 0 0 0 0
          0 0 0 0 0 0
          0 0 0 0 0 0
          0 0 0 0 0 0
          0 0 0 0 0 0
          0 0 0 0 0 0
          0 0 0 0 0 0
          0 0 0 0 0 0
          0 0 0 0 0 0
          0 0 0 0 0 0
          0 0 0 0 0 0
          0 0 0 0 0 0
          0 0 0 0 0 0
          0 0 0 0 0 0
          0 0 0 0 0 0
          0 0 0 0 0 0
          0 0 0 0 0 0
          0 0 0 0 0 0
          0 0 0 0 0 0
          0 0 0 0 0 0
          0 0 0 0 0 0
          0 0 0 0 0 0
          0 0 0 0 0 0
          0 0 0 0 0 0
          0 0 0 0 0 0
          0 0 0 0 0 0
          0 0 0 0
        </DataArray>
        <DataArray type="Float64" Name="combo" format="ascii" RangeMin="0" RangeMax="2">
          2 0.5 2 1 1 0.5
          1 0.75 0.5 1 0.25 0.5
          1 0.75 0.5 2 1.5 1.5
          1 2 1 1.5 0.875 1.75
          1.125 0.875 0.75 2 1.75 2
          0.75 1 1 1 1 1
          1 1 1 1 1 1
          1 1 1 0.5 0.75 0.75
          0.5 0.75 0.75 1 1 0.75
          1 0.875 0.16666666666666666 0.75 0.625 0.25
          0.625 0.5 0.5 0.75 0.75 1
          0 0.25 0 0.25 0 0
          0 0.75 0.75 0.5 0 0.25
          0 0.25 0 0 0 0.75
          0.75 0.5 2 1.75 2 1.75
          0.75 0.75 2 2 2 1
          2 1.75 2 1.75 0.75 0.75
          2 2 2 1.5 1 1
          1 1 1 1 1 1
          1 1 1 1 1 0.25
          0.375 0.5 2 1.375 1.5 1.375
          0.375 1 2 2 2 0.25
          0 0 1 0.5 0 1
          1 0.5 1.5 0 1 0.5
          0 2 2 1.6666666666666667 1 0
          0 0.5 0 1.5 1 2
          1.75 0.5 1.3333333333333333 2 1.5 2
          1 2 2 2 2 1.5
          1.75 2 2 2 2 0.5
          0 1 0.5 0.75 0 0
          1 1 0 0 0 0
          0 0 0 0 0 0
          0 0 0 0 0 0
          0 1 0.75 1 1 0.5
          1 2 1.75 2 1.6666666666666667 1
          1 1 1 1 1 2
          2 2 2 1 1 0
          1 1 0 2 2 2
          2 2 2 2 2 2
          2 2 2 2 2 2
          2 2 2 2 2 1
          1.25 0 0.5 1 1.5 0
          1.5 1.5 1 1 2 2
          2 1 1 1 1 1
          1 2 2 2 2 1
          1 1 1 1 1 2
          2 2 2 1 1 0
          1 1 0 2 2 2
          2 2 2 2 2 2
          2 2 2 2 2 2
          2 2 2 2 2 1.5
          1.5 1 1 2 2 2
          1.5 1.5 1 1 2 2
          2 0 0 0 0 1
          1 1 0.75 1 0.3333333333333333 2
          2 1.75 2 1.75 1.5 1.5
          1.25 1 0.6666666666666666 0 0.875 1.125
          0.5 2 2 2 2 2
          2 2 2 2 2 2
          2 2 2 2 1.875 2
          2 2 2 1.25 1 0.5
          0 1.5 1 1 1.25 1.375
          0.5 1 1.25 1.5 0.5 1.5
          1.375 1.125 1 2 1.875 1.5
          2 2 1.75 1.125 1.25 0.625
          0.75 1 1 1 1 1
          0.75 0.75 0.625 0.75 0.875 0.375
          0.25 0.375 1 1 0.75 0.625
          0.875 1 0.75 0.25 0.25 0.5