<?xml version="1.0"?>
<VTKFile type="UnstructuredGrid" version="0.1" byte_order="LittleEndian" header_type="UInt32" compressor="vtkZLibDataCompressor">
  <UnstructuredGrid>
    <Piece NumberOfPoints="401" NumberOfCells="243">
      <PointData>
        <DataArray type="Int32" Name="libmesh_node_id" format="ascii" RangeMin="516" RangeMax="2892">
          516 524 717 718 719 725
          727 729 730 737 738 1220
          1221 1222 1223 1224 1225 1226
          1227 1228 1229 1230 1231 1232
          1233 1264 1265 1266 1267 1268
          1269 1270 1271 1272 1273 1288
          1289 1290 1291 1292 1293 1294
          1295 1296 1298 1299 1300 1301
          1316 1336 1337 1338 1339 1340
          1341 1342 1343 1344 1345 1717
          1718 1720 1721 1723 1724 1741
          1742 1744 1745 1747 1760 2061
          2062 2063 2066 2069 2071 2072
          2073 2074 2075 2076 2077 2078
          2079 2080 2081 2082 2083 2084
          2087 2088 2091 2093 2095 2096
          2097 2098 2099 2100 2101 2102
          2103 2104 2107 2108 2110 2113
          2115 2116 2117 2118 2119 2120
          2121 2122 2123 2124 2126 2128
          2130 2132 2133 2134 2135 2136
          2137 2138 2323 2324 2326 2329
          2331 2332 2333 2334 2335 2336
          2337 2338 2339 2340 2342 2344
          2346 2348 2349 2350 2351 2352
          2353 2354 2357 2358 2360 2363
          2365 2366 2367 2368 2369 2370
          2371 2372 2373 2374 2376 2378
          2380 2382 2383 2384 2385 2386
          2387 2388 2485 2486 2487 2488
          2489 2490 2491 2492 2493 2494
          2495 2496 2497 2498 2499 2500
          2501 2502 2503 2504 2505 2506
          2507 2508 2509 2510 2511 2512
          2513 2514 2515 2516 2517 2518
          2519 2520 2521 2522 2523 2524
          2525 2526 2527 2528 2530 2531
          2532 2533 2534 2535 2536 2537
          2538 2539 2540 2541 2542 2543
          2544 2545 2546 2547 2548 2549
          2550 2551 2552 2553 2554 2555
          2556 2557 2558 2559 2560 2561
          2562 2563 2564 2565 2566 2567
          2568 2574 2595 2649 2650 2651
          2652 2656 2657 2659 2660 2666
          2764 2765 2766 2767 2768 2769
          2770 2771 2772 2773 2774 2775
          2776 2777 2778 2779 2780 2781
          2782 2783 2784 2785 2786 2787
          2788 2789 2790 2791 2792 2793
          2794 2795 2796 2797 2798 2799
          2800 2801 2802 2803 2804 2805
          2806 2807 2808 2809 2810 2811
          2812 2813 2814 2815 2816 2817
          2818 2819 2820 2821 2822 2823
          2824 2825 2826 2827 2828 2829
          2830 2831 1748 728 1751 1752
          1302 1303 1757 1309 1762 1318
          2529 1297 2569 2570 2571 2572
          2573 2575 2576 2577 2578 2580
          2596 2597 2598 2599 2600 2601
          2602 2604 2615 2616 2619 2621
          2622 2624 2635 2637 2639 2641
          2661 2662 2667 2832 2833 2836
          2838 2839 2841 2852 2854 2856
          2858 2866 2867 2870 2872 2873
          2875 2886 2888 2890 2892
        </DataArray>
        <DataArray type="Float64" Name="bounds" format="ascii" RangeMin="0" RangeMax="0">
          0 0 0 0 0 0
          0 0 0 0 0 0
          0 0 0 0 0 0
          0 0 0 0 0 0
          0 0 0 0 0 0
          0 0 0 0 0 0
          0 0 0 0 0 0
          0 0 0 0 0 0
          0 0 0 0 0 0
          0 0 0 0 0 0
          0 0 0 0 0 0
          0 0 0 0 0 0
          0 0 0 0 0 0
          0 0 0 0 0 0
          0 0 0 0 0 0
          0 0 0 0 0 0
          0 0 0 0 0 0
          0 0 0 0 0 0
          0 0 0 0 0 0
          0 0 0 0 0 0
          0 0 0 0 0 0
          0 0 0 0 0 0
          0 0 0 0 0 0
          0 0 0 0 0 0
          0 0 0 0 0 0
          0 0 0 0 0 0
          0 0 0 0 0 0
          0 0 0 0 0 0
          0 0 0 0 0 0
          0 0 0 0 0 0
          0 0 0 0 0 0
          0 0 0 0 0 0
          0 0 0 0 0 0
          0 0 0 0 0 0
          0 0 0 0 0 0
          0 0 0 0 0 0
          0 0 0 0 0 0
          0 0 0 0 0 0
          0 0 0 0 0 0
          0 0 0 0 0 0
          0 0 0 0 0 0
          0 0 0 0 0 0
          0 0 0 0 0 0
          0 0 0 0 0 0
          0 0 0 0 0 0
          0 0 0 0 0 0
          0 0 0 0 0 0
          0 0 0 0 0 0
          0 0 0 0 0 0
          0 0 0 0 0 0
          0 0 0 0 0 0
          0 0 0 0 0 0
          0 0 0 0 0 0
          0 0 0 0 0 0
          0 0 0 0 0 0
          0 0 0 0 0 0
          0 0 0 0 0 0
          0 0 0 0 0 0
          0 0 0 0 0 0
          0 0 0 0 0 0
          0 0 0 0 0 0
          0 0 0 0 0 0
          0 0 0 0 0 0
          0 0 0 0 0 0
          0 0 0 0 0 0
          0 0 0 0 0 0
          0 0 0 0 0
        </DataArray>
        <DataArray type="Float64" Name="gradient_error" format="ascii" RangeMin="2.0479901709178846e-10" RangeMax="1.5111091165294547e-8">
          3.406786645768752e-9 9.78692718154014e-9 2.5490715864009368e-9 7.3007061991203366e-9 4.477761476674975e-9 9.739573974024351e-9
          1.2072215085828742e-9 3.2734797009654398e-9 1.865124360633342e-9 6.126327918376605e-9 4.650168393823221e-9 5.181530878590929e-9
          4.834559440303985e-9 4.0596366296351264e-9 3.6974762185795146e-9 3.1664797515701964e-9 2.9292824151222926e-9 2.646566672605309e-9
          3.934138563473928e-9 2.8058355116044673e-9 1.9628798375347353e-9 9.525423317027713e-9 8.429198064139104e-9 6.443543897745725e-9
          5.969318484865658e-9 1.5111091165294547e-8 1.4486785204115044e-8 1.3247143292519178e-8 1.2011183409930894e-8 1.0514314848639363e-8
          8.165283399342314e-9 7.91008736733837e-9 1.243307306048754e-8 1.189375977345213e-8 1.2324421871048836e-8 2.10284619648462e-9
          1.9500774479841947e-9 1.926078094076434e-9 1.7278193408643122e-9 1.1187996469253076e-9 1.1437517145850318e-9 1.020572446692688e-9
          1.5581046005411422e-9 1.256049011191657e-9 5.154055871229975e-9 4.514915325444741e-9 2.8373761282358983e-9 3.051695526397621e-9
          1.308979243547767e-9 9.727442872098365e-9 8.6747047960682e-9 6.539669001962188e-9 5.7918180685804955e-9 5.829453868252729e-9
          3.755371132188641e-9 8.553241432261352e-9 9.081018406288766e-9 6.276633967537248e-9 7.024421294063327e-9 5.845532250956793e-9
          5.491202424549949e-9 3.803281212761494e-9 3.5624731219468116e-9 4.56038941311281e-9 2.932667900220493e-9 2.338281068224239e-9
          2.186696759429205e-9 1.3510440767374701e-9 1.2632928898869918e-9 1.7901055344628213e-9 1.2845272199841046e-9 1.9668094840211035e-9
          2.5950946043274804e-9 2.5395273771834675e-9 2.3804844012879676e-9 3.9656876987783455e-9 1.6662627667969074e-9 1.6306193398642583e-9
          2.1816247092774017e-9 2.1329742191276108e-9 1.326371971229493e-9 1.7972049239898266e-9 1.7557281778072272e-9 1.5291774894257541e-9
          1.99415118507925e-9 1.6376032631088428e-9 3.4858442228465235e-9 3.4016081153882705e-9 2.85568361496608e-9 3.161750370581575e-9
          1.6695444373924032e-9 2.1393961330988032e-9 1.8442701491593383e-9 3.2930769083752167e-9 1.3765546678295898e-9 1.784784283154091e-9
          1.1143228551125792e-9 1.4601720679004643e-9 1.187524976346461e-9 1.5297011008228068e-9 1.2454621606759506e-9 2.801747534485804e-9
          2.3340666719412947e-9 2.3708921097329075e-9 6.2421947175453286e-9 6.080885922907538e-9 5.625659545292837e-9 9.23601222344834e-9
          5.4637101117861164e-9 5.3182015637174825e-9 4.682459737422841e-9 4.553009557671008e-9 4.906341622802679e-9 4.186938354670554e-9
          8.423892773097002e-9 8.163781165875992e-9 7.0746813601597175e-9 7.4420755999180966e-9 4.950773812394532e-9 4.153104865343112e-9
          7.272757838747306e-9 4.2950503444469216e-9 3.6454231320645627e-9 3.575528183450611e-9 3.012475882464467e-9 6.405876210542483e-9
          5.5275494995452155e-9 5.2267611983038085e-9 1.3524004977502898e-8 1.314244907780715e-8 1.2014258921149646e-8 1.503502604644762e-8
          1.2251628598771356e-8 1.1870908926808225e-8 1.076710825775832e-8 1.0410924119182865e-8 1.0771343555421756e-8 9.40610539277629e-9
          1.443966485370974e-8 1.4251079623253142e-8 1.2971396413774941e-8 1.3446527821198058e-8 1.0269264878247771e-8 8.238409850190222e-9
          1.295272212031892e-8 9.135628448257471e-9 7.951087844165646e-9 7.289530378115095e-9 6.319945537135632e-9 1.1727965657150744e-8
          1.0297378276499476e-8 9.367482383226081e-9 1.129398912478209e-8 1.2195071297653e-8 1.3733878015324439e-8 9.475605929732595e-9
          1.1748939406665936e-8 1.2421471601442036e-8 1.1801937623281943e-8 1.2166760876928732e-8 1.3355782435446908e-8 1.2438294348429166e-8
          8.926739186898184e-9 1.0223555473291643e-8 1.06429507141487e-8 1.2425352524679974e-8 1.3861920858237095e-8 1.1939735703045755e-8
          1.3736053191681113e-8 1.2857742423606672e-8 1.1470478492892237e-8 1.0723366164237864e-8 9.376646142461209e-9 1.2898677526742658e-8
          1.1622011322961268e-8 1.11184552943807e-8 1.0802894792871134e-9 1.0560600727351991e-9 1.4480365904500539e-9 1.4136774656471704e-9
          8.242429817182564e-10 1.140953473077941e-9 1.1132628386534688e-9 9.867363140983622e-10 1.3157136037281809e-9 1.0342448201872399e-9
          2.4048373047139858e-9 2.342212861084983e-9 1.874292066383019e-9 2.16468040010485e-9 6.43878394957679e-10 6.289968098394459e-10
          8.78217602071802e-10 8.564699939953252e-10 4.708936141132414e-10 6.609136512657598e-10 6.443011302892335e-10 5.86377239592143e-10
          7.9458224406963e-10 5.971671792130733e-10 1.5036989440697093e-9 1.4621733521198831e-9 1.1114897838805035e-9 1.3449565983187734e-9
          8.823323291698061e-10 1.1687963088828759e-9 6.856671330443968e-10 9.158595681656084e-10 7.568423379334532e-10 9.931057076716754e-10
          7.757894399298954e-10 1.900619692339397e-9 1.5109074364686389e-9 1.5888340629066147e-9 5.223416753575792e-10 7.021792317830422e-10
          3.9087179615031195e-10 5.27014258577095e-10 4.4616531098894386e-10 5.925451071575493e-10 1.1719647531042538e-9 8.867724411046409e-10
          9.694654086103196e-10 3.919109679025895e-9 3.806399406785919e-9 3.1970090622993452e-9 3.1016166068726136e-9 3.4886034661162676e-9
          2.8334398433498356e-9 6.2036842580332406e-9 6.0085573999251515e-9 4.986206885365318e-9 5.460490279374716e-9 2.5381438181679436e-9
          2.459838791392357e-9 1.9588133335021602e-9 1.896576746939443e-9 2.240255564312802e-9 1.7225289321888552e-9 4.168802316871567e-9
          4.027384347855647e-9 3.1582602280589353e-9 3.632039848929289e-9 3.021059277993477e-9 2.4409065679350356e-9 2.4786224228549224e-9
          1.9886205789460013e-9 4.660273513564718e-9 3.829460934078521e-9 3.744737066902622e-9 1.9204531728528307e-9 1.4703373605909888e-9
          1.5545045506665878e-9 1.1836004983715313e-9 3.0613471981790338e-9 2.377377088158248e-9 2.419842671746719e-9 3.520842865055281e-10
          3.438347627901801e-10 3.2028588553858785e-10 2.850885037059053e-10 6.283624924815042e-10 8.105799099474838e-10 4.898095284146539e-10
          6.281163123832675e-10 1.2710782871062786e-9 9.965123224693586e-10 3.71140081028403e-10 4.751836472744135e-10 7.608775795475131e-10
          9.200875881013377e-9 8.891998802928576e-9 7.695888957295182e-9 7.4390697349156075e-9 8.02755912562741e-9 6.714089024929732e-9
          1.1571204222688423e-8 1.1271351152620704e-8 9.46806093043136e-9 1.0335706333608181e-8 6.318551977694598e-9 6.102797327821817e-9
          5.0587521577553795e-9 4.8771926227806035e-9 5.490327783654726e-9 4.364859213598652e-9 8.029265727642843e-9 7.816404263290133e-9
          6.356341057425448e-9 7.160686202156883e-9 6.7769303935175255e-9 5.6491694992428e-9 5.35846501461591e-9 4.430684458041569e-9
          8.814175906416669e-9 7.397401564297932e-9 6.974298634566241e-9 4.588492581082698e-9 3.6188423663568008e-9 3.563807343070942e-9
          2.783153602234157e-9 6.0845302689582835e-9 4.873394633603188e-9 4.748782819240713e-9 1.0964158307752352e-8 1.1095570506256274e-8
          9.472050268406521e-9 9.507546973528299e-9 1.095403222314332e-8 9.260707753570581e-9 9.624619866324946e-9 1.0114989463239007e-8
          8.841629561862328e-9 1.0663326496956494e-8 7.92423138542059e-9 7.927349744572296e-9 6.582672548771843e-9 6.5657072215679114e-9
          7.692628960780559e-9 6.322925731704459e-9 7.270877194583952e-9 7.45199097919282e-9 6.244479690311365e-9 7.5738465672334e-9
          9.871624297892251e-9 8.307129839782459e-9 8.02726874682539e-9 6.748096785897968e-9 1.0044350002760889e-8 8.464923947517225e-9
          8.342341917251387e-9 6.8869453044808074e-9 5.591430148064738e-9 5.548604671036792e-9 4.432552406696787e-9 7.038114464558037e-9
          5.74928814529678e-9 5.796576233679299e-9 1.0320186885420258e-9 8.901715487206955e-10 7.285702871632739e-10 6.81538957667293e-10
          6.44540596387787e-10 5.97392621188609e-10 5.598925603111833e-10 4.778122947080051e-10 7.437079070151321e-10 9.982014611830521e-10
          4.433873806411577e-10 7.305868672030281e-10 4.854417812450503e-10 4.731412216674019e-10 2.4701654612803825e-10 3.4908940344643023e-10
          3.402232387465613e-10 4.3823189146370146e-10 3.1504064211142167e-10 8.477583234520019e-10 8.234648008711941e-10 7.551095264179501e-10
          3.863051980069231e-10 2.0479901709178846e-10 2.775920701409706e-10 2.429051569507885e-10 3.2464655810752686e-10 2.332601575023525e-10
          6.547663990894657e-10 5.380331819577213e-10 1.4684926637876613e-9 1.4207260557335982e-9 1.2874672341925965e-9 2.491540358481695e-9
          2.400942314707964e-9 2.1495359502910104e-9 1.09523625413207e-9 8.779146222342544e-10 1.7916025444328748e-9 1.3966516061608563e-9
          2.7623631500410607e-10 3.5423750898868095e-10 5.695299590793643e-10 3.922054596552503e-9 3.774379635163057e-9 3.360582719166163e-9
          5.189753364022507e-9 5.028581821733301e-9 4.543671040454045e-9 2.7651035183999017e-9 2.1074141005836098e-9 3.779565415647342e-9
          2.876128438810478e-9 5.396118138695415e-9 5.346017041385668e-9 5.0666792626538114e-9 5.134025982143323e-9 5.178715270484352e-9
          5.089003295087946e-9 4.398715560906732e-9 3.4272520600474738e-9 4.5537638408459815e-9 3.6099230711368304e-9
        </DataArray>
        <DataArray type="Float64" Name="gradient_matprop_error" format="ascii" RangeMin="0" RangeMax="0">
          0 0 0 0 0 0
          0 0 0 0 0 0
          0 0 0 0 0 0
          0 0 0 0 0 0
          0 0 0 0 0 0
          0 0 0 0 0 0
          0 0 0 0 0 0
          0 0 0 0 0 0
          0 0 0 0 0 0
          0 0 0 0 0 0
          0 0 0 0 0 0
          0 0 0 0 0 0
          0 0 0 0 0 0
          0 0 0 0 0 0
          0 0 0 0 0 0
          0 0 0 0 0 0
          0 0 0 0 0 0
          0 0 0 0 0 0
          0 0 0 0 0 0
          0 0 0 0 0 0
          0 0 0 0 0 0
          0 0 0 0 0 0
          0 0 0 0 0 0
          0 0 0 0 0 0
          0 0 0 0 0 0
          0 0 0 0 0 0
          0 0 0 0 0 0
          0 0 0 0 0 0
          0 0 0 0 0 0
          0 0 0 0 0 0
          0 0 0 0 0 0
          0 0 0 0 0 0
          0 0 0 0 0 0
          0 0 0 0 0 0
          0 0 0 0 0 0
          0 0 0 0 0 0
          0 0 0 0 0 0
          0 0 0 0 0 0
          0 0 0 0 0 0
          0 0 0 0 0 0
          0 0 0 0 0 0
          0 0 0 0 0 0
          0 0 0 0 0 0
          0 0 0 0 0 0
          0 0 0 0 0 0
          0 0 0 0 0 0
          0 0 0 0 0 0
          0 0 0 0 0 0
          0 0 0 0 0 0
          0 0 0 0 0 0
          0 0 0 0 0 0
          0 0 0 0 0 0
          0 0 0 0 0 0
          0 0 0 0 0 0
          0 0 0 0 0 0
          0 0 0 0 0 0
          0 0 0 0 0 0
          0 0 0 0 0 0
          0 0 0 0 0 0
          0 0 0 0 0 0
          0 0 0 0 0 0
          0 0 0 0 0 0
          0 0 0 0 0 0
          0 0 0 0 0 0
          0 0 0 0 0 0
          0 0 0 0 0 0
          0 0 0 0 0
        </DataArray>
        <DataArray type="Float64" Name="initial_marker" format="ascii" RangeMin="0" RangeMax="2">
          1 2 1 2 2 2
          1 2 2 2 2 1
          1 2 2 1 2 2
          1 2 2 2 2 2
          2 2 2 2 2 2
          2 2 2 2 2 1
          1 2 2 1 2 2
          0.5 2 2 2 2 2
          0 2 2 2 2 2
          2 2 2 2 2 0
          0 0 0 0 0 0
          0 0 0 0 0 2
          2 2 2 2 2 2
          2 2 2 2 2 2
          2 2 2 2 2 2
          2 2 2 2 2 2
          2 2 2 2 2 2
          2 2 2 2 2 2
          2 2 2 2 2 2
          2 2 2 2 2 2
          2 2 2 2 2 2
          2 2 2 2 2 2
          2 2 2 2 2 2
          2 2 2 2 2 2
          2 2 2 2 2 2
          2 2 2 2 2 2
          2 2 2 2 2 2
          2 2 2 2 2 2
          2 2 2 2 2 2
          2 2 2 2 2 2
          2 2 2 2 2 2
          2 2 2 2 2 2
          2 2 2 2 2 2
          2 2 2 2 2 2
          2 2 2 2 1.5 1.75
          1.5 2 2 2 2 2
          2 2 1 1.5 2 2
          2 2 2 2 2 2
          2 2 2 2 2 2
          2 2 2 2 2 2
          2 2 2 2 2 2
          2 2 2 2 2 2
          2 2 2 2 2 2
          2 2 1.5 0.5 1.25 0
          1 2 2 0 1 2
          2 2 2 2 2 2
          2 2 2 2 2 2
          2 2 2 2 2 2
          2 2 2 2 2 2
          2 2 2 2 2 2
          2 2 2 2 2 2
          2 2 2 2 2 2
          2 2 2 2 2 2
          2 2 2 2 2 2
          2 2 2 2 2 2
          2 2 2 2 2 2
          2 2 0 0.5 0 0
          1 0.75 0 0 0 0
          1.5 2 2 2 2 2
          2 2 1.75 2 2 2
          1.75 0.5 1.25 0.5 1.25 1
          2 2 2 2 2 2
          2 2 2 2 2 2
          0 1 2 2 2 2
          2 2 2 2 2 2
          2 2 2 2 2 2
          2 2 2 2 2
        </DataArray>
        <DataArray type="Float64" Name="markers_norefine" format="ascii" RangeMin="0" RangeMax="2">
          0 0 0 0 0 0
          0 0 0 0 0 0
          0 0 0 0 0 0
          0 0 0 0 0 0
          0 0.5 0 0 0 0
          0 2 1 0 0 0
          0 0 0 0 0 0
          0 0 0 0 0 0
          0 0 0 0 0 0
          0 0 0 0 0 0
          0 0 0 0 0 0
          0 0 0 0 0 0
          0 0 0 0 0 0
          0 0 0 0 0 0
          0 0 0 0 0 0
          0 0 0 0 0 0
          0 0 0 0 0 0
          0 0 0 0 0 0
          0 0 0 0 0 0
          0 0 0 0 0 0
          0 0 0 0 0 0
          0 0 0 0 0 0.25
          0 0 0 0 0 0
          0 0 0 0 0 0
          0 0 0 0 0 0
          0 0 1.5 1.25 0.5 2
          0.5 0.5 0 0 0.25 0
          1 1 0 0.5 0 0
          0 0 0 0 0 0
          0 0 0 0 0 0
          0 0 0 0 0 0
          0 0 0 0 0 0
          0 0 0 0 0 0
          0 0 0 0 0 0
          0 0 0 0 0 0
          0 0 0 0 0 0
          0 0 0 0 0 0
          0 0 0 0 0 0
          0 0 0 0 0 0
          0 0 0 0 0 0
          0 0 0 0 0 0
          0 0 0 0 0 0
          0 0 0 0 0 0
          0 0 0 0 0 0
          0 0 0 0 0 0
          0 0 0 0 0 0
          0 0 0 0 0 0
          0 0 0 0 0 0
          0 0 0 0 0 0
          0 0 0 0 0 0
          0 0 0 0 0 0
          0 0 0 0 0 0
          0 0 0 0 0 0
          0 0 0 0 0 0
          0 0 0 0 0 0
          0 0 0 0 0 0
          0 0 0 0 0 0
          0 0 0 0 0 0
          0 0 0 0 0 0
          0 0 0 0 0 0
          0 0 0 0 0 0
          0 0 0 0 0 0
          0 0 0 0 0 0
          0 0 0 0 0 0
          0 0 0 0 0 0
          0 0 0 0 0 0
          0 0 0 0 0
        </DataArray>
        <DataArray type="Float64" Name="markers_mustrefine" format="ascii" RangeMin="0" RangeMax="2">
          1 2 1 2 2 2
          1 2 2 2 2 1
          1 2 2 1 2 2
          1 2 2 2 2 2
          2 2 2 2 2 2
          2 2 2 2 2 1
          1 2 2 1 2 2
          0.5 2 2 2 2 2
          0 2 2 2 2 2
          2 2 2 2 2 0
          0 0 0 0 0 0
          0 0 0 0 0 2
          2 2 2 2 2 2
          2 2 2 2 2 2
          2 2 2 2 2 2
          2 2 2 2 2 2
          2 2 2 2 2 2
          2 2 2 2 2 2
          2 2 2 2 2 2
          2 2 2 2 2 2
          2 2 2 2 2 2
          2 2 2 2 2 2
          2 2 2 2 2 2
          2 2 2 2 2 2
          2 2 2 2 2 2
          2 2 2 2 2 2
          2 2 2 2 2 2
          2 2 2 2 2 2
          2 2 2 2 2 2
          2 2 2 2 2 2
          2 2 2 2 2 2
          2 2 2 2 2 2
          2 2 2 2 2 2
          2 2 2 2 2 2
          2 2 2 2 1.5 1.75
          1.5 2 2 2 2 2
          2 2 1 1.5 2 2
          2 2 2 2 2 2
          2 2 2 2 2 2
          2 2 2 2 2 2
          2 2 2 2 2 2
          2 2 2 2 2 2
          2 2 2 2 2 2
          2 2 1.5 0.5 1.25 0
          1 2 2 0 1 2
          2 2 2 2 2 2
          2 2 2 2 2 2
          2 2 2 2 2 2
          2 2 2 2 2 2
          2 2 2 2 2 2
          2 2 2 2 2 2
          2 2 2 2 2 2
          2 2 2 2 2 2
          2 2 2 2 2 2
          2 2 2 2 2 2
          2 2 2 2 2 2
          2 2 0 0.5 0 0
          1 0.75 0 0 0 0
          1.5 2 2 2 2 2
          2 2 1.75 2 2 2
          1.75 0.5 1.25 0.5 1.25 1
          2 2 2 2 2 2
          2 2 2 2 2 2
          0 1 2 2 2 2
          2 2 2 2 2 2
          2 2 2 2 2 2
          2 2 2 2 2
        </DataArray>
        <DataArray type="Float64" Name="gradient_marker" format="ascii" RangeMin="1" RangeMax="1">
          1 1 1 1 1 1
          1 1 1 1 1 1
          1 1 1 1 1 1
          1 1 1 1 1 1
          1 1 1 1 1 1
          1 1 1 1 1 1
          1 1 1 1 1 1
          1 1 1 1 1 1
          1 1 1 1 1 1
          1 1 1 1 1 1
          1 1 1 1 1 1
          1 1 1 1 1 1
          1 1 1 1 1 1
          1 1 1 1 1 1
          1 1 1 1 1 1
          1 1 1 1 1 1
          1 1 1 1 1 1
          1 1 1 1 1 1
          1 1 1 1 1 1
          1 1 1 1 1 1
          1 1 1 1 1 1
          1 1 1 1 1 1
          1 1 1 1 1 1
          1 1 1 1 1 1
          1 1 1 1 1 1
          1 1 1 1 1 1
          1 1 1 1 1 1
          1 1 1 1 1 1
          1 1 1 1 1 1
          1 1 1 1 1 1
          1 1 1 1 1 1
          1 1 1 1 1 1
          1 1 1 1 1 1
          1 1 1 1 1 1
          1 1 1 1 1 1
          1 1 1 1 1 1
          1 1 1 1 1 1
          1 1 1 1 1 1
          1 1 1 1 1 1
          1 1 1 1 1 1
          1 1 1 1 1 1
          1 1 1 1 1 1
          1 1 1 1 1 1
          1 1 1 1 1 1
          1 1 1 1 1 1
          1 1 1 1 1 1
          1 1 1 1 1 1
          1 1 1 1 1 1
          1 1 1 1 1 1
          1 1 1 1 1 1
          1 1 1 1 1 1
          1 1 1 1 1 1
          1 1 1 1 1 1
          1 1 1 1 1 1
          1 1 1 1 1 1
          1 1 1 1 1 1
          1 1 1 1 1 1
          1 1 1 1 1 1
          1 1 1 1 1 1
          1 1 1 1 1 1
          1 1 1 1 1 1
          1 1 1 1 1 1
          1 1 1 1 1 1
          1 1 1 1 1 1
          1 1 1 1 1 1
          1 1 1 1 1 1
          1 1 1 1 1
        </DataArray>
        <DataArray type="Float64" Name="gradient_matprop_marker" format="ascii" RangeMin="0" RangeMax="0">
          0 0 0 0 0 0
          0 0 0 0 0 0
          0 0 0 0 0 0
          0 0 0 0 0 0
          0 0 0 0 0 0
          0 0 0 0 0 0
          0 0 0 0 0 0
          0 0 0 0 0 0
          0 0 0 0 0 0
          0 0 0 0 0 0
          0 0 0 0 0 0
          0 0 0 0 0 0
          0 0 0 0 0 0
          0 0 0 0 0 0
          0 0 0 0 0 0
          0 0 0 0 0 0
          0 0 0 0 0 0
          0 0 0 0 0 0
          0 0 0 0 0 0
          0 0 0 0 0 0
          0 0 0 0 0 0
          0 0 0 0 0 0
          0 0 0 0 0 0
          0 0 0 0 0 0
          0 0 0 0 0 0
          0 0 0 0 0 0
          0 0 0 0 0 0
          0 0 0 0 0 0
          0 0 0 0 0 0
          0 0 0 0 0 0
          0 0 0 0 0 0
          0 0 0 0 0 0
          0 0 0 0 0 0
          0 0 0 0 0 0
          0 0 0 0 0 0
          0 0 0 0 0 0
          0 0 0 0 0 0
          0 0 0 0 0 0
          0 0 0 0 0 0
          0 0 0 0 0 0
          0 0 0 0 0 0
          0 0 0 0 0 0
          0 0 0 0 0 0
          0 0 0 0 0 0
          0 0 0 0 0 0
          0 0 0 0 0 0
          0 0 0 0 0 0
          0 0 0 0 0 0
          0 0 0 0 0 0
          0 0 0 0 0 0
          0 0 0 0 0 0
          0 0 0 0 0 0
          0 0 0 0 0 0
          0 0 0 0 0 0
          0 0 0 0 0 0
          0 0 0 0 0 0
          0 0 0 0 0 0
          0 0 0 0 0 0
          0 0 0 0 0 0
          0 0 0 0 0 0
          0 0 0 0 0 0
          0 0 0 0 0 0
          0 0 0 0 0 0
          0 0 0 0 0 0
          0 0 0 0 0 0
          0 0 0 0 0 0
          0 0 0 0 0
        </DataArray>
        <DataArray type="Float64" Name="combo" format="ascii" RangeMin="1" RangeMax="2">
          1 1 1 1 1 1
          1 1 1 1 1 1
          1 1 1 1 1 1
          1 1 1 1 1 1
          1 1.25 1 1 1 1
          1 2 1.5 1 1 1
          1 1 1 1 1 1
          1 1 1 1 1 1
          1 1 1 1 1 1
          1 1 1 1 1 1
          1 1 1 1 1 1
          1 1 1 1 1 1
          1 1 1 1 1 1
          1 1 1 1 1 1
          1 1 1 1 1 1
          1 1 1 1 1 1
          1 1 1 1 1 1
          1 1 1 1 1 1
          1 1 1 1 1 1
          1 1 1 1 1 1
          1 1 1 1 1 1
          1 1 1 1 1 1.125
          1 1 1 1 1 1
          1 1 1 1 1 1
          1 1 1 1 1 1
          1 1 1.75 1.625 1.25 2
          1.25 1.25 1 1 1.125 1
          1.5 1.5 1 1.25 1 1
          1 1 1 1 1 1
          1 1 1 1 1 1
          1 1 1 1 1 1
          1 1 1 1 1 1
          1 1 1 1 1 1
          1 1 1 1 1 1
          1 1 1 1 1 1
          1 1 1 1 1 1
          1 1 1 1 1 1
          1 1 1 1 1 1
          1 1 1 1 1 1
          1 1 1 1 1 1
          1 1 1 1 1 1
          1 1 1 1 1 1
          1 1 1 1 1 1
          1 1 1 1 1 1
          1 1 1 1 1 1
          1 1 1 1 1 1
          1 1 1 1 1 1
          1 1 1 1 1 1
          1 1 1 1 1 1
          1 1 1 1 1 1
          1 1 1 1 1 1
          1 1 1 1 1 1
          1 1 1 1 1 1
          1 1 1 1 1 1
          1 1 1 1 1 1
          1 1 1 1 1 1
          1 1 1 1 1 1
          1 1 1 1 1 1
          1 1 1 1 1 1
          1 1 1 1 1 1
          1 1 1 1 1 1
          1 1 1 1 1 1
          1 1 1 1 1 1
          1 1 1 1 1 1
          1 1 1 1 1 1
          1 1 1 1 1 1
          1 1 1 1 1
        </DataArray>
        <DataArray type="Float64" Name="dHdT" format="ascii" RangeMin="25.8754782053619" RangeMax="73.82639841315148">
          26.61748454085974 42.72983175212559 26.40402839303647 32.45290293206165 29.22327140330389 35.97605568719591
          26.08663365725934 27.971417783758024 27.00279128541593 35.9804263555599 29.384776918294577 27.06474916446711
          26.972799710690968 29.16504993066149 28.81258661281023 26.556515663940594 27.99001654954598 27.76424649972932
          26.743118543063083 28.015403370892976 27.242904966742792 35.155359607757276 34.165314508416216 31.362387839973067
          31.161154495978142 45.04455018736362 39.83451578810468 37.84176690280266 36.96216656755897 36.17254205720032
          33.53837402894956 73.82639841315148 52.36604564719555 38.04386616881241 37.26729207357366 26.298972797910906
          26.26131707685085 27.14660732544238 27.007485695009272 26.06494944988549 26.570121056633308 26.489712692701183
          26.167651522944766 26.683579361289578 29.677428674903876 29.076035269113095 27.655419565695293 27.894585540659353
          26.059932868867005 36.11573668985224 34.57345515718918 32.00975485321292 30.631569322712256 30.44288966160463
          28.364970619955347 37.51076432773897 37.48804769665417 33.451972203162384 32.529934629198415 26.464856208724406
          26.426468375392037 26.230021042471215 26.204697765582928 26.32734897983603 26.13973673764004 26.06595208252373
          26.050301488494995 25.95797055692241 25.94903936119629 26.010465023690287 25.964125193088858 27.38429496751345
          27.883100973369324 27.836024461182596 27.70291351374869 29.07180733429247 27.10993027570611 27.08259579201973
          27.49078564083044 27.45245744567742 26.824258635062947 27.154887727242116 27.12375183201619 27.005719723645857
          27.34371508911646 27.035778584682028 28.53070239684233 28.456089440312507 27.930565493033725 28.24786071286114
          27.149134943127883 27.504742397544987 27.269473567188054 28.4399825190778 26.88922639124157 27.181282733881392
          26.66770536599418 26.904205515430323 26.74844727658654 26.988072172085104 26.747482475309248 27.945702982645262
          27.522008967006798 27.599571948260916 31.65105179977845 31.426034801419735 30.825864799938977 34.91934460735902
          30.45334214986073 30.2846401029731 29.48319302789119 29.35630880003069 29.831967928292315 29.011204578642474
          33.916966147563954 33.64252635931804 32.16362397565415 32.7980654118995 30.02604610273638 29.19472598570822
          32.824909442057674 29.214697324931475 28.53246619754086 28.556390867230586 28.01265204919383 31.49181608069588
          30.28482016499506 30.10551433388877 37.44020342166319 37.24024320838424 36.77801915934806 43.34934839721376
          36.71923346684155 36.560304649993725 35.81647967316228 35.558803794586964 35.946189978947174 34.699587524526265
          40.49959169902454 39.53881297027106 37.52019440130953 37.90220097559137 35.81715064878678 33.9030444067006
          37.54131744175672 34.59857392268956 33.12060906746229 32.51192441283758 31.147555924960372 36.78208048163515
          35.873999615694416 35.02826537161224 63.01264549089424 58.13274399725986 47.334006815965964 67.20479729124891
          51.83537632411351 47.85324290895961 40.61819668953805 39.34651047839927 40.91737795161021 37.74522151320519
          59.99302440072472 53.94383688338476 40.717723435008466 43.17652797158243 39.41103100730626 37.104346338616025
          40.75638656383655 37.65200289955189 37.13299081039848 36.4999321530281 35.361784523650286 37.96468828091447
          37.351180320277194 36.89748862625234 26.62279978986088 26.605312076957492 26.868479968871647 26.843790464609445
          26.422888766868944 26.628379302059113 26.609029353391186 26.555854683028073 26.773748093453026 26.554405924750473
          27.53089601028319 27.484375862810566 27.11014035424885 27.35304320413763 26.284626641039438 26.274282410633447
          26.430964417240435 26.416061551023763 26.154693144197587 26.271834721308984 26.260603952456933 26.24511088891899
          26.374195120402835 26.22913572488394 26.82835240952104 26.80025465562687 26.548963408153266 26.721424997277666
          26.481065080910884 26.669029006331936 26.32694969599861 26.472870046872465 26.391039850834183 26.54439254604997
          26.37579364440257 27.161095704284186 26.857332313480093 26.93898181260397 26.20106475662688 26.312007507333483
          26.099535200255723 26.182615849590672 26.147745536046955 26.238197593435117 26.606337779219185 26.403286865818366