<?xml version="1.0"?>
<VTKFile type="UnstructuredGrid" version="0.1" byte_order="LittleEndian" header_type="UInt32" compressor="vtkZLibDataCompressor">
  <UnstructuredGrid>
    <Piece NumberOfPoints="481" NumberOfCells="272">
      <PointData>
        <DataArray type="Int32" Name="libmesh_node_id" format="ascii" RangeMin="427" RangeMax="2675">
          522 530 531 813 815 817
          818 819 822 823 824 825
          826 1422 1423 1424 1425 1426
          1427 1428 1432 1433 1434 1436
          1437 1438 1439 1440 1441 1442
          1443 1444 1445 1446 1447 1448
          1449 1460 1461 1462 1463 1464
          1465 1466 1467 1468 1469 1470
          1471 1472 1473 1474 1475 1476
          1477 1478 1479 1480 1481 1482
          1483 1484 1485 1486 1487 1488
          1489 1490 1491 1492 1493 1494
          1495 1496 1497 1498 1499 1500
          1501 1502 1503 1504 1505 1506
          1507 1511 1512 1514 1515 1517
          1532 1533 1536 1537 1539 1552
          1553 1556 1558 1559 1561 1572
          1576 1586 1587 1588 1589 1590
          1591 1592 1593 1594 1595 1596
          1597 1598 1599 2251 2288 2289
          2290 2335 2336 2337 2338 2339
          2340 2341 2342 2343 2344 2345
          2346 2347 2348 2349 2350 2351
          2352 2353 2354 2355 2356 2357
          2358 2359 2360 2361 2362 2363
          2364 2365 2366 2367 2368 2369
          2370 2371 2372 2373 2374 2375
          2376 2377 2378 2379 2380 2381
          2382 2383 2384 2385 2386 2387
          2388 2389 2390 2391 2392 2393
          2394 2395 2396 2397 2398 2399
          2400 2401 2402 2403 2404 2405
          2406 2407 2408 2409 2410 2411
          2412 2413 2414 2415 2416 2417
          2418 2419 2420 2421 2422 2423
          2424 2425 2426 2427 2428 2429
          2430 2431 2432 2433 2434 2435
          2436 2437 2438 2439 2440 2441
          2442 2443 2444 2445 2446 2447
          2448 2449 2450 2451 2452 2453
          2454 2455 2456 2457 2458 2459
          2460 2461 2462 2463 2464 2465
          2466 2467 2468 2469 2470 2471
          2472 2473 2474 2475 2476 2477
          2478 2479 2480 2481 2482 2483
          2484 2485 2486 2487 2488 2489
          2490 2491 2492 2493 2494 2495
          2500 2501 2502 2503 2505 2520
          2521 2522 2523 2524 2525 2526
          2527 2528 2529 2540 2541 2542
          2543 2544 2545 2546 2549 2553
          2554 2555 2556 2557 2558 2559
          2560 2561 2562 2563 2564 2565
          2568 2570 2571 2573 2574 2575
          2576 2577 2578 2579 2580 2581
          2583 2585 2587 2656 2657 2658
          2659 2661 2662 2663 2664 2665
          2666 2667 2668 2669 2671 2673
          2675 820 523 843 841 821
          844 842 784 806 518 848
          811 847 846 849 533 850
          834 851 835 852 1248 1255
          1256 1249 511 814 779 1258
          1259 1262 1261 1265 1266 827
          828 1271 1368 1369 1370 1429
          1430 1373 1431 780 1376 1435
          781 816 1452 1453 1456 1458
          1405 1407 1457 1390 1416 1459
          1418 787 1420 1508 1509 1510
          1513 829 1516 830 1534 1535
          1538 1540 1541 1557 1573 1574
          1575 1578 1577 840 1600 1601
          1604 1605 1607 1609 1404 2293
          2313 2314 2316 427 2319 1410
          2299 2329 2331 2333 2496 2497
          2530 2531 2499 2534 2536 2537
          2539 2547 2504 2535 2548 2550
          2551 2552 1554 2538 2566 2567
          1555 2569 837 2572 1560 2582
          2584 2586 838 2660 2670 2672
          2674
        </DataArray>
        <DataArray type="Float64" Name="bounds" format="ascii" RangeMin="0" RangeMax="0">
          0 0 0 0 0 0
          0 0 0 0 0 0
          0 0 0 0 0 0
          0 0 0 0 0 0
          0 0 0 0 0 0
          0 0 0 0 0 0
          0 0 0 0 0 0
          0 0 0 0 0 0
          0 0 0 0 0 0
          0 0 0 0 0 0
          0 0 0 0 0 0
          0 0 0 0 0 0
          0 0 0 0 0 0
          0 0 0 0 0 0
          0 0 0 0 0 0
          0 0 0 0 0 0
          0 0 0 0 0 0
          0 0 0 0 0 0
          0 0 0 0 0 0
          0 0 0 0 0 0
          0 0 0 0 0 0
          0 0 0 0 0 0
          0 0 0 0 0 0
          0 0 0 0 0 0
          0 0 0 0 0 0
          0 0 0 0 0 0
          0 0 0 0 0 0
          0 0 0 0 0 0
          0 0 0 0 0 0
          0 0 0 0 0 0
          0 0 0 0 0 0
          0 0 0 0 0 0
          0 0 0 0 0 0
          0 0 0 0 0 0
          0 0 0 0 0 0
          0 0 0 0 0 0
          0 0 0 0 0 0
          0 0 0 0 0 0
          0 0 0 0 0 0
          0 0 0 0 0 0
          0 0 0 0 0 0
          0 0 0 0 0 0
          0 0 0 0 0 0
          0 0 0 0 0 0
          0 0 0 0 0 0
          0 0 0 0 0 0
          0 0 0 0 0 0
          0 0 0 0 0 0
          0 0 0 0 0 0
          0 0 0 0 0 0
          0 0 0 0 0 0
          0 0 0 0 0 0
          0 0 0 0 0 0
          0 0 0 0 0 0
          0 0 0 0 0 0
          0 0 0 0 0 0
          0 0 0 0 0 0
          0 0 0 0 0 0
          0 0 0 0 0 0
          0 0 0 0 0 0
          0 0 0 0 0 0
          0 0 0 0 0 0
          0 0 0 0 0 0
          0 0 0 0 0 0
          0 0 0 0 0 0
          0 0 0 0 0 0
          0 0 0 0 0 0
          0 0 0 0 0 0
          0 0 0 0 0 0
          0 0 0 0 0 0
          0 0 0 0 0 0
          0 0 0 0 0 0
          0 0 0 0 0 0
          0 0 0 0 0 0
          0 0 0 0 0 0
          0 0 0 0 0 0
          0 0 0 0 0 0
          0 0 0 0 0 0
          0 0 0 0 0 0
          0 0 0 0 0 0
          0
        </DataArray>
        <DataArray type="Float64" Name="gradient_error" format="ascii" RangeMin="1.0435381431994745e-9" RangeMax="3.700651938123405e-7">
          1.813503210149508e-7 2.5130663354384287e-9 1.1644083093595756e-7 1.929575367356311e-7 6.894492497585738e-8 1.481948860583308e-7
          7.881784763535449e-8 1.0421773418524566e-7 1.493049779566872e-7 1.2499748938096097e-9 6.518607426597757e-8 4.249884701682364e-8
          2.2514494206531682e-7 9.574369690280877e-8 9.19084386609254e-8 1.0572355835331702e-7 1.0340423731892268e-7 9.528712808524426e-8
          1.1163288552646873e-7 1.088521079106719e-7 6.451555582403181e-8 8.737275836882677e-8 8.023157009696124e-8 1.0327943831556879e-7
          9.857357214914371e-8 1.1781008352099348e-7 1.145254800512688e-7 1.0153887952501379e-7 1.243702622665108e-7 1.205391917663441e-7
          8.62236566051887e-8 1.0413798801835514e-7 1.0839680280888613e-7 7.363065924662332e-8 7.305608731076937e-8 7.814507628100461e-8
          9.796691337437833e-8 7.038216125828645e-8 8.62772023557323e-8 6.960318117991471e-8 8.794676681554184e-8 6.218471528891413e-8
          7.551930525629844e-8 7.580804927948878e-8 1.1341693442609022e-7 1.1937695332168947e-7 9.374847008140406e-8 6.631775230708247e-9
          3.331814071921588e-8 5.889241690901733e-9 2.1575935062378156e-8 8.669114476200177e-8 7.913931419502611e-8 1.0435381431994745e-9
          4.514926821974216e-9 3.868692724473866e-9 6.179842869585321e-8 5.672395093783111e-9 8.882909003713654e-9 5.987907646246306e-9
          8.877323493901235e-9 7.182251070096588e-8 6.132232461230027e-8 1.9255350999657577e-9 3.893726651299676e-9 4.611888316516084e-9
          6.918406902150702e-8 1.1305645126158185e-7 1.193751832271255e-7 1.1195548598313675e-7 1.0504862932022498e-7 1.1442864467454692e-7
          1.207937721001604e-7 1.1671801236123134e-7 1.2606325643455142e-7 1.18639654543353e-7 1.0315226087949141e-7 1.0867244012878063e-7
          1.2746488747010053e-7 1.0488712966479244e-7 1.1010876424871814e-7 1.0982887359024306e-7 1.0396703830665691e-7 1.314279056864009e-7
          1.268987487469267e-7 8.819163987956509e-8 1.1265385069245797e-7 8.470807611218355e-8 8.390937828151448e-8 1.1112641909248338e-7
          6.82311587142307e-8 8.909780813474054e-8 5.8184240692401984e-8 7.525750669201767e-8 1.2557676866197734e-7 6.766351062180647e-9
          9.349470582948675e-9 5.025182679214402e-8 3.1693666898300137e-9 5.682855009774924e-9 1.3648706163955047e-8 1.1164527434510562e-7
          8.212957765125693e-8 6.621062559360776e-8 7.281920024052011e-8 6.575685033590359e-8 7.942777488743245e-8 6.666252063525597e-8
          7.304257412167835e-8 6.667145457616975e-8 7.306374100372825e-8 5.8515955584616676e-8 6.244963612763013e-8 5.8163114160673494e-8
          7.942262760810072e-8 7.945602743128677e-8 6.638331667064358e-8 1.2075424742422463e-8 1.1576920349149382e-8 1.1647654559991615e-8
          1.1718388770833847e-8 1.262856454987344e-8 1.251140231744532e-8 1.3187493113185071e-8 1.2394240085017199e-8 1.3780988673826352e-8
          1.3638694436327022e-8 1.4084905972622543e-8 1.3496400198827689e-8 1.4642139535487289e-8 1.4529519974773039e-8 1.457623869292018e-8
          1.5060274604127008e-8 1.494023920434589e-8 1.5303386710975685e-8 1.549658440927644e-8 1.592630570622865e-8 1.6193677596532944e-8
          1.518192321495213e-8 1.6045903532982005e-8 1.51063254322798e-8 1.6686231765879328e-8 1.7333217984852887e-8 1.6674890446269962e-8
          1.1541336215112851e-8 1.1745132218741197e-8 1.1511184424464066e-8 1.1899079485954781e-8 1.1948928222369538e-8 1.2286974547445496e-8
          7.289814745229766e-9 7.99959028271777e-9 7.549513187097065e-9 9.0847685817335e-9 1.1490620931784251e-8 1.1988095435744853e-8
          1.1443212283237456e-8 1.2015591982944464e-8 1.2485569939705454e-8 1.3159308584186179e-8 6.210732150125161e-9 7.192453233397776e-9
          6.85171315415346e-9 8.60802542545421e-9 1.0734553430633362e-8 1.0750236139587054e-8 1.1633532756477773e-8 1.4425033923777576e-8
          1.4548085460299564e-8 1.0762816821594549e-8 1.1871185715318641e-8 1.2049906000167253e-8 2.59980459056681e-9 3.492668007239031e-9
          2.3062057999631098e-9 3.1398527235223172e-9 6.400368256113339e-9 6.033023667179329e-9 1.0740875710263534e-9 1.965017569079593e-9
          1.7913449315749974e-9 4.9253918194873655e-9 2.147705452664915e-9 2.878870298796801e-9 2.147561611513762e-9 2.769263792814556e-9
          5.658651659090467e-9 5.318157326415158e-9 1.0741997948216595e-9 1.7103305659607349e-9 1.7813792705885747e-9 4.142635020291229e-9
          9.960049054046168e-9 9.862188651753988e-9 1.1504893019776912e-8 1.163182961623084e-8 9.185544677458975e-9 8.974141163920923e-9
          1.1376253283076052e-8 9.74547402136261e-9 9.584917587970535e-9 1.1783679869472973e-8 1.1924486497226102e-8 8.72813122113067e-9
          8.46702075899704e-9 1.1517453738778691e-8 1.1422335397280527e-8 1.2004082393475286e-8 1.1452436924915607e-8 1.2040272214214364e-8
          1.3470171030471602e-8 1.3599679243698965e-8 5.700704562482005e-9 6.576310277181329e-9 6.4551398463289655e-9 9.207036378395663e-9
          1.1554717687189178e-8 1.2157341562947818e-8 1.172118449527628e-8 1.2332886696638805e-8 1.3826303112416646e-8 1.4088093259366983e-8
          5.782666946653915e-9 6.510378878518506e-9 6.689274825084034e-9 8.817463149252968e-9 1.4690007087915452e-8 1.5189760175176113e-8
          1.502550150455775e-8 1.5808269366467416e-8 1.2367135522204776e-8 1.2357725792318848e-8 1.377211427949888e-8 1.5658745488706495e-8
          1.6148248859924947e-8 1.6424850191286154e-8 1.706490009911726e-8 1.2468751146959754e-8 1.2609736925642115e-8 1.4540666805796667e-8
          2.3328889444511247e-9 2.8793598770537127e-9 2.6430206022646096e-9 3.150542127871417e-9 5.0930403921807115e-9 5.0474864197369695e-9
          1.579519583726256e-9 2.0380252937751578e-9 2.4110743873866254e-9 3.7721108841674094e-9 2.990019604011867e-9 3.500212963125882e-9
          3.3660542060665046e-9 3.907637786175823e-9 5.185817695179583e-9 5.470498669959696e-9 2.220753978118576e-9 2.797766885833948e-9
          3.1761936092325403e-9 4.195637720153578e-9 9.381333529022658e-9 9.212115554254549e-9 1.2002417083340192e-8 1.1987321922513381e-8
          8.226486974514537e-9 8.04239634124162e-9 1.1405283184518315e-8 9.130407428111107e-9 9.101414191783628e-9 1.1899585788102942e-8
          1.356212607539202e-8 7.954571773836363e-9 7.946634267280035e-9 1.089264790091489e-8 1.758827592968308e-8 1.7607265757023747e-8
          1.7950258107737447e-8 1.7626255584364418e-8 1.6060843357030138e-8 1.6371546563457318e-8 1.6796559523112563e-8 1.735335315441148e-8
          1.8020461773566954e-8 1.8780242234138863e-8 1.8016467008195448e-8 1.962660906902478e-8 1.968043811050455e-8 1.1937873228165348e-8
          1.2563871590197392e-8 1.224082530572219e-8 1.286753381008143e-8 1.4407686518700615e-8 1.4784316761750368e-8 6.299598757497214e-9
          6.970991405635015e-9 7.3839149959980054e-9 9.05239301318019e-9 1.6685177211107153e-8 1.7263451903729986e-8 1.774485133704251e-8
          1.8452512598399902e-8 1.2806410925894414e-8 1.309557462138864e-8 1.6019081555094544e-8 1.9179439323773484e-8 1.699902375182472e-8
          3.806043099409459e-9 4.377959278313107e-9 4.3048163222776536e-9 4.912244695128084e-9 5.875883197463965e-9 6.400730014002001e-9
          2.827791783125049e-9 3.5701323622936495e-9 3.99516749531045e-9 5.109000251557306e-9 4.833268381024489e-9 5.502232212516447e-9
          7.0528486195174424e-9 3.5461952444395626e-9 4.460069177783335e-9 6.3422716766542785e-9 9.134693569743252e-9 9.341656272387786e-9
          1.4455296708358557e-8 1.46754323956284e-8 8.006457936345028e-9 8.238824875319404e-9 1.3618588917020084e-8 9.743048034944264e-9
          1.5067062211895124e-8 8.705416314856011e-9 1.397480906457437e-8 1.813444481269794e-8 1.909572361314486e-8 1.8512484718514778e-8
          1.9950887629545133e-8 2.058610190285204e-8 1.8018539630325576e-8 1.881736052278162e-8 1.8593982045709367e-8 1.9685381839056524e-8
          1.7902634447953213e-8 1.853899743241838e-8 1.8675479372903956e-8 1.9604545038259767e-8 2.0626560527591338e-8 1.92582024469744e-8
          2.0667019152330632e-8 1.9392045446754846e-7 1.8938507865647874e-7 1.886304049421732e-7 2.1334565074182366e-7 2.124614022815007e-7
          1.4119869949566368e-7 2.2484287382360218e-7 2.7198917620414703e-7 3.0058363344551075e-7 3.336464017596637e-7 2.389453981344136e-7
          3.700651938123405e-7 1.0253065812191472e-7 1.2697735665769687e-7 9.645289889566535e-8 8.808303986766649e-8 1.5878606961643618e-7
          1.5261440199425468e-7 1.6080161290730083e-7 1.4392631777902814e-7 1.1720985471223687e-7 1.66202627744288e-7 1.5116179933583758e-7
          1.312886119135351e-7 1.45091526150765e-7 1.9826601300157477e-7 1.6053645131629073e-7 1.6775888629252833e-7 1.3188940852563582e-7
          1.1335318857338079e-7 9.481696862112578e-8 1.114154244912326e-7 1.0992276441916431e-7 9.28895182560024e-8 1.630852754969741e-7
          1.3045479132000073e-7 7.58562720928405e-8 8.889029124828867e-8 1.0024675177483735e-7 9.831909388920927e-8 8.248893677765594e-8
          9.591842328367084e-8 9.201654511801459e-8 9.998447324213204e-8 7.966305012502591e-8 9.197535187405592e-8 1.103787607027246e-7
          1.0442261077372294e-7 1.0407307102302388e-7 7.068558658772245e-8 8.436696758727985e-8 7.483631898517066e-8 1.0800247147046391e-7
          4.212974903435069e-8 8.213799846816629e-8 1.0300009407288102e-7 9.804464964719935e-8 1.0669629710094987e-7 9.56128263849879e-8
          1.0557638571657173e-7 5.872460387646968e-8 1.0798922093420368e-7 1.0551004554791271e-7 1.3898748404347471e-7 1.3353851178761408e-7
          1.1671116121885537e-7 9.143666484457172e-8 9.043864502926402e-8 1.1899841384641573e-7 6.611822617167577e-8 8.960061550340943e-8
          7.38684481008616e-8 1.3204797258496262e-7 1.001830848052739e-7 5.423937482779497e-8 1.198728889007099e-7 1.1292240314407574e-7
          1.1624938539079508e-7 1.2173556542605734e-7 8.880245402222067e-8 1.2631406179866529e-7 6.549020477184428e-8 7.244867478775782e-8
          5.3654328318706507e-8 5.677157590382093e-8 7.940714480367136e-8 5.988882348893535e-8 2.7658895026357653e-8 7.488175856984309e-9
          2.988720770840688e-9 3.9132103078256705e-9 6.761407057384888e-9 1.1496762842705057e-9 2.20409901895526e-9 5.344780203586373e-9
          1.0720840770504095e-8 1.0044413947357468e-8 1.1403713624755815e-8 9.367987124210843e-9 1.6652961243073112e-8 1.7180760198845074e-8
          1.2666083684853358e-8 1.3274110778779452e-8 1.864066959108102e-8 1.5226870778689686e-8 7.399773822121509e-9 7.955928302981692e-9
          9.78824876433948e-9 1.7875521504223656e-8 2.0547614361330434e-8 1.5762766694602313e-8 1.854747094647532e-8 1.9963922479310177e-8
          1.3452556847227527e-8 1.3900168219474256e-8 8.179853290566368e-9 8.689772011723823e-9 5.3930172694934976e-9 6.148089041585571e-9
          1.0390279556088595e-8 7.827121063823747e-9 3.966761376358483e-9 4.974689259242384e-9 7.088904373462379e-9 1.0323213375084017e-8
          1.5523781664805502e-8 9.393417842839728e-9 1.4402308078012965e-8 2.0859152793053867e-8 2.042433816171146e-8 2.1696458430010098e-8
          1.998952353036905e-8
        </DataArray>
        <DataArray type="Float64" Name="gradient_matprop_error" format="ascii" RangeMin="0" RangeMax="0">
          0 0 0 0 0 0
          0 0 0 0 0 0
          0 0 0 0 0 0
          0 0 0 0 0 0
          0 0 0 0 0 0
          0 0 0 0 0 0
          0 0 0 0 0 0
          0 0 0 0 0 0
          0 0 0 0 0 0
          0 0 0 0 0 0
          0 0 0 0 0 0
          0 0 0 0 0 0
          0 0 0 0 0 0
          0 0 0 0 0 0
          0 0 0 0 0 0
          0 0 0 0 0 0
          0 0 0 0 0 0
          0 0 0 0 0 0
          0 0 0 0 0 0
          0 0 0 0 0 0
          0 0 0 0 0 0
          0 0 0 0 0 0
          0 0 0 0 0 0
          0 0 0 0 0 0
          0 0 0 0 0 0
          0 0 0 0 0 0
          0 0 0 0 0 0
          0 0 0 0 0 0
          0 0 0 0 0 0
          0 0 0 0 0 0
          0 0 0 0 0 0
          0 0 0 0 0 0
          0 0 0 0 0 0
          0 0 0 0 0 0
          0 0 0 0 0 0
          0 0 0 0 0 0
          0 0 0 0 0 0
          0 0 0 0 0 0
          0 0 0 0 0 0
          0 0 0 0 0 0
          0 0 0 0 0 0
          0 0 0 0 0 0
          0 0 0 0 0 0
          0 0 0 0 0 0
          0 0 0 0 0 0
          0 0 0 0 0 0
          0 0 0 0 0 0
          0 0 0 0 0 0
          0 0 0 0 0 0
          0 0 0 0 0 0
          0 0 0 0 0 0
          0 0 0 0 0 0
          0 0 0 0 0 0
          0 0 0 0 0 0
          0 0 0 0 0 0
          0 0 0 0 0 0
          0 0 0 0 0 0
          0 0 0 0 0 0
          0 0 0 0 0 0
          0 0 0 0 0 0
          0 0 0 0 0 0
          0 0 0 0 0 0
          0 0 0 0 0 0
          0 0 0 0 0 0
          0 0 0 0 0 0
          0 0 0 0 0 0
          0 0 0 0 0 0
          0 0 0 0 0 0
          0 0 0 0 0 0
          0 0 0 0 0 0
          0 0 0 0 0 0
          0 0 0 0 0 0
          0 0 0 0 0 0
          0 0 0 0 0 0
          0 0 0 0 0 0
          0 0 0 0 0 0
          0 0 0 0 0 0
          0 0 0 0 0 0
          0 0 0 0 0 0
          0 0 0 0 0 0
          0
        </DataArray>
        <DataArray type="Float64" Name="initial_marker" format="ascii" RangeMin="0" RangeMax="2">
          1 2 2 1 2 1
          2 2 1.5 2 2 2
          2 2 2 2 2 2
          2 2 2 2 2 2
          2 2 2 2 2 2
          2 2 2 2 2 2
          2 1 1.5 1 1.5 0
          1 1 2 2 2 2
          2 2 2 2 2 2
          2 2 2 2 2 2
          2 2 2 2 2 2
          2 2 2 2 2 2
          2 2 2 2 2 2
          2 2 2 2 2 2
          2 2 2 2 2 2
          1 1.5 0 1 2 2
          2 2 2 2 2 2
          2 1 1 0 1 1
          1 1 1 0 0 0
          1 1 0 2 2 2
          2 2 2 2 2 2
          2 2 2 2 2 2
          2 2 2 2 2 2
          2 2 2 2 2 2
          2 2 2 2 2 2
          2 2 2 2 2 2
          2 2 2 2 2 2
          2 2 2 2 2 2
          2 2 2 2 2 2
          2 2 2 2 2 2
          2 2 2 2 2 2
          2 2 2 2 2 2
          2 2 2 2 2 2
          2 2 2 2 2 2
          2 2 2 2 2 2
          2 2 2 2 2 2
          2 2 2 2 2 2
          2 2 2 2 2 2
          2 2 2 2 2 2
          2 2 2 2 2 2
          2 2 2 2 2 2
          2 2 2 2 2 2
          2 2 2 2 2 2
          2 2 2 2 2 2
          2 2 2 2 2 2
          2 2 2 2 2 2
          2 2 2 2 2 2
          2 2 2 2 2 2
          2 2 2 2 2 2
          2 2 2 2 2 2
          2 2 2 2 2 2
          2 2 2 2 2 2
          2 2 2 2 2 2
          2 2 2 2 2 2
          2 2 2 2 2 2
          2 2 2 2 2 2
          2 2 2 2 2 2
          2 2 2 2 2 2
          2 0 0 0 0 1.5
          0 0.25 1.5 0.5 2 0.5
          1 0 0 0 0 0
          0 0 1.5 0 0 0
          0 0 1 1 1 0
          0 0 0 0 0 1
          1 0 2 2 2 2
          2 2 2 2 2 2
          2 2 1 1.5 1 2
          2 2 2 2 2 2
          2 2 2 2 2 2
          2 2 2 2 1 1.5
          1 2 2 2 2 2
          2 2 2 2 1 1
          0 0 1 0 2 2
          2 2 2 2 2 2
          2 2 2 2 2 2
          2 2 2 2 2 2
          2 2 2 2 2 2
          2 2 2 2 2 2
          2 2 2 2 2 2
          2 2 2 2 2 2
          2
        </DataArray>
        <DataArray type="Float64" Name="markers_norefine" format="ascii" RangeMin="0" RangeMax="2">
          0 2 0 0 0 0
          0.5 0 0 2 1 1
          0 0 0 0 0 0
          0 0 0 0 0 0
          0 0 0 0 0 0
          0 0 0 0 0 0
          0 0 0 0 0 0
          0 0 0 0 0 2
          1.5 2 1.5 0 0 2
          2 2 0.5 2 2 2
          2 0.5 0.5 2 2 2
          1 0 0 0 0 0
          0 0 0 0 0 0
          0 0 0 0 0 0
          0 0 0 1 0.25 0
          0 0 0 0 0 2
          2 0.75 2 2 2 0
          0 0 0 0 0 0
          0 0 0 0 0 0
          0 0 0 0 1 0.5
          0 0 0 0 0 0
          0 0 0 0 0 0
          0 0 0 0 0.5 0
          0 0 0 0 0 0
          1 0.75 1 1 0.5 1
          2 1.75 2 1.6666666666666667 1 1
          1 1 1 0.6666666666666666 2 2
          2 2 1 1 0 0
          0 1 0.6666666666666666 0 2 2
          2 2 2 2 2 2
          2 2 2 2 2 2
          2 2 2 2 2 2
          1 1.25 0 0.5 1 1.5
          0 1.5 1.5 1 1 2
          2 2 1 1 1 1
          0.75 1 2 2 2 1.75
          1 1 1.5 1.25 1 1
          2 2 2 2 0.25 0.5
          0 0 1 1.5 0.5 0.5
          0.5 0 0 1.5 1.5 1
          2 2 2 2 2 2
          2 2 2 2 2 2
          2 2 2 2 2 2
          2 2 1.75 2 1.5 2
          2 2 2 2 2 2
          1.3333333333333333 2 2 2 0 0
          0 0 2 1 1.5 0
          0 0 0 0 0 2
          1.5 2 1.75 1 1.25 2
          2 2 2 0.5 0.75 0
          0.5 1.5 1.75 0.6666666666666666 1 1.3333333333333333
          2 2 2 2 2 2
          2 2 2 2 2 2
          2 2 2 2 2 2
          1.25 1.5 2 2 1.5 2
          1.5 2 2 0 0 0
          0 0 0.25 0.5 0 0
          0.5 1 0 0.5 0 1
          0 0 0 0 0 0
          0 0 0 0 0 0
          0 0 0 0 0 0
          0 0 0 0 0 0
          0 0 0 0 0 0
          0 0 0 0 0 0
          0 0 0 0 0 0
          0 0 0 0 0 0
          0 0 0 0 0 0
          1 0 0 0 0 0
          0 0 0 0 0 0
          0 1 0.5 0 0 0
          0 0 0 1.25 0 0
          0 0 0 0 0 0
          0 0 0 0 1.5 1.6666666666666667
          2 2 2 2 2 2
          1 1 0 1 2 2
          2 2 1 1.5 2 2
          2 1 0 1.5 1 1
          2 2 2 2 2 2
          2 2 2 2 2 2
          1.75 2 2 0.5 0.75 0
          1
        </DataArray>
        <DataArray type="Float64" Name="markers_mustrefine" format="ascii" RangeMin="0" RangeMax="2">
          1 2 2 1 2 1
          2 2 1.5 2 2 2
          2 2 2 2 2 2
          2 2 2 2 2 2
          2 2 2 2 2 2
          2 2 2 2 2 2
          2 1 1.5 1 1.5 0
          1 1 2 2 2 2
          2 2 2 2 2 2
          2 2 2 2 2 2
          2 2 2 2 2 2
          2 2 2 2 2 2
          2 2 2 2 2 2
          2 2 2 2 2 2
          2 2 2 2 2 2
          1 1.5 0 1 2 2
          2 2 2 2 2 2
          2 1 1 0 1 1
          1 1 1 0 0 0
          1 1 0 2 2 2
          2 2 2 2 2 2
          2 2 2 2 2 2
          2 2 2 2 2 2
          2 2 2 2 2 2
          2 2 2 2 2 2
          2 2 2 2 2 2
          2 2 2 2 2 2
          2 2 2 2 2 2
          2 2 2 2 2 2
          2 2 2 2 2 2
          2 2 2 2 2 2
          2 2 2 2 2 2
          2 2 2 2 2 2
          2 2 2 2 2 2
          2 2 2 2 2 2
          2 2 2 2 2 2
          2 2 2 2 2 2
          2 2 2 2 2 2
          2 2 2 2 2 2
          2 2 2 2 2 2
          2 2 2 2 2 2
          2 2 2 2 2 2
          2 2 2 2 2 2
          2 2 2 2 2 2
          2 2 2 2 2 2
          2 2 2 2 2 2
          2 2 2 2 2 2
          2 2 2 2 2 2
          2 2 2 2 2 2
          2 2 2 2 2 2
          2 2 2 2 2 2
          2 2 2 2 2 2
          2 2 2 2 2 2
          2 2 2 2 2 2
          2 2 2 2 2 2
          2 2 2 2 2 2
          2 2 2 2 2 2
          2 2 2 2 2 2
          2 0 0 0 0 1.5
          0 0.25 1.5 0.5 2 0.5
          1 0 0 0 0 0
          0 0 1.5 0 0 0
          0 0 1 1 1 0
          0 0 0 0 0 1
          1 0 2 2 2 2
          2 2 2 2 2 2
          2 2 1 1.5 1 2
          2 2 2 2 2 2
          2 2 2 2 2 2
          2 2 2 2 1 1.5
          1 2 2 2 2 2
          2 2 2 2 1 1
          0 0 1 0 2 2
          2 2 2 2 2 2
          2 2 2 2 2 2
          2 2 2 2 2 2
          2 2 2 2 2 2
          2 2 2 2 2 2
          2 2 2 2 2 2
          2 2 2 2 2 2
          2
        </DataArray>
        <DataArray type="Float64" Name="gradient_marker" format="ascii" RangeMin="0" RangeMax="1">
          1 0 1 1 0.5 0.75
          0.5 0.75 0.5 0 0.5 0.25
          0.75 0.5 0.25 0.75 0.625 0.5
          1 0.75 0.5 0.75 0.625 1
          0.75 1 0.875 1 1 1
          0.25 0.625 0.75 0.5 0.5 0.5
          0.75 0 0.25 0 0.25 0
          0 0 0.75 0.75 0.3333333333333333 0
          0.25 0 0.125 0.75 0.625 0
          0 0 0.5 0 0 0
          0 0.5 0.375 0 0 0
          0.5 1 1 1 0.6666666666666666 1
          1 1 1 0.875 0.625 0.75
          1 0.75 0.75 1 1 1
          1 0.5 0.75 0.5 0.5 0.75
          0 0.25 0 0 0.75 0
          0 0.25 0 0 0 0.75
          0.5 0 0 0 0 0
          0.125 0 0.25 0 0 0
          0.25 0.5 0 0 0 0
          0 0 0 0 0 0
          0 0 0 0 0 0
          0 0 0 0 0 0
          0 0 0 0 0 0
          0 0 0 0 0 0
          0 0 0 0 0 0
          0 0 0 0 0 0
          0 0 0 0 0 0
          0 0 0 0 0 0
          0 0 0 0 0 0
          0 0 0 0 0 0
          0 0 0 0 0 0
          0 0 0 0 0 0
          0 0 0 0 0 0
          0 0 0 0 0 0
          0 0 0 0 0 0
          0 0 0 0 0 0
          0 0 0 0 0 0
          0 0 0 0 0 0
          0 0 0 0 0 0
          0 0 0 0 0 0
          0 0 0 0 0 0
          0 0 0 0 0 0
          0 0 0 0 0 0
          0 0 0 0 0 0
          0 0 0 0 0 0
          0 0 0 0 0 0
          0 0 0 0 0 0
          0 0 0 0 0 0
          0 0 0 0 0 0
          0 0 0 0 0 0
          0 0 0 0 0 0
          0 0 0 0 0 0
          0 0 0 0 0 0
          0 0 0 0 0 0
          0 0 0 0 0 0
          0 0 0 0 0 0
          0 0 0 0 0 0
          0 0.6666666666666666 0.75 0.5 0.75 0.625
          0.5 0.75 0.75 1 1 0.75
          1 0.5 0.75 0.5 1 1
          0.6666666666666666 0.5 0.5 0.375 0.5 0.5
          0.5 0.5 0.5 0.5 0.5 0.5
          0.5 0.5 0.5 0.5 0.5 1
          0.75 0.5 0 0.5 0.5 0
          0.5 0.5 0.5 0.5 0.75 1
          1 0.875 0 0.25 0 0.75
          0.25 0.75 0.75 0.75 1 0.5
          1 0.5 1 1 1 1
          0.75 0.5 0.5 0.75 0 0.25
          0 0.75 0.3333333333333333 0.25 0.75 0.75
          0.75 1 0.5 1 0 0.25
          0 0 0.5 0 0 0
          0 0 0 0 0 0
          0 0 0 0 0 0
          0 0 0 0 0 0
          0 0 0 0 0 0
          0 0 0 0 0 0
          0 0 0 0 0 0
          0 0 0 0 0 0
          0
        </DataArray>
        <DataArray type="Float64" Name="gradient_matprop_marker" format="ascii" RangeMin="0" RangeMax="0">
          0 0 0 0 0 0
          0 0 0 0 0 0
          0 0 0 0 0 0
          0 0 0 0 0 0
          0 0 0 0 0 0
          0 0 0 0 0 0
          0 0 0 0 0 0
          0 0 0 0 0 0
          0 0 0 0 0 0
          0 0 0 0 0 0
          0 0 0 0 0 0
          0 0 0 0 0 0
          0 0 0 0 0 0
          0 0 0 0 0 0
          0 0 0 0 0 0
          0 0 0 0 0 0
          0 0 0 0 0 0
          0 0 0 0 0 0
          0 0 0 0 0 0
          0 0 0 0 0 0
          0 0 0 0 0 0
          0 0 0 0 0 0
          0 0 0 0 0 0
          0 0 0 0 0 0
          0 0 0 0 0 0
          0 0 0 0 0 0
          0 0 0 0 0 0
          0 0 0 0 0 0
          0 0 0 0 0 0
          0 0 0 0 0 0
          0 0 0 0 0 0
          0 0 0 0 0 0
          0 0 0 0 0 0
          0 0 0 0 0 0
          0 0 0 0 0 0
          0 0 0 0 0 0
          0 0 0 0 0 0
          0 0 0 0 0 0
          0 0 0 0 0 0
          0 0 0 0 0 0
          0 0 0 0 0 0
          0 0 0 0 0 0
          0 0 0 0 0 0
          0 0 0 0 0 0
          0 0 0 0 0 0
          0 0 0 0 0 0
          0 0 0 0 0 0
          0 0 0 0 0 0
          0 0 0 0 0 0
          0 0 0 0 0 0
          0 0 0 0 0 0
          0 0 0 0 0 0
          0 0 0 0 0 0
          0 0 0 0 0 0
          0 0 0 0 0 0
          0 0 0 0 0 0
          0 0 0 0 0 0
          0 0 0 0 0 0
          0 0 0 0 0 0
          0 0 0 0 0 0
          0 0 0 0 0 0
          0 0 0 0 0 0
          0 0 0 0 0 0
          0 0 0 0 0 0
          0 0 0 0 0 0
          0 0 0 0 0 0
          0 0 0 0 0 0
          0 0 0 0 0 0
          0 0 0 0 0 0
          0 0 0 0 0 0
          0 0 0 0 0 0
          0 0 0 0 0 0
          0 0 0 0 0 0
          0 0 0 0 0 0
          0 0 0 0 0 0
          0 0 0 0 0 0
          0 0 0 0 0 0
          0 0 0 0 0 0
          0 0 0 0 0 0
          0 0 0 0 0 0
          0
        </DataArray>
        <DataArray type="Float64" Name="combo" format="ascii" RangeMin="0" RangeMax="2">
          1 2 1 1 0.5 0.75
          1 0.75 0.5 2 1.5 1.25
          0.75 0.5 0.25 0.75 0.625 0.5
          1 0.75 0.5 0.75 0.625 1
          0.75 1 0.875 1 1 1
          0.25 0.625 0.75 0.5 0.5 0.5
          0.75 0 0.25 0 0.25 0
          0 0 0.75 0.75 0.3333333333333333 2
          1.75 2 1.625 0.75 0.625 2
          2 2 1 2 2 2
          2 1 0.875 2 2 2
          1.5 1 1 1 0.6666666666666666 1
          1 1 1 0.875 0.625 0.75
          1 0.75 0.75 1 1 1
          1 0.5 0.75 1.5 0.75 0.75
          0 0.25 0 0 0.75 2
          2 1 2 2 2 0.75
          0.5 0 0 0 0 0
          0.125 0 0.25 0 0 0
          0.25 0.5 0 0 1 0.5
          0 0 0 0 0 0
          0 0 0 0 0 0
          0 0 0 0 0.5 0
          0 0 0 0 0 0
          1 0.75 1 1 0.5 1
          2 1.75 2 1.6666666666666667 1 1
          1 1 1 0.6666666666666666 2 2
          2 2 1 1 0 0
          0 1 0.6666666666666666 0 2 2
          2 2 2 2 2 2
          2 2 2 2 2 2
          2 2 2 2 2 2
          1 1.25 0 0.5 1 1.5
          0 1.5 1.5 1 1 2
          2 2 1 1 1 1
          0.75 1 2 2 2 1.75
          1 1 1.5 1.25 1 1
          2 2 2 2 0.25 0.5
          0 0 1 1.5 0.5 0.5