<?xml version="1.0"?>
<VTKFile type="UnstructuredGrid" version="0.1" byte_order="LittleEndian" header_type="UInt32" compressor="vtkZLibDataCompressor">
  <UnstructuredGrid>
    <Piece NumberOfPoints="454" NumberOfCells="272">
      <PointData>
        <DataArray type="Int32" Name="libmesh_node_id" format="ascii" RangeMin="536" RangeMax="3150">
          536 544 545 865 866 867
          870 873 875 876 877 878
          882 883 885 886 888 899
          900 906 1285 1286 1291 1634
          1635 1636 1637 1638 1639 1640
          1641 1642 1643 1644 1645 1646
          1647 1658 1659 1660 1661 1662
          1663 1664 1665 1666 1667 1678
          1679 1680 1681 1682 1683 1684
          1685 1686 1687 1695 1696 1697
          1698 1699 1700 1701 1702 1703
          1704 1705 1706 1707 1708 1709
          1710 1711 1712 1713 1714 1715
          1718 1719 1724 1726 1727 1729
          1730 1731 1732 1733 1734 1735
          1736 1737 1738 1739 1741 1747
          1749 1750 1751 1752 1753 1754
          1755 1756 1757 1758 1759 1760
          1761 1764 1766 1767 1769 1770
          1771 1772 1773 1774 1775 1776
          1777 1779 1781 1783 2710 2711
          2712 2713 2714 2715 2716 2717
          2718 2719 2720 2721 2722 2723
          2728 2729 2730 2731 2732 2733
          2802 2803 2804 2805 2806 2807
          2808 2809 2810 2811 2812 2813
          2814 2815 2816 2817 2818 2819
          2820 2821 2822 2823 2824 2825
          2826 2827 2828 2829 2830 2831
          2832 2833 2834 2835 2836 2837
          2838 2839 2840 2841 2842 2843
          2844 2845 2846 2847 2848 2849
          2850 2851 2852 2853 2854 2855
          2856 2857 2858 2859 2860 2861
          2862 2863 2864 2865 2866 2867
          2868 2869 2896 2897 2898 2899
          2900 2901 2902 2903 2904 2905
          2906 2907 2908 2909 2910 2911
          2912 2913 2914 2915 2916 2917
          2918 2919 2920 2921 2922 2923
          2924 2925 2926 2927 2928 2929
          2930 2931 2932 2933 2934 2935
          2936 2937 2947 2948 2949 2950
          2958 2959 2960 2977 2978 2979
          2980 2981 2982 2983 2984 2985
          2986 2987 2988 2989 2990 2991
          2992 2993 2994 2995 2996 2997
          2998 2999 3000 3001 3002 3003
          3004 3005 3006 3007 3008 3009
          3010 3011 3012 3013 3014 3015
          3016 3017 3018 3019 3020 3021
          3022 3023 3024 3025 3026 3027
          3028 3029 3030 3031 3032 3033
          3034 3035 3036 3037 3038 3039
          3040 3041 3042 3043 3044 3045
          3046 3047 3048 3049 3050 3051
          3052 3053 3054 3065 3066 3067
          3068 3069 3070 3071 3079 3080
          3081 3082 3083 3084 3085 3086
          3087 3088 3099 3100 3101 3102
          3103 3104 3105 3113 3114 3115
          3116 3117 3118 3119 3120 3121
          3122 3123 3124 3125 3126 3127
          3128 3129 3130 3131 3132 3133
          3134 3135 3144 3145 3146 3147
          3148 3149 3150 868 537 891
          889 869 892 890 874 897
          896 1275 1278 1279 1276 861
          862 1282 1281 1624 1625 1626
          1629 863 1632 864 1650 1651
          1654 1656 1689 1691 1693 2702
          2746 2747 2749 1670 2752 1671
          2708 2762 2764 2766 1673 2780
          2781 2783 871 2786 1676 2796
          2798 2800 872 2726 2876 2878
          2880 2890 2892 2894
        </DataArray>
        <DataArray type="Float64" Name="bounds" format="ascii" RangeMin="0" RangeMax="0">
          0 0 0 0 0 0
          0 0 0 0 0 0
          0 0 0 0 0 0
          0 0 0 0 0 0
          0 0 0 0 0 0
          0 0 0 0 0 0
          0 0 0 0 0 0
          0 0 0 0 0 0
          0 0 0 0 0 0
          0 0 0 0 0 0
          0 0 0 0 0 0
          0 0 0 0 0 0
          0 0 0 0 0 0
          0 0 0 0 0 0
          0 0 0 0 0 0
          0 0 0 0 0 0
          0 0 0 0 0 0
          0 0 0 0 0 0
          0 0 0 0 0 0
          0 0 0 0 0 0
          0 0 0 0 0 0
          0 0 0 0 0 0
          0 0 0 0 0 0
          0 0 0 0 0 0
          0 0 0 0 0 0
          0 0 0 0 0 0
          0 0 0 0 0 0
          0 0 0 0 0 0
          0 0 0 0 0 0
          0 0 0 0 0 0
          0 0 0 0 0 0
          0 0 0 0 0 0
          0 0 0 0 0 0
          0 0 0 0 0 0
          0 0 0 0 0 0
          0 0 0 0 0 0
          0 0 0 0 0 0
          0 0 0 0 0 0
          0 0 0 0 0 0
          0 0 0 0 0 0
          0 0 0 0 0 0
          0 0 0 0 0 0
          0 0 0 0 0 0
          0 0 0 0 0 0
          0 0 0 0 0 0
          0 0 0 0 0 0
          0 0 0 0 0 0
          0 0 0 0 0 0
          0 0 0 0 0 0
          0 0 0 0 0 0
          0 0 0 0 0 0
          0 0 0 0 0 0
          0 0 0 0 0 0
          0 0 0 0 0 0
          0 0 0 0 0 0
          0 0 0 0 0 0
          0 0 0 0 0 0
          0 0 0 0 0 0
          0 0 0 0 0 0
          0 0 0 0 0 0
          0 0 0 0 0 0
          0 0 0 0 0 0
          0 0 0 0 0 0
          0 0 0 0 0 0
          0 0 0 0 0 0
          0 0 0 0 0 0
          0 0 0 0 0 0
          0 0 0 0 0 0
          0 0 0 0 0 0
          0 0 0 0 0 0
          0 0 0 0 0 0
          0 0 0 0 0 0
          0 0 0 0 0 0
          0 0 0 0 0 0
          0 0 0 0 0 0
          0 0 0 0
        </DataArray>
        <DataArray type="Float64" Name="gradient_error" format="ascii" RangeMin="8.86551437890004e-9" RangeMax="3.157252481246833e-7">
          6.838911516301177e-8 1.3440694418864648e-8 2.5678449102118227e-7 4.955770922527672e-8 1.5016007751916998e-7 1.354225077607671e-7
          1.577335203075136e-7 3.8640713512017566e-8 3.516519920463922e-8 2.5129399386825075e-8 1.4587605622801025e-7 1.4361046478464303e-7
          3.030490898075926e-8 8.360655953092902e-8 9.741572380059056e-9 5.402594267938174e-8 1.4688488129672684e-7 3.35867048445757e-8
          5.0734600973458625e-8 6.95195794672756e-8 1.4558450299691266e-8 1.1711982339295654e-8 8.86551437890004e-9 9.084695143353494e-8
          8.268236021290113e-8 1.704377335579189e-7 1.5695857182500022e-7 6.91613000712994e-8 1.6792573264301228e-7 1.5268361452474284e-7
          6.22176792195147e-8 1.1998202874396904e-7 1.1219704084280982e-7 1.4156346903443532e-7 1.3334216019315816e-7 1.3912661057959882e-7
          1.0624103658200836e-7 3.9518425533543635e-8 7.303501462726749e-8 3.1749962523003e-8 6.414560283030849e-8 2.9119261620325156e-8
          4.9585381858678455e-8 4.133862038147073e-8 9.737733109191817e-8 1.2036038549875835e-7 1.0995672122710268e-7 2.6738658198977346e-8
          2.9473803092933156e-8 3.459810067269319e-8 3.768587679238814e-8 3.4013245847415585e-8 6.906757801832268e-8 1.3261689512347549e-8
          2.4078447025150015e-8 3.012478143382444e-8 3.118499693170029e-8 1.0587285271344639e-7 1.3281678407980888e-7 1.7667117095591005e-7
          1.6734743034349157e-7 1.214511553817185e-7 1.2036230299724748e-7 2.0348040155464648e-7 5.964573418750598e-8 5.372771013684738e-8
          1.5788219586021908e-7 1.4169225931356681e-7 3.857653174825822e-8 1.3928577484719928e-7 1.2319993200779814e-7 3.944527488707542e-8
          9.986497049643637e-8 8.314273072913986e-8 1.529864918626305e-7 1.3902530257662112e-7 1.3014498750101725e-7 1.5925294102173836e-7
          1.1263462575354591e-7 9.820654113164234e-8 6.37358409289545e-8 1.2690986532236587e-7 1.1111484711696344e-7 1.1753410105152931e-7
          2.390372361560319e-8 5.3556808861800324e-8 1.6773370619610255e-8 4.1946196456882855e-8 1.6726583543244327e-8 3.2885999497642475e-8
          2.472102062388298e-8 1.3945635337943964e-7 1.2153102342450362e-7 8.426425228817034e-8 3.050598004884896e-8 9.72010669395512e-8
          3.917646669411014e-8 4.382592228746738e-8 4.711600572584535e-8 5.221889636298626e-8 5.5970213913077426e-8 1.0278590028418777e-7
          1.0252806974698237e-7 1.2651107839982619e-8 3.637282941104132e-8 4.347261927863268e-8 4.703207894815806e-8 5.877329578174167e-8
          6.103553507745599e-8 9.380482867444805e-8 1.2262132767456675e-8 5.1100864090191034e-8 5.738858634732696e-8 1.5387293607203237e-7
          1.368515847602738e-7 1.4985495372304607e-7 9.158046896506981e-8 1.1293034048782056e-7 9.897837967588338e-8 1.8022681832179207e-7
          1.1092212989548241e-7 5.886187030341475e-8 7.887690785915186e-8 7.279192585783736e-8 2.9913395560223874e-8 3.060810961361835e-8
          3.3736911801829626e-8 3.259116342895278e-8 3.679810252588887e-8 3.7338496776261014e-8 4.1334638128513754e-8 3.8647449055587374e-8
          3.444341378447626e-8 3.682516772586361e-8 3.317077566733805e-8 3.937586266713999e-8 4.194145827593867e-8 3.6111958498894054e-8
          2.874965446462403e-8 2.9444451794659273e-8 2.6165081972631726e-8 2.9943843438542044e-8 3.012571170866974e-8 2.699948812903437e-8
          2.8181286524432043e-8 2.866742339543576e-8 3.163685400054326e-8 3.206710882476365e-8 2.9961233515822006e-8 3.312685246673245e-8
          2.341168677738181e-8 2.4231801465807414e-8 2.7635935417680168e-8 2.599883479884621e-8 3.558584446771463e-8 3.593179804751303e-8
          3.99846504844222e-8 4.020333496119041e-8 3.666548369416189e-8 4.04752986706236e-8 3.04720583622132e-8 3.146440123197928e-8
          3.5710511489114134e-8 3.338192332167426e-8 3.183275973812111e-8 3.457691764361974e-8 3.301823401861616e-8 3.5057517863422535e-8
          2.798384895859155e-8 3.124476825951901e-8 3.130441448480167e-8 3.762795267788433e-8 4.084675992039e-8 3.701919209293564e-8
          3.951183659312605e-8 3.494531140263367e-8 3.901980918257801e-8 3.6859835973270963e-8 1.627935723691501e-8 1.847985557664406e-8
          1.8281860147891787e-8 2.0936830133877034e-8 2.2900329324780734e-8 2.611094261338422e-8 1.2184518407706618e-8 1.522284539892647e-8
          1.699909528009142e-8 2.1134292654560277e-8 2.0107155221258604e-8 2.3376415309591105e-8 2.1820571978814544e-8 2.5812746716042077e-8
          2.9596531785548347e-8 3.329661492918248e-8 1.3643780127631188e-8 1.8349127473988707e-8 1.9276502247722946e-8 2.7112735260484586e-8
          2.619719501500409e-8 2.9640392456242252e-8 2.89035329324525e-8 3.1916073897639876e-8 2.564879780459105e-8 2.9119915954822355e-8
          2.8063929265195934e-8 3.3471785671066324e-8 3.763124168728739e-8 3.5260425298116494e-8 3.891421513424186e-8 3.293299122549397e-8
          3.6974926574260096e-8 3.472760433666828e-8 3.093359492084521e-8 3.212355294762218e-8 2.8727334515495805e-8 2.952956417115792e-8
          3.349537525665937e-8 3.551294159812961e-8 3.340386601743909e-8 3.317750107051218e-8 3.364677770283709e-8 3.051930754990939e-8
          3.1087929501278897e-8 3.753986466396202e-8 3.9732858936818926e-8 3.6943577645046265e-8 3.3436907411764795e-8 3.585473058908985e-8
          3.634083425544441e-8 3.85280131884783e-8 3.300059968727726e-8 3.548623208250555e-8 3.7163523534370526e-8 3.841118564289067e-8
          4.097980525826065e-8 4.0697703858507894e-8 4.260535521751702e-8 3.815380066033963e-8 4.094424395979513e-8 4.1547379397707684e-8
          4.548373346637374e-8 4.5525808766813585e-8 4.95021865110714e-8 4.5390672113452864e-8 5.345308750253851e-8 5.2794298053431366e-8
          5.5092904723998253e-8 5.083467745188295e-8 4.423878779744049e-8 4.607872109699662e-8 4.3264115435228706e-8 4.7266602966544526e-8
          4.73623971032975e-8 4.499935963364739e-8 5.7056721987803947e-8 5.622868019388722e-8 5.578855896421254e-8 5.293817591026314e-8
          4.604271497713037e-8 4.304774709899974e-8 4.1609716533704934e-8 4.469614599145224e-8 4.47306335287901e-8 4.9420576873498307e-8
          4.9226268452949366e-8 4.439549286737416e-8 4.818422477287062e-8 3.9066738541436117e-8 4.032458612833251e-8 4.521045673760662e-8
          4.232532667213476e-8 5.375271648320721e-8 5.329680319498581e-8 5.723488251899943e-8 5.651445258346697e-8 5.1555203437572425e-8
          5.421096022286442e-8 4.838971753544352e-8 4.997382361725351e-8 5.4124482216609344e-8 5.177323281125582e-8 4.386493474397412e-8
          4.656264714494238e-8 4.370400481932788e-8 4.578880477654394e-8 4.315681340796218e-8 4.7252848553220773e-8 4.316317899671977e-8
          4.8845751188382744e-8 5.0309026215841054e-8 4.742198540838506e-8 4.7990154633887784e-8 5.1223259827475964e-8 5.467257420672365e-8
          4.9439359209141754e-8 2.3614437445711846e-8 2.8390646831820817e-8 2.565806243012481e-8 3.1235446967904375e-8 3.720926449631002e-8
          4.1315093989973386e-8 1.300395632508221e-8 2.0067579697743244e-8 2.1000330855422824e-8 3.316818926964599e-8 2.722940403923318e-8
          3.397447937361802e-8 2.7801845362091808e-8 3.627656871307497e-8 4.5540611577186914e-8 4.972888469687756e-8 1.1731718471455231e-8
          2.1800619849269285e-8 2.2240173435866947e-8 3.981048695512408e-8 4.1967724080216006e-8 4.6365979847358085e-8 4.2748144341890734e-8
          4.6556877250102745e-8 4.111290303501536e-8 4.527283578116276e-8 4.282346729041535e-8 5.0737406295164e-8 5.477696907855022e-8
          5.005489590529716e-8 5.293155414363169e-8 4.945319234559706e-8 5.3464445072037764e-8 5.087305858844306e-8 5.9397803845326534e-8
          5.850421260574719e-8 5.980804756667143e-8 5.8850849538883986e-8 5.575443000650186e-8 5.566785577857638e-8 5.5662505002237495e-8
          5.762918664038493e-8 6.028656064855662e-8 5.922081659985719e-8 5.057376176239238e-8 4.9260952483256825e-8 4.72492848779489e-8
          4.5079844920457417e-8 5.711941146156538e-8 5.808620709086588e-8 5.335485056400604e-8 2.928689334219689e-8 3.899426441572478e-8
          3.350601561435927e-8 4.287718690001868e-8 5.359358199865396e-8 5.6673545078840066e-8 8.987662382767895e-9 2.3509900568286836e-8
          2.7094392616479543e-8 4.7316214900334104e-8 5.798427639732816e-8 5.994001669427913e-8 5.494567701541981e-8 5.560316354836026e-8
          5.683453841917997e-8 5.91817770743404e-8 5.6303504795927e-8 4.307456081098595e-8 4.4671505969433896e-8 4.315039900558014e-8
          4.557437675441354e-8 4.5578058893426846e-8 4.374664334440937e-8 4.340994501565347e-8 4.547286646948177e-8 4.4007376733267203e-8
          4.474658165921138e-8 4.374532922032098e-8 4.627422696952963e-8 4.486435446095427e-8 4.686878163000954e-8 4.7344082158729895e-8
          4.474091559338183e-8 4.367251685759986e-8 4.816318650560555e-8 4.9110105424032943e-8 4.5735187842354284e-8 4.448354672551205e-8
          4.1931902828053165e-8 3.968865776290347e-8 4.675528025447169e-8 4.471168904056642e-8 4.11022307647048e-8 3.699835240096852e-8
          4.9027013783431315e-8 4.7491475253079674e-8 4.2515803766506135e-8 9.199295401795756e-8 5.3037802406061624e-8 6.30329448980723e-8
          9.709931867471506e-8 2.1030059225766912e-7 1.1307193763446853e-7 1.6203324652494377e-7 3.157252481246833e-7 1.6311093037086477e-7
          2.2696717437517248e-7 5.693672354386234e-8 3.190170980977987e-8 2.5832985530978722e-8 4.642209327107742e-8 1.048493491443066e-7
          7.873185248375548e-8 1.9764261252177572e-8 3.59074629982925e-8 9.313204065034708e-8 1.6759537151507564e-7 1.5621257971849163e-7
          1.238692472335244e-7 1.3042576867550611e-7 1.2468201073284355e-7 1.0388787274307452e-7 4.679404312846112e-8 7.997340685748262e-8
          5.703810716982404e-8 1.0194549329417064e-7 1.0526223877662516e-7 1.7872611791648058e-7 1.1826129661365192e-7 2.7957780717431792e-8
          2.5223574360582764e-8 2.574137916395174e-8 2.7190584991765836e-8 2.048352591208721e-8 2.1247536899821864e-8 2.2968753197495194e-8
          3.219056851937766e-8 2.9353419050515493e-8 3.102597703052403e-8 2.5134634995227812e-8 2.8848420306637868e-8 1.4276003103953701e-8
          1.615837560231772e-8 2.0038863635466525e-8 1.0782242230455127e-8 1.3346655015463407e-8 1.8450488180423388e-8 2.315870722091635e-8
          2.6262795139416788e-8 2.2564414033030403e-8 2.53633917955249e-8 2.7899850073150206e-8 2.9679709867075184e-8 2.7892317757922356e-8
          3.157594438351186e-8 3.1212295792554064e-8 3.4179436577855926e-8 3.073227247908456e-8
        </DataArray>
        <DataArray type="Float64" Name="gradient_matprop_error" format="ascii" RangeMin="0" RangeMax="0">
          0 0 0 0 0 0
          0 0 0 0 0 0
          0 0 0 0 0 0
          0 0 0 0 0 0
          0 0 0 0 0 0
          0 0 0 0 0 0
          0 0 0 0 0 0
          0 0 0 0 0 0
          0 0 0 0 0 0
          0 0 0 0 0 0
          0 0 0 0 0 0
          0 0 0 0 0 0
          0 0 0 0 0 0
          0 0 0 0 0 0
          0 0 0 0 0 0
          0 0 0 0 0 0
          0 0 0 0 0 0
          0 0 0 0 0 0
          0 0 0 0 0 0
          0 0 0 0 0 0
          0 0 0 0 0 0
          0 0 0 0 0 0
          0 0 0 0 0 0
          0 0 0 0 0 0
          0 0 0 0 0 0
          0 0 0 0 0 0
          0 0 0 0 0 0
          0 0 0 0 0 0
          0 0 0 0 0 0
          0 0 0 0 0 0
          0 0 0 0 0 0
          0 0 0 0 0 0
          0 0 0 0 0 0
          0 0 0 0 0 0
          0 0 0 0 0 0
          0 0 0 0 0 0
          0 0 0 0 0 0
          0 0 0 0 0 0
          0 0 0 0 0 0
          0 0 0 0 0 0
          0 0 0 0 0 0
          0 0 0 0 0 0
          0 0 0 0 0 0
          0 0 0 0 0 0
          0 0 0 0 0 0
          0 0 0 0 0 0
          0 0 0 0 0 0
          0 0 0 0 0 0
          0 0 0 0 0 0
          0 0 0 0 0 0
          0 0 0 0 0 0
          0 0 0 0 0 0
          0 0 0 0 0 0
          0 0 0 0 0 0
          0 0 0 0 0 0
          0 0 0 0 0 0
          0 0 0 0 0 0
          0 0 0 0 0 0
          0 0 0 0 0 0
          0 0 0 0 0 0
          0 0 0 0 0 0
          0 0 0 0 0 0
          0 0 0 0 0 0
          0 0 0 0 0 0
          0 0 0 0 0 0
          0 0 0 0 0 0
          0 0 0 0 0 0
          0 0 0 0 0 0
          0 0 0 0 0 0
          0 0 0 0 0 0
          0 0 0 0 0 0
          0 0 0 0 0 0
          0 0 0 0 0 0
          0 0 0 0 0 0
          0 0 0 0 0 0
          0 0 0 0
        </DataArray>
        <DataArray type="Float64" Name="initial_marker" format="ascii" RangeMin="0" RangeMax="2">
          1 2 2 1 2 2
          1.5 2 1 1 2 2
          0 1.5 2 2 2 0
          0.25 0.5 0 0 0 2
          2 2 2 2 2 2
          2 2 2 2 2 2
          2 1 1.5 1 1.5 0
          1 1 2 2 2 2
          2 2 2 2 2 2
          2 2 2 2 2 2
          2 2 2 2 2 2
          2 2 2 2 2 2
          2 2 2 2 2 2
          2 2 2 2 2 2
          1 1.5 1 1.5 0 1
          1 2 2 2 1.5 2
          2 2 2 2 2 2
          2 2 2 2 2 2
          2 2 2 2 2 2
          2 2 2 2 2 2
          2 2 2 2 2 2
          2 2 2 2 2 2
          2 2 2 2 2 2
          2 2 2 2 2 2
          2 2 2 2 2 2
          2 2 2 2 2 2
          2 2 2 2 2 2
          2 2 2 2 2 2
          2 2 2 2 2 2
          2 2 2 2 2 2
          2 2 2 2 2 2
          2 2 2 2 2 2
          2 2 2 2 2 2
          2 2 2 2 2 2
          2 2 2 2 2 2
          2 2 2 2 2 2
          2 2 2 2 2 2
          2 2 2 2 2 2
          2 2 2 2 2 2
          2 2 2 2 2 2
          2 2 2 2 2 2
          2 2 2 2 2 2
          2 2 2 2 2 2
          2 2 2 2 2 2
          2 2 2 2 2 2
          2 2 2 2 2 2
          2 2 2 2 2 2
          2 2 2 2 2 2
          2 2 2 2 2 2
          2 2 2 2 2 2
          2 2 2 2 2 2
          2 2 2 2 2 2
          2 2 2 2 2 2
          2 2 2 2 2 2
          2 2 2 2 2 2
          2 2 2 2 2 2
          2 2 2 2 2 2
          2 2 2 2 2 2
          2 2 2 2 2 2
          2 2 2 2 2 2
          2 2 2 2 2 2
          2 2 2 2 2 2
          2 2 2 2 2 2
          2 2 2 2 2 2
          2 2 2 2 2 2
          2 2 2 0 0 0
          0 1.5 0.5 0.5 2 1
          1 0 0 0 0 1
          1 0 0 2 2 2
          2 2 2 2 1 1.5
          1 2 2 2 2 2
          2 2 2 2 2 2
          2 2 2 2 2 2
          2 2 2 2 2 2
          2 2 2 2 2 2
          2 2 2 2
        </DataArray>
        <DataArray type="Float64" Name="markers_norefine" format="ascii" RangeMin="0" RangeMax="2">
          0 2 0 0 1 0
          0 2 0 0 1 0
          0 0 2 2 0 0
          0 0 0 0 0 0
          0 0 0 0 0 0
          0 0 0 1 1 1
          0 0 0 0 0 0
          0 0 0 0 0 2
          2 2 2 2 1.75 2
          2 2 2 0 0 0
          0 0 0 0 0 0
          0 0 0 0 0 0
          0 0 1 1 1 0
          0 0 0 1 0.5 0
          0 0 0 0 0 0
          0 0 0 0 0 0
          0 2 2 2 2 1.5
          1.5 2 2 2 2 2
          2 1.25 2 2 2 0
          0 0 0 0 0 0
          0 0 0 0 2 2
          2 2 2 2 2 2
          1 1 0 1 1 0
          0 0 0 0 0 0
          2 2 2 2 2 2
          2 2 2 2 2 2
          2 2 2 2 2 2
          2 2 1.5 1.5 1 1
          2 2 2 1.5 1.5 1
          1 2 2 2 2 2
          2 2 2 2 2 2
          2 2 2 2 2 2
          2 2 2 2 2 2
          2 2 2 2 2 2
          2 2 2 2 2 2
          2 2 0.5 0.5 0 0
          1 1 0 0.5 0.5 0
          0 1 1 0 1 1
          0 0 1 1 0 1
          1 0 0 1 1 0
          2 2 2 2 2 2
          2 2 1 1 0 1
          1 0 2 2 2 1.5
          0.5 0 0 2 2 2
          2 2 2 2 2 2
          2 2 2 2 2 2
          2 2 2 2 2 1.5
          1.5 1 1 2 2 2
          1.5 1.5 1 1 2 2
          2 2 2 2 2 2
          2 2 2 2 2 2
          2 2 2 2 2 2
          2 2 2 2 2 2
          2 2 2 2 2 2
          2 2 2 2 2 2
          2 2 2 1.75 1.5 2
          2 2 2 1.25 1 1
          1 2 2 2 2 2
          2 2 2 2 2 2
          2 2 2 2 2 1.75
          2 2 2 1 1 0
          1 1 0 1 1 0
          0 1 1 0 1 1
          0 0 1 1 0 1
          0.5 0 1 0.75 0 0
          1 1 0 0 0 0
          0 0 0 0 0 0
          0 0 0 0 0 0
          0 0 0 0 0 0
          0 1 1 0 0 0
          0 0 0 0 0 2
          2 2 2 2 2 2
          1 1.5 1 2 2 2
          2 2 2 2 2 2
          2 2 2 0 0.5 0
          1 1 0 1
        </DataArray>
        <DataArray type="Float64" Name="markers_mustrefine" format="ascii" RangeMin="0" RangeMax="2">
          1 2 2 1 2 2
          1.5 2 1 1 2 2
          0 1.5 2 2 2 0
          0.25 0.5 0 0 0 2
          2 2 2 2 2 2
          2 2 2 2 2 2
          2 1 1.5 1 1.5 0
          1 1 2 2 2 2
          2 2 2 2 2 2
          2 2 2 2 2 2
          2 2 2 2 2 2
          2 2 2 2 2 2
          2 2 2 2 2 2
          2 2 2 2 2 2
          1 1.5 1 1.5 0 1
          1 2 2 2 1.5 2
          2 2 2 2 2 2
          2 2 2 2 2 2
          2 2 2 2 2 2
          2 2 2 2 2 2
          2 2 2 2 2 2
          2 2 2 2 2 2
          2 2 2 2 2 2
          2 2 2 2 2 2
          2 2 2 2 2 2
          2 2 2 2 2 2
          2 2 2 2 2 2
          2 2 2 2 2 2
          2 2 2 2 2 2
          2 2 2 2 2 2
          2 2 2 2 2 2
          2 2 2 2 2 2
          2 2 2 2 2 2
          2 2 2 2 2 2
          2 2 2 2 2 2
          2 2 2 2 2 2
          2 2 2 2 2 2
          2 2 2 2 2 2
          2 2 2 2 2 2
          2 2 2 2 2 2
          2 2 2 2 2 2
          2 2 2 2 2 2
          2 2 2 2 2 2
          2 2 2 2 2 2
          2 2 2 2 2 2
          2 2 2 2 2 2
          2 2 2 2 2 2
          2 2 2 2 2 2
          2 2 2 2 2 2
          2 2 2 2 2 2
          2 2 2 2 2 2
          2 2 2 2 2 2
          2 2 2 2 2 2
          2 2 2 2 2 2
          2 2 2 2 2 2
          2 2 2 2 2 2
          2 2 2 2 2 2
          2 2 2 2 2 2
          2 2 2 2 2 2
          2 2 2 2 2 2
          2 2 2 2 2 2
          2 2 2 2 2 2
          2 2 2 2 2 2
          2 2 2 2 2 2
          2 2 2 2 2 2
          2 2 2 0 0 0
          0 1.5 0.5 0.5 2 1
          1 0 0 0 0 1
          1 0 0 2 2 2
          2 2 2 2 1 1.5
          1 2 2 2 2 2
          2 2 2 2 2 2
          2 2 2 2 2 2
          2 2 2 2 2 2
          2 2 2 2 2 2
          2 2 2 2
        </DataArray>
        <DataArray type="Float64" Name="gradient_marker" format="ascii" RangeMin="0" RangeMax="1">
          0 0 1 0 0.5 0.625
          0.625 0 0 0 0.5 0.625
          0 0.25 0 0 0.75 0
          0.125 0.25 0 0 0 0.5
          0.25 0.75 0.625 0 0.5 0.5
          0 0.5 0.5 0.5 0.5 0.5
          0.5 0 0.25 0 0.25 0
          0 0 0.5 0.625 0.5 0
          0 0 0 0 0.125 0
          0 0 0 0.5 0.625 1
          1 0.5 0.5 1 0 0
          0.5 0.5 0 0.5 0.5 0
          0.5 0.375 0.5 0.5 0.5 0.75
          0.5 0.5 0.25 0.5 0.5 0.5
          0 0.25 0 0.125 0 0
          0 0.75 0.5 0.5 0 0.25
          0 0 0 0 0 0.25
          0.25 0 0 0 0 0
          0 0.25 0 0 0 0.75
          0.625 1 0.5 0.5 0.5 1
          0.5 0.25 0.5 0.5 0 0
          0 0 0 0 0 0
          0 0 0 0 0 0
          0 0 0 0 0 0
          0 0 0 0 0 0
          0 0 0 0 0 0
          0 0 0 0 0 0
          0 0 0 0 0 0
          0 0 0 0 0 0
          0 0 0 0 0 0
          0 0 0 0 0 0
          0 0 0 0 0 0
          0 0 0 0 0 0
          0 0 0 0 0 0
          0 0 0 0 0 0
          0 0 0 0 0 0
          0 0 0 0 0 0
          0 0 0 0 0 0
          0 0 0 0 0 0
          0 0 0 0 0 0
          0 0 0 0 0 0
          0 0 0 0 0 0
          0 0 0 0 0 0
          0 0 0 0 0 0
          0 0 0 0 0 0
          0 0 0 0 0 0
          0 0 0 0 0 0
          0 0 0 0 0 0
          0 0 0 0 0 0
          0 0 0 0 0 0
          0 0 0 0 0 0
          0 0 0 0 0 0
          0 0 0 0 0 0
          0 0 0 0 0 0
          0 0 0 0 0 0
          0 0 0 0 0 0
          0 0 0 0 0 0
          0 0 0 0 0 0
          0 0 0 0 0 0
          0 0 0 0 0 0
          0 0 0 0 0 0
          0 0 0 0 0 0
          0 0 0 0 0 0
          0 0 0 0 0 0
          0 0 0 0 0 0
          0 0 0 0.3333333333333333 0.375 0.25
          0.5 0.75 0.375 0.5 1 0.5
          0.5 0.25 0 0 0.125 0.75
          0.125 0 0 0.5 1 0.75
          0.5 0.5 0.5 0.5 0 0.25
          0 0.5 0.5 1 0.5 0
          0 0 0 0 0 0
          0 0 0 0 0 0
          0 0 0 0 0 0
          0 0 0 0 0 0
          0 0 0 0
        </DataArray>
        <DataArray type="Float64" Name="gradient_matprop_marker" format="ascii" RangeMin="0" RangeMax="0">
          0 0 0 0 0 0
          0 0 0 0 0 0
          0 0 0 0 0 0
          0 0 0 0 0 0
          0 0 0 0 0 0
          0 0 0 0 0 0
          0 0 0 0 0 0
          0 0 0 0 0 0
          0 0 0 0 0 0
          0 0 0 0 0 0
          0 0 0 0 0 0
          0 0 0 0 0 0
          0 0 0 0 0 0
          0 0 0 0 0 0
          0 0 0 0 0 0
          0 0 0 0 0 0
          0 0 0 0 0 0
          0 0 0 0 0 0
          0 0 0 0 0 0
          0 0 0 0 0 0
          0 0 0 0 0 0
          0 0 0 0 0 0
          0 0 0 0 0 0
          0 0 0 0 0 0
          0 0 0 0 0 0
          0 0 0 0 0 0
          0 0 0 0 0 0
          0 0 0 0 0 0
          0 0 0 0 0 0
          0 0 0 0 0 0
          0 0 0 0 0 0
          0 0 0 0 0 0
          0 0 0 0 0 0
          0 0 0 0 0 0
          0 0 0 0 0 0
          0 0 0 0 0 0
          0 0 0 0 0 0
          0 0 0 0 0 0
          0 0 0 0 0 0
          0 0 0 0 0 0
          0 0 0 0 0 0
          0 0 0 0 0 0
          0 0 0 0 0 0
          0 0 0 0 0 0
          0 0 0 0 0 0
          0 0 0 0 0 0
          0 0 0 0 0 0
          0 0 0 0 0 0
          0 0 0 0 0 0
          0 0 0 0 0 0
          0 0 0 0 0 0
          0 0 0 0 0 0
          0 0 0 0 0 0
          0 0 0 0 0 0
          0 0 0 0 0 0
          0 0 0 0 0 0
          0 0 0 0 0 0
          0 0 0 0 0 0
          0 0 0 0 0 0
          0 0 0 0 0 0
          0 0 0 0 0 0
          0 0 0 0 0 0
          0 0 0 0 0 0
          0 0 0 0 0 0
          0 0 0 0 0 0
          0 0 0 0 0 0
          0 0 0 0 0 0
          0 0 0 0 0 0
          0 0 0 0 0 0
          0 0 0 0 0 0
          0 0 0 0 0 0
          0 0 0 0 0 0
          0 0 0 0 0 0
          0 0 0 0 0 0
          0 0 0 0 0 0
          0 0 0 0
        </DataArray>
        <DataArray type="Float64" Name="combo" format="ascii" RangeMin="0" RangeMax="2">
          0 2 1 0 1.5 0.625
          0.625 2 0 0 1.5 0.625
          0 0.25 2 2 0.75 0
          0.125 0.25 0 0 0 0.5
          0.25 0.75 0.625 0 0.5 0.5
          0 0.5 0.5 1.5 1.5 1.5
          0.5 0 0.25 0 0.25 0
          0 0 0.5 0.625 0.5 2
          2 2 2 2 1.875 2
          2 2 2 0.5 0.625 1
          1 0.5 0.5 1 0 0
          0.5 0.5 0 0.5 0.5 0
          0.5 0.375 1.5 1.5 1.5 0.75
          0.5 0.5 0.25 1.5 1 0.5
          0 0.25 0 0.125 0 0
          0 0.75 0.5 0.5 0 0.25
          0 2 2 2 2 1.75
          1.75 2 2 2 2 2
          2 1.5 2 2 2 0.75
          0.625 1 0.5 0.5 0.5 1
          0.5 0.25 0.5 0.5 2 2
          2 2 2 2 2 2
          1 1 0 1 1 0
          0 0 0 0 0 0
          2 2 2 2 2 2
          2 2 2 2 2 2
          2 2 2 2 2 2
          2 2 1.5 1.5 1 1
          2 2 2 1.5 1.5 1
          1 2 2 2 2 2
          2 2 2 2 2 2
          2 2 2 2 2 2
          2 2 2 2 2 2
          2 2 2 2 2 2
          2 2 2 2 2 2
          2 2 0.5 0.5 0 0
          1 1 0 0.5 0.5 0
          0 1 1 0 1 1
          0 0 1 1 0 1
          1 0 0 1 1 0
          2 2 2 2 2 2
          2 2 1 1 0 1
          1 0 2 2 2 1.5
          0.5 0 0 2 2 2
          2 2 2 2 2 2
          2 2 2 2 2 2
          2 2 2 2 2 1.5
          1.5 1 1 2 2 2
          1.5 1.5 1 1 2 2
          2 2 2 2 2 2
          2 2 2 2 2 2
          2 2 2 2 2 2
          2 2 2 2 2 2
          2 2 2 2 2 2
          2 2 2 2 2 2
          2 2 2 1.75 1.5 2
          2 2 2 1.25 1 1
          1 2 2 2 2 2
          2 2 2 2 2 2
          2 2 2 2 2 1.75
          2 2 2 1 1 0
          1 1 0 1 1 0
          0 1 1 0 1 1
          0 0 1 1 0 1
          0.5 0 1 0.75 0 0
          1 1 0 0.3333333333333333 0.375 0.25
          0.5 0.75 0.375 0.5 1 0.5
          0.5 0.25 0 0 0.125 0.75
          0.125 0 0 0.5 1 0.75
          0.5 1.5 1.5 0.5 0 0.25
          0 0.5 0.5 1 0.5 2
          2 2 2 2 2 2
          1 1.5 1 2 2 2
          2 2 2 2 2 2
          2 2 2 0 0.5 0
          1 1 0 1
        </DataArray>
        <DataArray type="Float64" Name="dHdT" format="ascii" RangeMin="25.85711707323773" RangeMax="58.14342722129564">
          27.781449967901864 46.3243163689114 31.444757225466475 27.01304984384216 46.753560269417065 38.68875154528644
          28.796949014296516 51.84300547331567 26.7324064429767 26.396762699360632 43.602926473486065 35.26098621927119
          26.087648578498346 27.607573774752062 46.325112057319544 49.580114553363494 29.85005275821513 25.98413044449344
          26.141255145322273 26.32749567777378 25.89636620827953 25.876741640758635 25.85711707323773 30.512016595870477
          29.913016288186206 35.574290524093264 34.42022342172185 28.90445656306556 34.52153162599463 33.42718993994112
          28.60167040203664 31.801281737485084 31.017442780255344 48.527294916475086 46.39141655365385 44.904428102233894
          39.49810517269005 27.414204205203845 29.261502022905155 27.027453782856576 28.668554800923612 26.93908358683636