<?xml version="1.0"?>
<VTKFile type="UnstructuredGrid" version="0.1" byte_order="LittleEndian" header_type="UInt32" compressor="vtkZLibDataCompressor">
  <UnstructuredGrid>
    <Piece NumberOfPoints="353" NumberOfCells="180">
      <PointData>
        <DataArray type="Int32" Name="libmesh_node_id" format="ascii" RangeMin="132" RangeMax="3228">
          165 166 167 168 169 170
          171 172 187 188 189 190
          198 199 200 201 202 203
          204 205 206 220 221 222
          223 231 232 233 234 235
          236 237 238 239 240 253
          254 255 256 257 2853 2854
          2855 2856 2857 2858 2859 2860
          2861 2862 2863 2864 2865 2866
          2867 2868 2869 2870 2871 2872
          2873 2874 2875 2876 2877 2878
          2879 2880 2881 2882 2883 2884
          2885 2886 2887 2888 2889 2890
          2891 2892 2893 2894 2895 2896
          2897 2898 2899 2900 2901 2902
          2903 2905 2906 2907 2908 2909
          2910 2911 2912 2913 2923 2924
          2925 2926 2927 2928 2929 2930
          2931 2932 2933 2934 2935 2936
          2937 2938 2939 2940 2941 2942
          2943 2944 2945 2946 2947 2948
          2949 2950 2951 2952 2953 2954
          2955 2956 3015 3016 3017 3018
          3019 3020 3021 3025 3026 3027
          3035 3036 3037 3038 3039 3040
          3041 3042 3043 3044 3051 3052
          3053 3054 3055 3056 3057 3058
          3059 3060 3061 3062 3063 3064
          3065 3066 3067 3068 3069 3070
          3071 3072 3073 3074 3075 3076
          3077 3078 3079 3080 3081 3082
          3083 3084 3085 3086 3087 3088
          3089 3090 3091 3092 3093 3094
          3095 3096 3097 3098 3099 3100
          3101 3102 3103 3104 3105 3106
          3107 3108 3109 3110 3111 3112
          3113 3114 3115 3116 3117 3118
          3119 3120 3121 3122 3123 3124
          3125 3126 3127 3128 3129 3130
          3131 3132 3133 3134 3135 3136
          3137 3138 3139 3140 3141 3142
          3143 3144 3145 3146 3147 3148
          3149 3150 3151 3152 3153 3154
          3155 3156 3157 3158 3159 3160
          3161 3162 3163 3164 3165 3166
          3167 3171 3172 3174 3175 3177
          3187 3188 3191 3193 3194 3196
          3203 3204 3207 3208 3210 3212
          3219 3220 3221 3222 3223 3224
          3225 3226 3227 3228 132 133
          134 135 136 137 138 139
          140 141 173 174 154 155
          156 157 158 191 207 224
          2904 2915 2918 2917 2919 3022
          3023 3024 3028 3031 3032 2914
          3045 3046 3047 3048 2922 3049
          3050 3168 3169 3170 3173 2916
          3176 3189 3190 3192 2920 3195
          2921 3205 3206 3209 3211
        </DataArray>
        <DataArray type="Float64" Name="bounds" format="ascii" RangeMin="0" RangeMax="0">
          0 0 0 0 0 0
          0 0 0 0 0 0
          0 0 0 0 0 0
          0 0 0 0 0 0
          0 0 0 0 0 0
          0 0 0 0 0 0
          0 0 0 0 0 0
          0 0 0 0 0 0
          0 0 0 0 0 0
          0 0 0 0 0 0
          0 0 0 0 0 0
          0 0 0 0 0 0
          0 0 0 0 0 0
          0 0 0 0 0 0
          0 0 0 0 0 0
          0 0 0 0 0 0
          0 0 0 0 0 0
          0 0 0 0 0 0
          0 0 0 0 0 0
          0 0 0 0 0 0
          0 0 0 0 0 0
          0 0 0 0 0 0
          0 0 0 0 0 0
          0 0 0 0 0 0
          0 0 0 0 0 0
          0 0 0 0 0 0
          0 0 0 0 0 0
          0 0 0 0 0 0
          0 0 0 0 0 0
          0 0 0 0 0 0
          0 0 0 0 0 0
          0 0 0 0 0 0
          0 0 0 0 0 0
          0 0 0 0 0 0
          0 0 0 0 0 0
          0 0 0 0 0 0
          0 0 0 0 0 0
          0 0 0 0 0 0
          0 0 0 0 0 0
          0 0 0 0 0 0
          0 0 0 0 0 0
          0 0 0 0 0 0
          0 0 0 0 0 0
          0 0 0 0 0 0
          0 0 0 0 0 0
          0 0 0 0 0 0
          0 0 0 0 0 0
          0 0 0 0 0 0
          0 0 0 0 0 0
          0 0 0 0 0 0
          0 0 0 0 0 0
          0 0 0 0 0 0
          0 0 0 0 0 0
          0 0 0 0 0 0
          0 0 0 0 0 0
          0 0 0 0 0 0
          0 0 0 0 0 0
          0 0 0 0 0 0
          0 0 0 0 0
        </DataArray>
        <DataArray type="Float64" Name="gradient_error" format="ascii" RangeMin="3.0285291655005547e-9" RangeMax="0.0000012082459509242372">
          4.887121689839525e-7 4.402992004386546e-7 2.8549421442761064e-7 3.1812282948788985e-7 3.1848853958775085e-7 2.0544176407489305e-7
          1.3716743201757417e-7 9.416085143554435e-8 1.3068922841656661e-7 1.4753348999182725e-7 9.23949885620352e-8 5.339452477898412e-8
          9.163675432317956e-7 9.067915617039343e-7 4.949275139482319e-7 5.2274265414979e-7 8.496252108257292e-7 4.215557147692165e-7
          7.376782695836314e-7 3.009639130140156e-7 6.875499659083786e-8 1.389243075341854e-7 1.5920191367598923e-7 9.530789835926079e-8
          5.298055239845388e-8 8.919065174136533e-7 0.000001047478164677622 8.274736292070727e-7 7.789832019165789e-7 1.1961441397533373e-7
          9.053973026480288e-7 1.7309288146189338e-7 2.8146836452163776e-7 2.8798162835134396e-7 2.2332096525845543e-7 7.707687181513798e-8
          9.191462503758397e-8 4.8768263249611787e-8 1.7933090417397602e-8 6.9141272361467265e-9 0.000001024376920473049 8.788672097226025e-7
          8.666112790490304e-7 9.4893856319945e-7 9.795943713817536e-7 9.447657031786924e-7 9.200972681835861e-7 9.091429670807108e-7
          0.0000010589747272549451 0.0000010081538263786889 5.062083141605382e-7 6.495326930503267e-7 6.423529791498041e-7 6.670049177320233e-7
          9.348118222904583e-7 0.0000010106641966347824 9.735832573181418e-7 0.0000011071646856766667 7.928570719401154e-7 0.0000011215681294912252
          9.423005338809864e-7 8.823444466303314e-7 9.468246738982696e-7 9.684879170670183e-7 6.872204526279752e-7 8.766075881194941e-7
          5.045771155089083e-7 6.860526801309509e-7 7.014061477633618e-7 6.30156827332016e-7 9.535825384679971e-7 7.855099767207894e-7
          8.675282447529936e-7 0.0000012082459509242372 9.864737101540013e-7 7.302896894215334e-7 7.543652424044473e-7 6.737218683744137e-7
          7.769956885418825e-7 6.225482869147979e-7 4.793149616331852e-7 5.392747823267441e-7 3.5665030930435076e-7 1.4032512494472817e-7
          5.34962879480357e-7 2.7370201194704357e-7 6.101420733795801e-7 3.728946298824919e-7 3.602882219751598e-7 5.538014394521834e-7
          4.969761281552852e-7 3.4148088498647145e-7 3.685669357540109e-7 2.7773277104586274e-7 3.227212466146301e-7 2.7684886198188837e-7
          2.1668430675599587e-7 3.245238359558741e-7 3.8899401207675187e-7 2.578911414532881e-7 1.707334101778417e-7 1.7491838232523263e-7
          2.320892365267933e-7 2.361144490746442e-7 1.5979028677489293e-7 2.2118837427583947e-7 6.24076910067629e-8 7.505012192856423e-8
          7.87789130174026e-8 6.569983859006506e-8 2.934450628757449e-7 2.9731051582405577e-7 2.8258646177678603e-7 8.769255285036558e-8
          1.4510057267529557e-7 2.0590990937292366e-7 1.281637483369281e-7 1.873693570577633e-7 4.407985260352223e-8 5.371339297023432e-8
          4.112802607566572e-8 2.667192460705517e-7 2.465749657785985e-7 6.334693333694641e-8 1.0891693848561353e-7 1.663666634421078e-7
          8.766537637025992e-8 1.4335497234293977e-7 2.3905423088622136e-8 2.870906001789473e-8 1.7045498401157618e-8 2.2381638839860206e-7
          1.9904456831561966e-7 3.351269694716732e-8 1.7246941845983043e-8 1.4467639218844859e-8 2.0737607621124205e-8 3.403145868140623e-8
          2.7689286592147296e-8 2.2082405861514467e-8 2.7679268008541515e-8 1.1688336591706677e-8 1.6475525130881644e-8 2.13270773356768e-8
          6.657360444493306e-8 1.1769321753551808e-7 4.737499927268006e-8 9.08329979761105e-8 9.983146528554312e-9 9.067368700676618e-9
          6.132902931334967e-9 1.688128306261031e-7 1.3429099667954095e-7 8.151590872798926e-9 1.8363852727084172e-7 1.7969192612287363e-7
          1.6361425871073228e-7 1.5603838891347293e-7 1.5673185984432945e-7 1.6741233866121824e-7 1.5936601504446576e-7 2.0624846523131742e-7
          1.6453488154125027e-7 1.841795902227687e-7 1.7574532497490554e-7 1.7809281747810704e-7 1.6269364117545857e-7 2.038242989042872e-7
          1.2982519241781715e-7 1.5513275119956286e-7 1.551177713781992e-7 1.6211071521422002e-7 1.8044030998130858e-7 2.3081651507383772e-7
          2.2659945418522007e-7 1.7940110479925707e-7 2.0183964251597108e-7 2.470512483005116e-7 1.9632927643177884e-7 2.1952560804066408e-7
          2.2238239329660236e-7 2.242781802326851e-7 2.3187134236045865e-7 1.2798569452467647e-7 1.7707983084672215e-7 1.9199996778081658e-7
          2.2617396716876783e-7 2.7665104706077347e-7 2.697281589164217e-7 2.1621020478732642e-7 2.381144529845037e-7 2.958385362197477e-7
          2.3884269549500814e-7 2.603976116629379e-7 2.3065247255742096e-7 2.414222610060971e-7 2.6276312370649923e-7 1.5576936251387936e-7
          2.0650074705258578e-7 2.2495668710612812e-7 2.521920494547732e-7 1.2781635939791055e-7 1.185069285114396e-7 1.3334459993111233e-7
          1.8230218074879868e-7 1.8123002896006596e-7 1.6302068475949475e-7 1.6310742278740892e-7 9.782129864343031e-8 1.7919498003926275e-7
          1.6176748994741932e-7 1.0919749762496865e-7 1.4481134055892356e-7 1.4391266482601912e-7 1.4433999985557586e-7 3.1229813113652494e-7
          2.9387363505557635e-7 3.000143524021867e-7 3.2005708822669544e-7 2.6732708475611625e-7 3.367296776540927e-7 3.25376688502986e-7
          2.6448695348922926e-7 2.8700193804599114e-7 2.911712995283125e-7 3.1544544989057705e-7 2.711158909946773e-7 2.8443784345988964e-7
          3.074887385262725e-7 1.9224422932436578e-7 2.486271875889963e-7 2.773044939997269e-7 2.9775979592510195e-7 3.194566714018406e-7
          3.4640441716509473e-7 3.56518584035537e-7 3.846784921893915e-7 3.3270326918243264e-7 3.6095416989591977e-7 2.4896077905285263e-7
          3.1259600522658655e-7 3.5495648917680025e-7 3.546285029771302e-7 1.8932349484807048e-7 1.8334522174842808e-7 2.133758355083069e-7
          2.0501366436750357e-7 1.9443403977134903e-7 2.2157482068453932e-7 1.5043890705866563e-7 1.6739290669958767e-7 1.664536091528764e-7
          1.678917645693753e-7 2.3742817616854333e-7 2.2668210698657906e-7 2.4871560159772955e-7 1.8434690634050966e-7 1.9871039903287192e-7
          2.293002220238158e-7 2.0174725564772846e-7 2.3613131246016992e-7 1.4633782174665082e-7 1.665460686111151e-7 1.6319268547174623e-7
          2.5989004501475964e-7 2.7051536927261136e-7 1.8675431547557936e-7 9.006267341275482e-8 8.870179897345491e-8 1.7694863481989843e-7
          1.5889152231969843e-7 8.7340924534155e-8 1.4083440981949842e-7 3.694415470580256e-7 3.4337252948084287e-7 3.018859514041578e-7
          4.052240574877772e-7 4.319522554976863e-7 3.9205045469875954e-7 3.353996170865452e-7 4.0624069769962873e-7 4.284359298437034e-7
          2.030488834135124e-7 2.4154215581300024e-7 1.3504693642187202e-7 1.576638557360768e-7 2.8003542821248806e-7 1.802807750502816e-7
          1.7418325534209405e-7 1.682683256290377e-7 1.9588180332239697e-7 1.9092902984642277e-7 1.4986683634141607e-7 1.6893778581428077e-7
          1.7168791191056822e-7 2.175803513026999e-7 2.1358973406380777e-7 1.8800873528714546e-7 8.880277815330975e-8 8.128208354360566e-8
          5.165340348731983e-8 5.668977473570013e-8 6.116166017063906e-8 3.8668868166394465e-8 3.4279102217365064e-8 2.2147084282459458e-8
          1.2231134785917135e-8 8.787295551195923e-9 1.5457738594200075e-8 1.9155468557517495e-8 2.2024723431034005e-8 2.45767713180905e-8
          1.617607616214987e-8 1.0015066347553853e-8 5.343456316474712e-9 2.5532457634699042e-8 1.9096340466727688e-7 2.374476581824801e-8
          1.9112564413955224e-7 1.649674872567665e-7 2.006297120188225e-7 3.6706399188355333e-7 2.2331450740237035e-7 8.083927915812272e-9
          2.3894725193019772e-8 1.7648402398005224e-8 1.1402079602990675e-8 2.2180875232732786e-8 1.7668234211010047e-8 5.940838766295091e-8
          3.014957408076135e-8 6.401026342859039e-8 3.0285291655005547e-9 5.417999758981509e-9 1.7994880445569385e-7 9.787095277641941e-8
          7.807470352462462e-9 8.253581358653175e-8 1.729785447837686e-7 1.5420235345238632e-7 1.354261621210041e-7 3.9834478000117143e-7
          3.664489035119494e-7 4.654983948009452e-7 4.884291999823615e-7 4.2593714049358004e-7 3.959458339009123e-7 4.69829486259065e-7
          4.7355953986559195e-7 2.0207414149496042e-7 2.4487934945372455e-7 1.4924442308406692e-7 2.8768455741248875e-7
        </DataArray>
        <DataArray type="Float64" Name="gradient_matprop_error" format="ascii" RangeMin="0" RangeMax="0">
          0 0 0 0 0 0
          0 0 0 0 0 0
          0 0 0 0 0 0
          0 0 0 0 0 0
          0 0 0 0 0 0
          0 0 0 0 0 0
          0 0 0 0 0 0
          0 0 0 0 0 0
          0 0 0 0 0 0
          0 0 0 0 0 0
          0 0 0 0 0 0
          0 0 0 0 0 0
          0 0 0 0 0 0
          0 0 0 0 0 0
          0 0 0 0 0 0
          0 0 0 0 0 0
          0 0 0 0 0 0
          0 0 0 0 0 0
          0 0 0 0 0 0
          0 0 0 0 0 0
          0 0 0 0 0 0
          0 0 0 0 0 0
          0 0 0 0 0 0
          0 0 0 0 0 0
          0 0 0 0 0 0
          0 0 0 0 0 0
          0 0 0 0 0 0
          0 0 0 0 0 0
          0 0 0 0 0 0
          0 0 0 0 0 0
          0 0 0 0 0 0
          0 0 0 0 0 0
          0 0 0 0 0 0
          0 0 0 0 0 0
          0 0 0 0 0 0
          0 0 0 0 0 0
          0 0 0 0 0 0
          0 0 0 0 0 0
          0 0 0 0 0 0
          0 0 0 0 0 0
          0 0 0 0 0 0
          0 0 0 0 0 0
          0 0 0 0 0 0
          0 0 0 0 0 0
          0 0 0 0 0 0
          0 0 0 0 0 0
          0 0 0 0 0 0
          0 0 0 0 0 0
          0 0 0 0 0 0
          0 0 0 0 0 0
          0 0 0 0 0 0
          0 0 0 0 0 0
          0 0 0 0 0 0
          0 0 0 0 0 0
          0 0 0 0 0 0
          0 0 0 0 0 0
          0 0 0 0 0 0
          0 0 0 0 0 0
          0 0 0 0 0
        </DataArray>
        <DataArray type="Float64" Name="initial_marker" format="ascii" RangeMin="0" RangeMax="0">
          0 0 0 0 0 0
          0 0 0 0 0 0
          0 0 0 0 0 0
          0 0 0 0 0 0
          0 0 0 0 0 0
          0 0 0 0 0 0
          0 0 0 0 0 0
          0 0 0 0 0 0
          0 0 0 0 0 0
          0 0 0 0 0 0
          0 0 0 0 0 0
          0 0 0 0 0 0
          0 0 0 0 0 0
          0 0 0 0 0 0
          0 0 0 0 0 0
          0 0 0 0 0 0
          0 0 0 0 0 0
          0 0 0 0 0 0
          0 0 0 0 0 0
          0 0 0 0 0 0
          0 0 0 0 0 0
          0 0 0 0 0 0
          0 0 0 0 0 0
          0 0 0 0 0 0
          0 0 0 0 0 0
          0 0 0 0 0 0
          0 0 0 0 0 0
          0 0 0 0 0 0
          0 0 0 0 0 0
          0 0 0 0 0 0
          0 0 0 0 0 0
          0 0 0 0 0 0
          0 0 0 0 0 0
          0 0 0 0 0 0
          0 0 0 0 0 0
          0 0 0 0 0 0
          0 0 0 0 0 0
          0 0 0 0 0 0
          0 0 0 0 0 0
          0 0 0 0 0 0
          0 0 0 0 0 0
          0 0 0 0 0 0
          0 0 0 0 0 0
          0 0 0 0 0 0
          0 0 0 0 0 0
          0 0 0 0 0 0
          0 0 0 0 0 0
          0 0 0 0 0 0
          0 0 0 0 0 0
          0 0 0 0 0 0
          0 0 0 0 0 0
          0 0 0 0 0 0
          0 0 0 0 0 0
          0 0 0 0 0 0
          0 0 0 0 0 0
          0 0 0 0 0 0
          0 0 0 0 0 0
          0 0 0 0 0 0
          0 0 0 0 0
        </DataArray>
        <DataArray type="Float64" Name="markers_norefine" format="ascii" RangeMin="0" RangeMax="0">
          0 0 0 0 0 0
          0 0 0 0 0 0
          0 0 0 0 0 0
          0 0 0 0 0 0
          0 0 0 0 0 0
          0 0 0 0 0 0
          0 0 0 0 0 0
          0 0 0 0 0 0
          0 0 0 0 0 0
          0 0 0 0 0 0
          0 0 0 0 0 0
          0 0 0 0 0 0
          0 0 0 0 0 0
          0 0 0 0 0 0
          0 0 0 0 0 0
          0 0 0 0 0 0
          0 0 0 0 0 0
          0 0 0 0 0 0
          0 0 0 0 0 0
          0 0 0 0 0 0
          0 0 0 0 0 0
          0 0 0 0 0 0
          0 0 0 0 0 0
          0 0 0 0 0 0
          0 0 0 0 0 0
          0 0 0 0 0 0
          0 0 0 0 0 0
          0 0 0 0 0 0
          0 0 0 0 0 0
          0 0 0 0 0 0
          0 0 0 0 0 0
          0 0 0 0 0 0
          0 0 0 0 0 0
          0 0 0 0 0 0
          0 0 0 0 0 0
          0 0 0 0 0 0
          0 0 0 0 0 0
          0 0 0 0 0 0
          0 0 0 0 0 0
          0 0 0 0 0 0
          0 0 0 0 0 0
          0 0 0 0 0 0
          0 0 0 0 0 0
          0 0 0 0 0 0
          0 0 0 0 0 0
          0 0 0 0 0 0
          0 0 0 0 0 0
          0 0 0 0 0 0
          0 0 0 0 0 0
          0 0 0 0 0 0
          0 0 0 0 0 0
          0 0 0 0 0 0
          0 0 0 0 0 0
          0 0 0 0 0 0
          0 0 0 0 0 0
          0 0 0 0 0 0
          0 0 0 0 0 0
          0 0 0 0 0 0
          0 0 0 0 0
        </DataArray>
        <DataArray type="Float64" Name="markers_mustrefine" format="ascii" RangeMin="0" RangeMax="0">
          0 0 0 0 0 0
          0 0 0 0 0 0
          0 0 0 0 0 0
          0 0 0 0 0 0
          0 0 0 0 0 0
          0 0 0 0 0 0
          0 0 0 0 0 0
          0 0 0 0 0 0
          0 0 0 0 0 0
          0 0 0 0 0 0
          0 0 0 0 0 0
          0 0 0 0 0 0
          0 0 0 0 0 0
          0 0 0 0 0 0
          0 0 0 0 0 0
          0 0 0 0 0 0
          0 0 0 0 0 0
          0 0 0 0 0 0
          0 0 0 0 0 0
          0 0 0 0 0 0
          0 0 0 0 0 0
          0 0 0 0 0 0
          0 0 0 0 0 0
          0 0 0 0 0 0
          0 0 0 0 0 0
          0 0 0 0 0 0
          0 0 0 0 0 0
          0 0 0 0 0 0
          0 0 0 0 0 0
          0 0 0 0 0 0
          0 0 0 0 0 0
          0 0 0 0 0 0
          0 0 0 0 0 0
          0 0 0 0 0 0
          0 0 0 0 0 0
          0 0 0 0 0 0
          0 0 0 0 0 0
          0 0 0 0 0 0
          0 0 0 0 0 0
          0 0 0 0 0 0
          0 0 0 0 0 0
          0 0 0 0 0 0
          0 0 0 0 0 0
          0 0 0 0 0 0
          0 0 0 0 0 0
          0 0 0 0 0 0
          0 0 0 0 0 0
          0 0 0 0 0 0
          0 0 0 0 0 0
          0 0 0 0 0 0
          0 0 0 0 0 0
          0 0 0 0 0 0
          0 0 0 0 0 0
          0 0 0 0 0 0
          0 0 0 0 0 0
          0 0 0 0 0 0
          0 0 0 0 0 0
          0 0 0 0 0 0
          0 0 0 0 0
        </DataArray>
        <DataArray type="Float64" Name="gradient_marker" format="ascii" RangeMin="1" RangeMax="1">
          1 1 1 1 1 1
          1 1 1 1 1 1
          1 1 1 1 1 1
          1 1 1 1 1 1
          1 1 1 1 1 1
          1 1 1 1 1 1
          1 1 1 1 1 1
          1 1 1 1 1 1
          1 1 1 1 1 1
          1 1 1 1 1 1
          1 1 1 1 1 1
          1 1 1 1 1 1
          1 1 1 1 1 1
          1 1 1 1 1 1
          1 1 1 1 1 1
          1 1 1 1 1 1
          1 1 1 1 1 1
          1 1 1 1 1 1
          1 1 1 1 1 1
          1 1 1 1 1 1
          1 1 1 1 1 1
          1 1 1 1 1 1
          1 1 1 1 1 1
          1 1 1 1 1 1
          1 1 1 1 1 1
          1 1 1 1 1 1
          1 1 1 1 1 1
          1 1 1 1 1 1
          1 1 1 1 1 1
          1 1 1 1 1 1
          1 1 1 1 1 1
          1 1 1 1 1 1
          1 1 1 1 1 1
          1 1 1 1 1 1
          1 1 1 1 1 1
          1 1 1 1 1 1
          1 1 1 1 1 1
          1 1 1 1 1 1
          1 1 1 1 1 1
          1 1 1 1 1 1
          1 1 1 1 1 1
          1 1 1 1 1 1
          1 1 1 1 1 1
          1 1 1 1 1 1
          1 1 1 1 1 1
          1 1 1 1 1 1
          1 1 1 1 1 1
          1 1 1 1 1 1
          1 1 1 1 1 1
          1 1 1 1 1 1
          1 1 1 1 1 1
          1 1 1 1 1 1
          1 1 1 1 1 1
          1 1 1 1 1 1
          1 1 1 1 1 1
          1 1 1 1 1 1
          1 1 1 1 1 1
          1 1 1 1 1 1
          1 1 1 1 1
        </DataArray>
        <DataArray type="Float64" Name="gradient_matprop_marker" format="ascii" RangeMin="0" RangeMax="0">
          0 0 0 0 0 0
          0 0 0 0 0 0
          0 0 0 0 0 0
          0 0 0 0 0 0
          0 0 0 0 0 0
          0 0 0 0 0 0
          0 0 0 0 0 0
          0 0 0 0 0 0
          0 0 0 0 0 0
          0 0 0 0 0 0
          0 0 0 0 0 0
          0 0 0 0 0 0
          0 0 0 0 0 0
          0 0 0 0 0 0
          0 0 0 0 0 0
          0 0 0 0 0 0
          0 0 0 0 0 0
          0 0 0 0 0 0
          0 0 0 0 0 0
          0 0 0 0 0 0
          0 0 0 0 0 0
          0 0 0 0 0 0
          0 0 0 0 0 0
          0 0 0 0 0 0
          0 0 0 0 0 0
          0 0 0 0 0 0
          0 0 0 0 0 0
          0 0 0 0 0 0
          0 0 0 0 0 0
          0 0 0 0 0 0
          0 0 0 0 0 0
          0 0 0 0 0 0
          0 0 0 0 0 0
          0 0 0 0 0 0
          0 0 0 0 0 0
          0 0 0 0 0 0
          0 0 0 0 0 0
          0 0 0 0 0 0
          0 0 0 0 0 0
          0 0 0 0 0 0
          0 0 0 0 0 0
          0 0 0 0 0 0
          0 0 0 0 0 0
          0 0 0 0 0 0
          0 0 0 0 0 0
          0 0 0 0 0 0
          0 0 0 0 0 0
          0 0 0 0 0 0
          0 0 0 0 0 0
          0 0 0 0 0 0
          0 0 0 0 0 0
          0 0 0 0 0 0
          0 0 0 0 0 0
          0 0 0 0 0 0
          0 0 0 0 0 0
          0 0 0 0 0 0
          0 0 0 0 0 0
          0 0 0 0 0 0
          0 0 0 0 0
        </DataArray>
        <DataArray type="Float64" Name="combo" format="ascii" RangeMin="1" RangeMax="1">
          1 1 1 1 1 1
          1 1 1 1 1 1
          1 1 1 1 1 1
          1 1 1 1 1 1
          1 1 1 1 1 1
          1 1 1 1 1 1
          1 1 1 1 1 1
          1 1 1 1 1 1
          1 1 1 1 1 1
          1 1 1 1 1 1
          1 1 1 1 1 1
          1 1 1 1 1 1
          1 1 1 1 1 1
          1 1 1 1 1 1
          1 1 1 1 1 1
          1 1 1 1 1 1
          1 1 1 1 1 1
          1 1 1 1 1 1
          1 1 1 1 1 1
          1 1 1 1 1 1
          1 1 1 1 1 1
          1 1 1 1 1 1
          1 1 1 1 1 1
          1 1 1 1 1 1
          1 1 1 1 1 1
          1 1 1 1 1 1
          1 1 1 1 1 1
          1 1 1 1 1 1
          1 1 1 1 1 1
          1 1 1 1 1 1
          1 1 1 1 1 1
          1 1 1 1 1 1
          1 1 1 1 1 1
          1 1 1 1 1 1
          1 1 1 1 1 1
          1 1 1 1 1 1
          1 1 1 1 1 1
          1 1 1 1 1 1
          1 1 1 1 1 1
          1 1 1 1 1 1
          1 1 1 1 1 1
          1 1 1 1 1 1
          1 1 1 1 1 1
          1 1 1 1 1 1
          1 1 1 1 1 1
          1 1 1 1 1 1
          1 1 1 1 1 1
          1 1 1 1 1 1
          1 1 1 1 1 1
          1 1 1 1 1 1
          1 1 1 1 1 1
          1 1 1 1 1 1
          1 1 1 1 1 1
          1 1 1 1 1 1
          1 1 1 1 1 1
          1 1 1 1 1 1
          1 1 1 1 1 1
          1 1 1 1 1 1
          1 1 1 1 1
        </DataArray>
        <DataArray type="Float64" Name="dHdT" format="ascii" RangeMin="25.807000658120362" RangeMax="30.098930915514337">
          25.839239562743987 25.836135405979213 25.826783816137862 25.82871717031612 25.828720710168145 25.82223313479607
          25.818149646564915 25.816099497107576 25.81743222629651 25.81819477788826 25.815745559423984 25.81412327822627
          26.201295866784477 26.200959483328198 25.964761466835093 25.97390149114316 26.187070889961944 25.94332702936673
          26.162649518614117 25.914640697549057 25.93895723953515 25.828308959549346 25.83197513449299 25.821847599125558
          25.816804917551373 27.3585773352588 27.453475031385203 26.40855512962866 26.415192860760413 28.188114322739985
          26.388869552160784 28.69858580980711 26.23882102112406 29.484030202732647 26.143781931177617 25.84769602501038
          25.85836493698311 25.83064085911334 25.817440414485716 25.81123923234765 26.525935382096467 26.377859054103247
          26.378544730296625 26.941339001268737 26.955249522331272 26.71633006438339 26.709347909748487 26.375914922615085
          26.992144863793225 26.73447282607895 26.091548042923304 26.252500813141122 26.255256687316663 26.2450903638616
          27.38456366256608 27.054801074663526 27.04015108920035 27.093030729542807 26.413453583358933 26.530466294144283
          26.368786006070735 27.013178215472266 26.707669664497267 26.354427116353477 27.05992897415137 26.680547878348072
          26.067318167963656 26.234095373300054 26.219246216585397 27.754979008878664 27.15475260912778 27.252241730562698
          26.40087257863645 26.506815144456468 26.334338624799063 27.10769012502695 26.697747478944038 26.149163475456632
          27.154376486814336 26.713673483074512 26.027975536289127 26.152861897056425 26.075790308486454 28.42213072648466
          27.44158793610209 27.65706296493376 26.32385418198026 26.067269173048828 26.004332403150393 27.31463764005883
          26.725688497932314 27.464844049032077 26.71975782211987 25.924345955825356 26.040213264931513 26.000269282243142
          29.042726569449695 27.758084810914923 27.86721814788739 26.196662903597954 25.89458000475462 25.897564316440352
          25.93656644190434 25.940538612060685 25.887081782781344 25.92659585553249 25.83584664977265 25.845541863961945
          25.84792066771628 25.839811771706458 25.978552879054064 25.983512907681018 25.966109928283643 25.855237078151234
          25.877418066684903 25.913922140324065 25.86708307602057 25.900259196113954 25.82730551543969 25.833098309363553
          25.82679495796388 25.950426213963215 25.933435316207333 25.838891103287416 25.856717344349143 25.886344017458367
          25.8465889691827 25.87257214160026 25.819345721261698 25.821377044305414 25.817053038696354 25.91597069056759
          25.89855531401782 25.82340836734913 25.811250463232962 25.81195221276448 25.813867235538886 25.826532181967885
          25.82078489163993 25.819863230969602 25.824554305241918 25.812653962296004 25.81894157029928 25.822576428515955
          25.837345569934133 25.85896699267711 25.829470003250048 25.84603458626011 25.814808440230102 25.814085896153536
          25.81242029697043 25.88058841542009 25.862599169270162 25.81336335207697 27.5336906718897 27.383934129131667
          27.35281287711692 27.754469072781866 27.80333665834746 27.631775327497216 27.59055659936011 27.435430166027075
          27.893573352564523 27.70548719622482 27.234177586373633 27.46021399664697 27.426644125938353 27.517401039885122
          28.072982644805222 27.879616525862765 27.8283003216033 27.975544226422564 27.686250406920312 27.653569209372378
          27.476275212888268 27.977746512375518 27.771470099708996 27.519297450469498 28.065347916041045 27.842090395571784
          27.298981216404158 27.565193687042473 27.42173893886289 28.30192381537866 28.066664986529723 28.16488334067407
          27.83140615768079 27.764597642746367 27.565613781765784 28.1588490642569 27.920067243852507 27.611827412449813
          28.261510928265082 28.002101483081823 27.106392867351524 27.35627199891907 27.389142702685156 28.55310048576743
          28.27452070593924 28.392375553713833 27.60615113048662 26.107565932512713 26.082789518436662 26.108492746842195
          26.497513324526647 26.469221651732 26.398693663403876 26.422315850248175 26.041977540115788 26.423371291943997
          26.357463913242288 26.058013104360604 26.328165675075756 26.3471183759697 26.291556534540575 27.443439584236156
          27.244386711180944 27.386265174534817 27.25206183692778 26.960460658405697 27.889127669029044 27.65715252191766
          28.375230677874143 28.08793102676138 28.504563073583064 28.184513702198785 27.128664354291626 27.4177053277834
          27.44703824221137 28.86133368671924 28.51870953160511 28.657699119422418 27.706746301275167 28.65193718883153
          28.29291578353372 28.813519580040236 28.40863404300883 27.4766200818889 27.50298937381045 29.247872580142037
          28.811655953076638 28.986094698530884 27.81170829906471 26.56294438633846 26.581136361557338 26.709328484273982
          26.72205129601496 26.540478623285544 26.692491881859624 26.293737438899953 26.383877688629806 26.408509224558177
          26.355371610111014 26.855712582209506 26.862966230472583 26.844505140433704 26.47401793835966 26.512172171245563
          26.67121896262251 26.47883705136154 26.64438899008282 26.233630043525512 26.323092139703135 26.286547738522167
          26.830265753999463 26.809940928804103 26.412554235880755 26.027565035485566 26.011950036724965 26.387307983921986
          26.321534376346186 25.996335037964364 26.25576076877039 27.48476099319697 27.25415423080431 26.92231223891318
          28.99235407429138 28.531997358788026 27.523618514651652 29.762237094547224 29.18680497193484 27.921361920721747
          26.44129198814536 26.610612490306817 26.162742196374495 26.245628594595004 26.779932992468275 26.328514992815514
          26.594239281357517 26.598974650904335 26.732048075654976 26.736709098312993 26.342322748797187 26.432837576919933
          26.445867130242355 26.86985686995244 26.874443545721647 26.52335240504268 25.807000658120362 25.80750339430624
          25.809343059352035 25.809035525835974 25.808749293032072 25.81009030901856 25.81026968163809 25.810971705818087
          25.81147084014306 25.81165685525327 25.80951525349985 25.81217730495634 25.811182724397824 25.811070393551585
          25.811431325005046 25.81167372999808 25.811842870363478 25.81304396938587 25.87928958811758 25.813998468948576
          25.92479170105451 25.89509642743747 25.878743438560026 26.66671109145676 25.95788784833286 25.810008307443958
          25.813031978157817 25.813250781263704 25.81346958436959 25.80836924578925 25.809548885366652 25.90182565249123
          25.823043292224895 25.834546963599447 25.812982071073186 25.811820844883545 26.07954961323042 25.846050634974
          25.810659618693897 25.983006631295044 26.347933359243793 26.282916966581894 26.21790057391999 27.498762540520097
          27.249246737804192 29.19839580406501 28.668514926894673 27.53870012152774 30.098930915514337 29.4213636800497
          27.973965398532535 26.398209400707422 26.5695526822754 26.20033917121965 26.74089596384337
        </DataArray>
        <DataArray type="Float64" Name="dk/dtemperature" format="ascii" RangeMin="0.011236005941813686" RangeMax="0.015804580349343195">
          0.015804580349343185 0.01580458034934319 0.015804580349343192 0.015804580349343192 0.015804580349343192 0.015804580349343192