<?xml version="1.0"?>
<VTKFile type="UnstructuredGrid" version="0.1" byte_order="LittleEndian" header_type="UInt32" compressor="vtkZLibDataCompressor">
  <UnstructuredGrid>
    <Piece NumberOfPoints="321" NumberOfCells="171">
      <PointData>
        <DataArray type="Int32" Name="libmesh_node_id" format="ascii" RangeMin="293" RangeMax="2842">
          293 363 370 551 552 553
          556 557 559 1101 1102 1103
          1104 1105 1106 1107 1108 1109
          1110 1111 1112 1113 1114 1128
          1133 1135 1136 1137 1138 1141
          1142 1143 1145 1146 1147 1148
          1149 1150 1151 1152 1153 1154
          1163 1165 1167 1199 1200 1201
          1202 1206 1207 1209 1210 1212
          1213 1214 1217 1219 1220 1222
          1223 1224 1227 1228 1230 1232
          1347 2319 2320 2321 2324 2325
          2326 2327 2328 2329 2330 2331
          2332 2333 2334 2335 2336 2337
          2338 2339 2340 2341 2342 2345
          2346 2349 2350 2351 2352 2353
          2354 2355 2356 2357 2358 2359
          2360 2361 2362 2409 2410 2411
          2412 2413 2414 2415 2416 2417
          2418 2419 2420 2421 2422 2430
          2431 2434 2435 2437 2438 2439
          2440 2441 2442 2443 2444 2445
          2446 2447 2448 2449 2450 2451
          2452 2453 2454 2455 2456 2458
          2462 2464 2465 2468 2469 2471
          2472 2473 2474 2475 2476 2477
          2478 2479 2480 2481 2482 2483
          2484 2485 2486 2487 2488 2489
          2490 2491 2492 2493 2494 2495
          2496 2497 2498 2499 2500 2501
          2502 2503 2504 2505 2506 2507
          2508 2509 2510 2511 2512 2513
          2514 2515 2516 2517 2518 2519
          2520 2521 2522 2523 2524 2525
          2526 2527 2528 2529 2530 2531
          2532 2533 2534 2535 2536 2537
          2538 2605 2606 2607 2608 2609
          2610 2611 2612 2613 2614 2632
          2633 2634 2635 2636 2637 2638
          2646 2647 2648 2649 2650 2651
          2652 2653 2654 2655 2734 2735
          2736 2737 2738 2739 2740 2741
          2742 2743 2744 2745 2746 2747
          2748 2749 2750 2751 2752 2753
          2754 2755 2756 2757 2772 2773
          2774 2775 2776 2777 2778 2779
          2780 2781 2792 2793 2794 2795
          2796 2797 2798 2799 2800 2801
          2812 2813 2814 2815 2816 2817
          2818 2826 2827 2828 2829 2830
          2831 2832 2833 2834 2835 2836
          2837 2838 2839 2840 2841 2842
          1065 2078 2106 2107 1066 2109
          368 2112 1071
        </DataArray>
        <DataArray type="Float64" Name="bounds" format="ascii" RangeMin="0" RangeMax="0">
          0 0 0 0 0 0
          0 0 0 0 0 0
          0 0 0 0 0 0
          0 0 0 0 0 0
          0 0 0 0 0 0
          0 0 0 0 0 0
          0 0 0 0 0 0
          0 0 0 0 0 0
          0 0 0 0 0 0
          0 0 0 0 0 0
          0 0 0 0 0 0
          0 0 0 0 0 0
          0 0 0 0 0 0
          0 0 0 0 0 0
          0 0 0 0 0 0
          0 0 0 0 0 0
          0 0 0 0 0 0
          0 0 0 0 0 0
          0 0 0 0 0 0
          0 0 0 0 0 0
          0 0 0 0 0 0
          0 0 0 0 0 0
          0 0 0 0 0 0
          0 0 0 0 0 0
          0 0 0 0 0 0
          0 0 0 0 0 0
          0 0 0 0 0 0
          0 0 0 0 0 0
          0 0 0 0 0 0
          0 0 0 0 0 0
          0 0 0 0 0 0
          0 0 0 0 0 0
          0 0 0 0 0 0
          0 0 0 0 0 0
          0 0 0 0 0 0
          0 0 0 0 0 0
          0 0 0 0 0 0
          0 0 0 0 0 0
          0 0 0 0 0 0
          0 0 0 0 0 0
          0 0 0 0 0 0
          0 0 0 0 0 0
          0 0 0 0 0 0
          0 0 0 0 0 0
          0 0 0 0 0 0
          0 0 0 0 0 0
          0 0 0 0 0 0
          0 0 0 0 0 0
          0 0 0 0 0 0
          0 0 0 0 0 0
          0 0 0 0 0 0
          0 0 0 0 0 0
          0 0 0 0 0 0
          0 0 0
        </DataArray>
        <DataArray type="Float64" Name="gradient_error" format="ascii" RangeMin="5.5894715383238954e-12" RangeMax="9.718321978653487e-9">
          1.2225702431795123e-10 1.5810249740818723e-10 7.419628393589534e-11 1.4227953170782808e-10 3.3992238306057024e-11 4.2627170199299346e-11
          1.4170926598260622e-10 1.7621622911671367e-9 5.514847596673872e-11 1.8124581108882176e-10 1.689105229347819e-10 1.1422331826267397e-10
          1.0542439776089373e-10 5.874226268685813e-11 3.863534600651867e-11 4.1671849155755076e-11 1.3686754047189766e-10 9.74037417441776e-11
          5.4333577870207755e-11 1.3351841165481795e-10 1.12465984028914e-10 3.4186238635024967e-11 8.101654765883811e-11 5.5323565590733425e-11
          6.10125561377528e-11 3.816327775065219e-9 3.1472916205436185e-9 1.3243274823107986e-9 1.0771447872995786e-9 4.7466341239203405e-9
          4.212608355643145e-9 1.4938373927448688e-9 3.731506990175735e-10 3.030570773416182e-10 8.834395225824061e-11 7.231187678305524e-11
          1.6427917630412326e-10 4.0663051341053044e-11 5.131272282389616e-10 4.249581239586408e-10 1.0060843273413812e-10 2.2715098928179896e-10
          4.199484548648128e-11 6.860761082771691e-11 3.187385633184699e-11 2.1941362650972526e-11 2.0893609233769036e-11 1.6667001040819547e-11
          2.2549682474373728e-11 1.8893075755351896e-11 2.5532499568003914e-11 1.1155016109087437e-11 1.6605780774359833e-11 2.0836939883048284e-11
          1.817711111473586e-11 1.5069154494091707e-11 1.3340240382275929e-11 2.484061395091809e-11 2.0509155597275502e-11 1.6640749856041732e-11
          2.2285821037231405e-11 2.2688328343828067e-11 2.451190315601864e-11 3.037196005304385e-11 2.5250989340292914e-11 3.30249202690706e-11
          2.020549455084689e-11 4.576836756554483e-11 6.980537892318342e-11 6.735091519066668e-11 6.062926884947098e-11 2.522937822755821e-10
          2.412792853226266e-10 1.2787605910362723e-10 2.113894791641251e-10 2.5084851141660303e-11 2.4404898943703866e-11 3.6577961446745635e-11
          3.5346854031978324e-11 1.3227018215974598e-11 1.898935613321479e-11 1.813704400079535e-11 2.2436464229032644e-11 3.193191850583706e-11
          1.8353274360886887e-11 6.833366926001726e-11 6.562481302224372e-11 3.240700279593875e-11 5.815222728657094e-11 3.646924428605214e-11
          5.07293834067925e-11 4.5394746987612994e-11 1.7104403885259109e-10 9.102899640275572e-11 1.289357075503866e-10 1.974181478619035e-11
          2.6873658833435095e-11 1.4786377401432655e-11 1.9337806011561505e-11 1.8335647860062838e-11 2.3999227272407078e-11 1.818525267721416e-11
          4.719124905750096e-11 2.7891062789786565e-11 3.9622010535450895e-11 5.931012209792253e-9 5.680904741637238e-9 3.6428857052855517e-9
          4.949815460177342e-9 1.4865314716395185e-9 1.4125541250413124e-9 8.454247119005133e-10 8.032382124386322e-10 1.2123321576065912e-9
          6.894904197772608e-10 2.31238339086574e-9 2.201652133748977e-9 1.2587812889986187e-9 1.890723794537998e-9 9.429887657046682e-10
          5.372040588240356e-10 1.4550002532586097e-9 8.269080182815367e-10 6.931866291446082e-9 6.763118158342783e-9 4.598068857838316e-9
          4.452765577761351e-9 6.115165846391361e-9 3.959403286171037e-9 7.02720747493726e-9 6.9474819196084e-9 4.643491999156372e-9
          6.445108637277312e-9 2.853816051341735e-9 2.7473100296894892e-9 1.663811085157605e-9 1.5945143094312168e-9 2.4109782606077887e-9
          1.3858131683160593e-9 2.9888896757758825e-9 2.8997870407820898e-9 1.6987633677586914e-9 2.58447603602895e-9 3.12657587285614e-9
          3.376833987431757e-9 1.879714440794861e-9 1.0715617505879733e-9 2.0378448697385953e-9 1.16447624809049e-9 4.5936039751974963e-10
          4.366292400036281e-10 2.393454065118341e-10 2.2773946789387625e-10 3.754319916114043e-10 1.9644322341244725e-10 7.199454488222552e-10
          6.837311764826612e-10 3.543456390029835e-10 5.843288824735736e-10 1.1997706578562165e-10 1.1440275914083852e-10 5.810242649396512e-11
          5.544602900050619e-11 9.926665682659566e-11 4.82585002399476e-11 1.8517527513096905e-10 1.7592597142197511e-10 8.401626721862794e-11
          1.5080982951736654e-10 2.938586254826177e-10 1.5459186581144225e-10 2.118681179182308e-10 1.1213344009241228e-10 4.489385181200041e-10
          2.336744944753101e-10 3.131962557508351e-10 7.857155876295651e-11 3.852415841232346e-11 5.720247697137086e-11 2.8487592546628507e-11
          1.1698873572116382e-10 5.657650443130722e-11 8.308974627357752e-11 9.154047185047527e-10 8.744850437701635e-10 4.776823520751178e-10
          4.55403161221363e-10 7.551714890825624e-10 3.9189876738143726e-10 9.776126358638464e-10 9.380397244475485e-10 4.907753248330456e-10
          8.171060853101789e-10 2.37582914787579e-10 2.2626548321897675e-10 1.1315959003929755e-10 1.0774315546219656e-10 1.9453101723443972e-10
          9.275287560982646e-11 2.561731441162596e-10 2.445237249514457e-10 1.165788986818882e-10 2.1109860729683733e-10 5.815937161542083e-10
          3.017411521125217e-10 4.0113480378106597e-10 2.0929228199494657e-10 6.327091524019016e-10 3.2824857661932924e-10 4.3590793573472e-10
          1.502377115782351e-10 7.209534746394791e-11 1.0512355478603894e-10 5.105083945601665e-11 1.6326407400573355e-10 7.819402601609363e-11
          1.1387095850686388e-10 3.096196051202827e-11 3.8872712694436224e-11 1.619824640039226e-11 1.98645373644558e-11 2.5045890070364325e-11
          3.0778727814907855e-11 1.607483748745359e-11 5.4903506841176405e-11 2.7365868860641837e-11 3.826082458251961e-11 6.839294556758473e-11
          3.364435845364092e-11 4.237572550929383e-11 2.50050245771525e-11 7.376234232966085e-11 3.6087807514517504e-11 4.561599692453395e-11
          2.469651977922935e-11 2.6070408183464256e-11 1.9054964326262575e-11 1.9087241163608718e-11 1.9934568322447032e-11 2.0289587249397736e-11
          1.5556813772933954e-11 2.7444296587699162e-11 1.9119518000954867e-11 2.064460617634844e-11 7.139209519551551e-12 7.1320177028667055e-12
          9.659600364529491e-12 9.355317884917176e-12 5.5894715383238954e-12 6.6242708934222554e-12 6.8880636729647376e-12 7.124825886181859e-12
          9.051035405304863e-12 7.15185645250722e-12 1.6605288036146334e-11 1.5803715547163482e-11 8.930006840192426e-12 1.5280055105041647e-11
          2.7356398120507793e-11 2.6078736112873292e-11 1.242299439021036e-11 1.190914672756176e-11 2.2679567618267387e-11 1.0508132075263843e-11
          4.067613229423719e-11 3.874420020758527e-11 1.7338780754756777e-11 3.3510130071389215e-11 1.417201867383956e-11 1.8255890888015028e-11
          6.900638702221279e-12 8.512600951534508e-12 1.0908548575932973e-11 1.3775617627990046e-11 7.536710763696568e-12 2.6577055916321256e-11
          1.1963540517363615e-11 1.950055090016061e-11 5.1864414675880714e-11 4.940155679238013e-11 2.2998120577275664e-11 2.1924171919191222e-11
          4.263314727040791e-11 1.898670682524734e-11 5.6058776141517383e-11 5.3443372367976976e-11 2.368739342750656e-11 4.617370943922362e-11
          3.3543960466551604e-11 1.4952439332136914e-11 2.4181426037151114e-11 1.2676319794623762e-11 3.6273572202651187e-11 1.610236083039434e-11
          2.600443695402813e-11 8.218004074429811e-12 9.920083151176988e-12 6.350024094431575e-12 7.0993380261234825e-12 7.127069145909128e-12
          8.242651691107958e-12 6.397017396066248e-12 1.3291106675057452e-11 8.892313789288889e-12 1.0527231360591138e-11 1.6003981750390748e-11
          1.0553519089352267e-11 1.240543672764622e-11 8.641455344605119e-12 1.7047912378590755e-11 1.1171062557942144e-11 1.3114644970416952e-11
          8.655416056457587e-9 8.327844565167286e-9 9.718321978653487e-9 9.57864164309241e-9 7.337603598369554e-9 8.856469454943928e-9
          9.611008602782594e-9 9.643469137578764e-9 9.222336714275613e-9
        </DataArray>
        <DataArray type="Float64" Name="gradient_matprop_error" format="ascii" RangeMin="0" RangeMax="0">
          0 0 0 0 0 0
          0 0 0 0 0 0
          0 0 0 0 0 0
          0 0 0 0 0 0
          0 0 0 0 0 0
          0 0 0 0 0 0
          0 0 0 0 0 0
          0 0 0 0 0 0
          0 0 0 0 0 0
          0 0 0 0 0 0
          0 0 0 0 0 0
          0 0 0 0 0 0
          0 0 0 0 0 0
          0 0 0 0 0 0
          0 0 0 0 0 0
          0 0 0 0 0 0
          0 0 0 0 0 0
          0 0 0 0 0 0
          0 0 0 0 0 0
          0 0 0 0 0 0
          0 0 0 0 0 0
          0 0 0 0 0 0
          0 0 0 0 0 0
          0 0 0 0 0 0
          0 0 0 0 0 0
          0 0 0 0 0 0
          0 0 0 0 0 0
          0 0 0 0 0 0
          0 0 0 0 0 0
          0 0 0 0 0 0
          0 0 0 0 0 0
          0 0 0 0 0 0
          0 0 0 0 0 0
          0 0 0 0 0 0
          0 0 0 0 0 0
          0 0 0 0 0 0
          0 0 0 0 0 0
          0 0 0 0 0 0
          0 0 0 0 0 0
          0 0 0 0 0 0
          0 0 0 0 0 0
          0 0 0 0 0 0
          0 0 0 0 0 0
          0 0 0 0 0 0
          0 0 0 0 0 0
          0 0 0 0 0 0
          0 0 0 0 0 0
          0 0 0 0 0 0
          0 0 0 0 0 0
          0 0 0 0 0 0
          0 0 0 0 0 0
          0 0 0 0 0 0
          0 0 0 0 0 0
          0 0 0
        </DataArray>
        <DataArray type="Float64" Name="initial_marker" format="ascii" RangeMin="0" RangeMax="2">
          2 0 0 0 2 0.75
          0 2 2 0 0 0.5
          0.5 0 0 0 0 0
          0 2 2 1.75 1.75 0
          0 2 2 2 2 2
          2 2 2 2 2 2
          2 2 2 2 2 2
          0.75 0 1 0 0 0
          0 0 0 1 0.5 0
          2 2 1 2 2 1.5
          0 0 0 0 0 0
          0 1 1.5 1.5 1.5 2
          2 2 2 0 0 1
          1 0 1 1 0 1
          1 2 2 2 2 0.5
          1.25 1 2 2 2 0
          0.75 0 0.5 0 0.5 0
          1.75 1.6666666666666667 1.6666666666666667 2 2 2
          2 2 2 2 2 2
          2 2 2 2 2 2
          2 2 2 2 2 2
          2 2 2 2 2 2
          2 2 2 2 2 2
          2 2 2 2 2 2
          2 2 2 2 2 2
          2 2 2 2 2 2
          2 2 2 2 2 2
          2 2 2 2 2 2
          2 2 2 2 2 2
          2 2 2 2 2 1.75
          2 2 2 2 2 2
          2 2 2 2 2 2
          2 2 2 2 2 2
          2 2 2 2 2 2
          2 2 2 2 2 2
          2 2 2 2 2 2
          2 1.5 1.75 0.5 1 1
          1.5 0.5 2 1.75 1.6666666666666667 2
          2 1.5 1.3333333333333333 2 2 1.5
          0.5 0.5 0 0 0 0
          0 0.5 0 0 0 0
          0.5 0.5 0 0 0 0
          0.5 0 1.5 1.5 1 1.6666666666666667
          2 2 2 1.75 2 1.5
          2 2 2 2 1.5 1.75
          0.5 1 0.5 1 0.3333333333333333 2
          1.75 1.75 2 2 2 2
          2 2 2 2 2 2
          2 2 2 2 2 2
          2 0 0.25 0 0 0
          0 0 1 0.5 0.5 1.5
          1 1 0 1.5 1 1
          2 2 2 2 2 2
          2 2 2
        </DataArray>
        <DataArray type="Float64" Name="markers_norefine" format="ascii" RangeMin="0" RangeMax="0">
          0 0 0 0 0 0
          0 0 0 0 0 0
          0 0 0 0 0 0
          0 0 0 0 0 0
          0 0 0 0 0 0
          0 0 0 0 0 0
          0 0 0 0 0 0
          0 0 0 0 0 0
          0 0 0 0 0 0
          0 0 0 0 0 0
          0 0 0 0 0 0
          0 0 0 0 0 0
          0 0 0 0 0 0
          0 0 0 0 0 0
          0 0 0 0 0 0
          0 0 0 0 0 0
          0 0 0 0 0 0
          0 0 0 0 0 0
          0 0 0 0 0 0
          0 0 0 0 0 0
          0 0 0 0 0 0
          0 0 0 0 0 0
          0 0 0 0 0 0
          0 0 0 0 0 0
          0 0 0 0 0 0
          0 0 0 0 0 0
          0 0 0 0 0 0
          0 0 0 0 0 0
          0 0 0 0 0 0
          0 0 0 0 0 0
          0 0 0 0 0 0
          0 0 0 0 0 0
          0 0 0 0 0 0
          0 0 0 0 0 0
          0 0 0 0 0 0
          0 0 0 0 0 0
          0 0 0 0 0 0
          0 0 0 0 0 0
          0 0 0 0 0 0
          0 0 0 0 0 0
          0 0 0 0 0 0
          0 0 0 0 0 0
          0 0 0 0 0 0
          0 0 0 0 0 0
          0 0 0 0 0 0
          0 0 0 0 0 0
          0 0 0 0 0 0
          0 0 0 0 0 0
          0 0 0 0 0 0
          0 0 0 0 0 0
          0 0 0 0 0 0
          0 0 0 0 0 0
          0 0 0 0 0 0
          0 0 0
        </DataArray>
        <DataArray type="Float64" Name="markers_mustrefine" format="ascii" RangeMin="0" RangeMax="2">
          2 0 0 0 2 0.75
          0 2 2 0 0 0.5
          0.5 0 0 0 0 0
          0 2 2 1.75 1.75 0
          0 2 2 2 2 2
          2 2 2 2 2 2
          2 2 2 2 2 2
          0.75 0 1 0 0 0
          0 0 0 1 0.5 0
          2 2 1 2 2 1.5
          0 0 0 0 0 0
          0 1 1.5 1.5 1.5 2
          2 2 2 0 0 1
          1 0 1 1 0 1
          1 2 2 2 2 0.5
          1.25 1 2 2 2 0
          0.75 0 0.5 0 0.5 0
          1.75 1.6666666666666667 1.6666666666666667 2 2 2
          2 2 2 2 2 2
          2 2 2 2 2 2
          2 2 2 2 2 2
          2 2 2 2 2 2
          2 2 2 2 2 2
          2 2 2 2 2 2
          2 2 2 2 2 2
          2 2 2 2 2 2
          2 2 2 2 2 2
          2 2 2 2 2 2
          2 2 2 2 2 2
          2 2 2 2 2 1.75
          2 2 2 2 2 2
          2 2 2 2 2 2
          2 2 2 2 2 2
          2 2 2 2 2 2
          2 2 2 2 2 2
          2 2 2 2 2 2
          2 1.5 1.75 0.5 1 1
          1.5 0.5 2 1.75 1.6666666666666667 2
          2 1.5 1.3333333333333333 2 2 1.5
          0.5 0.5 0 0 0 0
          0 0.5 0 0 0 0
          0.5 0.5 0 0 0 0
          0.5 0 1.5 1.5 1 1.6666666666666667
          2 2 2 1.75 2 1.5
          2 2 2 2 1.5 1.75
          0.5 1 0.5 1 0.3333333333333333 2
          1.75 1.75 2 2 2 2
          2 2 2 2 2 2
          2 2 2 2 2 2
          2 0 0.25 0 0 0
          0 0 1 0.5 0.5 1.5
          1 1 0 1.5 1 1
          2 2 2 2 2 2
          2 2 2
        </DataArray>
        <DataArray type="Float64" Name="gradient_marker" format="ascii" RangeMin="1" RangeMax="1">
          1 1 1 1 1 1
          1 1 1 1 1 1
          1 1 1 1 1 1
          1 1 1 1 1 1
          1 1 1 1 1 1
          1 1 1 1 1 1
          1 1 1 1 1 1
          1 1 1 1 1 1
          1 1 1 1 1 1
          1 1 1 1 1 1
          1 1 1 1 1 1
          1 1 1 1 1 1
          1 1 1 1 1 1
          1 1 1 1 1 1
          1 1 1 1 1 1
          1 1 1 1 1 1
          1 1 1 1 1 1
          1 1 1 1 1 1
          1 1 1 1 1 1
          1 1 1 1 1 1
          1 1 1 1 1 1
          1 1 1 1 1 1
          1 1 1 1 1 1
          1 1 1 1 1 1
          1 1 1 1 1 1
          1 1 1 1 1 1
          1 1 1 1 1 1
          1 1 1 1 1 1
          1 1 1 1 1 1
          1 1 1 1 1 1
          1 1 1 1 1 1
          1 1 1 1 1 1
          1 1 1 1 1 1
          1 1 1 1 1 1
          1 1 1 1 1 1
          1 1 1 1 1 1
          1 1 1 1 1 1
          1 1 1 1 1 1
          1 1 1 1 1 1
          1 1 1 1 1 1
          1 1 1 1 1 1
          1 1 1 1 1 1
          1 1 1 1 1 1
          1 1 1 1 1 1
          1 1 1 1 1 1
          1 1 1 1 1 1
          1 1 1 1 1 1
          1 1 1 1 1 1
          1 1 1 1 1 1
          1 1 1 1 1 1
          1 1 1 1 1 1
          1 1 1 1 1 1
          1 1 1 1 1 1
          1 1 1
        </DataArray>
        <DataArray type="Float64" Name="gradient_matprop_marker" format="ascii" RangeMin="0" RangeMax="0">
          0 0 0 0 0 0
          0 0 0 0 0 0
          0 0 0 0 0 0
          0 0 0 0 0 0
          0 0 0 0 0 0
          0 0 0 0 0 0
          0 0 0 0 0 0
          0 0 0 0 0 0
          0 0 0 0 0 0
          0 0 0 0 0 0
          0 0 0 0 0 0
          0 0 0 0 0 0
          0 0 0 0 0 0
          0 0 0 0 0 0
          0 0 0 0 0 0
          0 0 0 0 0 0
          0 0 0 0 0 0
          0 0 0 0 0 0
          0 0 0 0 0 0
          0 0 0 0 0 0
          0 0 0 0 0 0
          0 0 0 0 0 0
          0 0 0 0 0 0
          0 0 0 0 0 0
          0 0 0 0 0 0
          0 0 0 0 0 0
          0 0 0 0 0 0
          0 0 0 0 0 0
          0 0 0 0 0 0
          0 0 0 0 0 0
          0 0 0 0 0 0
          0 0 0 0 0 0
          0 0 0 0 0 0
          0 0 0 0 0 0
          0 0 0 0 0 0
          0 0 0 0 0 0
          0 0 0 0 0 0
          0 0 0 0 0 0
          0 0 0 0 0 0
          0 0 0 0 0 0
          0 0 0 0 0 0
          0 0 0 0 0 0
          0 0 0 0 0 0
          0 0 0 0 0 0
          0 0 0 0 0 0
          0 0 0 0 0 0
          0 0 0 0 0 0
          0 0 0 0 0 0
          0 0 0 0 0 0
          0 0 0 0 0 0
          0 0 0 0 0 0
          0 0 0 0 0 0
          0 0 0 0 0 0
          0 0 0
        </DataArray>
        <DataArray type="Float64" Name="combo" format="ascii" RangeMin="1" RangeMax="1">
          1 1 1 1 1 1
          1 1 1 1 1 1
          1 1 1 1 1 1
          1 1 1 1 1 1
          1 1 1 1 1 1
          1 1 1 1 1 1
          1 1 1 1 1 1
          1 1 1 1 1 1
          1 1 1 1 1 1
          1 1 1 1 1 1
          1 1 1 1 1 1
          1 1 1 1 1 1
          1 1 1 1 1 1
          1 1 1 1 1 1
          1 1 1 1 1 1
          1 1 1 1 1 1
          1 1 1 1 1 1
          1 1 1 1 1 1
          1 1 1 1 1 1
          1 1 1 1 1 1
          1 1 1 1 1 1
          1 1 1 1 1 1
          1 1 1 1 1 1
          1 1 1 1 1 1
          1 1 1 1 1 1
          1 1 1 1 1 1
          1 1 1 1 1 1
          1 1 1 1 1 1
          1 1 1 1 1 1
          1 1 1 1 1 1
          1 1 1 1 1 1
          1 1 1 1 1 1
          1 1 1 1 1 1
          1 1 1 1 1 1
          1 1 1 1 1 1
          1 1 1 1 1 1
          1 1 1 1 1 1
          1 1 1 1 1 1
          1 1 1 1 1 1
          1 1 1 1 1 1
          1 1 1 1 1 1
          1 1 1 1 1 1
          1 1 1 1 1 1
          1 1 1 1 1 1
          1 1 1 1 1 1
          1 1 1 1 1 1
          1 1 1 1 1 1
          1 1 1 1 1 1
          1 1 1 1 1 1
          1 1 1 1 1 1
          1 1 1 1 1 1
          1 1 1 1 1 1
          1 1 1 1 1 1
          1 1 1
        </DataArray>
        <DataArray type="Float64" Name="dHdT" format="ascii" RangeMin="25.814047358895838" RangeMax="32.38597720064422">
          25.85470999274238 25.81612617923642 25.816738031308546 25.815809503262315 25.82333668112825 25.81899620656304
          25.81678363020484 26.539373322762614 25.82958806938907 25.82307856449659 25.822579274411435 25.826429691295544
          25.82533505515011 25.816566306961114 25.817325921041768 25.816988871528018 25.82129919762384 25.82274697125522
          25.816689515371362 25.85427996165007 25.84789410769593 25.821652999363348 25.834634570189497 25.816437738918726
          25.817514379102796 27.203382121602807 26.89034163065252 26.26652001891219 26.165975793958477 28.070450298064053
          27.50620880273232 26.362370795974797 25.934478666968815 25.908409346927353 25.84044109506612 25.83497868760992
          25.863207450564488 25.825265038500145 26.004663564730294 25.958801938975373 25.84536539450181 25.883452190937284
          25.81896430035187 25.817657644098954 25.81982106886617 25.814127481889503 25.814091981563337 25.814078274482757
          25.81420543271313 25.814047358895838 25.814251377847924 25.814979114517698 25.814895586287758 25.81452620879046
          25.818164108152526 25.817220096480355 25.815350767917778 25.820562728517523 25.81899548406537 25.816068087298106
          25.814299942362986 25.814552950566064 25.814320216603903 25.814585164295632 25.814773491283066 25.81472988824438
          25.814158895469685 25.829333229860644 25.83601734212162 25.835265983561076 25.833214648143404 25.8913380346813
          25.88793870819487 25.852544866041814 25.878811931207164 25.822231242756335 25.82197950411159 25.825234254732546
          25.824835754190406 25.81779275562652 25.81927113112532 25.81910268001445 25.82130310117033 25.823763224252648
          25.81926725112059 25.83404260624529 25.83317368198022 25.822940982071845 25.83085523805098 25.82632728885462
          25.830362116240533 25.82894563961825 25.866507519121246 25.841621049933078 25.853874811324317 25.820443677430767
          25.822408659212353 25.818355883493226 25.819554227925273 25.820008917987717 25.82172812356769 25.819175160295963
          25.827859088057888 25.821632321674144 25.825979743299097 28.112275117739827 27.962568924092075 27.115771980205473
          27.58082818242395 26.29196475143769 26.266016867665513 26.081357055919153 26.066926269236717 26.19760031825068
          26.02881771773527 26.62532847330106 26.574851532975313 26.238523065423266 26.44447301328928 26.109292467472518
          25.97969225487024 26.281872093928328 26.07539319723718 29.15843205903792 28.91479146991215 27.801995482375688
          27.66531716209845 28.306832189660476 27.31790155862182 29.637638577252222 29.348090087244326 27.910336470995187
          28.631293668889633 26.96764086760107 26.889821234569176 26.455900398606353 26.412873849724406 26.69114484929464
          26.30277693491015 27.119003770170387 27.028690378515936 26.489529553918096 26.798824770544066 26.898142539089474
          27.021960041788354 26.448760032003914 26.168103829435296 26.52033781793177 26.207836306780152 25.95657342101343
          25.94894804635998 25.88678910005833 25.88299280800159 25.928932555917456 25.87300933635872 26.053610653239335
          26.03882399288946 25.927204404670665 26.000657073900086 25.849545594759146 25.847727444435233 25.83042791104951
          25.829597732416914 25.84294235596979 25.82740595663383 25.871890055638083 25.86849110311428 25.838925222960313
          25.859680961886408 25.903163830893792 25.86009225440341 25.878204103588622 25.847502150698062 25.953173676141276
          25.884962227524493 25.909424552711634 25.83676832892341 25.824581138605016 25.83076947944364 25.821861340718705
          25.848618280562373 25.829981427240114 25.838261381508875 26.152948501366758 26.130312517540176 25.983174377851334
          25.972022075526404 26.07238750234661 25.943525857553233 26.19662012117682 26.17044677842521 25.991729962892542
          26.10363478033402 25.89441990297471 25.889259796791467 25.850382406413793 25.848106624957 25.876032913499014
          25.842246306122153 25.90430293840972 25.89833691653363 25.852088909085893 25.883101486397788 26.00155925089774
          25.90874714886357 25.93820087496343 25.87749320688181 26.022332560452977 25.91890919524525 25.95026664994845
          25.859784666168956 25.83498416139238 25.845037809291334 25.82832464336746 25.864524893938142 25.83709554918201
          25.84784586407738 25.823766139241904 25.825869167264777 25.818792372993897 25.819706116935276 25.822217964044476
          25.823760615660838 25.818807470159843 25.83019099478056 25.82159687355175 25.825653383853524 25.833907382498218
          25.82324179342898 25.826521591572316 25.820856516380303 25.835404970722966 25.823909700631106 25.827214741002948
          25.82173890358897 25.822069426570167 25.819115084961787 25.81926070512268 25.82016968458892 25.820438012357574
          25.818233569431833 25.82239994955136 25.81940632528357 25.820706340126236 25.81541126241764 25.815408219884503
          25.816012321288774 25.815995050880513 25.814565863280272 25.814878365098764 25.814905928042286 25.815405177351366
          25.815977780472256 25.814933490985815 25.817814394409424 25.81769075488308 25.81542397559278 25.81765430892078
          25.820943752614156 25.82059840051262 25.81639673414912 25.816262121520165 25.819674633396343 25.81590118308894
          25.8252519763033 25.824606187764072 25.817903823656387 25.82291614664647 25.817379791740194 25.818442067072812
          25.814994864452174 25.815410722189732 25.816556803556445 25.81723287586564 25.815209960426543 25.820742450632483
          25.816326083956977 25.818670165323113 25.829439406770593 25.828482094207057 25.819843474360344 25.819461271913095
          25.826003072549963 25.818467689840148 25.831246957503964 25.83014898602157 25.820126172566724 25.827316847015076
          25.82287912358791 25.817193398497334 25.819976868704696 25.816503498584353 25.823777688316284 25.817561209008005
          25.820522354937992 25.81594222891478 25.816311792832025 25.814950105800996 25.81513961763146 25.815701738148185
          25.81594574969678 25.814942528168878 25.81709585342358 25.81557030316032 25.81646438339781 25.81781578107889
          25.816001353285706 25.81695470846781 25.815553184378807 25.818121212059886 25.8161912297127 25.817170411385376
          29.556076871963416 29.29220205902083 31.46837301504665 31.0047941510545 28.636967904713494 29.890166644263726
          32.38597720064422 31.8182536323372 30.468465899571967
        </DataArray>
        <DataArray type="Float64" Name="dk/dtemperature" format="ascii" RangeMin="0.010077629764657672" RangeMax="0.015804580349343192">
          0.01580458034934319 0.015804580349343192 0.015804580349343192 0.015804580349343192 0.01580458034934319 0.015804580349343192
          0.015804580349343192 0.014914415339218789 0.015804580349343192 0.015804580349343192 0.01580458034934319 0.015804580349343192
          0.015804580349343192 0.015804580349343192 0.01580458034934319 0.015804580349343192 0.01580458034934319 0.01580458034934319
          0.015804580349343192 0.015804580349343192 0.01580458034934319 0.015804580349343192 0.015804580349343192 0.015804580349343192
          0.015804580349343192 0.0140495277635654 0.014480021642169808 0.015370819897829775 0.01551341487224696 0.01309633156427999
          0.013721560521362858 0.015190044442834187 0.015804580349343192 0.015804580349343192 0.015804580349343192 0.01580458034934319
          0.015804580349343192 0.01580458034934319 0.015804580349343192 0.015804580349343192 0.01580458034934319 0.015804580349343192
          0.015804580349343192 0.015804580349343192 0.015804580349343192 0.015804580349343192 0.015804580349343192 0.015804580349343192
          0.015804580349343192 0.015804580349343192 0.015804580349343192 0.015804580349343192 0.015804580349343192 0.015804580349343192
          0.015804580349343192 0.015804580349343192 0.015804580349343192 0.015804580349343192 0.015804580349343192 0.015804580349343192
          0.015804580349343192 0.015804580349343192 0.015804580349343192 0.015804580349343192 0.015804580349343192 0.015804580349343192
          0.015804580349343192 0.015804580349343192 0.015804580349343192 0.015804580349343192 0.015804580349343192 0.01580458034934319
          0.01580458034934319 0.015804580349343192 0.015804580349343192 0.015804580349343192 0.015804580349343192 0.015804580349343192
          0.015804580349343192 0.01580458034934319 0.01580458034934319 0.01580458034934319 0.01580458034934319 0.01580458034934319
          0.015804580349343192 0.01580458034934319 0.015804580349343192 0.015804580349343192 0.015804580349343192 0.015804580349343192