<?xml version="1.0"?>
<VTKFile type="UnstructuredGrid" version="0.1" byte_order="LittleEndian" header_type="UInt32" compressor="vtkZLibDataCompressor">
  <UnstructuredGrid>
    <Piece NumberOfPoints="916" NumberOfCells="578">
      <PointData>
        <DataArray type="Int32" Name="libmesh_node_id" format="ascii" RangeMin="192" RangeMax="5394">
          285 471 472 480 482 483
          1027 1028 1029 1030 1035 1036
          1037 1038 1039 1040 1041 1042
          1043 1044 1045 1046 1047 1048
          1059 1060 1061 1062 1085 1086
          1087 1088 1089 1090 1091 1092
          1093 1095 1096 1097 1098 1113
          1114 1115 1116 1119 1467 1468
          1469 1470 1471 1474 1475 1652
          1653 1654 1655 1656 1657 1658
          1659 1660 1661 1662 1663 1664
          1665 1666 1668 1669 1670 1671
          1675 1676 1677 1682 1683 1684
          1685 1686 1687 1688 1689 1690
          1691 1692 1693 1694 1695 1696
          1697 1698 1699 1700 1701 1702
          1703 1704 1705 1706 1707 1708
          1709 1710 1711 1712 1713 1714
          1715 1716 1717 1718 1719 1720
          1721 1722 1723 1724 1725 1726
          1727 1728 1729 1754 1755 1756
          1757 1758 1759 1760 1761 1762
          1763 1764 1765 1766 1767 1768
          1769 1770 1771 1772 1773 1774
          1775 1776 1777 1781 1782 1783
          1784 1788 1789 1790 1791 1792
          1793 1794 1795 1796 1798 1799
          1802 1804 1805 1897 1898 1899
          1900 1901 1902 1903 1907 1908
          1909 1910 1911 1912 1913 2909
          2910 2911 2912 2913 2914 2915
          2916 2917 2918 2919 2920 2921
          2922 2923 2924 2925 2926 2931
          2932 2933 2934 2935 2936 2937
          2938 2939 2940 2941 2942 2943
          2944 2945 2946 2947 2948 2949
          2950 3308 3309 3310 3311 3312
          3313 3314 3315 3316 3317 3318
          3319 3320 3321 3322 3323 3324
          3325 3326 3327 3328 3329 3330
          3331 3332 3333 3334 3335 3336
          3337 3338 3339 3340 3341 3342
          3343 3344 3345 3346 3347 3348
          3349 3350 3351 3352 3353 3354
          3355 3356 3357 3358 3359 3360
          3361 3362 3363 3364 3365 3366
          3367 3368 3369 3370 3371 3372
          3373 3374 3375 3376 3377 3378
          3379 3380 3381 3382 3383 3384
          3385 3386 3387 3388 3389 3390
          3391 3392 3393 3394 3395 3396
          3397 3398 3399 3400 3401 3402
          3403 3404 3405 3406 3407 3408
          3409 3410 3411 3412 3413 3414
          3415 3416 3417 3418 3419 3420
          3421 3422 3423 3424 3425 3426
          3427 3428 3429 3430 3431 3432
          3433 3434 3435 3436 3437 3438
          3439 3440 3441 3442 3443 3444
          3445 3446 3447 3448 3449 3450
          3451 3452 3453 3454 3455 3456
          3457 3458 3459 3460 3461 3462
          3463 3464 3465 3466 3467 3468
          3469 3470 3471 3472 3473 3474
          3475 3476 3477 3478 3479 3480
          3539 3540 3541 3542 3543 3544
          3545 3546 3547 3548 3549 3550
          3551 3552 3553 3554 3555 3556
          3557 3558 3559 3560 3561 3562
          3563 3564 3565 3566 3567 3568
          3569 3570 3571 3572 3573 3574
          3575 3576 3577 3578 3579 3580
          3581 3582 3583 3584 3585 3586
          3587 3588 3589 3590 3591 3592
          3593 3594 3595 3596 3597 3598
          3599 3600 3601 3602 3603 3604
          3605 3606 3607 3608 3609 3610
          3611 3612 3613 3614 3615 3616
          3617 3618 3619 3620 3621 3622
          3623 3624 3625 3626 3627 3628
          3629 3630 3631 3632 3633 3634
          3635 3636 3637 3638 3639 3640
          3641 3642 3643 3644 3645 3646
          3647 3648 3649 3650 3651 3652
          3653 3654 3655 3656 3657 3658
          3659 3660 3661 3662 3663 3664
          3665 3666 3667 3668 3669 3670
          3671 3672 3673 3674 3675 3676
          3677 3678 3679 3680 3681 3682
          3683 3684 3685 3686 3687 3689
          3690 3692 3693 3694 3695 3699
          3700 3701 3702 3703 3704 3705
          3706 3707 3708 3709 3710 3711
          3712 3713 3714 3715 3716 3717
          3718 3719 3720 3721 3722 3723
          3724 3725 3726 3727 3728 3729
          3730 3731 3732 3733 3734 3735
          3736 3737 3738 3740 3741 3742
          3743 3744 3745 3747 3748 3749
          3750 3754 3755 3756 3757 3761
          3762 3763 3764 3765 3766 3767
          3768 3769 3770 3771 3772 3773
          3774 3775 3776 3777 3778 3779
          3780 3781 3782 3783 3784 3785
          3786 3787 3788 3789 3790 3791
          3792 3793 3794 3795 3796 3797
          3798 3799 3801 3802 3803 3806
          3807 3809 3810 3811 3812 3813
          3814 3815 3816 3817 3818 3819
          3820 3823 3825 3826 3828 3829
          3830 3831 3832 3833 3834 3835
          3836 3838 3840 3842 3843 3844
          3845 3846 3847 3848 3849 3850
          3851 3852 3853 3854 3857 3863
          3864 3867 3868 3870 3877 3879
          3880 3881 3884 3885 3917 3918
          3921 3922 3924 3928 4424 4425
          4426 4428 4429 4430 4431 4432
          4433 4434 4438 4439 4440 4441
          4442 4443 4444 4448 4449 4450
          4451 4452 4453 4454 5320 5321
          5322 5324 5325 5326 5327 5328
          5329 5334 5337 5338 5368 5369
          5370 5371 5372 5373 5388 5389
          467 470 286 473 469 475
          474 487 636 628 488 637
          629 686 689 690 687 466
          339 694 695 688 696 697
          699 700 192 484 481 702
          693 468 1033 1051 1052 1063
          1054 1064 476 1065 1066 1057
          287 1067 1068 477 478 1075
          1069 1076 1070 1077 1078 1094
          1472 1473 1476 1133 1135 1137
          1778 1667 1780 1797 1808 1672
          1812 1674 1904 1678 1906 1905
          1134 1914 1916 1915 1136 1982
          2189 2190 1983 2193 1984 3688
          1779 3696 3691 3697 3698 1117
          3739 1785 3746 1786 3751 3752
          3753 1787 3758 3759 3760 1118
          3804 3800 3805 3808 1120 3865
          3866 3869 1807 3872 3882 3878
          3883 3886 1809 3900 3897 3901
          3902 3898 3903 3919 3920 3923
          1815 3926 3930 3945 3946 3947
          3948 3952 3954 4435 4427 4436
          4437 4445 4446 4447 4455 4456
          4457 5330 5331 5323 2191 5332
          5333 2192 5339 5335 5340 5341
          5336 5342 5343 2194 5374 5375
          2199 5376 5377 2200 5390 5391
          5392 5393 5394 2203
        </DataArray>
        <DataArray type="Float64" Name="bounds" format="ascii" RangeMin="0" RangeMax="0">
          0 0 0 0 0 0
          0 0 0 0 0 0
          0 0 0 0 0 0
          0 0 0 0 0 0
          0 0 0 0 0 0
          0 0 0 0 0 0
          0 0 0 0 0 0
          0 0 0 0 0 0
          0 0 0 0 0 0
          0 0 0 0 0 0
          0 0 0 0 0 0
          0 0 0 0 0 0
          0 0 0 0 0 0
          0 0 0 0 0 0
          0 0 0 0 0 0
          0 0 0 0 0 0
          0 0 0 0 0 0
          0 0 0 0 0 0
          0 0 0 0 0 0
          0 0 0 0 0 0
          0 0 0 0 0 0
          0 0 0 0 0 0
          0 0 0 0 0 0
          0 0 0 0 0 0
          0 0 0 0 0 0
          0 0 0 0 0 0
          0 0 0 0 0 0
          0 0 0 0 0 0
          0 0 0 0 0 0
          0 0 0 0 0 0
          0 0 0 0 0 0
          0 0 0 0 0 0
          0 0 0 0 0 0
          0 0 0 0 0 0
          0 0 0 0 0 0
          0 0 0 0 0 0
          0 0 0 0 0 0
          0 0 0 0 0 0
          0 0 0 0 0 0
          0 0 0 0 0 0
          0 0 0 0 0 0
          0 0 0 0 0 0
          0 0 0 0 0 0
          0 0 0 0 0 0
          0 0 0 0 0 0
          0 0 0 0 0 0
          0 0 0 0 0 0
          0 0 0 0 0 0
          0 0 0 0 0 0
          0 0 0 0 0 0
          0 0 0 0 0 0
          0 0 0 0 0 0
          0 0 0 0 0 0
          0 0 0 0 0 0
          0 0 0 0 0 0
          0 0 0 0 0 0
          0 0 0 0 0 0
          0 0 0 0 0 0
          0 0 0 0 0 0
          0 0 0 0 0 0
          0 0 0 0 0 0
          0 0 0 0 0 0
          0 0 0 0 0 0
          0 0 0 0 0 0
          0 0 0 0 0 0
          0 0 0 0 0 0
          0 0 0 0 0 0
          0 0 0 0 0 0
          0 0 0 0 0 0
          0 0 0 0 0 0
          0 0 0 0 0 0
          0 0 0 0 0 0
          0 0 0 0 0 0
          0 0 0 0 0 0
          0 0 0 0 0 0
          0 0 0 0 0 0
          0 0 0 0 0 0
          0 0 0 0 0 0
          0 0 0 0 0 0
          0 0 0 0 0 0
          0 0 0 0 0 0
          0 0 0 0 0 0
          0 0 0 0 0 0
          0 0 0 0 0 0
          0 0 0 0 0 0
          0 0 0 0 0 0
          0 0 0 0 0 0
          0 0 0 0 0 0
          0 0 0 0 0 0
          0 0 0 0 0 0
          0 0 0 0 0 0
          0 0 0 0 0 0
          0 0 0 0 0 0
          0 0 0 0 0 0
          0 0 0 0 0 0
          0 0 0 0 0 0
          0 0 0 0 0 0
          0 0 0 0 0 0
          0 0 0 0 0 0
          0 0 0 0 0 0
          0 0 0 0 0 0
          0 0 0 0 0 0
          0 0 0 0 0 0
          0 0 0 0 0 0
          0 0 0 0 0 0
          0 0 0 0 0 0
          0 0 0 0 0 0
          0 0 0 0 0 0
          0 0 0 0 0 0
          0 0 0 0 0 0
          0 0 0 0 0 0
          0 0 0 0 0 0
          0 0 0 0 0 0
          0 0 0 0 0 0
          0 0 0 0 0 0
          0 0 0 0 0 0
          0 0 0 0 0 0
          0 0 0 0 0 0
          0 0 0 0 0 0
          0 0 0 0 0 0
          0 0 0 0 0 0
          0 0 0 0 0 0
          0 0 0 0 0 0
          0 0 0 0 0 0
          0 0 0 0 0 0
          0 0 0 0 0 0
          0 0 0 0 0 0
          0 0 0 0 0 0
          0 0 0 0 0 0
          0 0 0 0 0 0
          0 0 0 0 0 0
          0 0 0 0 0 0
          0 0 0 0 0 0
          0 0 0 0 0 0
          0 0 0 0 0 0
          0 0 0 0 0 0
          0 0 0 0 0 0
          0 0 0 0 0 0
          0 0 0 0 0 0
          0 0 0 0 0 0
          0 0 0 0 0 0
          0 0 0 0 0 0
          0 0 0 0 0 0
          0 0 0 0 0 0
          0 0 0 0 0 0
          0 0 0 0 0 0
          0 0 0 0 0 0
          0 0 0 0 0 0
          0 0 0 0 0 0
          0 0 0 0 0 0
          0 0 0 0 0 0
          0 0 0 0 0 0
          0 0 0 0
        </DataArray>
        <DataArray type="Float64" Name="gradient_error" format="ascii" RangeMin="1.0282195566931319e-11" RangeMax="4.876402918684228e-7">
          2.1886468504599204e-9 1.9979005675154284e-8 1.3656295192144426e-8 1.6847110125285055e-10 5.368978707354969e-11 2.3699724882418004e-10
          9.182227483884919e-9 1.4688860078046398e-8 1.2058909686663086e-8 9.428959295279771e-9 7.555594445771108e-9 6.4568902700186014e-9
          1.1555284048404122e-8 9.681671473766536e-9 1.752217105367151e-9 4.566053745418515e-9 4.147426081398026e-9 5.358186094266095e-9
          7.808058899128947e-9 3.3767350610787196e-9 4.2220624917889494e-8 3.664583890404086e-8 1.672203276816153e-8 3.1486919540059035e-8
          1.6207424370218876e-7 1.3500281447607555e-7 8.372710577406096e-8 6.737625318854765e-8 2.3802048777148447e-10 4.936800548699153e-10
          1.0923378495585133e-10 4.3025818364499053e-10 2.021783104354425e-10 5.6737349649391476e-11 1.3390567024012986e-10 9.067759436009201e-10
          1.2493640799068048e-9 1.933374889217509e-10 1.3222295196657232e-10 3.173834389164652e-11 8.4856741269503e-10 1.1859031449959822e-9
          6.973034749511114e-10 4.0125673189034865e-10 1.9793111336169527e-10 5.5910265695381215e-9 1.5162608197094847e-9 2.0939920154160897e-9
          1.5062861260858207e-9 9.895482928771883e-10 1.3900539750072467e-9 7.494559138963952e-10 1.039489602951577e-9 6.645734917654088e-10
          1.3131509657250278e-9 1.2460785823664109e-9 1.0925607651421888e-9 3.214499415961186e-9 6.955049980366843e-10 8.654190388001031e-10
          7.247227463236227e-10 2.033898539439182e-9 6.7428445848564005e-9 6.1772559154388515e-9 5.0290681258831e-9 1.5016846732415624e-8
          3.829259589284512e-9 2.6420726552138325e-9 3.091055518182439e-8 2.78806511679523e-8 2.1556128670386852e-8 5.4553240513537596e-8
          1.3198414390127182e-9 1.7000973731404107e-9 1.328099608677282e-9 4.3453621860060184e-10 4.0635021501054663e-10 7.253934469061383e-10
          6.87143616672215e-10 1.0209340051683492e-10 7.732209855085553e-11 7.080814948401024e-11 4.4891797722189156e-10 6.376158507712502e-10
          1.1691027178321655e-10 1.9040670190563263e-9 1.754617018121918e-9 1.7379403324918692e-10 1.4497454370807823e-9 5.123243167137151e-11
          5.041393152842852e-11 3.841058427579769e-11 3.4363036738926044e-11 4.002191322654753e-11 2.982218416532117e-11 2.689327241297418e-11
          7.881603221744472e-11 5.568930261773526e-11 3.192511132841411e-11 1.0414289912803077e-10 9.10292175613053e-11 4.622513485752128e-11
          6.46582932594397e-11 5.392595401272986e-10 6.220391475344651e-10 2.7771408393773974e-10 2.674622897537809e-10 4.863449730323457e-10
          6.180159943882756e-10 3.6436694889246623e-10 1.1666952193627305e-9 1.8907543077690028e-10 1.1058496648774089e-9 1.356022738336361e-10
          1.2821035188563314e-10 6.962084671236016e-11 6.512688974119152e-11 1.338230997253673e-10 1.7433679847980326e-10 9.035404053489427e-11
          8.792633731983762e-11 4.348316660583098e-11 1.7341990129411797e-10 3.746800790815903e-9 3.42472196418973e-9 4.868888912422184e-10
          4.282026182998173e-10 2.7725824254859557e-9 3.075023455340467e-10 9.204013663829884e-9 8.26770660918913e-9 1.0283127590544813e-9
          6.384958311616808e-9 2.801424252371213e-10 2.3933654855594465e-10 1.4979738075905898e-10 1.2589482213892462e-10 1.593371367143047e-10
          8.071170998347522e-11 7.265992615517588e-10 6.106145302974753e-10 3.308083595583384e-10 3.805302768021569e-10 2.0983638986806256e-9
          2.0123569956629496e-10 1.5224430386849413e-9 2.520505604467536e-10 9.55619124207076e-11 4.629303927718868e-11 1.1300286201008382e-10
          6.950558335259676e-11 1.728567454673683e-8 1.554129466562288e-8 2.7096612303302806e-9 2.3417567430706296e-9 1.1914475982114743e-8
          1.5082589728574955e-9 3.424874669689095e-8 3.041872597029433e-8 4.90934709508534e-9 1.7625020857407352e-9 1.4737479747643714e-9
          8.674146224889055e-10 3.873951335228835e-9 3.27499908474001e-9 1.0138597268874603e-9 1.1694459998597268e-9 5.037656365288119e-10
          4.4820505497871643e-10 7.956222496915806e-10 1.044842607108131e-9 5.455627926188618e-10 2.352463571532933e-10 2.0872147418917917e-10
          1.186641807706559e-10 1.1929717391377627e-10 1.992554855730002e-10 2.590315116600115e-10 1.3035161244055174e-10 2.812775982441739e-10
          4.734204298707994e-10 3.7053581828644846e-10 2.6765120670209745e-10 2.343442740613119e-10 1.9339282921112972e-10 3.140521519865019e-10
          2.564156819527979e-10 1.0550806017808555e-10 1.5468387410220424e-10 1.4229554561914735e-10 1.5244138436094757e-10 1.9877921191909395e-10
          1.2990721713609045e-10 2.1932931868597423e-10 2.9438149865034485e-10 2.680291967075842e-10 2.4167689476482357e-10 1.7164655414363095e-10
          1.6578330263567137e-10 2.35721763649144e-10 2.1954797695041801e-10 8.627698812723385e-11 1.3178022855314285e-10 1.2799145523370896e-10
          1.5992005112771184e-10 2.0337419025169198e-10 1.242026819142751e-10 4.490776212772194e-11 4.865341506032748e-11 6.47918776941126e-11
          6.648758543194982e-11 3.699014045155585e-11 4.308532692988269e-11 4.805901758973351e-11 5.239906799293302e-11 6.818329316978703e-11
          5.3032708249584323e-11 6.93527934787876e-11 8.276677361994552e-11 8.147513089188015e-11 7.825960112418755e-11 1.3478480707552804e-10
          5.772536482607185e-11 5.672191561080716e-11 7.03951484903873e-11 6.920026767211732e-11 3.649273831911559e-11 4.855716464990088e-11
          4.758605614923278e-11 5.4027223727620494e-11 6.59819486113999e-11 4.4834211995593974e-11 1.143518108048027e-10 1.1199238431264559e-10
          7.560906118417037e-11 1.0600488162585672e-10 6.161390554411967e-11 7.17377477087966e-11 6.713978133303291e-11 1.1686545111468487e-10
          5.110472909244813e-11 6.115595366479387e-11 3.285797962543355e-11 4.1296310654055586e-11 4.987347712519773e-11 5.83533969606353e-11
          3.953914496548789e-11 9.676248453402564e-11 6.38514221988945e-11 9.415776804108759e-11 2.0856143893810702e-10 2.035237009132801e-10
          1.9259227503374737e-10 3.1342780696889e-10 1.7624659201899544e-10 1.7206743769488232e-10 1.229288681520934e-10 1.1989884406225821e-10
          1.6198823183030298e-10 1.1154115975423662e-10 2.7254910429453943e-10 2.654243777130341e-10 1.8812031285227982e-10 2.4833593788614077e-10
          1.77270706745958e-10 1.5796104087963759e-10 2.6918420553279046e-10 1.4794690029554934e-10 9.99205159374736e-11 1.3091728663373434e-10
          8.682104505378992e-11 2.2477077942283923e-10 1.539541400595727e-10 1.9731859094324137e-10 2.5333897380238296e-11 2.4934407441640827e-11
          3.335320019795265e-11 3.265557957355621e-11 1.7550205123325513e-11 2.338173525041409e-11 2.2880150366770377e-11 2.346915106712806e-11
          3.057553071038807e-11 2.132897185715111e-11 5.4238497392049104e-11 5.284954294506625e-11 3.732935512866642e-11 4.9035945141572483e-11
          1.2623659669776338e-11 1.2357680527368542e-11 1.6271209962579292e-11 1.586726725523783e-11 1.0589326795963263e-11 1.3394543881263021e-11
          1.303868507793629e-11 1.1666062645464345e-11 1.4816170885792588e-11 1.2161331585483432e-11 2.718828253957025e-11 2.6390273890277386e-11
          2.0726036897497335e-11 2.4200946548050054e-11 2.1617470538897948e-11 2.739213768300558e-11 1.539990235297338e-11 1.918566322006093e-11
          2.0831556446583136e-11 2.5591172894394792e-11 1.809194820894631e-11 4.3408185329251424e-11 3.020143389783442e-11 4.100463333325873e-11
          1.1483732902586345e-11 1.3664581408297655e-11 1.0282195566931319e-11 1.1723650055164599e-11 1.1727041899204745e-11 1.3160145592906503e-11
          1.180746321397189e-11 2.109760891435852e-11 1.6501134623723295e-11 1.9542305973638854e-11 8.773352094443992e-11 8.525791497778401e-11
          6.329075955632831e-11 6.132143440016623e-11 7.848789976375808e-11 5.5953103682325066e-11 1.4200998293970836e-10 1.3761331731733988e-10
          1.0060295142527943e-10 1.2566179172832257e-10 4.5552158292430246e-11 4.40470424077831e-11 3.2072754624137834e-11 3.097227981932361e-11
          3.9934236413209274e-11 2.7943740633450777e-11 7.550275425986066e-11 7.276349114668569e-11 5.165723147246887e-11 6.539689308877997e-11
          6.920292017351108e-11 4.8728505675262217e-11 5.923089738228738e-11 4.1174811410503756e-11 1.0934599213216945e-10 7.812504287356415e-11
          9.205635263318032e-11 3.4364183867258375e-11 2.388406177576256e-11 2.8560870159124283e-11 1.971272090732988e-11 5.556989280139164e-11
          3.9046167957540536e-11 4.5489803352753834e-11 1.1400215702521442e-10 1.3444195369965608e-10 1.2080465195291146e-10 2.0349588146421755e-10
          9.345156775987435e-11 1.1239602251587967e-10 5.961694309264384e-11 7.416851091469827e-11 8.672615867013852e-11 1.0276309206555262e-10
          6.832246406071366e-11 1.6814532635845643e-10 1.1077403866783268e-10 1.5288265157160805e-10 4.0644492153270993e-11 5.005931392402262e-11
          2.8156142285676717e-11 3.457905364341496e-11 3.8685222053648316e-11 4.5869182914104576e-11 3.171139769570084e-11 7.55721934681417e-11
          5.2436815342799154e-11 6.63057227426932e-11 1.8391072073989974e-11 2.3114691857310623e-11 1.280999780911979e-11 1.6078869592327096e-11
          1.6926406174266275e-11 2.050946482760686e-11 1.4484744669127395e-11 3.6073951929375027e-11 2.5042595451656593e-11 3.096135316934127e-11
          4.6098715762008944e-10 4.483069188048016e-10 4.213092434029684e-10 7.2538147677989e-10 4.061340845351604e-10 3.948941169566587e-10
          3.0712101643219105e-10 2.979961636978719e-10 3.6786411509304116e-10 2.729092963003552e-10 6.513651036254874e-10 6.303860221502467e-10
          4.713382861157748e-10 5.806648334063254e-10 3.829919343708729e-10 3.362644234362898e-10 6.006421941224857e-10 3.300683985398947e-10
          2.385090673055775e-10 2.865574616102042e-10 2.0183725390319423e-10 5.130859207696582e-10 3.6914144958454334e-10 4.37208294759013e-10
          1.1266608079493794e-9 1.0853875544224357e-9 1.001714883808408e-9 1.6540543176484356e-9 9.9555550128101e-10 9.6120032586818e-10
          7.671568314049189e-10 7.41382152041092e-10 8.805979500720299e-10 6.688743209049319e-10 1.5212509640432094e-9 1.4664711530173516e-9
          1.1453567187232247e-9 1.3370509185278175e-9 8.907577240021036e-10 7.570658209794384e-10 1.3382917653583653e-9 7.715705121011982e-10
          5.690784018328982e-10 6.488741744192487e-10 4.662665035893415e-10 1.1602021864349428e-9 8.647134898961944e-10 9.609176713766798e-10
          2.2991491972937058e-10 2.221915942577308e-10 1.7122274985573241e-10 1.649443241599925e-10 2.0111400719410402e-10 1.4790226183261065e-10
          3.711393344304086e-10 3.578200205617229e-10 2.6921899457948743e-10 3.21178560534644e-10 1.255375492500868e-10 1.206410175149352e-10
          8.999991313716052e-11 8.634230366963396e-11 1.074330607067622e-10 7.654241705562849e-11 2.0751751802462692e-10 1.9892000735972193e-10
          1.433269995037094e-10 1.7557300817540205e-10 1.7253369287334976e-10 1.2507306806082337e-10 1.4283726501882344e-10 1.017757160134319e-10
          2.715550540838399e-10 1.9935493756539097e-10 2.209795463578836e-10 8.992391409137847e-11 6.367477241505187e-11 7.228850126935552e-11
          5.0830039023152136e-11 1.446873140301802e-10 1.0306129018950965e-10 1.1418186658385858e-10 5.934226593126529e-10 5.711547500798292e-10
          4.541239427534805e-10 4.35622296423353e-10 5.090003148277593e-10 3.8434851240765667e-10 9.36853298635264e-10 9.008698972346553e-10
          6.96277087471496e-10 7.982675120806606e-10 3.3969875411216767e-10 3.2497962858185277e-10 2.467919894532271e-10 2.356133013139305e-10
          2.8456888088279114e-10 2.052345566975571e-10 5.487883555907807e-10 5.243442590347409e-10 3.824793113415196e-10 4.561517900822652e-10
          4.243437829307824e-10 3.154476297036956e-10 3.3919617716766133e-10 2.474347448045615e-10 6.567694320304782e-10 4.94273228731178e-10
          5.156701301528862e-10 2.3096681604137728e-10 1.6541414924534106e-10 1.7879759725951956e-10 1.2703768258150934e-10 3.649784359366143e-10
          2.6274595479352075e-10 2.7719449444778975e-10 2.90428344415719e-10 2.44272401009113e-10 4.3907930290731267e-10 2.4432177834615174e-10
          1.6710604030181556e-10 2.037185201627752e-10 1.358478193146469e-10 3.672501114255628e-10 2.5077995276854655e-10 3.034154826676306e-10
          1.6731689739696812e-10 1.9681111569518626e-10 1.7239733325632774e-10 2.95922190530772e-10 1.3998763814789593e-10 1.6592494957729815e-10
          8.952252402791187e-11 1.0920880079088462e-10 1.269729316516797e-10 1.480042085728051e-10 9.73303887237154e-11 2.440145642779433e-10
          1.588720223497165e-10 2.0986578270758105e-10 6.363132052414043e-10 5.260046526002708e-10 9.265822041048327e-10 5.374695736321344e-10
          3.7398362981542615e-10 4.3854134062745216e-10 2.9596625450070993e-10 7.835378587002186e-10 5.499100586833213e-10 4.258017855977158e-10
          3.34235191911406e-10 3.514613553364385e-10 2.3111671640761673e-10 2.745411368524696e-10 1.7745175827765712e-10 1.1567009499945049e-10
          8.103348968032601e-11 9.166853025652087e-11 6.311074009309649e-11 1.7588535759796827e-10 1.2441376500415618e-10 1.377824844557546e-10
          5.669898085735311e-11 3.952264214716406e-11 4.366030552248164e-11 3.025037531388462e-11 8.795751654589266e-11 6.167675530305925e-11
          6.666778426921759e-11 5.633352385441043e-11 7.047886169885447e-11 3.870171646605501e-11 4.813837117804647e-11 4.898334782591718e-11
          6.059396299050372e-11 4.15783204243662e-11 1.0593202382772764e-10 7.24241627334179e-11 8.850845175405128e-11 2.8086692242311455e-11
          3.388789149290826e-11 1.979613540103134e-11 2.3661505777520833e-11 2.636637420055197e-11 3.000232366586461e-11 2.1156872096250447e-11
          4.98807964764402e-11 3.438322380851061e-11 4.0667541202770495e-11 2.652648396466384e-10 1.896827898442559e-10 2.046267853591331e-10
          1.4343419917237117e-10 3.958669036724854e-10 2.86137812683688e-10 1.351541889868417e-10 9.521339967569482e-11 1.0071315733781055e-10
          7.029185955184267e-11 2.054591911599403e-10 1.454285726381323e-10 1.5616324220480917e-10 1.0755333650198794e-10 1.1782105897360563e-10
          8.002674902643126e-11 7.448630454550162e-11 5.110578973238471e-11 5.424995962794639e-11 4.0555197355699864e-11 2.4398693562534453e-9
          2.34578590646412e-9 2.1599533473219916e-9 3.5061019935227034e-9 2.2210167839773056e-9 2.1417732244567094e-9 1.8113899445880342e-9
          1.7494671877089614e-9 1.952122814530733e-9 1.5648586910425802e-9 3.314952183377625e-9 3.191948484083823e-9 2.620734755273357e-9
          2.894949344154747e-9 1.9044302354410483e-9 1.5795830486855924e-9 2.7917556137398064e-9 1.6855410788868695e-9 1.3012975287502618e-9
          1.3795300153877166e-9 1.032446081107961e-9 2.474496476098013e-9 1.929807279803867e-9 1.99153330862365e-9 5.14323396702781e-9
          4.924626583204495e-9 4.504739845482868e-9 6.848958277604542e-9 4.7236298065656395e-9 4.5541055670506354e-9 3.956315929728978e-9
          3.8375717896598695e-9 4.137153545296677e-9 3.4360560578056355e-9 6.5859766159796845e-9 6.3685557008945764e-9 5.449896659207376e-9
          5.811928031099613e-9 3.927070008664369e-9 5.47662350512569e-9 3.5250796535256103e-9 2.813953594749586e-9 4.945942747983234e-9
          4.010569212331696e-9 1.45488072731628e-9 1.3991372812936278e-9 1.1433756020990234e-9 1.0955577730117217e-9 1.2351747590237921e-9
          9.567913277736557e-10 2.213711937881605e-9 2.1317052711161774e-9 1.6905405224055633e-9 1.8796305529256963e-9 8.719375967694823e-10
          8.327544740916246e-10 7.210035598239906e-10 1.3578280921730074e-9 1.2975310919924842e-9 1.1203593703465927e-9 1.004358703582802e-9
          7.650291936010315e-10 7.750346964325965e-10 5.784843022879266e-10 1.5138165105405032e-9 1.1664014239767173e-9 1.1495575733478047e-9
          5.695405974783824e-10 4.2467515417893944e-10 8.753690742069838e-10 6.416214046862649e-10 3.282792724821213e-9 3.170052120050861e-9
          2.6505500686733034e-9 2.5482577822512553e-9 2.8004552757995232e-9 2.223552774446513e-9 4.7250759394007255e-9 4.58304869943473e-9
          3.738462752582566e-9 4.06994178924242e-9 2.065183536471575e-9 1.9767612287706913e-9 1.7062613833214422e-9 2.2404538067833265e-9
          1.7465521547503607e-9 3.2450767511741745e-9 2.5607864222030963e-9 1.3216848607460715e-9 1.2950897843720523e-9 1.8302801876251897e-9
          1.110470880191927e-9 7.99957752089034e-10 1.5752986651527958e-9 1.1486230985190335e-9 5.839539363362952e-10 4.266738106799704e-10
          8.505719435777654e-10 6.27971329593045e-10 3.086700439549004e-10 4.576164197380419e-10 2.1151489432988834e-10 2.502993902733379e-10
          2.1241741252556873e-10 1.7534718856352305e-10 2.0751706950571874e-10 1.1234476218777684e-10 1.3435540801003996e-10 1.5215885291509622e-10
          1.7777296766392955e-10 1.1555811026394597e-10 7.467853312278975e-11 8.904290610529302e-11 5.096983285905824e-11 6.031303301475312e-11
          6.656050101451411e-11 7.722770996573275e-11 5.262581740056937e-11 3.272104199623087e-11 3.9265570954151375e-11 2.7349442941528854e-11
          3.2014820807402244e-11 2.8496325869923416e-11 3.3347073891146544e-11 2.7910235187018302e-11 9.417233074061754e-9 9.061820246674941e-9
          8.40315398903094e-9 8.79035849610155e-9 8.546338548127909e-9 7.6418121117475e-9 7.499033094478323e-9 7.878830809988584e-9
          6.820155962640005e-9 7.379780574964528e-9 6.734429944243597e-9 5.576505029486157e-9 6.579468647146522e-9 6.421318720448828e-9
          5.48577232913143e-9 5.321967074688921e-9 5.7524162087993094e-9 4.695417169344502e-9 4.586846871610079e-9 3.666666986448558e-9
          3.327055432635823e-8 5.772136996673537e-9 7.82123496767807e-9 2.1144395054020255e-8 1.198912361677135e-7 1.1824962321238479e-8
          9.560075555452381e-8 9.681377560868483e-10 1.2961382034228633e-9 3.999524308040404e-9 1.1356953553627392e-9 1.3284232977227776e-9
          7.529980338712652e-9 3.617504577105358e-9 1.3223444330520434e-9 1.388137967038481e-9 3.622882638065503e-9 4.309673353517298e-8
          5.005552319640726e-10 1.6237302903884625e-10 2.449547941135301e-10 5.601584715426097e-10 1.927902279540129e-10 3.3942982989894366e-10
          1.3912583112257947e-10 1.7600944915668425e-10 1.1843027844227382e-10 1.6354911966952504e-10 3.9783172807010917e-10 4.887507120606476e-10
          1.4922016656583278e-9 8.497803403827445e-8 5.791517069166201e-8 1.823272178471658e-7 1.563224547836549e-7 7.895448251869313e-8
          1.0690337060669277e-7 3.64809204998202e-8 4.764215512436606e-7 4.876402918684228e-7 3.964142903545783e-7 4.065540277744167e-7
          2.750166345830682e-7 2.13244816914789e-7 2.096167498576033e-7 2.9534722783987674e-7 1.0300736034680692e-7 2.3914122547791296e-8
          3.27548049310622e-8 3.671079380580361e-8 4.624340613842643e-8 6.821365809521708e-9 1.4956275160979677e-8 3.637427017669508e-10
          3.0476506930061055e-10 4.461111060209396e-10 3.770273402686702e-10 1.718263146002334e-9 5.329755037199656e-10 1.904951071052915e-9
          4.54537738410877e-9 8.336164335322141e-9 2.8883293436872056e-9 2.232061419324446e-8 8.369680218221898e-9 1.5284250218481058e-8
          1.4954872726362684e-8 2.725388418553876e-8 2.0061916822561584e-9 3.19233797531159e-9 1.6863034472820557e-9 5.583257536922625e-10
          1.3661849721633618e-9 2.4930475366168013e-10 3.9153295338179926e-10 1.301746739284111e-10 4.108782421448585e-10 1.0069750260488865e-7
          5.6420289653683557e-8 5.0788962476614594e-8 9.059581673999214e-8 3.726427287901292e-8 6.69043016114394e-8 6.299457441207257e-10
          4.28507926049954e-10 4.98815937622872e-10 6.042894162882358e-10 3.2990877575943367e-10 3.8691600317069776e-10 2.5013031213331346e-10
          3.0022229248862446e-10 2.1261458459171687e-10 1.504047108689443e-10 1.054393765647159e-10 2.2543749806718634e-10 1.5658641726578127e-10