<?xml version="1.0"?>
<VTKFile type="UnstructuredGrid" version="0.1" byte_order="LittleEndian" header_type="UInt32" compressor="vtkZLibDataCompressor">
  <UnstructuredGrid>
    <Piece NumberOfPoints="906" NumberOfCells="573">
      <PointData>
        <DataArray type="Int32" Name="libmesh_node_id" format="ascii" RangeMin="288" RangeMax="6500">
          288 491 1063 1064 1069 1070
          1071 1075 1076 1077 1078 1079
          1080 1081 1082 1083 1084 1117
          1118 1120 1121 1122 1133 1134
          1136 1137 1138 1139 1140 1141
          1142 1221 1222 1516 1518 1523
          1527 1528 1667 1672 1673 1674
          1678 1679 1680 1681 1778 1779
          1780 1785 1786 1787 1797 1807
          1808 1809 1810 1811 1812 1813
          1814 1815 1816 1817 1818 1819
          1820 1821 1904 1905 1906 1914
          1915 1916 1917 1918 1919 1920
          1921 1922 1923 1924 1925 1926
          1927 1928 1929 1930 1932 1936
          1938 1982 1983 1984 1992 1993
          2031 2032 2189 2190 2191 2192
          2193 2194 2195 2196 2197 2198
          2199 2200 2201 2202 2203 2204
          2205 2206 2208 2209 2210 2211
          2212 2213 2214 2216 2218 2220
          2225 2226 2228 2233 2234 2237
          2325 2326 2327 2328 2332 2334
          2892 2893 2894 2895 2896 2897
          2898 2899 2900 2901 2927 2928
          2929 2930 2961 2962 2963 2964
          2965 2966 2967 2968 2969 2970
          2971 2972 2973 2974 2975 2976
          2977 2978 2980 2995 2996 2997
          2998 2999 3000 3001 3003 3688
          3691 3696 3697 3698 3739 3746
          3751 3752 3753 3758 3759 3760
          3800 3804 3805 3808 3865 3866
          3869 3872 3873 3876 3878 3882
          3883 3886 3887 3888 3889 3890
          3891 3892 3893 3894 3895 3896
          3897 3898 3899 3900 3901 3902
          3903 3904 3905 3906 3907 3908
          3909 3910 3911 3912 3913 3914
          3915 3916 3919 3920 3923 3926
          3927 3930 3931 3932 3933 3934
          3935 3936 3937 3938 3939 3940
          3941 3942 3943 3944 3945 3946
          3947 3948 3949 3950 3951 3952
          3953 3954 3955 3956 3957 3958
          3959 3960 3961 3962 3963 3964
          3965 3966 3967 3968 3969 3970
          3971 3972 4427 4435 4436 4437
          4445 4446 4447 4455 4456 4457
          4458 4459 4460 4461 4462 4463
          4464 4465 4466 4467 4468 4469
          4470 4471 4472 4473 4474 4475
          4476 4477 4478 4479 4480 4481
          4482 4483 4484 4485 4486 4487
          4488 4489 4490 4491 4492 4493
          4494 4495 4496 4497 4498 4499
          4500 4501 4502 4503 4504 4505
          4506 4507 4508 4509 4510 4511
          4512 4513 4514 4515 4516 4517
          4518 4519 4520 4521 4522 4523
          4524 4525 4526 4527 4528 4529
          4530 4531 4532 4533 4534 4535
          4536 4537 4538 4539 4566 5323
          5330 5331 5332 5333 5335 5336
          5339 5340 5341 5342 5343 5344
          5345 5346 5347 5348 5349 5350
          5351 5352 5353 5354 5355 5356
          5357 5358 5359 5360 5361 5362
          5363 5364 5365 5366 5367 5374
          5375 5376 5377 5384 5385 5386
          5387 5390 5391 5392 5393 5394
          5397 5398 5399 5400 5401 5402
          5403 5404 5405 5406 5407 5408
          5409 5410 5411 5412 5413 5416
          5418 5419 5421 5422 5423 5424
          5425 5426 5427 5428 5429 5431
          5433 5435 5436 5437 5438 5439
          5440 5441 5442 5443 5444 5445
          5446 5447 5448 5449 5450 5451
          5452 5453 5454 5455 5456 5457
          5458 5459 5460 5461 5462 5463
          5464 5465 5466 5467 5468 5469
          5470 5471 5472 5473 5474 5476
          5477 5478 5479 5480 5481 5482
          5483 5484 5485 5486 5487 5488
          5489 5490 5491 5492 5493 5494
          5495 5496 5497 5498 5499 5500
          5501 5503 5504 5505 5506 5507
          5508 5509 5510 5511 5513 5518
          5519 5520 5521 5522 5523 5525
          5527 5532 5533 5534 5539 5540
          5541 5542 5543 5544 5547 5549
          5550 5552 5553 5554 5555 5557
          5591 5592 5593 5594 5595 5596
          5597 5598 5599 5600 5611 5612
          5613 5614 5615 5616 5617 5659
          5660 5662 5663 5664 5665 5669
          5672 5673 5699 5700 5701 5702
          5713 5714 6251 6252 6253 6254
          6255 6256 6257 6258 6259 6260
          6261 6262 6263 6264 6265 6266
          6267 6268 6269 6270 6271 6272
          6274 6275 6276 6277 6281 6282
          6284 6285 6286 6287 6291 6292
          6293 6294 6295 6296 6297 6298
          6299 6300 6301 6302 6304 6305
          6306 6307 6308 6309 6310 6311
          6312 6313 6314 6315 6316 6318
          6319 6320 6321 6322 6326 6328
          6333 6334 6335 6336 6340 6342
          6479 6480 6491 6492 6493 6494
          6495 6496 6497 474 475 629
          627 479 634 633 637 641
          632 643 645 293 498 499
          647 646 653 655 649 1054
          477 1068 1073 478 1135 488
          1144 1148 1150 1152 493 1158
          1167 1180 1174 1168 1181 1182
          1176 1183 1243 1524 1517 1525
          1244 1526 1529 1519 1530 1532
          1531 1940 1165 1987 1166 1067
          1995 2215 2009 2223 2224 2010
          2227 2012 2243 2025 2245 2027
          2329 2033 2331 2979 2353 2037
          1241 2355 2357 2335 3002 3004
          2338 2363 1242 2365 2367 3005
          2375 3006 5414 5415 5417 1223
          5420 2207 5430 5432 5434 1224
          5475 1225 2217 5502 2219 5512
          5514 5515 5516 5517 2221 5524
          2222 5526 5528 5529 5530 5531
          1226 5545 5546 5537 5548 5556
          5551 5558 5569 5571 5572 5570
          5574 5573 5585 5584 5587 5586
          5601 5602 5603 5604 5605 5606
          5607 5608 5610 5618 5619 5620
          5621 5622 5624 5625 5626 5627
          5628 5629 5630 5635 5636 5639
          5645 5646 5647 5648 5652 5654
          5666 5661 5667 5668 2244 5674
          5670 5675 5676 5671 5677 5678
          2246 5683 5682 5703 5704 5705
          2250 5706 5707 5708 5710 5712
          5715 5716 5717 5718 5719 2252
          5720 5722 5724 5726 5727 5728
          5734 6278 6273 6279 6280 2330
          6288 6283 6289 6290 6303 2333
          6317 6323 6324 6325 2336 6327
          6329 6330 6331 6332 2337 6337
          6338 6339 6341 6343 6344 6345
          6346 6483 6498 2373 6499 6500
        </DataArray>
        <DataArray type="Float64" Name="bounds" format="ascii" RangeMin="0" RangeMax="0">
          0 0 0 0 0 0
          0 0 0 0 0 0
          0 0 0 0 0 0
          0 0 0 0 0 0
          0 0 0 0 0 0
          0 0 0 0 0 0
          0 0 0 0 0 0
          0 0 0 0 0 0
          0 0 0 0 0 0
          0 0 0 0 0 0
          0 0 0 0 0 0
          0 0 0 0 0 0
          0 0 0 0 0 0
          0 0 0 0 0 0
          0 0 0 0 0 0
          0 0 0 0 0 0
          0 0 0 0 0 0
          0 0 0 0 0 0
          0 0 0 0 0 0
          0 0 0 0 0 0
          0 0 0 0 0 0
          0 0 0 0 0 0
          0 0 0 0 0 0
          0 0 0 0 0 0
          0 0 0 0 0 0
          0 0 0 0 0 0
          0 0 0 0 0 0
          0 0 0 0 0 0
          0 0 0 0 0 0
          0 0 0 0 0 0
          0 0 0 0 0 0
          0 0 0 0 0 0
          0 0 0 0 0 0
          0 0 0 0 0 0
          0 0 0 0 0 0
          0 0 0 0 0 0
          0 0 0 0 0 0
          0 0 0 0 0 0
          0 0 0 0 0 0
          0 0 0 0 0 0
          0 0 0 0 0 0
          0 0 0 0 0 0
          0 0 0 0 0 0
          0 0 0 0 0 0
          0 0 0 0 0 0
          0 0 0 0 0 0
          0 0 0 0 0 0
          0 0 0 0 0 0
          0 0 0 0 0 0
          0 0 0 0 0 0
          0 0 0 0 0 0
          0 0 0 0 0 0
          0 0 0 0 0 0
          0 0 0 0 0 0
          0 0 0 0 0 0
          0 0 0 0 0 0
          0 0 0 0 0 0
          0 0 0 0 0 0
          0 0 0 0 0 0
          0 0 0 0 0 0
          0 0 0 0 0 0
          0 0 0 0 0 0
          0 0 0 0 0 0
          0 0 0 0 0 0
          0 0 0 0 0 0
          0 0 0 0 0 0
          0 0 0 0 0 0
          0 0 0 0 0 0
          0 0 0 0 0 0
          0 0 0 0 0 0
          0 0 0 0 0 0
          0 0 0 0 0 0
          0 0 0 0 0 0
          0 0 0 0 0 0
          0 0 0 0 0 0
          0 0 0 0 0 0
          0 0 0 0 0 0
          0 0 0 0 0 0
          0 0 0 0 0 0
          0 0 0 0 0 0
          0 0 0 0 0 0
          0 0 0 0 0 0
          0 0 0 0 0 0
          0 0 0 0 0 0
          0 0 0 0 0 0
          0 0 0 0 0 0
          0 0 0 0 0 0
          0 0 0 0 0 0
          0 0 0 0 0 0
          0 0 0 0 0 0
          0 0 0 0 0 0
          0 0 0 0 0 0
          0 0 0 0 0 0
          0 0 0 0 0 0
          0 0 0 0 0 0
          0 0 0 0 0 0
          0 0 0 0 0 0
          0 0 0 0 0 0
          0 0 0 0 0 0
          0 0 0 0 0 0
          0 0 0 0 0 0
          0 0 0 0 0 0
          0 0 0 0 0 0
          0 0 0 0 0 0
          0 0 0 0 0 0
          0 0 0 0 0 0
          0 0 0 0 0 0
          0 0 0 0 0 0
          0 0 0 0 0 0
          0 0 0 0 0 0
          0 0 0 0 0 0
          0 0 0 0 0 0
          0 0 0 0 0 0
          0 0 0 0 0 0
          0 0 0 0 0 0
          0 0 0 0 0 0
          0 0 0 0 0 0
          0 0 0 0 0 0
          0 0 0 0 0 0
          0 0 0 0 0 0
          0 0 0 0 0 0
          0 0 0 0 0 0
          0 0 0 0 0 0
          0 0 0 0 0 0
          0 0 0 0 0 0
          0 0 0 0 0 0
          0 0 0 0 0 0
          0 0 0 0 0 0
          0 0 0 0 0 0
          0 0 0 0 0 0
          0 0 0 0 0 0
          0 0 0 0 0 0
          0 0 0 0 0 0
          0 0 0 0 0 0
          0 0 0 0 0 0
          0 0 0 0 0 0
          0 0 0 0 0 0
          0 0 0 0 0 0
          0 0 0 0 0 0
          0 0 0 0 0 0
          0 0 0 0 0 0
          0 0 0 0 0 0
          0 0 0 0 0 0
          0 0 0 0 0 0
          0 0 0 0 0 0
          0 0 0 0 0 0
          0 0 0 0 0 0
          0 0 0 0 0 0
          0 0 0 0 0 0
          0 0 0 0 0 0
          0 0 0 0 0 0
        </DataArray>
        <DataArray type="Float64" Name="gradient_error" format="ascii" RangeMin="3.5299151157974635e-11" RangeMax="3.8861923531012685e-7">
          2.8866719701765827e-8 2.1040347634323056e-10 7.895448251869313e-8 3.64809204998202e-8 3.27548049310622e-8 4.624340613842643e-8
          3.2412083897062554e-8 2.3914122547791296e-8 3.671079380580361e-8 6.821365809521708e-9 1.4956275160979677e-8 1.5509592255789948e-8
          2.3444007824183334e-8 6.732830776150581e-9 7.827215102372306e-8 3.4190910064693984e-8 4.249909117297331e-8 2.5013031213331346e-10
          6.82903944640405e-11 3.062477738861566e-9 1.0138328490112984e-9 8.553683917690821e-10 1.718263146002334e-9 1.3661849721633618e-9
          4.108782421448585e-10 1.904951071052915e-9 1.8550590828249633e-9 7.731689346613603e-10 8.168271381258975e-10 2.530897532325669e-10
          2.2673683694024515e-9 1.6002925236970338e-8 9.65618598707631e-9 4.3690985294617e-9 5.298786243356845e-9 2.97143983394743e-9
          2.1313644945743166e-9 3.5321774301166846e-9 8.336164335322141e-9 1.5284250218481058e-8 9.389494932057682e-9 2.725388418553876e-8
          3.19233797531159e-9 5.379190069517685e-9 3.1101263031895406e-9 8.429706194402256e-9 4.54537738410877e-9 4.28507926049954e-10
          2.8883293436872056e-9 2.1261458459171687e-10 1.054393765647159e-10 1.1419305896200585e-10 2.232061419324446e-8 1.853664623276602e-9
          8.369680218221898e-9 8.652587591054812e-10 5.127129080387163e-9 4.753478658170065e-10 1.4954872726362684e-8 1.6524216003702879e-9
          8.687947562378858e-9 4.4965956575889075e-10 2.2854723250972504e-10 2.258508120365794e-10 1.0918107038450058e-10 8.989560683861515e-10
          4.676023137373513e-10 4.243539021762048e-10 2.0061916822561584e-9 5.583257536922625e-10 1.6863034472820557e-9 2.4930475366168013e-10
          1.301746739284111e-10 3.9153295338179926e-10 3.0949758604344937e-9 5.109181291797745e-10 2.1093271142410133e-9 7.881856950536955e-10
          4.613025312523084e-9 4.269071930711339e-10 3.045733657494563e-9 2.2500561108575212e-10 1.2731243131516722e-10 3.6024211785557497e-10
          2.1740109766302155e-10 1.9771433633530878e-10 1.163494430429122e-10 3.7920281973875516e-10 8.666768991796976e-11 1.4594890945251268e-10
          1.014788773362304e-10 1.0069750260488865e-7 9.059581673999214e-8 6.69043016114394e-8 4.440782648219569e-8 2.5128881029455225e-8
          1.2424884636127294e-8 7.284400514241876e-9 5.6420289653683557e-8 5.0788962476614594e-8 1.0082046998003172e-8 9.197577337625058e-9
          3.726427287901292e-8 5.699331956749717e-9 8.373129199106627e-8 7.769561189546473e-8 1.5395060782853564e-8 5.7334360861912297e-8
          7.510374102353144e-9 6.538871899160686e-9 4.7407044321990444e-9 3.934327045757783e-9 3.64556303151304e-9 2.0534059516999048e-9
          1.2691526548040223e-8 1.1581536637682195e-8 6.508955124362267e-9 2.443576480239893e-8 2.9342187886688575e-9 1.3771318899070278e-8
          1.4438531082784305e-9 3.500916599374056e-8 4.828662122260438e-9 1.679584483297957e-9 7.501010872946672e-10 2.9063272199130723e-9
          2.3910582458719792e-8 2.401692133332316e-8 1.4905050476336478e-8 1.9215340415133692e-8 1.8351922377515533e-8 1.0500715051145088e-8
          6.827478871610286e-9 6.881086660949285e-10 4.527193409341087e-9 1.2304220934017523e-9 3.3116210592833264e-10 5.751745952803233e-10
          1.7298713090703886e-9 2.3718045287299975e-9 1.7216094888424772e-9 1.182948365044252e-9 1.6201314341518216e-9 6.360254210181157e-10
          8.684583395736461e-10 8.680792780632959e-10 1.1808818536329445e-9 6.401542184234116e-10 1.260051077417101e-9 1.5853517859561229e-9
          1.2368314907217922e-9 2.487884784746384e-9 9.984176972929868e-10 1.2565639107194026e-9 5.377663016155942e-10 6.852324167980394e-10
          7.772077385188256e-10 9.48937644627461e-10 4.950676073855172e-10 1.9548738432341327e-9 1.0549312118395496e-9 1.4433181719991635e-9
          2.686857859595622e-10 3.39269721135713e-10 1.9862328585680837e-10 2.3585064415802945e-10 2.1740173571458339e-10 2.651140785642199e-10
          2.0113674089053522e-10 5.194018298192656e-10 3.922344024842206e-10 3.6697718139561925e-9 2.863930429381014e-9 2.882835827243924e-9
          1.5555339976425248e-9 2.1131528097003065e-9 1.0332170727838046e-9 7.643713809072141e-10 5.54973283917076e-10 6.299457441207257e-10
          6.042894162882358e-10 4.98815937622872e-10 3.2990877575943367e-10 3.8691600317069776e-10 3.0022229248862446e-10 1.504047108689443e-10
          2.2543749806718634e-10 1.5658641726578127e-10 1.675607468053751e-10 1.0950208759120124e-10 7.580089349856336e-11 7.88186251286463e-11
          3.1605240256048868e-9 2.802702025563805e-9 2.170599901894452e-9 3.890269132639952e-9 1.6778276312884157e-9 1.2798571917205552e-9
          2.402945442443983e-9 9.539135061061033e-10 6.909385150819051e-10 1.392584563034708e-9 1.0454027914486362e-9 8.820501734612777e-10
          6.129050099731605e-10 1.2317563608300288e-9 8.279646996136255e-10 6.421667886823619e-10 1.1330817442159118e-9 6.895926932564047e-10
          4.6457762620540526e-10 5.287488355048453e-10 3.4719766446126325e-10 9.472568043718844e-10 6.453855002294838e-10 7.153603894921321e-10
          2.5121149566484355e-9 1.976362613320401e-9 3.414658417741619e-9 2.185057954239967e-9 1.6265894441900212e-9 1.6865817127806393e-9
          1.2054399168938367e-9 2.9910794763497183e-9 2.2630657787354414e-9 2.2794603065057763e-9 1.5178876308948806e-9 1.1412935886584607e-9
          2.011660358703632e-9 1.278200292992723e-9 8.850051754574801e-10 9.51292344556256e-10 6.423926435279114e-10 1.703360793228079e-9
          1.195436842425855e-9 1.249534904780488e-9 4.349391903743033e-10 3.1118060450604895e-10 6.222640522271269e-10 2.2180624424351526e-10
          1.5626314071623193e-10 3.2283371266422477e-10 3.2115371474531494e-10 2.2521132158435298e-10 2.3489749116599097e-10 1.6158081478003813e-10
          4.5176108319256045e-10 3.197680698667494e-10 3.2533331973388515e-10 1.5840445383685924e-10 1.1056436233637344e-10 1.1221941802666602e-10
          7.7225020842759e-11 2.2617906050492897e-10 1.5856800111768715e-10 1.5742262899931204e-10 1.220790941464169e-9 9.105912701490903e-10
          8.779773804452332e-10 6.407467722192509e-10 1.7226328431113947e-9 1.2984167266974639e-9 1.2195074113268816e-9 6.683608930089873e-10
          4.797007584538292e-10 4.632568568093709e-10 3.294533293667238e-10 9.600076537471552e-10 6.92243852337522e-10 6.545425303480434e-10
          6.270534277514976e-10 4.48112893105284e-10 4.4477931839095867e-10 3.117977793035112e-10 8.57552380200371e-10 6.188700295407586e-10
          5.994737787368433e-10 3.192244191774224e-10 2.248892949197224e-10 2.1891500153240452e-10 1.5270176074373286e-10 4.439871391618237e-10
          3.1423512321280126e-10 3.0010530865958546e-10 3.527793437508672e-10 2.900793416928843e-10 1.8672859303515018e-10 2.4730131650148763e-10
          1.2351606494114158e-10 8.362503295355688e-11 1.0462493020153676e-10 5.5893006796276095e-11 4.170222368209041e-11 4.6426364391473774e-11
          4.751163174401971e-10 4.0269257813147696e-10 6.368348473495894e-10 3.9327227278490594e-10 2.5583232896699966e-10 3.3537983740718096e-10
          2.1606000968336055e-10 5.271793063021333e-10 3.4583494833972765e-10 4.19664588711333e-10 8.394620923938208e-10 6.150767855809341e-10
          1.0822711212140934e-9 6.959948628629385e-10 4.618577850371131e-10 5.061604157240016e-10 3.28489512854362e-10 9.018370958471196e-10
          6.066523884374987e-10 6.534010057580029e-10 3.715960963186463e-10 4.311178641149023e-10 3.6533058751889524e-10 5.56322559671016e-10
          3.1339661039359856e-10 3.591986573363266e-10 2.0399330545956436e-10 2.3348492344507335e-10 2.682164195303124e-10 3.0386408160800473e-10
          1.9465342939691567e-10 4.601052183100097e-10 2.999211318171299e-10 3.8659868767812294e-10 1.6940715573433688e-10 1.1546216627805129e-10
          1.4104858207510807e-10 9.641882951589395e-11 2.3136441077057477e-10 1.5841367406619426e-10 1.7810454011800302e-10 7.843279158864842e-11
          5.3287475466242977e-11 6.425837258512516e-11 4.369151195158132e-11 1.0877132623445057e-10 7.4679777092502e-11 8.202558680866111e-11
          3.1323306810543865e-10 2.1599196247399657e-10 2.186313244016052e-10 1.488957411112398e-10 4.1663084245307546e-10 2.9001610997935035e-10
          2.884743776606644e-10 1.4989969615433662e-10 1.0313941484461678e-10 1.0174274279273389e-10 7.73295175246111e-11 2.0293108761940363e-10
          1.4070948534557246e-10 1.3687139424031942e-10 1.3268514393743084e-10 1.53300884320497e-10 9.09066040033043e-11 1.0450366927536741e-10
          1.1336767560991315e-10 1.2763391147889375e-10 8.776887773526539e-11 1.992484141720361e-10 1.3602983268706015e-10 1.6261832286925216e-10
          5.999062836219353e-11 7.001825126571436e-11 5.074885014206216e-11 5.7940536289291893e-11 5.116773587436945e-11 5.853618065076291e-11
          4.989314569206549e-11 9.312470615780634e-11 6.93967647643823e-11 7.654532604223986e-11 6.937478281026676e-11 1.1728151254441199e-8
          1.1405778869549621e-8 1.1159571985088549e-8 9.980682488969551e-9 1.0406961338337e-8 5.832713057572447e-9 9.711306669000434e-9
          5.2618161483065375e-9 4.227313424634522e-9 8.943868356408323e-9 7.551343403197043e-9 6.949295066875775e-9 1.5117628868366922e-8
          1.4683815684213554e-8 1.3946109947989633e-8 1.8328901468385152e-8 1.4306555367031677e-8 1.4114577768102526e-8 1.2861514010064178e-8
          1.2869132838468971e-8 1.3365350884525243e-8 1.2054049694268336e-8 1.7794718876529636e-8 1.764720306313167e-8 1.6180922222264505e-8
          1.6864930272770692e-8 1.2466812931885248e-8 9.745392217304878e-9 1.5728673416653826e-8 1.1585892949762933e-8 9.962759007577076e-9
          8.973188651317861e-9 7.505440233184408e-9 1.4704545703752166e-8 1.2815673692020886e-8 1.1362712898058974e-8 8.849515727921067e-9
          8.705870510669729e-9 7.336177006602619e-9 7.893686013528867e-9 6.112704185136721e-9 5.924770333842057e-9 4.560069916607593e-9
          5.192163271221652e-9 3.3685290561106337e-9 2.62933628289741e-9 6.315397068620761e-9 5.1161060908176864e-9 4.614155004253716e-9
          1.9921159996362874e-9 1.4584803308916028e-9 3.986317037826329e-9 2.975450034083909e-9 2.7871075909120056e-9 1.149406634702261e-8
          1.1418787972964255e-8 9.932681055832724e-9 9.783875930239336e-9 1.0511504115365164e-8 8.834861621402011e-9 1.444750738576553e-8
          1.4514696045699349e-8 1.2626686635458295e-8 1.3595305038575616e-8 8.22524424689314e-9 8.026518782201337e-9 7.107599302122063e-9
          1.0701737237993862e-8 1.0526763624443064e-8 9.440124416662571e-9 8.461797787757232e-9 6.946051293031177e-9 6.168713083230919e-9
          4.933171942681735e-9 1.1033691929205184e-8 9.171311218744435e-9 8.044117594342151e-9 5.472677975386093e-9 3.807491240591758e-9
          7.307538690025684e-9 5.072899083536838e-9 4.526152808650942e-9 3.4922812438150025e-9 5.84827188831602e-9 4.001465903262431e-9
          3.0868288662263767e-9 3.017985303715853e-9 2.223734183196729e-9 5.227375041395789e-9 4.121970741275163e-9 3.897210059351478e-9
          2.6154617707401176e-9 1.9165517413781092e-9 3.306485554492279e-9 2.22820215040941e-9 1.5872071264590464e-9 1.615089418044742e-9
          1.1207030530965903e-9 2.844485726290549e-9 2.068839476564194e-9 2.0477157340380354e-9 7.397389270349385e-9 5.5796284311020175e-9
          9.209733608441928e-9 6.687306128458473e-9 5.389715375447229e-9 4.929081211561128e-9 3.798741595488856e-9 8.406015928937522e-9
          6.9020690403888355e-9 6.141320164671694e-9 4.08210112296445e-9 2.980515662907757e-9 4.973086572370414e-9 3.5552062110539224e-9
          2.6495675988462485e-9 2.5487922012945833e-9 1.830153609628425e-9 4.3807228558294725e-9 3.3381746204077436e-9 2.3848439101110735e-9
          1.8172964909989815e-9 1.664714989844213e-9 1.2399878896102562e-9 3.2346781307271314e-9 2.492678167648073e-9 2.230906458415626e-9
          1.3538805193398198e-9 9.81029568603907e-10 9.093215022495658e-10 6.525823705853873e-10 1.8717700404752825e-9 1.3633799960169352e-9
          1.240618707585275e-9 1.1539155254896553e-9 8.412246981262062e-10 7.95465683416671e-10 5.686422940737852e-10 1.5265876651076229e-9
          1.1244959694649515e-9 1.038958913978346e-9 6.0776718538519e-10 4.3210789570715267e-10 4.0505810176192646e-10 2.8536551930425287e-10
          8.180912126073864e-10 5.380023699618072e-10 4.294208359530787e-9 3.3462431785776025e-9 2.9331626414714646e-9 2.2317380908407314e-9
          5.575411721845997e-9 4.3918367204698885e-9 3.781530810659103e-9 2.5332804693598916e-9 1.6604304399529832e-9 1.9851232069397286e-9
          1.4772393605724032e-9 1.3357730762440722e-9 9.73802511898277e-10 2.536764039921881e-9 1.905901952350864e-9 1.0819809537376157e-9
          7.029653288228424e-10 2.30885412337534e-8 2.2561395051051704e-8 2.1680650069780356e-8 2.1858662651608883e-8 2.183250999878248e-8
          1.9743135857037273e-8 2.0136364285462312e-8 2.1018274063721976e-8 1.933492877554599e-8 2.4702403276247618e-8 1.9550146847759867e-8
          1.5138010551495177e-8 1.8330054154884193e-8 1.610916932470602e-8 1.4114744078469874e-8 1.2132213423542325e-8 1.9922116899962334e-8
          1.78345375563397e-8 1.8079326612206957e-8 1.573423318795088e-8 1.5817956872830787e-8 1.7161476916800983e-8 1.4749981250713038e-8
          2.185551666365422e-8 2.232322234681415e-8 1.9463966112306474e-8 2.134070449851437e-8 1.4019360378860146e-8 1.178141825251249e-8
          1.0233049447971017e-8 8.371678175168695e-9 1.7423378876657115e-8 1.4746201096995973e-8 1.2708625794633374e-8 1.12955489781184e-8
          8.386983057969241e-9 1.0384185745013566e-8 8.652139141618335e-9 7.541443514735986e-9 6.0250433687921e-9 5.995296456371651e-9
          5.331692095323164e-9 4.138867652300078e-9 7.075955772004468e-9 5.631718823977111e-9 4.777697692023575e-9 3.7065807752338763e-9
          3.184341715760293e-9 2.413249908412044e-9 1.3678544000267053e-9 9.928798846996213e-10 1.7073763036298253e-9 1.1482357243221464e-9
          7.850068995074666e-10 8.213910089234012e-10 5.458165079659719e-10 1.44228965044286e-9 1.0005550272968952e-9 1.022699690942902e-9
          6.848326097276315e-10 5.794119145157336e-10 8.391060984821723e-10 5.716265869875862e-10 3.789629925055947e-10 4.800138406463728e-10
          3.098296425107944e-10 7.038483366783893e-10 4.722188512668599e-10 5.893355439689179e-10 2.100496813324229e-9 1.5108967611266401e-9
          1.785862247557699e-9 1.2572800295838745e-9 1.2614045470983201e-9 8.575684135828923e-10 1.0245487816141163e-9 8.676142994731971e-10
          8.618075823936533e-10 5.825358649927315e-10 7.191154160324674e-10 4.685603274622534e-10 5.456331487916769e-10 3.833603251892216e-10
          3.7287448334964114e-10 2.578681795632086e-10 7.039025899368265e-10 4.99057722631224e-10 4.751706376900054e-10 2.6973472283970737e-10
          1.8840389284417903e-10 1.794254180768861e-10 1.2350957256460736e-10 3.531036383876445e-10 2.313605878561114e-10 2.5379495642649396e-10
          1.7435596319901873e-10 2.052367755681564e-10 1.414671171920604e-10 3.191780444246214e-10 2.2024455753834943e-10 2.5595823531919743e-10
          1.2004904991970924e-10 8.197529799663155e-11 9.696688527217572e-11 6.687302911908267e-11 1.5167165690006394e-10 1.202385998671024e-10
          8.951352966580995e-10 6.403024144455884e-10 5.978399474995304e-10 4.1979808968616396e-10 4.5586390440868347e-10 2.950311854024503e-10
          3.966970912035626e-10 2.75231829525671e-10 3.1544735546242073e-10 2.1846244393300088e-10 1.902822984020043e-10 1.4892952631391718e-10
          8.408314762788677e-11 6.352672026979198e-11 4.599669177402095e-11 5.3922949144736305e-11 3.726746645551142e-11 4.3365967826929815e-11
          3.7437175786497744e-11 4.330782017208666e-11 3.5299151157974635e-11 9.560075555452381e-8 1.1824962321238479e-8 7.529980338712652e-9
          1.979017781916483e-8 1.504609282437347e-7 2.328761972133399e-8 6.56350852447966e-8 1.3284232977227776e-9 1.1281735479220058e-9
          2.9689972529842136e-9 1.8446361359250307e-9 2.6005256119660367e-9 6.145563336222079e-9 2.039341898749781e-7 6.827824772647912e-8
          4.718629574631306e-8 1.3177806350155142e-7 2.9173763180436602e-9 4.205211334334311e-9 8.432200171972747e-9 1.0690337060669277e-7
          2.9534722783987674e-7 2.096167498576033e-7 1.154753356592199e-7 1.0300736034680692e-7 5.329755037199656e-10 1.1356953553627392e-9
          2.0138012513779027e-10 3.29249154281405e-10 2.1212243498266863e-10 3.7086451640664467e-10 9.69832181089582e-10 3.8861923531012685e-7
          2.5159734107362087e-7 1.5670616921722917e-7 2.0281195614756294e-7 1.2971752062014477e-7 7.103279864752652e-8 7.167023803434991e-8
          1.0401926940874089e-7 2.3130734122398906e-8 3.8642766757648914e-9 4.932387388890351e-9 7.283356684588118e-9 1.2516266839292436e-9
          1.2861140046321827e-9 1.6919921939377926e-9 1.1847285014015002e-9 1.0158171501455638e-8 6.921603606403405e-9 4.975730604354088e-9
          2.420604017217465e-9 1.5181371730462876e-10 3.0489557868664915e-7 1.5030809676269692e-7 2.2814257695524633e-7 2.13244816914789e-7
          6.924874934433241e-8 1.9428045161023737e-8 1.0605243552780888e-7 6.517546894613353e-8 8.808409730907634e-8 1.5103678137212559e-7
          8.636036401997883e-8 1.575859543412889e-7 4.9595450534351204e-8 9.45200388874232e-8 2.6354871746645946e-8 5.6590849430732766e-8
          1.0109212380701406e-8 1.8378929475543556e-8 6.555688697555214e-9 2.9237318028475273e-10 4.022125457836575e-9 5.059035832855686e-9
          1.7828298301106737e-9 2.1955801422175726e-9 2.907218087001931e-9 2.686251561114645e-10 3.708073706629816e-10 2.8795053986238186e-10
          8.218769444475351e-10 1.050526596045315e-9 3.845598722261911e-10 5.073952777427837e-10 7.243604714938175e-10 1.3284909957365843e-10
          1.4496707995301486e-10 1.702775617795804e-10 6.4798941431145686e-9 6.2650403696848875e-9 5.446159532554048e-9 8.57415545681858e-9
          8.340601209545322e-9 7.320091661598072e-9 4.121127583815315e-9 2.8248782958327358e-9 5.555743429891225e-9 3.7924778707168115e-9
          3.1238083964874467e-9 2.285021501267889e-9 8.944596634407034e-10 5.842266794802018e-10 3.8074749504016837e-10 1.8556041421186812e-9
          1.2027885689702602e-9 3.3525440242812803e-9 2.4704881199100686e-9 2.1778509049202243e-9 1.5852404867704432e-9 1.6906051144944688e-9
          1.2436955542856327e-9 7.760059312977576e-10 4.99526554568138e-10 1.4049246737413086e-9 1.0117977194343534e-9 9.031541424322602e-10
          6.4419637538151e-10 2.520045517228618e-8 2.5971298821871626e-8 2.6954758981355605e-8 2.5774774173979824e-8 2.2413966781417603e-8
          2.371155321682333e-8 1.7150300377842314e-8 2.7491327750532382e-8 2.736808996651973e-8 2.9008579005129612e-8 2.956726520756152e-8
          2.9160143330108612e-8 3.078641420886557e-8 2.429387406025086e-8 2.6980637923838813e-8 1.7967610324133655e-8 2.0502685701225206e-8
          1.3464658418201592e-8 1.3368328560513086e-8 1.0984899916441996e-8 1.076048654142475e-8 1.216768173245543e-8 9.550742614255667e-9
          1.646246058623029e-8 1.6495517827368607e-8 1.5241045942317793e-8 9.488723002200692e-9 7.285252024032817e-9 6.587636653695407e-9
          4.964439646432245e-9 1.1987595335242645e-8 8.337909808818046e-9 2.605987667277632e-8 2.700009944552373e-8 2.3273909373267175e-8
          2.3714108994702336e-8 2.617323747880566e-8 2.247664537867071e-8 1.9813942888799003e-8 1.9980630762310746e-8 1.864302696063273e-8
          2.129332447031834e-8 1.804985711010326e-8 1.5438675990372047e-8 1.2855388524921362e-8 1.4753444322241213e-8 1.0290601123473423e-8
          1.2575947382094361e-8 1.3591726949311442e-8 1.0615193250604539e-8 9.111150901187484e-9 7.377013298423573e-9 3.779066000855468e-9
          4.346159989646511e-9 2.8121651638989065e-9 6.4067813433666845e-9 7.148187231738931e-9 5.048370283313819e-9 4.5217230861234705e-9
          3.411488403010401e-9 1.2751096367576413e-8 1.4969637461055562e-8 8.778279048502163e-9 7.05438957512868e-9 5.912538356376511e-9