<?xml version="1.0"?>
<VTKFile type="UnstructuredGrid" version="0.1" byte_order="LittleEndian" header_type="UInt32" compressor="vtkZLibDataCompressor">
  <UnstructuredGrid>
    <Piece NumberOfPoints="839" NumberOfCells="566">
      <PointData>
        <DataArray type="Int32" Name="libmesh_node_id" format="ascii" RangeMin="228" RangeMax="8719">
          228 506 512 528 534 535
          1239 1265 1266 1267 1268 1270
          1271 1272 1273 1309 1310 1311
          1313 1314 1315 1316 1317 1318
          1319 1320 1321 1322 1324 1326
          1330 1331 1498 1499 1500 1501
          1506 1508 1509 1511 2309 2323
          2474 2475 2477 2480 2482 2483
          2484 2485 2486 2487 2488 2489
          2490 2491 2493 2497 2499 2500
          2501 2502 2503 2504 2505 2508
          2509 2511 2514 2516 2517 2518
          2519 2520 2521 2522 2523 2524
          2525 2527 2531 2533 2534 2535
          2536 2537 2538 2539 2607 2608
          2627 2628 2631 2632 2688 2689
          2690 2691 2696 2697 2699 2700
          2701 2702 2703 2704 2705 2706
          2707 2708 2709 2710 2711 2712
          2713 2714 2715 2716 2717 2718
          2719 2720 2721 2722 2723 2724
          2725 2726 2727 2728 2729 2730
          2731 2732 2733 2734 2735 2736
          2737 2738 2739 2740 2741 2742
          2743 2744 2745 2746 2747 2748
          2749 2750 2751 2752 2753 2754
          2755 2756 2764 2765 2767 2768
          2771 2772 3080 3083 3085 3087
          3088 3089 3090 3091 3092 3093
          3094 3095 3096 6123 6137 6235
          7129 7130 7132 7135 7145 7147
          7149 7163 7164 7166 7169 7179
          7181 7183 7185 7186 7187 7188
          7189 7190 7191 7192 7193 7194
          7195 7196 7197 7198 7199 7200
          7201 7202 7203 7204 7205 7206
          7207 7208 7209 7210 7211 7212
          7213 7214 7215 7216 7217 7218
          7219 7220 7221 7222 7223 7224
          7225 7226 7227 7228 7229 7230
          7231 7232 7233 7234 7235 7236
          7237 7238 7239 7240 7241 7242
          7243 7244 7245 7246 7247 7248
          7249 7250 7251 7252 7261 7263
          7265 7289 7291 7293 7309 7310
          7311 7312 7313 7314 7315 7316
          7317 7318 7319 7320 7321 7322
          7327 7328 7329 7334 7335 7336
          7337 7338 7339 7340 7341 7342
          7343 7344 7345 7346 7347 7348
          7349 7350 7351 7352 7353 7354
          7355 7356 7357 7358 7359 7360
          7361 7362 7363 7364 7377 7378
          7380 7383 7393 7395 7397 7411
          7412 7414 7417 7427 7429 7431
          7433 7434 7435 7436 7437 7438
          7439 7440 7441 7442 7443 7444
          7445 7446 7447 7448 7449 7450
          7451 7452 7453 7454 7455 7456
          7457 7458 7459 7460 7461 7462
          7463 7464 7465 7466 7467 7468
          7469 7470 7471 7472 7473 7474
          7475 7476 7477 7478 7479 7480
          7481 7482 7483 7484 7485 7486
          7487 7488 7489 7490 7491 7492
          7493 7494 7495 7496 7497 7498
          7499 7500 7509 7511 7513 7537
          7539 7541 7557 7558 7559 7560
          7561 7562 7563 7564 7565 7566
          7567 7568 7569 7570 7571 7572
          7573 7574 7575 7576 7577 7578
          7579 7580 7581 7582 7583 7584
          7585 7586 7587 7588 7589 7590
          7591 7592 7593 7594 7595 7596
          7597 7598 7599 7600 7601 7602
          7603 7604 7605 7606 7607 7608
          7609 7610 7611 7612 7982 7983
          7984 7989 7990 7991 8065 8066
          8067 8068 8069 8070 8071 8072
          8073 8074 8075 8076 8077 8078
          8086 8087 8088 8089 8090 8091
          8092 8093 8094 8095 8096 8097
          8098 8099 8297 8298 8299 8300
          8307 8308 8309 8310 8315 8316
          8317 8322 8323 8324 8353 8354
          8355 8360 8361 8362 8370 8371
          8372 8373 8374 8375 8376 8377
          8378 8379 8380 8381 8382 8383
          8384 8385 8386 8387 8388 8389
          8390 8391 8392 8393 8394 8395
          8396 8397 8398 8399 8400 8401
          8402 8403 8404 8405 8406 8407
          8408 8409 8410 8411 8412 8413
          8414 8415 8416 8417 8418 8419
          8420 8421 8422 8423 8424 8425
          8426 8427 8428 8429 8430 8431
          8432 8433 8434 8435 8436 8437
          8438 8439 8440 8441 8442 8443
          8444 8445 8446 8447 8448 8449
          8450 8451 8452 8453 8454 8455
          8456 8457 8458 8459 8460 8461
          8462 8463 8464 8465 8466 8467
          8468 8469 8470 8471 8472 8473
          8474 8475 8476 8477 8478 8479
          8480 8481 8482 8483 8484 8485
          8490 8491 8492 8500 8501 8502
          8503 8504 8505 8506 8507 8508
          8509 8510 8511 8512 8513 8514
          8515 8516 8517 8518 8519 8520
          8521 8522 8523 8524 8525 8526
          8527 8528 8529 8530 8531 8532
          8533 8534 8535 8536 8537 8538
          8539 8540 8541 8542 8543 8544
          8545 8546 8547 8548 8549 8550
          8551 8552 8553 8554 8555 8556
          8557 8558 8559 8560 8561 8562
          8563 8564 8565 8566 8567 8568
          8569 8570 8571 8572 8573 8574
          8575 8576 8577 8578 8579 8580
          8581 8582 8583 8584 8585 8586
          8587 8588 8589 8590 8591 8592
          8593 8594 8595 8596 8597 8598
          8599 8600 8601 8602 8603 8604
          8605 8606 8607 8608 8609 8610
          8611 8612 8613 8614 8615 8616
          8617 8618 8619 8620 8621 8622
          8623 8624 8625 8626 8627 8628
          8629 8630 8631 8632 8633 8634
          8635 8636 8637 8638 8639 8640
          8641 8642 8643 8644 8645 8646
          8647 8648 8649 8650 8651 8652
          8653 8654 8655 8656 8657 8658
          8659 8660 8661 8662 8663 8664
          8665 8666 8667 8668 8669 8670
          8671 8672 8673 8674 8675 8676
          8677 8678 8679 8680 8681 8682
          8683 8684 8685 8686 8687 8688
          8703 8704 8705 8706 8707 8708
          8709 8710 8711 8712 8713 8714
          8715 8716 8717 8718 8719
        </DataArray>
        <DataArray type="Float64" Name="bounds" format="ascii" RangeMin="0" RangeMax="0">
          0 0 0 0 0 0
          0 0 0 0 0 0
          0 0 0 0 0 0
          0 0 0 0 0 0
          0 0 0 0 0 0
          0 0 0 0 0 0
          0 0 0 0 0 0
          0 0 0 0 0 0
          0 0 0 0 0 0
          0 0 0 0 0 0
          0 0 0 0 0 0
          0 0 0 0 0 0
          0 0 0 0 0 0
          0 0 0 0 0 0
          0 0 0 0 0 0
          0 0 0 0 0 0
          0 0 0 0 0 0
          0 0 0 0 0 0
          0 0 0 0 0 0
          0 0 0 0 0 0
          0 0 0 0 0 0
          0 0 0 0 0 0
          0 0 0 0 0 0
          0 0 0 0 0 0
          0 0 0 0 0 0
          0 0 0 0 0 0
          0 0 0 0 0 0
          0 0 0 0 0 0
          0 0 0 0 0 0
          0 0 0 0 0 0
          0 0 0 0 0 0
          0 0 0 0 0 0
          0 0 0 0 0 0
          0 0 0 0 0 0
          0 0 0 0 0 0
          0 0 0 0 0 0
          0 0 0 0 0 0
          0 0 0 0 0 0
          0 0 0 0 0 0
          0 0 0 0 0 0
          0 0 0 0 0 0
          0 0 0 0 0 0
          0 0 0 0 0 0
          0 0 0 0 0 0
          0 0 0 0 0 0
          0 0 0 0 0 0
          0 0 0 0 0 0
          0 0 0 0 0 0
          0 0 0 0 0 0
          0 0 0 0 0 0
          0 0 0 0 0 0
          0 0 0 0 0 0
          0 0 0 0 0 0
          0 0 0 0 0 0
          0 0 0 0 0 0
          0 0 0 0 0 0
          0 0 0 0 0 0
          0 0 0 0 0 0
          0 0 0 0 0 0
          0 0 0 0 0 0
          0 0 0 0 0 0
          0 0 0 0 0 0
          0 0 0 0 0 0
          0 0 0 0 0 0
          0 0 0 0 0 0
          0 0 0 0 0 0
          0 0 0 0 0 0
          0 0 0 0 0 0
          0 0 0 0 0 0
          0 0 0 0 0 0
          0 0 0 0 0 0
          0 0 0 0 0 0
          0 0 0 0 0 0
          0 0 0 0 0 0
          0 0 0 0 0 0
          0 0 0 0 0 0
          0 0 0 0 0 0
          0 0 0 0 0 0
          0 0 0 0 0 0
          0 0 0 0 0 0
          0 0 0 0 0 0
          0 0 0 0 0 0
          0 0 0 0 0 0
          0 0 0 0 0 0
          0 0 0 0 0 0
          0 0 0 0 0 0
          0 0 0 0 0 0
          0 0 0 0 0 0
          0 0 0 0 0 0
          0 0 0 0 0 0
          0 0 0 0 0 0
          0 0 0 0 0 0
          0 0 0 0 0 0
          0 0 0 0 0 0
          0 0 0 0 0 0
          0 0 0 0 0 0
          0 0 0 0 0 0
          0 0 0 0 0 0
          0 0 0 0 0 0
          0 0 0 0 0 0
          0 0 0 0 0 0
          0 0 0 0 0 0
          0 0 0 0 0 0
          0 0 0 0 0 0
          0 0 0 0 0 0
          0 0 0 0 0 0
          0 0 0 0 0 0
          0 0 0 0 0 0
          0 0 0 0 0 0
          0 0 0 0 0 0
          0 0 0 0 0 0
          0 0 0 0 0 0
          0 0 0 0 0 0
          0 0 0 0 0 0
          0 0 0 0 0 0
          0 0 0 0 0 0
          0 0 0 0 0 0
          0 0 0 0 0 0
          0 0 0 0 0 0
          0 0 0 0 0 0
          0 0 0 0 0 0
          0 0 0 0 0 0
          0 0 0 0 0 0
          0 0 0 0 0 0
          0 0 0 0 0 0
          0 0 0 0 0 0
          0 0 0 0 0 0
          0 0 0 0 0 0
          0 0 0 0 0 0
          0 0 0 0 0 0
          0 0 0 0 0 0
          0 0 0 0 0 0
          0 0 0 0 0 0
          0 0 0 0 0 0
          0 0 0 0 0 0
          0 0 0 0 0 0
          0 0 0 0 0 0
          0 0 0 0 0 0
          0 0 0 0 0 0
          0 0 0 0 0
        </DataArray>
        <DataArray type="Float64" Name="gradient_error" format="ascii" RangeMin="9.994782079652446e-12" RangeMax="1.154261731469772e-8">
          1.2093641891337106e-9 5.311318879881381e-10 8.407457518975682e-11 3.37252030300945e-11 4.7995545991103314e-11 7.545765293616488e-11
          2.2564043758262078e-10 9.58507043239556e-9 3.72543575750233e-9 9.8373338526468e-10 4.0191277500129083e-10 7.089371512843798e-11
          1.154261731469772e-8 4.532466777311259e-9 4.881849709240507e-10 4.4271622123642976e-11 3.9706749387521194e-11 2.765808662994379e-11
          5.273468377911562e-11 4.156272557628697e-11 4.2988364434455146e-11 3.471744433050311e-11 5.021821996285605e-11 4.9296566694292595e-11
          6.378526549148543e-11 4.939390255293591e-11 3.8403426971193815e-11 5.641261553141228e-11 9.434879467856723e-11 8.389261084981334e-11
          1.0096902676608661e-10 9.106596154483736e-11 2.8190487805529737e-11 2.424544228267784e-11 3.5210619518253045e-11 3.028677090365106e-11
          2.5362922289049086e-11 3.820045936660207e-11 3.287928181622789e-11 2.7558104265853707e-11 4.2038158708224105e-10 1.0224036735606234e-10
          7.555885931267199e-9 6.076777599610766e-9 2.9130467698274045e-9 7.777354618096198e-9 2.6887432780318582e-9 2.1023934975972423e-9
          7.604292645148711e-10 5.991951314139339e-10 1.031021918594964e-9 3.156300913232576e-10 3.4730588033579286e-9 2.719095232302283e-9
          7.729608623424482e-10 1.3204756403910835e-9 1.1206698446574397e-9 1.414014145994549e-9 4.1861125681277083e-10 1.3947384423163834e-10
          1.6246301201062574e-10 5.746651621359002e-11 5.269344041430048e-10 1.7463633696011025e-10 2.0109661711446814e-10 1.1023232297866614e-8
          9.000423430173544e-9 4.3160375614287715e-9 9.445806207620435e-9 4.046383951837472e-9 3.1718843343143785e-9 1.1484918199352947e-9
          9.010946631639932e-10 1.532410926744504e-9 4.649824323268435e-10 4.257043762999825e-9 3.3386963896529894e-9 9.484354067039013e-10
          1.610423675273346e-9 1.626469270078721e-9 1.70425170376316e-9 6.054128752548846e-10 1.9999643209445608e-10 2.2883014416582402e-10
          8.052642206921269e-11 6.341507746608731e-10 2.0925803191415578e-10 2.3894018923854584e-10 1.181593339488952e-10 9.140197118597424e-11
          1.0711454106268907e-10 7.389329738585016e-11 8.80106435888853e-11 4.924574561177331e-11 1.311842407255112e-10 1.0718629877059429e-10
          4.6714979835329645e-11 6.297168584927096e-11 3.8076646059212744e-11 3.0935314850182116e-11 1.8496232305488876e-10 1.503895401516885e-10
          4.148261579045788e-11 4.2647940894401344e-11 8.70918612591913e-11 4.20639488897101e-11 2.373409008509294e-10 1.9182981561106825e-10
          4.410148378147893e-11 1.0985145722223499e-10 3.4399724788947977e-11 4.074527573428931e-11 2.0269530123851845e-11 2.8745919960041445e-11
          2.3852018448781325e-11 2.8148877920338694e-11 2.6591377582013613e-11 3.8872999731090256e-11 3.789549971790253e-11 2.277681018379356e-11
          2.4206077475077058e-11 2.1862010720907888e-11 3.030873330136226e-11 3.353509592676159e-11 4.2187878081703636e-11 2.9492916694816505e-11
          2.8619590650211957e-11 2.944729805400532e-11 5.254187879139911e-11 3.6286648980095316e-11 3.480599851042964e-11 2.758325177856696e-10
          2.22383502667646e-10 6.083191796314625e-11 5.0761932389983584e-11 1.2640210354911103e-10 4.735267728942175e-11 2.9002151506912735e-10
          2.336367198957465e-10 5.318438624893305e-11 1.3246361731232478e-10 2.727367695834207e-11 2.455298783862637e-11 3.661045401196321e-11
          3.374089998907282e-11 3.757317960957378e-11 2.779408715831475e-11 2.8371664948949533e-11 2.5528262910510655e-11 3.501562599459247e-11
          3.903683923855882e-11 5.991049131769249e-11 4.0936606029048976e-11 3.905437648744988e-11 3.928215813725116e-11 6.257209576605161e-11
          4.253500704283035e-11 4.051932832478887e-11 4.785469529290747e-11 4.6375470876938933e-11 5.121084720037132e-11 5.069515969498696e-11
          5.1974022129805916e-11 5.207200175236973e-11 2.421432733093134e-11 3.067915611913171e-11 2.1905333545321487e-11 3.680055792353346e-11
          2.026818831434949e-11 2.5929455352807986e-11 4.110431637723521e-11 2.2176578202121492e-11 2.8715317224898812e-11 1.9636328053795926e-11
          4.261703666561767e-11 2.2920415141670277e-11 2.965945834788929e-11 5.00798773937358e-10 3.1881006855630623e-10 1.5365101612325728e-10
          6.454818930342996e-9 6.144640559185075e-9 5.1666711534704125e-9 7.2060750064015285e-9 3.768691232410866e-9 2.4818329912049765e-9
          4.434646771109403e-9 8.61826175795813e-9 8.233644405759616e-9 6.9633535163665495e-9 9.171685150579475e-9 5.086172210203664e-9
          3.335359760671308e-9 5.686963143031583e-9 3.957069587242391e-9 3.742075175711981e-9 2.275077205723694e-9 2.143736438025275e-9
          3.1149035483941144e-9 1.7784087507319902e-9 4.660863210259333e-9 4.412159584973061e-9 2.5345484322174077e-9 3.677106615994181e-9
          1.2378360403637794e-9 1.1652303820597076e-9 6.435656665733688e-10 6.065359091988995e-10 9.690772521724448e-10 5.081269343974359e-10
          1.4642267569852435e-9 1.378274412595859e-9 7.164196655200749e-10 1.1450540291047075e-9 2.269410928691484e-9 1.303785042330575e-9
          1.5064621837346638e-9 8.783155770879966e-10 2.6758503875223268e-9 1.5375924535170372e-9 1.7694937078001814e-9 7.193725825917375e-10
          3.837390419015345e-10 4.943775507270881e-10 2.6998141177262754e-10 8.472902293869965e-10 4.5090235472002605e-10 5.793635949335786e-10
          5.3481689247935e-9 5.067872743623642e-9 3.095772051607136e-9 2.919516400228531e-9 4.229180503933052e-9 2.422035405416031e-9
          5.980762202640227e-9 5.672502375929815e-9 3.2767266416306315e-9 4.739916132534981e-9 1.6878752375458027e-9 1.588829644289683e-9
          8.760173020549852e-10 8.250929153160362e-10 1.3189938924971267e-9 6.891678152971206e-10 1.8959819748777317e-9 1.7848441050104645e-9
          9.263666056455843e-10 1.4809724556901912e-9 3.0755867854503537e-9 1.768167469558814e-9 2.027886221087981e-9 1.1811991115739084e-9
          3.446026027089069e-9 1.9824408440272335e-9 2.2672164040763796e-9 9.734935014648957e-10 5.170717547572064e-10 6.629011365368468e-10
          3.6042628100066457e-10 1.0908631381310127e-9 5.785631647054897e-10 7.40361164928506e-10 1.5594257547590773e-9 9.640690000125124e-10
          1.8222902548189537e-9 2.079353265718709e-9 1.2733748284210542e-9 2.3165817948478084e-9 9.576515822702132e-10 5.679648534150943e-10
          5.988641902698526e-10 3.6079889460183555e-10 1.1189266678057339e-9 6.629163925166707e-10 6.957101007712087e-10 3.265015825638169e-10
          1.8258060007565543e-10 2.113466194715632e-10 1.2067902785372383e-10 3.8040883867637023e-10 2.1222068588542854e-10 2.447922015446807e-10
          4.2927650823137386e-10 2.617431488355097e-10 2.6369388913116816e-10 1.555010541530654e-10 9.023679534761556e-11 9.766324921754306e-11
          1.2768675287237012e-9 7.559109237366547e-10 7.901812298096558e-10 4.749957507752046e-10 1.4228390764635759e-9 8.418769704823399e-10
          8.772230667038036e-10 4.331660047763813e-10 2.4120955153838073e-10 2.773798594368961e-10 1.5779376453566359e-10 4.819045385370406e-10
          2.679560827171722e-10 3.073801152633898e-10 4.852544744444843e-10 2.9557180520278904e-10 2.967056481105769e-10 1.826271291180285e-10
          5.366574358191591e-10 3.2663259637563255e-10 3.2691775523133194e-10 1.7540665163935807e-10 1.0167765124947545e-10 1.0972420712572367e-10
          6.449536860600133e-11 1.936504258891318e-10 1.1213053632137598e-10 1.2072502112102127e-10 1.0402375928337827e-8 9.966789568653456e-9
          8.470690724792548e-9 1.057202755086149e-8 6.20064415468379e-9 4.059573854309706e-9 6.5942431619227216e-9 1.1410915503862459e-8
          1.095059198564724e-8 9.332636033615536e-9 1.1079349846476599e-8 6.841530939059726e-9 4.477400726787328e-9 6.9258419481251335e-9
          6.520751232605652e-9 6.189431225758022e-9 3.7971216417860054e-9 3.5838140336321275e-9 5.177804617930742e-9 2.9748259167027913e-9
          6.934041759090303e-9 6.5855670740541925e-9 3.820181871632348e-9 5.514122264759377e-9 2.075332779995481e-9 1.95384732450072e-9
          1.0767025565918435e-9 1.0137834987495844e-9 1.62068722892673e-9 8.45264862892803e-10 2.2136661444874813e-9 2.0842440776735365e-9
          1.0812937817799396e-9 1.728524919564689e-9 3.7641386892828794e-9 2.16692901796204e-9 2.4727128661477248e-9 1.4402166171081072e-9
          4.0087849826102645e-9 2.30911868740603e-9 2.6307593948424014e-9 1.1920103724907429e-9 6.315384718944435e-10 8.069600041891116e-10
          4.3755286302770834e-10 1.2700339478729657e-9 6.723961253433125e-10 8.582460283425483e-10 7.193644322971003e-9 6.8345888570134e-9
          4.203425564404415e-9 3.969184067976715e-9 5.725844956387939e-9 3.296210955206075e-9 7.282187285061315e-9 6.919547813402415e-9
          4.0200769028430804e-9 5.798121619481196e-9 2.3010136655091398e-9 2.1665967190958306e-9 1.1938513264214443e-9 1.123953952456768e-9
          1.796645157202899e-9 9.363709994350675e-10 2.33087831529892e-9 2.194755673604411e-9 1.1385442712639256e-9 1.8199395012363898e-9
          4.162939120844319e-9 2.398843433205309e-9 2.7303541926684396e-9 1.5905558569993617e-9 4.215588026889064e-9 2.4295073145651718e-9
          2.7643704863540992e-9 1.3193018784424173e-9 6.981927174462437e-10 8.905944890180178e-10 4.822766538634509e-10 1.336146185212053e-9
          7.070118534376274e-10 9.016480647441526e-10 2.519715899013995e-9 1.5342628291983855e-9 2.6756525833575967e-9 2.7738036514992127e-9
          1.684462962212829e-9 2.8073077790872657e-9 1.5479923265185329e-9 9.156019681821861e-10 9.516741271974516e-10 5.713496364646343e-10
          1.6441570512768442e-9 9.722649024471642e-10 1.0087830576063026e-9 5.236811676268059e-10 2.9085315170438844e-10 3.330119924299326e-10
          1.8900085634816016e-10 5.557776848901981e-10 3.0842870600630607e-10 3.526563222131875e-10 5.805044430862689e-10 3.5311652652740244e-10
          3.525936760400918e-10 2.1681436605220277e-10 6.140645774291671e-10 3.733835163393073e-10 3.7217356430216854e-10 2.0919190042546452e-10
          1.2101952317357602e-10 1.301069969080238e-10 7.634210978399042e-11 2.210802304377581e-10 1.2780777681153897e-10 1.3728862640204255e-10
          1.70472065301705e-9 1.0079589611972623e-9 1.0447116410100809e-9 6.26839378924994e-10 1.7253992309378271e-9 1.0201482013909965e-9
          1.0569731394110322e-9 5.75991868001705e-10 3.1949018844335865e-10 3.6500740543519196e-10 2.0690313083358453e-10 5.828940060618738e-10
          3.232657354018204e-10 3.6922105586878277e-10 6.351437789161251e-10 3.8611220931876635e-10 3.8443384222744026e-10 2.363722751077403e-10
          6.42331416853861e-10 3.9045233237972084e-10 3.8860291096959684e-10 2.285466398183031e-10 1.3206383186678799e-10 1.4179389036407506e-10
          8.317062608487211e-11 2.3109233898572706e-10 1.335135305048202e-10 1.4332858969725343e-10 1.9976508542649169e-10 1.2357967954270108e-10
          1.2050408224029092e-10 7.378802134463538e-11 4.3649086959508264e-11 5.52409689406211e-11 2.1477922945959302e-10 1.3292971610494114e-10
          1.2918409580856176e-10 9.152863348613452e-11 2.257436613238476e-10 1.3987378439319905e-10 1.3545975528147075e-10 7.956981251480388e-11
          4.7091267111950376e-11 5.973593021399685e-11 3.554788457071911e-11 8.426749702166455e-11 4.987253828168311e-11 5.517402867018403e-11
          2.3211550404517653e-10 1.440371835540573e-10 1.3912058566816546e-10 8.638799663945074e-11 2.3419517682920367e-10 1.4544830148728054e-10
          1.40357878650052e-10 8.747738716885674e-11 5.1695948383126757e-11 5.30775557826185e-11 3.658848426643013e-11 8.86534335616104e-11
          5.2348650540195277e-11 5.433483954471098e-11 2.672972252134297e-10 2.528049781827675e-10 1.2460059576612791e-10 2.1459443591941413e-10
          6.339890432944671e-11 6.054209157928054e-11 3.189081108276166e-11 5.2799251814334525e-11 1.6607817661329155e-10 8.473913664437683e-11
          1.204622304779609e-10 4.2588549152785475e-11 2.835076641458145e-11 3.236506172063633e-11 8.423041102464626e-11 4.47863999385912e-11
          5.735436173484449e-11 2.3289620568512096e-11 1.6173093106262978e-11 1.7511109502943138e-11 3.2278845239580907e-10 3.0510515029111494e-10
          1.575818048960175e-10 1.4961095667247816e-10 2.5842683169668066e-10 1.2849737278350576e-10 3.803931010992983e-10 3.593506038343965e-10
          1.75476092307511e-10 3.037692750159342e-10 7.538433515722482e-11 7.207359547732291e-11 3.501558214425162e-11 3.3103022009260016e-11
          6.301243405035299e-11 3.34241768679998e-11 8.79873044119927e-11 8.40325046654273e-11 3.930074422930638e-11 7.331017551772345e-11
          1.9918661727887515e-10 1.0125828972963431e-10 1.4371300826709956e-10 7.491164375454426e-11 2.3329768796177787e-10 1.181394313270749e-10
          1.6755119641940916e-10 5.079266655457059e-11 3.382733055411171e-11 3.840867380381602e-11 2.5868831128946285e-11 5.901648664634892e-11
          3.180201818279707e-11 4.45602648970996e-11 4.3736282821740404e-10 4.129559779379562e-10 2.1209312673112514e-10 2.0102807510891416e-10
          3.4846711157210306e-10 1.718612208617457e-10 4.904464295193929e-10 4.6289259521490516e-10 2.2480877803623548e-10 3.900547825371296e-10
          1.0078065511962942e-10 9.598125393589922e-11 4.735639191962471e-11 4.514453164094708e-11 8.319369741816703e-11 3.9318794086470664e-11
          1.1253867151292208e-10 1.0704162643504262e-10 5.0389149661631806e-11 9.247837769511415e-11 2.6679728633374845e-10 1.3459537381276427e-10
          1.9085836018538763e-10 9.893468762115589e-11 2.9787863970547185e-10 1.4984981902459537e-10 2.1240045895646646e-10 6.677809475219514e-11
          3.162299782174509e-11 5.049769387982998e-11 2.797912752294719e-11 7.404918470355132e-11 3.549678390911698e-11 5.594456929945222e-11
          1.469292499389386e-11 1.3860132723788774e-11 1.645329926211425e-11 1.5559133278071374e-11 1.1007850414651013e-11 1.1267007136548227e-11
          1.1498762585906313e-11 1.3027340453683688e-11 1.4664967294028498e-11 1.1730518035264399e-11 1.9574449342324318e-11 1.8625902725691756e-11
          1.2682092826273991e-11 1.7109238501664403e-11 2.2204999653604408e-11 2.12807596503679e-11 1.4178857252693017e-11 1.3907583138383568e-11
          1.878043464543409e-11 1.280685397323222e-11 2.462399439416488e-11 2.3649960314461783e-11 1.5122581360708568e-11 2.0974536130358053e-11
          1.4050841372995587e-11 1.5135808001008685e-11 1.1103133235591134e-11 1.1056866035115454e-11 1.2128679459116354e-11 1.3067266358280579e-11
          1.0136333147840585e-11 1.696578388417791e-11 1.1588582312724004e-11 1.4658421742398387e-11 9.965765480225935e-11 5.309740572778879e-11
          6.730106454217996e-11 3.635718151716938e-11 1.1549261054245468e-10 6.151957995434984e-11 7.752489547108085e-11 2.7729691159149796e-11
          1.8992092636051274e-11 1.9355887463807125e-11 1.3716993465910481e-11 3.2169426345117396e-11 2.192341684438752e-11 2.25231435792503e-11
          5.132926307364205e-11 2.8283241694055326e-11 3.332663736388693e-11 1.5176405151757216e-11 1.0750639461276935e-11 1.2015173217162262e-11
          1.3102450431398227e-10 6.967487884198111e-11 8.761819292957163e-11 4.7607490468434374e-11 1.4530698589444818e-10 7.71380913366384e-11
          9.683176461210196e-11 3.639373081909336e-11 2.4809738515116636e-11 2.53673679588546e-11 1.7467266170158772e-11 4.0237156856195344e-11
          2.7411544894928235e-11 2.796629011956703e-11 5.7786072967807503e-11 3.178301289651008e-11 3.7340453695601025e-11 2.377952329490741e-11
          6.365849725443324e-11 3.4981016028975746e-11 4.100222027870123e-11 1.7016935529657693e-11 1.2082531146470844e-11 1.3441856440358147e-11
          9.994782079652446e-12 1.8704218972705214e-11 1.3258974093313214e-11 1.4747228193800104e-11 5.362459552931865e-10 5.059824559538509e-10
          2.5907739115014196e-10 2.4530935770108604e-10 4.2592925877836736e-10 2.0908090201625635e-10 5.716008093907226e-10 5.39248270842874e-10
          2.6111573867344784e-10 4.5361851261253055e-10 1.2259888243984893e-10 1.1658569481897386e-10 5.732426520372351e-11 5.4758582659433796e-11
          1.0064737402617502e-10 4.78791181506118e-11 1.3033111237042195e-10 1.2390756920685272e-10 5.809657956766776e-11 1.0688346393701447e-10
          3.246410116515589e-10 1.6301160703951813e-10 2.308843734207375e-10 1.192142197570835e-10 3.452700859337185e-10 1.7314748817116294e-10
          2.450963689857809e-10 8.04562033027848e-11 3.847483456681247e-11 6.063340915554296e-11 3.375888295423427e-11 8.533746895614429e-11
          4.07459240052603e-11 6.421388631596663e-11 5.939364376594114e-10 5.602635322076646e-10 2.8640705967726497e-10 2.7108931682485446e-10
          4.711054049814262e-10 2.307708060438572e-10 6.01574779916711e-10 5.674501518249364e-10 2.7449819737386733e-10 4.770842712392109e-10
          1.3520123639651862e-10 1.285187467307883e-10 6.303477662219894e-11 6.019219434366603e-11 1.1080941660332199e-10 5.2569465700401923e-11
          1.368642797938772e-10 1.3009311408549104e-10 6.090570163618199e-11 1.1214925550471e-10 3.5828581600283193e-10 1.7953019307381468e-10
          2.5404909458105537e-10 1.3092191614109966e-10 3.627336570447025e-10 1.8170951772846758e-10 2.5710605670706923e-10 8.840434897389193e-11
          4.2164768982462685e-11 6.645695084938666e-11 3.6930949110049815e-11 8.94480221672655e-11 4.264654277943234e-11 6.72178765396669e-11
          2.66941643613302e-11 2.561925569800337e-11 1.6965946444400535e-11 1.6356415646050335e-11 2.2683451443126623e-11 1.4533394369750983e-11
          2.826782320360542e-11 2.7132340454173918e-11 1.730039796692618e-11 2.4014374578504737e-11 1.832531459056636e-11 1.2565869491721917e-11
          1.582807332955602e-11 1.1811835091642001e-11 1.9365434980572124e-11 1.3250498380098932e-11 1.6698978508877192e-11 2.925206300789713e-11
          2.8074097352610932e-11 1.8541382824679536e-11 1.7882559586997617e-11 2.4837297663166852e-11 1.587635442318943e-11 2.9583593695808856e-11
          2.838995224566347e-11 1.807264719220717e-11 2.5111985400419604e-11 2.0010094780731264e-11 1.3679589324956288e-11 1.7241725932453573e-11
          1.2830206152849416e-11 2.0229155642116975e-11 1.382335508235031e-11 1.7430651278912823e-11 1.5751014830081267e-10 8.349648534790843e-11
          1.0467431456422142e-10 5.672662338512399e-11 1.6686322387202418e-10 8.835826526965339e-11 1.106641247677189e-10 4.3491535924503333e-11
          2.960059767355369e-11 3.015352282628931e-11 2.072669441796611e-11 4.5970394734924104e-11 3.1262259396382464e-11 3.1805892383259155e-11
          6.863783411480756e-11 3.768216911515174e-11 4.409509167905868e-11 2.804365101717843e-11 7.242792950409214e-11 3.972422667122649e-11
          4.6447377594159766e-11 2.0127314378813846e-11 1.4256859048644575e-11 1.5854002394288146e-11 1.1753541640852273e-11 2.1190667678092378e-11
          1.4994466299084293e-11 1.6674603509124572e-11 1.7274304781107341e-10 9.140916316282355e-11 1.1441854020355148e-10 6.18977327059748e-11
          1.7474865938097892e-10 9.244863421427556e-11 1.1569684683671688e-10 4.752425410587613e-11 3.230477192519249e-11 3.283017529562237e-11
          2.2528256029992105e-11 4.805309669687064e-11 3.265956240503571e-11 3.3174391936097224e-11 7.479657402462261e-11 4.098052626292092e-11
          4.79180493803158e-11 3.0393175391622614e-11 7.56002230076327e-11 4.139884717107883e-11 4.841580204907688e-11 2.1810443767258532e-11
          1.5398766740554683e-11 1.7121265262449168e-11 1.2638155199869957e-11 2.2001756837859328e-11 1.5510548019814058e-11 1.7244651820147535e-11
          2.555419075564274e-11 1.908930319481434e-11 1.9556935361610835e-11 2.737390844175027e-11 2.0308893830997146e-11 2.087868474760462e-11
          1.624354849097715e-11 2.8762412184457528e-11 2.1179645557950345e-11 2.1890267363229897e-11 2.962330075100801e-11 2.1694764523134725e-11
          2.250592564229229e-11 1.7070861250799254e-11 2.991786359223416e-11 2.1861758999257745e-11 2.272037612011053e-11
        </DataArray>
        <DataArray type="Float64" Name="gradient_matprop_error" format="ascii" RangeMin="0" RangeMax="0">
          0 0 0 0 0 0
          0 0 0 0 0 0
          0 0 0 0 0 0
          0 0 0 0 0 0
          0 0 0 0 0 0
          0 0 0 0 0 0
          0 0 0 0 0 0
          0 0 0 0 0 0
          0 0 0 0 0 0
          0 0 0 0 0 0
          0 0 0 0 0 0
          0 0 0 0 0 0
          0 0 0 0 0 0
          0 0 0 0 0 0
          0 0 0 0 0 0
          0 0 0 0 0 0
          0 0 0 0 0 0
          0 0 0 0 0 0
          0 0 0 0 0 0
          0 0 0 0 0 0
          0 0 0 0 0 0
          0 0 0 0 0 0
          0 0 0 0 0 0
          0 0 0 0 0 0
          0 0 0 0 0 0
          0 0 0 0 0 0