<?xml version="1.0"?>
<VTKFile type="UnstructuredGrid" version="0.1" byte_order="LittleEndian" header_type="UInt32" compressor="vtkZLibDataCompressor">
  <UnstructuredGrid>
    <Piece NumberOfPoints="313" NumberOfCells="150">
      <PointData>
        <DataArray type="Int32" Name="libmesh_node_id" format="ascii" RangeMin="0" RangeMax="2867">
          0 1 2 3 4 5
          6 7 8 9 10 11
          12 13 14 15 40 41
          42 43 44 45 46 47
          60 61 62 63 64 65
          66 67 80 81 82 83
          90 91 92 93 94 95
          96 97 110 111 112 113
          120 121 122 123 124 125
          126 140 141 142 150 151
          152 153 154 155 170 171
          172 180 181 182 183 184
          185 200 201 202 2478 2479
          2480 2481 2482 2483 2484 2485
          2486 2487 2488 2489 2490 2491
          2492 2493 2494 2495 2496 2497
          2498 2499 2500 2501 2502 2503
          2504 2505 2506 2507 2508 2509
          2510 2524 2534 2535 2536 2537
          2538 2539 2540 2541 2542 2543
          2544 2545 2546 2547 2548 2549
          2550 2551 2552 2553 2554 2555
          2556 2557 2558 2559 2562 2563
          2565 2567 2640 2641 2642 2643
          2646 2647 2650 2651 2652 2666
          2667 2668 2669 2670 2671 2672
          2673 2674 2675 2676 2677 2678
          2679 2680 2681 2682 2683 2684
          2685 2686 2687 2688 2689 2690
          2691 2692 2693 2694 2695 2696
          2697 2698 2699 2700 2701 2702
          2703 2704 2705 2706 2707 2708
          2709 2710 2711 2712 2713 2714
          2715 2716 2717 2718 2719 2720
          2721 2722 2723 2724 2725 2726
          2727 2728 2729 2730 2731 2732
          2733 2734 2735 2736 2737 2738
          2739 2740 2760 2761 2762 2763
          2766 2767 2769 2770 2772 2783
          2784 2785 2786 2787 2788 2789
          2790 2791 2792 2858 2859 2860
          2861 2862 2863 2864 2865 2866
          2867 16 17 18 19 48
          49 68 69 84 98 99
          114 127 128 129 143 144
          157 173 2511 2512 2513 2514
          2518 2519 2560 2520 2561 2564
          187 2566 203 2644 2645 2648
          2649 2653 2515 2654 2655 2656
          2657 2658 2659 2757 2764 2765
          2768 2521 2771 2522 2759 2793
          2777 2794 2797 2798 2782 2800
          2802
        </DataArray>
        <DataArray type="Float64" Name="bounds" format="ascii" RangeMin="0" RangeMax="0">
          0 0 0 0 0 0
          0 0 0 0 0 0
          0 0 0 0 0 0
          0 0 0 0 0 0
          0 0 0 0 0 0
          0 0 0 0 0 0
          0 0 0 0 0 0
          0 0 0 0 0 0
          0 0 0 0 0 0
          0 0 0 0 0 0
          0 0 0 0 0 0
          0 0 0 0 0 0
          0 0 0 0 0 0
          0 0 0 0 0 0
          0 0 0 0 0 0
          0 0 0 0 0 0
          0 0 0 0 0 0
          0 0 0 0 0 0
          0 0 0 0 0 0
          0 0 0 0 0 0
          0 0 0 0 0 0
          0 0 0 0 0 0
          0 0 0 0 0 0
          0 0 0 0 0 0
          0 0 0 0 0 0
          0 0 0 0 0 0
          0 0 0 0 0 0
          0 0 0 0 0 0
          0 0 0 0 0 0
          0 0 0 0 0 0
          0 0 0 0 0 0
          0 0 0 0 0 0
          0 0 0 0 0 0
          0 0 0 0 0 0
          0 0 0 0 0 0
          0 0 0 0 0 0
          0 0 0 0 0 0
          0 0 0 0 0 0
          0 0 0 0 0 0
          0 0 0 0 0 0
          0 0 0 0 0 0
          0 0 0 0 0 0
          0 0 0 0 0 0
          0 0 0 0 0 0
          0 0 0 0 0 0
          0 0 0 0 0 0
          0 0 0 0 0 0
          0 0 0 0 0 0
          0 0 0 0 0 0
          0 0 0 0 0 0
          0 0 0 0 0 0
          0 0 0 0 0 0
          0
        </DataArray>
        <DataArray type="Float64" Name="gradient_error" format="ascii" RangeMin="1.7973121804968399e-9" RangeMax="0.0000012758247443138665">
          2.5104814958571716e-9 2.3636967006479295e-9 2.1294880424443214e-9 2.210093124710334e-9 2.763522640430799e-9 2.3438191335274277e-9
          2.074775797551204e-9 2.290038872427162e-9 2.0564308640294757e-9 1.9613664269588455e-9 1.8348267488976358e-9 1.8160694646972377e-9
          1.8401433315494734e-9 1.842197589158274e-9 1.844457678689043e-9 1.826040145798253e-9 1.8952793842407137e-9 1.9097047535634966e-9
          1.8057324615749795e-9 1.816555104423525e-9 1.866301989888216e-9 1.7973121804968399e-9 1.8442518467670745e-9 1.8076226129074628e-9
          1.2622669650878394e-8 1.0264631640682365e-8 7.048610728539898e-9 8.427818217783653e-9 5.70983578191784e-9 4.352042231546874e-9
          2.802341098230379e-9 2.553213756596216e-9 3.8325898163974315e-9 4.2329667846889124e-9 2.994248681175907e-9 2.304086414962052e-9
          5.921944672776669e-8 4.7989515918240866e-8 3.149995709468877e-8 3.833651190263538e-8 2.4587602103953217e-8 1.7166904287072674e-8
          8.416631758753058e-9 6.771396296297258e-9 1.5010398271136657e-8 1.745357707750406e-8 9.746206470192134e-9 5.126160833841459e-9
          2.6056961073627007e-7 2.0967239670671393e-7 1.3968228413707067e-7 1.7135683793052507e-7 8.727826867473107e-8 6.484769853810869e-8
          1.1735737127641965e-8 6.969217156742742e-8 8.214406512478008e-8 4.28984315989739e-8 8.131171427607946e-7 7.927645615605914e-7
          3.935449391808445e-7 4.2940387383769413e-7 7.232334146436746e-7 3.007852315199378e-7 7.7893618494209e-8 9.456443353849181e-8
          4.601119997986081e-8 1.0711399543576743e-7 1.3723118799828726e-7 7.314502023263619e-7 0.0000010335558878140244 1.9845788291588676e-7
          3.6994116540265896e-7 7.517438304620196e-8 9.555344352107806e-8 3.423260267043757e-8 0.0000012143372223065816 0.0000010342396058140545
          0.0000010274026503447991 7.003190510921689e-7 7.153863190040223e-7 9.445901547378243e-7 9.263703017393689e-7 0.000001044877171683268
          7.475853951117257e-7 8.011498115309636e-7 5.74393829593113e-7 8.127486618162633e-7 8.05918665809105e-7 6.390567853860665e-7
          1.1790079460412892e-7 8.527310630901162e-7 8.212791978553778e-7 5.665119767690939e-7 0.0000010511034940394137 0.0000012758247443138665
          0.0000010491541165499957 7.851112973938838e-7 6.528010249510996e-7 7.06649637124245e-7 8.258818418420931e-7 6.700448046984401e-7
          5.305964757443061e-7 4.483189573031647e-7 4.225698791401469e-7 1.6480891574640245e-7 2.7074207549126054e-7 3.1478710190459947e-7
          3.8529455077129096e-7 3.439422920354167e-7 1.7195392843669372e-7 1.7803406588746997e-7 2.592771053887266e-7 2.6585655372663e-7
          1.559872627548502e-7 2.4286319558124813e-7 4.926218700868881e-8 6.976401179333635e-8 7.427940319470768e-8 5.78245396740764e-8
          3.466002823407595e-7 3.5367904156579005e-7 3.29739128407646e-7 9.026583657798389e-8 1.3464602539662089e-7 2.2083152003790325e-7
          1.1116946520320923e-7 1.9358755335195941e-7 3.058258809075422e-8 4.2459815229514895e-8 2.784518869067465e-8 3.0701701467918556e-7
          2.7600564150070956e-7 5.433704236827557e-8 8.77048636121237e-8 1.6237158204659993e-7 1.3448167111883584e-8 1.5725114278618673e-8
          2.3703830048107616e-7 1.800206144535376e-8 1.024546684549358e-8 8.948943893495042e-9 1.1199894698227288e-8 2.146646716445401e-8
          1.769328269531815e-8 7.136970983985246e-9 7.6524209414965e-9 1.3721694858712136e-8 1.3920098226182288e-8 2.0406872330231768e-7
          2.0180128432037676e-7 1.9735084522341928e-7 1.5322345781613756e-7 1.5724871574251814e-7 1.7664344140639202e-7 1.7226673639395376e-7
          2.1352228152467956e-7 1.67168105152796e-7 1.8778380596460704e-7 1.995338453384358e-7 1.960381670702659e-7 1.9131001497176994e-7
          2.0839950677641808e-7 1.1042870818271857e-7 1.5148559849240726e-7 1.471826275644882e-7 1.6204533040453452e-7 1.9254248880209597e-7
          2.3281243246417698e-7 2.2937962307736096e-7 1.797447231601843e-7 2.0223579646594678e-7 2.471261071396033e-7 1.942219691962298e-7
          2.1734956247140848e-7 2.2594681369054497e-7 2.2472686977170924e-7 2.3487715745415602e-7 1.2667701385619166e-7 1.750919698545326e-7
          1.8757301780321365e-7 2.235069258528735e-7 2.7154220983520315e-7 2.664883507212173e-7 2.1092620760542098e-7 2.3291612431772716e-7
          2.884160570312214e-7 2.2960338311015172e-7 2.5134968332381715e-7 2.3678851533554832e-7 2.4491784712038013e-7 2.635950044217321e-7
          1.503102053756388e-7 1.9934389791423703e-7 2.1428330961641287e-7 2.530471789052119e-7 3.204001857558766e-7 3.128357872114343e-7
          2.504709439070219e-7 2.731740004402328e-7 3.3971517521508315e-7 2.7412324272780044e-7 2.9770563749449893e-7 2.7407689906477404e-7
          2.82812601031746e-7 3.034977954806584e-7 1.8054170205816724e-7 2.3351221366903126e-7 2.5569609977391466e-7 2.915483029987179e-7
          2.0916212144696512e-7 2.0142374692490812e-7 2.3276195408314846e-7 2.2286651397460004e-7 2.1630387561061398e-7 2.4283782221820517e-7
          1.7544183343137415e-7 1.9577576307624864e-7 1.9163900264321844e-7 1.999680857362909e-7 2.563617867193318e-7 2.44309281024292e-7
          2.6937176882579634e-7 2.161096927211231e-7 3.828401932407744e-7 3.697492491478621e-7 3.0084483525069804e-7 3.2536898870112786e-7
          3.117702430263436e-7 3.262489824036553e-7 2.1884947726062175e-7 2.8098872825439366e-7 3.407277217809671e-7 2.2308749227371105e-7
          2.529863509015982e-7 2.2939146570354674e-7 2.6308836780455495e-7 1.7929280354968475e-7 2.0336787914744354e-7 2.0552992962172358e-7
          2.828852095294854e-7 2.967852699055632e-7 2.2744295474520233e-7 1.9025969006066124e-7 1.831951899694155e-7 2.124019213816607e-7
          2.068317214250295e-7 1.6837684105745721e-7 1.8987418955259442e-7 1.899862819807653e-7 2.3454415270266013e-7 2.3046825288064346e-7
          2.1137153804773162e-7 1.8125964959605754e-9 1.8240411580872113e-9 1.8827647582766498e-9 1.8513006932001417e-9 1.8354858202138471e-9
          1.8198366281236343e-9 2.1088751921659192e-9 2.0475260865843976e-9 1.9861769810028755e-9 3.7966568873993905e-9 3.283510729239658e-9
          2.770364571079925e-9 1.4058668537898414e-8 7.4415816386093255e-9 6.473559260482884e-9 1.9638749872579578e-8 8.338967826823202e-9
          2.136552098086452e-7 1.9466212732672268e-8 3.796266973546487e-7 3.7835012870128196e-7 5.897149894827338e-7 5.390295966865414e-7
          3.098526918719918e-7 3.8627286526156467e-7 6.55248014987395e-8 3.3709705409565954e-7 1.2995869796128665e-7 8.056384708959651e-9
          3.07837781979988e-7 1.9439259442383382e-7 9.042701480927246e-9 1.8886383748130522e-8 1.630403930342133e-8 2.0217412287628312e-8
          1.793447744931468e-8 1.5651542611001045e-8 2.0684219754762397e-7 9.938615989279075e-9 6.4567124934769866e-9 2.4001667513961522e-8
          2.2005821125489395e-8 2.9748089976748975e-9 2.0009974737017268e-8 3.317874038572775e-7 3.2819858879626947e-7 3.546478448711012e-7
          3.5087195346665963e-7 2.4457596210941077e-7 3.1105212303612314e-7 3.6964438960996347e-7 2.978560533550271e-7 2.350397626867793e-7
          3.777525829383527e-7 2.7296727553894414e-7 1.7713637671546596e-7 2.059986101745176e-7 4.0206348036076463e-7 3.10894788391109e-7
          2.3486084363356922e-7
        </DataArray>
        <DataArray type="Float64" Name="gradient_matprop_error" format="ascii" RangeMin="0" RangeMax="0">
          0 0 0 0 0 0
          0 0 0 0 0 0
          0 0 0 0 0 0
          0 0 0 0 0 0
          0 0 0 0 0 0
          0 0 0 0 0 0
          0 0 0 0 0 0
          0 0 0 0 0 0
          0 0 0 0 0 0
          0 0 0 0 0 0
          0 0 0 0 0 0
          0 0 0 0 0 0
          0 0 0 0 0 0
          0 0 0 0 0 0
          0 0 0 0 0 0
          0 0 0 0 0 0
          0 0 0 0 0 0
          0 0 0 0 0 0
          0 0 0 0 0 0
          0 0 0 0 0 0
          0 0 0 0 0 0
          0 0 0 0 0 0
          0 0 0 0 0 0
          0 0 0 0 0 0
          0 0 0 0 0 0
          0 0 0 0 0 0
          0 0 0 0 0 0
          0 0 0 0 0 0
          0 0 0 0 0 0
          0 0 0 0 0 0
          0 0 0 0 0 0
          0 0 0 0 0 0
          0 0 0 0 0 0
          0 0 0 0 0 0
          0 0 0 0 0 0
          0 0 0 0 0 0
          0 0 0 0 0 0
          0 0 0 0 0 0
          0 0 0 0 0 0
          0 0 0 0 0 0
          0 0 0 0 0 0
          0 0 0 0 0 0
          0 0 0 0 0 0
          0 0 0 0 0 0
          0 0 0 0 0 0
          0 0 0 0 0 0
          0 0 0 0 0 0
          0 0 0 0 0 0
          0 0 0 0 0 0
          0 0 0 0 0 0
          0 0 0 0 0 0
          0 0 0 0 0 0
          0
        </DataArray>
        <DataArray type="Float64" Name="initial_marker" format="ascii" RangeMin="0" RangeMax="0">
          0 0 0 0 0 0
          0 0 0 0 0 0
          0 0 0 0 0 0
          0 0 0 0 0 0
          0 0 0 0 0 0
          0 0 0 0 0 0
          0 0 0 0 0 0
          0 0 0 0 0 0
          0 0 0 0 0 0
          0 0 0 0 0 0
          0 0 0 0 0 0
          0 0 0 0 0 0
          0 0 0 0 0 0
          0 0 0 0 0 0
          0 0 0 0 0 0
          0 0 0 0 0 0
          0 0 0 0 0 0
          0 0 0 0 0 0
          0 0 0 0 0 0
          0 0 0 0 0 0
          0 0 0 0 0 0
          0 0 0 0 0 0
          0 0 0 0 0 0
          0 0 0 0 0 0
          0 0 0 0 0 0
          0 0 0 0 0 0
          0 0 0 0 0 0
          0 0 0 0 0 0
          0 0 0 0 0 0
          0 0 0 0 0 0
          0 0 0 0 0 0
          0 0 0 0 0 0
          0 0 0 0 0 0
          0 0 0 0 0 0
          0 0 0 0 0 0
          0 0 0 0 0 0
          0 0 0 0 0 0
          0 0 0 0 0 0
          0 0 0 0 0 0
          0 0 0 0 0 0
          0 0 0 0 0 0
          0 0 0 0 0 0
          0 0 0 0 0 0
          0 0 0 0 0 0
          0 0 0 0 0 0
          0 0 0 0 0 0
          0 0 0 0 0 0
          0 0 0 0 0 0
          0 0 0 0 0 0
          0 0 0 0 0 0
          0 0 0 0 0 0
          0 0 0 0 0 0
          0
        </DataArray>
        <DataArray type="Float64" Name="markers_norefine" format="ascii" RangeMin="0" RangeMax="0">
          0 0 0 0 0 0
          0 0 0 0 0 0
          0 0 0 0 0 0
          0 0 0 0 0 0
          0 0 0 0 0 0
          0 0 0 0 0 0
          0 0 0 0 0 0
          0 0 0 0 0 0
          0 0 0 0 0 0
          0 0 0 0 0 0
          0 0 0 0 0 0
          0 0 0 0 0 0
          0 0 0 0 0 0
          0 0 0 0 0 0
          0 0 0 0 0 0
          0 0 0 0 0 0
          0 0 0 0 0 0
          0 0 0 0 0 0
          0 0 0 0 0 0
          0 0 0 0 0 0
          0 0 0 0 0 0
          0 0 0 0 0 0
          0 0 0 0 0 0
          0 0 0 0 0 0
          0 0 0 0 0 0
          0 0 0 0 0 0
          0 0 0 0 0 0
          0 0 0 0 0 0
          0 0 0 0 0 0
          0 0 0 0 0 0
          0 0 0 0 0 0
          0 0 0 0 0 0
          0 0 0 0 0 0
          0 0 0 0 0 0
          0 0 0 0 0 0
          0 0 0 0 0 0
          0 0 0 0 0 0
          0 0 0 0 0 0
          0 0 0 0 0 0
          0 0 0 0 0 0
          0 0 0 0 0 0
          0 0 0 0 0 0
          0 0 0 0 0 0
          0 0 0 0 0 0
          0 0 0 0 0 0
          0 0 0 0 0 0
          0 0 0 0 0 0
          0 0 0 0 0 0
          0 0 0 0 0 0
          0 0 0 0 0 0
          0 0 0 0 0 0
          0 0 0 0 0 0
          0
        </DataArray>
        <DataArray type="Float64" Name="markers_mustrefine" format="ascii" RangeMin="0" RangeMax="0">
          0 0 0 0 0 0
          0 0 0 0 0 0
          0 0 0 0 0 0
          0 0 0 0 0 0
          0 0 0 0 0 0
          0 0 0 0 0 0
          0 0 0 0 0 0
          0 0 0 0 0 0
          0 0 0 0 0 0
          0 0 0 0 0 0
          0 0 0 0 0 0
          0 0 0 0 0 0
          0 0 0 0 0 0
          0 0 0 0 0 0
          0 0 0 0 0 0
          0 0 0 0 0 0
          0 0 0 0 0 0
          0 0 0 0 0 0
          0 0 0 0 0 0
          0 0 0 0 0 0
          0 0 0 0 0 0
          0 0 0 0 0 0
          0 0 0 0 0 0
          0 0 0 0 0 0
          0 0 0 0 0 0
          0 0 0 0 0 0
          0 0 0 0 0 0
          0 0 0 0 0 0
          0 0 0 0 0 0
          0 0 0 0 0 0
          0 0 0 0 0 0
          0 0 0 0 0 0
          0 0 0 0 0 0
          0 0 0 0 0 0
          0 0 0 0 0 0
          0 0 0 0 0 0
          0 0 0 0 0 0
          0 0 0 0 0 0
          0 0 0 0 0 0
          0 0 0 0 0 0
          0 0 0 0 0 0
          0 0 0 0 0 0
          0 0 0 0 0 0
          0 0 0 0 0 0
          0 0 0 0 0 0
          0 0 0 0 0 0
          0 0 0 0 0 0
          0 0 0 0 0 0
          0 0 0 0 0 0
          0 0 0 0 0 0
          0 0 0 0 0 0
          0 0 0 0 0 0
          0
        </DataArray>
        <DataArray type="Float64" Name="gradient_marker" format="ascii" RangeMin="1" RangeMax="1">
          1 1 1 1 1 1
          1 1 1 1 1 1
          1 1 1 1 1 1
          1 1 1 1 1 1
          1 1 1 1 1 1
          1 1 1 1 1 1
          1 1 1 1 1 1
          1 1 1 1 1 1
          1 1 1 1 1 1
          1 1 1 1 1 1
          1 1 1 1 1 1
          1 1 1 1 1 1
          1 1 1 1 1 1
          1 1 1 1 1 1
          1 1 1 1 1 1
          1 1 1 1 1 1
          1 1 1 1 1 1
          1 1 1 1 1 1
          1 1 1 1 1 1
          1 1 1 1 1 1
          1 1 1 1 1 1
          1 1 1 1 1 1
          1 1 1 1 1 1
          1 1 1 1 1 1
          1 1 1 1 1 1
          1 1 1 1 1 1
          1 1 1 1 1 1
          1 1 1 1 1 1
          1 1 1 1 1 1
          1 1 1 1 1 1
          1 1 1 1 1 1
          1 1 1 1 1 1
          1 1 1 1 1 1
          1 1 1 1 1 1
          1 1 1 1 1 1
          1 1 1 1 1 1
          1 1 1 1 1 1
          1 1 1 1 1 1
          1 1 1 1 1 1
          1 1 1 1 1 1
          1 1 1 1 1 1
          1 1 1 1 1 1
          1 1 1 1 1 1
          1 1 1 1 1 1
          1 1 1 1 1 1
          1 1 1 1 1 1
          1 1 1 1 1 1
          1 1 1 1 1 1
          1 1 1 1 1 1
          1 1 1 1 1 1
          1 1 1 1 1 1
          1 1 1 1 1 1
          1
        </DataArray>
        <DataArray type="Float64" Name="gradient_matprop_marker" format="ascii" RangeMin="0" RangeMax="0">
          0 0 0 0 0 0
          0 0 0 0 0 0
          0 0 0 0 0 0
          0 0 0 0 0 0
          0 0 0 0 0 0
          0 0 0 0 0 0
          0 0 0 0 0 0
          0 0 0 0 0 0
          0 0 0 0 0 0
          0 0 0 0 0 0
          0 0 0 0 0 0
          0 0 0 0 0 0
          0 0 0 0 0 0
          0 0 0 0 0 0
          0 0 0 0 0 0
          0 0 0 0 0 0
          0 0 0 0 0 0
          0 0 0 0 0 0
          0 0 0 0 0 0
          0 0 0 0 0 0
          0 0 0 0 0 0
          0 0 0 0 0 0
          0 0 0 0 0 0
          0 0 0 0 0 0
          0 0 0 0 0 0
          0 0 0 0 0 0
          0 0 0 0 0 0
          0 0 0 0 0 0
          0 0 0 0 0 0
          0 0 0 0 0 0
          0 0 0 0 0 0
          0 0 0 0 0 0
          0 0 0 0 0 0
          0 0 0 0 0 0
          0 0 0 0 0 0
          0 0 0 0 0 0
          0 0 0 0 0 0
          0 0 0 0 0 0
          0 0 0 0 0 0
          0 0 0 0 0 0
          0 0 0 0 0 0
          0 0 0 0 0 0
          0 0 0 0 0 0
          0 0 0 0 0 0
          0 0 0 0 0 0
          0 0 0 0 0 0
          0 0 0 0 0 0
          0 0 0 0 0 0
          0 0 0 0 0 0
          0 0 0 0 0 0
          0 0 0 0 0 0
          0 0 0 0 0 0
          0
        </DataArray>
        <DataArray type="Float64" Name="combo" format="ascii" RangeMin="1" RangeMax="1">
          1 1 1 1 1 1
          1 1 1 1 1 1
          1 1 1 1 1 1
          1 1 1 1 1 1
          1 1 1 1 1 1
          1 1 1 1 1 1
          1 1 1 1 1 1
          1 1 1 1 1 1
          1 1 1 1 1 1
          1 1 1 1 1 1
          1 1 1 1 1 1
          1 1 1 1 1 1
          1 1 1 1 1 1
          1 1 1 1 1 1
          1 1 1 1 1 1
          1 1 1 1 1 1
          1 1 1 1 1 1
          1 1 1 1 1 1
          1 1 1 1 1 1
          1 1 1 1 1 1
          1 1 1 1 1 1
          1 1 1 1 1 1
          1 1 1 1 1 1
          1 1 1 1 1 1
          1 1 1 1 1 1
          1 1 1 1 1 1
          1 1 1 1 1 1
          1 1 1 1 1 1
          1 1 1 1 1 1
          1 1 1 1 1 1
          1 1 1 1 1 1
          1 1 1 1 1 1
          1 1 1 1 1 1
          1 1 1 1 1 1
          1 1 1 1 1 1
          1 1 1 1 1 1
          1 1 1 1 1 1
          1 1 1 1 1 1
          1 1 1 1 1 1
          1 1 1 1 1 1
          1 1 1 1 1 1
          1 1 1 1 1 1
          1 1 1 1 1 1
          1 1 1 1 1 1
          1 1 1 1 1 1
          1 1 1 1 1 1
          1 1 1 1 1 1
          1 1 1 1 1 1
          1 1 1 1 1 1
          1 1 1 1 1 1
          1 1 1 1 1 1
          1 1 1 1 1 1
          1
        </DataArray>
        <DataArray type="Float64" Name="dHdT" format="ascii" RangeMin="25.806459819554934" RangeMax="28.752275946217715">
          25.81172687893894 25.81171259941388 25.811688858196767 25.811696646016795 25.81176647301958 25.811786603375282
          25.811820151218747 25.81180890565106 25.811681825716555 25.811672131296717 25.811829313316174 25.81184397597496
          25.81165927495455 25.81165979238492 25.811860792256887 25.811861747832985 25.81166511697965 25.81166641309465
          25.81185369906222 25.81185133828254 25.81166243687688 25.81185863863374 25.811660309815288 25.811862703409084
          25.81277852133361 25.812680571935584 25.81251664009193 25.812572314211838 25.812473757590634 25.812399101384617
          25.81231969169574 25.812310163510922 25.812352708248277 25.812366107090064 25.812324445178604 25.812300635326114
          25.8102567850387 25.81071713161984 25.811492015465145 25.811224791388454 25.811686090811296 25.812055310319266
          25.812418989099875 25.812489732014424 25.81226689931046 25.812192797738206 25.812424529827236 25.812560474928972
          25.822983263132407 25.82084493709403 25.817966198250694 25.819223335586454 25.815586276375694 25.814963359682928
          25.81137423067623 25.815087459407362 25.8154634080405 25.814291990129 26.128755618443286 26.122062493789674
          25.924664945290957 25.935069650801257 26.098756941666647 25.901903441078478 25.821649293767106 25.824109828884534
          25.817723601463364 27.796478915412084 28.0366087538238 26.34021379592306 26.385439911875594 28.46532867239098
          26.254584033211913 25.83657680236246 25.84568408854777 25.82250347620098 26.416892861975388 26.28662459327368
          26.289803275564616 26.872053839779444 26.890049312190545 26.596136187058008 26.591899780668346 26.275687688183623
          26.922989386509997 26.611676969239987 26.036336509183396 26.209760386379205 26.213179330971876 26.157374027453614
          27.87598685641348 27.127856828808525 27.10195160886456 27.286618527267034 26.383184263575007 26.39628066966329
          26.256796539518955 26.956678842118585 26.627639554522393 26.0945911922035 26.99168966623042 26.623922946355155
          26.004482621200935 26.09492873890248 26.068207856219537 28.23085447819546 27.471273323620075 27.56141586667573
          26.282799393999817 26.217786370582203 25.872055527624955 25.874760370297018 25.913538297707927 25.917411059953473
          25.865293586926644 25.9039980362884 25.82779436145509 25.83542551852191 25.837333287501277 25.830785567175553
          25.9550210677909 25.960061749609924 25.942702485650152 25.84305667558873 25.856754030733033 25.891968068718786
          25.847917484805933 25.878882510635282 25.821855228438817 25.825453443893437 25.820810854278783 25.927182106704535
          25.909847536464632 25.829051659348057 25.839624356948136 25.86565275455433 25.817007324818448 25.81727557126341
          25.891681152160523 25.81754381770837 25.811979767684775 25.812513933963874 25.813330713299564 25.81559121508119
          25.816430189578124 25.811718428537308 25.813048100242973 25.81493780885002 25.817269164075057 27.336456207684307
          27.216914903707522 27.20867626644589 27.561139644919407 27.57761966021397 27.44344386670525 27.43032356323847
          27.237559128466717 27.61959630940959 27.476858925951753 27.097373599730737 27.309268073196527 27.299507481557534
          27.334121542493918 27.818783112743635 27.669972829702978 27.65197086003105 27.716158723436795 27.521162546662318
          27.397843546455793 27.26458128844222 27.674710031969788 27.5211847951037 27.29626575090063 27.736109343373652
          27.57270028846375 27.13131903042865 27.367659558237616 27.255414611297326 27.95157651748378 27.77778830176518
          27.849134826026866 27.604000086046582 27.47509348430489 27.330867794243346 27.802232419672954 27.629711086591897
          27.3648604343949 27.873965746384673 27.689245174909974 26.983285346320233 27.20579907537788 27.23487794657296
          28.129371355041023 27.928554378940447 28.013629915425046 27.428312804435517 27.5615013123766 27.39807842302079
          27.951937532222868 27.751159547240743 27.43230346573121 28.037161307208386 27.817577271608062 27.00796118841841
          27.261665569564695 27.288569902004564 28.34237375206914 28.10424067146069 28.202851077484922 27.515369950710976
          26.554771119852518 26.564879221991404 26.700474045048413 26.704046493126736 26.542449727903005 26.69483354406854
          26.328275396533193 26.427998513226047 26.442861696542835 26.41052052013569 26.846176970244308 26.843213764262067
          26.84721736023407 26.5277216299189 27.65986705530151 27.468624107788926 28.13087354438067 27.88997189387656
          27.02266724013851 27.315799105491767 28.601880033459825 28.311319679964196 27.608930970845023 26.527816273848657
          26.686356646647663 26.509895093661548 26.674063737879845 26.28767922769664 26.390185325684246 26.366762332998896
          26.844897019446666 26.838232382098134 26.492691423671854 26.569790129711897 26.57015377322137 26.705444292808394
          26.7055018155995 26.359651670965135 26.456480188371877 26.463342264414717 26.84109845590489 26.84084985797763
          26.55330870577862 25.811656536896756 25.811657984228205 25.811866904612884 25.811865785258142 25.81165943155966
          25.8118646659034 25.812282776791168 25.81228551717802 25.812288257564866 25.812631396038896 25.812633590562342
          25.81263578508579 25.8131164473214 25.81370806971547 25.813353434793477 25.81362779241424 25.813311559100736
          25.873214608797653 25.815089650017057 26.01338007852209 25.97001187750714 27.12367490409816 26.637662291705936
          25.912174162904922 26.03732096732911 25.83228686283985 26.002225632485615 25.85301569177397 25.81487805815297
          26.172498955164762 25.873744520708094 25.81424762489172 25.812601963234847 25.813769886042433 25.8088760504154
          25.810182479790022 25.81148890916465 25.903818035018993 25.81147786704863 25.81250287565006 25.806459819554934
          25.808184344188284 25.813527884251492 25.80990886882163 27.207685638015082 28.23687574220833 27.970414847017516
          27.342659547293746 28.752275946217715 28.428074952656686 27.6552922343701 26.852335921045434 26.48679874220038
          27.3688007720379 26.65756193193083 26.23690328461143 26.33996603087428 27.70345002346358 26.82832512166127
          26.44302877713713
        </DataArray>
        <DataArray type="Float64" Name="dk/dtemperature" format="ascii" RangeMin="0.012332232326526023" RangeMax="0.015804580349343195">
          0.015804580349343195 0.015804580349343192 0.015804580349343195 0.015804580349343195 0.015804580349343192 0.015804580349343192
          0.015804580349343192 0.015804580349343195 0.015804580349343192 0.015804580349343192 0.015804580349343192 0.015804580349343192
          0.015804580349343195 0.015804580349343192 0.015804580349343195 0.01580458034934319 0.015804580349343195 0.015804580349343195
          0.015804580349343195 0.015804580349343195 0.015804580349343192 0.015804580349343192 0.015804580349343185 0.01580458034934319
          0.015804580349343192 0.015804580349343192 0.015804580349343192 0.015804580349343192 0.015804580349343192 0.015804580349343192
          0.015804580349343192 0.015804580349343192 0.015804580349343195 0.015804580349343192 0.015804580349343192 0.015804580349343192
          0.015804580349343195 0.015804580349343195 0.015804580349343192 0.015804580349343192 0.015804580349343195 0.015804580349343192
          0.015804580349343192 0.015804580349343192 0.015804580349343192 0.015804580349343192 0.015804580349343192 0.015804580349343192
          0.015804580349343195 0.015804580349343195 0.015804580349343192 0.015804580349343192 0.015804580349343195 0.015804580349343192
          0.015804580349343192 0.015804580349343192 0.015804580349343192 0.015804580349343192 0.015489575659497023 0.015489575659497023
          0.015752373102423802 0.015721048754272163 0.015563546409349078 0.015762814551807676 0.015804580349343192 0.015804580349343192
          0.015804580349343192 0.013369040101822676 0.013067152614340122 0.01520476311244761 0.01517054535061128 0.012666358706810134
          0.015301629570587203 0.015804580349343192 0.01580458034934319 0.015804580349343195 0.015174570969650851 0.01534339536812272
          0.015322512469354963 0.014459003609173678 0.014459003609173678 0.014915295943383696 0.014904854493999819 0.015385161165658237
          0.014459003609173678 0.014868243975322371 0.015658400057968893 0.015414472704290087 0.015404031254906206 0.015489449858902037
          0.013278473855577913 0.014160094607388768 0.014160094607388766 0.013989514091659841 0.01517054535061128 0.015248541719502906
          0.01544302943935202 0.01448089460972558 0.014862204698250893 0.01558820332596643 0.014457502487155095 0.014880697385713907
          0.015721048754272167 0.015574868462897865 0.015627075709817254 0.012864620444508859 0.013804835424171165 0.013666832171470977
          0.015259863773051692 0.015396483219207016 0.015804580349343192 0.015804580349343192 0.015762814551807676 0.015762814551807676
          0.015804580349343195 0.015762814551807676 0.015804580349343195 0.015804580349343192 0.015804580349343192 0.015804580349343192
          0.01572104875427216 0.01572104875427216 0.015721048754272163 0.015804580349343192 0.015804580349343195 0.015773256001191557
          0.015804580349343192 0.015794138899959315 0.015804580349343195 0.015804580349343192 0.015804580349343195 0.01574193165303992
          0.015783697450575434 0.015804580349343192 0.015804580349343192 0.015804580349343192 0.015804580349343192 0.015804580349343192
          0.015804580349343192 0.015804580349343192 0.015804580349343195 0.015804580349343192 0.015804580349343192 0.015804580349343192
          0.015804580349343192 0.015804580349343195 0.015804580349343192 0.015804580349343192 0.015804580349343185 0.013743436248696506