<?xml version="1.0"?>
<VTKFile type="UnstructuredGrid" version="0.1" byte_order="LittleEndian" header_type="UInt32" compressor="vtkZLibDataCompressor">
  <UnstructuredGrid>
    <Piece NumberOfPoints="371" NumberOfCells="157">
      <PointData>
        <DataArray type="Int32" Name="libmesh_node_id" format="ascii" RangeMin="16" RangeMax="1196">
          16 17 18 19 20 21
          22 23 24 25 26 27
          28 29 30 31 32 33
          34 35 36 37 38 39
          48 49 50 51 52 53
          54 55 56 57 58 59
          68 69 70 71 72 73
          74 75 76 77 78 79
          84 85 86 87 88 89
          98 99 100 101 102 103
          104 105 106 107 108 109
          114 115 116 117 118 119
          129 130 131 132 133 134
          135 136 137 138 139 144
          145 146 147 148 149 161
          162 163 164 165 166 167
          168 169 175 176 177 178
          179 193 195 196 197 198
          199 205 206 207 208 209
          217 220 221 222 223 228
          229 230 233 234 235 236
          237 238 241 242 257 258
          259 260 261 262 263 264
          265 266 267 268 269 270
          322 327 332 333 334 335
          336 337 338 339 340 341
          342 343 344 345 346 347
          350 352 353 354 355 359
          360 361 362 363 364 365
          366 367 368 369 370 371
          372 373 501 502 503 508
          509 510 511 512 513 514
          515 516 517 518 519 520
          521 522 523 524 525 526
          527 528 529 530 531 532
          533 534 535 536 542 545
          549 550 553 554 555 558
          559 560 563 566 567 568
          569 570 573 574 575 576
          577 578 579 581 582 583
          584 585 587 588 675 676
          677 678 679 681 682 1163
          1165 1166 1168 1170 1171 1172
          1173 1174 1177 1178 1179 1180
          1182 1183 1184 1187 1188 1189
          1190 1191 1192 1195 1196 211
          215 219 232 319 325 321
          324 326 311 299 312 348
          349 313 351 357 356 358
          323 330 504 505 506 507
          210 212 537 538 539 540
          541 543 544 546 547 548
          297 284 298 551 552 557
          556 561 562 564 565 294
          305 308 571 572 318 580
          331 586 494 673 495 496
          674 665 666 669 500 680
          671 650 642 651 1167 1164
          652 1169 453 463 467 465
          657 658 1175 1176 659 1181
          662 487 491 488 492 1185
          1186 493 1193 1194 499
        </DataArray>
        <DataArray type="Float64" Name="bounds" format="ascii" RangeMin="0" RangeMax="0">
          0 0 0 0 0 0
          0 0 0 0 0 0
          0 0 0 0 0 0
          0 0 0 0 0 0
          0 0 0 0 0 0
          0 0 0 0 0 0
          0 0 0 0 0 0
          0 0 0 0 0 0
          0 0 0 0 0 0
          0 0 0 0 0 0
          0 0 0 0 0 0
          0 0 0 0 0 0
          0 0 0 0 0 0
          0 0 0 0 0 0
          0 0 0 0 0 0
          0 0 0 0 0 0
          0 0 0 0 0 0
          0 0 0 0 0 0
          0 0 0 0 0 0
          0 0 0 0 0 0
          0 0 0 0 0 0
          0 0 0 0 0 0
          0 0 0 0 0 0
          0 0 0 0 0 0
          0 0 0 0 0 0
          0 0 0 0 0 0
          0 0 0 0 0 0
          0 0 0 0 0 0
          0 0 0 0 0 0
          0 0 0 0 0 0
          0 0 0 0 0 0
          0 0 0 0 0 0
          0 0 0 0 0 0
          0 0 0 0 0 0
          0 0 0 0 0 0
          0 0 0 0 0 0
          0 0 0 0 0 0
          0 0 0 0 0 0
          0 0 0 0 0 0
          0 0 0 0 0 0
          0 0 0 0 0 0
          0 0 0 0 0 0
          0 0 0 0 0 0
          0 0 0 0 0 0
          0 0 0 0 0 0
          0 0 0 0 0 0
          0 0 0 0 0 0
          0 0 0 0 0 0
          0 0 0 0 0 0
          0 0 0 0 0 0
          0 0 0 0 0 0
          0 0 0 0 0 0
          0 0 0 0 0 0
          0 0 0 0 0 0
          0 0 0 0 0 0
          0 0 0 0 0 0
          0 0 0 0 0 0
          0 0 0 0 0 0
          0 0 0 0 0 0
          0 0 0 0 0 0
          0 0 0 0 0 0
          0 0 0 0 0
        </DataArray>
        <DataArray type="Float64" Name="gradient_error" format="ascii" RangeMin="6.11824857577459e-12" RangeMax="3.2874135716159993e-7">
          1.8125964959605754e-9 1.8240411580872113e-9 1.8827647582766498e-9 1.8513006932001417e-9 1.847569860766913e-9 1.8405190952504113e-9
          1.8060033945454553e-9 1.8161789976260457e-9 1.840838275623836e-9 1.8366631559363985e-9 1.814879129726431e-9 1.8221953071186052e-9
          1.8293111063351063e-9 1.8306249647041193e-9 1.8364619578749946e-9 1.8338728162232219e-9 1.8315283772363753e-9 1.8316123869699838e-9
          1.8324743325240019e-9 1.832245775021995e-9 1.8318275229588521e-9 1.8317999975009602e-9 1.831928250006394e-9 1.8319258381056728e-9
          1.8354858202138471e-9 1.8198366281236343e-9 1.8334683297339101e-9 1.8263546007066364e-9 1.832488036248961e-9 1.8295114845107795e-9
          1.8319388230731324e-9 1.8312836745714491e-9 1.8316963967035925e-9 1.832017217519988e-9 1.8317724720430683e-9 1.8319234262049516e-9
          2.1088751921659192e-9 2.0475260865843976e-9 2.1146643546896173e-9 2.0027141876800366e-9 1.9608144470492314e-9 1.906107216826779e-9
          1.822724582133725e-9 1.8295223591058234e-9 1.8282783730067025e-9 1.8295242832626832e-9 1.829553887685607e-9 1.8300957903811708e-9
          1.9861769810028755e-9 1.8907640206704554e-9 1.8513999866043266e-9 1.836320136077922e-9 1.8307701935186633e-9 1.8306376930767347e-9
          3.7966568873993905e-9 3.283510729239658e-9 2.960846903331659e-9 2.4930899334887927e-9 2.331415307752368e-9 2.0807379862925173e-9
          1.87949014847307e-9 1.855725151548944e-9 1.841682608569884e-9 1.842907677891211e-9 1.8411910855191056e-9 1.8442963115799857e-9
          2.770364571079925e-9 2.025332963645926e-9 1.8300606648326669e-9 1.8319601546248177e-9 1.8441327472125378e-9 1.8474015376408659e-9
          6.473559260482884e-9 8.213510857660108e-9 4.203281925926552e-9 1.879738800294747e-9 2.365648556582123e-9 1.4933664888160147e-9
          1.8030919191510477e-9 1.8819900905055718e-9 1.889939853353087e-9 1.887068029466048e-9 1.886670557288193e-9 8.338967826823202e-9
          4.884890784825019e-9 3.0341940872366444e-9 2.082566924237219e-9 1.8978896162006026e-9 1.8862730851103376e-9 6.348600390697053e-8
          4.331869774882224e-9 1.120464773402455e-8 7.156619210075808e-10 1.5756994195836593e-9 1.2961908367292897e-9 1.491264912780067e-9
          1.5486190112022815e-9 1.5326079531236618e-9 4.6817084109754665e-9 2.3302830107806475e-9 1.6511163678018285e-9 1.6837186450019692e-9
          1.5165968950450423e-9 8.844579454238485e-9 1.0330080201607272e-9 6.667194911599576e-10 1.0641742604840822e-9 1.1784053361933994e-9
          1.1523275127789527e-9 2.457621188507822e-9 3.179683574962366e-10 1.0447997423614539e-9 1.4307212033268656e-9 1.1262496893645063e-9
          1.1609064483950905e-8 3.845812357542181e-8 3.732344188866138e-8 8.376961125025461e-8 1.2882307483923906e-8 2.9066554345506554e-8
          8.123489950582197e-10 3.1252960634729726e-9 7.815180556679192e-10 2.3379937995428844e-10 8.239071335142572e-10 3.8340078401711445e-9
          3.5660071583655444e-9 9.893016630012768e-10 5.547023762933323e-10 2.7729813956669e-9 3.6480933754519394e-10 3.535643012697936e-10
          2.2884016093030436e-10 3.271361148236366e-10 2.0409585423520552e-10 1.769444063519857e-10 1.9501866342153137e-10 3.4231926499439326e-10
          4.1209433041829937e-10 2.1309292049107703e-10 8.611626970810515e-11 3.102337173782337e-10 1.8594147260785724e-10 4.818693958422055e-10
          3.1028063249303593e-10 5.374626519855454e-10 6.996094914873245e-10 1.7055984417251262e-9 1.061316581032336e-9 2.9729587038083603e-9
          4.395312040194526e-10 5.573554877376331e-10 2.4386753381302026e-10 2.999275915459734e-10 3.4700124690676004e-10 2.6861447536500466e-10
          1.4230236705773476e-9 4.240318965891595e-9 6.751797714558136e-10 3.5598764927892655e-10 1.3629792212648409e-8 2.9684920183616128e-8
          4.920827513795216e-9 3.855880189537323e-9 4.729418307168168e-9 8.741376123774854e-9 2.4233624261248723e-9 5.602956424799012e-9
          5.897072696892474e-11 8.451225439462803e-11 3.587109666394182e-11 8.851217759961345e-11 5.7383799101652564e-11 2.3953607897004137e-11
          6.353223079875186e-11 1.1005378182033131e-10 1.398962282450713e-10 1.0311085370049958e-10 1.0545675506510231e-11 9.224899427128414e-11
          6.968066249585116e-11 1.697386746698113e-10 5.633341137157221e-9 3.8019458696593965e-9 8.278381899080113e-9 1.0467201209870498e-9
          2.9243399425248307e-9 2.959131458618694e-9 1.970550602161571e-9 7.746156781048183e-9 1.5176125032908646e-8 2.993922974712557e-9
          3.5490340362414656e-10 3.8773336458499373e-10 8.558747619792827e-10 9.127972953057857e-10 2.310087636394967e-10 2.6463556959055495e-10
          3.237735315414725e-10 4.205633255458409e-10 9.697198286322886e-10 3.8291149349239e-10 3.320623423117713e-9 6.6317800130340566e-9
          7.483418267123241e-9 1.7908692631200108e-8 9.066997221497198e-10 8.054352592952264e-10 2.0698175992195103e-9 1.1646213111128768e-8
          2.9185605249366156e-8 7.041707964407332e-10 6.472123507535109e-9 6.6268679285837146e-9 4.181226601227956e-9 6.78161234963232e-9
          5.5669219158512377e-8 9.014129113217715e-8 1.4490182697242001e-8 1.6025702227490817e-8 3.01988788138472e-8 1.7561221757739636e-8
          1.5040908107132003e-9 1.8174515424720537e-9 5.327589659938442e-10 2.130812274230907e-9 3.967594932176493e-9 1.256955195700546e-9
          9.818836236571309e-11 1.9942761660360462e-10 1.4249535245879633e-10 1.7902350432213106e-10 2.456530139806755e-10 3.006668708414962e-10
          4.726609777501874e-10 3.122825236392199e-10 1.2749407970179959e-9 5.615473595748643e-10 7.211116695937449e-10 7.650530226213989e-10
          1.0531649465528311e-9 5.129981336197227e-10 8.806759796126256e-10 1.3412768704842634e-9 1.2097021199909614e-10 1.15664992505099e-10
          1.639217866494652e-10 1.77461865985102e-10 1.4125287072878341e-10 1.1035977301110185e-10 1.9100194532073876e-10 6.089294636502831e-9
          6.332742734478612e-9 4.009015786370311e-9 1.9287369362377908e-9 2.9845661929051186e-9 4.2677789310464835e-9 2.202815127614354e-9
          8.377623160410592e-11 8.656281229406708e-11 5.333945130528676e-11 4.496170017680003e-11 6.253059016608632e-11 8.934939298402824e-11
          8.00994801553726e-11 1.1572514248124912e-11 1.3779573283444714e-11 1.0858100008650797e-11 6.11824857577459e-12 9.482098049111738e-12
          1.5986632318764517e-11 1.611361074196583e-11 1.2845947522448887e-11 8.106096089572678e-12 1.6240589165167135e-11 3.769232575489071e-8
          2.2276181505601147e-7 9.30877776566196e-8 5.581424560818366e-9 1.224125884637426e-9 1.9289516386425514e-9 1.1730984024812316e-9
          2.029667864664599e-10 2.3880228954780314e-9 4.08027685577221e-8 1.3820271270048714e-7 5.207576143565535e-8 2.346011614240428e-8
          5.4268664671260534e-8 8.810284398981243e-9 7.862203753884896e-9 7.885240915890494e-8 3.329044007216015e-8 1.0803579993974575e-8
          4.846872312153109e-11 9.257726405322701e-11 4.4585437465067895e-8 1.7456574259184497e-8 1.2601365520116338e-8 2.988078124898827e-8
          2.0529192181917663e-8 1.692392760850055e-7 1.1814124509397449e-8 3.6991285237325653e-8 2.752493917320919e-8 1.9509420219872446e-8
          2.7417139920746355e-8 1.4576162818980496e-8 1.1469241759327816e-8 1.1493901266535704e-8 1.7842994604167056e-8 8.362320699675137e-9
          1.8992306468078396e-7 3.2874135716159993e-7 2.3867369968663977e-7 1.0067453712496201e-7 1.5209208464492704e-7 2.1404287815767694e-7
          1.4567985509141163e-7 5.492218998838509e-9 4.729906965507501e-9 1.2776580064657227e-9 1.2673066010831345e-9 8.67194995264542e-8
          3.04774098056556e-8 2.4149899417984928e-9 3.5936935283846347e-10 4.160151652943254e-10 4.1204199851253205e-10 1.9538426201085232e-9
          2.2692692313864304e-9 2.63274444319905e-9 1.2045570784003094e-10 1.6431475851322922e-10 1.1051937187913489e-10 6.021676468132968e-11
          1.7401389732727504e-10 5.91846008088684e-10 4.985992837766157e-10 5.500030907942679e-10 1.111116581940421e-10 1.8371303614132086e-10
          4.056105454179643e-10 4.949241224561184e-9 2.3187600581149636e-8 1.0252621470181543e-8 5.961720270796087e-9 8.730192485975106e-9
          4.067724389160935e-9 3.1932480556170673e-9 3.918046805008816e-8 7.883834502415556e-9 9.415072377605471e-9 3.848827771361747e-9
          2.387302522196395e-10 3.9144891101631534e-10 1.0851075508117576e-10 1.1211432066679408e-10 4.016989459246289e-10 1.1571788625241239e-10
          4.119489808329425e-10 8.517251285855466e-11 5.089800291639652e-11 9.20561327653287e-11 1.9730239868838173e-11 1.0032576416862355e-11
          1.307309357941409e-11 3.255434089649476e-11 8.492638585599798e-12 1.2366613875383465e-11 2.479329075805191e-11
        </DataArray>
        <DataArray type="Float64" Name="gradient_matprop_error" format="ascii" RangeMin="0" RangeMax="0">
          0 0 0 0 0 0
          0 0 0 0 0 0
          0 0 0 0 0 0
          0 0 0 0 0 0
          0 0 0 0 0 0
          0 0 0 0 0 0
          0 0 0 0 0 0
          0 0 0 0 0 0
          0 0 0 0 0 0
          0 0 0 0 0 0
          0 0 0 0 0 0
          0 0 0 0 0 0
          0 0 0 0 0 0
          0 0 0 0 0 0
          0 0 0 0 0 0
          0 0 0 0 0 0
          0 0 0 0 0 0
          0 0 0 0 0 0
          0 0 0 0 0 0
          0 0 0 0 0 0
          0 0 0 0 0 0
          0 0 0 0 0 0
          0 0 0 0 0 0
          0 0 0 0 0 0
          0 0 0 0 0 0
          0 0 0 0 0 0
          0 0 0 0 0 0
          0 0 0 0 0 0
          0 0 0 0 0 0
          0 0 0 0 0 0
          0 0 0 0 0 0
          0 0 0 0 0 0
          0 0 0 0 0 0
          0 0 0 0 0 0
          0 0 0 0 0 0
          0 0 0 0 0 0
          0 0 0 0 0 0
          0 0 0 0 0 0
          0 0 0 0 0 0
          0 0 0 0 0 0
          0 0 0 0 0 0
          0 0 0 0 0 0
          0 0 0 0 0 0
          0 0 0 0 0 0
          0 0 0 0 0 0
          0 0 0 0 0 0
          0 0 0 0 0 0
          0 0 0 0 0 0
          0 0 0 0 0 0
          0 0 0 0 0 0
          0 0 0 0 0 0
          0 0 0 0 0 0
          0 0 0 0 0 0
          0 0 0 0 0 0
          0 0 0 0 0 0
          0 0 0 0 0 0
          0 0 0 0 0 0
          0 0 0 0 0 0
          0 0 0 0 0 0
          0 0 0 0 0 0
          0 0 0 0 0 0
          0 0 0 0 0
        </DataArray>
        <DataArray type="Float64" Name="initial_marker" format="ascii" RangeMin="0" RangeMax="0">
          0 0 0 0 0 0
          0 0 0 0 0 0
          0 0 0 0 0 0
          0 0 0 0 0 0
          0 0 0 0 0 0
          0 0 0 0 0 0
          0 0 0 0 0 0
          0 0 0 0 0 0
          0 0 0 0 0 0
          0 0 0 0 0 0
          0 0 0 0 0 0
          0 0 0 0 0 0
          0 0 0 0 0 0
          0 0 0 0 0 0
          0 0 0 0 0 0
          0 0 0 0 0 0
          0 0 0 0 0 0
          0 0 0 0 0 0
          0 0 0 0 0 0
          0 0 0 0 0 0
          0 0 0 0 0 0
          0 0 0 0 0 0
          0 0 0 0 0 0
          0 0 0 0 0 0
          0 0 0 0 0 0
          0 0 0 0 0 0
          0 0 0 0 0 0
          0 0 0 0 0 0
          0 0 0 0 0 0
          0 0 0 0 0 0
          0 0 0 0 0 0
          0 0 0 0 0 0
          0 0 0 0 0 0
          0 0 0 0 0 0
          0 0 0 0 0 0
          0 0 0 0 0 0
          0 0 0 0 0 0
          0 0 0 0 0 0
          0 0 0 0 0 0
          0 0 0 0 0 0
          0 0 0 0 0 0
          0 0 0 0 0 0
          0 0 0 0 0 0
          0 0 0 0 0 0
          0 0 0 0 0 0
          0 0 0 0 0 0
          0 0 0 0 0 0
          0 0 0 0 0 0
          0 0 0 0 0 0
          0 0 0 0 0 0
          0 0 0 0 0 0
          0 0 0 0 0 0
          0 0 0 0 0 0
          0 0 0 0 0 0
          0 0 0 0 0 0
          0 0 0 0 0 0
          0 0 0 0 0 0
          0 0 0 0 0 0
          0 0 0 0 0 0
          0 0 0 0 0 0
          0 0 0 0 0 0
          0 0 0 0 0
        </DataArray>
        <DataArray type="Float64" Name="markers_norefine" format="ascii" RangeMin="0" RangeMax="0">
          0 0 0 0 0 0
          0 0 0 0 0 0
          0 0 0 0 0 0
          0 0 0 0 0 0
          0 0 0 0 0 0
          0 0 0 0 0 0
          0 0 0 0 0 0
          0 0 0 0 0 0
          0 0 0 0 0 0
          0 0 0 0 0 0
          0 0 0 0 0 0
          0 0 0 0 0 0
          0 0 0 0 0 0
          0 0 0 0 0 0
          0 0 0 0 0 0
          0 0 0 0 0 0
          0 0 0 0 0 0
          0 0 0 0 0 0
          0 0 0 0 0 0
          0 0 0 0 0 0
          0 0 0 0 0 0
          0 0 0 0 0 0
          0 0 0 0 0 0
          0 0 0 0 0 0
          0 0 0 0 0 0
          0 0 0 0 0 0
          0 0 0 0 0 0
          0 0 0 0 0 0
          0 0 0 0 0 0
          0 0 0 0 0 0
          0 0 0 0 0 0
          0 0 0 0 0 0
          0 0 0 0 0 0
          0 0 0 0 0 0
          0 0 0 0 0 0
          0 0 0 0 0 0
          0 0 0 0 0 0
          0 0 0 0 0 0
          0 0 0 0 0 0
          0 0 0 0 0 0
          0 0 0 0 0 0
          0 0 0 0 0 0
          0 0 0 0 0 0
          0 0 0 0 0 0
          0 0 0 0 0 0
          0 0 0 0 0 0
          0 0 0 0 0 0
          0 0 0 0 0 0
          0 0 0 0 0 0
          0 0 0 0 0 0
          0 0 0 0 0 0
          0 0 0 0 0 0
          0 0 0 0 0 0
          0 0 0 0 0 0
          0 0 0 0 0 0
          0 0 0 0 0 0
          0 0 0 0 0 0
          0 0 0 0 0 0
          0 0 0 0 0 0
          0 0 0 0 0 0
          0 0 0 0 0 0
          0 0 0 0 0
        </DataArray>
        <DataArray type="Float64" Name="markers_mustrefine" format="ascii" RangeMin="0" RangeMax="0">
          0 0 0 0 0 0
          0 0 0 0 0 0
          0 0 0 0 0 0
          0 0 0 0 0 0
          0 0 0 0 0 0
          0 0 0 0 0 0
          0 0 0 0 0 0
          0 0 0 0 0 0
          0 0 0 0 0 0
          0 0 0 0 0 0
          0 0 0 0 0 0
          0 0 0 0 0 0
          0 0 0 0 0 0
          0 0 0 0 0 0
          0 0 0 0 0 0
          0 0 0 0 0 0
          0 0 0 0 0 0
          0 0 0 0 0 0
          0 0 0 0 0 0
          0 0 0 0 0 0
          0 0 0 0 0 0
          0 0 0 0 0 0
          0 0 0 0 0 0
          0 0 0 0 0 0
          0 0 0 0 0 0
          0 0 0 0 0 0
          0 0 0 0 0 0
          0 0 0 0 0 0
          0 0 0 0 0 0
          0 0 0 0 0 0
          0 0 0 0 0 0
          0 0 0 0 0 0
          0 0 0 0 0 0
          0 0 0 0 0 0
          0 0 0 0 0 0
          0 0 0 0 0 0
          0 0 0 0 0 0
          0 0 0 0 0 0
          0 0 0 0 0 0
          0 0 0 0 0 0
          0 0 0 0 0 0
          0 0 0 0 0 0
          0 0 0 0 0 0
          0 0 0 0 0 0
          0 0 0 0 0 0
          0 0 0 0 0 0
          0 0 0 0 0 0
          0 0 0 0 0 0
          0 0 0 0 0 0
          0 0 0 0 0 0
          0 0 0 0 0 0
          0 0 0 0 0 0
          0 0 0 0 0 0
          0 0 0 0 0 0
          0 0 0 0 0 0
          0 0 0 0 0 0
          0 0 0 0 0 0
          0 0 0 0 0 0
          0 0 0 0 0 0
          0 0 0 0 0 0
          0 0 0 0 0 0
          0 0 0 0 0
        </DataArray>
        <DataArray type="Float64" Name="gradient_marker" format="ascii" RangeMin="0.6666666666666666" RangeMax="1">
          1 1 1 1 1 1
          1 1 1 1 1 1
          1 1 1 1 1 1
          1 1 1 1 1 1
          1 1 1 1 1 1
          1 1 1 1 1 1
          1 1 1 1 1 1
          1 1 1 1 1 1
          1 1 1 1 1 1
          1 1 1 1 1 1
          1 1 1 1 1 1
          1 1 1 1 1 1
          1 1 1 1 1 1
          1 1 1 1 1 1
          1 1 1 1 1 1
          1 1 1 1 1 1
          1 1 1 1 1 1
          1 1 1 1 1 1
          1 1 1 1 1 1
          1 1 1 1 1 1
          1 1 1 1 1 1
          1 1 1 1 1 1
          1 1 1 1 1 1
          1 1 1 1 1 1
          1 1 1 1 1 1
          1 1 1 1 1 1
          1 1 1 1 1 1
          1 1 1 1 1 1
          1 1 1 1 1 1
          1 1 1 1 1 1
          1 1 1 1 1 1
          1 1 1 1 1 1
          1 1 1 1 1 1
          1 1 1 1 1 1
          1 1 1 1 1 1
          1 1 1 1 1 1
          1 1 1 1 1 1
          1 1 1 1 1 1
          1 1 1 1 1 1
          1 1 1 1 1 1
          1 1 1 1 1 1
          1 1 1 1 1 1
          1 1 1 1 1 1
          1 1 1 1 1 1
          1 1 1 1 1 1
          1 1 1 1 1 1
          1 1 1 1 1 1
          1 1 1 0.875 0.875 1
          1 1 1 1 1 1
          1 1 1 1 1 1
          1 1 1 1 1 1
          1 1 1 1 1 1
          1 1 1 1 1 1
          1 1 1 1 1 0.75
          0.875 1 1 1 1 1
          1 1 1 1 1 1
          1 1 1 1 1 1
          1 1 0.6666666666666666 1 1 1
          1 1 0.6666666666666666 1 1 1
          1 1 1 1 1 1
          1 1 1 1 1 1
          1 1 1 1 1
        </DataArray>
        <DataArray type="Float64" Name="gradient_matprop_marker" format="ascii" RangeMin="0" RangeMax="0">
          0 0 0 0 0 0
          0 0 0 0 0 0
          0 0 0 0 0 0
          0 0 0 0 0 0
          0 0 0 0 0 0
          0 0 0 0 0 0
          0 0 0 0 0 0
          0 0 0 0 0 0
          0 0 0 0 0 0
          0 0 0 0 0 0
          0 0 0 0 0 0
          0 0 0 0 0 0
          0 0 0 0 0 0
          0 0 0 0 0 0
          0 0 0 0 0 0
          0 0 0 0 0 0
          0 0 0 0 0 0
          0 0 0 0 0 0
          0 0 0 0 0 0
          0 0 0 0 0 0
          0 0 0 0 0 0
          0 0 0 0 0 0
          0 0 0 0 0 0
          0 0 0 0 0 0
          0 0 0 0 0 0
          0 0 0 0 0 0
          0 0 0 0 0 0
          0 0 0 0 0 0
          0 0 0 0 0 0
          0 0 0 0 0 0
          0 0 0 0 0 0
          0 0 0 0 0 0
          0 0 0 0 0 0
          0 0 0 0 0 0
          0 0 0 0 0 0
          0 0 0 0 0 0
          0 0 0 0 0 0
          0 0 0 0 0 0
          0 0 0 0 0 0
          0 0 0 0 0 0
          0 0 0 0 0 0
          0 0 0 0 0 0
          0 0 0 0 0 0
          0 0 0 0 0 0
          0 0 0 0 0 0
          0 0 0 0 0 0
          0 0 0 0 0 0
          0 0 0 0 0 0
          0 0 0 0 0 0
          0 0 0 0 0 0
          0 0 0 0 0 0
          0 0 0 0 0 0
          0 0 0 0 0 0
          0 0 0 0 0 0
          0 0 0 0 0 0
          0 0 0 0 0 0
          0 0 0 0 0 0
          0 0 0 0 0 0
          0 0 0 0 0 0
          0 0 0 0 0 0
          0 0 0 0 0 0
          0 0 0 0 0
        </DataArray>
        <DataArray type="Float64" Name="combo" format="ascii" RangeMin="0.6666666666666666" RangeMax="1">
          1 1 1 1 1 1
          1 1 1 1 1 1
          1 1 1 1 1 1
          1 1 1 1 1 1
          1 1 1 1 1 1
          1 1 1 1 1 1
          1 1 1 1 1 1
          1 1 1 1 1 1
          1 1 1 1 1 1
          1 1 1 1 1 1
          1 1 1 1 1 1
          1 1 1 1 1 1
          1 1 1 1 1 1
          1 1 1 1 1 1
          1 1 1 1 1 1
          1 1 1 1 1 1
          1 1 1 1 1 1
          1 1 1 1 1 1
          1 1 1 1 1 1
          1 1 1 1 1 1
          1 1 1 1 1 1
          1 1 1 1 1 1
          1 1 1 1 1 1
          1 1 1 1 1 1
          1 1 1 1 1 1
          1 1 1 1 1 1
          1 1 1 1 1 1
          1 1 1 1 1 1
          1 1 1 1 1 1
          1 1 1 1 1 1
          1 1 1 1 1 1
          1 1 1 1 1 1
          1 1 1 1 1 1
          1 1 1 1 1 1
          1 1 1 1 1 1
          1 1 1 1 1 1
          1 1 1 1 1 1
          1 1 1 1 1 1
          1 1 1 1 1 1
          1 1 1 1 1 1
          1 1 1 1 1 1
          1 1 1 1 1 1
          1 1 1 1 1 1
          1 1 1 1 1 1
          1 1 1 1 1 1
          1 1 1 1 1 1
          1 1 1 1 1 1
          1 1 1 0.875 0.875 1
          1 1 1 1 1 1
          1 1 1 1 1 1
          1 1 1 1 1 1
          1 1 1 1 1 1
          1 1 1 1 1 1
          1 1 1 1 1 0.75
          0.875 1 1 1 1 1
          1 1 1 1 1 1
          1 1 1 1 1 1
          1 1 0.6666666666666666 1 1 1
          1 1 0.6666666666666666 1 1 1
          1 1 1 1 1 1
          1 1 1 1 1 1
          1 1 1 1 1
        </DataArray>
        <DataArray type="Float64" Name="dHdT" format="ascii" RangeMin="25.804753204975338" RangeMax="26.620640656134395">
          25.811656536896756 25.811657984228205 25.811866904612884 25.811865785258142 25.8116606684868 25.811659942514822
          25.811863471163797 25.811864419864317 25.811660006256982 25.81165955878582 25.811864537006286 25.811865110733304
          25.811658750777404 25.81165890056129 25.811866102642355 25.81186596929958 25.811659004376942 25.811659013868855
          25.81186592822943 25.811865911969914 25.811659038168123 25.811659035060394 25.81186590047248 25.81186589709244
          25.81165943155966 25.8118646659034 25.811659216542843 25.811865368564835 25.811659111314658 25.81186568446032
          25.811659050345177 25.811865835956795 25.811659023360768 25.811865895710397 25.811659031952665 25.8118658937124
          25.812282776791168 25.81228551717802 25.81229253913639 25.812287878290324 25.812286332991945 25.812283636205496
          25.81227894632775 25.81227942222369 25.812279299512944 25.81227939947385 25.812279356916065 25.812279414462058
          25.812288257564866 25.812283217444257 25.812280939419047 25.812279898119627 25.812279499434755 25.81227947200805
          25.812631396038896 25.812633590562342 25.812621943298584 25.81264571469467 25.81265820205813 25.812671571326593
          25.812692755419874 25.812692294382966 25.81269366747197 25.812694050746614 25.812693858922962 25.81269432418369
          25.81263578508579 25.81266948609075 25.81268494059505 25.812691833346054 25.812694434021264 25.812694789444407
          25.813353434793477 25.814584191632225 25.813261029519317 25.812949027545322 25.813110299011395 25.813083104702322
          25.81310367495548 25.813113630609443 25.81311523523634 25.8131148352223 25.813115599712816 25.813311559100736
          25.81320884468651 25.813152536900198 25.81312235140365 25.81311683986325 25.813116364203324 25.825384364647
          25.813103740037434 25.815398030181374 25.813495936591693 25.813621880514162 25.813486016187753 25.813499811262197
          25.81350194575797 25.81350015220694 25.81371359177115 25.81353306904498 25.813502675438446 25.813507782062953
          25.81349835865592 25.82359040053056 25.814189431315498 25.81371675166175 25.81371293518385 25.81367598786197
          25.813671683556002 25.813456086269216 25.813743322040327 25.81371758354819 25.81368452163246 25.813667379250038
          25.815902399958837 25.820681352369338 25.831027835287664 25.85392141420573 25.819584027199117 25.84649760987574
          25.813385323474023 25.81401669353267 25.813699476191 25.813999631386054 25.81440265754537 25.814284012618476
          25.815258619248883 25.81407966995694 25.814964989019142 25.8166788234359 25.81366052208032 25.813673680306447
          25.81371484470553 25.813774528197918 25.813628378998594 25.813687122956374 25.81370524576681 25.81368683853258
          25.813811461073723 25.813723368577243 25.813774047330583 25.813890660878574 25.813782112535023 25.81393608361487
          25.814434884834895 25.815115646610725 25.81379904291312 25.814089845887395 25.813969628924504 25.814525271598168
          25.813712088853897 25.813815619603762 25.813622073369974 25.813682154976846 25.813692323143943 25.813673059624165
          25.814140214935883 25.814960697308937 25.813919150353623 25.81374223658372 25.833413790476893 25.856120035776684
          25.82129388673082 25.82020541588824 25.821863278390975 25.82878086741541 25.817845166410024 25.823521140893714
          25.813860047216345 25.813928601001138 25.81383881777127 25.813945611498873 25.8138263204331 25.813785699199794
          25.813844045222215 25.813997154785937 25.814043681620127 25.81390239124464 25.813808632857146 25.813961377651815
          25.81386177001133 25.814090208454317 25.813929139057098 25.813728816277106 25.815172323819162 25.813204282779953
          25.812654301753316 25.81280004921882 25.813528493497113 25.812260482212885 25.811106447345573 25.812945796684325
          25.813201675628683 25.81322139766976 25.813160109003725 25.813196992775627 25.813210618252313 25.813271555284565
          25.81329172049832 25.81324111971084 25.813233876547535 25.81331188571207 25.81460252150754 25.81557851087939
          25.815764876950652 25.818409958635257 25.813711306546743 25.813703695806957 25.813654819159154 25.816927232393766
          25.821241406391128 25.81369608506717 25.81269687176713 25.816364613081774 25.815870715973233 25.82003235439642
          25.89299617194053 25.944739855429248 25.8369438021096 25.840830602157215 25.862869107641018 25.84471740220483
          25.813872507836987 25.814603348176252 25.813862155461013 25.81533418851552 25.816211146109314 25.815252170888996
          25.81362852809486 25.813694644008105 25.813667009627466 25.81386619278249 25.8139753448388 25.813760759921344
          25.814393581823584 25.814084496895106 25.81612071809589 25.814874003762604 25.815193525054006 25.815093959462864
          25.815512282218464 25.81467471015705 25.815513046345405 25.815930604974067 25.815145279873448 25.815117786559004
          25.81637192969137 25.816450528925067 25.8153743383282 25.815090293244566 25.816529128158763 25.85397392402732
          25.87121723703401 25.841879101566196 25.829784279105073 25.83750376091497 25.854479872207005 25.83774250738
          25.814680714703293 25.814783468974134 25.81433255598033 25.814302322944446 25.814419201356586 25.814886223244976
          25.81453607976873 25.81391178502049 25.81394042617273 25.81386204466546 25.813835641983708 25.81385632258614
          25.813969067324972 25.813960895170457 25.813877003188573 25.81385060050682 25.813952723015944 25.81876708034746
          26.103110548466834 25.9179827159713 25.820917476571474 25.816426806783806 25.817196199383165 25.820018133597053
          25.81451473279678 25.819441862095037 25.867020372514347 26.125014849695663 25.9400860128003 25.84732197804796
          25.889911547764363 25.83993888637276 25.825717787184736 25.923703059752047 25.861230165619034 25.830141687638655
          25.81416235029505 25.81438920685518 25.804753204975338 25.81005192032422 25.81115620126855 25.807929826160457
          25.810040943066205 25.84847488496156 25.818125241849938 25.85987992018217 25.836266875803535 25.831388776485873
          25.852634647734664 25.822147459495525 25.820314583158105 25.82651067716821 25.84538937528715 25.818481706820684
          26.05970742224908 26.620640656134395 26.371140052378394 25.955966846616594 26.038635634059922 26.132531412690604
          26.018937521292663 25.816873944438203 25.816542545273755 25.81499757555834 25.815124873223667 25.95676445812792