<?xml version="1.0"?>
<VTKFile type="UnstructuredGrid" version="0.1" byte_order="LittleEndian" header_type="UInt32" compressor="vtkZLibDataCompressor">
  <UnstructuredGrid>
    <Piece NumberOfPoints="271" NumberOfCells="153">
      <PointData>
        <DataArray type="Int32" Name="libmesh_node_id" format="ascii" RangeMin="473" RangeMax="2259">
          475 476 483 484 1017 1018
          1019 1020 1021 1022 1023 1024
          1025 1026 1027 1028 1029 1030
          1045 1046 1047 1048 1052 1053
          1065 1066 1067 1068 1069 1070
          1071 1072 1073 1074 1075 1076
          1079 1081 1082 1084 1989 1990
          1991 1992 1993 1995 1996 1997
          1998 1999 2000 2001 2002 2003
          2004 2005 2006 2007 2008 2009
          2010 2011 2012 2013 2014 2016
          2017 2018 2020 2021 2022 2023
          2024 2025 2026 2027 2028 2029
          2030 2031 2032 2033 2034 2035
          2036 2037 2038 2042 2043 2045
          2046 2048 2063 2064 2067 2068
          2070 2072 2084 2085 2086 2088
          2089 2090 2091 2092 2093 2094
          2095 2096 2097 2098 2099 2100
          2101 2102 2113 2114 2115 2116
          2117 2118 2119 2120 2121 2122
          2123 2124 2125 2126 2127 2128
          2129 2130 2131 2132 2133 2134
          2135 2136 2137 2138 2139 2140
          2141 2142 2143 2144 2145 2146
          2147 2148 2149 2150 2151 2152
          2153 2154 2155 2156 2157 2158
          2159 2160 2161 2162 2163 2164
          2165 2166 2167 2168 2169 2170
          2171 2172 2173 2174 2175 2176
          2177 2178 2179 2180 2181 2182
          2183 2184 2185 2186 2187 2188
          2189 2190 2201 2202 2203 2204
          2205 2206 2207 2215 2216 2217
          2218 2219 2220 2221 2222 2223
          2224 2235 2236 2237 2238 2239
          2240 2241 2249 2250 2251 2252
          2256 2257 2258 2259 473 474
          1031 1032 1033 1034 1038 1039
          2039 2040 2041 2044 1041 2047
          1042 2065 2066 2069 2071 1044
          2059 2060 2191 2192 2062 2195
          2197 2198 2200 2080 2208 2082
          2210 2212 2214 2225 2226 2229
          2231 2232 2234 2242 2244 2246
          2248
        </DataArray>
        <DataArray type="Float64" Name="bounds" format="ascii" RangeMin="0" RangeMax="0">
          0 0 0 0 0 0
          0 0 0 0 0 0
          0 0 0 0 0 0
          0 0 0 0 0 0
          0 0 0 0 0 0
          0 0 0 0 0 0
          0 0 0 0 0 0
          0 0 0 0 0 0
          0 0 0 0 0 0
          0 0 0 0 0 0
          0 0 0 0 0 0
          0 0 0 0 0 0
          0 0 0 0 0 0
          0 0 0 0 0 0
          0 0 0 0 0 0
          0 0 0 0 0 0
          0 0 0 0 0 0
          0 0 0 0 0 0
          0 0 0 0 0 0
          0 0 0 0 0 0
          0 0 0 0 0 0
          0 0 0 0 0 0
          0 0 0 0 0 0
          0 0 0 0 0 0
          0 0 0 0 0 0
          0 0 0 0 0 0
          0 0 0 0 0 0
          0 0 0 0 0 0
          0 0 0 0 0 0
          0 0 0 0 0 0
          0 0 0 0 0 0
          0 0 0 0 0 0
          0 0 0 0 0 0
          0 0 0 0 0 0
          0 0 0 0 0 0
          0 0 0 0 0 0
          0 0 0 0 0 0
          0 0 0 0 0 0
          0 0 0 0 0 0
          0 0 0 0 0 0
          0 0 0 0 0 0
          0 0 0 0 0 0
          0 0 0 0 0 0
          0 0 0 0 0 0
          0 0 0 0 0 0
          0
        </DataArray>
        <DataArray type="Float64" Name="gradient_error" format="ascii" RangeMin="5.7686408513780203e-11" RangeMax="1.3023601659023881e-8">
          7.934943541215831e-10 3.953048937572503e-10 3.502498969430623e-9 1.5402318314370256e-9 2.066504057448529e-9 1.9077045471568853e-9
          1.3674059733997305e-9 1.2462745715752023e-9 7.690289944932808e-10 5.356229267870089e-10 4.87813783933153e-10 1.4935050208433118e-9
          9.472039705173069e-10 3.700421623264822e-10 2.331898046944909e-9 1.93770705532791e-9 6.611374907006301e-10 1.1436150783964254e-9
          9.825765816763578e-10 1.025112584999774e-9 4.1298914986728267e-10 4.181670750027656e-10 9.051814030457559e-10 3.4262442314562854e-10
          7.241368769107706e-9 5.970194055305344e-9 2.5395406803060066e-9 2.052783946381027e-9 3.1584088130151237e-9 1.0688533673518549e-9
          9.190808171382667e-9 8.259300711714899e-9 2.961040746194425e-9 4.535987681855493e-9 6.924582069273754e-10 5.583535602825769e-10
          2.973891777761169e-10 9.901608272559094e-10 8.128619723660261e-10 4.223095535941646e-10 1.7341909870402268e-9 1.6661146697512718e-9
          6.460953809688496e-10 1.0791869028233948e-9 1.0379590310947612e-9 1.4806401162908234e-9 9.250233593532728e-10 3.702033151210483e-9
          3.5357355326179123e-9 2.2256089030772713e-9 3.0835454077483347e-9 4.005211965022967e-10 3.87452180864909e-10 6.462516467057873e-10
          6.218691002277934e-10 2.2769740938890594e-10 3.736890303686236e-10 3.597467689306167e-10 3.5134030302951285e-10 5.550409491936087e-10
          3.216463024028102e-10 1.3937568731325531e-9 1.3302362259038884e-9 7.577230188384637e-10 1.158531100245317e-9 1.2238160379957548e-9
          4.982166872486576e-10 7.676727619946394e-10 9.487626861718116e-10 5.966627915310183e-10 2.466596164665352e-9 1.5470965359568725e-9
          1.826696170247407e-9 2.9998049331511913e-10 4.6168432774296915e-10 1.768755196183153e-10 2.6850694744846606e-10 2.414844517157687e-10
          3.596892167352059e-10 2.1026515644130867e-10 9.260728776348885e-10 5.304919347479867e-10 6.861482890145195e-10 1.3329929141086286e-10
          1.290129839788429e-10 2.080777820167471e-10 2.0049918520305086e-10 1.1752738666295138e-10 1.7978242074834014e-10 4.3215230502041247e-10
          4.130764954062751e-10 3.614239671807998e-10 1.0149404765785323e-10 1.5098302924664674e-10 8.31738213643966e-11 1.193635088725372e-10
          2.919732222589937e-10 2.1993343775152504e-10 6.922846591087958e-10 3.106671352751216e-10 4.365370466916743e-10 5.714341417461477e-10
          3.617784749701727e-10 1.2653906699325986e-9 7.908108025724011e-10 9.397315270799704e-10 1.8696103941950416e-10 2.6325390660722653e-10
          1.1245308188790303e-10 1.5600546188607318e-10 1.6261672120620467e-10 2.179026905925614e-10 1.3100640847345072e-10 4.748470354935923e-10
          2.759235927157622e-10 3.5215977493729716e-10 7.12071101521469e-9 6.779987329228828e-9 4.557130970221639e-9 4.330344635056241e-9
          5.84004149601017e-9 3.7111160109164794e-9 1.0981544286148484e-8 1.054454851354259e-8 6.917234161866857e-9 9.21363267558527e-9
          2.739635391234229e-9 2.60006095576767e-9 1.5524668016377042e-9 1.4728457953267478e-9 2.2220768154247707e-9 1.2584451752808312e-9
          4.438074997608696e-9 4.223980262794381e-9 2.4110878875269137e-9 3.614868759556132e-9 4.5467850317351716e-9 2.8717742480352992e-9
          3.228586525686318e-9 2.0284009900088593e-9 7.1808414910605365e-9 4.590674588271449e-9 4.994666897930357e-9 1.715629205006876e-9
          9.732462090203373e-10 1.2115160235463407e-9 6.90542297918286e-10 2.7559869105711064e-9 1.559525360138537e-9 1.8867103432767613e-9
          1.2880001618384566e-8 1.2669889700431552e-8 8.866506973374379e-9 8.620495893198325e-9 1.1594690821990163e-8 7.693834394217712e-9
          1.301470614120334e-8 1.3023601659023881e-8 9.045817607841548e-9 1.2296722291623797e-8 5.601400198873964e-9 5.401186406872163e-9
          3.275846129704173e-9 3.1393809175254395e-9 4.736165784147761e-9 2.7176496191817413e-9 5.910389535643166e-9 5.750347767473806e-9
          3.378627741445947e-9 5.1284270748998695e-9 9.320237995896848e-9 6.038660951024548e-9 6.510296790404958e-9 4.145405410895069e-9
          1.0096481934099706e-8 6.582456986403673e-9 7.102027865014255e-9 3.656102592802984e-9 2.075936518435489e-9 2.4832599083151933e-9
          1.4049888595976724e-9 4.00273218137855e-9 2.2784692404172227e-9 2.72172858089515e-9 8.335503848718924e-10 7.911382459155925e-10
          4.2651826001751684e-10 4.052647092893098e-10 6.772796139135802e-10 3.4821910893093604e-10 1.364329392037509e-9 1.2936512787367958e-9
          6.564482388402668e-10 1.0992718051495406e-9 5.26679665959208e-10 2.726787465023817e-10 3.7730374342798167e-10 1.970386880781978e-10
          8.359800623018385e-10 4.2676127045270654e-10 5.764777350070395e-10 1.7845494793505013e-9 1.7028671423787012e-9 9.118022995863883e-10
          8.677925230383533e-10 1.4618747627252956e-9 7.41896097641878e-10 1.9260926069515753e-9 1.8465406147297041e-9 9.454107587714685e-10
          1.5989546634507996e-9 1.1114733196931344e-9 5.644366062269471e-10 7.544289364427283e-10 3.863793583142935e-10 1.2208714130184604e-9
          6.195323984917528e-10 8.261962106049686e-10 2.1342947002613237e-9 1.3351237304134713e-9 1.3348810893147228e-9 8.316510578267249e-10
          7.985082045531224e-10 4.5848801601665247e-10 4.996269652520585e-10 2.904746089041222e-10 1.4448580399947944e-9 1.2267906674082373e-9
          3.0324190382502136e-10 2.810464669665322e-10 1.8890370668160912e-10 1.7365707866804792e-10 2.2641929401422916e-10 1.5962256736569453e-10
          7.228059457761464e-11 1.1242993192801244e-10 1.0848940572638339e-10 9.772982157075646e-11 2.2592911620748902e-10 2.1625272253923804e-10
          1.8992663649319882e-10 5.7686408513780203e-11 8.182523926552708e-11 7.346605966943029e-11 1.5356991803938298e-10 1.3577483117420195e-10
          1.1414326954732147e-10 1.0944453947012196e-10 2.094461724496828e-10 1.993396692479557e-10 9.663978419823584e-11 1.7218215526259017e-10
          3.3400483708992813e-10 3.1686994954970045e-10 2.7046090840252185e-10 7.836333087092053e-11 1.357828872540511e-10 6.630282274601312e-11
          9.879489278102326e-11 2.0850832381323728e-10 1.4733994379622374e-10 4.4019455054663306e-10 4.1846098341981063e-10 3.5758431560243e-10
          4.796081125906174e-10 4.568833557037305e-10 3.917261777120001e-10 2.7349724539452055e-10 1.8962807654515702e-10 2.9957234036807884e-10
          2.0667216866826963e-10
        </DataArray>
        <DataArray type="Float64" Name="gradient_matprop_error" format="ascii" RangeMin="0" RangeMax="0">
          0 0 0 0 0 0
          0 0 0 0 0 0
          0 0 0 0 0 0
          0 0 0 0 0 0
          0 0 0 0 0 0
          0 0 0 0 0 0
          0 0 0 0 0 0
          0 0 0 0 0 0
          0 0 0 0 0 0
          0 0 0 0 0 0
          0 0 0 0 0 0
          0 0 0 0 0 0
          0 0 0 0 0 0
          0 0 0 0 0 0
          0 0 0 0 0 0
          0 0 0 0 0 0
          0 0 0 0 0 0
          0 0 0 0 0 0
          0 0 0 0 0 0
          0 0 0 0 0 0
          0 0 0 0 0 0
          0 0 0 0 0 0
          0 0 0 0 0 0
          0 0 0 0 0 0
          0 0 0 0 0 0
          0 0 0 0 0 0
          0 0 0 0 0 0
          0 0 0 0 0 0
          0 0 0 0 0 0
          0 0 0 0 0 0
          0 0 0 0 0 0
          0 0 0 0 0 0
          0 0 0 0 0 0
          0 0 0 0 0 0
          0 0 0 0 0 0
          0 0 0 0 0 0
          0 0 0 0 0 0
          0 0 0 0 0 0
          0 0 0 0 0 0
          0 0 0 0 0 0
          0 0 0 0 0 0
          0 0 0 0 0 0
          0 0 0 0 0 0
          0 0 0 0 0 0
          0 0 0 0 0 0
          0
        </DataArray>
        <DataArray type="Float64" Name="initial_marker" format="ascii" RangeMin="0" RangeMax="2">
          2 2 2 2 0 0
          1 1 0 1 0.75 0
          0.5 0 2 2 2 2
          0 0 0 0 1.5 0.75
          2 2 2 2 2 2
          2 2 2 2 2 2
          2 2 2 2 2 2
          2 2 2 2 2 2
          2 2 2 2 2 2
          2 2 2 2 2 2
          1.75 2 2 2 2 2
          2 2 1.75 1.5 2 2
          2 1.5 1.75 0.5 1.25 0.5
          1.25 1 2 2 2 1
          1 1.5 1.5 0.5 1.25 2
          2 2 0 1 0 0.75
          2 1.75 1.25 0 1 1
          1 2 2 2 0 0.75
          0 0.5 0 0.5 0 1.75
          1.5 1.6666666666666667 2 2 2 2
          2 2 2 2 2 2
          2 2 2 2 2 2
          2 2 2 2 2 2
          2 2 2 2 2 2
          2 2 2 2 2 2
          2 2 2 2 2 2
          2 2 2 2 2 2
          2 2 2 2 2 2
          2 2 2 2 2 2
          2 2 2 2 2 2
          2 2 2 2 2 2
          2 2 2 2 2 2
          2 2 2 2 2 2
          2 2 2 2 2 2
          2 2 2 2 2 2
          2 2 2 2 2 2
          2 2 2 2 2 2
          2 2 2 1.75 0 0
          0 0 0 0 0 0
          0 1 1 1 2 2
          2 0 1 0.6666666666666666 2 1.5
          2 2 2 2 2 2
          2 2 2 1.75 2 1.6666666666666667
          2 2 2 2 2 2
          2 2 2 2 2 2
          2
        </DataArray>
        <DataArray type="Float64" Name="markers_norefine" format="ascii" RangeMin="0" RangeMax="0">
          0 0 0 0 0 0
          0 0 0 0 0 0
          0 0 0 0 0 0
          0 0 0 0 0 0
          0 0 0 0 0 0
          0 0 0 0 0 0
          0 0 0 0 0 0
          0 0 0 0 0 0
          0 0 0 0 0 0
          0 0 0 0 0 0
          0 0 0 0 0 0
          0 0 0 0 0 0
          0 0 0 0 0 0
          0 0 0 0 0 0
          0 0 0 0 0 0
          0 0 0 0 0 0
          0 0 0 0 0 0
          0 0 0 0 0 0
          0 0 0 0 0 0
          0 0 0 0 0 0
          0 0 0 0 0 0
          0 0 0 0 0 0
          0 0 0 0 0 0
          0 0 0 0 0 0
          0 0 0 0 0 0
          0 0 0 0 0 0
          0 0 0 0 0 0
          0 0 0 0 0 0
          0 0 0 0 0 0
          0 0 0 0 0 0
          0 0 0 0 0 0
          0 0 0 0 0 0
          0 0 0 0 0 0
          0 0 0 0 0 0
          0 0 0 0 0 0
          0 0 0 0 0 0
          0 0 0 0 0 0
          0 0 0 0 0 0
          0 0 0 0 0 0
          0 0 0 0 0 0
          0 0 0 0 0 0
          0 0 0 0 0 0
          0 0 0 0 0 0
          0 0 0 0 0 0
          0 0 0 0 0 0
          0
        </DataArray>
        <DataArray type="Float64" Name="markers_mustrefine" format="ascii" RangeMin="0" RangeMax="2">
          2 2 2 2 0 0
          1 1 0 1 0.75 0
          0.5 0 2 2 2 2
          0 0 0 0 1.5 0.75
          2 2 2 2 2 2
          2 2 2 2 2 2
          2 2 2 2 2 2
          2 2 2 2 2 2
          2 2 2 2 2 2
          2 2 2 2 2 2
          1.75 2 2 2 2 2
          2 2 1.75 1.5 2 2
          2 1.5 1.75 0.5 1.25 0.5
          1.25 1 2 2 2 1
          1 1.5 1.5 0.5 1.25 2
          2 2 0 1 0 0.75
          2 1.75 1.25 0 1 1
          1 2 2 2 0 0.75
          0 0.5 0 0.5 0 1.75
          1.5 1.6666666666666667 2 2 2 2
          2 2 2 2 2 2
          2 2 2 2 2 2
          2 2 2 2 2 2
          2 2 2 2 2 2
          2 2 2 2 2 2
          2 2 2 2 2 2
          2 2 2 2 2 2
          2 2 2 2 2 2
          2 2 2 2 2 2
          2 2 2 2 2 2
          2 2 2 2 2 2
          2 2 2 2 2 2
          2 2 2 2 2 2
          2 2 2 2 2 2
          2 2 2 2 2 2
          2 2 2 2 2 2
          2 2 2 2 2 2
          2 2 2 1.75 0 0
          0 0 0 0 0 0
          0 1 1 1 2 2
          2 0 1 0.6666666666666666 2 1.5
          2 2 2 2 2 2
          2 2 2 1.75 2 1.6666666666666667
          2 2 2 2 2 2
          2 2 2 2 2 2
          2
        </DataArray>
        <DataArray type="Float64" Name="gradient_marker" format="ascii" RangeMin="1" RangeMax="1">
          1 1 1 1 1 1
          1 1 1 1 1 1
          1 1 1 1 1 1
          1 1 1 1 1 1
          1 1 1 1 1 1
          1 1 1 1 1 1
          1 1 1 1 1 1
          1 1 1 1 1 1
          1 1 1 1 1 1
          1 1 1 1 1 1
          1 1 1 1 1 1
          1 1 1 1 1 1
          1 1 1 1 1 1
          1 1 1 1 1 1
          1 1 1 1 1 1
          1 1 1 1 1 1
          1 1 1 1 1 1
          1 1 1 1 1 1
          1 1 1 1 1 1
          1 1 1 1 1 1
          1 1 1 1 1 1
          1 1 1 1 1 1
          1 1 1 1 1 1
          1 1 1 1 1 1
          1 1 1 1 1 1
          1 1 1 1 1 1
          1 1 1 1 1 1
          1 1 1 1 1 1
          1 1 1 1 1 1
          1 1 1 1 1 1
          1 1 1 1 1 1
          1 1 1 1 1 1
          1 1 1 1 1 1
          1 1 1 1 1 1
          1 1 1 1 1 1
          1 1 1 1 1 1
          1 1 1 1 1 1
          1 1 1 1 1 1
          1 1 1 1 1 1
          1 1 1 1 1 1
          1 1 1 1 1 1
          1 1 1 1 1 1
          1 1 1 1 1 1
          1 1 1 1 1 1
          1 1 1 1 1 1
          1
        </DataArray>
        <DataArray type="Float64" Name="gradient_matprop_marker" format="ascii" RangeMin="0" RangeMax="0">
          0 0 0 0 0 0
          0 0 0 0 0 0
          0 0 0 0 0 0
          0 0 0 0 0 0
          0 0 0 0 0 0
          0 0 0 0 0 0
          0 0 0 0 0 0
          0 0 0 0 0 0
          0 0 0 0 0 0
          0 0 0 0 0 0
          0 0 0 0 0 0
          0 0 0 0 0 0
          0 0 0 0 0 0
          0 0 0 0 0 0
          0 0 0 0 0 0
          0 0 0 0 0 0
          0 0 0 0 0 0
          0 0 0 0 0 0
          0 0 0 0 0 0
          0 0 0 0 0 0
          0 0 0 0 0 0
          0 0 0 0 0 0
          0 0 0 0 0 0
          0 0 0 0 0 0
          0 0 0 0 0 0
          0 0 0 0 0 0
          0 0 0 0 0 0
          0 0 0 0 0 0
          0 0 0 0 0 0
          0 0 0 0 0 0
          0 0 0 0 0 0
          0 0 0 0 0 0
          0 0 0 0 0 0
          0 0 0 0 0 0
          0 0 0 0 0 0
          0 0 0 0 0 0
          0 0 0 0 0 0
          0 0 0 0 0 0
          0 0 0 0 0 0
          0 0 0 0 0 0
          0 0 0 0 0 0
          0 0 0 0 0 0
          0 0 0 0 0 0
          0 0 0 0 0 0
          0 0 0 0 0 0
          0
        </DataArray>
        <DataArray type="Float64" Name="combo" format="ascii" RangeMin="1" RangeMax="1">
          1 1 1 1 1 1
          1 1 1 1 1 1
          1 1 1 1 1 1
          1 1 1 1 1 1
          1 1 1 1 1 1
          1 1 1 1 1 1
          1 1 1 1 1 1
          1 1 1 1 1 1
          1 1 1 1 1 1
          1 1 1 1 1 1
          1 1 1 1 1 1
          1 1 1 1 1 1
          1 1 1 1 1 1
          1 1 1 1 1 1
          1 1 1 1 1 1
          1 1 1 1 1 1
          1 1 1 1 1 1
          1 1 1 1 1 1
          1 1 1 1 1 1
          1 1 1 1 1 1
          1 1 1 1 1 1
          1 1 1 1 1 1
          1 1 1 1 1 1
          1 1 1 1 1 1
          1 1 1 1 1 1
          1 1 1 1 1 1
          1 1 1 1 1 1
          1 1 1 1 1 1
          1 1 1 1 1 1
          1 1 1 1 1 1
          1 1 1 1 1 1
          1 1 1 1 1 1
          1 1 1 1 1 1
          1 1 1 1 1 1
          1 1 1 1 1 1
          1 1 1 1 1 1
          1 1 1 1 1 1
          1 1 1 1 1 1
          1 1 1 1 1 1
          1 1 1 1 1 1
          1 1 1 1 1 1
          1 1 1 1 1 1
          1 1 1 1 1 1
          1 1 1 1 1 1
          1 1 1 1 1 1
          1
        </DataArray>
        <DataArray type="Float64" Name="dHdT" format="ascii" RangeMin="25.827425839449226" RangeMax="32.452721216235204">
          26.011042356481642 25.91548643121248 26.933668548073335 26.196192322339833 25.903409893641197 25.898111650501075
          25.953221157051324 25.940027694490162 25.851271607874715 25.868622246301083 25.863642045667092 25.883751385170108
          25.909322527236668 25.85270435456492 26.40282643703852 26.303088634745475 25.978566592559954 26.109370311312947
          25.866962014285704 25.883758480072302 25.840404920087135 25.845588009970804 25.95988729122628 25.86886982822108
          27.936057940820017 27.42305425709637 26.491002819309784 26.335525797662346 26.600410119434088 26.07464845759875
          29.475364883999745 28.461474329250866 26.648126885545736 26.978198309884718 25.990390858874903 25.951501479282896
          25.88598084105447 26.099936096772616 26.029389491472323 25.916548782568732 26.271172985366174 26.254790286728987
          25.99740822545627 26.10050388352486 26.09020547280395 26.209992198510466 26.062042550774795 26.763263751955257
          26.71944000711152 26.37562109836719 26.602109081587322 25.930383781646718 25.92692398044589 25.98654836797408
          25.980381118364804 25.881356895505185 25.914020436323774 25.910578802116984 25.917482785807103 25.963552625112616
          25.901198866918982 26.162798274240657 26.146791868493818 26.002203319016704 26.104116099829177 26.147264255282472
          25.95968780958534 26.022746395090728 26.079158335661226 25.980611852134253 26.4463208209508 26.206852408041744
          26.288636800499667 25.903997108930195 25.94026016383155 25.868353940101965 25.888175236126113 25.88924496393947
          25.915622161469035 25.874398284284602 26.04751444138238 25.947127949150214 25.99041696155167 25.853954726229702
          25.85291193591757 25.870102463175527 25.868277581111286 25.85003171830049 25.863289010620118 25.920718385584706
          25.916093298066862 25.9037313640071 25.8458712209226 25.856296583455453 25.841370462944727 25.848862454189096
          25.88720641655618 25.87043696336194 26.01688725411045 25.912186341255214 25.943098571363738 25.988409538534256
          25.926288189173874 26.153009377028035 26.026230760766957 26.076308454128633 25.87626015769863 25.89415067033416
          25.852943011406218 25.862662342079503 25.870523213009573 25.884685963923637 25.857618021914256 25.942259678171894
          25.889055523195196 25.91587225712962 27.74082892129922 27.62633717828311 26.990235437124507 26.92239885060148
          27.33284129907024 26.747659603230833 29.42854169707344 29.156591074998758 27.78965450680566 28.492750069822904
          26.50381798513627 26.46505902814725 26.199516784215096 26.178140654617373 26.364017822062007 26.122316796183433
          27.037078293382976 26.956396026204974 26.44730352817932 26.751385254643697 26.969429355384577 26.52813925422035
          26.630028498630672 26.320016120309965 27.73373144409051 26.986594300940045 27.08769124216636 26.235838078632984
          26.051309595659497 26.11385627586416 25.983719826485025 26.502292013901908 26.19859286146631 26.278104118875106
          31.4617026230174 30.968777865095397 28.98734370943977 28.741762463919862 29.795836426470814 28.138149771701272
          32.452721216235204 31.845227532814217 29.180774138848605 30.408948398310457 27.606403081237794 27.47608272040256
          26.796996409402567 26.727657823896436 27.150176568617766 26.55264641162249 27.86340195180231 27.70974596398575
          26.852383971364347 27.32700853683194 28.52825852089978 27.446846952063087 27.52727310806369 26.865698447896783
          28.885934251172884 27.64888397519941 27.716178365425012 26.765555175204376 26.34330293518996 26.432625869305767
          26.16012837988741 26.879696815839058 26.405779972616127 26.49792148848489 26.018517234243134 26.007404304747418
          25.917471611065828 25.912077068225877 25.9784128754377 25.897982179376438 26.169363994713088 26.146747971939085
          25.97947605537736 26.088908296443158 25.941480811032985 25.879946666901603 25.90625614949649 25.862596580445235
          26.017930445778983 25.917182486113514 25.95362627624432 26.32684136425025 26.291289132486597 26.06627466914631
          26.04917842698926 26.20112130267238 26.005637838033195 26.396802636512533 26.35534756076113 26.080043664915422
          26.250335338259397 26.09285172977462 25.95335416170301 25.997913546317708 25.907519281526774 26.1251133029332
          25.96891385230204 26.016567357849333 26.360845871198833 26.154122683755325 26.169762993678 26.036983886798186
          26.01667518830346 25.93006715373978 25.9486633449293 25.89261843719598 25.84281995999068 25.83828733227099
          25.830292937094548 25.82930251881185 25.83338319713969 25.831877790139323 25.827425839449226 25.828651356272534
          25.835939116541347 25.844566194071813 25.8436427794946 25.841121992722634 25.869716838430318 25.867430828604
          25.86131925437982 25.83236465835947 25.83763363098527 25.836072048842965 25.853112718145617 25.844046550792676
          25.842091958720452 25.84101884271734 25.864349853203514 25.86187814550278 25.838159150164984 25.855398554556075
          25.897467600037007 25.89256462151286 25.87995765399802 25.83443100407483 25.847076768123763 25.83214979736488
          25.839046206307206 25.86434410379759 25.849949884414876 25.93136717641496 25.923713724166934 25.904284687223104
          25.946367122892042 25.937440030952608 25.914873618477827 25.88081254953027 25.85990502500114 25.88783927914398
          25.864045243563456
        </DataArray>
        <DataArray type="Float64" Name="dk/dtemperature" format="ascii" RangeMin="0.010064297050849297" RangeMax="0.015804580349343195">
          0.015762814551807676 0.015804580349343192 0.01439208108668937 0.015472844180363817 0.015804580349343195 0.015804580349343192
          0.015804580349343195 0.015804580349343192 0.015804580349343192 0.015804580349343195 0.015804580349343192 0.015804580349343192
          0.015804580349343192 0.01580458034934319 0.015121231517376578 0.015293955734293027 0.015773256001191553 0.015617829366085747
          0.015804580349343192 0.015804580349343192 0.015804580349343192 0.015804580349343192 0.015794138899959315 0.015804580349343195
          0.013312456986466778 0.01385724070561642 0.015042480344915038 0.0152336972492945 0.014844845913167006 0.01566884150735277
          0.01186550872507763 0.01276925341136359 0.014775783083543678 0.014361892337941114 0.015762814551807676 0.015794138899959315
          0.015804580349343192 0.015637517159201135 0.015721048754272163 0.015804580349343192 0.015373210109134519 0.015392897902249902
          0.015804580349343192 0.015637517159201135 0.015647958608585012 0.015442714937864553 0.015679282956736647 0.014649100187368027
          0.014699167975660525 0.015178407887797937 0.01483880663609553 0.015804580349343195 0.015804580349343195 0.015762814551807676
          0.015773256001191557 0.015804580349343195 0.015804580349343195 0.015804580349343192 0.015804580349343195 0.015794138899959315
          0.015804580349343192 0.015517000189204076 0.015556375775434844 0.015762814551807676 0.01562707570981725 0.015534297771014716
          0.015804580349343192 0.01573149020365604 0.01565840005796889 0.015783697450575434 0.015041410191345524 0.015433468594133045
          0.015303202078024535 0.015804580349343192 0.01580458034934319 0.015804580349343192 0.015804580349343192 0.015804580349343192
          0.015804580349343192 0.015804580349343185 0.015700165855504405 0.01579413889995931 0.015773256001191557 0.015804580349343192
          0.015804580349343195 0.015804580349343192 0.015804580349343192 0.015804580349343192 0.015804580349343192 0.015804580349343192
          0.015804580349343192 0.015804580349343192 0.015804580349343192 0.015804580349343192 0.015804580349343192 0.01580458034934319
          0.015804580349343192 0.015804580349343192 0.0157523731024238 0.015804580349343192 0.015804580349343192 0.015783697450575434
          0.015804580349343195 0.015544739220398595 0.0157523731024238 0.01567928295673665 0.015804580349343195 0.015804580349343192
          0.015804580349343192 0.015804580349343192 0.015804580349343195 0.015804580349343195 0.015804580349343192 0.015804580349343192
          0.015804580349343192 0.015804580349343192 0.013499653362879435 0.013614634258184965 0.014333461403474164 0.014437311491659765
          0.013941590004554862 0.014678788279272714 0.012020365863457503 0.01221082711575493 0.013456626165345553 0.012755478246212582
          0.015005494969989009 0.015062168138030421 0.015517000189204076 0.015526246532935582 0.015205455015720033 0.01558650501793411
          0.014329184183244626 0.014413785931885168 0.015089215265952517 0.014657401329612884 0.014351703338259334 0.014946053340345766
          0.014793078968330067 0.015263826491793767 0.013503423986680533 0.014365038201327902 0.014229046061123254 0.015392897902249902
          0.015689724406120528 0.015607387916701868 0.01577325600119156 0.014984233820924163 0.015453156387248432 0.015332136214871428
          0.010647509683836792 0.010942196729080526 0.012297754478378472 0.012505764065164385 0.011711275809797002 0.013080042084253478
          0.010064297050849297 0.010421067538230988 0.01210741987518815 0.011302425884312206 0.013634506509632207 0.013782323905765588
          0.014582045076191728 0.014678914079867704 0.014160170235368148 0.014906049599652187 0.013308682968617192 0.013490592325991908
          0.014510841939429373 0.013945993873891517 0.012716605013849618 0.01381773762176641 0.013707787053236088 0.014498387680525707
          0.012373612237155308 0.013588968391271343 0.01347033843019908 0.014637085382034695 0.015223255799910622 0.0150856299489954
          0.015534297771014718 0.014495747565055247 0.015135950186989999 0.014979831648611762 0.015762814551807676 0.01576281455180768
          0.015804580349343192 0.015804580349343192 0.015773256001191553 0.015804580349343192 0.015535492876667091 0.015565622119166353
          0.015773256001191553 0.015637517159201135 0.015794138899959315 0.015804580349343192 0.015804580349343192 0.015804580349343192
          0.015731490203656044 0.015804580349343192 0.015794138899959315 0.01525269313913746 0.015301315069099737 0.015679282956736647
          0.015689724406120525 0.015451961281596061 0.0157523731024238 0.015155449279212904 0.015192434654138932 0.01563751715920113
          0.015370819897829775 0.015647958608585012 0.015804580349343192 0.01577325600119156 0.015804580349343192 0.015616634260433377
          0.015804580349343192 0.015762814551807676 0.015202372901142864 0.015565622119166352 0.015502973422863081 0.01573149020365604
          0.015762814551807676 0.015804580349343195 0.015804580349343192 0.015804580349343192 0.015804580349343192 0.01580458034934319
          0.015804580349343192 0.015804580349343192 0.015804580349343192 0.015804580349343192 0.015804580349343192 0.015804580349343192
          0.015804580349343192 0.015804580349343192 0.015804580349343192 0.01580458034934319 0.015804580349343192 0.015804580349343192
          0.015804580349343192 0.015804580349343192 0.015804580349343192 0.015804580349343192 0.015804580349343192 0.015804580349343192
          0.015804580349343192 0.015804580349343192 0.015804580349343192 0.015804580349343192 0.015804580349343192 0.015804580349343192
          0.015804580349343192 0.015804580349343192 0.015804580349343192 0.015804580349343192 0.015804580349343192 0.015804580349343195
          0.015804580349343192 0.015804580349343192 0.015804580349343192 0.015804580349343192 0.015804580349343192 0.01580458034934319
          0.015804580349343192 0.015804580349343192 0.015804580349343192 0.015804580349343192 0.015804580349343192 0.015804580349343192
          0.01580458034934319
        </DataArray>