<?xml version="1.0"?>
<VTKFile type="UnstructuredGrid" version="0.1" byte_order="LittleEndian" header_type="UInt32" compressor="vtkZLibDataCompressor">
  <UnstructuredGrid>
    <Piece NumberOfPoints="486" NumberOfCells="281">
      <PointData>
        <DataArray type="Int32" Name="libmesh_node_id" format="ascii" RangeMin="406" RangeMax="4442">
          414 540 1058 1060 1074 1075
          1820 1821 1827 1829 1830 1831
          1832 1833 1834 1835 1836 1837
          1838 1839 1840 1841 1842 1853
          1854 1857 1858 1860 1933 1934
          1936 1941 1942 1943 1944 1945
          1946 1947 1948 1949 1950 1952
          1958 1959 1977 1978 1983 2043
          2044 2046 2047 2048 2053 3206
          3207 3208 3211 3214 3228 3229
          3231 3234 3246 3247 3248 3249
          3253 3254 3256 3257 3258 3259
          3260 3261 3262 3263 3264 3265
          3266 3267 3268 3269 3270 3271
          3272 3273 3274 3275 3276 3277
          3278 3279 3280 3281 3282 3283
          3284 3285 3286 3287 3288 3289
          3290 3291 3292 3293 3294 3295
          3296 3297 3298 3299 3300 3301
          3302 3303 3324 3325 3326 3327
          3328 3329 3330 3331 3332 3333
          3669 3670 3672 3675 3684 3685
          3689 3703 3704 3706 3719 3721
          3725 3726 3727 3728 3729 3730
          3731 3732 3733 3734 3735 3736
          3737 3738 3739 3740 3741 3742
          3743 3744 3745 3746 3747 3748
          3749 3750 3751 3752 3753 3754
          3755 3756 3757 3758 3759 3760
          3761 3762 3763 3764 3765 3766
          3767 3768 3769 3770 3771 3772
          3773 3774 3775 3776 3777 3778
          3779 3780 3781 3782 3783 3784
          3785 3786 3787 3788 3789 3790
          3791 3792 3805 3855 3856 3857
          3858 3859 3860 3861 3862 3863
          3864 3865 3866 3867 3868 3869
          3870 3871 3991 3992 3993 3994
          3995 3996 3997 3998 3999 4000
          4027 4028 4030 4033 4229 4230
          4231 4232 4233 4234 4235 4236
          4237 4238 4239 4240 4241 4242
          4243 4244 4245 4246 4247 4248
          4249 4250 4251 4252 4253 4254
          4255 4256 4257 4258 4259 4260
          4261 4262 4263 4264 4265 4266
          4270 4271 4273 4274 4276 4277
          4278 4279 4280 4281 4282 4283
          4284 4285 4286 4287 4288 4289
          4290 4291 4294 4295 4296 4297
          4298 4299 4300 4301 4302 4303
          4314 4316 4318 4320 4362 4363
          4364 4365 4366 4367 4368 4369
          4371 4399 4400 4403 4405 4406
          4408 4433 4434 4437 4439 4440
          4442 1048 406 1052 1049 1050
          1053 1054 1051 539 1055 1057
          1056 1816 1819 1822 1818 1824
          1823 1845 1846 1855 1856 1849
          1859 1861 2033 2034 2035 2036
          2040 2041 2038 2039 1112 2045
          2042 1113 2073 2071 2051 2052
          2074 2072 2258 2259 2261 3202
          3203 3204 3205 3209 3210 3212
          3213 3215 3226 3227 3230 3232
          3233 3235 3238 3221 3239 3250
          3251 3242 3252 1826 3244 3255
          1828 1059 3316 3317 3320 3322
          1851 3667 3668 3671 3673 3674
          3676 3662 3678 3686 3680 3687
          1932 3688 3682 3690 1935 3701
          3702 3705 3707 1072 3709 3708
          1939 3710 3718 3720 3723 3722
          1073 3724 3801 3803 4267 4268
          4269 4272 2049 4275 2050 4292
          4293 2054 4304 4305 4306 4307
          4308 4309 4310 4311 4313 4315
          4317 4319 2056 4321 4322 4323
          4324 4325 4370 4401 4402 4404
          2081 4407 2082 4409 4410 4413
          4435 4436 4438 2087 4441 2088
        </DataArray>
        <DataArray type="Float64" Name="bounds" format="ascii" RangeMin="0" RangeMax="0">
          0 0 0 0 0 0
          0 0 0 0 0 0
          0 0 0 0 0 0
          0 0 0 0 0 0
          0 0 0 0 0 0
          0 0 0 0 0 0
          0 0 0 0 0 0
          0 0 0 0 0 0
          0 0 0 0 0 0
          0 0 0 0 0 0
          0 0 0 0 0 0
          0 0 0 0 0 0
          0 0 0 0 0 0
          0 0 0 0 0 0
          0 0 0 0 0 0
          0 0 0 0 0 0
          0 0 0 0 0 0
          0 0 0 0 0 0
          0 0 0 0 0 0
          0 0 0 0 0 0
          0 0 0 0 0 0
          0 0 0 0 0 0
          0 0 0 0 0 0
          0 0 0 0 0 0
          0 0 0 0 0 0
          0 0 0 0 0 0
          0 0 0 0 0 0
          0 0 0 0 0 0
          0 0 0 0 0 0
          0 0 0 0 0 0
          0 0 0 0 0 0
          0 0 0 0 0 0
          0 0 0 0 0 0
          0 0 0 0 0 0
          0 0 0 0 0 0
          0 0 0 0 0 0
          0 0 0 0 0 0
          0 0 0 0 0 0
          0 0 0 0 0 0
          0 0 0 0 0 0
          0 0 0 0 0 0
          0 0 0 0 0 0
          0 0 0 0 0 0
          0 0 0 0 0 0
          0 0 0 0 0 0
          0 0 0 0 0 0
          0 0 0 0 0 0
          0 0 0 0 0 0
          0 0 0 0 0 0
          0 0 0 0 0 0
          0 0 0 0 0 0
          0 0 0 0 0 0
          0 0 0 0 0 0
          0 0 0 0 0 0
          0 0 0 0 0 0
          0 0 0 0 0 0
          0 0 0 0 0 0
          0 0 0 0 0 0
          0 0 0 0 0 0
          0 0 0 0 0 0
          0 0 0 0 0 0
          0 0 0 0 0 0
          0 0 0 0 0 0
          0 0 0 0 0 0
          0 0 0 0 0 0
          0 0 0 0 0 0
          0 0 0 0 0 0
          0 0 0 0 0 0
          0 0 0 0 0 0
          0 0 0 0 0 0
          0 0 0 0 0 0
          0 0 0 0 0 0
          0 0 0 0 0 0
          0 0 0 0 0 0
          0 0 0 0 0 0
          0 0 0 0 0 0
          0 0 0 0 0 0
          0 0 0 0 0 0
          0 0 0 0 0 0
          0 0 0 0 0 0
          0 0 0 0 0 0
        </DataArray>
        <DataArray type="Float64" Name="gradient_error" format="ascii" RangeMin="2.7026849892539343e-12" RangeMax="2.4917244271546718e-8">
          6.155072062069381e-9 7.3326418026757e-11 7.06204414715903e-10 3.298996029927387e-11 2.2766055681574725e-9 5.455812848124138e-10
          8.182936315497352e-11 8.499746605617946e-11 5.220532432425718e-10 6.214045872303508e-11 5.393730981609263e-11 4.8510772850044675e-11
          4.053480744784559e-11 1.8879596497489904e-11 1.655329713880109e-11 1.3600542296587717e-11 3.450725060583711e-11 3.345825248197816e-11
          1.975883682591594e-11 2.505521703069095e-10 1.84318326554921e-10 5.4171988133069136e-11 8.305274038250603e-11 1.95870903142115e-11
          3.2141535716117494e-11 1.5893840325898976e-11 3.0714265066890235e-11 5.09559634137795e-11 5.07601116352768e-9 3.690046740239268e-9
          1.3502626894124892e-9 1.8783751542568385e-9 1.3406668364911287e-9 5.449593633025983e-10 3.8716253671564947e-10 4.778508990506002e-10
          1.3948460762239892e-10 7.434935922901263e-9 5.5219921609608956e-9 1.636869324465116e-9 1.8839933303809845e-9 2.992523456786444e-10
          1.1347840399468326e-10 4.555019738802859e-11 4.93428824530206e-9 3.768527496817367e-9 4.904572607408677e-9 2.1839432747922652e-11
          1.6622301784391096e-11 1.400999768054882e-11 1.26285874348144e-10 9.034390971855828e-11 5.267407796096056e-10 1.6492147620037702e-11
          2.3101514224342153e-11 2.291905326430076e-11 2.2736592304259367e-11 7.42080264542451e-11 2.220316737608889e-10 2.0702378253769586e-10
          1.6820740665565406e-10 6.548017710183728e-10 9.372132095551611e-11 1.9291471674253932e-10 5.7890695556530063e-11 1.2022053489884153e-10
          5.702519396481326e-10 3.6003014672774266e-10 6.143284337146648e-11 5.7420705527395037e-11 1.340875889718106e-10 1.2497156066255542e-10
          3.2652428315994e-11 7.751709953983927e-11 7.226119627575686e-11 4.7251398756400116e-11 1.014699966027753e-10 5.880375832855466e-11
          4.308772788403622e-10 3.991387148387144e-10 2.3200586723513388e-10 3.173649829420295e-10 1.934683556538107e-11 1.8141668095681737e-11
          4.3036257406624074e-11 4.014561082919582e-11 9.972916181134205e-12 2.2929751128431923e-11 2.141368475796214e-11 1.5145439934671578e-11
          3.2743491793792605e-11 1.750036494738345e-11 1.388317302397358e-10 1.2857879952732802e-10 6.79595588202389e-11 1.0225190258884445e-10
          3.509624424007421e-11 7.238146835061483e-11 2.1014368912821117e-11 4.1923251756421384e-11 2.4128020907152634e-11 4.5932139355341046e-11
          3.049789137895663e-11 2.1816038226919244e-10 1.263974739602458e-10 1.3173052240966383e-10 1.223302426064245e-11 2.3432613553094555e-11
          6.75149725832754e-12 1.2631763278571223e-11 1.1111669277924146e-11 1.8633207770371468e-11 1.0160415049867906e-11 6.998995369304844e-11
          3.723244558818108e-11 5.067892546789251e-11 1.568469756751753e-11 2.6732599697970654e-11 1.288364388234459e-11 2.0055392842955647e-11
          1.2211611971401574e-11 1.9279396534238483e-11 1.5105671283857214e-11 7.17530800670648e-11 5.013596891953008e-11 4.37495785206789e-11
          2.0393877295614817e-9 1.8843281053764383e-9 1.4806510670380861e-9 4.699413165062428e-9 1.5469292277201234e-9 9.889152284258792e-10
          2.425275198568841e-9 1.0496156846886148e-8 9.808684873869542e-9 7.832458245218793e-9 5.172251287972166e-9 2.8274096299782415e-9
          1.2563247875237884e-9 1.1588798474977902e-9 7.328740698344357e-10 6.753965140832293e-10 9.068541127759645e-10 5.27412569898023e-10
          3.185841609383208e-9 2.940459549351861e-9 1.729719972749664e-9 2.2909651380560857e-9 4.051870108307504e-10 3.73276172838365e-10
          2.1260236450095856e-10 1.9591454756896297e-10 2.914316701573884e-10 1.5321015616389777e-10 1.0418294284507826e-9 9.580844587395e-10
          5.0086616493983e-10 7.407324395991975e-10 6.028944016190494e-10 3.501983400829621e-10 3.4703101059804666e-10 2.0149996124719408e-10
          1.4914283082758547e-9 8.684376432368964e-10 8.231019286700145e-10 1.9371145454110513e-10 1.0221591213606125e-10 1.1160991559976756e-10
          5.913904828810245e-11 4.794192738073368e-10 2.513242849887032e-10 2.6439281842899827e-10 6.7924016687575284e-9 6.31098845144236e-9
          4.090408148143816e-9 3.78397252023596e-9 4.969190592049511e-9 2.948957410939084e-9 1.1933338671314887e-8 1.1248391010302837e-8
          6.9507565472361305e-9 9.105266296827574e-9 2.2982004714848368e-9 2.119060080786453e-9 1.2081173574812305e-9 1.1116650547850136e-9
          1.6399365423583636e-9 8.572326025014475e-10 4.272139193555285e-9 3.9699756061079635e-9 2.1063259006621296e-9 3.1124169880729727e-9
          3.227685948066279e-9 1.894545793313795e-9 1.738360593327902e-9 1.012431126263869e-9 6.010952427401213e-9 3.574793522077487e-9
          3.2148061456932564e-9 1.0477656732032945e-9 5.474269542469229e-10 5.59353809878412e-10 2.936898086353045e-10 1.9901484316246853e-9
          1.040586313512703e-9 1.0421531654810236e-9 6.624928443044666e-10 1.7901336451582242e-10 1.0376726064522277e-10 8.441657116603637e-11
          5.761495066996119e-11 4.015490938917995e-10 2.3299571832822816e-10 1.796951884152504e-10 3.399112535170913e-11 5.7314012464976636e-11
          1.812679549946236e-11 3.0459007893299866e-11 2.3549416346397227e-11 3.73330973438311e-11 1.987816179168919e-11 1.2905171806074138e-10
          6.849696970779434e-11 6.87525666050287e-11 6.669239347097868e-9 6.277572226197759e-9 3.6287767263746486e-9 3.3898016145261623e-9
          5.038816944730776e-9 2.6789063402341753e-9 8.85784466351611e-9 8.472964584149272e-9 4.666003046130652e-9 7.001485565693561e-9
          5.839600723539532e-9 5.583116554695139e-9 4.596328930036479e-9 5.911540655379644e-9 6.011876788560274e-12 5.63937230367445e-12
          1.1645535409365104e-11 1.0884110452430182e-11 4.2454217854184845e-12 7.661700934184491e-12 7.1659434951912845e-12 4.68271155067539e-12
          8.937571639047327e-12 5.8984476117722204e-12 3.6914903868597984e-11 3.42475314633762e-11 2.0260218852752484e-11 2.7421580472539127e-11
          3.684687439518496e-12 6.500091977170167e-12 2.7026849892539343e-12 4.397406471618688e-12 3.2708195964748403e-12 5.247726171740944e-12
          3.668103775891016e-12 1.9034066756894157e-11 1.1536215765520218e-11 1.4015428526385274e-11 1.0619120684198506e-10 9.793831987553062e-11
          5.04472236458126e-11 4.658627667171946e-11 7.683311465167152e-11 3.6724190608876856e-11 2.694456689383332e-10 2.4770003082731127e-10
          1.16205046888476e-10 1.9182686668007464e-10 1.22157555681435e-11 1.1446752578693683e-11 2.268996023904004e-11 2.098366086203081e-11
          9.370334703747776e-12 1.661363633857574e-11 5.6285823918267654e-11 5.1888557530021304e-11 4.056302183576248e-11 5.160748403456691e-11
          2.4807869023758857e-11 2.9996114928719765e-11 1.7121060980039424e-11 1.2540451598534908e-10 5.951433740697086e-11 7.023997931822067e-11
          6.842937903561653e-12 1.132914635592562e-11 4.49971878196562e-12 7.036552747728982e-12 5.622955988871618e-12 8.708381519721339e-12
          5.630029595625953e-12 2.687162172962848e-11 5.966069579037109e-10 5.484336945739394e-10 2.778698676225532e-10 2.5544112584889513e-10
          4.2263565128978035e-10 1.9725204174067595e-10 1.1310412380451193e-9 1.0434578626875144e-9 4.852044466148196e-10 8.070703061029709e-10
          2.71041246060245e-10 1.4689896360889368e-10 5.130100587911797e-10 2.709707983541011e-10 9.615188008333482e-12 1.5601521115473527e-11
          6.883501949762946e-12 1.048981209973924e-11 6.794353691240098e-12 1.0444984048374478e-11 7.40181431414085e-12 3.48548577102197e-11
          1.898108891505657e-11 1.8250043223036763e-9 1.6956647617477003e-9 1.3267306373420412e-9 2.5195282601980407e-9 2.3627148072770618e-9
          1.8785379624770805e-9 3.0208255775459805e-9 2.856494662516021e-9 2.3040586081779256e-9 3.2006751811206926e-9 3.036951261517041e-9
          2.4639950231849265e-9 3.1776763950115385e-11 1.7835527705438063e-11 2.244785182795107e-11 7.745754344775106e-11 4.2712513809587105e-11
          2.3744903698801106e-11 2.0734329689411226e-11 1.1007781370953428e-10 5.755997998264816e-11 1.1992823437129286e-10 3.6981612708322466e-11
          2.2093615711263216e-10 1.211404132698761e-10 7.081653120077876e-11 1.8690630412619557e-10 1.9365865489981042e-10 6.725388988972206e-11
          1.7257807427318544e-10 5.791886582390195e-11 6.888439286622505e-11 7.074467832954203e-12 1.998928100132648e-11 9.357679556664598e-11
          1.1190113053286099e-11 3.7631205634062485e-11 5.941265321883389e-12 5.296010449725878e-12 9.592411028003279e-12 7.916815486411145e-12
          3.909498368797459e-12 7.55175491864796e-12 7.615460559244156e-12 6.278845323796455e-12 9.544839083667935e-12 9.688716984124268e-12
          4.503862369093563e-12 1.154158100064377e-11 1.0194866378239475e-11 1.5466412668624748e-11 3.657630815272918e-11 1.583415011713091e-11
          1.4794008020886047e-11 1.9066979948810128e-11 2.9334684298290177e-12 6.700477119473834e-12 3.2488022058426223e-12 1.7906405664804336e-11
          1.9872875031816795e-11 3.096377089884692e-11 3.0159574422991494e-11 2.1839344398829257e-11 2.935537794713607e-11 1.0411902381648655e-10
          9.724247896401738e-11 9.721244919315308e-11 3.5139838203093087e-10 3.2826869601439673e-10 2.680771507639234e-10 1.1049836697682195e-9
          1.0260563799471484e-9 8.214715012822324e-10 1.4903608022902325e-10 4.134166076412354e-10 3.0077089065608536e-10 6.248588545581822e-11
          1.2440690470656513e-10 1.9653794289766595e-10 7.68374143843601e-11 1.240120176484193e-9 8.698682797737789e-10 3.4949030913228044e-10
          5.404530550671344e-10 2.187232003503467e-10 2.4452373940799188e-11 4.457944088599657e-11 3.1526200804150577e-11 1.1960332609933488e-10
          8.932109470218811e-11 3.1328208949119283e-9 2.9016936261815817e-9 2.29523607738628e-9 7.597879427057431e-9 7.061757278039474e-9
          5.601845887632335e-9 3.3831141370720835e-9 2.311122714121539e-9 9.033826667521098e-10 1.3724993075444519e-9 5.717178778364651e-10
          8.019755859223478e-9 3.733060587337176e-9 5.447086762016814e-9 2.10974803313612e-9 3.1454065849168553e-9 1.51043607437829e-8
          1.420659030095635e-8 1.1540351213312975e-8 2.4917244271546718e-8 1.7705936602364125e-8 1.6837523979126347e-8 2.3796004987725886e-8
          1.3930002037027352e-8 1.995998463558142e-8 7.792314287754238e-9 4.354626358775075e-9 9.439945421882333e-9 1.3864259857739894e-8
          5.168950671476596e-9 7.827962906102597e-9 2.960846198687939e-10 1.4121360181968685e-10 5.0646143861383095e-12 9.771733857385267e-12
          9.002047857077667e-12 8.302599871124045e-12 2.3961817511962446e-11 2.2014157128639606e-11 1.8896859715796714e-11 1.4049416003110165e-11
          1.8141375397745927e-11 3.7482857848105953e-10 1.2252873024376035e-10 1.1278497793545872e-10 5.136726924752386e-11 4.735186019283304e-11
          8.751963006371136e-11 3.693841378552968e-11 2.3118061370174786e-10 2.1285675986924437e-10 1.6467604855120378e-10 1.2752395888827905e-10
          6.996467826752548e-11 2.3942699132156837e-10 1.2805115240043155e-10 5.7213786073104197e-11 2.4352034301467774e-11 3.1689307233490116e-11
          1.633568824990828e-11 1.0627427537393341e-10 2.027154528050346e-11 8.5464698657575e-10 7.912907395681491e-10 6.158374698377101e-10
          1.1903934898105633e-9 1.1098170183606136e-9 8.737708069244648e-10 3.752254740222608e-10 3.4672343768473753e-10 2.6944203862170704e-10
          1.4391394276980322e-9 1.3501655521507926e-9 1.0744156095475553e-9 1.5300612814200076e-9 1.439167269074648e-9 1.150266545148232e-9
        </DataArray>
        <DataArray type="Float64" Name="gradient_matprop_error" format="ascii" RangeMin="0" RangeMax="0">
          0 0 0 0 0 0
          0 0 0 0 0 0
          0 0 0 0 0 0
          0 0 0 0 0 0
          0 0 0 0 0 0
          0 0 0 0 0 0
          0 0 0 0 0 0
          0 0 0 0 0 0
          0 0 0 0 0 0
          0 0 0 0 0 0
          0 0 0 0 0 0
          0 0 0 0 0 0
          0 0 0 0 0 0
          0 0 0 0 0 0
          0 0 0 0 0 0
          0 0 0 0 0 0
          0 0 0 0 0 0
          0 0 0 0 0 0
          0 0 0 0 0 0
          0 0 0 0 0 0
          0 0 0 0 0 0
          0 0 0 0 0 0
          0 0 0 0 0 0
          0 0 0 0 0 0
          0 0 0 0 0 0
          0 0 0 0 0 0
          0 0 0 0 0 0
          0 0 0 0 0 0
          0 0 0 0 0 0
          0 0 0 0 0 0
          0 0 0 0 0 0
          0 0 0 0 0 0
          0 0 0 0 0 0
          0 0 0 0 0 0
          0 0 0 0 0 0
          0 0 0 0 0 0
          0 0 0 0 0 0
          0 0 0 0 0 0
          0 0 0 0 0 0
          0 0 0 0 0 0
          0 0 0 0 0 0
          0 0 0 0 0 0
          0 0 0 0 0 0
          0 0 0 0 0 0
          0 0 0 0 0 0
          0 0 0 0 0 0
          0 0 0 0 0 0
          0 0 0 0 0 0
          0 0 0 0 0 0
          0 0 0 0 0 0
          0 0 0 0 0 0
          0 0 0 0 0 0
          0 0 0 0 0 0
          0 0 0 0 0 0
          0 0 0 0 0 0
          0 0 0 0 0 0
          0 0 0 0 0 0
          0 0 0 0 0 0
          0 0 0 0 0 0
          0 0 0 0 0 0
          0 0 0 0 0 0
          0 0 0 0 0 0
          0 0 0 0 0 0
          0 0 0 0 0 0
          0 0 0 0 0 0
          0 0 0 0 0 0
          0 0 0 0 0 0
          0 0 0 0 0 0
          0 0 0 0 0 0
          0 0 0 0 0 0
          0 0 0 0 0 0
          0 0 0 0 0 0
          0 0 0 0 0 0
          0 0 0 0 0 0
          0 0 0 0 0 0
          0 0 0 0 0 0
          0 0 0 0 0 0
          0 0 0 0 0 0
          0 0 0 0 0 0
          0 0 0 0 0 0
          0 0 0 0 0 0
        </DataArray>
        <DataArray type="Float64" Name="initial_marker" format="ascii" RangeMin="0" RangeMax="2">
          2 2 2 1 2 2
          1 1 2 0 0 1
          0.75 0 0 0 0 0
          0 2 2 2 1.75 0
          0 0 0 0.25 2 2
          2 2 2 2 2 2
          2 2 2 2 2 2
          1.75 1 2 2 2 1
          1 0.25 2 2 2 0
          0 0 0 1.3333333333333333 2 2
          2 2 2 2 2 2
          2 2 2 2 2 2
          2 2 2 2 2 1.75
          2 2 2 2 1 1
          1.5 1.5 0 1 1 0.5
          1.25 1 2 2 2 2
          1.5 1.75 0.5 1.25 0.5 1.25
          1 2 2 2 0 1
          0 0.75 0 1 0.5 2
          1.75 2 0 0.5 0 0.5
          0 0 0 1.5 1.3333333333333333 0.6666666666666666
          2 2 2 2 2 2
          2 2 2 2 2 2
          2 2 2 2 2 2
          2 2 2 2 2 2
          2 2 2 2 2 2
          2 2 2 2 2 2
          2 2 2 2 2 2
          1.75 2 2 2 2 2
          2 2 2 2 2 2
          2 2 2 2 2 2
          2 2 2 2 2 2
          2 2 2 2 2 2
          2 2 2 2 2 2
          2 2 2 2 1.75 1.5
          1.3333333333333333 2 2 2 1 1.5
          0.5 1 0 1 0.5 2
          1.75 2 2 2 2 2
          2 2 2 2 2 2
          2 2 2 2 0 0
          0.5 0.5 0 0 0 0
          0.5 0 1.5 1.5 1.3333333333333333 1.5
          0 0.25 0 0 0 0
          0 1.25 1 0.6666666666666666 2 2
          2 2 2 2 2 2
          2 2 1 1 1.5 1.5
          1 1.5 2 2 2 2
          1.75 1.5 1.3333333333333333 2 2 2
          0.5 1 0 0.5 0 0.5
          0 1.75 2 2 2 2
          2 2 2 2 2 2
          2 2 2 2 0 0.5
          0 0.5 0 0 0 1.5
          0.6666666666666666 2 2 2 2 2
          2 2 2 2 2 2
          2 0 0 0 0 0
          0 0 0 0 0 0
          0 0 0 0 1.25 0.5
          0.5 0 0 0 0 0
          0 0 0 0 0 0
          0 0 0 0 0 0
          0 0 0 0 1.75 0.25
          0 0.25 0 0 0 0
          0 0.5 0.25 0 0 1.5
          1.25 1.3333333333333333 2 2 2 2
          2 2 2 2 2 1
          1.5 1.5 1.5 2 2 2
          2 2 0 0.5 0 1.5
          0.5 2 2 2 2 2
          2 2 2 2 2 2
          2 2 2 2 2 2
          2 2 2 2 2 2
          2 2 2 2 2 2
          2 2 2 1.5 0 1
          0.75 0.6666666666666666 2 1.75 1.5 1.3333333333333333
          1.3333333333333333 2 2 2 2 2
          2 2 2 2 2 2
          2 2 2 2 1.75 1.75
          1.3333333333333333 2 1.3333333333333333 2 2 2
          2 2 2 2 2 2
          2 2 2 2 2 2
        </DataArray>
        <DataArray type="Float64" Name="markers_norefine" format="ascii" RangeMin="0" RangeMax="0">
          0 0 0 0 0 0
          0 0 0 0 0 0
          0 0 0 0 0 0
          0 0 0 0 0 0
          0 0 0 0 0 0
          0 0 0 0 0 0
          0 0 0 0 0 0
          0 0 0 0 0 0
          0 0 0 0 0 0
          0 0 0 0 0 0
          0 0 0 0 0 0
          0 0 0 0 0 0
          0 0 0 0 0 0
          0 0 0 0 0 0
          0 0 0 0 0 0
          0 0 0 0 0 0
          0 0 0 0 0 0
          0 0 0 0 0 0
          0 0 0 0 0 0
          0 0 0 0 0 0
          0 0 0 0 0 0
          0 0 0 0 0 0
          0 0 0 0 0 0
          0 0 0 0 0 0
          0 0 0 0 0 0
          0 0 0 0 0 0
          0 0 0 0 0 0
          0 0 0 0 0 0
          0 0 0 0 0 0
          0 0 0 0 0 0
          0 0 0 0 0 0
          0 0 0 0 0 0
          0 0 0 0 0 0
          0 0 0 0 0 0
          0 0 0 0 0 0
          0 0 0 0 0 0
          0 0 0 0 0 0
          0 0 0 0 0 0
          0 0 0 0 0 0
          0 0 0 0 0 0
          0 0 0 0 0 0
          0 0 0 0 0 0
          0 0 0 0 0 0
          0 0 0 0 0 0
          0 0 0 0 0 0
          0 0 0 0 0 0
          0 0 0 0 0 0
          0 0 0 0 0 0
          0 0 0 0 0 0
          0 0 0 0 0 0
          0 0 0 0 0 0
          0 0 0 0 0 0
          0 0 0 0 0 0
          0 0 0 0 0 0
          0 0 0 0 0 0
          0 0 0 0 0 0
          0 0 0 0 0 0
          0 0 0 0 0 0
          0 0 0 0 0 0
          0 0 0 0 0 0
          0 0 0 0 0 0
          0 0 0 0 0 0
          0 0 0 0 0 0
          0 0 0 0 0 0
          0 0 0 0 0 0
          0 0 0 0 0 0
          0 0 0 0 0 0
          0 0 0 0 0 0
          0 0 0 0 0 0
          0 0 0 0 0 0
          0 0 0 0 0 0
          0 0 0 0 0 0
          0 0 0 0 0 0
          0 0 0 0 0 0
          0 0 0 0 0 0
          0 0 0 0 0 0
          0 0 0 0 0 0
          0 0 0 0 0 0
          0 0 0 0 0 0
          0 0 0 0 0 0
          0 0 0 0 0 0
        </DataArray>
        <DataArray type="Float64" Name="markers_mustrefine" format="ascii" RangeMin="0" RangeMax="2">
          2 2 2 1 2 2
          1 1 2 0 0 1
          0.75 0 0 0 0 0
          0 2 2 2 1.75 0
          0 0 0 0.25 2 2
          2 2 2 2 2 2
          2 2 2 2 2 2
          1.75 1 2 2 2 1
          1 0.25 2 2 2 0
          0 0 0 1.3333333333333333 2 2
          2 2 2 2 2 2
          2 2 2 2 2 2
          2 2 2 2 2 1.75
          2 2 2 2 1 1
          1.5 1.5 0 1 1 0.5
          1.25 1 2 2 2 2
          1.5 1.75 0.5 1.25 0.5 1.25
          1 2 2 2 0 1
          0 0.75 0 1 0.5 2
          1.75 2 0 0.5 0 0.5
          0 0 0 1.5 1.3333333333333333 0.6666666666666666
          2 2 2 2 2 2
          2 2 2 2 2 2
          2 2 2 2 2 2
          2 2 2 2 2 2
          2 2 2 2 2 2
          2 2 2 2 2 2
          2 2 2 2 2 2
          1.75 2 2 2 2 2
          2 2 2 2 2 2
          2 2 2 2 2 2
          2 2 2 2 2 2
          2 2 2 2 2 2
          2 2 2 2 2 2
          2 2 2 2 1.75 1.5
          1.3333333333333333 2 2 2 1 1.5
          0.5 1 0 1 0.5 2
          1.75 2 2 2 2 2
          2 2 2 2 2 2
          2 2 2 2 0 0
          0.5 0.5 0 0 0 0
          0.5 0 1.5 1.5 1.3333333333333333 1.5
          0 0.25 0 0 0 0
          0 1.25 1 0.6666666666666666 2 2
          2 2 2 2 2 2
          2 2 1 1 1.5 1.5
          1 1.5 2 2 2 2
          1.75 1.5 1.3333333333333333 2 2 2
          0.5 1 0 0.5 0 0.5
          0 1.75 2 2 2 2
          2 2 2 2 2 2
          2 2 2 2 0 0.5
          0 0.5 0 0 0 1.5
          0.6666666666666666 2 2 2 2 2
          2 2 2 2 2 2
          2 0 0 0 0 0
          0 0 0 0 0 0
          0 0 0 0 1.25 0.5
          0.5 0 0 0 0 0
          0 0 0 0 0 0
          0 0 0 0 0 0
          0 0 0 0 1.75 0.25
          0 0.25 0 0 0 0
          0 0.5 0.25 0 0 1.5
          1.25 1.3333333333333333 2 2 2 2
          2 2 2 2 2 1
          1.5 1.5 1.5 2 2 2
          2 2 0 0.5 0 1.5
          0.5 2 2 2 2 2
          2 2 2 2 2 2
          2 2 2 2 2 2
          2 2 2 2 2 2
          2 2 2 2 2 2
          2 2 2 1.5 0 1
          0.75 0.6666666666666666 2 1.75 1.5 1.3333333333333333
          1.3333333333333333 2 2 2 2 2
          2 2 2 2 2 2
          2 2 2 2 1.75 1.75
          1.3333333333333333 2 1.3333333333333333 2 2 2
          2 2 2 2 2 2
          2 2 2 2 2 2
        </DataArray>
        <DataArray type="Float64" Name="gradient_marker" format="ascii" RangeMin="1" RangeMax="1">
          1 1 1 1 1 1
          1 1 1 1 1 1
          1 1 1 1 1 1
          1 1 1 1 1 1
          1 1 1 1 1 1
          1 1 1 1 1 1
          1 1 1 1 1 1
          1 1 1 1 1 1
          1 1 1 1 1 1
          1 1 1 1 1 1
          1 1 1 1 1 1
          1 1 1 1 1 1
          1 1 1 1 1 1
          1 1 1 1 1 1
          1 1 1 1 1 1
          1 1 1 1 1 1
          1 1 1 1 1 1
          1 1 1 1 1 1
          1 1 1 1 1 1
          1 1 1 1 1 1
          1 1 1 1 1 1
          1 1 1 1 1 1
          1 1 1 1 1 1
          1 1 1 1 1 1
          1 1 1 1 1 1
          1 1 1 1 1 1
          1 1 1 1 1 1
          1 1 1 1 1 1
          1 1 1 1 1 1
          1 1 1 1 1 1
          1 1 1 1 1 1
          1 1 1 1 1 1
          1 1 1 1 1 1
          1 1 1 1 1 1
          1 1 1 1 1 1
          1 1 1 1 1 1
          1 1 1 1 1 1
          1 1 1 1 1 1
          1 1 1 1 1 1
          1 1 1 1 1 1
          1 1 1 1 1 1
          1 1 1 1 1 1
          1 1 1 1 1 1
          1 1 1 1 1 1
          1 1 1 1 1 1
          1 1 1 1 1 1
          1 1 1 1 1 1
          1 1 1 1 1 1
          1 1 1 1 1 1
          1 1 1 1 1 1
          1 1 1 1 1 1
          1 1 1 1 1 1
          1 1 1 1 1 1
          1 1 1 1 1 1
          1 1 1 1 1 1
          1 1 1 1 1 1
          1 1 1 1 1 1
          1 1 1 1 1 1
          1 1 1 1 1 1
          1 1 1 1 1 1
          1 1 1 1 1 1
          1 1 1 1 1 1
          1 1 1 1 1 1
          1 1 1 1 1 1
          1 1 1 1 1 1
          1 1 1 1 1 1
          1 1 1 1 1 1
          1 1 1 1 1 1
          1 1 1 1 1 1
          1 1 1 1 1 1
          1 1 1 1 1 1
          1 1 1 1 1 1
          1 1 1 1 1 1
          1 1 1 1 1 1
          1 1 1 1 1 1
          1 1 1 1 1 1
          1 1 1 1 1 1
          1 1 1 1 1 1
          1 1 1 1 1 1
          1 1 1 1 1 1
          1 1 1 1 1 1
        </DataArray>
        <DataArray type="Float64" Name="gradient_matprop_marker" format="ascii" RangeMin="0" RangeMax="0">
          0 0 0 0 0 0
          0 0 0 0 0 0
          0 0 0 0 0 0
          0 0 0 0 0 0
          0 0 0 0 0 0
          0 0 0 0 0 0
          0 0 0 0 0 0
          0 0 0 0 0 0
          0 0 0 0 0 0
          0 0 0 0 0 0
          0 0 0 0 0 0
          0 0 0 0 0 0
          0 0 0 0 0 0
          0 0 0 0 0 0
          0 0 0 0 0 0
          0 0 0 0 0 0
          0 0 0 0 0 0
          0 0 0 0 0 0
          0 0 0 0 0 0
          0 0 0 0 0 0
          0 0 0 0 0 0
          0 0 0 0 0 0
          0 0 0 0 0 0
          0 0 0 0 0 0
          0 0 0 0 0 0
          0 0 0 0 0 0
          0 0 0 0 0 0
          0 0 0 0 0 0
          0 0 0 0 0 0
          0 0 0 0 0 0
          0 0 0 0 0 0
          0 0 0 0 0 0
          0 0 0 0 0 0
          0 0 0 0 0 0
          0 0 0 0 0 0
          0 0 0 0 0 0
          0 0 0 0 0 0
          0 0 0 0 0 0
          0 0 0 0 0 0
          0 0 0 0 0 0
          0 0 0 0 0 0
          0 0 0 0 0 0
          0 0 0 0 0 0
          0 0 0 0 0 0
          0 0 0 0 0 0
          0 0 0 0 0 0
          0 0 0 0 0 0
          0 0 0 0 0 0
          0 0 0 0 0 0
          0 0 0 0 0 0
          0 0 0 0 0 0
          0 0 0 0 0 0
          0 0 0 0 0 0
          0 0 0 0 0 0
          0 0 0 0 0 0
          0 0 0 0 0 0
          0 0 0 0 0 0
          0 0 0 0 0 0
          0 0 0 0 0 0
          0 0 0 0 0 0
          0 0 0 0 0 0
          0 0 0 0 0 0
          0 0 0 0 0 0
          0 0 0 0 0 0
          0 0 0 0 0 0
          0 0 0 0 0 0
          0 0 0 0 0 0
          0 0 0 0 0 0
          0 0 0 0 0 0
          0 0 0 0 0 0
          0 0 0 0 0 0
          0 0 0 0 0 0
          0 0 0 0 0 0
          0 0 0 0 0 0
          0 0 0 0 0 0
          0 0 0 0 0 0
          0 0 0 0 0 0
          0 0 0 0 0 0
          0 0 0 0 0 0
          0 0 0 0 0 0
          0 0 0 0 0 0
        </DataArray>
        <DataArray type="Float64" Name="combo" format="ascii" RangeMin="1" RangeMax="1">
          1 1 1 1 1 1
          1 1 1 1 1 1
          1 1 1 1 1 1
          1 1 1 1 1 1
          1 1 1 1 1 1
          1 1 1 1 1 1
          1 1 1 1 1 1
          1 1 1 1 1 1
          1 1 1 1 1 1
          1 1 1 1 1 1
          1 1 1 1 1 1
          1 1 1 1 1 1
          1 1 1 1 1 1
          1 1 1 1 1 1
          1 1 1 1 1 1
          1 1 1 1 1 1
          1 1 1 1 1 1
          1 1 1 1 1 1
          1 1 1 1 1 1
          1 1 1 1 1 1
          1 1 1 1 1 1