<?xml version="1.0"?>
<VTKFile type="UnstructuredGrid" version="0.1" byte_order="LittleEndian" header_type="UInt32" compressor="vtkZLibDataCompressor">
  <UnstructuredGrid>
    <Piece NumberOfPoints="567" NumberOfCells="294">
      <PointData>
        <DataArray type="Int32" Name="libmesh_node_id" format="ascii" RangeMin="277" RangeMax="3830">
          277 278 329 394 395 396
          399 402 404 405 406 407
          411 412 415 417 521 522
          524 525 528 529 530 535
          536 537 538 539 542 543
          544 602 609 612 618 657
          658 659 660 661 664 681
          682 685 687 689 690 691
          692 693 694 695 696 697
          698 709 710 711 712 713
          714 715 716 717 718 970
          971 972 975 980 981 984
          987 1030 1034 1035 1036 1037
          1038 1039 1040 1041 1042 1043
          1046 1047 1048 1049 1050 1051
          1052 1055 1056 1057 1059 1061
          1082 1084 1086 1092 1094 1096
          1357 1358 1359 1360 1361 1362
          1363 1364 1365 1366 1367 1368
          1369 1370 1371 1372 1373 1777
          1778 1779 1780 1785 1786 1787
          1788 1789 1790 1791 1792 1793
          1794 1797 1798 1799 1800 1801
          1803 1805 1806 1807 1808 1809
          1810 1811 1812 1813 1814 1815
          1816 1817 1818 1819 1822 1823
          1824 1825 1826 1828 1843 1844
          1845 1846 1847 1848 1849 1850
          1851 1852 1886 1890 2176 2177
          2178 2179 2180 2181 2182 2183
          2184 2185 2186 2187 2188 2189
          2190 2191 2192 2193 2194 2195
          2196 2197 2198 2199 2200 2201
          2202 2203 2204 2205 2206 2207
          2208 2209 2210 2211 2212 2213
          2214 2215 2216 2217 2218 2219
          2220 2221 2222 2223 2224 2225
          2226 2227 2229 2231 2232 2233
          2234 2236 2238 2239 2240 3117
          3118 3119 3120 3121 3122 3123
          3124 3125 3126 3127 3128 3129
          3130 3131 3132 3133 3134 3135
          3136 3137 3138 3139 3140 3141
          3142 3143 3144 3145 3146 3147
          3148 3149 3150 3151 3152 3153
          3154 3155 3156 3157 3158 3159
          3160 3161 3162 3163 3164 3165
          3166 3167 3168 3169 3170 3171
          3172 3173 3174 3175 3176 3177
          3178 3179 3180 3181 3182 3183
          3184 3185 3186 3187 3188 3189
          3190 3191 3192 3193 3194 3195
          3196 3197 3198 3199 3200 3201
          3202 3203 3204 3205 3209 3210
          3212 3213 3215 3216 3217 3218
          3219 3220 3221 3222 3223 3224
          3225 3226 3227 3230 3232 3233
          3235 3236 3237 3238 3239 3240
          3241 3242 3243 3244 3245 3250
          3251 3252 3255 3304 3305 3306
          3307 3308 3309 3310 3311 3312
          3313 3314 3315 3316 3317 3318
          3319 3320 3321 3322 3323 3370
          3377 3378 3379 3380 3385 3386
          3388 3389 3390 3391 3427 3428
          3429 3430 3431 3432 3433 3434
          3435 3436 3437 3438 3439 3440
          3441 3442 3443 3444 3445 3446
          3447 3657 3658 3659 3660 3661
          3662 3667 3668 3671 3677 3678
          3679 3680 3686 3687 3793 3794
          3795 3796 3797 3798 3800 3801
          3802 3803 3807 3808 3809 3810
          3811 3812 3813 3817 3818 3819
          3820 3821 3822 3823 527 548
          982 983 985 986 988 989
          526 1044 1045 992 1026 1009
          1066 1083 1027 1087 1085 1088
          1093 1097 1795 1796 1783 1866
          1874 1877 1868 1784 1802 1867
          1884 1883 1804 1885 1887 1888
          1889 1892 1063 1882 1894 1896
          2228 1893 2230 2003 1999 2007
          2005 1953 2235 1954 2237 2013
          2017 2015 3368 3375 3376 3369
          3381 1875 3383 3382 3373 3384
          1876 3392 3387 3393 3394 1878
          1891 3448 3449 3450 3416 3422
          3454 3451 3423 3455 3456 3452
          3457 3464 3461 3465 3466 3462
          3663 3664 1931 3665 3666 1932
          3673 3674 3676 3681 3682 3683
          1935 3799 1951 3814 3815 3816
          3806 3824 3826 3713 3827 3714
          3828 3829 3830
        </DataArray>
        <DataArray type="Float64" Name="bounds" format="ascii" RangeMin="0" RangeMax="0">
          0 0 0 0 0 0
          0 0 0 0 0 0
          0 0 0 0 0 0
          0 0 0 0 0 0
          0 0 0 0 0 0
          0 0 0 0 0 0
          0 0 0 0 0 0
          0 0 0 0 0 0
          0 0 0 0 0 0
          0 0 0 0 0 0
          0 0 0 0 0 0
          0 0 0 0 0 0
          0 0 0 0 0 0
          0 0 0 0 0 0
          0 0 0 0 0 0
          0 0 0 0 0 0
          0 0 0 0 0 0
          0 0 0 0 0 0
          0 0 0 0 0 0
          0 0 0 0 0 0
          0 0 0 0 0 0
          0 0 0 0 0 0
          0 0 0 0 0 0
          0 0 0 0 0 0
          0 0 0 0 0 0
          0 0 0 0 0 0
          0 0 0 0 0 0
          0 0 0 0 0 0
          0 0 0 0 0 0
          0 0 0 0 0 0
          0 0 0 0 0 0
          0 0 0 0 0 0
          0 0 0 0 0 0
          0 0 0 0 0 0
          0 0 0 0 0 0
          0 0 0 0 0 0
          0 0 0 0 0 0
          0 0 0 0 0 0
          0 0 0 0 0 0
          0 0 0 0 0 0
          0 0 0 0 0 0
          0 0 0 0 0 0
          0 0 0 0 0 0
          0 0 0 0 0 0
          0 0 0 0 0 0
          0 0 0 0 0 0
          0 0 0 0 0 0
          0 0 0 0 0 0
          0 0 0 0 0 0
          0 0 0 0 0 0
          0 0 0 0 0 0
          0 0 0 0 0 0
          0 0 0 0 0 0
          0 0 0 0 0 0
          0 0 0 0 0 0
          0 0 0 0 0 0
          0 0 0 0 0 0
          0 0 0 0 0 0
          0 0 0 0 0 0
          0 0 0 0 0 0
          0 0 0 0 0 0
          0 0 0 0 0 0
          0 0 0 0 0 0
          0 0 0 0 0 0
          0 0 0 0 0 0
          0 0 0 0 0 0
          0 0 0 0 0 0
          0 0 0 0 0 0
          0 0 0 0 0 0
          0 0 0 0 0 0
          0 0 0 0 0 0
          0 0 0 0 0 0
          0 0 0 0 0 0
          0 0 0 0 0 0
          0 0 0 0 0 0
          0 0 0 0 0 0
          0 0 0 0 0 0
          0 0 0 0 0 0
          0 0 0 0 0 0
          0 0 0 0 0 0
          0 0 0 0 0 0
          0 0 0 0 0 0
          0 0 0 0 0 0
          0 0 0 0 0 0
          0 0 0 0 0 0
          0 0 0 0 0 0
          0 0 0 0 0 0
          0 0 0 0 0 0
          0 0 0 0 0 0
          0 0 0 0 0 0
          0 0 0 0 0 0
          0 0 0 0 0 0
          0 0 0 0 0 0
          0 0 0 0 0 0
          0 0 0
        </DataArray>
        <DataArray type="Float64" Name="gradient_error" format="ascii" RangeMin="5.842723665828406e-12" RangeMax="1.85600376922304e-7">
          1.2687949721312612e-9 1.8540064884201692e-9 7.405940972713256e-10 2.034465242568147e-9 7.482792260604062e-9 1.607477723050337e-8
          1.7801423000491589e-9 3.6258436776824395e-9 1.6950033978814894e-10 4.1247190927716884e-10 1.7835527705438063e-11 3.1460754712113685e-10
          5.152078976662162e-10 3.6822378319433607e-10 1.1761825739286426e-10 1.3414099581596448e-10 1.3366712938947651e-8 5.7136786682093817e-8
          1.670411402141185e-7 1.7581393968529156e-8 6.664434225218999e-8 5.532628731490979e-8 1.6505047825557548e-8 2.0685883070570478e-10
          7.241567022688712e-10 3.365833841290812e-9 1.0247704123636441e-9 5.755997998264816e-11 7.022763649633726e-10 8.250791740145631e-10
          1.0101251586987173e-10 6.187685662101244e-10 5.885894107281532e-10 1.5430903275528514e-10 1.320677390048371e-10 1.0668139728387417e-8
          1.0614361024553481e-8 1.1857281651198303e-9 3.471431266241005e-9 3.6065670504072803e-9 3.737453198918025e-9 1.8297245230943942e-9
          2.100012750669105e-9 6.043445307790543e-10 2.3703009782438155e-9 2.946635315196543e-10 2.812824195007053e-10 1.7545581073866534e-10
          4.846988486506325e-10 4.959694574294531e-11 2.2525163575735915e-11 6.459733345859141e-11 2.679013074817563e-10 7.874380159681014e-10
          1.0624094177171813e-10 3.921524753489132e-10 4.471629222713074e-10 1.1278346845693255e-10 1.0103440504746368e-10 2.0504729839336446e-10
          1.6652069633658832e-10 5.3345396472903176e-11 5.021733691937015e-10 8.92853416379948e-11 1.2799409427981218e-10 1.405358852377108e-8
          1.846561296203659e-7 1.460503473126729e-7 1.0744456500497992e-7 9.589624839066168e-9 1.0697594923374466e-8 5.362796283038208e-9
          1.1805565007682766e-8 4.987098535846739e-9 2.4484788820342495e-9 1.9517914478734824e-9 3.8522178112135704e-8 2.7837752981082017e-8
          3.316548708995197e-10 1.4892416280981708e-10 4.696963320944279e-10 1.836134426057705e-9 1.049222136542043e-8 8.729804882260584e-10
          1.2242914570450015e-9 2.196464556480955e-8 3.1776763950115385e-11 7.745754344775106e-11 4.2712513809587105e-11 1.1007781370953428e-10
          2.244785182795107e-11 1.1992823437129286e-10 2.2093615711263216e-10 3.6981612708322466e-11 2.187232003503467e-10 2.0921289353144388e-10
          1.1190475005521775e-8 9.99953187620676e-10 2.7628002111068515e-9 2.7211586723723334e-10 4.644425087895399e-11 2.558781183773614e-10
          2.6473439946841665e-9 4.0474160700243875e-9 2.7793712495873966e-9 1.6839550116569424e-9 2.6765652390370773e-9 4.30487211525856e-10
          8.299514446222102e-10 9.150140484613904e-10 1.7693542871105458e-9 4.6232892501012755e-10 9.511516117282018e-11 2.1231462554427116e-10
          3.0799218353952485e-11 4.273167525551319e-11 6.958435507154325e-11 1.0947194019864747e-10 3.319516827511065e-11 4.168516313609815e-9
          1.18540980966831e-8 1.0298905159246733e-8 7.0822127506004315e-9 2.630332610542014e-9 2.2168078210542915e-9 6.383992778469718e-9
          5.538028969416274e-9 1.8570289787173763e-10 3.904260564443896e-10 3.6278355037953637e-10 2.0372655730987884e-9 3.880003855243199e-9
          3.804565345413163e-10 2.576856993452485e-9 1.6851529731459712e-8 2.806442715690176e-9 4.18224677743063e-9 2.9437802754707655e-9
          2.0067544759120577e-8 1.8155256329851327e-9 2.5450731029651124e-9 5.179206553023483e-10 5.630601641279697e-10 1.1362759537081604e-9
          2.0064520326860796e-9 7.070810509499211e-10 7.637240009614487e-9 6.257898066429237e-10 3.782036904023639e-9 4.541574060548762e-11
          1.211404132698761e-10 1.64241899093838e-10 1.9365865489981042e-10 7.081653120077876e-11 1.8690630412619557e-10 1.7257807427318544e-10
          6.725388988972206e-11 1.6530516007643146e-9 1.240120176484193e-9 5.404530550671344e-10 1.4915775184430344e-10 1.7899481895073472e-10
          5.791886582390195e-11 6.888439286622505e-11 1.2263256504845898e-10 2.4349127319833615e-10 9.357679556664598e-11 2.3207698476644855e-10
          8.932109470218811e-11 2.802806791771237e-10 1.9109824785253822e-8 2.4664151957432138e-8 2.8244261787986867e-10 5.685929681358174e-10
          5.537829030416246e-10 5.389728379474316e-10 1.8103157302733847e-10 1.9290468557916525e-10 4.34810068851391e-10 4.0920738575363506e-10
          6.275196055217468e-11 1.7585418824973356e-10 1.5465716530749767e-10 2.0477779813099206e-10 3.8360470265587925e-10 1.3346014236526183e-10
          1.528165084632653e-11 1.4590606114257478e-11 2.8261965299165467e-11 2.5699495564317825e-11 7.044044402627396e-12 5.842723665828406e-12
          6.716528979285982e-12 1.3899561382188422e-11 2.313702582947019e-11 7.590334292743559e-12 4.559956669164786e-10 8.760011908105139e-10
          6.694036053540257e-10 4.6280601989753743e-10 4.042084679556522e-10 3.091610880437531e-10 5.703842405222071e-10 4.4391264110958994e-10
          1.0007109611268596e-10 1.652614658288758e-10 1.43845532629453e-10 2.1411370813185395e-10 3.174410416969729e-10 1.2242959943003015e-10
          1.777033479222329e-11 2.555075302509148e-11 4.12671875143997e-11 4.6942269695498124e-11 1.3285822995838635e-11 1.6778733604948128e-11
          2.461515099724465e-11 3.3331171257959673e-11 5.261735187659656e-11 3.2451568389541176e-11 2.8191039102026098e-9 4.171739405322117e-9
          2.9532072213080377e-9 1.943905368959214e-9 7.393777985280431e-10 1.2027275662522475e-9 1.9011385358438104e-9 5.652414384159715e-10
          2.893799196688337e-10 1.1236211951558367e-10 1.6673272068537427e-10 1.97359332031458e-10 7.566252619593648e-11 2.9355883722048115e-10
          3.974997167037221e-10 3.692539120047523e-10 3.18866052459247e-10 8.7382441269086e-10 2.1540803742320727e-10 2.0420351239962948e-10
          2.9823494323895674e-10 2.794211953672758e-10 8.854714532498093e-11 1.5216391193547676e-10 1.4517811147240167e-10 1.822315881749269e-10
          2.4169399052776146e-10 1.4174056384193264e-10 6.933600029371013e-10 6.631497200865472e-10 3.705591848823721e-10 5.861254723212549e-10
          2.2826013155714936e-10 2.75015688278597e-10 2.533073789444826e-10 6.256035840707705e-10 1.646357181046791e-10 2.0784004773279407e-10
          1.0101130465220887e-10 1.4066440718699118e-10 1.5780724723555614e-10 1.9289956190566012e-10 1.3249174486683767e-10 4.70956555387206e-10
          3.0725618482953575e-10 3.9833610822546865e-10 1.7064747114882132e-9 1.6470437426359953e-9 1.49120615890091e-9 5.642521362562258e-9
          1.5444436827501114e-9 1.4774652704764036e-9 1.168074417152288e-9 1.1024644126973224e-9 1.300638288463702e-9 9.287409365128548e-10
          5.038127070021226e-9 4.661834595958451e-9 3.1458385959993024e-9 3.828534077017694e-9 1.2063415198235214e-9 8.453028597857669e-10
          3.5346638414425348e-9 1.026037629341338e-9 7.007067579538451e-10 7.136349153599745e-10 4.778122867442135e-10 2.8750357531726578e-9
          1.8716597274012206e-9 1.9357601732975126e-9 4.4056715186803374e-10 5.66509161949042e-10 4.602960999555503e-10 1.5127605778264915e-9
          3.330523025660733e-10 4.694975456030439e-10 1.7897932669991797e-10 3.003375193797058e-10 2.7629948719153133e-10 3.7301080044410653e-10
          2.2583651639532202e-10 1.2015420023355957e-9 7.299458403428065e-10 8.251072182691382e-10 4.35871852054238e-11 4.991079035323833e-11
          8.405128913293572e-11 8.139736217380205e-11 3.0414540039444274e-11 5.0785475871230486e-11 4.97135378571411e-11 5.623439550105287e-11
          7.874343521466836e-11 4.8641599843051725e-11 2.540515733195079e-10 2.381962101480351e-10 1.5368784339857066e-10 2.396849006070819e-10
          1.7906405664804336e-11 1.9872875031816795e-11 3.096377089884692e-11 3.0159574422991494e-11 2.1839344398829257e-11 2.935537794713607e-11
          1.0411902381648655e-10 9.724247896401738e-11 9.721244919315308e-11 7.998696925343397e-10 7.512455785581572e-10 5.368599913105348e-10
          5.027129076588084e-10 6.233548780787826e-10 4.134166076412354e-10 2.380433302477256e-9 2.221852692404002e-9 1.538612709358641e-9
          1.8066408631134065e-9 3.5139838203093087e-10 3.2826869601439673e-10 2.680771507639234e-10 1.1049836697682195e-9 1.0260563799471484e-9
          8.214715012822324e-10 2.358834580962399e-10 4.6035614172657753e-10 1.4903608022902325e-10 3.0077089065608536e-10 1.6307190718774408e-10
          3.0679529952931016e-10 1.9653794289766595e-10 1.2864035212003623e-9 8.698682797737789e-10 8.158482077513334e-10 6.248588545581822e-11
          1.2440690470656513e-10 7.68374143843601e-11 3.4949030913228044e-10 1.0739454789124906e-10 1.8669008611864886e-10 6.598657523344507e-11
          1.1772218913616062e-10 8.603918973136891e-11 1.3641356505624188e-10 8.564288251377136e-11 4.702165187460121e-10 3.043953606873412e-10
          2.9698096270836255e-10 4.00121257245115e-11 7.300119537819839e-11 2.4452373940799188e-11 4.457944088599657e-11 3.158964309205591e-11
          5.200272329836085e-11 3.1526200804150577e-11 1.933963081408539e-10 1.1960332609933488e-10 1.1749645312147933e-10 9.379271999790907e-9
          8.348536979854554e-9 7.83282042038794e-9 8.359977085417518e-9 6.430740628226086e-9 7.201772489445085e-9 4.919284154175695e-9
          6.262719233182332e-9 4.601132585498019e-9 4.169247612503221e-9 2.9041847106991056e-9 3.111125086719496e-9 1.7619590511485013e-9
          6.058895893707721e-9 2.550410773501967e-9 1.6587711751122352e-9 1.416583399858455e-9 8.762999633890946e-10 5.0557838646290015e-9
          3.4291950571313604e-9 2.7421360942620443e-9 6.860311697598697e-10 8.840576624248597e-10 6.955626577483032e-10 1.6063513218588932e-9
          5.271128613745608e-10 7.109374402759356e-10 2.887700025735082e-10 4.306314336413099e-10 3.9912233250524036e-10 5.23074126707828e-10
          2.7572364479587923e-10 6.3193007165927676e-9 5.894985077288825e-9 4.565416013961092e-9 4.240762679144978e-9 4.759583951142925e-9
          3.3831141370720835e-9 3.1328208949119283e-9 2.9016936261815817e-9 2.29523607738628e-9 3.313606222931524e-9 2.311122714121539e-9
          2.017309774695378e-9 1.3724993075444519e-9 9.033826667521098e-10 5.717178778364651e-10 1.1066935597413993e-9 7.323727208565463e-10
          5.605104869542367e-10 3.6031085815756187e-10 2.363722575601343e-9 1.6003188952297732e-9 4.732290024460767e-10 2.960846198687939e-10
          2.284051977426138e-10 1.4121360181968685e-10 1.6862806802525342e-10 2.6269502051974527e-10 1.0265681185166919e-10 1.6357883497257196e-10
          1.0938128891345348e-10 1.618506187851391e-10 9.840927868198487e-11 6.480403663998496e-11 1.025715732586575e-10 4.178980272834962e-11
          6.397277551284336e-11 4.2122643665580785e-11 6.197808053894297e-11 4.0048635417952295e-11 6.664596403398153e-8 1.0380400666640112e-9
          1.4135219668640644e-7 1.0837400650403488e-7 9.505395191866578e-8 7.078522877986845e-8 7.539581632166333e-8 3.2782824057534554e-8
          1.7988752841210708e-7 1.017695051099845e-7 5.8336121553874066e-8 1.1602397135077012e-7 3.644638927559561e-8 1.260775717494414e-7
          5.699242908177962e-8 2.980322476970133e-8 8.026576750158927e-8 2.22847344987495e-9 1.073845120855688e-9 1.1701863784887928e-9
          2.9770532066938716e-10 4.961598206491394e-10 3.502057554603636e-8 2.8800397293008215e-8 7.502288216208373e-8 1.364618890137988e-7
          7.046884568179478e-8 6.49280849897188e-8 1.353389028495456e-7 8.037530199654142e-8 3.750905818382577e-8 1.6251453441472303e-7
          5.443973590985517e-8 7.156495077024627e-8 2.122506115815967e-8 3.69107432944732e-8 1.5588205050784984e-7 1.2567505223278466e-7
          7.507161815331293e-8 7.555082465442287e-9 1.85600376922304e-7 9.578842314727871e-8 5.914616724562366e-8 1.499385407582331e-8
          2.96340193087639e-9 1.1798325253755603e-9 1.2108567959578782e-9 4.5197502806253356e-9 7.154811296806054e-9 3.4530971942802495e-9
          1.2299522034509875e-9 4.580004737017658e-10 4.592951484232218e-10 1.6970139747651282e-10 1.704533665783804e-10 4.32869566582109e-10
          2.8712775475249365e-10 1.9808222829287415e-10 1.2475098008787602e-8 1.0951182038052838e-8 1.015886873319929e-8 1.1448890299793615e-8
          2.147225347217237e-8 1.7920795509632377e-8 1.6907051387987928e-8 2.0424437185854707e-8 2.67373283374611e-8 1.75628394764402e-8
          1.4031970025354485e-8 1.332503064222069e-8 1.5219131444305035e-8 1.0070557021212642e-8 8.606030052735337e-9 6.245528692048998e-9
          1.7369130293745357e-9 1.3073600237915275e-9 8.196024838879441e-10 9.309587139443256e-10 1.7531563759712298e-8 1.5456715154799767e-8
          8.890297561874451e-9 1.0390050096137153e-8 1.1782074477743958e-8 6.358123681315477e-9 4.777771128328148e-9 5.833037397584538e-9
          3.1220730979990632e-9 2.226653221405214e-9 2.711709499300467e-9 1.4278988359427562e-9 1.5833470621038018e-9 2.1065725477822825e-9
          1.4167582602622739e-8 1.3300231345793476e-8 1.0670465046606785e-8 9.969679328761488e-9 1.086072670740297e-8 8.019755859223478e-9
          7.597879427057431e-9 7.061757278039474e-9 5.601845887632335e-9 7.558763107058475e-9 5.447086762016814e-9 4.49781816333019e-9
          3.1454065849168553e-9 1.1425832254063645e-9 7.489026675158288e-10 5.172828692817821e-10 3.2959764024575444e-10 3.101610005683668e-10
          4.806836943367964e-10 2.0724370256369348e-10 1.2073503188641892e-10 8.832124984832038e-9 4.535924008471086e-9 6.3587347458364235e-9
          3.1422638105057627e-9 2.1101008778581814e-9 1.4075744520250032e-9
        </DataArray>
        <DataArray type="Float64" Name="gradient_matprop_error" format="ascii" RangeMin="0" RangeMax="0">
          0 0 0 0 0 0
          0 0 0 0 0 0
          0 0 0 0 0 0
          0 0 0 0 0 0
          0 0 0 0 0 0
          0 0 0 0 0 0
          0 0 0 0 0 0
          0 0 0 0 0 0
          0 0 0 0 0 0
          0 0 0 0 0 0
          0 0 0 0 0 0
          0 0 0 0 0 0
          0 0 0 0 0 0
          0 0 0 0 0 0
          0 0 0 0 0 0
          0 0 0 0 0 0
          0 0 0 0 0 0
          0 0 0 0 0 0
          0 0 0 0 0 0
          0 0 0 0 0 0
          0 0 0 0 0 0
          0 0 0 0 0 0
          0 0 0 0 0 0
          0 0 0 0 0 0
          0 0 0 0 0 0
          0 0 0 0 0 0
          0 0 0 0 0 0
          0 0 0 0 0 0
          0 0 0 0 0 0
          0 0 0 0 0 0
          0 0 0 0 0 0
          0 0 0 0 0 0
          0 0 0 0 0 0
          0 0 0 0 0 0
          0 0 0 0 0 0
          0 0 0 0 0 0
          0 0 0 0 0 0
          0 0 0 0 0 0
          0 0 0 0 0 0
          0 0 0 0 0 0
          0 0 0 0 0 0
          0 0 0 0 0 0
          0 0 0 0 0 0
          0 0 0 0 0 0
          0 0 0 0 0 0
          0 0 0 0 0 0
          0 0 0 0 0 0
          0 0 0 0 0 0
          0 0 0 0 0 0
          0 0 0 0 0 0
          0 0 0 0 0 0
          0 0 0 0 0 0
          0 0 0 0 0 0
          0 0 0 0 0 0
          0 0 0 0 0 0
          0 0 0 0 0 0
          0 0 0 0 0 0
          0 0 0 0 0 0
          0 0 0 0 0 0
          0 0 0 0 0 0
          0 0 0 0 0 0
          0 0 0 0 0 0
          0 0 0 0 0 0
          0 0 0 0 0 0
          0 0 0 0 0 0
          0 0 0 0 0 0
          0 0 0 0 0 0
          0 0 0 0 0 0
          0 0 0 0 0 0
          0 0 0 0 0 0
          0 0 0 0 0 0
          0 0 0 0 0 0
          0 0 0 0 0 0
          0 0 0 0 0 0
          0 0 0 0 0 0
          0 0 0 0 0 0
          0 0 0 0 0 0
          0 0 0 0 0 0
          0 0 0 0 0 0
          0 0 0 0 0 0
          0 0 0 0 0 0
          0 0 0 0 0 0
          0 0 0 0 0 0
          0 0 0 0 0 0
          0 0 0 0 0 0
          0 0 0 0 0 0
          0 0 0 0 0 0
          0 0 0 0 0 0
          0 0 0 0 0 0
          0 0 0 0 0 0
          0 0 0 0 0 0
          0 0 0 0 0 0
          0 0 0 0 0 0
          0 0 0 0 0 0
          0 0 0
        </DataArray>
        <DataArray type="Float64" Name="initial_marker" format="ascii" RangeMin="0" RangeMax="2">
          0 0 0 0 0 0
          0 0 0 0 0 0
          0 0 0 0 0 0
          1 0 0 0 0 0
          0 2 0 0 0 0
          0 0 0 0 0 0
          0 0 0 0 0 0
          0 0 0 0 0 0
          0 0 0 0 0 0
          0 0 0 0 0 0
          0 0 0 0 0 0
          1 1 1 0 0 0
          0 0 0 0 1 0.75
          0 0 0 0 0.25 0
          2 0.75 0 0 0 0
          0 0 0 0 2 0
          0 0 0 0 0 0
          0 0 0 0 0 0
          0 0 0 0 0 0
          0 0 0 0 0 1
          2 2 1.5 0.5 0.5 2
          2 0 2 1.75 0.3333333333333333 1.25
          1 2 2 0 0.5 0
          1.6666666666666667 0 0.25 0 0 0
          0 0 1.5 1.5 0.3333333333333333 0
          0 2 1.25 0 0 0.5
          0.5 2 2 2 0 0
          0 0 0 0 0 1.25
          0.5 0 1.3333333333333333 2 0 0
          0 0 0 0 0 0
          0 0 0 0 0 0
          0 0 0 0 0 0
          0 0 0 0 0 0
          0 0 0 0 0 0
          0 0 0 0 0 0
          0 0 0 0 0 0
          0 0 0 0 0 0
          0 0 0 0 0 0
          0 0 0 0 0 0
          1 1 1 2 0 0
          1 1 0 1 1 0
          1 1 2 2 2 2
          0 0.5 0 1.5 0 0.5
          0 0.5 0 0 0 1.5
          1.6666666666666667 1.3333333333333333 2 2 2 2
          2 2 2 2 2 2
          2 2 2 2 2 2
          2 2 2 2 2 2
          2 2 1 1.5 1 2
          1 1.5 1 1.5 0 1
          1 2 2 2 0 0
          1 1 0 1 0.75 0
          1 0.5 2 2 1.75 2
          0 0 0.5 0.25 0 0
          1.5 1.25 1.3333333333333333 2 2 2
          2 2 2 2 2 2
          2 2 2 2 2 2
          2 2 2 2 2 1.5
          1.75 1.5 2 2 2 1
          1.5 1.5 2 0.5 1.25 0
          1 0 1 1 2 2
          2 0 0.75 0 0.5 0
          0.5 0 1.75 1.5 1 2
          2 2 2 2 2 2
          2 2 2 2 2 2
          2 2 2 2 2 2
          2 2 1 1 0 1.5
          1 1 1 1 0 0
          0 2 2 2 2 2
          2 2 2 2 2 2
          2 2 2 2 2 2
          2 1.75 2 2 2 2
          1.5 1.5 1 1 0.5 0.75
          0 0 0 0 0.5 0
          0.5 0 0 0 1 0
          1 1 1 1 1 0.6666666666666666
          2 2 2 2 0 1.5
          1.5 0.25 0.5 0 0 0
          0 0 2 2 2 2
          2 2 2 2 2 2
          2 2 2 2 2 2
          2 0.75 2 2 2 1.5
          0 0.5 0 0.25 0.5 0
          0 0.5 0 0.25 0 0
          0 0 2 2 2 2
          2 2 2 2 2 2
          2 2 2 2 2 2
          2 1.5 1.5 1 2 2
          2 2 2 2 2 2
          2 2 2 2 2 2
          2 2 2 2 2 2
          2 2 2 2 2 2
          2 2 2 1.5 1.5 1
          2 1.5 1 2 2 2
          2 2 2
        </DataArray>
        <DataArray type="Float64" Name="markers_norefine" format="ascii" RangeMin="0" RangeMax="0">
          0 0 0 0 0 0
          0 0 0 0 0 0
          0 0 0 0 0 0
          0 0 0 0 0 0
          0 0 0 0 0 0
          0 0 0 0 0 0
          0 0 0 0 0 0
          0 0 0 0 0 0
          0 0 0 0 0 0
          0 0 0 0 0 0
          0 0 0 0 0 0
          0 0 0 0 0 0
          0 0 0 0 0 0
          0 0 0 0 0 0
          0 0 0 0 0 0
          0 0 0 0 0 0
          0 0 0 0 0 0
          0 0 0 0 0 0
          0 0 0 0 0 0
          0 0 0 0 0 0
          0 0 0 0 0 0
          0 0 0 0 0 0
          0 0 0 0 0 0
          0 0 0 0 0 0
          0 0 0 0 0 0
          0 0 0 0 0 0
          0 0 0 0 0 0
          0 0 0 0 0 0
          0 0 0 0 0 0
          0 0 0 0 0 0
          0 0 0 0 0 0
          0 0 0 0 0 0
          0 0 0 0 0 0
          0 0 0 0 0 0
          0 0 0 0 0 0
          0 0 0 0 0 0
          0 0 0 0 0 0
          0 0 0 0 0 0
          0 0 0 0 0 0
          0 0 0 0 0 0
          0 0 0 0 0 0
          0 0 0 0 0 0
          0 0 0 0 0 0
          0 0 0 0 0 0
          0 0 0 0 0 0
          0 0 0 0 0 0
          0 0 0 0 0 0
          0 0 0 0 0 0
          0 0 0 0 0 0
          0 0 0 0 0 0
          0 0 0 0 0 0
          0 0 0 0 0 0
          0 0 0 0 0 0
          0 0 0 0 0 0
          0 0 0 0 0 0
          0 0 0 0 0 0
          0 0 0 0 0 0
          0 0 0 0 0 0
          0 0 0 0 0 0
          0 0 0 0 0 0
          0 0 0 0 0 0
          0 0 0 0 0 0
          0 0 0 0 0 0
          0 0 0 0 0 0
          0 0 0 0 0 0
          0 0 0 0 0 0
          0 0 0 0 0 0
          0 0 0 0 0 0
          0 0 0 0 0 0
          0 0 0 0 0 0
          0 0 0 0 0 0
          0 0 0 0 0 0
          0 0 0 0 0 0
          0 0 0 0 0 0
          0 0 0 0 0 0
          0 0 0 0 0 0
          0 0 0 0 0 0
          0 0 0 0 0 0
          0 0 0 0 0 0
          0 0 0 0 0 0
          0 0 0 0 0 0
          0 0 0 0 0 0
          0 0 0 0 0 0
          0 0 0 0 0 0
          0 0 0 0 0 0
          0 0 0 0 0 0
          0 0 0 0 0 0
          0 0 0 0 0 0
          0 0 0 0 0 0
          0 0 0 0 0 0
          0 0 0 0 0 0
          0 0 0 0 0 0
          0 0 0 0 0 0
          0 0 0 0 0 0
          0 0 0
        </DataArray>
        <DataArray type="Float64" Name="markers_mustrefine" format="ascii" RangeMin="0" RangeMax="2">
          0 0 0 0 0 0
          0 0 0 0 0 0
          0 0 0 0 0 0
          1 0 0 0 0 0
          0 2 0 0 0 0
          0 0 0 0 0 0
          0 0 0 0 0 0
          0 0 0 0 0 0
          0 0 0 0 0 0
          0 0 0 0 0 0
          0 0 0 0 0 0
          1 1 1 0 0 0
          0 0 0 0 1 0.75
          0 0 0 0 0.25 0
          2 0.75 0 0 0 0
          0 0 0 0 2 0
          0 0 0 0 0 0
          0 0 0 0 0 0
          0 0 0 0 0 0
          0 0 0 0 0 1
          2 2 1.5 0.5 0.5 2
          2 0 2 1.75 0.3333333333333333 1.25
          1 2 2 0 0.5 0
          1.6666666666666667 0 0.25 0 0 0
          0 0 1.5 1.5 0.3333333333333333 0
          0 2 1.25 0 0 0.5
          0.5 2 2 2 0 0
          0 0 0 0 0 1.25
          0.5 0 1.3333333333333333 2 0 0
          0 0 0 0 0 0
          0 0 0 0 0 0
          0 0 0 0 0 0
          0 0 0 0 0 0
          0 0 0 0 0 0
          0 0 0 0 0 0
          0 0 0 0 0 0
          0 0 0 0 0 0
          0 0 0 0 0 0
          0 0 0 0 0 0
          1 1 1 2 0 0
          1 1 0 1 1 0
          1 1 2 2 2 2
          0 0.5 0 1.5 0 0.5
          0 0.5 0 0 0 1.5
          1.6666666666666667 1.3333333333333333 2 2 2 2
          2 2 2 2 2 2
          2 2 2 2 2 2
          2 2 2 2 2 2
          2 2 1 1.5 1 2
          1 1.5 1 1.5 0 1
          1 2 2 2 0 0
          1 1 0 1 0.75 0
          1 0.5 2 2 1.75 2
          0 0 0.5 0.25 0 0
          1.5 1.25 1.3333333333333333 2 2 2
          2 2 2 2 2 2
          2 2 2 2 2 2
          2 2 2 2 2 1.5
          1.75 1.5 2 2 2 1
          1.5 1.5 2 0.5 1.25 0
          1 0 1 1 2 2
          2 0 0.75 0 0.5 0
          0.5 0 1.75 1.5 1 2
          2 2 2 2 2 2
          2 2 2 2 2 2
          2 2 2 2 2 2
          2 2 1 1 0 1.5
          1 1 1 1 0 0
          0 2 2 2 2 2
          2 2 2 2 2 2
          2 2 2 2 2 2
          2 1.75 2 2 2 2
          1.5 1.5 1 1 0.5 0.75
          0 0 0 0 0.5 0
          0.5 0 0 0 1 0
          1 1 1 1 1 0.6666666666666666
          2 2 2 2 0 1.5
          1.5 0.25 0.5 0 0 0
          0 0 2 2 2 2
          2 2 2 2 2 2
          2 2 2 2 2 2
          2 0.75 2 2 2 1.5
          0 0.5 0 0.25 0.5 0
          0 0.5 0 0.25 0 0
          0 0 2 2 2 2
          2 2 2 2 2 2
          2 2 2 2 2 2
          2 1.5 1.5 1 2 2
          2 2 2 2 2 2
          2 2 2 2 2 2
          2 2 2 2 2 2
          2 2 2 2 2 2
          2 2 2 1.5 1.5 1
          2 1.5 1 2 2 2
          2 2 2
        </DataArray>
        <DataArray type="Float64" Name="gradient_marker" format="ascii" RangeMin="0" RangeMax="1">
          1 1 1 1 0.25 0.875
          1 0.5 1 1 1 1
          1 1 1 1 0.5 0.75
          0.75 0.5 1 0.75 0.625 0.75
          0.625 1 0.875 1 0.8333333333333334 0.75
          1 1 1 1 1 1
          1 1 0.75 0.875 1 1
          1 1 1 1 1 0.75
          0.875 1 1 1 1 1
          1 1 1 1 1 1
          1 1 1 1 1 0
          0.5 0.5 0.5 0 0 0
          0 0 0 0 0.25 0.125
          0.625 1 0.875 0 0 0.625
          1 0 1 1 1 1
          1 1 1 1 1 1
          0 0.625 0 1 1 1
          0 0 0 0 0 0.5
          0.5 0 0 0.5 1 1
          1 1 1 1 1 0
          0 0 0 0.5 0.5 0.5
          0.5 1 1 1 0.5 0.5
          1 1 0.5 0 0 0
          0 0.5 0.5 1 1 0.5