<?xml version="1.0"?>
<VTKFile type="UnstructuredGrid" version="0.1" byte_order="LittleEndian" header_type="UInt32" compressor="vtkZLibDataCompressor">
  <UnstructuredGrid>
    <Piece NumberOfPoints="489" NumberOfCells="286">
      <PointData>
        <DataArray type="Int32" Name="libmesh_node_id" format="ascii" RangeMin="414" RangeMax="4583">
          547 1077 1080 1862 1956 1960
          1961 1962 1963 1964 1975 1976
          1979 1980 1981 1982 1984 1992
          1993 1994 1995 1996 1997 1998
          2023 2024 2027 2028 2030 2032
          2241 2242 2245 2246 3804 3825
          3835 3837 3839 3849 3851 3853
          3872 3873 3874 3875 3876 3877
          3878 3879 3880 3881 3882 3883
          3884 3885 3886 3887 3888 3889
          3890 3891 3892 3893 3894 3895
          3896 3897 3898 3899 3900 3901
          3902 3903 3904 3905 3906 3907
          3908 3909 3910 3911 3912 3981
          3982 3983 3984 3985 3986 3987
          3988 3989 3990 4001 4002 4003
          4004 4005 4006 4007 4008 4009
          4010 4011 4012 4013 4014 4015
          4016 4017 4018 4019 4020 4021
          4022 4023 4024 4025 4026 4029
          4031 4032 4034 4035 4036 4037
          4038 4039 4040 4041 4042 4043
          4044 4045 4046 4047 4048 4057
          4059 4071 4105 4106 4107 4108
          4109 4110 4111 4112 4113 4114
          4115 4116 4117 4118 4119 4120
          4121 4122 4123 4124 4125 4126
          4127 4128 4129 4130 4131 4132
          4133 4134 4135 4136 4137 4138
          4139 4140 4141 4142 4143 4144
          4145 4146 4147 4148 4149 4150
          4151 4152 4153 4154 4155 4156
          4157 4158 4159 4160 4219 4220
          4221 4222 4223 4224 4225 4226
          4227 4228 4372 4374 4376 4378
          4389 4390 4391 4392 4393 4394
          4395 4396 4397 4398 4419 4421
          4423 4425 4453 4455 4457 4459
          4542 4544 4546 4548 4556 4557
          4558 4559 4560 4562 4563 4565
          4567 4569 4577 4579 4581 4583
          1092 1094 544 1096 1093 1095
          1098 1097 1099 1100 415 1101
          1056 1057 1370 1368 1061 541
          1846 1854 1858 1849 1851 1860
          1856 1859 1861 1958 1959 1076
          2015 1988 2016 2025 2026 2019
          2029 2031 2021 2071 2075 2072
          2076 2236 1954 2237 2243 2244
          2240 2247 2286 2287 2080 2293
          2103 2296 2107 2300 3680 3686
          3800 3794 1935 3690 3798 3687
          3801 1936 3805 3802 3796 3806
          1951 3803 1952 3820 3818 3824
          3823 3822 3826 3714 3720 3834
          3828 3721 3836 3830 3724 1073
          3838 3840 3848 3850 3852 3854
          3333 3819 3857 3858 3861 3751
          3859 3781 1945 3860 3782 3785
          1950 3758 3869 3788 1946 3870
          3789 3871 3792 1075 1072 3765
          3766 3709 3925 3926 1947 3767
          3768 1939 3928 1948 1967 3931
          1968 3775 3776 3991 3992 3778
          3995 3997 3998 4000 3783 3723
          3941 3784 3943 3945 1970 3790
          1949 3791 3996 1978 3959 3960
          3962 1078 3965 1973 1977 3999
          4027 4028 4030 414 4033 1983
          3975 3977 3979 1079 3942 4056
          4058 3946 4061 4060 1986 4062
          4070 4073 4072 4075 4074 4076
          4085 4087 4089 1990 4099 4101
          4103 1081 4203 4213 4215 4217
          4283 4369 4316 2051 4370 4317
          4373 4371 4375 4320 2056 4377
          2078 4303 4318 4403 2054 4319
          4404 4420 4422 4408 2082 4424
          2085 4437 4438 4454 4456 4442
          2088 4458 2090 4543 4545 4547
          2101 4561 4564 4566 4568 2105
          4578 4580 4582
        </DataArray>
        <DataArray type="Float64" Name="bounds" format="ascii" RangeMin="0" RangeMax="0">
          0 0 0 0 0 0
          0 0 0 0 0 0
          0 0 0 0 0 0
          0 0 0 0 0 0
          0 0 0 0 0 0
          0 0 0 0 0 0
          0 0 0 0 0 0
          0 0 0 0 0 0
          0 0 0 0 0 0
          0 0 0 0 0 0
          0 0 0 0 0 0
          0 0 0 0 0 0
          0 0 0 0 0 0
          0 0 0 0 0 0
          0 0 0 0 0 0
          0 0 0 0 0 0
          0 0 0 0 0 0
          0 0 0 0 0 0
          0 0 0 0 0 0
          0 0 0 0 0 0
          0 0 0 0 0 0
          0 0 0 0 0 0
          0 0 0 0 0 0
          0 0 0 0 0 0
          0 0 0 0 0 0
          0 0 0 0 0 0
          0 0 0 0 0 0
          0 0 0 0 0 0
          0 0 0 0 0 0
          0 0 0 0 0 0
          0 0 0 0 0 0
          0 0 0 0 0 0
          0 0 0 0 0 0
          0 0 0 0 0 0
          0 0 0 0 0 0
          0 0 0 0 0 0
          0 0 0 0 0 0
          0 0 0 0 0 0
          0 0 0 0 0 0
          0 0 0 0 0 0
          0 0 0 0 0 0
          0 0 0 0 0 0
          0 0 0 0 0 0
          0 0 0 0 0 0
          0 0 0 0 0 0
          0 0 0 0 0 0
          0 0 0 0 0 0
          0 0 0 0 0 0
          0 0 0 0 0 0
          0 0 0 0 0 0
          0 0 0 0 0 0
          0 0 0 0 0 0
          0 0 0 0 0 0
          0 0 0 0 0 0
          0 0 0 0 0 0
          0 0 0 0 0 0
          0 0 0 0 0 0
          0 0 0 0 0 0
          0 0 0 0 0 0
          0 0 0 0 0 0
          0 0 0 0 0 0
          0 0 0 0 0 0
          0 0 0 0 0 0
          0 0 0 0 0 0
          0 0 0 0 0 0
          0 0 0 0 0 0
          0 0 0 0 0 0
          0 0 0 0 0 0
          0 0 0 0 0 0
          0 0 0 0 0 0
          0 0 0 0 0 0
          0 0 0 0 0 0
          0 0 0 0 0 0
          0 0 0 0 0 0
          0 0 0 0 0 0
          0 0 0 0 0 0
          0 0 0 0 0 0
          0 0 0 0 0 0
          0 0 0 0 0 0
          0 0 0 0 0 0
          0 0 0 0 0 0
          0 0 0
        </DataArray>
        <DataArray type="Float64" Name="gradient_error" format="ascii" RangeMin="5.115556529555694e-12" RangeMax="3.478654489516304e-8">
          8.657725123615162e-11 4.579823781221814e-11 1.660199689207929e-9 5.299981496040449e-11 9.821337333613868e-10 7.284833553222486e-11
          3.716613387512577e-11 3.4420453783652174e-10 1.0200914357984294e-10 1.3463592104081917e-10 1.4368499082372426e-8 1.1951151200282782e-8
          4.301639936879516e-9 1.2567788692848108e-9 1.6664593985879862e-8 1.5008664788380575e-8 5.64315485948039e-9 7.192620249828476e-10
          2.1147301367245945e-10 1.6481173163275263e-10 7.388983000199852e-11 9.222875947169488e-10 2.7063921774793114e-10 1.5122967695419923e-10
          1.1615353827787584e-10 1.1365485447880291e-10 3.460379753179752e-11 4.3043051337717447e-11 7.876779533389151e-11 4.951997147794633e-11
          3.798316781509771e-11 6.142391678614416e-11 2.3878101051628357e-11 2.8259782458867418e-11 1.0495232766368326e-9 1.274654431546063e-10
          1.3322786922842996e-9 5.723710944954814e-10 2.3784621000003978e-9 2.329829164251801e-10 1.3176075483118983e-10 3.8536088239847935e-10
          2.529947551148681e-11 3.7960048986102855e-11 1.922447903564838e-11 2.7904415402572107e-11 1.7422345073325748e-11 2.4567148633646596e-11
          1.9014173791177152e-11 7.583414372288408e-11 5.097815570437923e-11 4.517607081888868e-11 8.104116086556862e-10 4.706005966082336e-10
          3.4546402353241456e-10 2.0011844109653381e-10 1.4539903285080353e-9 8.452622983046319e-10 5.937304610659978e-10 2.6076197459669067e-10
          1.3812744379240974e-10 1.1109167254063045e-10 5.935040462750891e-11 4.678753149321931e-10 2.4699223551241877e-10 1.9136275559658625e-10
          1.3935889222896872e-10 8.039355252592994e-11 7.845771420940347e-11 4.560282062504758e-11 2.3027025709841858e-10 1.3262990453962648e-10
          1.2626356813246473e-10 3.22924958776059e-11 4.482550333482113e-11 1.750013679224892e-11 2.4216023571563292e-11 2.0389205356092045e-11
          2.5861942802869695e-11 1.4207963782066911e-11 7.39409145350929e-11 3.98369408342853e-11 3.987552254341829e-11 1.7298324509306433e-8
          1.667134839707814e-8 1.1240011004927e-8 1.0692122599120125e-8 1.4085130381953722e-8 8.776034029228516e-9 2.146033265226442e-8
          2.11808695246834e-8 1.3979251644402254e-8 1.8718637663198284e-8 9.590906210184259e-9 5.799903170671586e-9 5.167744936826198e-9
          3.0537527117285924e-9 1.3198026143323062e-8 8.115195997537708e-9 7.218900359344849e-9 3.2616714516910397e-9 1.712815760648557e-9
          1.6953841671137019e-9 8.87185745599231e-10 4.613463989283791e-9 2.437009342777214e-9 2.399150148394149e-9 2.3886166751227466e-8
          2.4023849245433142e-8 1.6141289543820803e-8 1.6033924407133108e-8 2.194334685637868e-8 1.4204819302625639e-8 2.4652397344596844e-8
          2.4984936700346946e-8 1.6699233982134e-8 2.310026431871696e-8 1.0276446660038722e-8 9.977519630647678e-9 8.457584156919891e-9
          1.0743582626628394e-8 1.0497798877455093e-8 8.992106380076603e-9 1.586523727831479e-8 9.871739916332364e-9 8.796390375408357e-9
          5.274360685853819e-9 1.684597984629126e-8 1.0525957301776763e-8 9.389712177888967e-9 5.6596361260777304e-9 3.004454273125719e-9
          2.9524222125248217e-9 1.5486682420993602e-9 6.054158317054163e-9 3.2200330558797332e-9 3.1632069305546354e-9 3.7396720905703276e-9
          1.503126453486045e-9 5.731098591542369e-10 2.3007264589336526e-9 1.341264217775764e-9 9.109323802312349e-10 5.281685720258253e-10
          3.1947679114817126e-9 1.8685000781526814e-9 1.2401009000607349e-9 7.421934854413567e-10 3.9072206319477687e-10 2.931007766063649e-10
          1.5576829100315169e-10 1.0344275065720287e-9 5.436398023685906e-10 3.987784846759736e-10 3.427206590686256e-10 1.9718783288133732e-10
          1.8546354320061268e-10 1.0503401000475569e-10 4.5610011478846345e-10 2.632092956981414e-10 1.899011329603324e-10 1.0954807998018678e-10
          5.873335829295753e-11 5.812736262113124e-11 3.1648113277142403e-11 1.4590412662698052e-10 7.78184990571721e-11 7.684735222066639e-11
          3.889321601152408e-9 2.2804284672212217e-9 1.4935778792690782e-9 8.665985937631403e-10 4.15260574044634e-9 2.4370145124522895e-9
          1.5892778320810815e-9 1.2633239564027636e-9 6.633432380979651e-10 4.802769615464733e-10 2.5441017495784957e-10 1.3504866533299398e-9
          7.089186952798335e-10 5.110858801049072e-10 5.414969031284485e-10 3.1369476753813837e-10 1.8895944371597428e-10 1.3253483543129764e-10
          5.733645000932722e-10 3.326988477434546e-10 2.0140478254709636e-10 1.736619420405746e-10 9.231583834598054e-11 9.126998831639499e-11
          4.8044390802697705e-11 1.840884725094122e-10 9.771942384583895e-11 9.668363259653045e-11 6.43698467029163e-11 6.713494441052268e-11
          4.890377811563047e-11 4.977805050917361e-11 4.687007668710123e-11 4.3364084106971014e-11 3.540841101178116e-11 6.990004211812904e-11
          5.065232290271675e-11 3.98580915268408e-11 7.01740635675634e-11 3.0495588197888264e-11 1.2472591033260945e-10 5.213359623036793e-11
          9.132966319301361e-12 1.2539311447670152e-11 6.4342282647221665e-12 8.501845399465847e-12 6.001562115105429e-12 7.709267202000735e-12
          5.622256876044688e-12 2.0538993246368496e-11 1.3665295855142663e-11 1.2075010695344673e-11 8.440787138404948e-10 4.3910972014773543e-10
          1.2029096226832737e-9 6.210138662502584e-10 1.4858617252095331e-9 7.648901735118488e-10 1.593777306371108e-9 8.199298301331605e-10
          1.9641198455544636e-10 7.926282768109372e-11 2.721768470731116e-10 1.0730340647652896e-10 3.0163364925067963e-11 2.0038015443619044e-11
          1.7426957492001244e-11 1.2748794333023485e-11 3.989727157653589e-11 2.2158366614190653e-11 3.3112944270350114e-10 1.2897057367410152e-10
          3.5350360564375393e-10 1.371601475225428e-10 4.737937205490896e-11 2.506611669419686e-11 5.0158600890184023e-11 2.593636604222159e-11
          2.7211586723723334e-10 4.644425087895399e-11 1.0101251586987173e-10 2.558781183773614e-10 2.9770532066938716e-10 5.018232538137719e-11
          8.38619333938444e-11 4.961598206491394e-10 3.9056542228222925e-10 5.95722544996648e-11 1.1761825739286426e-10 6.299229298693078e-10
          2.2093615711263216e-10 3.6981612708322466e-11 4.273167525551319e-11 2.1231462554427116e-10 2.0921289353144388e-10 4.3258024221655787e-11
          6.888439286622505e-11 3.2141535716117494e-11 3.0714265066890235e-11 9.357679556664598e-11 8.932109470218811e-11 5.09559634137795e-11
          1.998928100132648e-11 1.1190113053286099e-11 3.7631205634062485e-11 1.1347840399468326e-10 4.555019738802859e-11 2.607844318168704e-10
          1.9808222829287415e-10 3.0706913361762246e-10 1.3951273310670186e-10 4.307074291124525e-11 6.235143481867992e-11 1.3271154068553277e-10
          1.8017585449285626e-11 7.022566733971173e-11 1.062537025068179e-10 1.5466412668624748e-11 1.157883592769213e-11 1.9066979948810128e-11
          1.4563042939331357e-11 1.1236211951558367e-10 1.6970139747651282e-10 1.704533665783804e-10 1.3440536383226422e-11 2.2552409954034385e-11
          7.566252619593648e-11 1.2419822626278845e-11 5.115556529555694e-12 7.587560748649736e-12 2.3482270292765977e-11 1.3694121192547223e-11
          2.94456330159441e-11 2.0775234549310275e-11 2.62708822958716e-11 2.422179168126989e-11 1.3724993075444519e-9 9.033826667521098e-10
          4.732290024460767e-10 7.323727208565463e-10 3.1454065849168553e-9 2.10974803313612e-9 1.6003188952297732e-9 5.717178778364651e-10
          2.960846198687939e-10 1.3502626894124892e-9 6.624928443044666e-10 2.284051977426138e-10 3.6031085815756187e-10 4.806836943367964e-10
          7.489026675158288e-10 1.4121360181968685e-10 2.992523456786444e-10 6.397277551284336e-11 1.025715732586575e-10 2.0724370256369348e-10
          4.0048635417952295e-11 6.197808053894297e-11 1.2073503188641892e-10 6.3587347458364235e-9 4.354626358775075e-9 2.09208599337404e-9
          3.1422638105057627e-9 2.8274096299782415e-9 9.132822442498713e-10 1.4075744520250032e-9 7.827962906102597e-9 5.168950671476596e-9
          3.6984589835679713e-9 1.5589097694891237e-9 3.7724869134201935e-10 2.1559817039455453e-10 6.211076512346875e-10 2.7917099281751246e-10
          4.37495785206789e-11 4.178980272834962e-11 8.441657116603637e-11 5.761495066996119e-11 1.796951884152504e-10 8.231019286700145e-10
          4.015490938917995e-10 1.738360593327902e-9 4.778508990506002e-10 2.3299571832822816e-10 1.012431126263869e-9 3.2148061456932564e-9
          1.8839933303809845e-9 2.6439281842899827e-10 1.2905171806074138e-10 5.59353809878412e-10 1.3948460762239892e-10 6.849696970779434e-11
          2.936898086353045e-10 6.87525666050287e-11 1.0421531654810236e-9 5.455812848124138e-10 1.7705936602364125e-8 1.1933338671314887e-8
          1.1248391010302837e-8 1.6837523979126347e-8 2.514092836200135e-8 2.441672134584434e-8 7.434935922901263e-9 6.9507565472361305e-9
          9.105266296827574e-9 1.3930002037027352e-8 2.1029837269938668e-8 5.5219921609608956e-9 3.062748028819251e-8 3.062288355187727e-8
          2.7629109709433954e-8 4.272139193555285e-9 3.9699756061079635e-9 6.669239347097868e-9 6.277572226197759e-9 3.1124169880729727e-9
          5.038816944730776e-9 8.85784466351611e-9 8.472964584149272e-9 7.001485565693561e-9 6.010952427401213e-9 9.439945421882333e-9
          1.4731737779514169e-8 3.574793522077487e-9 8.200097709119873e-9 1.9951697433318013e-8 1.1308367871261243e-8 1.9901484316246853e-9
          1.636869324465116e-9 1.040586313512703e-9 2.6789063402341753e-9 3.768527496817367e-9 3.276402036386534e-8 3.393945633715147e-8
          3.219708692676379e-8 3.299034272425494e-8 3.478654489516304e-8 3.3794876163575396e-8 4.93428824530206e-9 4.666003046130652e-9
          5.839600723539532e-9 5.583116554695139e-9 4.596328930036479e-9 6.155072062069381e-9 5.911540655379644e-9 4.904572607408677e-9
          2.3827542101631562e-8 1.3655061858531416e-8 2.5269546768334843e-8 1.4531167342786508e-8 1.2199467020581713e-8 5.758452472509291e-9
          2.3732655867333215e-9 1.6601568755850453e-8 5.1632594021375774e-9 7.877217911591775e-9 2.04136540929534e-9 3.2088086559478697e-9
          9.197882754802392e-10 2.514632606479481e-10 3.400909769969713e-10 7.600822332060391e-10 1.2171399293262472e-9 4.453328995997134e-10
          6.2604733547896295e-9 2.4539276178498993e-9 6.674088677773742e-9 2.6092964801482913e-9 8.989414512098795e-10 3.191854556136655e-10
          9.504070843576806e-10 3.385818051765668e-10 1.070650336220791e-10 1.1304859351980572e-10 6.437959522181672e-11 1.1915547334416816e-10
          7.023997931822067e-11 3.48548577102197e-11 1.4689896360889368e-10 3.657630815272918e-11 2.027154528050346e-11 6.996467826752548e-11
          3.397441887745851e-11 1.898108891505657e-11 1.8177611034501997e-11 2.709707983541011e-10 1.2805115240043155e-10 6.01033590412841e-11
          3.435648405171275e-11 8.070703061029709e-10 5.130100587911797e-10 1.3267306373420412e-9 3.7482857848105953e-10 2.3942699132156837e-10
          6.158374698377101e-10 3.9228495734324537e-10 2.0629193133653233e-10 1.8785379624770805e-9 8.737708069244648e-10 5.580900067642564e-10
          2.906409751410014e-10 2.3040586081779256e-9 1.0744156095475553e-9 6.891710621678378e-10 3.573100659519556e-10 2.4639950231849265e-9
          1.150266545148232e-9 7.392547641893623e-10 3.828101933459136e-10 9.414224983969169e-11 4.679581523669657e-11 1.2985929628933947e-10
          5.76465125178313e-11 2.245883813275734e-11 1.57530589497806e-10 6.241432882172227e-11 1.6800994897276786e-10 6.671483726498533e-11
          2.3493315448776788e-11 1.3301602189927903e-11 2.4955824553998706e-11
        </DataArray>
        <DataArray type="Float64" Name="gradient_matprop_error" format="ascii" RangeMin="0" RangeMax="0">
          0 0 0 0 0 0
          0 0 0 0 0 0
          0 0 0 0 0 0
          0 0 0 0 0 0
          0 0 0 0 0 0
          0 0 0 0 0 0
          0 0 0 0 0 0
          0 0 0 0 0 0
          0 0 0 0 0 0
          0 0 0 0 0 0
          0 0 0 0 0 0
          0 0 0 0 0 0
          0 0 0 0 0 0
          0 0 0 0 0 0
          0 0 0 0 0 0
          0 0 0 0 0 0
          0 0 0 0 0 0
          0 0 0 0 0 0
          0 0 0 0 0 0
          0 0 0 0 0 0
          0 0 0 0 0 0
          0 0 0 0 0 0
          0 0 0 0 0 0
          0 0 0 0 0 0
          0 0 0 0 0 0
          0 0 0 0 0 0
          0 0 0 0 0 0
          0 0 0 0 0 0
          0 0 0 0 0 0
          0 0 0 0 0 0
          0 0 0 0 0 0
          0 0 0 0 0 0
          0 0 0 0 0 0
          0 0 0 0 0 0
          0 0 0 0 0 0
          0 0 0 0 0 0
          0 0 0 0 0 0
          0 0 0 0 0 0
          0 0 0 0 0 0
          0 0 0 0 0 0
          0 0 0 0 0 0
          0 0 0 0 0 0
          0 0 0 0 0 0
          0 0 0 0 0 0
          0 0 0 0 0 0
          0 0 0 0 0 0
          0 0 0 0 0 0
          0 0 0 0 0 0
          0 0 0 0 0 0
          0 0 0 0 0 0
          0 0 0 0 0 0
          0 0 0 0 0 0
          0 0 0 0 0 0
          0 0 0 0 0 0
          0 0 0 0 0 0
          0 0 0 0 0 0
          0 0 0 0 0 0
          0 0 0 0 0 0
          0 0 0 0 0 0
          0 0 0 0 0 0
          0 0 0 0 0 0
          0 0 0 0 0 0
          0 0 0 0 0 0
          0 0 0 0 0 0
          0 0 0 0 0 0
          0 0 0 0 0 0
          0 0 0 0 0 0
          0 0 0 0 0 0
          0 0 0 0 0 0
          0 0 0 0 0 0
          0 0 0 0 0 0
          0 0 0 0 0 0
          0 0 0 0 0 0
          0 0 0 0 0 0
          0 0 0 0 0 0
          0 0 0 0 0 0
          0 0 0 0 0 0
          0 0 0 0 0 0
          0 0 0 0 0 0
          0 0 0 0 0 0
          0 0 0 0 0 0
          0 0 0
        </DataArray>
        <DataArray type="Float64" Name="initial_marker" format="ascii" RangeMin="0" RangeMax="2">
          1 0 2 0 2 0
          0 2 2 0.75 2 2
          2 2 2 2 2 2
          2 1 0.5 2 2 1
          0 0 0 0 0 0
          0 0 0 0 2 1.25
          2 2 2 1.75 1.5 2
          0 0.5 0 0.5 0 0
          0 1 1 0 2 2
          2 2 2 2 2 2
          2 2 1.75 2 2 2
          1.5 1.25 1 0.5 2 1.75
          2 1 1 0.5 0.75 0
          0 0 1.25 1 0.5 2
          2 2 2 2 2 2
          2 2 2 2 2 2
          2 2 2 2 2 2
          2 2 2 2 2 2
          2 2 2 2 2 2
          2 2 2 2 2 2
          2 2 2 2 2 2
          2 2 2 2 2 2
          2 2 2 2 2 2
          2 2 2 2 2 2
          2 2 2 2 2 2
          2 2 2 2 2 2
          2 2 2 2 1.6666666666666667 1.75
          1.25 1.5 0.5 2 1.5 2
          2 2 2 2 2 2
          2 2 2 2 2 2
          2 2 2 2 1.5 1.3333333333333333
          2 2 1.5 2 1.75 2
          1.5 2 2 2 0.5 0.5
          0 0 0 0 0 0.5
          0 0 2 1.25 2 1.75
          0 0.25 0 0 0 0
          0 0.75 0.5 0 2 2
          2 2 2 2 2 2
          2 2 2 2 1 1
          0 0 1 0 2 2
          2 2 1.25 0.5 1.5 1
          0 0 0 0 0 0
          0 0 0 0 0 0
          0 0 0 0 0 0
          0 0 0 0 0.5 0.25
          0 0 0 1.75 1 1
          0 1.75 0 0 0 0
          0 0 0 0 0 0.25
          0 0 0.25 0 0 0
          0 0 0 0 0 0
          0 0 0 0 2 2
          2 2 2 2 2 2
          2 2 2 1.5 1.75 2
          2 1.5 2 0.5 0.5 1.5
          0 0 1 2 2 2
          2 2 2 2 2 2
          2 2 2 2 2 1.3333333333333333
          0.6666666666666666 0 1.5 1.3333333333333333 2 2
          2 2 2 2 2 2
          2 2 2 2 2 1.75
          2 2 2 2 2 2
          2 2 2 2 2 2
          2 2 2 2 2 2
          2 2 2 2 2 2
          2 2 2 2 2 2
          2 2 2 2 2 2
          2 2 2 2 2 2
          2 2 2 2 2 2
          2 2 2 2 2 2
          2 2 2 2 2 2
          2 2 2 2 2 2
          2 1.6666666666666667 1.5 2 2 2
          2 2 2 2 2 2
          2 2 1 1 0 1
          2 1.5 2 1.75 1.3333333333333333 2
          1.75 0.6666666666666666 1 2 2 2
          1.25 2 2 2 2 2
          2 2 2 2 2 2
          2 2 2 2 2 2
          2 2 2 2 2 2
          1.75 1 2 2 2 2
          1 0 1
        </DataArray>
        <DataArray type="Float64" Name="markers_norefine" format="ascii" RangeMin="0" RangeMax="0">
          0 0 0 0 0 0
          0 0 0 0 0 0
          0 0 0 0 0 0
          0 0 0 0 0 0
          0 0 0 0 0 0
          0 0 0 0 0 0
          0 0 0 0 0 0
          0 0 0 0 0 0
          0 0 0 0 0 0
          0 0 0 0 0 0
          0 0 0 0 0 0
          0 0 0 0 0 0
          0 0 0 0 0 0
          0 0 0 0 0 0
          0 0 0 0 0 0
          0 0 0 0 0 0
          0 0 0 0 0 0
          0 0 0 0 0 0
          0 0 0 0 0 0
          0 0 0 0 0 0
          0 0 0 0 0 0
          0 0 0 0 0 0
          0 0 0 0 0 0
          0 0 0 0 0 0
          0 0 0 0 0 0
          0 0 0 0 0 0
          0 0 0 0 0 0
          0 0 0 0 0 0
          0 0 0 0 0 0
          0 0 0 0 0 0
          0 0 0 0 0 0
          0 0 0 0 0 0
          0 0 0 0 0 0
          0 0 0 0 0 0
          0 0 0 0 0 0
          0 0 0 0 0 0
          0 0 0 0 0 0
          0 0 0 0 0 0
          0 0 0 0 0 0
          0 0 0 0 0 0
          0 0 0 0 0 0
          0 0 0 0 0 0
          0 0 0 0 0 0
          0 0 0 0 0 0
          0 0 0 0 0 0
          0 0 0 0 0 0
          0 0 0 0 0 0
          0 0 0 0 0 0
          0 0 0 0 0 0
          0 0 0 0 0 0
          0 0 0 0 0 0
          0 0 0 0 0 0
          0 0 0 0 0 0
          0 0 0 0 0 0
          0 0 0 0 0 0
          0 0 0 0 0 0
          0 0 0 0 0 0
          0 0 0 0 0 0
          0 0 0 0 0 0
          0 0 0 0 0 0
          0 0 0 0 0 0
          0 0 0 0 0 0
          0 0 0 0 0 0
          0 0 0 0 0 0
          0 0 0 0 0 0
          0 0 0 0 0 0
          0 0 0 0 0 0
          0 0 0 0 0 0
          0 0 0 0 0 0
          0 0 0 0 0 0
          0 0 0 0 0 0
          0 0 0 0 0 0
          0 0 0 0 0 0
          0 0 0 0 0 0
          0 0 0 0 0 0
          0 0 0 0 0 0
          0 0 0 0 0 0
          0 0 0 0 0 0
          0 0 0 0 0 0
          0 0 0 0 0 0
          0 0 0 0 0 0
          0 0 0
        </DataArray>
        <DataArray type="Float64" Name="markers_mustrefine" format="ascii" RangeMin="0" RangeMax="2">
          1 0 2 0 2 0
          0 2 2 0.75 2 2
          2 2 2 2 2 2
          2 1 0.5 2 2 1
          0 0 0 0 0 0
          0 0 0 0 2 1.25
          2 2 2 1.75 1.5 2
          0 0.5 0 0.5 0 0
          0 1 1 0 2 2
          2 2 2 2 2 2
          2 2 1.75 2 2 2
          1.5 1.25 1 0.5 2 1.75
          2 1 1 0.5 0.75 0
          0 0 1.25 1 0.5 2
          2 2 2 2 2 2
          2 2 2 2 2 2
          2 2 2 2 2 2
          2 2 2 2 2 2
          2 2 2 2 2 2
          2 2 2 2 2 2
          2 2 2 2 2 2
          2 2 2 2 2 2
          2 2 2 2 2 2
          2 2 2 2 2 2
          2 2 2 2 2 2
          2 2 2 2 2 2
          2 2 2 2 1.6666666666666667 1.75
          1.25 1.5 0.5 2 1.5 2
          2 2 2 2 2 2
          2 2 2 2 2 2
          2 2 2 2 1.5 1.3333333333333333
          2 2 1.5 2 1.75 2
          1.5 2 2 2 0.5 0.5
          0 0 0 0 0 0.5
          0 0 2 1.25 2 1.75
          0 0.25 0 0 0 0
          0 0.75 0.5 0 2 2
          2 2 2 2 2 2
          2 2 2 2 1 1
          0 0 1 0 2 2
          2 2 1.25 0.5 1.5 1
          0 0 0 0 0 0
          0 0 0 0 0 0
          0 0 0 0 0 0
          0 0 0 0 0.5 0.25
          0 0 0 1.75 1 1
          0 1.75 0 0 0 0
          0 0 0 0 0 0.25
          0 0 0.25 0 0 0
          0 0 0 0 0 0
          0 0 0 0 2 2
          2 2 2 2 2 2
          2 2 2 1.5 1.75 2
          2 1.5 2 0.5 0.5 1.5
          0 0 1 2 2 2
          2 2 2 2 2 2
          2 2 2 2 2 1.3333333333333333
          0.6666666666666666 0 1.5 1.3333333333333333 2 2
          2 2 2 2 2 2
          2 2 2 2 2 1.75
          2 2 2 2 2 2
          2 2 2 2 2 2
          2 2 2 2 2 2
          2 2 2 2 2 2
          2 2 2 2 2 2
          2 2 2 2 2 2
          2 2 2 2 2 2
          2 2 2 2 2 2
          2 2 2 2 2 2
          2 2 2 2 2 2
          2 2 2 2 2 2
          2 1.6666666666666667 1.5 2 2 2
          2 2 2 2 2 2
          2 2 1 1 0 1
          2 1.5 2 1.75 1.3333333333333333 2
          1.75 0.6666666666666666 1 2 2 2
          1.25 2 2 2 2 2
          2 2 2 2 2 2
          2 2 2 2 2 2
          2 2 2 2 2 2
          1.75 1 2 2 2 2
          1 0 1
        </DataArray>
        <DataArray type="Float64" Name="gradient_marker" format="ascii" RangeMin="1" RangeMax="1">
          1 1 1 1 1 1
          1 1 1 1 1 1
          1 1 1 1 1 1
          1 1 1 1 1 1
          1 1 1 1 1 1
          1 1 1 1 1 1
          1 1 1 1 1 1
          1 1 1 1 1 1
          1 1 1 1 1 1
          1 1 1 1 1 1
          1 1 1 1 1 1
          1 1 1 1 1 1
          1 1 1 1 1 1
          1 1 1 1 1 1
          1 1 1 1 1 1
          1 1 1 1 1 1
          1 1 1 1 1 1
          1 1 1 1 1 1
          1 1 1 1 1 1
          1 1 1 1 1 1
          1 1 1 1 1 1
          1 1 1 1 1 1
          1 1 1 1 1 1
          1 1 1 1 1 1
          1 1 1 1 1 1
          1 1 1 1 1 1
          1 1 1 1 1 1
          1 1 1 1 1 1
          1 1 1 1 1 1
          1 1 1 1 1 1
          1 1 1 1 1 1
          1 1 1 1 1 1
          1 1 1 1 1 1
          1 1 1 1 1 1
          1 1 1 1 1 1
          1 1 1 1 1 1
          1 1 1 1 1 1
          1 1 1 1 1 1
          1 1 1 1 1 1
          1 1 1 1 1 1
          1 1 1 1 1 1
          1 1 1 1 1 1
          1 1 1 1 1 1
          1 1 1 1 1 1
          1 1 1 1 1 1
          1 1 1 1 1 1
          1 1 1 1 1 1
          1 1 1 1 1 1
          1 1 1 1 1 1
          1 1 1 1 1 1
          1 1 1 1 1 1
          1 1 1 1 1 1
          1 1 1 1 1 1
          1 1 1 1 1 1
          1 1 1 1 1 1
          1 1 1 1 1 1
          1 1 1 1 1 1
          1 1 1 1 1 1
          1 1 1 1 1 1
          1 1 1 1 1 1
          1 1 1 1 1 1
          1 1 1 1 1 1
          1 1 1 1 1 1
          1 1 1 1 1 1
          1 1 1 1 1 1
          1 1 1 1 1 1
          1 1 1 1 1 1
          1 1 1 1 1 1
          1 1 1 1 1 1
          1 1 1 1 1 1
          1 1 1 1 1 1
          1 1 1 1 1 1
          1 1 1 1 1 1
          1 1 1 1 1 1
          1 1 1 1 1 1
          1 1 1 1 1 1
          1 1 1 1 1 1
          1 1 1 1 1 1
          1 1 1 1 1 1
          1 1 1 1 1 1
          1 1 1 1 1 1
          1 1 1
        </DataArray>
        <DataArray type="Float64" Name="gradient_matprop_marker" format="ascii" RangeMin="0" RangeMax="0">
          0 0 0 0 0 0
          0 0 0 0 0 0
          0 0 0 0 0 0
          0 0 0 0 0 0
          0 0 0 0 0 0
          0 0 0 0 0 0
          0 0 0 0 0 0
          0 0 0 0 0 0
          0 0 0 0 0 0
          0 0 0 0 0 0
          0 0 0 0 0 0
          0 0 0 0 0 0
          0 0 0 0 0 0
          0 0 0 0 0 0
          0 0 0 0 0 0
          0 0 0 0 0 0
          0 0 0 0 0 0
          0 0 0 0 0 0
          0 0 0 0 0 0
          0 0 0 0 0 0
          0 0 0 0 0 0
          0 0 0 0 0 0
          0 0 0 0 0 0
          0 0 0 0 0 0
          0 0 0 0 0 0
          0 0 0 0 0 0
          0 0 0 0 0 0
          0 0 0 0 0 0
          0 0 0 0 0 0
          0 0 0 0 0 0
          0 0 0 0 0 0
          0 0 0 0 0 0
          0 0 0 0 0 0
          0 0 0 0 0 0
          0 0 0 0 0 0
          0 0 0 0 0 0
          0 0 0 0 0 0
          0 0 0 0 0 0
          0 0 0 0 0 0
          0 0 0 0 0 0
          0 0 0 0 0 0
          0 0 0 0 0 0
          0 0 0 0 0 0
          0 0 0 0 0 0
          0 0 0 0 0 0
          0 0 0 0 0 0
          0 0 0 0 0 0
          0 0 0 0 0 0
          0 0 0 0 0 0
          0 0 0 0 0 0
          0 0 0 0 0 0
          0 0 0 0 0 0
          0 0 0 0 0 0
          0 0 0 0 0 0
          0 0 0 0 0 0
          0 0 0 0 0 0
          0 0 0 0 0 0
          0 0 0 0 0 0
          0 0 0 0 0 0
          0 0 0 0 0 0
          0 0 0 0 0 0
          0 0 0 0 0 0
          0 0 0 0 0 0
          0 0 0 0 0 0
          0 0 0 0 0 0
          0 0 0 0 0 0
          0 0 0 0 0 0
          0 0 0 0 0 0
          0 0 0 0 0 0
          0 0 0 0 0 0
          0 0 0 0 0 0
          0 0 0 0 0 0
          0 0 0 0 0 0
          0 0 0 0 0 0
          0 0 0 0 0 0
          0 0 0 0 0 0
          0 0 0 0 0 0
          0 0 0 0 0 0
          0 0 0 0 0 0
          0 0 0 0 0 0
          0 0 0 0 0 0
          0 0 0
        </DataArray>
        <DataArray type="Float64" Name="combo" format="ascii" RangeMin="1" RangeMax="1">
          1 1 1 1 1 1
          1 1 1 1 1 1
          1 1 1 1 1 1
          1 1 1 1 1 1
          1 1 1 1 1 1
          1 1 1 1 1 1
          1 1 1 1 1 1
          1 1 1 1 1 1
          1 1 1 1 1 1
          1 1 1 1 1 1
          1 1 1 1 1 1
          1 1 1 1 1 1
          1 1 1 1 1 1
          1 1 1 1 1 1
          1 1 1 1 1 1
          1 1 1 1 1 1
          1 1 1 1 1 1
          1 1 1 1 1 1
          1 1 1 1 1 1
          1 1 1 1 1 1
          1 1 1 1 1 1
          1 1 1 1 1 1
          1 1 1 1 1 1
          1 1 1 1 1 1
          1 1 1 1 1 1