<?xml version="1.0"?>
<VTKFile type="UnstructuredGrid" version="0.1" byte_order="LittleEndian" header_type="UInt32" compressor="vtkZLibDataCompressor">
  <UnstructuredGrid>
    <Piece NumberOfPoints="506" NumberOfCells="278">
      <PointData>
        <DataArray type="Int32" Name="libmesh_node_id" format="ascii" RangeMin="157" RangeMax="5216">
          212 213 214 215 216 217
          218 219 242 243 244 245
          263 264 265 266 267 268
          269 270 293 294 295 296
          314 315 316 317 318 319
          320 321 344 345 346 347
          420 421 424 427 428 429
          430 722 725 728 731 4611
          4612 4613 4614 4615 4616 4617
          4618 4619 4620 4621 4622 4623
          4624 4625 4626 4627 4628 4682
          4683 4684 4685 4686 4687 4688
          4689 4690 4691 4692 4693 4694
          4695 4696 4697 4698 4699 4700
          4701 4702 4703 4704 4705 4706
          4707 4708 4709 4710 4711 4712
          4713 4714 4715 4716 4717 4718
          4719 4720 4721 4722 4723 4724
          4725 4726 4727 4728 4730 4732
          4735 4737 4741 4742 4743 4744
          4745 4750 4751 4753 4754 4755
          4756 4757 4758 4759 4760 4761
          4762 4763 4764 4765 4766 4768
          4770 4775 4778 4781 4782 4783
          4784 4785 4786 4787 4788 4789
          4790 4791 4792 4793 4794 4795
          4796 4797 4798 4799 4800 4801
          4802 4803 4804 4805 4806 4807
          4808 4809 4810 4825 4826 4827
          4828 4829 4830 4831 4832 4833
          4834 4835 4836 4837 4838 4839
          4840 4841 4842 4843 4844 4845
          4846 4847 4848 4849 4850 4851
          4852 4853 4854 4855 4856 4857
          4858 4859 4860 4964 4965 4966
          4967 4968 4969 4970 4971 4972
          4973 4974 4975 4976 4977 4978
          4979 4980 4981 4982 4983 4984
          4985 4986 4987 4988 4989 4990
          4991 4992 4993 4994 4995 4996
          4997 4998 4999 5000 5001 5002
          5003 5004 5005 5006 5007 5008
          5009 5010 5011 5012 5013 5014
          5015 5016 5017 5018 5019 5020
          5021 5022 5023 5024 5025 5026
          5027 5028 5029 5030 5031 5032
          5033 5034 5035 5036 5037 5038
          5039 5040 5041 5042 5043 5044
          5045 5046 5047 5048 5049 5050
          5051 5052 5053 5054 5055 5056
          5057 5058 5059 5060 5061 5062
          5063 5064 5065 5066 5067 5068
          5069 5070 5071 5072 5073 5074
          5075 5076 5077 5078 5079 5080
          5081 5082 5083 5084 5085 5086
          5087 5088 5089 5090 5091 5092
          5093 5094 5095 5096 5097 5098
          5099 5100 5101 5102 5103 5104
          5105 5106 5107 5108 5109 5110
          5111 5112 5113 5114 5115 5116
          5117 5118 5119 5120 5121 5122
          5123 5124 5125 5126 5127 5128
          5129 5130 5131 5132 5133 5134
          5135 5136 5137 5138 5139 5140
          5141 5142 5143 5144 5145 5146
          5147 5148 5149 5150 5151 5152
          5153 5154 5155 5156 5157 5158
          5159 5160 5161 5162 5163 5164
          5165 5166 5167 5168 5169 5170
          5171 5172 5173 5174 5175 5176
          5177 5178 5179 5180 5181 5182
          5183 5184 5185 5186 5187 5188
          5189 5190 5191 5192 5193 5194
          5195 5196 5197 5198 5199 5200
          5201 5202 5203 5204 5205 5206
          5207 5208 5209 5210 5211 5212
          5213 5214 5215 5216 157 159
          160 158 208 210 211 209
          161 162 163 164 165 166
          167 168 191 190 241 192
          193 194 262 292 261 4672
          4673 4674 4677 4815 4816 4820
          313 4823 343 4940 4941 4942
          4945 312 4948 4680 4954 4955
          4959 4962
        </DataArray>
        <DataArray type="Float64" Name="bounds" format="ascii" RangeMin="0" RangeMax="0">
          0 0 0 0 0 0
          0 0 0 0 0 0
          0 0 0 0 0 0
          0 0 0 0 0 0
          0 0 0 0 0 0
          0 0 0 0 0 0
          0 0 0 0 0 0
          0 0 0 0 0 0
          0 0 0 0 0 0
          0 0 0 0 0 0
          0 0 0 0 0 0
          0 0 0 0 0 0
          0 0 0 0 0 0
          0 0 0 0 0 0
          0 0 0 0 0 0
          0 0 0 0 0 0
          0 0 0 0 0 0
          0 0 0 0 0 0
          0 0 0 0 0 0
          0 0 0 0 0 0
          0 0 0 0 0 0
          0 0 0 0 0 0
          0 0 0 0 0 0
          0 0 0 0 0 0
          0 0 0 0 0 0
          0 0 0 0 0 0
          0 0 0 0 0 0
          0 0 0 0 0 0
          0 0 0 0 0 0
          0 0 0 0 0 0
          0 0 0 0 0 0
          0 0 0 0 0 0
          0 0 0 0 0 0
          0 0 0 0 0 0
          0 0 0 0 0 0
          0 0 0 0 0 0
          0 0 0 0 0 0
          0 0 0 0 0 0
          0 0 0 0 0 0
          0 0 0 0 0 0
          0 0 0 0 0 0
          0 0 0 0 0 0
          0 0 0 0 0 0
          0 0 0 0 0 0
          0 0 0 0 0 0
          0 0 0 0 0 0
          0 0 0 0 0 0
          0 0 0 0 0 0
          0 0 0 0 0 0
          0 0 0 0 0 0
          0 0 0 0 0 0
          0 0 0 0 0 0
          0 0 0 0 0 0
          0 0 0 0 0 0
          0 0 0 0 0 0
          0 0 0 0 0 0
          0 0 0 0 0 0
          0 0 0 0 0 0
          0 0 0 0 0 0
          0 0 0 0 0 0
          0 0 0 0 0 0
          0 0 0 0 0 0
          0 0 0 0 0 0
          0 0 0 0 0 0
          0 0 0 0 0 0
          0 0 0 0 0 0
          0 0 0 0 0 0
          0 0 0 0 0 0
          0 0 0 0 0 0
          0 0 0 0 0 0
          0 0 0 0 0 0
          0 0 0 0 0 0
          0 0 0 0 0 0
          0 0 0 0 0 0
          0 0 0 0 0 0
          0 0 0 0 0 0
          0 0 0 0 0 0
          0 0 0 0 0 0
          0 0 0 0 0 0
          0 0 0 0 0 0
          0 0 0 0 0 0
          0 0 0 0 0 0
          0 0 0 0 0 0
          0 0 0 0 0 0
          0 0
        </DataArray>
        <DataArray type="Float64" Name="gradient_error" format="ascii" RangeMin="2.4780328514124825e-9" RangeMax="0.000001857217418190317">
          2.29196202165865e-8 1.1206087790081287e-8 1.5165997674563044e-8 8.897133297722993e-9 9.491509676539455e-9 9.797815510931448e-9
          1.9381560222731353e-8 1.0838464524421662e-8 8.195709306101437e-9 8.59122901359078e-9 1.0624800905403731e-8 1.126642584653969e-8
          1.330982071986867e-7 2.9246339782078133e-7 1.0755537217103055e-7 2.4284073361058723e-7 1.1620155910030179e-7 1.9655076017999236e-7
          1.714322059478508e-7 1.4560189020408166e-7 1.3273743237231864e-8 1.1603944255085916e-8 1.081449354439354e-8 1.1157309651572251e-8
          5.838998146474538e-7 3.005287036230617e-7 7.573042406187559e-7 2.298757609376602e-7 0.0000010163148474770437 1.8059242558455132e-7
          0.0000014029715886037556 2.8404569897159567e-7 7.00911620390115e-8 6.28698847788846e-8 4.005339492741866e-8 3.0604032585206286e-8
          2.039416959476365e-7 9.94285147017125e-7 5.80614272105e-7 2.2493566389531485e-7 0.0000016801394861761472 0.0000018087307130840111
          0.000001186823980444651 0.0000017597747895938467 0.0000017123882386680223 0.0000012527564960222944 0.000001857217418190317 1.3960229386113773e-8
          1.176429693484664e-8 9.189224559148133e-9 5.4272468546804304e-8 7.288786824687896e-8 5.751794477953127e-8 4.8893685839134845e-8
          1.9176413661437406e-8 1.0624509626769498e-7 7.299176921286226e-8 9.568364483579507e-9 4.214802131218359e-8 4.35149031314654e-8
          3.9738442158029544e-8 1.3486618892433437e-7 2.1802490795965027e-7 2.3937103216368974e-7 2.2238181039025342e-7 7.563886630777334e-7
          6.697713384447158e-7 0.0000011732255181314253 9.610641190994467e-7 3.395023693346496e-7 6.989057803901703e-7 6.881315591543968e-7
          4.226781062721479e-7 4.49805696784258e-7 4.025337946345475e-7 5.097262617805499e-7 7.26971027419361e-7 7.78628367351692e-7
          3.313747666750186e-7 1.1101959604826199e-7 3.091901376179812e-7 7.465466653396011e-7 6.818741039207584e-7 2.869386370586851e-7
          7.933129534689583e-7 6.737866508574346e-7 3.509824136600304e-7 3.560092141340122e-7 3.115152078168373e-7 6.621547966991297e-7
          8.362329566193484e-7 8.989728532737528e-7 2.6611761230152506e-7 1.0858354093881643e-7 2.6325797144663914e-7 8.421415990762879e-7
          6.608068738340035e-7 8.926044079512931e-7 6.417883628424266e-7 2.884676288681042e-7 2.6826645774427776e-7 2.3486840144251988e-7
          8.738666910131008e-7 9.664128134191597e-7 0.0000010378753141386534 1.946717003641221e-7 9.437752222207964e-7 6.154417701020917e-7
          2.2065648010315046e-7 0.0000011892936329306546 0.0000011120586787897872 2.1059726283437837e-7 1.9746277605183596e-8 7.344946995942947e-8
          1.7213406422380874e-8 1.2715266231367535e-7 1.30849902578636e-7 2.59380869645288e-7 2.4071173993559183e-7 2.002417178591115e-7
          2.1774823443761555e-7 1.5977169578263122e-7 1.761155992299431e-7 0.0000010192239726039756 8.768936097141126e-7 8.6320854148089e-7
          6.090737918284886e-7 0.0000015156509166948031 0.000001632396220911862 0.0000016027149055671674 0.0000014987787445367344 0.0000010158143220213492
          9.970193867044087e-7 0.000001529814404700201 0.0000017095050528418462 0.0000015757869724082836 0.000001224145463393488 2.9030798341262e-7
          3.8751291935069425e-7 2.628936376712368e-7 4.847178552887686e-7 2.2982728335426636e-8 1.534228091721369e-8 1.9306168244821197e-8
          6.265539528865352e-8 5.8792382414219795e-8 4.481906883763581e-8 4.6196303746552505e-8 1.208856659399911e-8 4.786505372651192e-8
          4.0568923341809845e-8 7.701833499000743e-9 3.0845755261051824e-8 2.9737212204451494e-8 3.327279295710776e-8 2.138262726544718e-8
          1.2391488848282713e-8 4.082550807298449e-8 3.8875106690387634e-8 1.1351521492107009e-8 4.190589566873764e-8 4.139341839379684e-8
          3.4003504311182425e-9 3.6924705307790766e-8 4.088094111885604e-8 1.2612031970469878e-8 9.950868368892456e-9 4.558811757308948e-8
          4.437628679620224e-8 7.289704767315035e-9 4.3164456019315e-8 3.9155988322389276e-8 1.173843455914779e-7 3.0406533637886605e-8
          9.954724188141241e-8 1.3999298407928739e-8 4.0893578434735346e-8 4.228644256824812e-8 1.9561270286056652e-7 1.6868795012493822e-7
          6.778785846154194e-8 2.098743007416435e-8 7.896045175609654e-8 1.3201226428630727e-8 5.779752609764235e-8 1.3072985114389949e-8
          4.057046384581839e-8 3.661101154525109e-8 1.3693347343802876e-7 1.0239382576665396e-7 6.806794257724684e-8 1.2006445198729459e-8
          3.939277516087524e-8 1.4802168077391372e-8 3.122530462947935e-8 7.631657898149122e-9 3.081663434822337e-8 2.2625004580787073e-8
          6.677910512302103e-8 4.7648441181567325e-8 5.4001610798297614e-8 1.7479157681794035e-8 4.148528440486455e-8 3.575675300747925e-9
          1.3309518418663086e-8 6.549141112793507e-8 2.3043361536578245e-8 2.500771699273429e-7 2.2464637500909634e-7 2.563843034614609e-7
          3.6859086591384136e-7 3.6497101416838246e-7 3.212774925204329e-7 3.2227020199191404e-7 1.8143631708755758e-7 3.5888744050199417e-7
          3.18272001720248e-7 1.992155800908498e-7 2.775839708724834e-7 2.7594953806998673e-7 2.776565629385018e-7 6.678425657346766e-7
          6.219123121152012e-7 6.718779320091505e-7 6.509333093399333e-7 5.476281194722375e-7 8.320103502000078e-7 7.905014166170741e-7
          6.569253701858067e-7 7.054984468210786e-7 6.816045294423816e-7 7.32448712328101e-7 6.12130880183148e-7 6.572126361772765e-7
          6.776815108522594e-7 4.818403901716057e-7 6.204954770250831e-7 6.511585769036598e-7 7.022943921714049e-7 7.0098635549112e-7
          7.565436336969872e-7 7.275972609523399e-7 7.860766419513005e-7 6.978243071266133e-7 7.194470354182731e-7 5.461524379223087e-7
          6.871712531953414e-7 7.25394351575673e-7 7.521826158719288e-7 3.711079721731303e-7 4.326429496492811e-7 3.722648441267723e-7
          4.362982092889857e-7 2.6694666701410503e-7 3.0493215040036006e-7 3.00526292087273e-7 4.94177927125432e-7 5.003315744511991e-7
          3.42917633786615e-7 3.7304718541253546e-7 4.3971363549395956e-7 3.7326551762849956e-7 4.426678876229374e-7 2.551741293998098e-7
          2.9587956863754703e-7 2.909977273595896e-7 5.063800855753837e-7 5.120702576173752e-7 3.3658500787528427e-7 1.7091475770902948e-7
          1.653898218536294e-7 3.5520557956167847e-7 3.147000764112663e-7 1.5710879943062646e-7 3.524544384418978e-7 3.11252239403537e-7
          1.5986488599822932e-7 2.7419457326085403e-7 2.700500403651762e-7 7.235413852830873e-7 6.71702694883348e-7 6.901612393232744e-7
          5.80985414912819e-7 1.5469312517700307e-7 1.501258135635863e-7 3.490913327129418e-7 3.071623506770274e-7 1.4370690168666493e-7
          3.449306475199915e-7 3.023059632187862e-7 1.455585019501695e-7 2.6523336864111314e-7 2.5968127891758093e-7 7.696878566880998e-7
          7.084255730278831e-7 7.267406957099538e-7 6.008663256031885e-7 7.644408777353017e-7 8.223974974515097e-7 8.060550268552691e-7
          8.619843880615622e-7 7.419648083532159e-7 7.64678184518735e-7 6.212953863187562e-7 7.653999361052268e-7 8.09041976853023e-7
          8.067136245989426e-7 8.516075166451903e-7 9.046983147688395e-7 9.01341143553045e-7 9.507727625966934e-7 7.879186917304734e-7
          8.116116430165434e-7 7.073288601630616e-7 8.567443712723818e-7 9.089691585243867e-7 8.669920127221924e-7 3.725827844994128e-7
          4.4485939068731e-7 3.7104407737452947e-7 4.4626528282126967e-7 2.4193733322758555e-7 2.861432818359061e-7 2.8108794587292483e-7
          5.171359968752072e-7 5.214864882680099e-7 3.3034923044422664e-7 3.686747169936349e-7 4.468444872983026e-7 3.653676898877233e-7
          4.4647019125345794e-7 2.2907703591303672e-7 2.7564070402814713e-7 2.699214781141706e-7 5.250142576029704e-7 5.275726926191926e-7
          3.2220437214325756e-7 1.4316966988871035e-7 1.376144077957071e-7 3.396934155392751e-7 2.964803768501786e-7 1.3202445360388438e-7
          3.332288783961193e-7 2.895620348821348e-7 1.3205914570270383e-7 2.53267338161082e-7 2.458951913681504e-7 8.174809458159134e-7
          7.451050530575554e-7 7.634106916320254e-7 6.176198370799728e-7 1.3523330048477996e-7 1.2717037549176878e-7 3.253602010768451e-7
          2.814104615908857e-7 1.2342711748094582e-7 3.1592762450337925e-7 2.718952087915037e-7 1.1910745049875762e-7 2.374607221049263e-7
          2.2786279307962835e-7 8.672169875013256e-7 7.815283202447639e-7 7.992936891717244e-7 6.297895069358626e-7 9.556853769714438e-7
          0.0000010005588524876051 0.000001015147505537681 0.0000010544673730668493 8.356637211930439e-7 8.599315802775474e-7 8.126260235009009e-7
          9.662539447647494e-7 0.000001029212979030033 9.321354520758588e-7 0.0000010802703965757152 0.0000011129679876707952 0.0000011516182497995476
          0.0000011765945994652685 8.842414742686048e-7 9.083657396356444e-7 9.415939198176891e-7 0.0000010985298825420654 0.00000117496512068915
          0.0000010017056849889634 3.610205013052036e-7 4.44998659957687e-7 3.5551551616158507e-7 4.4227104834875596e-7 2.1463981196888321e-7
          2.6410220553305233e-7 2.584661767384345e-7 5.289768186101704e-7 5.29026580535927e-7 3.1356459909722135e-7 3.4872258523676235e-7
          4.380961250862176e-7 3.4050326881871834e-7 4.3227078393671857e-7 1.997559556423413e-7 2.5337488040110093e-7 2.493810377331377e-7
          5.274696649356728e-7 5.240382990547187e-7 3.0699380515986064e-7 1.3419886312180035e-7 1.2123869050773482e-7 3.0474387512253405e-7
          2.608734518792444e-7 1.2121910218203068e-7 2.9165044075877635e-7 2.482202087962421e-7 1.0827851789366929e-7 2.170030286359548e-7
          2.047899768337079e-7 9.181780961148561e-7 8.165361330907486e-7 8.330506738053598e-7 6.348073797923693e-7 1.4562644977220743e-7
          1.240951252754991e-7 2.765116723827453e-7 2.338396241884614e-7 1.0256380077879077e-7 1.911675759941775e-7 9.691949386708692e-7
          8.486544796588999e-7 6.292122188379545e-7 0.000001229814009349222 0.000001245990727409827 0.0000013157300332978595 0.0000013220131163606636
          9.320451147297664e-7 9.549476762441072e-7 0.0000010985607135919994 0.0000012594174018889112 0.0000013531462005210617 0.0000010747429294600988
          0.0000014105605657314533 0.0000014058048062664344 9.767209853332824e-7 0.0000012901281491144508 0.0000014578847763164933 0.000001149509318014415
          3.3070483377879007e-7 4.2454637685341837e-7 3.1917421166236266e-7 4.146805194355738e-7 1.8677586831375445e-7 2.471699697177365e-7
          2.4776188580640104e-7 5.183879199280467e-7 5.10186827208785e-7 3.0756407112171856e-7 3.0575076397540414e-7 4.0239544669212e-7
          1.8009291273080573e-7 2.523979695190917e-7 4.990401294088358e-7 3.2470302630737773e-7 2.1655088580361183e-8 2.066955077784719e-8
          1.1879894682053184e-8 1.28454531618141e-8 9.12698714398726e-8 7.146759097063693e-8 3.8218832917498934e-8 5.1672890816004e-8
          1.565050317377766e-8 9.120843857997497e-9 8.158634983957636e-9 5.3837192208828366e-9 5.822444439560775e-9 4.381701779138068e-9
          6.614109395601436e-9 4.54607112350696e-9 2.591184542217334e-9 3.0902385862591725e-9 9.061954698583939e-9 2.608803457808037e-9
          2.9409591187153603e-9 2.4780328514124825e-9 3.652667452276856e-7 1.2610037782252804e-8 0.0000013427906440094663 0.0000012847018361880797
          0.0000016681517342888922 0.000001241248418878775 4.85041914214998e-7 4.982932074393723e-8 1.2212895852773432e-7 3.12043153388791e-8
          3.4651670482814794e-7 1.9442859631153143e-7 5.01645528543335e-8 7.576825974864973e-7 6.278529008471546e-7 6.762974392978557e-7
          6.345875810204781e-7 4.59997090323485e-7 5.949122811092141e-7 6.77187858941384e-7 3.6897713195739576e-7 4.292108199475457e-7
          3.1398845560269203e-7 4.894445079376957e-7
        </DataArray>
        <DataArray type="Float64" Name="gradient_matprop_error" format="ascii" RangeMin="0" RangeMax="0">
          0 0 0 0 0 0
          0 0 0 0 0 0
          0 0 0 0 0 0
          0 0 0 0 0 0
          0 0 0 0 0 0
          0 0 0 0 0 0
          0 0 0 0 0 0
          0 0 0 0 0 0
          0 0 0 0 0 0
          0 0 0 0 0 0
          0 0 0 0 0 0
          0 0 0 0 0 0
          0 0 0 0 0 0
          0 0 0 0 0 0
          0 0 0 0 0 0
          0 0 0 0 0 0
          0 0 0 0 0 0
          0 0 0 0 0 0
          0 0 0 0 0 0
          0 0 0 0 0 0
          0 0 0 0 0 0
          0 0 0 0 0 0
          0 0 0 0 0 0
          0 0 0 0 0 0
          0 0 0 0 0 0
          0 0 0 0 0 0
          0 0 0 0 0 0
          0 0 0 0 0 0
          0 0 0 0 0 0
          0 0 0 0 0 0
          0 0 0 0 0 0
          0 0 0 0 0 0
          0 0 0 0 0 0
          0 0 0 0 0 0
          0 0 0 0 0 0
          0 0 0 0 0 0
          0 0 0 0 0 0
          0 0 0 0 0 0
          0 0 0 0 0 0
          0 0 0 0 0 0
          0 0 0 0 0 0
          0 0 0 0 0 0
          0 0 0 0 0 0
          0 0 0 0 0 0
          0 0 0 0 0 0
          0 0 0 0 0 0
          0 0 0 0 0 0
          0 0 0 0 0 0
          0 0 0 0 0 0
          0 0 0 0 0 0
          0 0 0 0 0 0
          0 0 0 0 0 0
          0 0 0 0 0 0
          0 0 0 0 0 0
          0 0 0 0 0 0
          0 0 0 0 0 0
          0 0 0 0 0 0
          0 0 0 0 0 0
          0 0 0 0 0 0
          0 0 0 0 0 0
          0 0 0 0 0 0
          0 0 0 0 0 0
          0 0 0 0 0 0
          0 0 0 0 0 0
          0 0 0 0 0 0
          0 0 0 0 0 0
          0 0 0 0 0 0
          0 0 0 0 0 0
          0 0 0 0 0 0
          0 0 0 0 0 0
          0 0 0 0 0 0
          0 0 0 0 0 0
          0 0 0 0 0 0
          0 0 0 0 0 0
          0 0 0 0 0 0
          0 0 0 0 0 0
          0 0 0 0 0 0
          0 0 0 0 0 0
          0 0 0 0 0 0
          0 0 0 0 0 0
          0 0 0 0 0 0
          0 0 0 0 0 0
          0 0 0 0 0 0
          0 0 0 0 0 0
          0 0
        </DataArray>
        <DataArray type="Float64" Name="initial_marker" format="ascii" RangeMin="0" RangeMax="0">
          0 0 0 0 0 0
          0 0 0 0 0 0
          0 0 0 0 0 0
          0 0 0 0 0 0
          0 0 0 0 0 0
          0 0 0 0 0 0
          0 0 0 0 0 0
          0 0 0 0 0 0
          0 0 0 0 0 0
          0 0 0 0 0 0
          0 0 0 0 0 0
          0 0 0 0 0 0
          0 0 0 0 0 0
          0 0 0 0 0 0
          0 0 0 0 0 0
          0 0 0 0 0 0
          0 0 0 0 0 0
          0 0 0 0 0 0
          0 0 0 0 0 0
          0 0 0 0 0 0
          0 0 0 0 0 0
          0 0 0 0 0 0
          0 0 0 0 0 0
          0 0 0 0 0 0
          0 0 0 0 0 0
          0 0 0 0 0 0
          0 0 0 0 0 0
          0 0 0 0 0 0
          0 0 0 0 0 0
          0 0 0 0 0 0
          0 0 0 0 0 0
          0 0 0 0 0 0
          0 0 0 0 0 0
          0 0 0 0 0 0
          0 0 0 0 0 0
          0 0 0 0 0 0
          0 0 0 0 0 0
          0 0 0 0 0 0
          0 0 0 0 0 0
          0 0 0 0 0 0
          0 0 0 0 0 0
          0 0 0 0 0 0
          0 0 0 0 0 0
          0 0 0 0 0 0
          0 0 0 0 0 0
          0 0 0 0 0 0
          0 0 0 0 0 0
          0 0 0 0 0 0
          0 0 0 0 0 0
          0 0 0 0 0 0
          0 0 0 0 0 0
          0 0 0 0 0 0
          0 0 0 0 0 0
          0 0 0 0 0 0
          0 0 0 0 0 0
          0 0 0 0 0 0
          0 0 0 0 0 0
          0 0 0 0 0 0
          0 0 0 0 0 0
          0 0 0 0 0 0
          0 0 0 0 0 0
          0 0 0 0 0 0
          0 0 0 0 0 0
          0 0 0 0 0 0
          0 0 0 0 0 0
          0 0 0 0 0 0
          0 0 0 0 0 0
          0 0 0 0 0 0
          0 0 0 0 0 0
          0 0 0 0 0 0
          0 0 0 0 0 0
          0 0 0 0 0 0
          0 0 0 0 0 0
          0 0 0 0 0 0
          0 0 0 0 0 0
          0 0 0 0 0 0
          0 0 0 0 0 0
          0 0 0 0 0 0
          0 0 0 0 0 0
          0 0 0 0 0 0
          0 0 0 0 0 0
          0 0 0 0 0 0
          0 0 0 0 0 0
          0 0 0 0 0 0
          0 0
        </DataArray>
        <DataArray type="Float64" Name="markers_norefine" format="ascii" RangeMin="0" RangeMax="0">
          0 0 0 0 0 0
          0 0 0 0 0 0
          0 0 0 0 0 0
          0 0 0 0 0 0
          0 0 0 0 0 0
          0 0 0 0 0 0
          0 0 0 0 0 0
          0 0 0 0 0 0
          0 0 0 0 0 0
          0 0 0 0 0 0
          0 0 0 0 0 0
          0 0 0 0 0 0
          0 0 0 0 0 0
          0 0 0 0 0 0
          0 0 0 0 0 0
          0 0 0 0 0 0
          0 0 0 0 0 0
          0 0 0 0 0 0
          0 0 0 0 0 0
          0 0 0 0 0 0
          0 0 0 0 0 0
          0 0 0 0 0 0
          0 0 0 0 0 0
          0 0 0 0 0 0
          0 0 0 0 0 0
          0 0 0 0 0 0
          0 0 0 0 0 0
          0 0 0 0 0 0
          0 0 0 0 0 0
          0 0 0 0 0 0
          0 0 0 0 0 0
          0 0 0 0 0 0
          0 0 0 0 0 0
          0 0 0 0 0 0
          0 0 0 0 0 0
          0 0 0 0 0 0
          0 0 0 0 0 0
          0 0 0 0 0 0
          0 0 0 0 0 0
          0 0 0 0 0 0
          0 0 0 0 0 0
          0 0 0 0 0 0
          0 0 0 0 0 0
          0 0 0 0 0 0
          0 0 0 0 0 0
          0 0 0 0 0 0
          0 0 0 0 0 0
          0 0 0 0 0 0
          0 0 0 0 0 0
          0 0 0 0 0 0
          0 0 0 0 0 0
          0 0 0 0 0 0
          0 0 0 0 0 0
          0 0 0 0 0 0
          0 0 0 0 0 0
          0 0 0 0 0 0
          0 0 0 0 0 0
          0 0 0 0 0 0
          0 0 0 0 0 0
          0 0 0 0 0 0
          0 0 0 0 0 0
          0 0 0 0 0 0
          0 0 0 0 0 0
          0 0 0 0 0 0
          0 0 0 0 0 0
          0 0 0 0 0 0
          0 0 0 0 0 0
          0 0 0 0 0 0
          0 0 0 0 0 0
          0 0 0 0 0 0
          0 0 0 0 0 0
          0 0 0 0 0 0
          0 0 0 0 0 0
          0 0 0 0 0 0
          0 0 0 0 0 0
          0 0 0 0 0 0
          0 0 0 0 0 0
          0 0 0 0 0 0
          0 0 0 0 0 0
          0 0 0 0 0 0
          0 0 0 0 0 0
          0 0 0 0 0 0
          0 0 0 0 0 0
          0 0 0 0 0 0
          0 0
        </DataArray>
        <DataArray type="Float64" Name="markers_mustrefine" format="ascii" RangeMin="0" RangeMax="0">
          0 0 0 0 0 0
          0 0 0 0 0 0
          0 0 0 0 0 0
          0 0 0 0 0 0
          0 0 0 0 0 0
          0 0 0 0 0 0
          0 0 0 0 0 0
          0 0 0 0 0 0
          0 0 0 0 0 0
          0 0 0 0 0 0
          0 0 0 0 0 0
          0 0 0 0 0 0
          0 0 0 0 0 0
          0 0 0 0 0 0
          0 0 0 0 0 0
          0 0 0 0 0 0
          0 0 0 0 0 0
          0 0 0 0 0 0
          0 0 0 0 0 0
          0 0 0 0 0 0
          0 0 0 0 0 0
          0 0 0 0 0 0
          0 0 0 0 0 0
          0 0 0 0 0 0
          0 0 0 0 0 0
          0 0 0 0 0 0
          0 0 0 0 0 0
          0 0 0 0 0 0
          0 0 0 0 0 0
          0 0 0 0 0 0
          0 0 0 0 0 0
          0 0 0 0 0 0
          0 0 0 0 0 0
          0 0 0 0 0 0
          0 0 0 0 0 0
          0 0 0 0 0 0
          0 0 0 0 0 0
          0 0 0 0 0 0
          0 0 0 0 0 0
          0 0 0 0 0 0
          0 0 0 0 0 0
          0 0 0 0 0 0
          0 0 0 0 0 0
          0 0 0 0 0 0
          0 0 0 0 0 0
          0 0 0 0 0 0
          0 0 0 0 0 0
          0 0 0 0 0 0
          0 0 0 0 0 0
          0 0 0 0 0 0
          0 0 0 0 0 0
          0 0 0 0 0 0
          0 0 0 0 0 0
          0 0 0 0 0 0
          0 0 0 0 0 0
          0 0 0 0 0 0
          0 0 0 0 0 0
          0 0 0 0 0 0
          0 0 0 0 0 0
          0 0 0 0 0 0
          0 0 0 0 0 0
          0 0 0 0 0 0
          0 0 0 0 0 0
          0 0 0 0 0 0
          0 0 0 0 0 0
          0 0 0 0 0 0
          0 0 0 0 0 0
          0 0 0 0 0 0
          0 0 0 0 0 0
          0 0 0 0 0 0
          0 0 0 0 0 0
          0 0 0 0 0 0
          0 0 0 0 0 0
          0 0 0 0 0 0
          0 0 0 0 0 0
          0 0 0 0 0 0
          0 0 0 0 0 0
          0 0 0 0 0 0
          0 0 0 0 0 0
          0 0 0 0 0 0
          0 0 0 0 0 0
          0 0 0 0 0 0
          0 0 0 0 0 0
          0 0 0 0 0 0
          0 0
        </DataArray>
        <DataArray type="Float64" Name="gradient_marker" format="ascii" RangeMin="1" RangeMax="1">
          1 1 1 1 1 1
          1 1 1 1 1 1
          1 1 1 1 1 1
          1 1 1 1 1 1
          1 1 1 1 1 1
          1 1 1 1 1 1
          1 1 1 1 1 1
          1 1 1 1 1 1
          1 1 1 1 1 1
          1 1 1 1 1 1
          1 1 1 1 1 1
          1 1 1 1 1 1
          1 1 1 1 1 1
          1 1 1 1 1 1
          1 1 1 1 1 1
          1 1 1 1 1 1
          1 1 1 1 1 1
          1 1 1 1 1 1
          1 1 1 1 1 1
          1 1 1 1 1 1
          1 1 1 1 1 1
          1 1 1 1 1 1
          1 1 1 1 1 1
          1 1 1 1 1 1
          1 1 1 1 1 1
          1 1 1 1 1 1
          1 1 1 1 1 1
          1 1 1 1 1 1
          1 1 1 1 1 1
          1 1 1 1 1 1
          1 1 1 1 1 1
          1 1 1 1 1 1
          1 1 1 1 1 1
          1 1 1 1 1 1
          1 1 1 1 1 1
          1 1 1 1 1 1
          1 1 1 1 1 1
          1 1 1 1 1 1
          1 1 1 1 1 1
          1 1 1 1 1 1
          1 1 1 1 1 1
          1 1 1 1 1 1
          1 1 1 1 1 1
          1 1 1 1 1 1
          1 1 1 1 1 1
          1 1 1 1 1 1
          1 1 1 1 1 1
          1 1 1 1 1 1
          1 1 1 1 1 1
          1 1 1 1 1 1
          1 1 1 1 1 1
          1 1 1 1 1 1
          1 1 1 1 1 1
          1 1 1 1 1 1
          1 1 1 1 1 1
          1 1 1 1 1 1
          1 1 1 1 1 1
          1 1 1 1 1 1
          1 1 1 1 1 1
          1 1 1 1 1 1
          1 1 1 1 1 1
          1 1 1 1 1 1
          1 1 1 1 1 1
          1 1 1 1 1 1
          1 1 1 1 1 1
          1 1 1 1 1 1
          1 1 1 1 1 1
          1 1 1 1 1 1
          1 1 1 1 1 1
          1 1 1 1 1 1
          1 1 1 1 1 1
          1 1 1 1 1 1
          1 1 1 1 1 1
          1 1 1 1 1 1
          1 1 1 1 1 1
          1 1 1 1 1 1
          1 1 1 1 1 1
          1 1 1 1 1 1
          1 1 1 1 1 1
          1 1 1 1 1 1
          1 1 1 1 1 1
          1 1 1 1 1 1
          1 1 1 1 1 1
          1 1 1 1 1 1
          1 1
        </DataArray>
        <DataArray type="Float64" Name="gradient_matprop_marker" format="ascii" RangeMin="0" RangeMax="0">
          0 0 0 0 0 0
          0 0 0 0 0 0
          0 0 0 0 0 0
          0 0 0 0 0 0
          0 0 0 0 0 0
          0 0 0 0 0 0
          0 0 0 0 0 0
          0 0 0 0 0 0
          0 0 0 0 0 0
          0 0 0 0 0 0
          0 0 0 0 0 0
          0 0 0 0 0 0
          0 0 0 0 0 0
          0 0 0 0 0 0
          0 0 0 0 0 0
          0 0 0 0 0 0
          0 0 0 0 0 0
          0 0 0 0 0 0
          0 0 0 0 0 0
          0 0 0 0 0 0
          0 0 0 0 0 0
          0 0 0 0 0 0
          0 0 0 0 0 0
          0 0 0 0 0 0
          0 0 0 0 0 0
          0 0 0 0 0 0
          0 0 0 0 0 0
          0 0 0 0 0 0
          0 0 0 0 0 0
          0 0 0 0 0 0
          0 0 0 0 0 0
          0 0 0 0 0 0
          0 0 0 0 0 0
          0 0 0 0 0 0
          0 0 0 0 0 0
          0 0 0 0 0 0
          0 0 0 0 0 0
          0 0 0 0 0 0
          0 0 0 0 0 0
          0 0 0 0 0 0
          0 0 0 0 0 0
          0 0 0 0 0 0
          0 0 0 0 0 0
          0 0 0 0 0 0
          0 0 0 0 0 0
          0 0 0 0 0 0
          0 0 0 0 0 0
          0 0 0 0 0 0
          0 0 0 0 0 0
          0 0 0 0 0 0
          0 0 0 0 0 0
          0 0 0 0 0 0
          0 0 0 0 0 0
          0 0 0 0 0 0
          0 0 0 0 0 0
          0 0 0 0 0 0
          0 0 0 0 0 0
          0 0 0 0 0 0
          0 0 0 0 0 0
          0 0 0 0 0 0
          0 0 0 0 0 0
          0 0 0 0 0 0
          0 0 0 0 0 0
          0 0 0 0 0 0
          0 0 0 0 0 0
          0 0 0 0 0 0
          0 0 0 0 0 0
          0 0 0 0 0 0
          0 0 0 0 0 0
          0 0 0 0 0 0
          0 0 0 0 0 0
          0 0 0 0 0 0
          0 0 0 0 0 0
          0 0 0 0 0 0
          0 0 0 0 0 0
          0 0 0 0 0 0
          0 0 0 0 0 0
          0 0 0 0 0 0
          0 0 0 0 0 0
          0 0 0 0 0 0
          0 0 0 0 0 0
          0 0 0 0 0 0
          0 0 0 0 0 0
          0 0 0 0 0 0
          0 0
        </DataArray>
        <DataArray type="Float64" Name="combo" format="ascii" RangeMin="1" RangeMax="1">
          1 1 1 1 1 1
          1 1 1 1 1 1
          1 1 1 1 1 1
          1 1 1 1 1 1
          1 1 1 1 1 1
          1 1 1 1 1 1
          1 1 1 1 1 1
          1 1 1 1 1 1
          1 1 1 1 1 1
          1 1 1 1 1 1
          1 1 1 1 1 1
          1 1 1 1 1 1
          1 1 1 1 1 1
          1 1 1 1 1 1
          1 1 1 1 1 1
          1 1 1 1 1 1
          1 1 1 1 1 1
          1 1 1 1 1 1
          1 1 1 1 1 1