<?xml version="1.0"?>
<VTKFile type="UnstructuredGrid" version="0.1" byte_order="LittleEndian" header_type="UInt32" compressor="vtkZLibDataCompressor">
  <UnstructuredGrid>
    <Piece NumberOfPoints="735" NumberOfCells="361">
      <PointData>
        <DataArray type="Int32" Name="libmesh_node_id" format="ascii" RangeMin="190" RangeMax="3625">
          226 273 360 361 364 365
          367 368 369 374 375 376
          641 642 645 647 669 670
          671 672 673 674 675 676
          677 678 679 680 681 682
          683 684 685 686 687 702
          703 708 709 714 725 726
          727 728 729 730 731 732
          734 735 737 739 745 746
          749 751 752 754 765 767
          768 769 770 771 991 992
          993 1004 1008 1009 1046 1048
          1050 1051 1052 1053 1055 1056
          1058 1059 1084 1085 1086 1087
          1088 1089 1090 1091 1092 1093
          1094 1095 1096 1097 1098 1099
          1100 1101 1102 1103 1104 1105
          1106 1107 1108 1109 1110 1111
          1112 1113 1114 1115 1116 1117
          1118 1119 1123 1124 1126 1127
          1129 1145 1146 1147 1148 1156
          1157 1159 1164 1165 1166 1171
          1172 1173 1174 1203 1204 1205
          1210 1211 1212 1213 1214 1215
          1216 1217 1218 1219 1230 1231
          1232 1233 1234 1235 1237 1241
          1242 1243 1244 1245 1246 1247
          1248 1249 1250 1251 1262 1263
          1264 1265 1266 1267 1268 1344
          1345 1347 1348 1349 1350 1351
          1353 1354 1355 1357 1360 1372
          1376 1387 1388 1391 1393 1394
          1396 1407 1408 1411 1412 1414
          1427 1428 1431 1543 1544 1547
          1548 2000 2001 2002 2003 2004
          2007 2008 2136 2137 2138 2139
          2140 2141 2142 2143 2144 2145
          2146 2147 2148 2149 2150 2151
          2152 2153 2154 2155 2156 2157
          2161 2162 2164 2165 2167 2168
          2169 2170 2171 2172 2173 2176
          2177 2179 2181 2220 2221 2222
          2223 2224 2225 2226 2227 2228
          2229 2230 2231 2241 2242 2244
          2255 2257 2264 2265 2266 2267
          2268 2269 2270 2271 2272 2273
          2274 2275 2276 2277 2278 2279
          2280 2281 2282 2283 2284 2285
          2286 2287 2288 2289 2290 2291
          2292 2293 2294 2295 2296 2297
          2298 2299 2300 2301 2302 2303
          2304 2305 2306 2307 2308 2309
          2310 2311 2312 2313 2314 2315
          2316 2317 2318 2319 2320 2321
          2322 2323 2324 2325 2326 2327
          2328 2329 2330 2331 2334 2336
          2337 2339 2350 2352 2354 2356
          2364 2365 2368 2370 2371 2373
          2384 2386 2388 2390 2714 2715
          2716 2717 2718 2719 2722 2728
          2729 2730 2731 2733 2735 2737
          2738 2739 2740 2741 2752 2753
          2754 2833 2834 2835 2836 2837
          2838 2841 2842 2844 2846 2847
          2848 2849 2850 2851 2852 2855
          2856 2858 2860 2861 2862 2863
          2871 2872 2873 2949 2950 2951
          2952 2963 2964 2965 2973 2974
          2975 2987 2988 3065 3066 3067
          3075 3085 3612 3613 3614 3616
          3617 3620 3621 302 303 304
          305 190 271 272 259 362
          363 366 370 371 372 373
          260 350 377 261 274 378
          379 380 381 385 386 514
          504 355 396 515 505 519
          509 512 521 523 227 611
          351 613 612 639 640 352
          614 644 643 631 632 356
          646 637 358 648 688 689
          690 691 695 696 605 606
          704 705 607 706 707 610
          710 711 712 713 393 715
          716 717 718 719 720 619
          620 624 627 733 736 738
          740 741 724 742 744 663
          750 766 665 667 269 401
          772 774 776 778 803 807
          804 808 1005 1006 697 1007
          1010 701 805 391 1047 1049
          1054 1057 1120 1121 1122 1125
          1152 1153 1220 1221 1155 1224
          1226 1227 1229 1158 1225 1236
          1238 1239 748 1240 1256 1269
          1271 1270 1272 1261 1273 1275
          1346 1352 399 1356 1358 1370
          1359 1371 1373 1374 1375 1169
          1416 1187 1188 1190 394 1433
          1434 1193 1436 723 1447 1198
          1449 1199 1451 1201 1545 1413
          1546 1549 1550 1206 1552 1551
          2005 2006 2009 699 1409 2158
          2159 2160 2163 698 2166 1128
          2174 2175 2178 2180 2243 2332
          2333 2335 1252 2338 1253 2256
          2351 2353 2355 2366 2367 2369
          1258 2372 1259 2385 2387 2389
          2720 2721 2723 2724 2725 1389
          2726 2727 1390 2732 2734 2736
          1392 2742 2743 2746 2748 2749
          2751 2755 2747 2756 2757 2758
          2759 2761 2839 2840 2843 2845
          1410 2853 2854 2857 2859 2864
          2865 2866 2867 2868 2870 2874
          2875 2876 2877 2878 2880 2953
          2954 2957 2959 2960 2962 2966
          2968 2970 2972 2977 2978 2981
          2983 2984 2976 2986 2990 2992
          2994 2989 2996 3068 3070 3072
          3074 3078 3080 3076 3082 3077
          3084 3088 3090 3086 3092 3087
          3094 3618 3619 3622 3623 3615
          783 3624 3625
        </DataArray>
        <DataArray type="Float64" Name="bounds" format="ascii" RangeMin="0" RangeMax="0">
          0 0 0 0 0 0
          0 0 0 0 0 0
          0 0 0 0 0 0
          0 0 0 0 0 0
          0 0 0 0 0 0
          0 0 0 0 0 0
          0 0 0 0 0 0
          0 0 0 0 0 0
          0 0 0 0 0 0
          0 0 0 0 0 0
          0 0 0 0 0 0
          0 0 0 0 0 0
          0 0 0 0 0 0
          0 0 0 0 0 0
          0 0 0 0 0 0
          0 0 0 0 0 0
          0 0 0 0 0 0
          0 0 0 0 0 0
          0 0 0 0 0 0
          0 0 0 0 0 0
          0 0 0 0 0 0
          0 0 0 0 0 0
          0 0 0 0 0 0
          0 0 0 0 0 0
          0 0 0 0 0 0
          0 0 0 0 0 0
          0 0 0 0 0 0
          0 0 0 0 0 0
          0 0 0 0 0 0
          0 0 0 0 0 0
          0 0 0 0 0 0
          0 0 0 0 0 0
          0 0 0 0 0 0
          0 0 0 0 0 0
          0 0 0 0 0 0
          0 0 0 0 0 0
          0 0 0 0 0 0
          0 0 0 0 0 0
          0 0 0 0 0 0
          0 0 0 0 0 0
          0 0 0 0 0 0
          0 0 0 0 0 0
          0 0 0 0 0 0
          0 0 0 0 0 0
          0 0 0 0 0 0
          0 0 0 0 0 0
          0 0 0 0 0 0
          0 0 0 0 0 0
          0 0 0 0 0 0
          0 0 0 0 0 0
          0 0 0 0 0 0
          0 0 0 0 0 0
          0 0 0 0 0 0
          0 0 0 0 0 0
          0 0 0 0 0 0
          0 0 0 0 0 0
          0 0 0 0 0 0
          0 0 0 0 0 0
          0 0 0 0 0 0
          0 0 0 0 0 0
          0 0 0 0 0 0
          0 0 0 0 0 0
          0 0 0 0 0 0
          0 0 0 0 0 0
          0 0 0 0 0 0
          0 0 0 0 0 0
          0 0 0 0 0 0
          0 0 0 0 0 0
          0 0 0 0 0 0
          0 0 0 0 0 0
          0 0 0 0 0 0
          0 0 0 0 0 0
          0 0 0 0 0 0
          0 0 0 0 0 0
          0 0 0 0 0 0
          0 0 0 0 0 0
          0 0 0 0 0 0
          0 0 0 0 0 0
          0 0 0 0 0 0
          0 0 0 0 0 0
          0 0 0 0 0 0
          0 0 0 0 0 0
          0 0 0 0 0 0
          0 0 0 0 0 0
          0 0 0 0 0 0
          0 0 0 0 0 0
          0 0 0 0 0 0
          0 0 0 0 0 0
          0 0 0 0 0 0
          0 0 0 0 0 0
          0 0 0 0 0 0
          0 0 0 0 0 0
          0 0 0 0 0 0
          0 0 0 0 0 0
          0 0 0 0 0 0
          0 0 0 0 0 0
          0 0 0 0 0 0
          0 0 0 0 0 0
          0 0 0 0 0 0
          0 0 0 0 0 0
          0 0 0 0 0 0
          0 0 0 0 0 0
          0 0 0 0 0 0
          0 0 0 0 0 0
          0 0 0 0 0 0
          0 0 0 0 0 0
          0 0 0 0 0 0
          0 0 0 0 0 0
          0 0 0 0 0 0
          0 0 0 0 0 0
          0 0 0 0 0 0
          0 0 0 0 0 0
          0 0 0 0 0 0
          0 0 0 0 0 0
          0 0 0 0 0 0
          0 0 0 0 0 0
          0 0 0 0 0 0
          0 0 0 0 0 0
          0 0 0 0 0 0
          0 0 0 0 0 0
          0 0 0 0 0 0
          0 0 0 0 0 0
          0 0 0
        </DataArray>
        <DataArray type="Float64" Name="gradient_error" format="ascii" RangeMin="2.063615629823294e-10" RangeMax="4.9916162031728e-7">
          2.7337977025205072e-8 5.7940561207423345e-8 8.77698267605645e-9 9.650847213521997e-9 1.0908566736380937e-7 1.01588767388008e-7
          5.221572071881041e-9 6.154246205793483e-9 2.0733564125719362e-8 2.2428860384601536e-7 1.7308168907784296e-7 4.708005190542741e-8
          1.669584457643512e-7 3.251716107765688e-7 1.5743000209290703e-7 1.8067523142728324e-7 1.9626930795200627e-8 1.878286681567273e-8
          2.6703087348748083e-8 3.7857159170846705e-8 2.971739172446942e-8 2.7112508917317536e-8 3.3712679882928787e-8 7.735795200701489e-9
          1.2401796536039709e-8 1.2005307235895092e-8 1.7938802836144837e-8 2.450762611016565e-8 2.9568200595010868e-8 1.0222035094809025e-8
          1.1914570326992602e-7 1.0380684059196255e-7 1.516310378160417e-7 4.947322272680745e-8 8.861730424926439e-8 2.520894052636387e-7
          2.3104850123780424e-7 1.7505765489366957e-7 2.856000569423941e-7 4.237325572021183e-7 1.1067772706456684e-7 1.7581606099733894e-7
          8.957188475580103e-8 1.5262285261558267e-7 8.124774155376437e-8 1.2383426895951896e-7 1.0018069272511871e-7 3.2362574936325726e-7
          1.846645381513213e-7 6.646161426018003e-8 2.485398414852117e-8 4.400727160056508e-8 5.350313879192514e-8 1.532817879738634e-7
          3.434519057745095e-7 2.3007573442053006e-9 5.877698692751418e-8 2.3575820672513256e-7 3.8251665984146944e-7 2.2271393707474979e-7
          2.3077636254122607e-7 3.599793534719777e-7 2.104931393400288e-7 2.516414651051544e-7 4.443421960064194e-9 6.194510083434019e-9
          4.651497112169265e-9 2.8874687453637753e-9 2.353075373938854e-9 3.2933139297167514e-9 8.240708406751069e-8 9.383068945689322e-8
          7.187946320996152e-8 8.245439714325608e-8 6.31915514393801e-8 6.770348567780615e-8 6.476883622389614e-8 1.0525429484627573e-7
          9.302933107655062e-8 7.22154199162322e-8 7.851729555145463e-8 4.9061549695787033e-8 8.084209013169937e-8 7.996278142227148e-8
          7.90834727128436e-8 5.4896773292795006e-8 5.547657571406801e-8 6.241176365516654e-8 5.605637813534102e-8 8.577447801734146e-8
          4.879110109131174e-8 4.937759508987435e-8 4.9964089088436965e-8 4.969364048396167e-8 5.152856656593881e-8 5.426669391597698e-8
          3.1393024814410846e-8 4.282310015655096e-8 5.700482126601515e-8 6.554368082107059e-8 4.816035983908261e-8 5.305681211788595e-8
          3.2555687111445124e-8 5.7953264396689293e-8 8.788763606555486e-8 8.751567143114887e-8 9.000079411376826e-8 2.514117006795806e-9
          3.1441947200140923e-9 3.1571163318101805e-9 3.0328992512171552e-9 9.098180925066262e-9 1.8507510727607733e-9 1.8390657511499287e-9
          1.980640403685224e-9 1.97377728321802e-9 1.724782158145621e-9 2.150071575869078e-9 5.2704714897220286e-9 4.946633643360528e-9
          4.51851079005166e-9 8.589994142194882e-8 8.482884069085606e-8 9.73175519634997e-8 8.37577399597633e-8 8.977587616115468e-8
          9.3969345556489e-8 8.70227175837313e-8 1.9463390159424795e-8 1.7958164530658393e-8 1.504367247761791e-8 6.3857460026766235e-9
          1.2260255468513614e-8 9.49906927414077e-9 2.6573059766845243e-8 5.2216435159583415e-9 6.800654435089388e-9 5.489275205580632e-9
          8.628300428649483e-8 8.622349250294196e-8 9.774732029805188e-8 9.873249640600706e-8 8.616398071938912e-8 1.009222623011146e-7
          4.839603098019695e-8 5.7559722797644975e-8 5.574768068954809e-8 7.554129656272489e-8 9.78774907323767e-8 9.242353958933408e-8
          9.32078259878004e-8 1.0674021167146681e-7 9.282250366249402e-8 1.0335551729813455e-7 9.697227364044507e-8 1.0592712762554232e-7
          6.170181421602636e-9 1.762152736539564e-8 4.017016287859188e-9 7.368974894673986e-9 6.109824915153558e-8 5.958737030298867e-8
          2.5292901423568864e-9 6.580608231292488e-9 4.775722734298126e-9 5.289182355396788e-8 9.472529363548079e-8 1.0780200244224367e-7
          9.51176230385492e-8 1.0308069810325895e-7 9.624276128316115e-8 1.0848324002908648e-7 9.741274241460438e-8 8.376966982253896e-8
          8.606222267616118e-8 8.032521962764016e-8 8.75847051789397e-8 8.265574957323926e-8 9.139974053534043e-8 8.979732781238844e-8
          8.166260211606177e-8 8.039298030564689e-8 9.35324329486157e-8 8.299998460448338e-8 7.89614026112532e-8 7.88058200357702e-8
          7.865023746028719e-8 1.0706618883862153e-8 9.900740197766666e-9 8.297754341650933e-9 2.1955595517575844e-8 2.0920831574743888e-8
          1.8333611593535943e-8 3.912181698329632e-9 6.732877642192971e-9 3.823696863099148e-9 5.4937452217226506e-9 1.4580049403552765e-8
          4.6742143089502244e-8 4.363528874452952e-8 3.586536982479229e-8 3.9545908895290366e-9 4.69561185559691e-9 3.1894408832954444e-9
          4.355235498630175e-9 1.9720471941559416e-9 2.4882981230476263e-9 2.0808356872672108e-9 1.5081898118327584e-9 2.061226810007158e-9
          1.394195736913359e-9 1.7839393211269937e-9 9.387109505023865e-9 9.174886188010817e-9 9.41326027682657e-9 9.651634365642324e-9
          8.657232945804287e-9 1.0318793097589688e-8 7.137321780324428e-9 7.51126305488117e-9 8.881265563392418e-9 7.147471266783044e-9
          9.969963292788652e-9 1.0062599788230383e-8 9.621133487987617e-9 4.3204553130546163e-10 5.189864006736844e-10 5.133156440289249e-10
          4.955887804348652e-10 8.264291464603563e-10 3.466521486777268e-10 3.4271796060137576e-10 4.310699430981829e-10 4.261566545646034e-10
          3.3161027671590676e-10 4.1110211127573853e-10 6.945074439789927e-10 6.853091337505124e-10 6.578571244045237e-10 3.9110779638991014e-10
          4.5564553018693224e-10 4.277583868882994e-10 7.287849173177445e-10 3.205716912848486e-10 3.856103920693896e-10 3.1670660166290837e-10
          3.7025992761832587e-10 6.078799256537299e-10 6.014865020437029e-10 9.471797773798722e-9 9.696860153813233e-9 1.0238692668662264e-8
          9.921922533827744e-9 1.0259208601177308e-8 1.0413266349997988e-8 1.011222730343345e-8 1.1056822279113998e-8 1.0918269867845852e-8
          1.1509441076788014e-8 1.2475108280540494e-8 1.14725616941667e-8 9.082894289892012e-9 9.630702456971868e-9 1.1424831816272536e-8
          1.308702859385105e-8 1.3502904179208755e-8 9.216781455517763e-9 9.524663340434204e-9 9.04535899043739e-9 9.495707739858845e-9
          9.832545225350644e-9 1.0322477696484299e-8 7.727120370668522e-9 8.214407069697109e-9 7.1249588991115255e-9 9.17449169816068e-9
          8.36220237168932e-9 8.949245994944625e-9 7.472322366351725e-9 8.156418766850935e-9 1.0338432170132598e-8 1.0029335186535329e-8
          4.829062390136171e-9 5.8511889338356265e-9 4.886568362759998e-9 8.318378839615741e-9 1.1046616158801204e-8 1.101791220671011e-8
          1.039813898126695e-8 1.06200809296332e-8 1.0676190405503256e-8 1.1385499742755147e-8 1.1926407975565758e-8 1.1630424763445031e-8
          1.2634660745411008e-8 1.0622381822343604e-8 1.0458390917872778e-8 1.1481321442990808e-8 5.5892702028833785e-9 6.377108396089601e-9
          3.4524649070202308e-9 4.574622638490831e-9 8.427681512712694e-9 7.3722583336197404e-9 4.686064801666517e-9 5.677869179840159e-9
          3.6520502898140373e-9 7.965209436621143e-9 2.6382743736352004e-9 3.540742817940837e-9 2.5804195641268816e-9 3.181559074006995e-9
          6.237106552028886e-9 5.401461340578607e-9 2.083620109199392e-9 2.864333408101683e-9 2.7905916527624198e-9 5.457497485977487e-9
          1.0036301554633001e-8 9.945638330168666e-9 1.0382186673136434e-8 1.0843540363059275e-8 9.67446412799905e-9 9.548636490765807e-9
          1.0088182940769614e-8 9.544131786051126e-9 9.056603195880929e-9 1.105726173029095e-8 1.1092982294491756e-8 9.105058336137322e-9
          8.574132226607327e-9 1.0940168407323647e-8 6.854244565877444e-9 7.555387021322406e-9 9.717474409545429e-9 4.072839521743868e-9
          4.68743772992466e-9 6.824372377080249e-9 1.2248675737551337e-8 1.3318932132779184e-8 1.0316386222368013e-8 1.2286063628680978e-8
          3.430122026607008e-9 3.76200564898335e-9 5.242179449843683e-9 3.3401598515891564e-9 3.6292074237903254e-9 4.8457311483451875e-9
          8.725440181481621e-9 1.1060410734635569e-8 8.228430799478837e-9 1.0683654298258797e-8 1.2274486362667605e-9 1.2097495411910225e-9
          1.1636727397670126e-9 1.9193103120678477e-9 1.0574159234774082e-9 1.0419024732946115e-9 9.989422151928463e-10 1.081149835151766e-9
          9.755546815907202e-10 1.715635985913522e-9 9.279973557167987e-10 8.390328797847283e-10 1.4687540814238683e-9 1.3239395685923508e-9
          2.8575493620172834e-9 2.8127572225407346e-9 2.706895829670563e-9 4.471547679646351e-9 2.5275269568800095e-9 2.2905451197713696e-9
          3.909268967950253e-9 7.416218330157138e-10 8.725849523894699e-10 7.716901863769806e-10 1.3812713017600804e-9 6.118696470460934e-10
          7.462176675688736e-10 5.35421551857653e-10 6.53230698585266e-10 1.1704185899619634e-9 1.0138077608928418e-9 5.658823995550816e-10
          6.599513709170741e-10 5.975875475624785e-10 1.0205540561780091e-9 4.688942344350601e-10 5.609637313124134e-10 4.385380051567814e-10
          5.143349451823053e-10 8.570242367500592e-10 7.796247379522377e-10 2.034245184235486e-9 1.7619477274549074e-9 3.030611326439647e-9
          1.5010105562803687e-9 1.2468716665157486e-9 2.179453305858011e-9 6.6720634483232955e-9 6.526881244600941e-9 6.207527063785301e-9
          9.734316414633908e-9 5.670666377442599e-9 4.9647118958177096e-9 8.317201877637633e-9 1.3896330276360679e-8 1.3489830449301102e-8
          1.2738832430349434e-8 1.1591633857840468e-8 9.9534032403517e-9 4.294427046057975e-9 3.636760520160038e-9 6.08563539579044e-9
          3.0356579688198867e-9 8.362297271657668e-9 8.498455750880575e-10 9.98394266955915e-10 8.777983249425672e-10 7.090918099046475e-10
          8.434129581200944e-10 6.352748178027213e-10 7.462232512123815e-10 1.396622561890616e-8 2.688866609511596e-9 2.498740077330703e-9
          1.2349727344317441e-8 2.2392422558706544e-8 5.061702336937123e-9 4.420545320333767e-9 2.1329219707128987e-8 2.249572605943173e-8
          2.4088491125284325e-7 1.9983461700571697e-7 9.89547369351231e-9 6.40935951076071e-8 1.1019725846435156e-7 2.430769763416644e-8
          3.621714868078951e-7 2.8419840053541343e-7 1.439531291187114e-7 2.3600002012294552e-7 5.453201708056577e-8 3.143637483569447e-9
          2.6703225641646697e-9 2.06926666777741e-9 1.7916341678697813e-9 2.0326944056969485e-9 3.279863095003933e-9 9.801803748806786e-8
          1.671464658966721e-7 2.656692568328381e-7 2.2857555659322071e-7 1.550325693111508e-7 1.8794813391970704e-7 5.424422580496864e-8
          1.1288842836020821e-7 1.1197785525921577e-7 1.5439345538447724e-7 6.707119112107252e-8 1.2863371682232996e-7 4.4691595160697477e-7
          3.9396263028233014e-7 4.576933422879517e-7 4.4688501425120315e-7 3.122665669965198e-7 4.056754563661375e-7 4.618873168398055e-7
          4.088539545863947e-7 4.9916162031728e-7 4.8271678746567e-7 3.0985648241118377e-7 3.579269594664627e-7 2.3901178398564293e-7
          3.28196441272044e-7 3.169378957045234e-7 4.524180836895399e-7 4.976993578718936e-7 2.7537562852535632e-9 3.063650077210588e-9
          1.8257207213118415e-9 1.931976104565654e-9 3.3977029929781553e-9 3.6076947063124756e-9 2.440785945154589e-7 3.7659619698522033e-7
          4.0712389910459985e-7 3.752630799771145e-7 3.533507911419971e-7 2.8487693265707356e-7 3.121447667180836e-7 2.8392809186024707e-7
          2.729595582363065e-7 3.302087249494241e-7 3.7933144218533577e-7 2.694320052743187e-7 3.5504253353566285e-7 1.3321041867777135e-7
          2.2187920363797796e-7 7.99888083241116e-8 1.1853084214747358e-7 2.399915999533095e-7 1.184894222016756e-7 1.276432893802436e-7
          1.8976494050234282e-7 1.417790825829654e-7 3.2182852225691034e-7 3.0464729912302006e-7 1.2139781175639273e-7 5.807544222382659e-8
          7.352956292673133e-8 2.8962144389622293e-8 3.2811031481730105e-7 2.6009226977192534e-7 1.4909154805309954e-7 4.31355445814288e-7
          2.214868836760454e-7 3.02034609935923e-7 2.40355642353257e-7 4.709404387391973e-7 2.676168223184175e-7 3.020496984877788e-7
          2.5907925836396807e-7 2.34492687543191e-7 1.7390681185037552e-7 2.738541332330805e-7 6.342985705577842e-9 7.977821425133075e-9
          4.901867886158599e-9 8.681123156369005e-9 4.206882241664349e-9 8.8830515003955e-10 1.1000363961990597e-9 1.4498924689810095e-9
          1.287006068184941e-9 2.7001717915975034e-9 2.083823046204435e-9 4.002390886538181e-9 1.0192088820982946e-7 1.1465569080487722e-7
          7.816857850894138e-8 1.2739049339992498e-7 8.697207104341355e-10 5.55023743460995e-10 5.37626740614719e-10 9.246689576328046e-10
          1.12961455863175e-7 1.1137558191629547e-7 8.594379534406054e-8 9.973290947652602e-8 1.0535284074933134e-7 1.1169096542206746e-7
          3.336977457996853e-8 4.9727699328889196e-8 9.339893934950065e-8 1.020108279959517e-7 1.1080081951654919e-7 1.1427708751257636e-7
          1.0526110696823941e-7 1.1695974521065552e-7 7.458430620569588e-8 1.1556078619077529e-7 5.3230342704491706e-8 1.0749189770897577e-7
          1.0947677805966767e-7 9.193219746966855e-8 1.2141452720380596e-7 3.738780675516464e-8 9.383928176264198e-8 1.135237795296013e-7
          8.919643411617541e-8 9.313196062915691e-8 1.266874965005229e-7 9.70674871421384e-8 8.951726653935737e-8 9.403319149883624e-8
          8.665383586617045e-8 9.1528133263568e-8 7.436066505398593e-8 9.854911645831512e-8 9.640243066096553e-8 4.556637970149015e-8
          1.035990947565749e-8 8.638397213562278e-8 8.085161724076632e-8 6.901463512470427e-8 1.5263710139066355e-7 8.546282938884222e-8
          8.021260480871525e-8 1.440279802555942e-7 6.369150225283472e-8 1.6365784347063017e-7 2.6858876929792933e-8 4.867966147155052e-8
          1.8279206186734128e-8 3.3221899686370844e-8 4.3806838643692283e-8 8.838358792891798e-8 1.966457525629313e-9 9.68977630862175e-10
          1.8498913303218378e-9 2.338933724408451e-9 7.449768241417953e-9 1.2926138475554754e-8 6.37757315302788e-9 1.2874118246204217e-9
          7.87590924600842e-10 1.2144755888887223e-9 1.105598341061934e-9 7.76365370284773e-10 9.945962369783134e-10 2.104593193899307e-10
          2.864420005954821e-10 2.8309098030954207e-10 2.7341738352609506e-10 4.695328386007715e-10 4.629342014262733e-10 4.429702727479598e-10
          2.063615629823294e-10 2.6043701573925196e-10 2.5377922444991573e-10 4.107203289702733e-10 1.0730367334108414e-8 6.772832687150078e-9
          7.398147113542309e-9 9.571117427129222e-9 5.0251691752081865e-9 5.404831730053711e-9 6.929912467623789e-9 1.361863261220987e-8
          1.2542353176568098e-8 1.3965933038812293e-8 1.032682148923827e-8 4.7753327059864284e-9 5.053627534002291e-9 5.967620218512875e-9
          4.6695818401617434e-9 4.987314080310376e-9 5.801802237062536e-9 8.771011287578823e-9 1.2497167599075114e-8 8.354453337607426e-9
          7.649028882772129e-10 7.529597195583772e-10 7.177430253965156e-10 1.6827716297438581e-9 1.6559711003720189e-9 1.2432308608171829e-9
          1.2214757621940618e-9 1.5840435111882536e-9 1.1586276037455022e-9 6.645140584192688e-10 5.988500386886861e-10 1.0638898004417774e-9
          9.491794063743688e-10 2.5737650437315045e-9 2.5300974884956856e-9 2.4150867001396438e-9 4.10394537462895e-9 4.020867037951193e-9
          3.804262125366577e-9 2.232853923808041e-9 1.8795245765208666e-9 1.706606344458699e-9 2.0039724790463504e-9 1.5023133772581046e-9
          3.467036579818513e-9 3.0557979861856134e-9 4.041273232403678e-10 5.250231242955965e-10 4.504605823505254e-10 8.260238352328126e-10
          7.031496855773717e-10 3.0372642648502706e-10 3.8152387699133515e-10 3.4903137738048834e-10 5.856107573157723e-10 1.7590535596065788e-9
          1.2889280218452645e-9 1.5092465046507846e-9 1.0830695612464532e-9 2.639277725380456e-9 2.231631006472197e-9 1.2731679276990908e-9
          8.939502273785373e-10 1.0502860264207688e-9 7.237250706868086e-10 1.858374241610861e-9 1.5176060987665824e-9 6.190182086631505e-9
          6.055006433917011e-9 5.7087669119587984e-9 9.286742210768697e-9 9.059012410652755e-9 8.496942323417177e-9 5.162049228349343e-9
          4.485921994233931e-9 7.628545809753067e-9 6.542025485818251e-9 1.3080930961069859e-8 1.2765623642760831e-8 1.2004437474807693e-8
          1.7949398232940074e-8 1.7539556785357994e-8 1.841504747512635e-8 1.652661654763322e-8 1.0790871331123841e-8 9.198518815263657e-9
          1.4805884450676678e-8 1.5771938129064512e-8 1.24763570962086e-8 3.822203423623196e-9 3.1920661214106653e-9 5.4773155723248864e-9
          4.4830864662299766e-9 2.6254988998769227e-9 2.119781653310616e-9 2.4791263966482443e-9 3.623431992816378e-9 4.131090293970007e-9
          2.888300336023161e-9 7.614980579381375e-9 6.1252988135436775e-9 6.786670419784223e-9 1.0217180199114999e-8 1.1070888397303677e-8
          8.12980562276385e-9 4.69273400345239e-10 5.742122171052288e-10 5.056296096469118e-10 1.20772382548846e-9 1.4351432002926655e-9
          1.0602757661994572e-9 8.310462276982627e-10 1.0300871087658094e-9
        </DataArray>
        <DataArray type="Float64" Name="gradient_matprop_error" format="ascii" RangeMin="0" RangeMax="0">
          0 0 0 0 0 0
          0 0 0 0 0 0
          0 0 0 0 0 0
          0 0 0 0 0 0
          0 0 0 0 0 0
          0 0 0 0 0 0
          0 0 0 0 0 0
          0 0 0 0 0 0
          0 0 0 0 0 0
          0 0 0 0 0 0
          0 0 0 0 0 0
          0 0 0 0 0 0
          0 0 0 0 0 0
          0 0 0 0 0 0
          0 0 0 0 0 0
          0 0 0 0 0 0
          0 0 0 0 0 0
          0 0 0 0 0 0
          0 0 0 0 0 0
          0 0 0 0 0 0
          0 0 0 0 0 0
          0 0 0 0 0 0
          0 0 0 0 0 0
          0 0 0 0 0 0
          0 0 0 0 0 0
          0 0 0 0 0 0
          0 0 0 0 0 0
          0 0 0 0 0 0
          0 0 0 0 0 0
          0 0 0 0 0 0
          0 0 0 0 0 0
          0 0 0 0 0 0
          0 0 0 0 0 0
          0 0 0 0 0 0
          0 0 0 0 0 0
          0 0 0 0 0 0
          0 0 0 0 0 0
          0 0 0 0 0 0
          0 0 0 0 0 0
          0 0 0 0 0 0
          0 0 0 0 0 0
          0 0 0 0 0 0
          0 0 0 0 0 0
          0 0 0 0 0 0
          0 0 0 0 0 0
          0 0 0 0 0 0
          0 0 0 0 0 0
          0 0 0 0 0 0
          0 0 0 0 0 0
          0 0 0 0 0 0
          0 0 0 0 0 0
          0 0 0 0 0 0
          0 0 0 0 0 0
          0 0 0 0 0 0
          0 0 0 0 0 0
          0 0 0 0 0 0
          0 0 0 0 0 0
          0 0 0 0 0 0
          0 0 0 0 0 0
          0 0 0 0 0 0
          0 0 0 0 0 0
          0 0 0 0 0 0
          0 0 0 0 0 0
          0 0 0 0 0 0
          0 0 0 0 0 0
          0 0 0 0 0 0
          0 0 0 0 0 0
          0 0 0 0 0 0
          0 0 0 0 0 0
          0 0 0 0 0 0
          0 0 0 0 0 0
          0 0 0 0 0 0
          0 0 0 0 0 0
          0 0 0 0 0 0
          0 0 0 0 0 0
          0 0 0 0 0 0
          0 0 0 0 0 0
          0 0 0 0 0 0
          0 0 0 0 0 0
          0 0 0 0 0 0
          0 0 0 0 0 0
          0 0 0 0 0 0
          0 0 0 0 0 0
          0 0 0 0 0 0
          0 0 0 0 0 0
          0 0 0 0 0 0
          0 0 0 0 0 0
          0 0 0 0 0 0
          0 0 0 0 0 0
          0 0 0 0 0 0
          0 0 0 0 0 0
          0 0 0 0 0 0
          0 0 0 0 0 0
          0 0 0 0 0 0
          0 0 0 0 0 0
          0 0 0 0 0 0
          0 0 0 0 0 0
          0 0 0 0 0 0
          0 0 0 0 0 0
          0 0 0 0 0 0
          0 0 0 0 0 0
          0 0 0 0 0 0
          0 0 0 0 0 0
          0 0 0 0 0 0
          0 0 0 0 0 0
          0 0 0 0 0 0
          0 0 0 0 0 0
          0 0 0 0 0 0
          0 0 0 0 0 0
          0 0 0 0 0 0
          0 0 0 0 0 0
          0 0 0 0 0 0
          0 0 0 0 0 0
          0 0 0 0 0 0
          0 0 0 0 0 0
          0 0 0 0 0 0
          0 0 0 0 0 0
          0 0 0 0 0 0
          0 0 0 0 0 0
          0 0 0 0 0 0
          0 0 0 0 0 0
          0 0 0 0 0 0
          0 0 0
        </DataArray>
        <DataArray type="Float64" Name="initial_marker" format="ascii" RangeMin="0" RangeMax="2">
          2 2 0 0 0 0
          0 0 0 1.5 0.75 0.75
          2 2 2 2 0 0
          0 1 1 0.5 0.5 0
          0.5 0.25 0 0 0 0
          2 1.5 1.6666666666666667 1.5 1.3333333333333333 2
          2 1 1.5 2 0 0.5
          0.5 0.75 0 0 0 1
          0 1 0.3333333333333333 0 2 2
          2 2 2 2 1.25 0.25
          1 1.5 2 0.5 0 0
          0 0 0 0 0 0
          0 0 0 0 0 0
          0 0 2 2 2 2
          2 2 2 2 2 2
          2 2 2 2 2 2
          2 2 2 2 2 2
          2 2 2 2 2 0
          1 1 0.5 2 0 0
          0.5 0.5 0 0.25 2 2
          1.25 2 2 2 2 2
          2 2 2 2 2 1
          2 1.5 2 0 0.5 0
          2 2 2 2 2 2
          2 2 2 2 2 2
          2 2 2 2 2 2
          2 2 2 2 2 2
          2 2 2 2 2 2
          2 2 2 2 2 2
          2 2 2 2 2 2
          2 2 2 2 2 2
          2 2 2 2 2 2
          2 0.5 2 0.3333333333333333 1 2
          2 2 2 0 0.25 0
          0 0 0 0 0 0
          0 0 2 2 2 2
          2 2 2 2 2 2
          2 2 2 0 1 1
          1 2 0 0 1 1
          0 1 2 2 2 0
          0.5 0 1.5 0 0.5 0
          0 1.5 1.3333333333333333 2 2 2
          2 2 2 2 2 2
          2 2 2 2 2 2
          2 2 2 2 2 2
          2 2 2 2 2 2
          2 2 2 2 2 2
          2 2 2 2 2 2
          2 2 2 2 2 2
          2 2 2 2 2 2
          2 2 2 2 2 2
          2 2 2 2 2 2
          2 2 2 2 2 2
          2 2 2 2 2 2
          2 2 2 2 2 2
          2 2 2 2 2 2
          2 2 2 2 2 2
          2 2 2 2 2 2
          2 2 2 2 2 2
          2 2 2 2 2 2
          2 2 2 2 2 2
          2 2 2 2 2 2
          2 1 1.5 1 2 1
          1.5 0 1 2 2 0
          0.5 0 1.5 0 0.5 0
          0 1.5 0.6666666666666666 2 2 2
          2 1.5 2 2 2 2
          2 2 2 2 2 2
          2 2 2 2 2 2
          2 2 0 0.5 0 0
          0.5 0 0 0 0 0
          0 0 0 0 0 0
          0 0 0 0 0 0
          1 0.5 0 0 0 0
          0 0 0 0 0 0
          0 0 0.25 0 0 0
          0 0 0 0 0 2
          2 2 2 2 2 2
          2 2 2 2 2 2
          2 2 2 2 0 0
          0 0 0 0 2 2
          2 2 2 2 2 1.5
          1.75 2 2 2 2 2