<?xml version="1.0"?>
<VTKFile type="UnstructuredGrid" version="0.1" byte_order="LittleEndian" header_type="UInt32" compressor="vtkZLibDataCompressor">
  <UnstructuredGrid>
    <Piece NumberOfPoints="468" NumberOfCells="250">
      <PointData>
        <DataArray type="Int32" Name="libmesh_node_id" format="ascii" RangeMin="177" RangeMax="2179">
          177 178 211 254 255 256
          259 262 343 344 345 348
          351 353 354 355 356 360
          361 363 364 366 417 418
          460 468 513 514 515 518
          519 520 521 522 526 527
          539 540 541 542 545 546
          547 549 550 552 676 677
          678 681 684 698 699 701
          706 707 708 709 710 711
          712 713 714 715 716 717
          718 719 720 721 727 734
          735 736 737 738 739 740
          741 742 743 754 755 756
          757 758 759 760 761 762
          763 764 765 766 767 772
          773 777 1046 1047 1051 1068
          1069 1070 1071 1072 1073 1074
          1075 1077 1079 1080 1081 1130
          1132 1133 1134 1137 1139 1154
          1155 1156 1157 1158 1159 1160
          1161 1162 1163 1164 1165 1166
          1167 1168 1169 1170 1172 1177
          1179 1183 1184 1185 1186 1187
          1188 1189 1190 1191 1192 1193
          1194 1195 1196 1197 1198 1199
          1200 1201 1202 1203 1204 1205
          1206 1207 1208 1209 1210 1211
          1212 1213 1214 1215 1216 1217
          1218 1219 1220 1221 1222 1223
          1224 1225 1226 1227 1228 1229
          1230 1231 1232 1233 1234 1235
          1236 1237 1238 1239 1240 1241
          1242 1243 1244 1245 1246 1247
          1248 1249 1250 1253 1255 1256
          1258 1269 1271 1273 1275 1283
          1284 1287 1289 1290 1292 1303
          1305 1307 1309 1973 1974 1975
          1976 1977 1978 1979 1980 1981
          1982 1985 1987 1988 1989 1990
          1991 1992 1993 1994 1997 1998
          2000 2003 2005 2006 2007 2008
          2009 2010 2011 2012 2013 2014
          2015 2016 2017 2018 2019 2020
          2021 2022 2023 2024 2025 2026
          2027 2028 2029 2030 2031 2032
          2033 2034 2035 2036 2037 2038
          2039 2040 2041 2042 2043 2044
          2045 2046 2047 2048 2049 2050
          2051 2052 2053 2054 2055 2056
          2057 2058 2059 2060 2061 2062
          2063 2064 2065 2066 2067 2068
          2069 2070 2071 2072 2073 2074
          2075 2076 2077 2078 2079 2080
          2081 2082 2083 2084 2085 2087
          2088 2089 2090 2091 2093 2112
          2113 2114 2115 2116 2117 2118
          2119 2120 2121 2122 2123 2126
          2128 2129 2131 2132 2133 2134
          2135 2136 2137 2138 2139 2141
          2143 2145 2146 2147 2148 2149
          2150 2151 2152 2153 2154 2155
          2156 2157 2160 2162 2163 2165
          2166 2167 2168 2169 2170 2171
          2172 2173 2175 2177 2179 265
          271 267 272 425 426 264
          459 277 467 523 524 525
          528 266 357 543 362 544
          548 275 551 722 723 724
          725 726 728 729 730 731
          733 768 748 769 770 771
          774 753 775 776 1076 1078
          1171 1251 1252 1254 744 1257
          745 1178 1270 1272 1274 1288
          1304 1306 751 1308 2086 2124
          2125 2127 1285 2130 1286 2092
          2140 2142 2144 2158 2159 2161
          750 2164 1291 2174 2176 2178
        </DataArray>
        <DataArray type="Float64" Name="bounds" format="ascii" RangeMin="0" RangeMax="0">
          0 0 0 0 0 0
          0 0 0 0 0 0
          0 0 0 0 0 0
          0 0 0 0 0 0
          0 0 0 0 0 0
          0 0 0 0 0 0
          0 0 0 0 0 0
          0 0 0 0 0 0
          0 0 0 0 0 0
          0 0 0 0 0 0
          0 0 0 0 0 0
          0 0 0 0 0 0
          0 0 0 0 0 0
          0 0 0 0 0 0
          0 0 0 0 0 0
          0 0 0 0 0 0
          0 0 0 0 0 0
          0 0 0 0 0 0
          0 0 0 0 0 0
          0 0 0 0 0 0
          0 0 0 0 0 0
          0 0 0 0 0 0
          0 0 0 0 0 0
          0 0 0 0 0 0
          0 0 0 0 0 0
          0 0 0 0 0 0
          0 0 0 0 0 0
          0 0 0 0 0 0
          0 0 0 0 0 0
          0 0 0 0 0 0
          0 0 0 0 0 0
          0 0 0 0 0 0
          0 0 0 0 0 0
          0 0 0 0 0 0
          0 0 0 0 0 0
          0 0 0 0 0 0
          0 0 0 0 0 0
          0 0 0 0 0 0
          0 0 0 0 0 0
          0 0 0 0 0 0
          0 0 0 0 0 0
          0 0 0 0 0 0
          0 0 0 0 0 0
          0 0 0 0 0 0
          0 0 0 0 0 0
          0 0 0 0 0 0
          0 0 0 0 0 0
          0 0 0 0 0 0
          0 0 0 0 0 0
          0 0 0 0 0 0
          0 0 0 0 0 0
          0 0 0 0 0 0
          0 0 0 0 0 0
          0 0 0 0 0 0
          0 0 0 0 0 0
          0 0 0 0 0 0
          0 0 0 0 0 0
          0 0 0 0 0 0
          0 0 0 0 0 0
          0 0 0 0 0 0
          0 0 0 0 0 0
          0 0 0 0 0 0
          0 0 0 0 0 0
          0 0 0 0 0 0
          0 0 0 0 0 0
          0 0 0 0 0 0
          0 0 0 0 0 0
          0 0 0 0 0 0
          0 0 0 0 0 0
          0 0 0 0 0 0
          0 0 0 0 0 0
          0 0 0 0 0 0
          0 0 0 0 0 0
          0 0 0 0 0 0
          0 0 0 0 0 0
          0 0 0 0 0 0
          0 0 0 0 0 0
          0 0 0 0 0 0
        </DataArray>
        <DataArray type="Float64" Name="gradient_error" format="ascii" RangeMin="9.222967855188442e-10" RangeMax="5.732592373189688e-7">
          6.932291962287373e-9 8.128386544495604e-9 6.338374871046132e-9 8.660385791250787e-9 1.341560603486513e-7 3.367030068050543e-8
          8.210064208896087e-9 1.4868825953435235e-7 8.15027097763002e-8 5.214129591197526e-7 4.5909611317854487e-7 8.979674902402094e-8
          5.430726300556314e-7 8.19626905748325e-8 4.8617055314282984e-8 3.681797286578496e-7 2.539595326079982e-7 1.9203822881962002e-8
          5.203693497702551e-8 1.7777810421038385e-9 3.675727953447683e-7 8.71132882814811e-8 2.9943298582385703e-9 2.5350660756387307e-9
          2.185073467550387e-9 2.6437900944352934e-9 6.8626367555173435e-9 5.21865806425861e-8 3.75634229307884e-8 2.2940265218990688e-8
          4.799203714910371e-9 3.827197509779869e-9 2.5099325195548362e-8 1.7911280569927128e-8 2.8551913046493683e-9 1.0723235944305895e-8
          1.2007779489235596e-8 2.5849193502836438e-8 2.143053691348416e-8 4.429816015050136e-8 2.814830789249202e-9 3.81240444920193e-9
          6.506310564624566e-9 3.085329433773272e-8 6.274712679816627e-8 4.809978109154659e-9 1.4965011795064696e-7 3.68585419222588e-7
          3.209922673963143e-7 2.0353485051046903e-7 5.614738455581499e-7 2.920060804284541e-7 4.700577208835906e-7 5.732592373189688e-7
          1.4777647441607525e-7 1.272014940646019e-7 3.6515693052580746e-7 3.1290240064789267e-7 1.022799496061272e-7 3.545822659755152e-7
          2.983362501196139e-7 7.972414266414983e-8 1.8826119947492923e-7 1.684992525251129e-7 3.554815241629556e-7 3.9412933468386133e-7
          3.082722554310491e-7 3.6363911691290544e-7 8.682041838532721e-8 7.665880392516889e-8 5.307274398858115e-8 9.622696800891283e-8
          2.1839429614980572e-7 8.514868058600593e-8 1.3599841561451642e-7 3.973002226012717e-7 3.052709778095414e-7 2.060284844930188e-9
          1.0322609477051199e-7 9.173948200224419e-8 3.62719059342163e-7 1.88424097835691e-7 2.0598263898666321e-7 3.15818259377531e-7
          3.295124356652945e-7 1.6601858528893202e-7 2.938393661282264e-7 8.078793543280281e-8 1.29507301169022e-7 1.5563839982263099e-7
          1.0130115616977654e-7 3.709380334179999e-7 3.813135637962784e-7 3.507170952408324e-7 1.5081086739648784e-7 5.2562652516116836e-8
          7.369699355832358e-8 8.27458240617789e-8 4.3672476651302706e-8 8.896322354515921e-8 4.4255861639421123e-8 3.6562162337234547e-8
          7.635593633577718e-8 3.113149456545448e-8 6.310351406384896e-8 2.0302553059297997e-8 3.683734449167373e-8 3.1298757341184586e-8
          2.8224453384314033e-8 2.7482762040825174e-8 1.6800608256476355e-8 2.863887511692089e-8 2.81276466202421e-8 1.1283879906284375e-7
          1.1870757409960964e-7 1.1534494905033806e-7 1.1198232400106648e-7 1.1160385188290946e-7 1.1694980562549735e-7 1.212493013335795e-7
          1.1882836044033024e-7 1.2554879704166165e-7 1.2077961919411088e-7 1.1689418385374802e-7 1.246584302535137e-7 1.1300874851338514e-7
          1.367977161105369e-7 1.322056585289515e-7 1.4022327365568183e-7 1.169399074017027e-7 9.407935086567313e-8 9.482444995360854e-8
          9.662295981248201e-8 8.338268605117778e-8 1.5531875137648276e-7 1.4877229865571028e-7 1.2758859010771455e-7 9.851423184374283e-8
          8.407712940699438e-8 1.219393139030839e-7 1.1971862177889692e-7 1.2977858603110942e-7 1.2861020565888296e-7 1.1749792965470995e-7
          1.2390775574591507e-7 1.153030098264686e-7 1.1895751260084264e-7 1.1443643893183008e-7 1.2371249728368634e-7 1.3944009045173225e-7
          1.37942426137977e-7 1.4980000058152145e-7 1.478547447390688e-7 1.2840867625611617e-7 1.3651006002392672e-7 7.900418490601131e-8
          1.1053088658387575e-7 1.0212428031237122e-7 1.419736802429784e-7 1.0603926397833603e-7 9.52389112922398e-8 1.220366292778771e-7
          1.2697578462463033e-7 1.1815979745512863e-7 1.0804706775014058e-7 1.1213586175271593e-7 9.572154481227049e-8 9.716109235419454e-8
          1.3082298053622433e-7 1.3867920224084025e-7 1.1972435691169522e-7 5.794400232877568e-8 8.883052820736991e-8 3.357581956091586e-8
          6.68064396545667e-8 1.2377827319674322e-7 1.1882411748886078e-7 3.145846791045036e-9 6.180293079121032e-8 3.621924219107357e-8
          1.2298135586597435e-7 7.503055290808935e-9 4.3967839098054075e-8 6.117255376743792e-9 2.8616080378473235e-8 1.1437978856614191e-7
          1.0650964223882965e-7 1.6792348288792784e-9 8.896248699535095e-9 7.61567012033157e-9 8.479402338141245e-8 1.2562464899599696e-7
          1.3452069785751302e-7 1.2258191477527942e-7 1.2986814429741564e-7 1.2921266871411677e-7 1.3757730732357997e-7 1.270040320954302e-7
          1.4392903031575437e-7 1.539546656499002e-7 1.3696642509037901e-7 1.4435781360056612e-7 1.474817851057327e-7 1.5819969051106968e-7
          1.4254453993073082e-7 1.609267194297087e-7 1.5850735261150039e-7 1.4483086475469737e-7 9.150659044669399e-8 9.369064318203491e-8
          1.3003469825260384e-7 1.1621128735931041e-7 9.88488310025181e-8 1.467347996193716e-7 1.2889480947190912e-7 5.667217794102524e-9
          1.193218809104737e-8 9.883184967110462e-8 2.975729793281762e-9 7.171553522837781e-9 9.932823462335464e-8 1.646152717223388e-7
          1.5195206347034472e-7 1.6966928708081241e-7 1.5973504059491301e-7 1.4575798867938405e-8 1.5239463548449165e-8 1.5142095878806455e-8
          1.595773695563192e-8 1.5044728209163748e-8 1.625184801809353e-8 1.6363933081152075e-8 1.6667497585853325e-8 1.6476018144210622e-8
          1.899343300590667e-8 9.208884525863282e-9 1.3928461690710511e-8 1.4046050029084218e-8 1.4163638367457925e-8 7.68729325295638e-9
          8.818807719158927e-9 9.944221073286105e-9 9.950322185361476e-9 1.5093499970755273e-8 5.763420203858064e-9 7.657017756511728e-9
          9.550615309165392e-9 6.105150987160173e-9 5.115548211971159e-9 7.153934735045927e-9 4.365203904234782e-9 6.473202535268343e-9
          9.192321258120695e-9 1.0573732187354875e-8 2.543803170985938e-9 5.489061750932927e-9 4.788224055722545e-9 8.434320330879915e-9
          1.5073237097755032e-8 1.558767996604924e-8 1.505297422475479e-8 1.3686682085620602e-8 1.4110433167573537e-8 1.329794783935894e-8
          1.4159140137708283e-8 1.4534184249526473e-8 1.5020332436057625e-8 8.753625876991154e-9 1.0129837034486268e-8 9.301422335282372e-9
          1.2623158373254576e-8 1.2985274889427194e-8 1.4074321829444828e-8 1.264078485206092e-8 1.3870742024658287e-8 1.516336876946246e-8
          1.629996529752101e-8 6.7162837168088666e-9 8.64995702962043e-9 8.022373484152206e-9 1.1992817962978119e-8 1.5431656022437812e-8
          1.5928240458177137e-8 1.6005933309074653e-8 1.8919240206549324e-8 1.9139982915046926e-8 1.6183706376562086e-8 1.713935612468126e-8
          1.7556219549053803e-8 3.5883718964933145e-9 5.620720042949482e-9 3.007677375437153e-9 4.862655890682568e-9 1.0940467407765834e-8
          1.0209291965502697e-8 1.8033926617963592e-9 4.06053647326705e-9 3.483010430585036e-9 9.958017400594403e-9 2.674559446012885e-9
          4.315372367987127e-9 2.5744709692929294e-9 3.972464338391031e-9 9.62104898779301e-9 9.048412988247134e-9 1.6352532191688936e-9
          3.1155412544709693e-9 2.9741681719408947e-9 8.178230728475997e-9 1.519841034300656e-8 1.5382802191306013e-8 1.6168954059887105e-8
          1.706465485753461e-8 1.4965164663575313e-8 1.4837363924434885e-8 1.6331974810699557e-8 1.5456106315501823e-8 1.5438688773152308e-8
          1.7626299945378993e-8 1.815100927729948e-8 1.4728506254441561e-8 1.4590867062878715e-8 1.7696380341704176e-8 1.650301689076902e-8
          1.6932435712726495e-8 1.7105914514197637e-8 1.848553448407221e-8 1.6281823296649526e-8 1.714539592375492e-8 1.970754089536181e-8
          1.966162188564351e-8 2.079175590035892e-8 1.971402933782657e-8 2.1744021590911435e-8 2.2081929941959562e-8 1.2283565745418888e-8
          1.3566242218251763e-8 1.1949480402141686e-8 1.3279580262288876e-8 1.6785182343641888e-8 1.6779151978072093e-8 5.730493137306488e-9
          7.481397732100926e-9 7.209060370707124e-9 1.2472654966554098e-8 1.1742051563498904e-8 1.311502228300287e-8 1.6929491683578055e-8
          5.9845873850315956e-9 7.315565007731e-9 1.1771778576345429e-8 1.9295485904564137e-8 2.0018093149107912e-8 1.9869525812929137e-8
          2.1087562464507706e-8 1.7590531807760885e-8 1.7749346301329678e-8 1.9468056009308942e-8 2.073049364882318e-8 2.208999693299709e-8
          1.8052205095560806e-8 2.1207395668861164e-8 2.829624585416342e-9 3.973601359257181e-9 3.4448489938283887e-9 4.358552847965862e-9
          8.554377961434092e-9 8.30825277278385e-9 2.262377496288459e-9 3.1844559780895377e-9 3.752230964897592e-9 7.248276192971567e-9
          4.200802603714542e-9 5.011578276715834e-9 8.40194192957442e-9 3.634710267714174e-9 4.476675180220482e-9 7.411769178252277e-9
          1.5365766801696017e-8 1.5343958749691125e-8 1.874035581362187e-8 1.9343668655917887e-8 1.4479819911355038e-8 1.4433655294579803e-8
          1.856962189665756e-8 1.5442576096142434e-8 1.9903622282853156e-8 1.449770770789818e-8 1.94905171520186e-8 3.479303801146393e-9
          3.5171302945690985e-9 3.71703704440193e-8 3.406475645707995e-9 1.2295280669052215e-9 1.036090956489151e-9 2.557566949612124e-9
          9.222967855188442e-10 2.508399362554522e-9 1.0965382022511684e-9 2.8870731055380823e-9 1.2598959520698608e-8 9.79315532330755e-9
          6.9873511259164895e-9 3.897274348425208e-8 5.266159911309679e-8 7.413990047874171e-9 5.39668886301102e-8 1.140934350829979e-8
          3.044909173492353e-9 3.9420771556795363e-8 1.5404696968725404e-8 3.345171573571132e-7 2.757865399976393e-7 5.2437267355016917e-8
          3.023998931734873e-7 2.436853784597453e-7 1.4439428012709486e-7 1.4324163515125222e-7 3.739964666910763e-7 3.0389406872732574e-7
          2.256330568668365e-7 1.3900108460926757e-7 2.916604877381327e-7 2.619343041291936e-7 1.3208431981786725e-7 2.1942112606558663e-7
          4.937934817134361e-8 3.6085877436696767e-7 3.1801349838848315e-7 2.7092980367495596e-7 5.0185756366472555e-8 4.395541229099613e-8
          1.578131514926588e-7 1.7342404415229274e-7 1.702999872309954e-7 1.5359017825272718e-7 9.851747518015902e-8 1.0152508887914659e-7
          1.4039889914268788e-7 9.996949754410423e-8 1.200190646754085e-7 1.000337031550607e-7 1.5505152663845784e-7 1.0755205821069694e-7
          1.7619707003391463e-7 1.5935311475610957e-7 1.0805298276993591e-7 1.8235971859762635e-7 1.7078238440469506e-8 1.1774647541857896e-8
          1.311671603651303e-8 1.7152277275596184e-8 6.630015842354209e-9 7.760338508488468e-9 1.1848576110544437e-8 2.2759874343980566e-8
          2.1503975624359623e-8 2.3162181228695042e-8 1.8434791078070185e-8 4.9579128544939945e-9 5.811050544695296e-9 8.800962592580188e-9
          4.239189999009276e-9 5.256617704970211e-9 7.945972726302699e-9 1.567095372696117e-8 2.0404170503658562e-8 1.4720402202520652e-8
        </DataArray>
        <DataArray type="Float64" Name="gradient_matprop_error" format="ascii" RangeMin="0" RangeMax="0">
          0 0 0 0 0 0
          0 0 0 0 0 0
          0 0 0 0 0 0
          0 0 0 0 0 0
          0 0 0 0 0 0
          0 0 0 0 0 0
          0 0 0 0 0 0
          0 0 0 0 0 0
          0 0 0 0 0 0
          0 0 0 0 0 0
          0 0 0 0 0 0
          0 0 0 0 0 0
          0 0 0 0 0 0
          0 0 0 0 0 0
          0 0 0 0 0 0
          0 0 0 0 0 0
          0 0 0 0 0 0
          0 0 0 0 0 0
          0 0 0 0 0 0
          0 0 0 0 0 0
          0 0 0 0 0 0
          0 0 0 0 0 0
          0 0 0 0 0 0
          0 0 0 0 0 0
          0 0 0 0 0 0
          0 0 0 0 0 0
          0 0 0 0 0 0
          0 0 0 0 0 0
          0 0 0 0 0 0
          0 0 0 0 0 0
          0 0 0 0 0 0
          0 0 0 0 0 0
          0 0 0 0 0 0
          0 0 0 0 0 0
          0 0 0 0 0 0
          0 0 0 0 0 0
          0 0 0 0 0 0
          0 0 0 0 0 0
          0 0 0 0 0 0
          0 0 0 0 0 0
          0 0 0 0 0 0
          0 0 0 0 0 0
          0 0 0 0 0 0
          0 0 0 0 0 0
          0 0 0 0 0 0
          0 0 0 0 0 0
          0 0 0 0 0 0
          0 0 0 0 0 0
          0 0 0 0 0 0
          0 0 0 0 0 0
          0 0 0 0 0 0
          0 0 0 0 0 0
          0 0 0 0 0 0
          0 0 0 0 0 0
          0 0 0 0 0 0
          0 0 0 0 0 0
          0 0 0 0 0 0
          0 0 0 0 0 0
          0 0 0 0 0 0
          0 0 0 0 0 0
          0 0 0 0 0 0
          0 0 0 0 0 0
          0 0 0 0 0 0
          0 0 0 0 0 0
          0 0 0 0 0 0
          0 0 0 0 0 0
          0 0 0 0 0 0
          0 0 0 0 0 0
          0 0 0 0 0 0
          0 0 0 0 0 0
          0 0 0 0 0 0
          0 0 0 0 0 0
          0 0 0 0 0 0
          0 0 0 0 0 0
          0 0 0 0 0 0
          0 0 0 0 0 0
          0 0 0 0 0 0
          0 0 0 0 0 0
        </DataArray>
        <DataArray type="Float64" Name="initial_marker" format="ascii" RangeMin="0" RangeMax="2">
          0 0 0 0 0 0
          0 0 0 2 1 0
          1 0 0 2 1 0
          0 2 2 0 0 0
          0 0 0 0 0 0
          0 0 0 0 0 0
          0 0 0 0 0 0
          0 0 0 0 0 1
          1 0.5 2 2 2 1
          0 0 1 1 0 1
          1 0 0.5 0.5 2 2
          2 1 0 0 0 2
          2 2 2 1.25 1.5 2
          2 2 1.5 0 0 0.25
          0 0 0.5 0 0 0
          0 0.5 0 1 0 0
          0 0 0 0 0 0
          0 0 0 0 0 0
          0 0 0 0 0 2
          2 2 2 2 2 2
          2 2 2 2 2 2
          2 2 2 2 2 2
          2 2 2 2 2 2
          2 2 2 2 2 2
          2 2 2 2 2 2
          2 2 2 2 2 2
          2 2 2 2 2 2
          2 2 2 2 2 2
          2 2 2 2 2 2
          2 2 2 2 2 2
          2 2 2 2 2 2
          2 2 2 2 2 2
          2 2 2 2 2 2
          2 2 2 2 2 2
          2 2 2 2 2 2
          2 2 2 2 2 2
          2 2 2 2 2 2
          2 2 2 2 2 2
          2 2 2 2 2 2
          2 2 2 2 2 2
          2 2 2 2 2 2
          2 2 2 2 2 2
          2 2 2 2 2 2
          2 2 2 2 2 2
          2 2 2 2 2 2
          2 2 2 2 2 2
          2 2 2 2 2 2
          2 2 2 2 2 2
          2 2 2 2 2 2
          2 2 2 2 2 2
          2 2 2 2 2 2
          2 2 2 2 2 2
          2 2 2 2 2 2
          2 2 2 2 2 2
          2 2 2 2 2 2
          2 2 2 2 2 2
          2 2 2 2 2 2
          2 2 2 2 2 2
          2 2 2 2 2 2
          2 2 2 2 2 2
          2 2 2 2 2 2
          2 2 2 2 2 2
          2 2 2 2 2 2
          2 2 2 2 2 2
          2 2 2 2 2 0
          0 0 0 0 0 0
          0 0 0 0 0 0
          0 0 0 0 0 0
          0 0 0 1 1 0
          1 1 0.5 0.6666666666666666 2 2
          1 0 1.5 0.5 0 0.5
          0 2 1 1 0 0
          2 2 2 2 2 2
          2 2 2 2 2 2
          2 2 2 2 2 2
          2 2 2 2 2 2
          2 2 2 2 2 2
          2 2 2 2 2 2
        </DataArray>
        <DataArray type="Float64" Name="markers_norefine" format="ascii" RangeMin="0" RangeMax="2">
          0 0 0 0 0 0
          0 0 0 0 0 0
          0 0 0 0 0 0
          0 2 0 0 0 0
          0 0 0 0 0 0
          0 0 0 0 0 0
          0 0 0 0 0 0
          0 0 0 0 0 0
          0 0 0 0 0 0
          0 0 0 0 0 0
          0 0 0 0 0 0
          0 0 0 0 0 0
          0 0 0 0 0 2
          0 0 0 0 0 0
          0 0 0 0 0 0
          0 0 0 0 0 0
          0 0 0 0 0 0
          0 0 0 0 0 0
          0 0 0 0 0 0
          0 0 0 0 0 0
          0 0 0 0 0 0
          0 0 0 0 0 0
          0 0 0 0 0 0
          0 0 0 0 0 0
          0 0 0 0 0 0
          0 0 0 0 0 0
          0 0 0 0 0 0
          0 0 0 0 0 0
          0 0 0 1 0.25 1.5
          0.5 0 0 2 1 1.5
          0 2 1.25 2 1.5 0
          0 2 2 2 0 0
          0 0 0 0 0 0
          0 0 0 0 0 0
          0 0 0 0 1 0.25
          0 0 0 0 0 2
          2 0 2 2 0.5 0
          0 0 0 0 0 0
          0 0 0 0 0 0
          0 1.5 1 0.5 0 2
          2 1.6666666666666667 2 0 2 1.75
          1.5 2 2 2 2 2
          2 1.6666666666666667 2 2 2 2
          0.5 0 1 1 0.75 1
          1 0.5 1 2 1.75 2
          1 1 1 1 1 1
          0.6666666666666666 2 2 2 2 0
          0.5 0 0 0 1 0.6666666666666666
          0 2 2 2 2 1.5
          1.75 2 2 2 2 2
          2 2 2 2 2 2
          2 2 2 0.5 0.75 0
          0 1 1 0 1 1
          0 0 1 1 0 1
          0.5 1.5 0 2 2 1
          0 0 0 0 0 1.5
          1.25 2 1.75 0.75 1.25 2
          2 2 1.75 2 2 1.5
          2 2 2 0.25 0.5 0
          0 0.75 1 0 0.5 0
          1 0 2 2 2 2
          2 2 2 2 2 2
          2 2 2 2 2 2
          1 1.25 0 0.5 1 1.5
          0 1.5 1 2 2 0
          0 0 0 0 0 0
          0 0 0 0 0 0
          0 0 0 0 0 0
          0 0 0 0 0 0
          0 0 0 0 0 0
          0 0 0 0 0 0
          0 0 0 0 0 0
          0 0 0 0 1 0.5
          0 0 0 0 0 0.25
          0 0 1 0 2 2
          2 1.5 2 2 2 0
          0.5 0 1.25 2 2 2
          2 2 2 1.75 1.5 2
        </DataArray>
        <DataArray type="Float64" Name="markers_mustrefine" format="ascii" RangeMin="0" RangeMax="2">
          0 0 0 0 0 0
          0 0 0 2 1 0
          1 0 0 2 1 0
          0 2 2 0 0 0
          0 0 0 0 0 0
          0 0 0 0 0 0
          0 0 0 0 0 0
          0 0 0 0 0 1
          1 0.5 2 2 2 1
          0 0 1 1 0 1
          1 0 0.5 0.5 2 2
          2 1 0 0 0 2
          2 2 2 1.25 1.5 2
          2 2 1.5 0 0 0.25
          0 0 0.5 0 0 0
          0 0.5 0 1 0 0
          0 0 0 0 0 0
          0 0 0 0 0 0
          0 0 0 0 0 2
          2 2 2 2 2 2
          2 2 2 2 2 2
          2 2 2 2 2 2
          2 2 2 2 2 2
          2 2 2 2 2 2
          2 2 2 2 2 2
          2 2 2 2 2 2
          2 2 2 2 2 2
          2 2 2 2 2 2
          2 2 2 2 2 2
          2 2 2 2 2 2
          2 2 2 2 2 2
          2 2 2 2 2 2
          2 2 2 2 2 2
          2 2 2 2 2 2
          2 2 2 2 2 2
          2 2 2 2 2 2
          2 2 2 2 2 2
          2 2 2 2 2 2
          2 2 2 2 2 2
          2 2 2 2 2 2
          2 2 2 2 2 2
          2 2 2 2 2 2
          2 2 2 2 2 2
          2 2 2 2 2 2
          2 2 2 2 2 2
          2 2 2 2 2 2
          2 2 2 2 2 2
          2 2 2 2 2 2
          2 2 2 2 2 2
          2 2 2 2 2 2
          2 2 2 2 2 2
          2 2 2 2 2 2
          2 2 2 2 2 2
          2 2 2 2 2 2
          2 2 2 2 2 2
          2 2 2 2 2 2
          2 2 2 2 2 2
          2 2 2 2 2 2
          2 2 2 2 2 2
          2 2 2 2 2 2
          2 2 2 2 2 2
          2 2 2 2 2 2
          2 2 2 2 2 2
          2 2 2 2 2 2
          2 2 2 2 2 0
          0 0 0 0 0 0
          0 0 0 0 0 0
          0 0 0 0 0 0
          0 0 0 1 1 0
          1 1 0.5 0.6666666666666666 2 2
          1 0 1.5 0.5 0 0.5
          0 2 1 1 0 0
          2 2 2 2 2 2
          2 2 2 2 2 2
          2 2 2 2 2 2
          2 2 2 2 2 2
          2 2 2 2 2 2
          2 2 2 2 2 2
        </DataArray>
        <DataArray type="Float64" Name="gradient_marker" format="ascii" RangeMin="0" RangeMax="1">
          1 1 1 1 1 0.75
          1 1 0.625 0.75 1 0.625
          0.75 0.75 0.5 1 0.75 0.6666666666666666
          0.5 0 1 0.75 1 1
          1 1 1 1 1 1
          1 1 1 1 1 1
          1 1 1 1 1 1
          1 1 1 1 0.75 1
          0.875 0.625 0.875 0.25 0.5 0.875
          1 0.5 1 0.75 0.25 0.75
          0.625 0 0.5 0.5 0.75 0.625
          0.75 0.875 0 0 0 0.5
          1 0.5 0.875 0.75 0.75 0
          0.5 0.5 1 0.5 0.625 0.75
          0.875 0.5 0.625 0 0.5 0.75
          0.25 1 1 0.75 1 0
          0 0 0 0.25 0 0
          0.25 0 0.25 0 0 0
          0 0 0 0 0 0
          0 0 0 0 0 0.25
          0 0.5 0 0 0.25 0
          1 0.75 1 0.25 0 0
          0 0 1 1 0.5 0
          0 0.25 0.25 0.75 0.625 0.25
          0.5 0.25 0.375 0.75 0.5 1
          0.875 1 1 0.625 0.75 0.5
          0.75 0.625 1 0.25 0 0.25
          0.6666666666666666 0 0.25 0.25 0 0
          0.75 0.75 0.5 0 0.125 0
          0.25 0.5 0.75 0 0 0
          0.5 0 0.25 0 0.125 0.75
          0.625 0 0 0 0.5 0.5
          0.875 0.25 0.75 0.75 1 0.5
          1 1 1 1 1 1
          1 1 1 0.75 0.5 0.5
          0.75 0.25 0 0.75 0.5 0
          0 0.5 0 0 0.5 1
          1 1 1 0 0 0
          0 0 0 0 0 0
          0 0 0 0 0 0
          0 0 0 0 0 0
          0 0 0 0 0 0
          0 0 0 0 0 0
          0 0 0 0 0 0
          0 0 0 0 0 0
          0 0 0 0 0 0
          0 0 0 0 0 0
          0 0 0 0 0 0
          0 0 0 0 0 0
          0 0 0 0 0 0
          0 0 0 0 0 0
          0 0 0 0 0 0
          0 0 0 0 0 0
          0 0 0 0 0 0
          0 0 0 0 0 0
          0 0 0 0 0 0
          0 0 0 0 0 0
          0 0 0 0 0 0
          0 0 0 0 0 0
          0 0 0 0 0 0
          0 0 0 0 0 0
          0 0 0 0 0 0
          0 0 0 0 0 0
          0 0 0 0 0 0
          0 0 0 0 0 1
          1 0.875 1 1 1 1
          1 1 1 1 1 1
          1 0.5 0.625 1 0.625 1
          1 0.5 1 0.5 0.5 0
          0.5 0.5 0.375 0.3333333333333333 1 0.75
          0.625 0.375 0.75 0.5 0.3333333333333333 0.5
          0 1 0.5 0.5 0.125 0
          1 1 1 0.75 0.5 0.5
          0.75 0 0.25 0 0.75 0.5
          1 1 0.5 1 0 0
          0 0 0 0 0 0
          0 0 0 0 0 0
          0 0 0 0 0 0
        </DataArray>
        <DataArray type="Float64" Name="gradient_matprop_marker" format="ascii" RangeMin="0" RangeMax="0">
          0 0 0 0 0 0
          0 0 0 0 0 0
          0 0 0 0 0 0
          0 0 0 0 0 0
          0 0 0 0 0 0
          0 0 0 0 0 0
          0 0 0 0 0 0
          0 0 0 0 0 0
          0 0 0 0 0 0
          0 0 0 0 0 0
          0 0 0 0 0 0
          0 0 0 0 0 0
          0 0 0 0 0 0
          0 0 0 0 0 0
          0 0 0 0 0 0
          0 0 0 0 0 0
          0 0 0 0 0 0
          0 0 0 0 0 0
          0 0 0 0 0 0
          0 0 0 0 0 0
          0 0 0 0 0 0
          0 0 0 0 0 0
          0 0 0 0 0 0
          0 0 0 0 0 0
          0 0 0 0 0 0
          0 0 0 0 0 0
          0 0 0 0 0 0
          0 0 0 0 0 0
          0 0 0 0 0 0
          0 0 0 0 0 0
          0 0 0 0 0 0
          0 0 0 0 0 0
          0 0 0 0 0 0
          0 0 0 0 0 0
          0 0 0 0 0 0
          0 0 0 0 0 0
          0 0 0 0 0 0
          0 0 0 0 0 0
          0 0 0 0 0 0
          0 0 0 0 0 0
          0 0 0 0 0 0
          0 0 0 0 0 0
          0 0 0 0 0 0
          0 0 0 0 0 0
          0 0 0 0 0 0
          0 0 0 0 0 0
          0 0 0 0 0 0
          0 0 0 0 0 0
          0 0 0 0 0 0
          0 0 0 0 0 0
          0 0 0 0 0 0
          0 0 0 0 0 0
          0 0 0 0 0 0
          0 0 0 0 0 0
          0 0 0 0 0 0
          0 0 0 0 0 0
          0 0 0 0 0 0
          0 0 0 0 0 0
          0 0 0 0 0 0
          0 0 0 0 0 0
          0 0 0 0 0 0
          0 0 0 0 0 0
          0 0 0 0 0 0
          0 0 0 0 0 0
          0 0 0 0 0 0
          0 0 0 0 0 0
          0 0 0 0 0 0
          0 0 0 0 0 0
          0 0 0 0 0 0
          0 0 0 0 0 0
          0 0 0 0 0 0
          0 0 0 0 0 0
          0 0 0 0 0 0
          0 0 0 0 0 0
          0 0 0 0 0 0
          0 0 0 0 0 0
          0 0 0 0 0 0
          0 0 0 0 0 0
        </DataArray>
        <DataArray type="Float64" Name="combo" format="ascii" RangeMin="0" RangeMax="2">
          1 1 1 1 1 0.75
          1 1 0.625 0.75 1 0.625
          0.75 0.75 0.5 1 0.75 0.6666666666666666
          0.5 2 1 0.75 1 1
          1 1 1 1 1 1
          1 1 1 1 1 1
          1 1 1 1 1 1
          1 1 1 1 0.75 1
          0.875 0.625 0.875 0.25 0.5 0.875
          1 0.5 1 0.75 0.25 0.75
          0.625 0 0.5 0.5 0.75 0.625
          0.75 0.875 0 0 0 0.5
          1 0.5 0.875 0.75 0.75 2
          0.5 0.5 1 0.5 0.625 0.75
          0.875 0.5 0.625 0 0.5 0.75
          0.25 1 1 0.75 1 0
          0 0 0 0.25 0 0
          0.25 0 0.25 0 0 0
          0 0 0 0 0 0
          0 0 0 0 0 0.25
          0 0.5 0 0 0.25 0
          1 0.75 1 0.25 0 0
          0 0 1 1 0.5 0
          0 0.25 0.25 0.75 0.625 0.25
          0.5 0.25 0.375 0.75 0.5 1
          0.875 1 1 0.625 0.75 0.5
          0.75 0.625 1 0.25 0 0.25
          0.6666666666666666 0 0.25 0.25 0 0
          0.75 0.75 0.5 1 0.375 1.5
          0.75 0.5 0.75 2 1 1.5
          0.5 2 1.5 2 1.625 0.75
          0.625 2 2 2 0.5 0.5
          0.875 0.25 0.75 0.75 1 0.5
          1 1 1 1 1 1
          1 1 1 0.75 1.5 0.75
          0.75 0.25 0 0.75 0.5 2
          2 0.5 2 2 1 1
          1 1 1 0 0 0
          0 0 0 0 0 0
          0 1.5 1 0.5 0 2
          2 1.6666666666666667 2 0 2 1.75
          1.5 2 2 2 2 2
          2 1.6666666666666667 2 2 2 2
          0.5 0 1 1 0.75 1
          1 0.5 1 2 1.75 2
          1 1 1 1 1 1
          0.6666666666666666 2 2 2 2 0
          0.5 0 0 0 1 0.6666666666666666
          0 2 2 2 2 1.5
          1.75 2 2 2 2 2
          2 2 2 2 2 2
          2 2 2 0.5 0.75 0
          0 1 1 0 1 1
          0 0 1 1 0 1
          0.5 1.5 0 2 2 1
          0 0 0 0 0 1.5
          1.25 2 1.75 0.75 1.25 2
          2 2 1.75 2 2 1.5
          2 2 2 0.25 0.5 0
          0 0.75 1 0 0.5 0
          1 0 2 2 2 2
          2 2 2 2 2 2
          2 2 2 2 2 2
          1 1.25 0 0.5 1 1.5
          0 1.5 1 2 2 1
          1 0.875 1 1 1 1
          1 1 1 1 1 1
          1 0.5 0.625 1 0.625 1
          1 0.5 1 0.5 0.5 0