<?xml version="1.0"?>
<VTKFile type="UnstructuredGrid" version="0.1" byte_order="LittleEndian" header_type="UInt32" compressor="vtkZLibDataCompressor">
  <UnstructuredGrid>
    <Piece NumberOfPoints="399" NumberOfCells="245">
      <PointData>
        <DataArray type="Int32" Name="libmesh_node_id" format="ascii" RangeMin="212" RangeMax="3481">
          212 372 804 818 819 824
          856 857 874 875 880 881
          1349 1350 1351 1352 1447 1448
          1449 1450 1451 1452 1453 1454
          1455 1456 1468 1469 1481 1482
          1483 1484 1485 1486 1487 1488
          1489 1490 1498 1499 1502 1503
          1529 1530 1531 1532 1591 1592
          1593 1594 1595 1596 1597 1598
          1599 1600 1615 1616 1625 1626
          1627 1628 1629 1630 1631 1632
          1633 1634 1645 1646 1649 1650
          2260 2263 2532 2534 2535 2536
          2537 2538 2539 2540 2541 2542
          2543 2546 2547 2549 2552 2554
          2555 2556 2557 2558 2559 2560
          2561 2562 2563 2565 2567 2568
          2569 2570 2571 2581 2655 2656
          2658 2661 2663 2664 2665 2666
          2667 2668 2669 2670 2671 2672
          2674 2676 2678 2680 2681 2682
          2683 2684 2685 2686 2689 2690
          2692 2695 2697 2698 2699 2700
          2701 2702 2703 2704 2705 2706
          2708 2710 2712 2714 2715 2716
          2717 2718 2719 2720 2721 2722
          2723 2727 2728 2729 2794 2795
          2796 2797 2804 2805 2806 2807
          2812 2813 2814 2819 2820 2821
          2995 2996 2997 2998 2999 3000
          3001 3002 3003 3004 3005 3006
          3007 3008 3009 3010 3011 3012
          3013 3014 3015 3016 3017 3018
          3019 3020 3021 3022 3023 3024
          3025 3026 3027 3028 3029 3030
          3031 3032 3033 3034 3035 3036
          3037 3038 3039 3040 3041 3042
          3043 3044 3045 3046 3047 3048
          3049 3050 3051 3052 3053 3054
          3055 3056 3057 3058 3059 3060
          3061 3062 3063 3064 3067 3083
          3165 3166 3169 3170 3171 3172
          3173 3176 3177 3178 3255 3256
          3257 3258 3259 3260 3261 3262
          3263 3264 3265 3266 3267 3268
          3269 3270 3271 3272 3273 3274
          3275 3276 3277 3278 3279 3280
          3281 3282 3283 3284 3285 3286
          3287 3288 3289 3290 3291 3292
          3293 3294 3295 3296 3297 3298
          3299 3300 3301 3302 3303 3304
          3305 3306 3307 3308 3309 3310
          3311 3312 3313 3314 3315 3316
          3317 3318 3319 3320 3321 3322
          3391 3392 3393 3394 3395 3396
          3397 3398 3399 3400 3401 3402
          3403 3404 3419 3420 3421 3422
          3423 3424 3425 3426 3427 3428
          3429 3430 3431 3432 3069 3070
          3072 3087 3085 3089 3097 3098
          3101 3103 3104 3106 3117 3119
          3121 3123 3227 3231 3323 3324
          3327 3329 3330 3332 3343 3345
          3347 3349 3357 3358 3361 3363
          3364 3366 3377 3379 3381 3383
          3447 3233 3449 3451 3453 3475
          3477 3479 3481
        </DataArray>
        <DataArray type="Float64" Name="bounds" format="ascii" RangeMin="0" RangeMax="0">
          0 0 0 0 0 0
          0 0 0 0 0 0
          0 0 0 0 0 0
          0 0 0 0 0 0
          0 0 0 0 0 0
          0 0 0 0 0 0
          0 0 0 0 0 0
          0 0 0 0 0 0
          0 0 0 0 0 0
          0 0 0 0 0 0
          0 0 0 0 0 0
          0 0 0 0 0 0
          0 0 0 0 0 0
          0 0 0 0 0 0
          0 0 0 0 0 0
          0 0 0 0 0 0
          0 0 0 0 0 0
          0 0 0 0 0 0
          0 0 0 0 0 0
          0 0 0 0 0 0
          0 0 0 0 0 0
          0 0 0 0 0 0
          0 0 0 0 0 0
          0 0 0 0 0 0
          0 0 0 0 0 0
          0 0 0 0 0 0
          0 0 0 0 0 0
          0 0 0 0 0 0
          0 0 0 0 0 0
          0 0 0 0 0 0
          0 0 0 0 0 0
          0 0 0 0 0 0
          0 0 0 0 0 0
          0 0 0 0 0 0
          0 0 0 0 0 0
          0 0 0 0 0 0
          0 0 0 0 0 0
          0 0 0 0 0 0
          0 0 0 0 0 0
          0 0 0 0 0 0
          0 0 0 0 0 0
          0 0 0 0 0 0
          0 0 0 0 0 0
          0 0 0 0 0 0
          0 0 0 0 0 0
          0 0 0 0 0 0
          0 0 0 0 0 0
          0 0 0 0 0 0
          0 0 0 0 0 0
          0 0 0 0 0 0
          0 0 0 0 0 0
          0 0 0 0 0 0
          0 0 0 0 0 0
          0 0 0 0 0 0
          0 0 0 0 0 0
          0 0 0 0 0 0
          0 0 0 0 0 0
          0 0 0 0 0 0
          0 0 0 0 0 0
          0 0 0 0 0 0
          0 0 0 0 0 0
          0 0 0 0 0 0
          0 0 0 0 0 0
          0 0 0 0 0 0
          0 0 0 0 0 0
          0 0 0 0 0 0
          0 0 0
        </DataArray>
        <DataArray type="Float64" Name="gradient_error" format="ascii" RangeMin="9.370849750143538e-10" RangeMax="1.9816432102369352e-7">
          4.22976476326915e-8 5.040528460983466e-8 2.4955517662251188e-8 5.7880142814816756e-8 9.088551514523703e-8 1.1226627637155488e-7
          2.869430619512795e-9 9.370849750143538e-10 3.241977380578276e-8 1.0339711466271854e-8 3.932181932121462e-8 2.2826807106769057e-8
          1.0170777490564804e-7 8.598966451228446e-8 4.2070669979284096e-8 5.2730927738380396e-8 1.0609964954116549e-7 1.5363993413370967e-7
          6.057432309410484e-8 8.02383093112437e-8 1.4618070053417754e-7 7.105369936559497e-8 6.053526255993148e-8 1.2031256165995685e-7
          8.172656725656259e-8 1.760048713260067e-7 1.1680164013376008e-7 5.50331422977799e-8 5.4982566725715215e-8 7.341337568671185e-8
          6.01697011689453e-8 7.313247660912862e-8 1.6924189836095115e-7 9.666665318601123e-8 2.2055379972177353e-8 7.441700257788156e-8
          7.754466176347897e-8 1.9174393200902444e-7 1.7410045317611033e-7 8.374138131754369e-8 1.9816432102369352e-7 9.621158331842299e-8
          5.60951854117035e-9 4.310907627007015e-9 2.1418484015261597e-9 2.068980685983812e-9 2.1206969116694623e-8 1.6552757517020015e-8
          1.2828709468194088e-8 9.590269618034895e-9 7.362844586199913e-9 3.744034975096453e-9 4.811384057361813e-8 4.1774320622454844e-8
          2.618635917247713e-8 1.8273466016760698e-8 5.005317374981573e-9 2.3446393502047525e-9 5.2400182670497356e-8 6.259784502168126e-8
          4.302669587287867e-8 4.4410119569309293e-8 3.189316372145585e-8 1.8753815262761195e-8 4.971245057770917e-8 6.804905683464483e-8
          5.055611345133455e-8 3.851338642109886e-8 8.345545850155208e-9 4.061798068165113e-9 9.910214787008273e-9 4.886729170915091e-9
          8.642375265417831e-9 5.559283194653816e-9 4.614050198762318e-8 1.6727943265410456e-8 1.545047365681694e-8 1.2883192554899819e-8
          4.280989142578522e-8 4.153793187475243e-8 3.021075307730017e-8 4.026597232371965e-8 1.0015019760683687e-8 6.819336890149764e-9
          1.7474930516672386e-8 5.3732370539037176e-8 5.219298480148524e-8 5.0653599063933305e-8 6.119775653379777e-8 5.119047796525374e-8
          4.920505306918441e-8 4.686652157451859e-8 4.4768379448421776e-8 4.721962817311508e-8 3.919010363344452e-8 6.014623208144787e-8
          6.047418994902944e-8 5.788706259681159e-8 6.122914777251839e-8 5.8066677067658324e-8 2.7804444014067534e-8 1.8092802940865753e-8
          5.4459856410114096e-8 4.3777013284645895e-8 4.683656513589506e-8 1.5184696106062225e-8 6.258043241567452e-8 6.598026983628777e-8
          6.852055489871574e-8 6.42268781235659e-8 6.283232917783384e-8 6.617056725125191e-8 6.120752535295677e-8 6.43986109018547e-8
          6.84645565226553e-8 6.617443499168997e-8 5.910064662651981e-8 6.674012765908128e-8 6.632996764388861e-8 7.448610375786562e-8
          6.287195297421761e-8 5.808290340790475e-8 7.049407116731443e-8 6.028024265864149e-8 5.5750907443073684e-8 5.314017759664238e-8
          3.9098277587150715e-8 6.944780275361721e-8 6.597329626154873e-8 6.430300668314593e-8 3.399286369035611e-8 5.3317756800424744e-8
          7.486030043309753e-8 4.599225157404501e-8 4.253260787891968e-8 5.9319453711764187e-8 4.994604291175919e-8 6.295168989169184e-8
          7.701019120893804e-8 7.664089058079706e-8 3.180718120229393e-8 5.342358097342715e-8 5.944168610724471e-8 7.722020829993314e-8
          7.48075540743519e-8 7.253715719300216e-8 7.630419469485188e-8 7.442865287316718e-8 7.159592941402529e-8 7.094322287306695e-8
          5.476723389303952e-8 7.606232914626882e-8 7.339300151662022e-8 7.272422243723176e-8 2.0404870354477056e-8 1.176463393390205e-8
          2.4944903551957673e-8 2.8300117320223148e-8 1.6250486717338597e-8 2.9816347889062764e-8 7.910904978053428e-9 7.3568385736085966e-9
          5.24913214110217e-9 6.109426477578996e-9 4.067925901484635e-9 3.79426860400274e-9 2.66705658356743e-9 3.0790207245298175e-9
          4.626435629223278e-9 3.141668039641044e-9 3.1301966130680565e-9 2.191166831633618e-9 1.4989863529762338e-9 1.3990688339622573e-9
          1.4834727214607708e-8 1.3816618294021785e-8 1.1538712339324854e-8 1.0829134525107963e-8 1.1488735241988429e-8 8.890791265299591e-9
          2.5301436528237267e-8 2.397385186181131e-8 2.0008935031147645e-8 2.0412350929265364e-8 8.860200336990538e-9 8.263206339345505e-9
          6.483787953292114e-9 6.017996495265595e-9 6.659504455800255e-9 4.784711946700114e-9 1.6889557598821207e-8 1.5857153730472982e-8
          1.1978342253392614e-8 1.2905288810783075e-8 8.678960412073867e-9 6.370712634620446e-9 5.7902095795379355e-9 4.05700900231185e-9
          1.542326066825219e-8 1.1816450357445593e-8 1.003113244343189e-8 4.629738892183123e-9 3.2575478388425023e-9 2.8399266397431042e-9
          1.9472495439444156e-9 8.924609359457005e-9 6.465683797248784e-9 5.328703529558497e-9 4.132042282993798e-8 3.9417683708238636e-8
          3.499556286150845e-8 3.3285004095598545e-8 3.348154432181946e-8 2.7813814618973754e-8 5.381986540648268e-8 5.357005768494923e-8
          4.7368724571816574e-8 4.849277561489421e-8 2.8264772746862092e-8 2.6787473546790653e-8 2.180173331419151e-8 2.0601219731586536e-8
          2.2148018005096104e-8 1.6860015913461018e-8 4.07979935203728e-8 3.9583285888919394e-8 3.112984569773338e-8 3.39281008025154e-8
          2.4938872188967583e-8 1.978657485711439e-8 1.5949304143986896e-8 1.2152722249131128e-8 3.650241206107445e-8 3.0192877493646224e-8
          2.2843989649978116e-8 1.5410110879174938e-8 1.1476244962942674e-8 9.104691931632348e-9 6.555160815633063e-9 2.3914960511897407e-8
          1.8109285085017714e-8 1.405733650210297e-8 4.501235553511052e-9 4.16294567563327e-9 3.2770348085070804e-9 2.198930119388295e-9
          9.294385356442763e-9 6.683241364044644e-9 1.327897320464086e-8 9.905137874314619e-9 7.369783642287323e-9 4.768727399902263e-9
          3.3094391539478306e-9 7.2494587706101636e-9 5.119235451470071e-9 3.4553698829660386e-9 5.774634056612094e-8 6.075780690684813e-8
          5.30742642931206e-8 5.5517292291527724e-8 6.14913185638369e-8 5.442910384062178e-8 5.7534145508015886e-8 6.297633647490127e-8
          5.7723513864899885e-8 6.9119819310981e-8 4.7708353503256595e-8 4.891638568192356e-8 4.0905549703678756e-8 4.077339847222772e-8
          4.570399153910196e-8 3.621858552358829e-8 4.712526708274399e-8 5.182966964393233e-8 4.567161910059681e-8 5.4152908774706815e-8
          4.9493025051840167e-8 4.17637872043213e-8 3.085594512071909e-8 2.5232068989169965e-8 6.002745683538898e-8 5.181167957911932e-8
          3.8579749633158645e-8 3.350098226057317e-8 2.560768852142943e-8 1.9659945195410545e-8 1.4657025304899164e-8 4.227353167618087e-8
          3.268109008598878e-8 2.4981536955409307e-8 5.318221760334393e-8 6.239111109090843e-8 5.084422619449623e-8 5.79424263836989e-8
          7.314258151854066e-8 6.677665345020693e-8 4.933347641426603e-8 6.10698291885432e-8 5.770066740970885e-8 7.442376861424596e-8
          4.473751895450106e-8 5.15781490759067e-8 4.077838797210874e-8 4.616669321292185e-8 5.8489077613639117e-8 4.9108154990677415e-8
          4.3811353417209404e-8 5.1235726413107823e-8 4.578502280118398e-8 5.973690561009586e-8 6.619812640351734e-8 5.8207543661491125e-8
          4.414525826115352e-8 3.673600396095866e-8 6.818074815397117e-8 6.033806609069872e-8 4.620738352371192e-8 4.826099866359501e-8
          3.7747805385154996e-8 2.88683250469979e-8 2.1733167959613907e-8 5.03543793702394e-8 3.9581127671736626e-8 3.030896971805188e-8
          1.787013140993512e-8 1.347014229563708e-8 9.84307690700916e-9 6.74169605629634e-9 2.199844762916766e-8 1.6810645512115445e-8
          1.206396881680123e-8 1.004237982227786e-8 7.1966023413947165e-9 4.709752904732207e-9 3.2272790178629733e-9 1.2662915717683084e-8
          9.169603793832543e-9 5.88601561030523e-9 2.5018979753390878e-8 1.922548908337777e-8 1.3664151148185103e-8 9.49075898269389e-9
          2.62663130136812e-8 2.0107955022174687e-8 1.4315793756630394e-8 1.4551495938482328e-8 1.0593839418074972e-8 6.7310017852636746e-9
          4.665681060234737e-9 1.5242777910743627e-8 1.1114216198954492e-8 7.038753008914936e-9 9.207204228812699e-9 8.547810757343393e-9
          6.742506204355974e-9 4.456614664164753e-9 1.292612276861063e-9 2.5258243211920745e-9 1.6105535758312678e-8 1.513575964154311e-8
          1.2191950072074945e-8 2.4272278918227264e-8 2.3182756226340877e-8 1.9253525731516204e-8 8.098564224061655e-9 4.4981678902219655e-9
          1.3040650156368243e-8 7.220501847382317e-9 2.213168197230099e-9 3.463208463256769e-9 3.2086802180175374e-8 3.133973555483565e-8
          2.6976636823614876e-8 3.699553707864056e-8 3.746608394594281e-8 3.392357441412608e-8 1.8656433534504108e-8 1.0392004500081685e-8
          2.396459778367376e-8 1.34219746009289e-8 3.8060922080982895e-8 4.0254548214783534e-8 3.857247160495405e-8 3.778962393758672e-8
          4.082995039692567e-8 4.016659765539027e-8 2.7824629946937532e-8 1.5618692670276908e-8 2.924420445822823e-8 1.6423201534056936e-8
          4.91933160882754e-9 1.544823958120778e-9 2.140128131936405e-9 6.324472555196713e-9 2.7063796263254397e-9 7.351781941329954e-9
          3.117487537609022e-9 7.729095067952255e-9 3.268261883853553e-9
        </DataArray>
        <DataArray type="Float64" Name="gradient_matprop_error" format="ascii" RangeMin="0" RangeMax="0">
          0 0 0 0 0 0
          0 0 0 0 0 0
          0 0 0 0 0 0
          0 0 0 0 0 0
          0 0 0 0 0 0
          0 0 0 0 0 0
          0 0 0 0 0 0
          0 0 0 0 0 0
          0 0 0 0 0 0
          0 0 0 0 0 0
          0 0 0 0 0 0
          0 0 0 0 0 0
          0 0 0 0 0 0
          0 0 0 0 0 0
          0 0 0 0 0 0
          0 0 0 0 0 0
          0 0 0 0 0 0
          0 0 0 0 0 0
          0 0 0 0 0 0
          0 0 0 0 0 0
          0 0 0 0 0 0
          0 0 0 0 0 0
          0 0 0 0 0 0
          0 0 0 0 0 0
          0 0 0 0 0 0
          0 0 0 0 0 0
          0 0 0 0 0 0
          0 0 0 0 0 0
          0 0 0 0 0 0
          0 0 0 0 0 0
          0 0 0 0 0 0
          0 0 0 0 0 0
          0 0 0 0 0 0
          0 0 0 0 0 0
          0 0 0 0 0 0
          0 0 0 0 0 0
          0 0 0 0 0 0
          0 0 0 0 0 0
          0 0 0 0 0 0
          0 0 0 0 0 0
          0 0 0 0 0 0
          0 0 0 0 0 0
          0 0 0 0 0 0
          0 0 0 0 0 0
          0 0 0 0 0 0
          0 0 0 0 0 0
          0 0 0 0 0 0
          0 0 0 0 0 0
          0 0 0 0 0 0
          0 0 0 0 0 0
          0 0 0 0 0 0
          0 0 0 0 0 0
          0 0 0 0 0 0
          0 0 0 0 0 0
          0 0 0 0 0 0
          0 0 0 0 0 0
          0 0 0 0 0 0
          0 0 0 0 0 0
          0 0 0 0 0 0
          0 0 0 0 0 0
          0 0 0 0 0 0
          0 0 0 0 0 0
          0 0 0 0 0 0
          0 0 0 0 0 0
          0 0 0 0 0 0
          0 0 0 0 0 0
          0 0 0
        </DataArray>
        <DataArray type="Float64" Name="initial_marker" format="ascii" RangeMin="2" RangeMax="2">
          2 2 2 2 2 2
          2 2 2 2 2 2
          2 2 2 2 2 2
          2 2 2 2 2 2
          2 2 2 2 2 2
          2 2 2 2 2 2
          2 2 2 2 2 2
          2 2 2 2 2 2
          2 2 2 2 2 2
          2 2 2 2 2 2
          2 2 2 2 2 2
          2 2 2 2 2 2
          2 2 2 2 2 2
          2 2 2 2 2 2
          2 2 2 2 2 2
          2 2 2 2 2 2
          2 2 2 2 2 2
          2 2 2 2 2 2
          2 2 2 2 2 2
          2 2 2 2 2 2
          2 2 2 2 2 2
          2 2 2 2 2 2
          2 2 2 2 2 2
          2 2 2 2 2 2
          2 2 2 2 2 2
          2 2 2 2 2 2
          2 2 2 2 2 2
          2 2 2 2 2 2
          2 2 2 2 2 2
          2 2 2 2 2 2
          2 2 2 2 2 2
          2 2 2 2 2 2
          2 2 2 2 2 2
          2 2 2 2 2 2
          2 2 2 2 2 2
          2 2 2 2 2 2
          2 2 2 2 2 2
          2 2 2 2 2 2
          2 2 2 2 2 2
          2 2 2 2 2 2
          2 2 2 2 2 2
          2 2 2 2 2 2
          2 2 2 2 2 2
          2 2 2 2 2 2
          2 2 2 2 2 2
          2 2 2 2 2 2
          2 2 2 2 2 2
          2 2 2 2 2 2
          2 2 2 2 2 2
          2 2 2 2 2 2
          2 2 2 2 2 2
          2 2 2 2 2 2
          2 2 2 2 2 2
          2 2 2 2 2 2
          2 2 2 2 2 2
          2 2 2 2 2 2
          2 2 2 2 2 2
          2 2 2 2 2 2
          2 2 2 2 2 2
          2 2 2 2 2 2
          2 2 2 2 2 2
          2 2 2 2 2 2
          2 2 2 2 2 2
          2 2 2 2 2 2
          2 2 2 2 2 2
          2 2 2 2 2 2
          2 2 2
        </DataArray>
        <DataArray type="Float64" Name="markers_norefine" format="ascii" RangeMin="0" RangeMax="2">
          2 0 0 1 0 0.5
          0 0 0 0 1 0
          0 0 0 0 0 0
          0 0 0 0 2 1.25
          0.5 0 0 0 2 2
          2 2 0.5 0 2 2
          2 1 0 0 0 0
          0 0 0 0 0 0
          0 0 0 0 0.5 0
          0 0 0 0 2 1.25
          0.5 0 0 0 2 1.5
          0.5 0 0 0 0 0
          0 0 0 0 0 0
          0 0 0 0 0 0
          0 1 0.75 0.5 1.75 0.5
          0.25 0 0 0 0 1.5
          1.25 1 1 1 0 0
          0.5 0 0 0 2 2
          2 2 2 2 2 2
          1.75 1.5 2 2 2 2
          1 0 1.5 0.75 0.5 0
          0 1.25 1 0.5 2 2
          2 2 2 2 2 2
          2 2 2 2 2 2
          2 2 2 1.75 1.25 1.5
          0.3333333333333333 2 1.5 2 0 0
          0 0 0 0 0 0
          0 0 0 0 0 0
          0 0 0 0 0 0
          0 0 0 0 0 0
          0 0 0 0 0 0
          0 0 0 0 0 0
          0 0 0 0 0 0
          0 0 0 0 0 0
          0 0 0 0 0 0
          0 0 0 0 1 0.75
          0.25 0.25 0 0 0 0
          0 0 0 0 0 0
          0 0 0 0 0 0
          0 0 0 0 0 0
          0 0 0 0 0 0
          0 0 0 0 0 0
          0 0 0 0 2 1.75
          1.5 1.25 1 0.5 2 2
          2 1.75 0.5 0.5 0 0
          0.25 0 1.5 1.25 0.25 0.5
          0.25 0 0 0 0.75 0.25
          0 0 0 0 0 0
          0 0 2 2 2 2
          2 1.5 2 2 2 2
          2 1.75 1 0.75 0.75 0.25
          2 2 1 1 1 0.5
          0 0 1 0.5 0 0
          0 0 0 0 0 0
          0 0 0 0 0 0
          0 0 0 0 0 0
          0 0 0 0 0 0
          0 0 0 0 0 0
          0 0 0 0 0 0
          0 0 0 0 0 0
          0 0 0 0 0 0
          0 0 0 0 0 0
          0 0 0 0 0 0
          0 0 0 0 0 0
          0 0 0 0 0 0
          0 0 0 0 0 0
          0 0 0
        </DataArray>
        <DataArray type="Float64" Name="markers_mustrefine" format="ascii" RangeMin="2" RangeMax="2">
          2 2 2 2 2 2
          2 2 2 2 2 2
          2 2 2 2 2 2
          2 2 2 2 2 2
          2 2 2 2 2 2
          2 2 2 2 2 2
          2 2 2 2 2 2
          2 2 2 2 2 2
          2 2 2 2 2 2
          2 2 2 2 2 2
          2 2 2 2 2 2
          2 2 2 2 2 2
          2 2 2 2 2 2
          2 2 2 2 2 2
          2 2 2 2 2 2
          2 2 2 2 2 2
          2 2 2 2 2 2
          2 2 2 2 2 2
          2 2 2 2 2 2
          2 2 2 2 2 2
          2 2 2 2 2 2
          2 2 2 2 2 2
          2 2 2 2 2 2
          2 2 2 2 2 2
          2 2 2 2 2 2
          2 2 2 2 2 2
          2 2 2 2 2 2
          2 2 2 2 2 2
          2 2 2 2 2 2
          2 2 2 2 2 2
          2 2 2 2 2 2
          2 2 2 2 2 2
          2 2 2 2 2 2
          2 2 2 2 2 2
          2 2 2 2 2 2
          2 2 2 2 2 2
          2 2 2 2 2 2
          2 2 2 2 2 2
          2 2 2 2 2 2
          2 2 2 2 2 2
          2 2 2 2 2 2
          2 2 2 2 2 2
          2 2 2 2 2 2
          2 2 2 2 2 2
          2 2 2 2 2 2
          2 2 2 2 2 2
          2 2 2 2 2 2
          2 2 2 2 2 2
          2 2 2 2 2 2
          2 2 2 2 2 2
          2 2 2 2 2 2
          2 2 2 2 2 2
          2 2 2 2 2 2
          2 2 2 2 2 2
          2 2 2 2 2 2
          2 2 2 2 2 2
          2 2 2 2 2 2
          2 2 2 2 2 2
          2 2 2 2 2 2
          2 2 2 2 2 2
          2 2 2 2 2 2
          2 2 2 2 2 2
          2 2 2 2 2 2
          2 2 2 2 2 2
          2 2 2 2 2 2
          2 2 2 2 2 2
          2 2 2
        </DataArray>
        <DataArray type="Float64" Name="gradient_marker" format="ascii" RangeMin="0" RangeMax="1">
          0.5 0.75 0.5 0.5 0.75 0.75
          1 1 1 1 1 1
          0.5 0.25 0.625 0 0.5 0.5
          0.75 0.75 0.375 0.625 0 0.25
          0.625 0.625 0.375 0.625 0 0
          0.5 0.5 0.5 0.75 0 0
          0.5 0.5 0.5 0.75 0.5 0.75
          1 1 1 1 1 1
          1 1 1 1 1 1
          1 1 1 1 1 1
          1 1 1 1 1 1
          1 1 1 1 1 1
          1 1 0 1 1 1
          0 0 0.6666666666666666 0 1 1
          1 0 0 0 0 0
          0 0.5 0.5 0 0.6666666666666666 0
          0 0.5 0 0 1 1
          0 0.6666666666666666 0 1 0 0
          0 0 0 0 0.5 0.5
          0 0.5 0 0 0.5 0
          0 0 0 0 0.5 0
          0.6666666666666666 0 0.5 0 0 0
          0 0 0 0 0.5 0.5
          0 0.5 0 0 0.5 0
          0 0 0 0 0.5 0
          0.6666666666666666 0 0.5 0 1 1
          1 1 1 1 1 1
          1 1 1 1 1 1
          1 1 1 1 1 1
          1 1 1 1 1 1
          1 1 1 1 1 1
          1 1 1 1 1 1
          1 1 1 1 1 1
          1 1 1 1 1 1
          1 1 1 1 1 1
          1 1 1 1 1 1
          1 1 1 1 1 1
          1 1 1 1 1 1
          1 1 1 1 1 1
          1 1 1 1 1 1
          1 1 1 1 1 1
          1 1 1 1 1 1
          1 1 1 1 1 1
          1 1 1 1 1 1
          1 1 1 1 1 1
          1 1 1 1 1 1
          1 1 1 1 1 1
          1 1 1 1 1 1
          1 1 1 1 1 1
          1 1 1 1 1 1
          1 1 1 1 1 1
          1 1 1 1 1 1
          1 1 1 1 1 1
          1 1 1 1 1 1
          1 1 1 1 1 1
          1 1 1 1 1 1
          1 1 1 1 1 1
          1 1 1 1 1 1
          1 1 1 1 1 1
          1 1 1 1 1 1
          1 1 1 1 1 1
          1 1 1 1 1 1
          1 1 1 1 1 1
          1 1 1 1 1 1
          1 1 1 1 1 1
          1 1 1 1 1 1
          1 1 1
        </DataArray>
        <DataArray type="Float64" Name="gradient_matprop_marker" format="ascii" RangeMin="0" RangeMax="0">
          0 0 0 0 0 0
          0 0 0 0 0 0
          0 0 0 0 0 0
          0 0 0 0 0 0
          0 0 0 0 0 0
          0 0 0 0 0 0
          0 0 0 0 0 0
          0 0 0 0 0 0
          0 0 0 0 0 0
          0 0 0 0 0 0
          0 0 0 0 0 0
          0 0 0 0 0 0
          0 0 0 0 0 0
          0 0 0 0 0 0
          0 0 0 0 0 0
          0 0 0 0 0 0
          0 0 0 0 0 0
          0 0 0 0 0 0
          0 0 0 0 0 0
          0 0 0 0 0 0
          0 0 0 0 0 0
          0 0 0 0 0 0
          0 0 0 0 0 0
          0 0 0 0 0 0
          0 0 0 0 0 0
          0 0 0 0 0 0
          0 0 0 0 0 0
          0 0 0 0 0 0
          0 0 0 0 0 0
          0 0 0 0 0 0
          0 0 0 0 0 0
          0 0 0 0 0 0
          0 0 0 0 0 0
          0 0 0 0 0 0
          0 0 0 0 0 0
          0 0 0 0 0 0
          0 0 0 0 0 0
          0 0 0 0 0 0
          0 0 0 0 0 0
          0 0 0 0 0 0
          0 0 0 0 0 0
          0 0 0 0 0 0
          0 0 0 0 0 0
          0 0 0 0 0 0
          0 0 0 0 0 0
          0 0 0 0 0 0
          0 0 0 0 0 0
          0 0 0 0 0 0
          0 0 0 0 0 0
          0 0 0 0 0 0
          0 0 0 0 0 0
          0 0 0 0 0 0
          0 0 0 0 0 0
          0 0 0 0 0 0
          0 0 0 0 0 0
          0 0 0 0 0 0
          0 0 0 0 0 0
          0 0 0 0 0 0
          0 0 0 0 0 0
          0 0 0 0 0 0
          0 0 0 0 0 0
          0 0 0 0 0 0
          0 0 0 0 0 0
          0 0 0 0 0 0
          0 0 0 0 0 0
          0 0 0 0 0 0
          0 0 0
        </DataArray>
        <DataArray type="Float64" Name="combo" format="ascii" RangeMin="0" RangeMax="2">
          2 0.75 0.5 1.25 0.75 1.25
          1 1 1 1 1.5 1
          0.5 0.25 0.625 0 0.5 0.5
          0.75 0.75 0.375 0.625 2 1.5
          1 0.625 0.375 0.625 2 2
          2 2 1 0.75 2 2
          2 1.5 0.5 0.75 0.5 0.75
          1 1 1 1 1 1
          1 1 1 1 1.25 1
          1 1 1 1 2 1.625
          1.25 1 1 1 2 1.75
          1.25 1 1 1 1 1
          1 1 0 1 1 1
          0 0 0.6666666666666666 0 1 1
          1 1 0.75 0.5 1.75 0.5
          0.25 0.5 0.5 0 0.6666666666666666 1.5
          1.25 1.25 1 1 1 1
          0.5 0.6666666666666666 0 1 2 2
          2 2 2 2 2 2
          1.75 1.625 2 2 2 2
          1 0 1.5 0.75 0.875 0
          0.6666666666666666 1.25 1.25 0.5 2 2
          2 2 2 2 2 2
          2 2 2 2 2 2
          2 2 2 1.75 1.5 1.5
          1 2 1.75 2 1 1
          1 1 1 1 1 1
          1 1 1 1 1 1
          1 1 1 1 1 1
          1 1 1 1 1 1
          1 1 1 1 1 1
          1 1 1 1 1 1
          1 1 1 1 1 1
          1 1 1 1 1 1
          1 1 1 1 1 1
          1 1 1 1 1.5 1.375
          1.125 1.125 1 1 1 1
          1 1 1 1 1 1
          1 1 1 1 1 1
          1 1 1 1 1 1
          1 1 1 1 1 1
          1 1 1 1 1 1
          1 1 1 1 2 1.875
          1.75 1.625 1.5 1.25 2 2
          2 1.875 1.25 1.25 1 1
          1.125 1 1.75 1.625 1.125 1.25
          1.125 1 1 1 1.375 1.125
          1 1 1 1 1 1
          1 1 2 2 2 2
          2 1.75 2 2 2 2
          2 1.875 1.5 1.375 1.375 1.125
          2 2 1.5 1.5 1.5 1.25
          1 1 1.5 1.25 1 1
          1 1 1 1 1 1
          1 1 1 1 1 1
          1 1 1 1 1 1
          1 1 1 1 1 1
          1 1 1 1 1 1
          1 1 1 1 1 1
          1 1 1 1 1 1
          1 1 1 1 1 1
          1 1 1 1 1 1
          1 1 1 1 1 1
          1 1 1 1 1 1
          1 1 1 1 1 1
          1 1 1 1 1 1
          1 1 1
        </DataArray>
        <DataArray type="Float64" Name="dHdT" format="ascii" RangeMin="25.970281627436716" RangeMax="55.2565068882622">
          46.318973180836835 28.314468538557982 26.833469770589204 49.16772927608257 32.50978044877105 40.22478665162934
          26.31659745290799 25.970281627436716 35.13779897238946 27.651747615514747 53.892930514978474 30.700821743558063
          29.568203687565514 28.87044371320205 27.77276897616659 27.519928491696454 34.72797051972522 33.3149407415104
          33.650981547074345 32.063893845778104 30.594424537955252 29.016680064726515 50.98530230547591 45.81612887799051
          41.818951594589066 34.38289037206491 29.614906792163236 28.204327213933727 46.300997608705806 49.55731256319228
          47.511146113894114 50.13602505790857 41.16013478957059 37.11271874342184 46.32471042835404 47.83240641212684
          49.27683523992295 43.21969015448997 31.710274223193917 29.626487155704286 32.72190695610882 30.315399305281147
          26.858777785975622 26.594317231074363 26.178135903953205 26.180629956676903 31.327995691006024 29.48125394705069
          28.514634746267422 27.59084970976974 27.151066570469467 26.440963978987135 41.98579333982601 36.54845220867911
          32.21593504823194 29.718248012939153 26.711547360857026 26.211568739048964 52.812763532983055 47.1227508902945
          46.04723355198959 37.92100369957747 32.90173122636637 29.643452055402538 48.74396995468949 49.963267342674186
          41.73190514060529 34.48727862246835 27.340992713510182 26.505721816212038 27.654871123920348 26.6494191972199
          27.437182508609816 26.80978324315377 36.95724841421979 29.74372077259421 29.378614762857335 28.600716303637935
          36.57017209487154 36.2448686516393 33.99161232645228 35.919565208407064 27.789195400181335 27.09624436189829
          29.73100964598712 44.285189323711315 42.96364351216708 41.64209770062284 50.327143382011506 42.69745778345552
          41.318852446165316 40.56621419487301 39.129024239520106 39.9402471088751 36.510883102179555 50.74978199946684
          49.19493472074182 47.042248455006934 47.045923416397066 43.50968610825794 32.65233801646415 29.862635301100312
          41.23499115176749 37.368760408891944 36.6123869383774 29.058915221373123 48.612635721050424 49.755050621650085
          50.45915592215317 47.06222806602937 49.575870859490124 50.38969286576629 51.00351147830912 50.97163430309782
          49.64443589894171 48.18395911063397 46.39679516500539 47.69105409159349 49.1101916647995 49.93990053052278
          45.97054897368163 41.92025162530666 49.220815026263324 43.70628637586539 41.11527723659994 39.32721582588982
          35.2883487559242 47.545765835709126 44.941415332923846 44.19704362855429 46.32336250511567 46.307549069391705
          48.24126211177841 46.316495096116185 46.320439810241275 46.45218732255397 46.3088933504352 47.271321972211844
          48.7978335767792 49.58490572960862 46.32421048255783 46.30461899266122 46.7895999505735 48.416317270472234
          49.74737981645485 49.30397104302062 49.48454141948838 49.220705685548694 47.44037586287137 47.429679052405675
          41.04670711244256 49.52746129964244 48.3031463063327 48.50731556110502 30.552068637314726 28.023425930750996
          31.976081509085247 32.83717463491938 29.05986728184559 33.116537628799556 27.299303125339794 27.193402760411026
          26.782369707508487 26.942356029861877 26.54763805746592 26.49181933582885 26.27667443985967 26.353279197881136
          26.645452412833116 26.37394074211993 26.3736326724999 26.192203418188967 26.06490874219479 26.054859114404188
          29.170726935989066 28.869028382471093 28.20961512717649 28.003320844049618 28.198323478992407 27.512451844769554
          32.81340518523386 32.26422645050049 30.787020879120494 30.838963604311296 27.526999297273107 27.37698465041759
          27.007549793127275 26.90137899189412 27.017019259313265 26.645468867255982 29.789951948599587 29.363443037202504
          28.23545757459843 28.396684331075893 27.483864401341723 26.973516742773118 26.884751370198913 26.535543663059908
          29.12718973050498 28.122525940618647 27.761906614994665 26.62054940587332 26.36329718580833 26.302314390672397