<?xml version="1.0"?>
<VTKFile type="UnstructuredGrid" version="0.1" byte_order="LittleEndian" header_type="UInt32" compressor="vtkZLibDataCompressor">
  <UnstructuredGrid>
    <Piece NumberOfPoints="457" NumberOfCells="239">
      <PointData>
        <DataArray type="Int32" Name="libmesh_node_id" format="ascii" RangeMin="109" RangeMax="2004">
          109 110 111 112 142 143
          144 145 159 160 175 176
          192 193 208 209 210 225
          226 238 239 240 244 248
          250 251 252 253 257 258
          260 261 263 306 307 310
          311 313 314 315 316 317
          319 320 321 323 324 325
          326 327 328 329 330 331
          332 333 334 335 336 337
          338 339 340 341 342 346
          347 349 350 352 409 410
          411 412 413 414 415 416
          419 420 421 422 458 465
          495 496 497 498 499 500
          501 502 503 504 505 506
          507 508 509 510 511 512
          516 517 583 584 587 588
          590 591 592 593 594 596
          597 598 600 601 602 603
          604 605 606 607 608 609
          610 611 612 613 614 615
          616 617 618 619 620 621
          622 623 624 625 626 627
          628 629 630 631 632 633
          634 635 636 637 638 639
          640 641 642 643 644 645
          646 647 648 649 650 651
          652 653 654 655 656 657
          658 659 660 661 662 663
          664 665 666 667 668 669
          670 671 672 673 674 675
          679 680 682 683 685 686
          687 688 689 690 691 692
          693 694 695 696 697 700
          702 703 704 705 932 933
          937 940 942 943 944 945
          946 947 952 953 956 958
          960 962 963 964 965 967
          968 970 971 972 973 974
          975 976 977 978 979 980
          981 982 983 984 985 986
          987 988 989 990 991 992
          993 994 995 996 997 998
          999 1000 1001 1002 1003 1004
          1005 1006 1007 1008 1009 1010
          1011 1012 1013 1014 1015 1016
          1017 1018 1019 1020 1021 1022
          1023 1024 1025 1026 1027 1028
          1029 1030 1031 1032 1033 1034
          1035 1036 1037 1038 1039 1040
          1041 1042 1043 1044 1045 1048
          1049 1050 1052 1053 1054 1055
          1056 1057 1058 1059 1060 1061
          1062 1063 1064 1065 1066 1067
          1131 1135 1136 1138 1140 1141
          1142 1143 1144 1145 1146 1147
          1148 1149 1150 1151 1152 1153
          1798 1800 1802 1803 1805 1807
          1808 1809 1810 1811 1812 1813
          1814 1815 1816 1817 1818 1819
          1820 1821 1954 1955 1956 1957
          1958 1959 1960 1961 1962 1963
          1964 1965 1966 1967 1968 1969
          1970 1971 1972 1983 1984 1986
          1995 1996 1999 2001 2002 2004
          178 254 256 259 417 418
          177 513 514 515 518 255
          343 676 677 678 681 344
          684 345 698 699 701 351
          460 211 468 540 348 542
          547 262 550 1046 1047 1051
          755 757 762 765 1137 1189
          1190 1215 1216 1192 1219 1222
          1224 1205 1139 1235 1154 1239
          1156 1985 1997 1998 2000 1221
          2003
        </DataArray>
        <DataArray type="Float64" Name="bounds" format="ascii" RangeMin="0" RangeMax="0">
          0 0 0 0 0 0
          0 0 0 0 0 0
          0 0 0 0 0 0
          0 0 0 0 0 0
          0 0 0 0 0 0
          0 0 0 0 0 0
          0 0 0 0 0 0
          0 0 0 0 0 0
          0 0 0 0 0 0
          0 0 0 0 0 0
          0 0 0 0 0 0
          0 0 0 0 0 0
          0 0 0 0 0 0
          0 0 0 0 0 0
          0 0 0 0 0 0
          0 0 0 0 0 0
          0 0 0 0 0 0
          0 0 0 0 0 0
          0 0 0 0 0 0
          0 0 0 0 0 0
          0 0 0 0 0 0
          0 0 0 0 0 0
          0 0 0 0 0 0
          0 0 0 0 0 0
          0 0 0 0 0 0
          0 0 0 0 0 0
          0 0 0 0 0 0
          0 0 0 0 0 0
          0 0 0 0 0 0
          0 0 0 0 0 0
          0 0 0 0 0 0
          0 0 0 0 0 0
          0 0 0 0 0 0
          0 0 0 0 0 0
          0 0 0 0 0 0
          0 0 0 0 0 0
          0 0 0 0 0 0
          0 0 0 0 0 0
          0 0 0 0 0 0
          0 0 0 0 0 0
          0 0 0 0 0 0
          0 0 0 0 0 0
          0 0 0 0 0 0
          0 0 0 0 0 0
          0 0 0 0 0 0
          0 0 0 0 0 0
          0 0 0 0 0 0
          0 0 0 0 0 0
          0 0 0 0 0 0
          0 0 0 0 0 0
          0 0 0 0 0 0
          0 0 0 0 0 0
          0 0 0 0 0 0
          0 0 0 0 0 0
          0 0 0 0 0 0
          0 0 0 0 0 0
          0 0 0 0 0 0
          0 0 0 0 0 0
          0 0 0 0 0 0
          0 0 0 0 0 0
          0 0 0 0 0 0
          0 0 0 0 0 0
          0 0 0 0 0 0
          0 0 0 0 0 0
          0 0 0 0 0 0
          0 0 0 0 0 0
          0 0 0 0 0 0
          0 0 0 0 0 0
          0 0 0 0 0 0
          0 0 0 0 0 0
          0 0 0 0 0 0
          0 0 0 0 0 0
          0 0 0 0 0 0
          0 0 0 0 0 0
          0 0 0 0 0 0
          0 0 0 0 0 0
          0
        </DataArray>
        <DataArray type="Float64" Name="gradient_error" format="ascii" RangeMin="9.56254397252792e-10" RangeMax="7.012918530278069e-7">
          5.4985943189572896e-9 3.322224774073903e-9 1.7526717861522571e-9 1.110827250784393e-9 1.3871930314287556e-8 6.989144755821361e-9
          2.072206881606455e-9 2.1526227229128724e-9 7.518574456824437e-9 2.527052431032675e-9 6.179622344861948e-8 5.406276822883922e-8
          8.314601495465711e-9 2.391586442873274e-9 2.316099825158106e-7 7.025181039066237e-8 4.851284658437761e-9 2.262453746102715e-8
          1.4124948486596877e-9 7.590545168045027e-8 3.1145956416861135e-7 4.434596532771831e-7 7.870741756933285e-8 3.6093021231271834e-7
          1.4994270233105474e-8 2.3516467351839447e-8 2.3678327214933084e-7 8.562131472613816e-8 2.6557794326571504e-8 2.2801232621132355e-8
          3.7041030454135896e-7 2.723473064609095e-7 1.3608257020418597e-8 3.126240583965841e-7 5.199854467766533e-7 3.4304771420679855e-7
          5.649770970235646e-7 5.016771398003963e-7 3.906950099715206e-7 5.823433267455615e-7 5.714396089625873e-7 5.518059523930718e-7
          5.329351688311266e-7 1.943279490230051e-7 3.542453157061878e-7 4.049174622546005e-7 3.615560828577122e-7 2.791299943590845e-7
          3.352382806599435e-7 4.4948192714744803e-7 4.859688310927199e-7 1.5971813540917487e-7 5.233362011852053e-7 4.039903273415856e-7
          3.147916232603743e-7 3.624319293120452e-7 1.8126013049150754e-7 2.8593460143717004e-7 4.6807043111751186e-7 5.475221726262932e-7
          3.2287550418704196e-7 1.8755844914263085e-7 1.2115763603795053e-7 6.155639386163167e-7 4.3683454342457266e-7 6.544375198410257e-8
          1.358626645191495e-7 5.082239182085638e-7 6.458241106864707e-7 2.1295701311597026e-7 2.4874498595913897e-9 2.1248700889904775e-9
          1.1404632642682752e-8 5.760809445396763e-8 7.508949697086146e-9 6.602646794422338e-9 3.566700701169614e-8 9.56254397252792e-10
          1.7622903183895657e-9 5.6963438917585305e-9 1.3725919569424641e-8 2.0758022930388906e-9 1.7263568406654807e-9 9.628501900339378e-10
          1.6379549549155028e-8 1.4621563225792914e-8 2.5753521928520587e-8 2.0655013263232787e-7 1.6910169911963728e-7 1.2143612679021327e-7
          1.523441356776966e-7 1.3713940992487573e-8 1.309324899502089e-7 9.461996365405859e-8 1.2863576902430797e-8 7.377055446078926e-8
          9.813813872306532e-8 5.830743735790829e-8 1.4340023311290321e-8 1.0966665410041376e-8 9.014015205290571e-8 6.581382446261216e-8
          7.593307508792433e-9 4.14874968723186e-8 3.2244676826864747e-7 3.174169341441012e-7 2.518760550760115e-7 2.9587052287573604e-7
          3.4013461232419e-7 2.683159297634559e-7 3.160109754577307e-7 3.0361074368901016e-7 3.252616258375239e-7 3.483707909481714e-7
          1.784586132812902e-7 2.5447776261333494e-7 2.7151618117216697e-7 3.3287770145831674e-7 3.657246559187697e-7 3.6210114492194784e-7
          2.895407861166601e-7 3.4069869458924286e-7 3.8515106170643497e-7 3.146957622617428e-7 3.687003951287936e-7 3.4556936342990105e-7
          3.7109411947321844e-7 3.951082028531518e-7 2.1132033161610045e-7 2.934594417242327e-7 3.195248333708298e-7 3.7825450058106805e-7
          2.3407617780998382e-7 2.1378833885304555e-7 2.2031672305810516e-7 3.313767171867758e-7 3.4091672880327327e-7 3.125279022390856e-7
          3.049061133411602e-7 2.0532421839926035e-7 3.4982716516102286e-7 3.185817911328348e-7 1.5930671364553448e-7 2.3242944570489798e-7
          2.4603687115354233e-7 2.3223557987960814e-7 4.843190377581586e-7 4.6881652155303693e-7 4.3863892228479066e-7 5.023454975513475e-7
          3.824698643621948e-7 4.184447764262989e-7 4.107870236383742e-7 3.4412018643666356e-7 4.009383075551673e-7 3.79290580693282e-7
          4.3726890535530776e-7 3.842475229493252e-7 4.218277989251377e-7 4.5090853563637324e-7 2.561523967580681e-7 3.50108350173853e-7
          3.8675546976524925e-7 4.3468930739788495e-7 4.2184906915709914e-7 4.787625664568371e-7 4.732940159597989e-7 5.288570482068369e-7
          4.824760112072115e-7 5.174709760264841e-7 3.228173425944437e-7 4.3115955543272587e-7 4.848624651773882e-7 5.055644714542947e-7
          2.2092362825293974e-7 1.9573372272519808e-7 3.577193494912818e-7 3.2287769902254056e-7 1.837522096807938e-7 3.637566869333502e-7
          3.250865595052139e-7 1.3289474782817813e-7 2.2899703082419628e-7 2.234575631296323e-7 5.668492849517553e-7 5.39242297890416e-7
          5.79358316368879e-7 4.2128195220473783e-7 1.934994729892688e-7 1.6853465295739644e-7 3.6752590815368686e-7 3.2461544393438183e-7
          1.0889859598643322e-7 2.15071832189746e-7 6.69001335713361e-7 6.221949107584775e-7 4.503659610931652e-7 5.36557556584514e-7
          5.896574782682348e-7 6.105075195326187e-7 6.601584446499004e-7 5.557991281287037e-7 5.971161799185348e-7 4.339316139951413e-7
          5.508520360755206e-7 6.280211658916767e-7 5.94133665668146e-7 5.559308446414792e-7 6.702164312198048e-7 6.403893534105394e-7
          3.08790639798935e-7 5.773742625709811e-7 3.078920905980439e-7 7.012918530278069e-7 1.1845154572808893e-8 3.845563625169197e-8
          1.3056510473419746e-8 6.506611793057504e-8 4.746990136865361e-9 5.9684042751929675e-9 1.3862261134480039e-9 1.898242531344963e-9
          7.189818413520574e-9 2.4102589492419225e-9 2.463182263272917e-7 1.885589809447669e-7 1.3079973556224213e-7 1.5400430562897578e-7
          2.2679481564505082e-7 1.1628332144700817e-7 1.8243525749549192e-7 7.262114451327101e-8 1.0268442327529154e-7 3.033348130190411e-8
          2.9958532566112587e-7 2.485871935439757e-7 1.3274770203731206e-7 8.704537858207434e-8 1.4390332444361945e-7 6.690749617354301e-8
          1.1118703266502473e-7 1.3272292295459957e-8 1.3373960651499833e-8 1.2219851627590576e-8 2.007612703051646e-7 1.5546656915650643e-7
          1.347562900753971e-8 4.660355286695814e-8 7.701259942780931e-8 6.765528634019748e-9 1.0103474170780814e-8 1.0742164598866046e-7
          1.3441419707541883e-8 2.3586468545773062e-7 2.237879043518067e-7 2.2555336501559973e-7 2.9073186392005427e-7 2.997763783390252e-7
          2.800261233707247e-7 2.726584099603427e-7 2.2415973217494113e-7 3.103102234496945e-7 2.8829294935052685e-7 2.117111232458828e-7
          2.6027586840242413e-7 2.545849560006311e-7 2.6627567525135926e-7 2.7238426988382936e-7 2.662589165634135e-7 2.9534867334367537e-7
          2.8724831691208964e-7 2.788812790609661e-7 3.0445993958099277e-7 2.2501571732820755e-7 2.4036571080273967e-7 2.4146107307984203e-7
          2.4140850145152653e-7 3.1831307680352143e-7 3.0823771726076586e-7 3.3003860010101944e-7 2.557157042772718e-7 2.3728857287424773e-7
          2.2344412155219043e-7 3.2104507480579325e-7 2.9662495194622864e-7 2.0959967023013313e-7 2.7220482908666403e-7 2.851503854482648e-7
          3.135159052600789e-7 2.55474219257675e-7 3.2233838154447163e-7 2.2381674374945284e-7 2.411326413435532e-7 2.381069218335305e-7
          3.418814250718929e-7 3.5313431045649486e-7 2.5844853893765365e-7 2.399793700665309e-7 3.302346160806626e-7 2.3949595402311874e-7
          3.3614380709357404e-7 1.683330167565875e-7 2.3119327350347753e-7 2.2176574258805497e-7 3.632990671380129e-7 3.723691651055066e-7
          2.549709596384444e-7 5.1549768437194984e-8 5.974438393357789e-8 1.0047756732635106e-7 1.107988070402343e-7 2.887217782704763e-8
          5.251644998828695e-8 6.10989198982816e-8 2.1938137142447933e-7 2.2915999854058256e-7 1.1341930646622217e-7 2.3565898794259575e-7
          3.3969278727235295e-7 3.4031887390721555e-7 1.4038938230479256e-7 2.10544718239254e-7 1.9621475774454355e-7 3.797159882887004e-7
          3.8417098088015663e-7 2.389371033970086e-7 3.371671452056153e-7 1.780044256071361e-7 3.849769137777791e-7 2.0533096043135416e-7
          8.489639036794383e-8 9.264031195800406e-8 9.441570405554829e-8 9.619109615309249e-8 7.816931743024452e-8 8.222101641719963e-8
          8.627271540415471e-8 7.954564246645541e-8 6.647303248028827e-8 8.140485552468164e-8 5.656036160107182e-8 8.408538779324536e-8
          9.644420965516526e-8 1.1550453330033843e-7 3.9971311676429915e-8 6.855129861471011e-8 5.977790605045693e-8 9.669732315723802e-8
          2.5873900233478403e-7 2.8038071127788876e-7 2.3141997364164733e-7 2.5010316155619034e-7 3.0202242022099353e-7 2.687863494707334e-7
          9.483514319321515e-8 1.0641013620534203e-7 1.3881185915148224e-7 1.4487394435673506e-7 7.780715308481382e-8 1.2844030602470488e-7
          6.455735899146864e-8 9.690390256806648e-8 1.0850829424393235e-7 7.974586939484027e-8 6.813043000627379e-8 1.1988940981772992e-7
          4.1015181553647755e-8 6.982080654086675e-8 8.847847778126271e-9 9.274324257708138e-9 9.21780119848182e-9 9.494894811190572e-9
          9.161278139255503e-9 8.72846862416425e-9 8.837918735950108e-9 8.947368847735967e-9 8.827989693773947e-9 8.112042629716662e-9
          8.751952079422753e-9 7.0787221606513475e-9 8.42485544479088e-9 9.391861529128844e-9 9.770988728930414e-9 6.949761001725185e-9
          8.286102960363686e-9 7.354816078391191e-9 9.622444919002186e-9 8.912869195943867e-9 9.382611427139605e-9 9.852353658335342e-9
          6.367878083939007e-9 8.033057198541363e-9 9.69823631314372e-9 3.822886971934147e-9 6.683502969943122e-9 9.544118967952096e-9
          8.128386544495604e-9 8.660385791250787e-9 3.367030068050543e-8 8.210064208896087e-9 2.9943298582385703e-9 2.5350660756387307e-9
          6.932291962287373e-9 6.8626367555173435e-9 5.21865806425861e-8 3.75634229307884e-8 2.2940265218990688e-8 1.341560603486513e-7
          8.15027097763002e-8 1.4965011795064696e-7 3.68585419222588e-7 3.209922673963143e-7 2.0353485051046903e-7 5.214129591197526e-7
          5.614738455581499e-7 4.5909611317854487e-7 2.920060804284541e-7 4.700577208835906e-7 5.732592373189688e-7 5.430726300556314e-7
          2.185073467550387e-9 6.338374871046132e-9 2.6437900944352934e-9 2.5849193502836438e-8 8.979674902402094e-8 4.429816015050136e-8
          6.506310564624566e-9 1.4868825953435235e-7 6.274712679816627e-8 4.3672476651302706e-8 8.896322354515921e-8 4.4255861639421123e-8
          2.0598263898666321e-7 3.295124356652945e-7 1.5563839982263099e-7 3.813135637962784e-7 1.1160385188290946e-7 1.153030098264686e-7
          1.1895751260084264e-7 5.794400232877568e-8 8.883052820736991e-8 1.2371249728368634e-7 1.2377827319674322e-7 6.180293079121032e-8
          1.2298135586597435e-7 1.220366292778771e-7 1.1694980562549735e-7 1.2562464899599696e-7 1.212493013335795e-7 1.2921266871411677e-7
          1.2554879704166165e-7 9.208884525863282e-9 5.763420203858064e-9 7.657017756511728e-9 9.550615309165392e-9 3.145846791045036e-9
          6.105150987160173e-9
        </DataArray>
        <DataArray type="Float64" Name="gradient_matprop_error" format="ascii" RangeMin="0" RangeMax="0">
          0 0 0 0 0 0
          0 0 0 0 0 0
          0 0 0 0 0 0
          0 0 0 0 0 0
          0 0 0 0 0 0
          0 0 0 0 0 0
          0 0 0 0 0 0
          0 0 0 0 0 0
          0 0 0 0 0 0
          0 0 0 0 0 0
          0 0 0 0 0 0
          0 0 0 0 0 0
          0 0 0 0 0 0
          0 0 0 0 0 0
          0 0 0 0 0 0
          0 0 0 0 0 0
          0 0 0 0 0 0
          0 0 0 0 0 0
          0 0 0 0 0 0
          0 0 0 0 0 0
          0 0 0 0 0 0
          0 0 0 0 0 0
          0 0 0 0 0 0
          0 0 0 0 0 0
          0 0 0 0 0 0
          0 0 0 0 0 0
          0 0 0 0 0 0
          0 0 0 0 0 0
          0 0 0 0 0 0
          0 0 0 0 0 0
          0 0 0 0 0 0
          0 0 0 0 0 0
          0 0 0 0 0 0
          0 0 0 0 0 0
          0 0 0 0 0 0
          0 0 0 0 0 0
          0 0 0 0 0 0
          0 0 0 0 0 0
          0 0 0 0 0 0
          0 0 0 0 0 0
          0 0 0 0 0 0
          0 0 0 0 0 0
          0 0 0 0 0 0
          0 0 0 0 0 0
          0 0 0 0 0 0
          0 0 0 0 0 0
          0 0 0 0 0 0
          0 0 0 0 0 0
          0 0 0 0 0 0
          0 0 0 0 0 0
          0 0 0 0 0 0
          0 0 0 0 0 0
          0 0 0 0 0 0
          0 0 0 0 0 0
          0 0 0 0 0 0
          0 0 0 0 0 0
          0 0 0 0 0 0
          0 0 0 0 0 0
          0 0 0 0 0 0
          0 0 0 0 0 0
          0 0 0 0 0 0
          0 0 0 0 0 0
          0 0 0 0 0 0
          0 0 0 0 0 0
          0 0 0 0 0 0
          0 0 0 0 0 0
          0 0 0 0 0 0
          0 0 0 0 0 0
          0 0 0 0 0 0
          0 0 0 0 0 0
          0 0 0 0 0 0
          0 0 0 0 0 0
          0 0 0 0 0 0
          0 0 0 0 0 0
          0 0 0 0 0 0
          0 0 0 0 0 0
          0
        </DataArray>
        <DataArray type="Float64" Name="initial_marker" format="ascii" RangeMin="0" RangeMax="2">
          0 0 0 0 0 0
          0 0 0 0 0 0
          0 0 2 0 2 0
          0 0 0 0 0 0
          0 0 0 0 0 0
          2 0 0 0 0 0.5
          0 0 1 0.25 0 0
          0 2 0 1 0 0
          0 1.5 0.5 0 2 0.5
          0 0 0 2 1 1
          0 0 0 2 0.75 0
          0 2 1 0 0 0
          0 0 0 0 0 0
          0 0 0 0 0 0
          0 0 0 0 0 0
          0 0 0 0 0 0
          0 0 0 0 0 0
          0 0 0 0 1 0.5
          0.25 1.5 0.75 0 0 0
          2 1 1 0 1 0.5
          2 1.25 0.75 2 1.75 0
          0.25 0.75 2 1.5 2 0.5
          0 0 0 0.5 1 0.5
          0.25 0 1 0.5 0 0
          0 0 2 1.5 1.25 1.5
          0.5 1 1 2 2 2
          2 0.6666666666666666 1 1 2 2
          2 1 2 2 2 2
          1 1 2 2 2 1
          0 0 1 0.5 0 1
          0.75 0 0 0.25 2 1.5
          1.75 0.5 0 0 1 1
          0 0.5 2 2 1 2
          2 2 2 1 1 2
          2 2 1 2 2 1
          2 2 2 1 0 0
          0 0 0 0 0 0
          0 0 0 0 0 0
          0 0 0 0 0 0
          0 0 0 0 0 0
          0 0 0 0 0 0
          0 0 0 0 0 0
          0 0 0 0 0 0
          0 0 0 0 0 0
          0 0 0 0 0 0
          0 0 0 0 0 0
          0 0 0 0 0 0
          0 0 0 0 0 0
          0 0 0 0 0 0
          0 0 0 0 0 0
          0 0 0 0 0 0
          0 0 0 0 0 0
          0 0 0 0 0 0
          0 0 0 0 0 0
          0 0 0 0 0 0
          2 2 2 2 2 2
          2 2 2 2 2 2
          2 2 2 2 2 2
          0 0 0 0 0 0
          0 0 0 0 0 0
          0 0 0 0 0 0
          0 0 2 2 2 2
          2 2 2 2 2 2
          2 2 2 2 2 2
          2 2 2 2 2 2
          2 2 2 2 2 2
          0 0 0 0 0 0
          0 0 0 0 0 0
          0 0 1 1 0.5 2
          2 1 2 2 1 1
          0 0 0 0 0 0
          0 0 0 0 0 0
          0 0 0 0 2 2
          2 2 2 2 2 2
          2 2 2 2 2 2
          2 2 2 2 2 2
          2
        </DataArray>
        <DataArray type="Float64" Name="markers_norefine" format="ascii" RangeMin="0" RangeMax="2">
          0 0 0 0 0 0
          0 0 0 0 0 0
          0 0 0 0 2 0
          0 0 0 0 0 0
          0 0 0 0 0 0
          0 0 0 0 0 0
          0 0 0 0 0 0
          0 0 0 0 0 0
          0 0 0 0 0 0
          0 0 0 0 0 0
          0 0 0 0 0 0
          0 0 0 0 0 0
          0 0 0 0 0 0
          0 0 0 0 0 0
          0 0 0 0 0 0
          0 0 0 0 0 0
          0 0 0 0 0 0
          0 0 0 0 0 0
          0 0 0 0 0 0
          0 0 0 0 0 0
          0 0 0 0 0 0
          0 0 0 0 0 0
          0 0 0 0 0 0
          0 0 0 0 0 0
          0 0 0 0 0 0
          0 0 0 0 0 0
          0 0 0 0 0 0
          0 0 0 0 0 0
          0 0 0 0 0 0
          0 0 0 0 0 0
          0 0 0 0 0 0
          0 0 0 0 0 0
          0 0 0 0 0 0
          0 0 0 0 0 0
          0 0 0 0 0 0
          0 0 0 0 0 0
          0 0 0 0 0 0
          0 0 0 0 0 0
          0 0 0 0 0 0
          0 0 0 0 0 0
          0 0 0 0 0 0
          0 0 0 0 0 0
          0 0 0 0 0 0
          0 0 0 0 0 0
          0 0 0 0 0 0
          0 0 0 0 0 0
          0 0 0 0 0 0
          0 0 0 0 0 0
          0 0 0 0 0 0
          0 0 0 0 0 0
          0 0 0 0 0 0
          0 0 0 0 0 0
          0 0 0 0 0 0
          0 0 0 0 0 0
          0 0 0 0 0 0
          0 0 0 0 0 0
          0 0 0 0 0.5 0
          0 0 0 0 0.5 0
          0 0 0 0 0 0
          0 0 0 0 0 0
          0 0 0 0 0 0
          0 0 0 0 0 0.5
          0 0 0 0 0 0.5
          0.25 1.5 1 0 0.5 1
          0.5 1.5 0 2 1 0
          2 1.5 1 2 2 2
          0 0 0 0 0 0
          0 0 0 0 0 0
          0 0 0 0 0 0
          0 0 0 0 0 0
          0 0 0 0 0 0
          0 0 0 0 0 0
          0 0 0 0 0 0
          0 1 0.25 0 0 1
          0 0 0 0 0 0
          0 1.5 2 1.75 1.5 2
          2
        </DataArray>
        <DataArray type="Float64" Name="markers_mustrefine" format="ascii" RangeMin="0" RangeMax="2">
          0 0 0 0 0 0
          0 0 0 0 0 0
          0 0 2 0 2 0
          0 0 0 0 0 0
          0 0 0 0 0 0
          2 0 0 0 0 0.5
          0 0 1 0.25 0 0
          0 2 0 1 0 0
          0 1.5 0.5 0 2 0.5
          0 0 0 2 1 1
          0 0 0 2 0.75 0
          0 2 1 0 0 0
          0 0 0 0 0 0
          0 0 0 0 0 0
          0 0 0 0 0 0
          0 0 0 0 0 0
          0 0 0 0 0 0
          0 0 0 0 1 0.5
          0.25 1.5 0.75 0 0 0
          2 1 1 0 1 0.5
          2 1.25 0.75 2 1.75 0
          0.25 0.75 2 1.5 2 0.5
          0 0 0 0.5 1 0.5
          0.25 0 1 0.5 0 0
          0 0 2 1.5 1.25 1.5
          0.5 1 1 2 2 2
          2 0.6666666666666666 1 1 2 2
          2 1 2 2 2 2
          1 1 2 2 2 1
          0 0 1 0.5 0 1
          0.75 0 0 0.25 2 1.5
          1.75 0.5 0 0 1 1
          0 0.5 2 2 1 2
          2 2 2 1 1 2
          2 2 1 2 2 1
          2 2 2 1 0 0
          0 0 0 0 0 0
          0 0 0 0 0 0
          0 0 0 0 0 0
          0 0 0 0 0 0
          0 0 0 0 0 0
          0 0 0 0 0 0
          0 0 0 0 0 0
          0 0 0 0 0 0
          0 0 0 0 0 0
          0 0 0 0 0 0
          0 0 0 0 0 0
          0 0 0 0 0 0
          0 0 0 0 0 0
          0 0 0 0 0 0
          0 0 0 0 0 0
          0 0 0 0 0 0
          0 0 0 0 0 0
          0 0 0 0 0 0
          0 0 0 0 0 0
          2 2 2 2 2 2
          2 2 2 2 2 2
          2 2 2 2 2 2
          0 0 0 0 0 0
          0 0 0 0 0 0
          0 0 0 0 0 0
          0 0 2 2 2 2
          2 2 2 2 2 2
          2 2 2 2 2 2
          2 2 2 2 2 2
          2 2 2 2 2 2
          0 0 0 0 0 0
          0 0 0 0 0 0
          0 0 1 1 0.5 2
          2 1 2 2 1 1
          0 0 0 0 0 0
          0 0 0 0 0 0
          0 0 0 0 2 2
          2 2 2 2 2 2
          2 2 2 2 2 2
          2 2 2 2 2 2
          2
        </DataArray>
        <DataArray type="Float64" Name="gradient_marker" format="ascii" RangeMin="0" RangeMax="1">
          1 1 1 1 1 1
          1 1 1 1 1 1
          1 1 1 1 0 1
          1 1 1 1 1 1
          1 1 1 0.75 1 1
          1 1 1 1 1 1
          1 1 1 1 1 1
          1 1 1 1 1 1
          1 1 1 0.75 1 1
          0.8333333333333334 1 0.75 1 1 1
          1 1 0.75 1 1 0.6666666666666666
          0.75 1 1 1 1 1
          1 1 1 1 1 1
          1 1 1 1 1 1
          1 1 1 1 1 1
          1 1 1 1 1 1
          1 1 1 1 1 1
          1 1 1 1 1 1
          1 1 1 1 1 1
          1 1 1 1 1 1
          1 1 1 1 1 1
          1 1 1 1 1 1
          1 1 1 1 1 1
          1 1 1 1 0.75 0.875
          1 0.75 1 1 1 1
          1 1 1 1 1 1
          1 1 1 1 1 1
          1 1 1 1 1 1
          1 1 1 1 1 1
          1 1 1 1 1 1
          1 0.5 0.75 0.75 1 1
          1 1 1 1 1 1
          0.5 0.75 1 1 1 1
          1 1 1 1 1 1
          1 1 1 0.75 0.875 1
          0.5 0.75 0.5 1 1 1
          1 1 1 1 1 1
          1 1 1 1 1 1
          1 1 1 1 1 1
          1 1 1 1 1 1
          1 1 1 1 1 1
          1 1 1 1 1 1
          1 1 1 1 1 1
          1 1 1 1 1 1
          1 1 1 1 1 1
          1 1 1 1 1 1
          1 1 1 1 1 1
          1 1 1 1 1 1
          1 1 1 1 1 1
          1 1 1 0.875 1 0.75
          1 0.75 1 1 1 1
          1 0 0 0.25 0.25 0
          0 0 0.75 0.75 0.5 0.75
          1 1 0.5 1 1 1
          1 1 1 1 1 1
          0 0 0 0 0 0
          0 0 0 0 0 0
          0 0.16666666666666666 0 0 0 0
          1 1 1 1 1 1
          0.25 0.5 0.5 0.75 0 0.25
          0 0.25 0.5 0 0 0.25
          0 0 0 0 0 0
          0 0 0 0 0 0
          0 0 0 0 0 0
          0 0 0 0 0 0
          0 0 0 0 0 0
          1 1 0.75 1 1 1
          1 1 1 1 1 1
          0.625 0.75 1 0.875 0.625 0.75
          0.875 1 0.25 0.5 0.875 0.75
          1 1 1 1 0.625 1
          1 1 1 0 0.25 0
          0.625 0.875 0.75 1 0 0.25
          0.375 0 0.125 0.5 0.5 0
          0.5 0.25 0 0.5 0.25 0.75
          0.5 0 0 0 0 0
          0
        </DataArray>
        <DataArray type="Float64" Name="gradient_matprop_marker" format="ascii" RangeMin="0" RangeMax="0">
          0 0 0 0 0 0
          0 0 0 0 0 0
          0 0 0 0 0 0
          0 0 0 0 0 0
          0 0 0 0 0 0
          0 0 0 0 0 0
          0 0 0 0 0 0
          0 0 0 0 0 0
          0 0 0 0 0 0
          0 0 0 0 0 0
          0 0 0 0 0 0
          0 0 0 0 0 0
          0 0 0 0 0 0
          0 0 0 0 0 0
          0 0 0 0 0 0
          0 0 0 0 0 0
          0 0 0 0 0 0
          0 0 0 0 0 0
          0 0 0 0 0 0
          0 0 0 0 0 0
          0 0 0 0 0 0
          0 0 0 0 0 0
          0 0 0 0 0 0
          0 0 0 0 0 0
          0 0 0 0 0 0
          0 0 0 0 0 0
          0 0 0 0 0 0
          0 0 0 0 0 0
          0 0 0 0 0 0
          0 0 0 0 0 0
          0 0 0 0 0 0
          0 0 0 0 0 0
          0 0 0 0 0 0
          0 0 0 0 0 0
          0 0 0 0 0 0
          0 0 0 0 0 0
          0 0 0 0 0 0
          0 0 0 0 0 0
          0 0 0 0 0 0
          0 0 0 0 0 0
          0 0 0 0 0 0
          0 0 0 0 0 0
          0 0 0 0 0 0
          0 0 0 0 0 0
          0 0 0 0 0 0
          0 0 0 0 0 0
          0 0 0 0 0 0
          0 0 0 0 0 0
          0 0 0 0 0 0
          0 0 0 0 0 0
          0 0 0 0 0 0
          0 0 0 0 0 0
          0 0 0 0 0 0
          0 0 0 0 0 0
          0 0 0 0 0 0
          0 0 0 0 0 0
          0 0 0 0 0 0
          0 0 0 0 0 0
          0 0 0 0 0 0
          0 0 0 0 0 0
          0 0 0 0 0 0
          0 0 0 0 0 0
          0 0 0 0 0 0
          0 0 0 0 0 0
          0 0 0 0 0 0
          0 0 0 0 0 0
          0 0 0 0 0 0
          0 0 0 0 0 0
          0 0 0 0 0 0
          0 0 0 0 0 0
          0 0 0 0 0 0
          0 0 0 0 0 0
          0 0 0 0 0 0
          0 0 0 0 0 0
          0 0 0 0 0 0
          0 0 0 0 0 0
          0
        </DataArray>
        <DataArray type="Float64" Name="combo" format="ascii" RangeMin="0" RangeMax="2">
          1 1 1 1 1 1
          1 1 1 1 1 1
          1 1 1 1 2 1
          1 1 1 1 1 1
          1 1 1 0.75 1 1
          1 1 1 1 1 1
          1 1 1 1 1 1
          1 1 1 1 1 1
          1 1 1 0.75 1 1
          0.8333333333333334 1 0.75 1 1 1
          1 1 0.75 1 1 0.6666666666666666
          0.75 1 1 1 1 1
          1 1 1 1 1 1
          1 1 1 1 1 1
          1 1 1 1 1 1
          1 1 1 1 1 1
          1 1 1 1 1 1
          1 1 1 1 1 1
          1 1 1 1 1 1
          1 1 1 1 1 1
          1 1 1 1 1 1
          1 1 1 1 1 1
          1 1 1 1 1 1
          1 1 1 1 0.75 0.875
          1 0.75 1 1 1 1
          1 1 1 1 1 1
          1 1 1 1 1 1
          1 1 1 1 1 1
          1 1 1 1 1 1
          1 1 1 1 1 1
          1 0.5 0.75 0.75 1 1
          1 1 1 1 1 1
          0.5 0.75 1 1 1 1
          1 1 1 1 1 1
          1 1 1 0.75 0.875 1
          0.5 0.75 0.5 1 1 1
          1 1 1 1 1 1
          1 1 1 1 1 1
          1 1 1 1 1 1
          1 1 1 1 1 1
          1 1 1 1 1 1
          1 1 1 1 1 1
          1 1 1 1 1 1
          1 1 1 1 1 1
          1 1 1 1 1 1
          1 1 1 1 1 1
          1 1 1 1 1 1
          1 1 1 1 1 1
          1 1 1 1 1 1
          1 1 1 0.875 1 0.75
          1 0.75 1 1 1 1
          1 0 0 0.25 0.25 0
          0 0 0.75 0.75 0.5 0.75
          1 1 0.5 1 1 1
          1 1 1 1 1 1
          0 0 0 0 0 0
          0 0 0 0 0.5 0
          0 0.16666666666666666 0 0 0.5 0
          1 1 1 1 1 1
          0.25 0.5 0.5 0.75 0 0.25
          0 0.25 0.5 0 0 0.25
          0 0 0 0 0 0.5
          0 0 0 0 0 0.5
          0.25 1.5 1 0 0.5 1
          0.5 1.5 0 2 1 0
          2 1.5 1 2 2 2
          1 1 0.75 1 1 1
          1 1 1 1 1 1
          0.625 0.75 1 0.875 0.625 0.75
          0.875 1 0.25 0.5 0.875 0.75
          1 1 1 1 0.625 1
          1 1 1 0 0.25 0
          0.625 0.875 0.75 1 0 0.25
          0.375 1 0.375 0.5 0.5 1
          0.5 0.25 0 0.5 0.25 0.75
          0.5 1.5 2 1.75 1.5 2
          2
        </DataArray>
        <DataArray type="Float64" Name="dHdT" format="ascii" RangeMin="25.790266346199598" RangeMax="139.12232920233004">
          25.811290475995584 25.811356429553083 25.811388489598933 25.811409705038717 25.812597091279294 25.811540600143914
          25.811243599277994 25.81143629067883 25.811562214424796 25.811474166120867 25.794866949077143 25.816115825679248
          25.81173277829665 25.811497655369394 37.86496345949908 25.799180682866226 102.33094385343003 25.813850143836287
          25.8113723521706 25.814057743936402 27.204383431097654 26.3053551957944 25.814955330942986 27.356842249027014
          25.799825710232927 25.812222247714935 26.850896419737644 25.947593325797275 25.813875603495266 25.812597590525776
          36.78537476069995 26.94587129581989 25.80117633920575 27.354912956440483 26.945229577375947 34.508185941712874
          30.753230929233652 26.814604946086753 34.61744467951319 30.74598986058943 26.566800440684542 27.018252612202783