<?xml version="1.0"?>
<VTKFile type="UnstructuredGrid" version="0.1" byte_order="LittleEndian" header_type="UInt32" compressor="vtkZLibDataCompressor">
  <UnstructuredGrid>
    <Piece NumberOfPoints="1191" NumberOfCells="745">
      <PointData>
        <DataArray type="Int32" Name="libmesh_node_id" format="ascii" RangeMin="0" RangeMax="11970">
          0 1 2 3 4 5
          6 7 8 9 10 11
          12 13 14 15 16 17
          18 19 20 21 22 23
          24 25 26 27 28 29
          30 31 32 33 34 35
          36 37 38 39 120 121
          122 123 124 125 126 127
          128 129 130 131 132 133
          134 135 136 137 138 139
          180 181 182 183 184 185
          186 187 188 189 190 191
          192 193 194 195 196 197
          198 199 240 241 242 243
          244 245 246 247 248 249
          250 251 252 253 254 255
          256 257 258 259 300 301
          302 303 304 305 306 307
          308 309 330 331 332 333
          334 335 336 337 338 339
          360 361 362 363 364 365
          366 367 368 369 370 371
          372 373 374 375 376 377
          378 379 420 421 422 423
          424 425 426 427 428 429
          450 451 452 453 454 455
          456 457 458 459 480 481
          482 483 484 485 486 487
          488 489 490 491 492 493
          494 495 496 497 498 499
          540 541 542 543 544 545
          546 547 548 549 570 571
          572 573 574 575 576 577
          578 579 600 601 602 603
          604 605 606 607 608 609
          610 611 612 613 614 615
          616 617 618 619 660 661
          662 663 664 665 666 667
          668 669 690 691 692 693
          694 695 696 697 698 699
          720 721 722 723 724 725
          726 727 728 729 730 731
          732 733 734 735 736 737
          738 739 780 781 782 783
          784 785 786 787 788 789
          810 811 812 813 814 815
          816 817 818 819 840 841
          842 843 844 845 846 847
          848 849 850 851 852 853
          854 855 856 857 858 859
          860 861 900 901 902 903
          904 905 906 907 908 909
          910 930 931 932 933 934
          935 936 937 938 939 940
          960 961 962 963 964 965
          966 967 968 969 970 971
          972 973 974 975 976 977
          978 979 980 981 1020 1021
          1022 1023 1024 1025 1026 1027
          1028 1029 1030 1050 1051 1052
          1053 1054 1055 1056 1057 1058
          1059 1060 1080 1081 1082 1083
          1084 1085 1086 1087 1088 1089
          1090 1091 1092 1093 1094 1095
          1096 1097 1098 1099 1100 1101
          1140 1141 1142 1143 1144 1145
          1146 1147 1148 1149 1150 1170
          1171 1172 1173 1174 1175 1176
          1177 1178 1179 1180 1200 1201
          1202 1203 1204 1205 1206 1207
          1208 1209 1210 1211 1212 1213
          1214 1215 1216 1217 1218 1219
          1220 1221 1260 1261 1262 1263
          1264 1265 1266 1267 1268 1269
          1270 1290 1291 1292 1293 1294
          1295 1296 1297 1298 1299 1300
          1320 1321 1322 1323 1324 1325
          1326 1327 1328 1329 1330 1331
          1332 1333 1334 1335 1336 1337
          1338 1339 1340 1341 1380 1381
          1382 1383 1384 1385 1386 1387
          1388 1389 1390 1410 1411 1412
          1413 1414 1415 1416 1417 1418
          1419 1420 1440 1441 1442 1443
          1444 1445 1446 1447 1448 1449
          1450 1451 1452 1453 1454 1455
          1456 1457 1458 1459 1460 1461
          1462 1463 1500 1501 1502 1503
          1504 1505 1506 1507 1508 1509
          1510 1511 1530 1531 1532 1533
          1534 1535 1536 1537 1538 1539
          1540 1541 1560 1561 1562 1563
          1564 1565 1566 1567 1568 1569
          1570 1571 1572 1573 1574 1575
          1576 1577 1578 1579 1580 1581
          1582 1583 1620 1621 1622 1623
          1624 1625 1626 1627 1628 1629
          1630 1631 1650 1651 1652 1653
          1654 1655 1656 1657 1658 1659
          1660 1661 1680 1681 1682 1683
          1684 1685 1686 1687 1688 1689
          1690 1691 1692 1693 1694 1695
          1696 1697 1698 1699 1700 1701
          1702 1703 1740 1741 1742 1743
          1744 1745 1746 1747 1748 1749
          1750 1751 1770 1771 1772 1773
          1774 1775 1776 1777 1778 1779
          1780 1781 1800 1801 1802 1803
          1804 1805 1806 1807 1808 1809
          1810 1811 1812 1813 1814 1815
          1816 1817 1818 1819 1820 1821
          1822 1823 1860 1861 1862 1863
          1864 1865 1866 1867 1868 1869
          1870 1871 1890 1891 1892 1893
          1894 1895 1896 1897 1898 1899
          1900 1901 1920 1921 1922 1923
          1924 1925 1926 1927 1928 1929
          1930 1931 1932 1933 1934 1935
          1936 1937 1938 1939 1940 1941
          1942 1943 1980 1981 1982 1983
          1984 1985 1986 1987 1988 1989
          1990 1991 2010 2011 2012 2013
          2014 2015 2016 2017 2018 2019
          2020 2021 2040 2041 2042 2043
          2044 2045 2046 2047 2048 2049
          2050 2051 2052 2053 2054 2055
          2056 2057 2058 2059 2060 2061
          2062 2063 2100 2101 2102 2103
          2104 2105 2106 2107 2108 2109
          2110 2111 2130 2131 2132 2133
          2134 2135 2136 2137 2138 2139
          2140 2141 2160 2161 2162 2163
          2164 2165 2166 2167 2168 2169
          2170 2171 2172 2173 2174 2175
          2176 2177 2178 2179 2180 2181
          2182 2183 2220 2221 2222 2223
          2224 2225 2226 2227 2228 2229
          2230 2231 2250 2251 2252 2253
          2254 2255 2256 2257 2258 2259
          2260 2261 2280 2281 2282 2283
          2284 2285 2286 2287 2288 2289
          2290 2291 2292 2293 2294 2295
          2296 2297 2298 2299 2300 2301
          2302 2303 2340 2341 2342 2343
          2344 2345 2346 2347 2348 2349
          2350 2351 2370 2371 2372 2373
          2374 2375 2376 2377 2378 2379
          2380 2381 11575 11576 11577 11578
          11579 11580 11581 11582 11583 11584
          11585 11586 11587 11588 11589 11590
          11591 11592 11593 11594 11595 11596
          11597 11598 11599 11600 11601 11602
          11603 11604 11605 11606 11607 11608
          11609 11610 11611 11612 11613 11614
          11615 11616 11617 11618 11619 11620
          11621 11622 11623 11624 11625 11626
          11627 11628 11629 11630 11631 11632
          11633 11634 11635 11646 11647 11648
          11649 11650 11651 11652 11653 11654
          11655 11656 11657 11658 11659 11660
          11661 11662 11663 11664 11665 11666
          11667 11668 11669 11670 11671 11672
          11673 11674 11675 11676 11677 11678
          11679 11680 11681 11682 11683 11684
          11685 11686 11687 11688 11689 11690
          11691 11692 11693 11694 11695 11696
          11697 11698 11699 11700 11701 11702
          11703 11704 11705 11706 11707 11708
          11709 11710 11711 11712 11713 11714
          11715 11716 11717 11718 11719 11720
          11721 11722 11723 11724 11725 11726
          11727 11728 11729 11730 11731 11732
          11733 11734 11735 11736 11737 11738
          11739 11740 11741 11742 11743 11744
          11745 11746 11747 11748 11749 11750
          11751 11752 11753 11754 11755 11756
          11757 11758 11759 11760 11761 11762
          11763 11764 11765 11766 11767 11768
          11769 11770 11771 11772 11773 11774
          11775 11776 11777 11778 11779 11780
          11781 11782 11783 11784 11785 11786
          11787 11867 11868 11869 11870 11871
          11872 11873 11874 11875 11876 11877
          11878 11879 11880 11881 11882 11883
          11884 11885 11886 11887 11888 11889
          11890 11891 11892 11893 11894 11895
          11896 11897 11898 11899 11900 11901
          11902 11903 11904 11905 11906 11907
          11908 11909 11910 11911 11912 11913
          11914 11915 11916 11917 11918 11919
          11920 11921 11922 11923 11924 11925
          11926 11927 11928 11929 11930 11931
          11932 11933 11934 11935 11936 11937
          11938 11939 11940 11941 11942 11943
          11944 11945 11946 11947 11948 11949
          11950 11951 11952 11953 11954 11955
          11956 11957 11958 11959 11960 11961
          11962 11963 11964 11965 11966 11967
          11968 11969 11970
        </DataArray>
        <DataArray type="Float64" Name="bounds" format="ascii" RangeMin="0" RangeMax="0">
          0 0 0 0 0 0
          0 0 0 0 0 0
          0 0 0 0 0 0
          0 0 0 0 0 0
          0 0 0 0 0 0
          0 0 0 0 0 0
          0 0 0 0 0 0
          0 0 0 0 0 0
          0 0 0 0 0 0
          0 0 0 0 0 0
          0 0 0 0 0 0
          0 0 0 0 0 0
          0 0 0 0 0 0
          0 0 0 0 0 0
          0 0 0 0 0 0
          0 0 0 0 0 0
          0 0 0 0 0 0
          0 0 0 0 0 0
          0 0 0 0 0 0
          0 0 0 0 0 0
          0 0 0 0 0 0
          0 0 0 0 0 0
          0 0 0 0 0 0
          0 0 0 0 0 0
          0 0 0 0 0 0
          0 0 0 0 0 0
          0 0 0 0 0 0
          0 0 0 0 0 0
          0 0 0 0 0 0
          0 0 0 0 0 0
          0 0 0 0 0 0
          0 0 0 0 0 0
          0 0 0 0 0 0
          0 0 0 0 0 0
          0 0 0 0 0 0
          0 0 0 0 0 0
          0 0 0 0 0 0
          0 0 0 0 0 0
          0 0 0 0 0 0
          0 0 0 0 0 0
          0 0 0 0 0 0
          0 0 0 0 0 0
          0 0 0 0 0 0
          0 0 0 0 0 0
          0 0 0 0 0 0
          0 0 0 0 0 0
          0 0 0 0 0 0
          0 0 0 0 0 0
          0 0 0 0 0 0
          0 0 0 0 0 0
          0 0 0 0 0 0
          0 0 0 0 0 0
          0 0 0 0 0 0
          0 0 0 0 0 0
          0 0 0 0 0 0
          0 0 0 0 0 0
          0 0 0 0 0 0
          0 0 0 0 0 0
          0 0 0 0 0 0
          0 0 0 0 0 0
          0 0 0 0 0 0
          0 0 0 0 0 0
          0 0 0 0 0 0
          0 0 0 0 0 0
          0 0 0 0 0 0
          0 0 0 0 0 0
          0 0 0 0 0 0
          0 0 0 0 0 0
          0 0 0 0 0 0
          0 0 0 0 0 0
          0 0 0 0 0 0
          0 0 0 0 0 0
          0 0 0 0 0 0
          0 0 0 0 0 0
          0 0 0 0 0 0
          0 0 0 0 0 0
          0 0 0 0 0 0
          0 0 0 0 0 0
          0 0 0 0 0 0
          0 0 0 0 0 0
          0 0 0 0 0 0
          0 0 0 0 0 0
          0 0 0 0 0 0
          0 0 0 0 0 0
          0 0 0 0 0 0
          0 0 0 0 0 0
          0 0 0 0 0 0
          0 0 0 0 0 0
          0 0 0 0 0 0
          0 0 0 0 0 0
          0 0 0 0 0 0
          0 0 0 0 0 0
          0 0 0 0 0 0
          0 0 0 0 0 0
          0 0 0 0 0 0
          0 0 0 0 0 0
          0 0 0 0 0 0
          0 0 0 0 0 0
          0 0 0 0 0 0
          0 0 0 0 0 0
          0 0 0 0 0 0
          0 0 0 0 0 0
          0 0 0 0 0 0
          0 0 0 0 0 0
          0 0 0 0 0 0
          0 0 0 0 0 0
          0 0 0 0 0 0
          0 0 0 0 0 0
          0 0 0 0 0 0
          0 0 0 0 0 0
          0 0 0 0 0 0
          0 0 0 0 0 0
          0 0 0 0 0 0
          0 0 0 0 0 0
          0 0 0 0 0 0
          0 0 0 0 0 0
          0 0 0 0 0 0
          0 0 0 0 0 0
          0 0 0 0 0 0
          0 0 0 0 0 0
          0 0 0 0 0 0
          0 0 0 0 0 0
          0 0 0 0 0 0
          0 0 0 0 0 0
          0 0 0 0 0 0
          0 0 0 0 0 0
          0 0 0 0 0 0
          0 0 0 0 0 0
          0 0 0 0 0 0
          0 0 0 0 0 0
          0 0 0 0 0 0
          0 0 0 0 0 0
          0 0 0 0 0 0
          0 0 0 0 0 0
          0 0 0 0 0 0
          0 0 0 0 0 0
          0 0 0 0 0 0
          0 0 0 0 0 0
          0 0 0 0 0 0
          0 0 0 0 0 0
          0 0 0 0 0 0
          0 0 0 0 0 0
          0 0 0 0 0 0
          0 0 0 0 0 0
          0 0 0 0 0 0
          0 0 0 0 0 0
          0 0 0 0 0 0
          0 0 0 0 0 0
          0 0 0 0 0 0
          0 0 0 0 0 0
          0 0 0 0 0 0
          0 0 0 0 0 0
          0 0 0 0 0 0
          0 0 0 0 0 0
          0 0 0 0 0 0
          0 0 0 0 0 0
          0 0 0 0 0 0
          0 0 0 0 0 0
          0 0 0 0 0 0
          0 0 0 0 0 0
          0 0 0 0 0 0
          0 0 0 0 0 0
          0 0 0 0 0 0
          0 0 0 0 0 0
          0 0 0 0 0 0
          0 0 0 0 0 0
          0 0 0 0 0 0
          0 0 0 0 0 0
          0 0 0 0 0 0
          0 0 0 0 0 0
          0 0 0 0 0 0
          0 0 0 0 0 0
          0 0 0 0 0 0
          0 0 0 0 0 0
          0 0 0 0 0 0
          0 0 0 0 0 0
          0 0 0 0 0 0
          0 0 0 0 0 0
          0 0 0 0 0 0
          0 0 0 0 0 0
          0 0 0 0 0 0
          0 0 0 0 0 0
          0 0 0 0 0 0
          0 0 0 0 0 0
          0 0 0 0 0 0
          0 0 0 0 0 0
          0 0 0 0 0 0
          0 0 0 0 0 0
          0 0 0 0 0 0
          0 0 0 0 0 0
          0 0 0 0 0 0
          0 0 0 0 0 0
          0 0 0 0 0 0
          0 0 0 0 0 0
          0 0 0 0 0 0
          0 0 0 0 0 0
          0 0 0 0 0 0
          0 0 0 0 0 0
          0 0 0
        </DataArray>
        <DataArray type="Float64" Name="gradient_error" format="ascii" RangeMin="3.219995495538098e-16" RangeMax="1.8084005095101674e-7">
          3.7566462602134746e-16 3.7560938764397236e-16 3.7548566402560217e-16 3.7550921524168514e-16 3.745588368634707e-16 3.746888956869406e-16
          3.750339144751068e-16 3.749769118686549e-16 3.754849324171144e-16 3.7543384668402207e-16 3.7497925957951344e-16 3.7515898440274133e-16
          3.755768610950421e-16 3.7549855355835413e-16 3.7483827422857786e-16 3.7505339218789702e-16 3.758589028430422e-16 3.7566150506351864e-16
          3.743290820136118e-16 3.7476015897016134e-16 3.7587957831651145e-16 3.756817802287869e-16 3.7437146059858035e-16 3.747697985348304e-16
          3.756942673288375e-16 3.7558631910151245e-16 3.7483652575630464e-16 3.7501768814494645e-16 3.7549520208903597e-16 3.754752975802251e-16
          3.7530607606728186e-16 3.752842778754956e-16 3.752657580254117e-16 3.753409359528449e-16 3.7579572656667775e-16 3.7557447090531397e-16
          3.7507654275072796e-16 3.752267884109779e-16 3.7615906827167898e-16 3.7579730782846315e-16 3.7537089230708146e-16 3.753672523254751e-16
          3.7540203677841633e-16 3.754095298808101e-16 3.7538065249203357e-16 3.7538232222212535e-16 3.7539837923009926e-16 3.753482726943504e-16
          3.7541913974475247e-16 3.7531087220980654e-16 3.754296266468218e-16 3.752967022699886e-16 3.754288653601273e-16 3.7530638967939424e-16
          3.754201696690472e-16 3.7533153509913245e-16 3.7540375146806163e-16 3.7537002293659657e-16 3.7538604624176133e-16 3.754074899010849e-16
          3.7537984420693094e-16 3.7538070018892737e-16 3.754251402935598e-16 3.754240728877812e-16 3.753785440331374e-16 3.754259352182814e-16
          3.753765124385323e-16 3.7542803524148455e-16 3.7537417220550995e-16 3.754305084929022e-16 3.7537527115258126e-16 3.7542526806889664e-16
          3.753793598460673e-16 3.7541392882520034e-16 3.7538494626668006e-16 3.7540059051455567e-16 3.753913890558452e-16 3.7538683062924304e-16
          3.7539505841229486e-16 3.753794324169226e-16 3.798369507855833e-16 3.792399912456048e-16 3.775428831901505e-16 3.778193228946311e-16
          3.779185746168319e-16 3.76935963942181e-16 3.781435791432795e-16 3.7714648207714217e-16 3.796245718225654e-16 3.779864200312543e-16
          3.7901221870858344e-16 3.7767214793167064e-16 3.7691453984111894e-16 3.765172874280563e-16 3.749714253842589e-16 3.753906175399875e-16
          3.7317847702806387e-16 3.7430840752699034e-16 3.720483509621433e-16 3.7359302280892273e-16 3.7552994126906245e-16 3.755076565044308e-16
          3.755874322322383e-16 3.75688265527818e-16 3.7579067439094797e-16 3.757989987701063e-16 3.7571904804932767e-16 3.75591606277029e-16
          3.75431753253379e-16 3.7529323446304165e-16 3.752141074034288e-16 3.7521361800518265e-16 3.7522151119694653e-16 3.7522714604463126e-16
          3.752330805419528e-16 3.752659203854548e-16 3.753180610836617e-16 3.753734028583419e-16 3.7542516848084115e-16 3.754487742703811e-16
          3.539477848490704e-16 3.565762644251726e-16 3.6427093565983233e-16 3.629867739425767e-16 3.625251852976309e-16 3.671742438087432e-16
          3.633162829602907e-16 3.673822195420786e-16 3.5956209273760543e-16 3.6534046805826947e-16 3.632643935209977e-16 3.674196868419503e-16
          3.724243405582797e-16 3.725669463747418e-16 3.806572816694084e-16 3.7739579459512655e-16 3.874896313556324e-16 3.8158133657597994e-16
          3.909405482164637e-16 3.838714163502514e-16 3.741059438151875e-16 3.741478483813965e-16 3.739944088029219e-16 3.737657353148225e-16
          3.735606233525679e-16 3.736999145692773e-16 3.741486056829136e-16 3.7474689713583355e-16 3.7542008115344513e-16 3.7594947915411123e-16
          3.7624628073588276e-16 3.762699337267099e-16 3.7616551528598833e-16 3.760833145057786e-16 3.760024033262024e-16 3.7582484897565167e-16
          3.755876591746232e-16 3.753594867508224e-16 3.751671205105627e-16 3.750966738241833e-16 4.863314032397678e-16 4.709437714284052e-16
          4.3535135630212203e-16 4.433707047776479e-16 4.375441291008627e-16 4.17835121752497e-16 4.283933677633799e-16 4.12815714209046e-16
          4.3814752011793676e-16 4.1719817496796967e-16 4.1550048964322667e-16 4.0365146058667763e-16 3.75993805050775e-16 3.805180573978694e-16
          3.483651514864069e-16 3.633631910310221e-16 3.3014498573814185e-16 3.513093817706634e-16 3.232273980903411e-16 3.460122495244964e-16
          3.8574515344251725e-16 3.8599259799836994e-16 3.8516209441690636e-16 3.849754530948743e-16 3.8473949910140204e-16 3.829431698192842e-16
          3.8007871246201363e-16 3.772045516538712e-16 3.746172234643378e-16 3.728553267760584e-16 3.7173136570919555e-16 3.7157518968121184e-16
          3.721980744296814e-16 3.727128455350365e-16 3.7323016838480155e-16 3.740839081084398e-16 3.751151151790633e-16 3.760478727321049e-16
          3.767606691254908e-16 3.769135525934651e-16 7.875574705360435e-16 6.766653613915268e-16 5.361374582854136e-16 5.965372555607517e-16
          4.578005968271826e-16 4.145469812234119e-16 3.8790889203189667e-16 3.696471728750572e-16 4.3087715226618373e-16 3.87362443627699e-16
          4.356842509714569e-16 3.890543873059197e-16 5.117856221675932e-16 4.329028897412983e-16 6.447077134780948e-16 5.125228455565254e-16
          7.228660838594775e-16 5.656987126475136e-16 7.206834091226491e-16 5.720677351273038e-16 3.9332375632264094e-16 3.988632442353044e-16
          3.7963876433007705e-16 3.6811374753146914e-16 3.629682194464762e-16 3.604490698665566e-16 3.643677520653077e-16 3.7608802099084916e-16
          3.8924144811678404e-16 3.9656193502161807e-16 3.910379574659814e-16 3.9220944788514873e-16 3.8798416304051293e-16 3.8484204134472054e-16
          3.8208870390373834e-16 3.7847361609273067e-16 3.7471534681561214e-16 3.718380643467425e-16 3.699515547980182e-16 3.6967180891127775e-16
          3.1798609783079744e-15 2.6900452774024535e-15 1.9957846746182562e-15 2.278961421248272e-15 1.6863814970627458e-15 1.4013304228032042e-15
          1.212356569992918e-15 1.0749634877534955e-15 1.2040929770593966e-15 9.969458523903632e-16 1.0823695649755102e-15 8.449284994444151e-16
          1.3915864130786556e-15 9.269982573007533e-16 2.0616366639323276e-15 1.2630254731276587e-15 2.409334028461188e-15 1.4863474277347258e-15
          2.263433000899721e-15 1.4337249176390715e-15 8.134467560253958e-16 8.500307068711897e-16 7.265844478059693e-16 6.444127707182674e-16
          5.777754310688842e-16 4.970292954588241e-16 4.3556381950335884e-16 4.446410206952903e-16 4.977218594105817e-16 5.137479770588249e-16
          3.25369440216732e-16 3.219995495538098e-16 3.3688954706827637e-16 3.512551359224614e-16 3.6575213441643856e-16 3.865711570043279e-16
          4.08717537483867e-16 4.248677590675908e-16 4.3208289181290007e-16 4.234791197392275e-16 1.1632232616515823e-14 9.668839958040034e-15
          7.376736342791799e-15 8.581270018467218e-15 6.199930958274406e-15 5.1086536740412784e-15 4.375873016644746e-15 3.6597330560451084e-15
          3.988505054468495e-15 3.0139732101117364e-15 5.160881813230129e-15 3.213398924044317e-15 7.923619539341343e-15 4.563807590817955e-15
          1.020729206858661e-14 5.993778641980812e-15 1.072219336963187e-14 6.498075114189825e-15 9.185281410776557e-15 5.745384615423141e-15
          5.941313697929799e-15 3.839880589245955e-15 2.8185838231038638e-15 3.0488908748380973e-15 2.2738586503009904e-15 1.7268836170027872e-15
          1.2714653731172473e-15 9.132922936645885e-16 9.263679713335533e-16 1.2420559164362669e-15 1.4885787336254811e-15 1.4516622652170334e-15
          1.0844327126880637e-15 5.525349186641652e-16 5.674743292575813e-16 5.303409107938285e-16 5.101741385601036e-16 5.034893804795158e-16
          5.60668552470672e-16 6.487403003725409e-16 7.0384661749752e-16 7.032006085031825e-16 5.978367103643418e-16 4.3041794481401626e-16
          3.6113114620093977e-14 3.02499006542913e-14 2.4780044993707835e-14 2.883041416887794e-14 2.4445477413770472e-14 1.9247319445694522e-14
          2.244467630382977e-14 1.5627021944080744e-14 2.0814174081621375e-14 1.3075501987887427e-14 2.94555459172835e-14 1.7082035294740754e-14
          4.2555568194045255e-14 2.4735115285931176e-14 4.840588506709672e-14 2.8979419347200735e-14 4.6127563105239836e-14 2.8476755375425436e-14
          3.586397044120438e-14 2.2928949839771044e-14 2.072137684459519e-14 1.381570053454973e-14 1.0449709577731205e-14 1.1538834614383213e-14
          7.919828826493067e-15 5.3620571420597686e-15 3.6351607389716476e-15 3.4394449336085914e-15 4.686678891674091e-15 6.049193390949363e-15
          6.611959659897208e-15 5.9253369953366195e-15 3.994263414665354e-15 1.5892298223380431e-15 1.5299555111045314e-15 1.7904961753675683e-15
          1.9147466997878205e-15 1.9334915837898163e-15 2.17036519501917e-15 2.4586954055310804e-15 2.5454331545939586e-15 2.3979716741833845e-15
          1.856744752335537e-15 1.0785026048264352e-15 9.355209215360403e-14 1.015531182061093e-13 8.110583394886644e-14 8.206460376555696e-14
          1.354151442736037e-13 8.712612786625345e-14 1.5426734734903047e-13 8.812080217407262e-14 1.461713282555339e-13 8.350745124857059e-14
          1.7478381394807987e-13 1.0327990304740981e-13 2.1504517821142525e-13 1.2951293597695044e-13 2.1902049517609567e-13 1.350496265679826e-13
          1.8962239529848142e-13 1.2053463140285049e-13 1.321673152180774e-13 8.7859657527727e-14 7.263337112983581e-14 5.0272726512198195e-14
          3.4477840504209383e-14 3.927431331806919e-14 2.4018958309652524e-14 1.576563728583085e-14 1.5066179479690816e-14 2.079065338104759e-14
          2.7194202403305516e-14 3.059260142194202e-14 3.0168545761364915e-14 2.4922739252687037e-14 1.556234395650006e-14 8.29713131679519e-15
          7.97151125862845e-15 9.200805160401841e-15 9.5570175725469e-15 9.288784717774305e-15 9.805314615355445e-15 1.0407711064135403e-14
          1.010644488401448e-14 8.890224015510286e-15 6.293478667997465e-15 3.212606018439532e-15 5.387806342297751e-13 6.592080087528676e-13
          3.9706295281388615e-13 3.496733279808721e-13 9.143960579943843e-13 5.12248832866708e-13 1.0004381358141319e-12 5.640033123406126e-13
          9.10355615622827e-13 5.387910516851254e-13 9.451617851356747e-13 5.799675300412799e-13 1.0151977856571039e-12 6.320555616670054e-13
          9.343963505121076e-13 5.943268328904931e-13 7.290172807303534e-13 4.804661281199551e-13 4.489686187736812e-13 3.1457256497041105e-13
          2.824552956573964e-13 1.9387538785294961e-13 8.894102574539085e-14 1.0144698561642598e-13 7.741966915266394e-14 8.582091989922251e-14
          1.0436162763884734e-13 1.2840614027658737e-13 1.4571551996334478e-13 1.4671041531641607e-13 1.3200034891045535e-13 1.0060929431446388e-13
          5.887317475029135e-14 4.296415461587717e-14 4.232794950088279e-14 4.473773056629603e-14 4.4073350931351624e-14 4.1496767530270844e-14
          4.203900560628957e-14 4.25177022497828e-14 3.916351536395381e-14 3.2085722311353964e-14 2.1042077461786965e-14 1.245086945207991e-14
          4.484300229804733e-12 4.947427000137442e-12 2.8009095573950554e-12 2.530392714406422e-12 5.7945153519285675e-12 3.3265291055025495e-12
          5.7804583775939056e-12 3.4191682962733523e-12 4.977199671113865e-12 3.0765272028130474e-12 4.629154339735447e-12 2.9442407704696635e-12
          4.42740507644413e-12 2.8503561380041235e-12 3.6655834147060816e-12 2.4187615422953936e-12 2.5189337583480463e-12 1.746282368402938e-12
          1.4754239099665447e-12 1.080871761172004e-12 1.4286224878537145e-12 8.946841249033014e-13 4.199069855854525e-13 3.801231258907712e-13
          5.242361551382373e-13 6.212841330642272e-13 6.731195317737301e-13 7.119837409392528e-13 7.152889975152379e-13 6.536105009178145e-13
          5.373344134537645e-13 3.7723972987695724e-13 2.1301734466849447e-13 1.8542185651823598e-13 1.8376105277343188e-13 1.899294511999439e-13
          1.8469005117565506e-13 1.703843290352297e-13 1.6464028067462538e-13 1.5727079546635794e-13 1.3528133195092345e-13 1.01037848449699e-13
          6.815984737645154e-14 6.528892738410071e-14 3.026157135583493e-11 3.127268899873634e-11 1.8626591171600335e-11 1.7951572778210292e-11
          3.252738485483357e-11 1.958977940386174e-11 2.991218313786068e-11 1.8436290643580296e-11 2.413494481464731e-11 1.54500465914791e-11
          2.0233304425591067e-11 1.3321484578761777e-11 1.7207246228044093e-11 1.1514901406656115e-11 1.2468799923214535e-11 8.665270271471863e-12
          7.580961745696621e-12 5.609656813134727e-12 6.135309676828139e-12 4.191728933709098e-12 9.246547286976066e-12 5.213610620666194e-12
          1.3632936987550352e-11 7.314134149730579e-12 3.356115443654903e-12 3.1866762122433952e-12 3.691384094434607e-12 3.825380804917553e-12
          3.690134354466652e-12 3.4860071370000905e-12 3.162422237002978e-12 2.6318792371254563e-12 1.9707945300323165e-12 1.2772692930270006e-12
          8.023623522274104e-13 7.475455819766573e-13 7.317375428454719e-13 7.317782239011325e-13 7.305942359792967e-13 6.903634605351966e-13
          6.151203406224133e-13 5.623495420676902e-13 5.022878887378136e-13 4.0201785452171815e-13 3.0323717949180016e-13 3.063903954639445e-13
          4.2405075009849954e-13 4.997598520425078e-13 1.6889651650168541e-10 1.679417182782467e-10 1.0399114770428396e-10 1.044271712590986e-10
          1.6080877725044048e-10 1.0018281227565626e-10 1.366561037018532e-10 8.680770945304635e-11 1.0090542537021441e-10 6.667928951045677e-11
          7.416627246135289e-11 5.0936299106208785e-11 5.3930381176637293e-11 3.827888505062505e-11 3.40085744162833e-11 2.5383773188375535e-11
          2.8585741745126847e-11 1.9645672601376397e-11 4.219966861796798e-11 2.416262595000931e-11 6.184778491337458e-11 3.370336965958032e-11
          7.643671590717432e-11 4.1894240417317726e-11 2.1330795223533023e-11 2.129994470373218e-11 2.1056372493181307e-11 1.9680126024216228e-11
          1.730975404854985e-11 1.4817792141599716e-11 1.2163494762989753e-11 9.151705007959772e-12 6.174712588350694e-12 4.131924578448921e-12
          4.147594975521937e-12 5.115739766095008e-12 2.621013316744819e-12 2.6420633909526116e-12 2.555897685490529e-12 2.400936844192919e-12
          2.1663544464005645e-12 1.9292585321347544e-12 1.6996006013667022e-12 1.5444380554517676e-12 1.6438217190754444e-12 2.1382658748472e-12
          2.7362355452578122e-12 2.8797146047288816e-12 7.82703099006404e-10 7.550870253119472e-10 4.769882007709323e-10 4.938952433206582e-10
          6.698298922901478e-10 4.255727615599095e-10 5.133863116059428e-10 3.334080259449843e-10 3.2168264692749204e-10 2.2092809608083195e-10
          1.86291660714724e-10 1.3787407609626639e-10 1.3501022974604343e-10 9.842091906063714e-11 1.5710706409937184e-10 9.782285099614022e-11
          2.3493232613551224e-10 1.3182733791271182e-10 3.24646837741181e-10 1.7950793261553382e-10 3.9215314530967433e-10 2.19288604663548e-10
          4.209774043786709e-10 2.3696816992286104e-10 1.0536339771805851e-10 1.0853584671471464e-10 9.638286390365458e-11 8.236056679113684e-11
          6.577100473854823e-11 5.0256078666206225e-11 3.632486559699598e-11 2.492561625961762e-11 2.0631765024671675e-11 2.4458001210493528e-11
          3.131588645832551e-11 3.432873711183952e-11 1.1837419206199495e-11 1.1984305794516902e-11 1.1450096977638018e-11 1.1291393298247806e-11
          1.1368464242924555e-11 1.1055665854603607e-11 1.081812281876111e-11 1.1312594626326622e-11 1.2541180359431971e-11 1.4546974931100465e-11
          1.620770889922935e-11 1.569853875662784e-11 2.6638271740155515e-9 2.4661747616617844e-9 1.5487193696286438e-9 1.6699547765361295e-9
          1.9287244551003006e-9 1.2225388690412482e-9 1.2254373110539254e-9 7.979612793141584e-10 8.268404581983547e-10 5.39061887423495e-10
          9.402624407377218e-10 5.755695852155015e-10 1.270309651799572e-9 7.512633964560039e-10 1.6492380209684505e-9 9.596068912688348e-10
          2.009852124127323e-9 1.1601549501161578e-9 2.269899402976487e-9 1.3097851929487502e-9 2.371763795606514e-9 1.3721825946019022e-9
          2.2913812380347605e-9 1.323655622683591e-9 3.495319455799049e-10 3.7184253373882776e-10 2.923248759038258e-10 2.208255466960444e-10
          1.6326021158582786e-10 1.4347941444438742e-10 1.5423558380817463e-10 1.7435947975631307e-10 1.9650115911922043e-10 2.1852905331311649e-10
          2.3094081611245915e-10 2.1888194703786917e-10 6.779991356430667e-11 6.76026884209482e-11 6.8296468825456e-11 7.11658458176974e-11
          7.523710652302051e-11 7.608209919549381e-11 7.625402650391316e-11 7.874319794340711e-11 8.254454213344896e-11 8.73871237052199e-11
          8.928023862762831e-11 8.183388674331671e-11 3.3357400228444777e-9 3.84725155999472e-9 3.1105202791970555e-9 2.8164826104265795e-9
          5.304996002505661e-9 3.9330721985844105e-9 7.62326681006595e-9 5.208618478359384e-9 1.0241565676042421e-8 6.624567451854471e-9
          1.220301517975596e-8 7.67520727811049e-9 1.3464355296929178e-8 8.339403273950131e-9 1.4365246209400718e-8 8.786124634071909e-9
          1.4823017362650339e-8 8.965716073797666e-9 1.4711353337443131e-8 8.820196930446716e-9 1.3904302272536997e-8 8.286647279487852e-9