<?xml version="1.0"?>
<VTKFile type="UnstructuredGrid" version="0.1" byte_order="LittleEndian" header_type="UInt32" compressor="vtkZLibDataCompressor">
  <UnstructuredGrid>
    <Piece NumberOfPoints="1328" NumberOfCells="773">
      <PointData>
        <DataArray type="Int32" Name="libmesh_node_id" format="ascii" RangeMin="72" RangeMax="5216">
          72 73 74 75 76 77
          78 79 80 81 82 83
          84 85 86 87 88 89
          90 91 92 93 94 95
          96 97 98 99 100 101
          102 103 104 105 106 107
          108 109 110 111 112 113
          114 115 116 117 118 119
          156 157 158 159 160 161
          162 163 164 165 166 167
          168 169 170 171 172 173
          174 175 176 177 178 179
          216 217 218 219 220 221
          222 223 224 225 226 227
          228 229 230 231 232 233
          234 235 236 237 238 239
          276 277 278 279 280 281
          282 283 284 285 286 287
          288 289 290 291 292 293
          294 295 296 297 298 299
          318 319 320 321 322 323
          324 325 326 327 328 329
          348 349 350 351 352 353
          354 355 356 357 358 359
          398 399 400 401 402 403
          404 405 406 407 408 409
          410 411 412 413 414 415
          416 417 418 419 439 440
          441 442 443 444 445 446
          447 448 449 469 470 471
          472 473 474 475 476 477
          478 479 518 519 520 521
          522 523 524 525 526 527
          528 529 530 531 532 533
          534 535 536 537 538 539
          559 560 561 562 563 564
          565 566 567 568 569 589
          590 591 592 593 594 595
          596 597 598 599 638 639
          640 641 642 643 644 645
          646 647 648 649 650 651
          652 653 654 655 656 657
          658 659 679 680 681 682
          683 684 685 686 687 688
          689 709 710 711 712 713
          714 715 716 717 718 719
          758 759 760 761 762 763
          764 765 766 767 768 769
          770 771 772 773 774 775
          776 777 778 779 799 800
          801 802 803 804 805 806
          807 808 809 829 830 831
          832 833 834 835 836 837
          838 839 878 879 880 881
          882 883 884 885 886 887
          888 889 890 891 892 893
          894 895 896 897 898 899
          919 920 921 922 923 924
          925 926 927 928 929 949
          950 951 952 953 954 955
          956 957 958 959 998 999
          1000 1001 1002 1003 1004 1005
          1006 1007 1008 1009 1010 1011
          1012 1013 1014 1015 1016 1017
          1018 1019 1039 1040 1041 1042
          1043 1044 1045 1046 1047 1048
          1049 1069 1070 1071 1072 1073
          1074 1075 1076 1077 1078 1079
          1114 1115 1116 1117 1118 1119
          1120 1121 1122 1123 1124 1125
          1126 1127 1128 1129 1130 1131
          1132 1133 1134 1135 1136 1137
          1138 1139 1157 1158 1159 1160
          1161 1162 1163 1164 1165 1166
          1167 1168 1169 1187 1188 1189
          1190 1191 1192 1193 1194 1195
          1196 1197 1198 1199 1234 1235
          1236 1237 1238 1239 1240 1241
          1242 1243 1244 1245 1246 1247
          1248 1249 1250 1251 1252 1253
          1254 1255 1256 1257 1258 1259
          1277 1278 1279 1280 1281 1282
          1283 1284 1285 1286 1287 1288
          1289 1307 1308 1309 1310 1311
          1312 1313 1314 1315 1316 1317
          1318 1319 1354 1355 1356 1357
          1358 1359 1360 1361 1362 1363
          1364 1365 1366 1367 1368 1369
          1370 1371 1372 1373 1374 1375
          1376 1377 1378 1379 1397 1398
          1399 1400 1401 1402 1403 1404
          1405 1406 1407 1408 1409 1427
          1428 1429 1430 1431 1432 1433
          1434 1435 1436 1437 1438 1439
          1474 1475 1476 1477 1478 1479
          1480 1481 1482 1483 1484 1485
          1486 1487 1488 1489 1490 1491
          1492 1493 1494 1495 1496 1497
          1498 1499 1517 1518 1519 1520
          1521 1522 1523 1524 1525 1526
          1527 1528 1529 1547 1548 1549
          1550 1551 1552 1553 1554 1555
          1556 1557 1558 1559 1594 1595
          1596 1597 1598 1599 1600 1601
          1602 1603 1604 1605 1606 1607
          1608 1609 1610 1611 1612 1613
          1614 1615 1616 1617 1618 1619
          1637 1638 1639 1640 1641 1642
          1643 1644 1645 1646 1647 1648
          1649 1667 1668 1669 1670 1671
          1672 1673 1674 1675 1676 1677
          1678 1679 1714 1715 1716 1717
          1718 1719 1720 1721 1722 1723
          1724 1725 1726 1727 1728 1729
          1730 1731 1732 1733 1734 1735
          1736 1737 1738 1739 1757 1758
          1759 1760 1761 1762 1763 1764
          1765 1766 1767 1768 1769 1787
          1788 1789 1790 1791 1792 1793
          1794 1795 1796 1797 1798 1799
          1834 1835 1836 1837 1838 1839
          1840 1841 1842 1843 1844 1845
          1846 1847 1848 1849 1850 1851
          1852 1853 1854 1855 1856 1857
          1858 1859 1877 1878 1879 1880
          1881 1882 1883 1884 1885 1886
          1887 1888 1889 1907 1908 1909
          1910 1911 1912 1913 1914 1915
          1916 1917 1918 1919 1962 1963
          1964 1965 1966 1967 1968 1969
          1970 1971 1972 1973 1974 1975
          1976 1977 1978 1979 2001 2002
          2003 2004 2005 2006 2007 2008
          2009 2031 2032 2033 2034 2035
          2036 2037 2038 2039 2082 2083
          2084 2085 2086 2087 2088 2089
          2090 2091 2092 2093 2094 2095
          2096 2097 2098 2099 2121 2122
          2123 2124 2125 2126 2127 2128
          2129 2151 2152 2153 2154 2155
          2156 2157 2158 2159 2202 2203
          2204 2205 2206 2207 2208 2209
          2210 2211 2212 2213 2214 2215
          2216 2217 2218 2219 2241 2242
          2243 2244 2245 2246 2247 2248
          2249 2271 2272 2273 2274 2275
          2276 2277 2278 2279 2323 2325
          2326 2327 2328 2329 2330 2331
          2332 2333 2334 2335 2336 2337
          2338 2339 2361 2362 2363 2364
          2365 2366 2367 2368 2369 2391
          2392 2393 2394 2395 2396 2397
          2398 2399 2433 2434 2437 2442
          2447 2448 2449 2450 2451 2452
          2453 2454 2455 2456 2459 2460
          2475 2476 2477 2478 2479 2480
          2481 2482 2483 2484 2485 2486
          2487 2488 2505 2506 2507 2509
          2511 2513 2514 2515 2516 2517
          2518 2519 2520 2521 2522 2648
          2652 2660 2663 2670 2671 2674
          2675 2676 2677 2678 2679 2684
          2686 2687 2688 2689 2690 2692
          2693 2724 2725 2726 2727 2728
          2729 2730 2731 2732 2733 2734
          2735 2736 2737 2738 2739 2740
          2741 2742 2743 2744 2745 2746
          2747 3134 3136 3143 3147 3151
          3153 3154 3155 3156 3157 3159
          3160 3205 3206 3207 3208 3209
          3210 3211 3212 3213 3214 3215
          3216 3217 3218 3219 3220 3221
          3222 3223 3224 3269 3270 3273
          3276 3279 3280 3283 3286 3289
          3291 3293 3296 3298 3299 3300
          3301 3302 3303 3304 3305 3306
          3307 3308 3309 3310 3311 3312
          3313 3314 3315 3316 3317 3318
          3319 3320 3321 3322 3361 3363
          3364 3365 3366 3367 3369 3370
          3582 3584 3586 3587 3588 3613
          3614 3615 3618 3623 3633 3634
          3635 3636 3637 3638 3639 3640
          3641 3642 3643 3644 3645 3646
          3649 3652 3653 3656 3658 3660
          3661 3662 3663 3664 3665 3666
          3667 3668 3669 3673 5065 5066
          5067 5068 5069 5070 5071 5072
          5073 5074 5092 5093 5094 5095
          5096 5097 5098 5099 5100 5101
          5102 5103 5104 5105 5106 5107
          5108 5119 5120 5121 5122 5123
          5124 5125 5126 5127 5128 5146
          5148 5150 5151 5152 5155 5156
          5157 5158 5159 5160 5161 5162
          5163 5164 5165 5166 5167 5168
          5169 5170 5171 5172 5173 5175
          5177 5178 5179 5187 5189 5190
          5191 5192 5193 5195 5196 5197
          5198 5199 5200 5201 5202 5203
          5204 5205 5206 5207 5208 5209
          5210 5211 5212 5213 5214 5215
          5216 1956 1958 1959 1957 1960
          1961 1999 1998 2000 2029 2028
          2030 2080 2081 2120 2150 2201
          2240 2270 2360 2390 2440 2503
          2441 2504 2493 2494 2508 2498
          2510 2512 2646 2650 2647 2649
          2651 2685 2691 3199 3200 3201
          3204 2200 2423 3253 3254 3271
          3272 3255 3274 3275 3277 3258
          3278 3281 3282 3284 3285 3287
          3288 3263 3290 3264 3292 3294
          3268 3295 3297 2629 2439 2638
          3353 2642 3362 3354 3357 2655
          3368 3359 3548 3577 3543 3549
          3583 3578 3550 3585 3581 3047
          3055 3059 3057 3591 3051 3060
          5147 3592 3061 5149 3595 3597
          5153 5154 3624 5174 3625 5176
          3161 3165 3163 3166 5188 3167
          3170 5194
        </DataArray>
        <DataArray type="Float64" Name="bounds" format="ascii" RangeMin="0" RangeMax="0">
          0 0 0 0 0 0
          0 0 0 0 0 0
          0 0 0 0 0 0
          0 0 0 0 0 0
          0 0 0 0 0 0
          0 0 0 0 0 0
          0 0 0 0 0 0
          0 0 0 0 0 0
          0 0 0 0 0 0
          0 0 0 0 0 0
          0 0 0 0 0 0
          0 0 0 0 0 0
          0 0 0 0 0 0
          0 0 0 0 0 0
          0 0 0 0 0 0
          0 0 0 0 0 0
          0 0 0 0 0 0
          0 0 0 0 0 0
          0 0 0 0 0 0
          0 0 0 0 0 0
          0 0 0 0 0 0
          0 0 0 0 0 0
          0 0 0 0 0 0
          0 0 0 0 0 0
          0 0 0 0 0 0
          0 0 0 0 0 0
          0 0 0 0 0 0
          0 0 0 0 0 0
          0 0 0 0 0 0
          0 0 0 0 0 0
          0 0 0 0 0 0
          0 0 0 0 0 0
          0 0 0 0 0 0
          0 0 0 0 0 0
          0 0 0 0 0 0
          0 0 0 0 0 0
          0 0 0 0 0 0
          0 0 0 0 0 0
          0 0 0 0 0 0
          0 0 0 0 0 0
          0 0 0 0 0 0
          0 0 0 0 0 0
          0 0 0 0 0 0
          0 0 0 0 0 0
          0 0 0 0 0 0
          0 0 0 0 0 0
          0 0 0 0 0 0
          0 0 0 0 0 0
          0 0 0 0 0 0
          0 0 0 0 0 0
          0 0 0 0 0 0
          0 0 0 0 0 0
          0 0 0 0 0 0
          0 0 0 0 0 0
          0 0 0 0 0 0
          0 0 0 0 0 0
          0 0 0 0 0 0
          0 0 0 0 0 0
          0 0 0 0 0 0
          0 0 0 0 0 0
          0 0 0 0 0 0
          0 0 0 0 0 0
          0 0 0 0 0 0
          0 0 0 0 0 0
          0 0 0 0 0 0
          0 0 0 0 0 0
          0 0 0 0 0 0
          0 0 0 0 0 0
          0 0 0 0 0 0
          0 0 0 0 0 0
          0 0 0 0 0 0
          0 0 0 0 0 0
          0 0 0 0 0 0
          0 0 0 0 0 0
          0 0 0 0 0 0
          0 0 0 0 0 0
          0 0 0 0 0 0
          0 0 0 0 0 0
          0 0 0 0 0 0
          0 0 0 0 0 0
          0 0 0 0 0 0
          0 0 0 0 0 0
          0 0 0 0 0 0
          0 0 0 0 0 0
          0 0 0 0 0 0
          0 0 0 0 0 0
          0 0 0 0 0 0
          0 0 0 0 0 0
          0 0 0 0 0 0
          0 0 0 0 0 0
          0 0 0 0 0 0
          0 0 0 0 0 0
          0 0 0 0 0 0
          0 0 0 0 0 0
          0 0 0 0 0 0
          0 0 0 0 0 0
          0 0 0 0 0 0
          0 0 0 0 0 0
          0 0 0 0 0 0
          0 0 0 0 0 0
          0 0 0 0 0 0
          0 0 0 0 0 0
          0 0 0 0 0 0
          0 0 0 0 0 0
          0 0 0 0 0 0
          0 0 0 0 0 0
          0 0 0 0 0 0
          0 0 0 0 0 0
          0 0 0 0 0 0
          0 0 0 0 0 0
          0 0 0 0 0 0
          0 0 0 0 0 0
          0 0 0 0 0 0
          0 0 0 0 0 0
          0 0 0 0 0 0
          0 0 0 0 0 0
          0 0 0 0 0 0
          0 0 0 0 0 0
          0 0 0 0 0 0
          0 0 0 0 0 0
          0 0 0 0 0 0
          0 0 0 0 0 0
          0 0 0 0 0 0
          0 0 0 0 0 0
          0 0 0 0 0 0
          0 0 0 0 0 0
          0 0 0 0 0 0
          0 0 0 0 0 0
          0 0 0 0 0 0
          0 0 0 0 0 0
          0 0 0 0 0 0
          0 0 0 0 0 0
          0 0 0 0 0 0
          0 0 0 0 0 0
          0 0 0 0 0 0
          0 0 0 0 0 0
          0 0 0 0 0 0
          0 0 0 0 0 0
          0 0 0 0 0 0
          0 0 0 0 0 0
          0 0 0 0 0 0
          0 0 0 0 0 0
          0 0 0 0 0 0
          0 0 0 0 0 0
          0 0 0 0 0 0
          0 0 0 0 0 0
          0 0 0 0 0 0
          0 0 0 0 0 0
          0 0 0 0 0 0
          0 0 0 0 0 0
          0 0 0 0 0 0
          0 0 0 0 0 0
          0 0 0 0 0 0
          0 0 0 0 0 0
          0 0 0 0 0 0
          0 0 0 0 0 0
          0 0 0 0 0 0
          0 0 0 0 0 0
          0 0 0 0 0 0
          0 0 0 0 0 0
          0 0 0 0 0 0
          0 0 0 0 0 0
          0 0 0 0 0 0
          0 0 0 0 0 0
          0 0 0 0 0 0
          0 0 0 0 0 0
          0 0 0 0 0 0
          0 0 0 0 0 0
          0 0 0 0 0 0
          0 0 0 0 0 0
          0 0 0 0 0 0
          0 0 0 0 0 0
          0 0 0 0 0 0
          0 0 0 0 0 0
          0 0 0 0 0 0
          0 0 0 0 0 0
          0 0 0 0 0 0
          0 0 0 0 0 0
          0 0 0 0 0 0
          0 0 0 0 0 0
          0 0 0 0 0 0
          0 0 0 0 0 0
          0 0 0 0 0 0
          0 0 0 0 0 0
          0 0 0 0 0 0
          0 0 0 0 0 0
          0 0 0 0 0 0
          0 0 0 0 0 0
          0 0 0 0 0 0
          0 0 0 0 0 0
          0 0 0 0 0 0
          0 0 0 0 0 0
          0 0 0 0 0 0
          0 0 0 0 0 0
          0 0 0 0 0 0
          0 0 0 0 0 0
          0 0 0 0 0 0
          0 0 0 0 0 0
          0 0 0 0 0 0
          0 0 0 0 0 0
          0 0 0 0 0 0
          0 0 0 0 0 0
          0 0 0 0 0 0
          0 0 0 0 0 0
          0 0 0 0 0 0
          0 0 0 0 0 0
          0 0 0 0 0 0
          0 0 0 0 0 0
          0 0 0 0 0 0
          0 0 0 0 0 0
          0 0 0 0 0 0
          0 0 0 0 0 0
          0 0 0 0 0 0
          0 0 0 0 0 0
          0 0 0 0 0 0
          0 0 0 0 0 0
          0 0 0 0 0 0
          0 0 0 0 0 0
          0 0 0 0 0 0
          0 0 0 0 0 0
          0 0 0 0 0 0
          0 0
        </DataArray>
        <DataArray type="Float64" Name="gradient_error" format="ascii" RangeMin="2.3999693712194296e-16" RangeMax="1.2711868489796122e-9">
          3.754535690280842e-16 3.754224106477505e-16 3.752588939835109e-16 3.7532391838569007e-16 3.754115824656042e-16 3.754013236987683e-16
          3.753452654390871e-16 3.7536734305427335e-16 3.753714433914526e-16 3.753810680264002e-16 3.754294480022528e-16 3.7540987290765343e-16
          3.75391058470738e-16 3.7539045080429313e-16 3.7538993998004565e-16 3.75390880882988e-16 3.7539107106971247e-16 3.7539082821449087e-16
          3.7538938476130197e-16 3.753898415553485e-16 3.7539054540920037e-16 3.7539051176696336e-16 3.7539013434386923e-16 3.7539023316770156e-16
          3.753903814033792e-16 3.753904097889843e-16 3.753904655089823e-16 3.753905175492532e-16 3.7539034986370363e-16 3.7539041084020934e-16
          3.7539053279331424e-16 3.7539058641055027e-16 3.7539026996340713e-16 3.7539032988864204e-16 3.753904392259074e-16 3.753904649832122e-16
          3.753903561716408e-16 3.7539040348104704e-16 3.7539052543410333e-16 3.7539052806240825e-16 3.753904066350738e-16 3.75390400327099e-16
          3.7539052438280723e-16 3.753905222801539e-16 3.7539037719818764e-16 3.75390316221561e-16 3.7539042976409523e-16 3.7539041504561617e-16
          3.753909125223156e-16 3.753900081034831e-16 3.7539095130992365e-16 3.7539011239389663e-16 3.7539077778680905e-16 3.7539041111807425e-16
          3.753903961269624e-16 3.7539101328610644e-16 3.7539067051617156e-16 3.753904040068958e-16 3.7539044658519557e-16 3.753903971732838e-16
          3.753903898139526e-16 3.753905412039425e-16 3.7539042240481155e-16 3.7539059219286156e-16 3.7539035512042776e-16 3.7539044395689424e-16
          3.7539051386972047e-16 3.753905159723502e-16 3.7539054646053936e-16 3.7539054488366843e-16 3.7539043817454835e-16 3.753904423800665e-16
          3.7539057277721437e-16 3.7539107341909703e-16 3.7539083768791507e-16 3.753908041183338e-16 3.753908629122703e-16 3.753905244230945e-16
          3.753909491160766e-16 3.7539020478628263e-16 3.753907556730739e-16 3.7539050966439666e-16 3.753904150456647e-16 3.753904623550337e-16
          3.753903414533158e-16 3.7539051281836077e-16 3.753903729929081e-16 3.753905443579368e-16 3.7539032042697837e-16 3.7539039717327166e-16
          3.753905769489876e-16 3.7539050125398723e-16 3.753906989019545e-16 3.7539056958983613e-16 3.7539062110416236e-16 3.7539048443299585e-16
          3.758957873357141e-16 3.756471967233869e-16 3.75573046928624e-16 3.7548426809152184e-16 3.7525198206767087e-16 3.753216008226613e-16
          3.753901979153436e-16 3.753877202363128e-16 3.753943407703842e-16 3.75392534556842e-16 3.7539154627227417e-16 3.7539116779458335e-16
          3.7539065684916446e-16 3.7539069154276546e-16 3.753906494898043e-16 3.7539071414597035e-16 3.753905548711297e-16 3.7539062688654173e-16
          3.7539069890183003e-16 3.75390691542695e-16 3.7539071362018706e-16 3.753907109920017e-16 3.7539057064073883e-16 3.753906158476038e-16
          3.7539307638685476e-16 3.7539231827353383e-16 3.7539074770674317e-16 3.7538829983113893e-16 3.753906126961246e-16 3.75390644234064e-16
          3.753906762986361e-16 3.7539073359538286e-16 3.753906184759664e-16 3.7539062425833354e-16 3.7539066052886226e-16 3.7539058220562617e-16
          3.753875466626498e-16 3.75389147292648e-16 3.753902758358348e-16 3.753913571049958e-16 3.7539049704894933e-16 3.7539049915123554e-16
          3.753906263609057e-16 3.7539068838862957e-16 3.753905380499789e-16 3.753905643331072e-16 3.7539061269390813e-16 3.753905033567836e-16
          3.7475529484880505e-16 3.7506178697938444e-16 3.7592404678093836e-16 3.756558607699176e-16 3.754015233059182e-16 3.754063465534189e-16
          3.753780801673553e-16 3.7538407155638106e-16 3.7538635600321565e-16 3.7538794029803825e-16 3.7539010595923953e-16 3.753902210786663e-16
          3.753905674868981e-16 3.75390554871111e-16 3.753904360720253e-16 3.753904912663278e-16 3.753904581496374e-16 3.753905159723148e-16
          3.753905422550982e-16 3.753905722178023e-16 3.753904823298831e-16 3.753905096642756e-16 3.753824037007652e-16 3.7538962315232963e-16
          3.7539906881786656e-16 3.753902884125293e-16 3.7539006916896083e-16 3.753903982252682e-16 3.75390523857188e-16 3.7539049126629563e-16
          3.753905159723503e-16 3.753905722178927e-16 3.7539050966438966e-16 3.753965282915666e-16 3.753915715457626e-16 3.753869678348136e-16
          3.7539051387965183e-16 3.753906137450608e-16 3.7539046025244337e-16 3.7539050545905204e-16 3.753904360719609e-16 3.753904581497083e-16
          3.7539054225527895e-16 3.753904823301112e-16 3.7942347781048153e-16 3.774609289406069e-16 3.73474912116432e-16 3.7443937147414446e-16
          3.7531289892557164e-16 3.7531051142712154e-16 3.7543227399472936e-16 3.7541129922528473e-16 3.754073354017747e-16 3.754009747817277e-16
          3.753932694047373e-16 3.7539246829345673e-16 3.753908313685909e-16 3.753907767000297e-16 3.7539049915117746e-16 3.753905133439139e-16
          3.7539053910115347e-16 3.753906126934949e-16 3.7539063371986803e-16 3.7539069942732815e-16 3.7539062110405364e-16 3.75390645284395e-16
          3.75431043500356e-16 3.7539524304439495e-16 3.753566143524923e-16 3.7539097014863465e-16 3.753924289214731e-16 3.7539106897399703e-16
          3.7539067892703567e-16 3.7539055855059245e-16 3.7539063056594593e-16 3.753907052096159e-16 3.75390656848953e-16 3.7536370692997973e-16
          3.75386655256933e-16 3.7540510477631313e-16 3.753916158414292e-16 3.753902436812657e-16 3.7539047076581797e-16 3.753906358226028e-16
          3.753905895645346e-16 3.7539057484605554e-16 3.753906452844435e-16 3.753906442331696e-16 3.84476924437619e-16 3.7971889761119555e-16
          3.839905301289529e-16 3.796785485251805e-16 3.758341084189918e-16 3.7577875408853916e-16 3.7526418598906803e-16 3.753323516999979e-16
          3.753286811456336e-16 3.753526221743594e-16 3.753795364683375e-16 3.753829142289886e-16 3.7538931432489244e-16 3.7538953194838123e-16
          3.7539058641109483e-16 3.75390549089298e-16 3.753907062610239e-16 3.753907346466194e-16 3.7539070205571033e-16 3.753907504164143e-16
          3.753906253094839e-16 3.7539068523472196e-16 3.7524150251731765e-16 3.753891567682073e-16 3.7552791251349464e-16 3.753924423319434e-16
          3.75383871280766e-16 3.753886552467439e-16 3.7539024841719982e-16 3.7539059534712455e-16 3.75390735697941e-16 3.7539075619867793e-16
          3.7539069679923163e-16 3.7552213424986304e-16 3.7541174661500644e-16 3.7533242526890275e-16 3.7538436725295914e-16 3.753911793584469e-16
          3.753910185038481e-16 3.7539074726252963e-16 3.753906789267478e-16 3.7539070836366695e-16 3.753907136202376e-16 3.7539064843850334e-16
          5.366872670018386e-16 4.575124090811732e-16 3.683760574123119e-16 3.7219102075096965e-16 3.732103900904073e-16 3.736651938807766e-16
          3.757332573144437e-16 3.7552222820241894e-16 3.756133889360506e-16 3.755244212277842e-16 3.7543702860041056e-16 3.754218161937534e-16
          3.7539795529967265e-16 3.7539599877645817e-16 3.753911982841557e-16 3.7539115991075455e-16 3.753904760226088e-16 3.753905485634124e-16
          3.7539052648556967e-16 3.7539050966441224e-16 3.7539051597233977e-16 3.7539046761167967e-16 3.7659823636077034e-16 3.7566816906686436e-16
          3.7487074627477105e-16 3.7536603501661183e-16 3.754127220242338e-16 3.7539787284425435e-16 3.753920404636267e-16 3.753907656632352e-16
          3.753905243828004e-16 3.7539044658518117e-16 3.753903856087429e-16 3.748589215610328e-16 3.753303540441013e-16 3.756214948783961e-16
          3.7542087094282953e-16 3.7538999052895005e-16 3.753891419014125e-16 3.753900386740098e-16 3.753904097891171e-16 3.7539042766138476e-16
          3.753904003271076e-16 3.7539035196646626e-16 1.373483938410163e-15 8.755630797629588e-16 5.628699188714813e-16 4.719489314843132e-16
          3.866591963109809e-16 3.839513930278005e-16 3.7474764645836026e-16 3.7531850803466165e-16 3.7463387783083143e-16 3.749477682031313e-16
          3.7521038861226505e-16 3.752716286828018e-16 3.753568163748679e-16 3.7536647784848026e-16 3.753862771585186e-16 3.7538711452792473e-16
          3.7539104689300396e-16 3.753906631603157e-16 3.753915935749066e-16 3.75391129943281e-16 3.753916850393178e-16 3.753912161514153e-16
          3.784806362706073e-16 3.7873620033154474e-16 3.7789426663955123e-16 3.7556964576319105e-16 3.7532284399537596e-16 3.7536327881301668e-16
          3.7538404780223895e-16 3.753894163388225e-16 3.753902930937412e-16 3.7539043449544456e-16 3.753905212294229e-16 3.793190514254597e-16
          3.7644445656594436e-16 3.745449435344824e-16 3.752499219154189e-16 3.753840294153207e-16 3.753936888726947e-16 3.753919562823853e-16
          3.75390880780314e-16 3.7539030675985507e-16 3.753902026792338e-16 3.753902951953329e-16 4.796106521069446e-15 2.657240491838714e-15
          1.1675694564758292e-15 8.037742854033143e-16 3.5032030395800565e-16 3.5842380278728906e-16 3.758102679616147e-16 3.7447192413797007e-16
          3.77865148948563e-16 3.76774021034992e-16 3.760600482099841e-16 3.758215692422832e-16 3.7553907865937423e-16 3.7549321785845605e-16
          3.7541856107949324e-16 3.7541094298745234e-16 3.753945878017426e-16 3.7539353280625106e-16 3.75390573797526e-16 3.753904371271853e-16
          3.753901122668574e-16 3.7539006180422415e-16 4.510764559099115e-16 4.114311866177087e-16 3.7286853528141597e-16 3.745892175199571e-16
          3.7556694573273327e-16 3.7548479477869273e-16 3.754166730515977e-16 3.753958428356914e-16 3.7539083876659573e-16 3.7538988991462404e-16
          3.7538982630843453e-16 3.837784492118398e-16 3.8288325890461805e-16 3.7920976894625937e-16 3.7604485472558873e-16 3.7545099834404556e-16
          3.7538649928280327e-16 3.753859890456576e-16 3.7538836077597143e-16 3.7538919972243186e-16 3.7538947937240333e-16 3.7538964127527805e-16
          3.835881844909203e-14 2.102297656433887e-14 3.147786327808905e-14 1.6851526426575978e-14 1.8267760440041582e-14 9.77277518789822e-15
          4.096419908638179e-15 2.5142860559558012e-15 6.596896767471935e-16 5.87584435466384e-16 3.920775021130389e-16 3.921843570597621e-16
          3.690449596440483e-16 3.721356806632039e-16 3.73160625074751e-16 3.739986060594531e-16 3.7482237148180127e-16 3.750070215299111e-16
          3.7527124188875207e-16 3.7530499669081364e-16 3.753751862796519e-16 3.7537802871404047e-16 3.753963372450598e-16 3.753934991827252e-16
          3.7539954476404557e-16 3.753958735614426e-16 2.674688923696328e-15 1.620575861287464e-15 9.479621154069733e-16 7.007060610736492e-16
          4.4240135115992185e-16 3.8259819851889454e-16 3.751219884390367e-16 3.750983654450976e-16 3.7529182720212203e-16 3.7536441300052484e-16
          3.7538451135763857e-16 3.7538904153738543e-16 3.753896980892557e-16 1.6622431678069424e-15 1.0159621475120227e-15 6.181342950590881e-16
          4.692599188738743e-16 3.6932350813426923e-16 3.729051850313036e-16 3.7501757519571385e-16 3.753601438460402e-16 3.7539198282622303e-16
          3.753900745081743e-16 3.753881515668479e-16 3.753874219543802e-16 3.753871938196718e-16 1.5161002776864062e-13 8.393172486994477e-14
          1.2248001529243147e-13 6.601691634883803e-14 7.029784523926285e-14 3.760703446818254e-14 1.487417677394078e-14 8.91257211473169e-15
          1.864978338957483e-15 1.440170981999207e-15 4.623048603117819e-16 4.45864853777115e-16 3.952609641765469e-16 3.84152872069711e-16
          3.822928349756181e-16 3.794213242439634e-16 3.773911777257208e-16 3.7668906361567147e-16 3.7589463945217706e-16 3.7573519620464976e-16
          3.75499362813559e-16 3.754664479954399e-16 3.7540672563780224e-16 3.7540080314679687e-16 3.753909283044046e-16 3.753892905274969e-16
          1.1713806825248844e-14 6.820041709765261e-15 3.467253285022865e-15 2.0101416481241953e-15 7.363683577775489e-16 4.096115764385977e-16
          3.7520955261180804e-16 3.7609444073732847e-16 3.7569279414452136e-16 3.7547513296011873e-16 3.754041935467414e-16 3.753854353480863e-16
          3.753819743403248e-16 7.174191679248737e-15 4.086266014285931e-15 2.0182828729435138e-15 1.0693158407257934e-15 4.57373090514167e-16
          3.897983056347472e-16 3.7737432526074093e-16 3.7563906796234827e-16 3.7539863878342073e-16 3.7537451296311504e-16 3.7537485391616195e-16
          3.7537599004038113e-16 3.7537629593006057e-16 5.985958896960897e-13 3.362454186667094e-13 4.777360614479292e-13 2.60561989278999e-13
          2.709739231210157e-13 1.4634575891148094e-13 5.438104094740636e-14 3.305462148044976e-14 7.499244318262037e-15 5.457977605903465e-15
          1.2729605777112875e-15 1.118254963604137e-15 4.1749228808585533e-16 4.193255157382946e-16 3.63985756142037e-16 3.6991761658655635e-16
          3.6995178190833174e-16 3.7206038546399137e-16 3.7378688880328837e-16 3.743249833394361e-16 3.750316500318072e-16 3.751320717029018e-16
          3.753647542036289e-16 3.7535899160428955e-16 3.754274498067742e-16 3.7540286233396807e-16 5.2841106831950465e-14 3.076447762484582e-14
          1.521080270523342e-14 7.737799998691963e-15 2.056165776460251e-15 6.78260721268382e-16 3.944440518566329e-16 3.7483069150424986e-16
          3.7463827098235934e-16 3.750922130707124e-16 3.752923627036754e-16 3.753545476471733e-16 3.753672194242368e-16 3.1787266026571854e-14
          1.814103813962288e-14 8.70401070852065e-15 3.747397983890765e-15 6.956206593756084e-16 3.9297209303977755e-16 3.6772936032253178e-16
          3.7381190597742406e-16 3.7510755294506757e-16 3.7532134826584096e-16 3.7535223203335443e-16 3.7535586628939646e-16 3.7535616398731165e-16
          2.3581092247521074e-12 1.3501599564113438e-12 1.8691694765320026e-12 1.0350374230682408e-12 1.0468799584497296e-12 5.730858301390136e-13
          1.9649800449465938e-13 1.223374048133931e-13 2.993510383769935e-14 2.0848077960593015e-14 4.966270397701868e-15 4.0309045381277065e-15
          6.623934153426387e-16 6.468047273651568e-16 4.03703144586982e-16 3.858182340982369e-16 3.868676421442485e-16 3.80867855620588e-16
          3.7979909966485623e-16 3.7801583595474626e-16 3.76915663553339e-16 3.7637713274548335e-16 3.7600803222663744e-16 3.7580374557795074e-16
          3.758201864166674e-16 3.7567989463203415e-16 2.417485910352158e-13 1.409747707659048e-13 6.906085738188492e-14 3.169581878794119e-14
          6.7354313503052044e-15 1.899710467602587e-15 5.260892104945858e-16 3.7552748478613307e-16 3.757935205052489e-16 3.758645486553651e-16
          3.755506625668809e-16 3.754094619337009e-16 3.7537630414430865e-16 1.4128649399985155e-13 8.104417192733032e-14 3.8830012935472176e-14
          1.521483244375561e-14 1.7098106171237255e-15 7.038822566516271e-16 4.209623816014965e-16 3.8312164596277436e-16 3.7671897191357024e-16
          3.7549652506609404e-16 3.7526272319613406e-16 3.752194649381377e-16 3.752130054412164e-16 9.253327768068976e-12 5.4333772182554694e-12
          7.341823741242826e-12 4.1432997591917115e-12 4.063435184468398e-12 2.263148592616426e-12 7.03694015315199e-13 4.524650174746499e-13
          1.1618428798858608e-13 7.733297858707295e-14 2.1542488287788237e-14 1.6619207981663973e-14 2.546720248309152e-15 2.3989482119748328e-15
          6.700588643384444e-16 6.505903208786645e-16 4.0413803433526444e-16 4.0582918892403265e-16 3.7337615658654563e-16 3.758680396003806e-16
          3.726741662684497e-16 3.7375566902922163e-16 3.735799152423133e-16 3.7404470683779047e-16 3.7385974849537214e-16 3.7418434118472e-16
          1.1209722438452963e-12 6.533472957162142e-13 3.1822359866886e-13 1.3214422676991816e-13 2.113216857162223e-14 6.607890037270607e-15
          1.3522891267835239e-15 4.899505352957024e-16 3.8783565245802244e-16 3.7591608463320233e-16 3.7474554881872974e-16 3.7470647525625616e-16
          3.747266697722529e-16 6.285178192486291e-13 3.619188142918324e-13 1.7358519657326613e-13 6.30524339057355e-14 3.782667957684621e-15
          1.5198523990015036e-15 4.534020779265328e-16 3.4877929317252024e-16 3.68150961403244e-16 3.73472246652189e-16 3.746539258474657e-16