<?xml version="1.0"?>
<VTKFile type="UnstructuredGrid" version="0.1" byte_order="LittleEndian" header_type="UInt32" compressor="vtkZLibDataCompressor">
  <UnstructuredGrid>
    <Piece NumberOfPoints="1143" NumberOfCells="748">
      <PointData>
        <DataArray type="Int32" Name="libmesh_node_id" format="ascii" RangeMin="2201" RangeMax="8646">
          2440 2444 2503 2504 2508 2510
          2512 2609 2611 2614 2615 2616
          2619 2621 2636 2637 2640 2641
          2643 2645 2925 2926 2927 2928
          2936 2937 2938 2942 2950 2951
          2952 2956 2957 2958 2959 2960
          2961 2962 2963 2964 2965 2966
          2967 2968 2970 2971 2972 2973
          2974 2975 2976 3025 3026 3027
          3028 3029 3030 3031 3032 3033
          3034 3035 3036 3039 3040 3042
          3044 3272 3277 3290 3294 3295
          3351 3352 3353 3355 3356 3357
          3358 3360 3480 3481 3482 3490
          3491 3492 3500 3501 3503 3504
          3505 3506 3507 3508 3509 3510
          3511 3514 3515 3551 3552 3553
          3554 3555 3558 3559 3561 3562
          3563 3564 3565 3566 3569 3570
          3572 3574 3907 3941 3978 3979
          3982 3987 3988 3989 3992 4015
          4016 4019 4022 4026 4027 4028
          4029 4030 4031 4032 4033 4034
          4035 4036 4037 4038 4039 4040
          4041 4042 4043 4044 4045 4046
          4047 4048 4049 4050 4051 4052
          4053 4054 4055 4056 4057 4058
          4059 4060 4061 4062 4063 4064
          4065 4066 4067 4068 4069 4070
          4071 4072 4073 4074 4075 4076
          4078 4079 4080 4081 4082 4083
          4084 4085 4086 4087 4088 4089
          4090 4091 4092 4093 4094 4095
          4096 4097 4098 4099 4100 4101
          4102 4103 4104 4105 4106 4107
          4108 4280 4282 4300 4313 4315
          4317 4319 4327 4331 4409 4410
          4411 4412 4413 4414 4415 4416
          4417 4418 4419 4420 4421 4422
          4423 4424 4425 4426 4427 4428
          4429 4430 4431 4434 4435 4437
          4439 4440 4441 4442 4443 4444
          4445 4446 4447 4449 4451 4453
          4454 4455 4456 4457 4458 4459
          4460 4461 4462 4463 4464 4465
          4468 4469 4471 4473 5373 5398
          5399 5400 5405 5406 5408 5409
          5410 5411 5412 5413 5414 5415
          5416 5417 5418 5419 5422 5423
          5757 5760 5772 5776 5777 5780
          5805 5806 5807 5810 5815 5816
          5817 5820 5837 5838 5841 5844
          5845 5848 5985 5989 5990 5993
          6005 6009 6010 6013 6030 6031
          6034 6037 6041 6058 6059 6062
          6065 6069 6072 6073 6076 6077
          6078 6079 6080 6081 6082 6083
          6084 6085 6086 6087 6088 6089
          6090 6091 6092 6093 6094 6095
          6096 6097 6098 6099 6100 6101
          6102 6103 6104 6105 6106 6107
          6108 6109 6110 6111 6112 6113
          6114 6115 6116 6117 6118 6119
          6120 6121 6122 6123 6124 6125
          6126 6127 6128 6129 6130 6131
          6132 6133 6134 6135 6136 6137
          6138 6139 6140 6141 6142 6143
          6144 6145 6146 6147 6148 6149
          6150 6151 6152 6153 6154 6155
          6156 6157 6158 6159 6160 6161
          6162 6163 6164 6165 6166 6167
          6168 6169 6170 6171 6172 6173
          6174 6175 6176 6177 6178 6179
          6180 6181 6182 6183 6184 6185
          6186 6187 6188 6189 6190 6191
          6192 6193 6194 6195 6196 6197
          6198 6199 6200 6201 6202 6203
          6204 6205 6206 6207 6208 6209
          6210 6211 6212 6213 6214 6215
          6216 6217 6218 6219 6220 6221
          6222 6223 6224 6225 6226 6227
          6228 6229 6230 6231 6232 6233
          6234 6235 6236 6237 6238 6239
          6240 6241 6242 6243 6244 6245
          6246 6247 6248 6249 6250 6251
          6252 6253 6254 6255 6256 6257
          6258 6259 6260 6261 6262 6263
          6264 6265 6266 6267 6268 6269
          6270 6271 6272 6273 6274 6275
          6276 6277 6278 6279 6280 6281
          6282 6283 6284 6285 6286 6287
          6288 6289 6290 6291 6292 6293
          6294 6295 6296 6297 6298 6299
          6300 6301 6302 6303 6304 6305
          6306 6307 6308 6309 6310 6311
          6312 6313 6314 6315 6316 6317
          6318 6319 6320 6321 6322 6323
          6324 6325 6326 6327 6328 6329
          6330 6331 6332 6333 6334 6335
          6336 6337 6338 6339 6340 6341
          6342 6343 6344 6345 6346 6347
          6348 6349 6350 6351 6352 6353
          6354 6355 6356 6357 6358 6359
          6360 6361 6362 6363 6364 6365
          6366 6367 6368 6369 6370 6371
          6372 6373 6374 6375 6376 6377
          6378 6379 6380 6381 6382 6383
          6384 6385 6386 6387 6388 6389
          6390 6391 6392 6393 6394 6395
          6396 6397 6398 6399 6400 6401
          6402 6403 6404 6405 6406 6407
          6408 6409 6410 6411 6412 6413
          6414 6415 6416 6417 6418 6419
          6420 6421 6422 6423 6424 6425
          6426 6427 6428 6429 6430 6431
          6432 6433 6434 6435 6436 6437
          6438 6439 6440 6441 6442 6443
          6444 6445 6634 6635 6639 6666
          6670 7542 7543 7546 7547 7549
          7551 7562 7563 7566 7567 7569
          7571 7582 7584 7586 7587 7588
          7596 7598 7600 7601 7602 7678
          7679 7682 7683 7685 7686 7687
          7698 7699 7705 7706 7758 7759
          7760 7761 7762 7763 7764 7772
          7773 7774 7775 7776 7777 7778
          7786 7787 7788 7789 7790 7791
          7792 7800 7801 7802 7803 7804
          7805 7806 7870 7871 7872 7873
          7874 7875 7876 7884 7885 7888
          7889 7898 7899 7900 7901 7902
          7903 7904 7912 7913 7916 7917
          8394 8395 8396 8397 8398 8399
          8400 8401 8402 8403 8404 8405
          8406 8407 8408 8409 8410 8411
          8412 8413 8414 8415 8416 8417
          8418 8419 8422 8423 8425 8427
          8428 8429 8430 8431 8432 8433
          8434 8435 8436 8437 8438 8439
          8440 8441 8442 8443 8444 8445
          8446 8447 8448 8449 8450 8451
          8452 8453 8454 8455 8456 8457
          8458 8459 8460 8461 8462 8463
          8464 8465 8466 8467 8468 8469
          8470 8471 8472 8473 8474 8475
          8476 8477 8478 8479 8481 8483
          8485 8486 8487 8488 8489 8490
          8491 8492 8493 8494 8495 8496
          8497 8500 8501 8503 8505 8506
          8507 8508 8509 8510 8511 8512
          8513 8515 8517 8519 8520 8521
          8522 8523 8524 8525 8526 8527
          8529 8531 8533 8534 8535 8536
          8537 8538 8539 8540 8541 8542
          8543 8544 8545 8546 8547 8548
          8549 8550 8551 8552 8553 8554
          8555 8556 8557 8558 8559 8562
          8563 8565 8567 2201 2493 2428
          2441 2494 2498 2501 2360 2425
          2600 2579 2601 2604 2638 2639
          2642 2606 2321 2576 2917 2900
          2918 2921 2923 2431 3037 3038
          3041 3255 3258 2574 3275 3278
          2612 2436 3264 3292 3268 3341
          3342 3354 3346 3349 2446 3359
          3472 3512 3502 3513 3516 2969
          2617 3556 3557 3560 3567 3568
          3571 2644 3573 4077 4277 4293
          4278 4294 4297 4298 4432 4433
          4436 4438 4466 4450 4467 4470
          4472 5420 5407 5421 5424 5450
          5494 4141 4273 5498 7544 6636
          7545 7548 4142 7550 4274 7564
          7565 7568 7570 6667 7583 7585
          7589 7591 7593 7595 7597 7599
          7603 7607 7605 7609 7680 7681
          7684 7689 7695 7693 7697 7700
          7701 7702 7703 7704 7707 4302
          7709 7715 7713 7717 7765 7767
          7769 7771 7779 7781 7783 7785
          7793 7795 7797 7799 7807 7809
          7811 7813 7877 7879 7881 7883
          7886 7887 7890 4329 7891 7893
          7895 7897 7905 7907 7909 7911
          7914 7915 7918 4333 7919 7921
          7923 7925 8420 8421 8424 8426
          8480 8482 8484 4448 8498 8499
          8502 8504 8514 8516 8518 4452
          8528 8530 8532 3043 8560 8561
          8564 8566 8568 8569 8575 8608
          8612 8642 8646
        </DataArray>
        <DataArray type="Float64" Name="bounds" format="ascii" RangeMin="0" RangeMax="0">
          0 0 0 0 0 0
          0 0 0 0 0 0
          0 0 0 0 0 0
          0 0 0 0 0 0
          0 0 0 0 0 0
          0 0 0 0 0 0
          0 0 0 0 0 0
          0 0 0 0 0 0
          0 0 0 0 0 0
          0 0 0 0 0 0
          0 0 0 0 0 0
          0 0 0 0 0 0
          0 0 0 0 0 0
          0 0 0 0 0 0
          0 0 0 0 0 0
          0 0 0 0 0 0
          0 0 0 0 0 0
          0 0 0 0 0 0
          0 0 0 0 0 0
          0 0 0 0 0 0
          0 0 0 0 0 0
          0 0 0 0 0 0
          0 0 0 0 0 0
          0 0 0 0 0 0
          0 0 0 0 0 0
          0 0 0 0 0 0
          0 0 0 0 0 0
          0 0 0 0 0 0
          0 0 0 0 0 0
          0 0 0 0 0 0
          0 0 0 0 0 0
          0 0 0 0 0 0
          0 0 0 0 0 0
          0 0 0 0 0 0
          0 0 0 0 0 0
          0 0 0 0 0 0
          0 0 0 0 0 0
          0 0 0 0 0 0
          0 0 0 0 0 0
          0 0 0 0 0 0
          0 0 0 0 0 0
          0 0 0 0 0 0
          0 0 0 0 0 0
          0 0 0 0 0 0
          0 0 0 0 0 0
          0 0 0 0 0 0
          0 0 0 0 0 0
          0 0 0 0 0 0
          0 0 0 0 0 0
          0 0 0 0 0 0
          0 0 0 0 0 0
          0 0 0 0 0 0
          0 0 0 0 0 0
          0 0 0 0 0 0
          0 0 0 0 0 0
          0 0 0 0 0 0
          0 0 0 0 0 0
          0 0 0 0 0 0
          0 0 0 0 0 0
          0 0 0 0 0 0
          0 0 0 0 0 0
          0 0 0 0 0 0
          0 0 0 0 0 0
          0 0 0 0 0 0
          0 0 0 0 0 0
          0 0 0 0 0 0
          0 0 0 0 0 0
          0 0 0 0 0 0
          0 0 0 0 0 0
          0 0 0 0 0 0
          0 0 0 0 0 0
          0 0 0 0 0 0
          0 0 0 0 0 0
          0 0 0 0 0 0
          0 0 0 0 0 0
          0 0 0 0 0 0
          0 0 0 0 0 0
          0 0 0 0 0 0
          0 0 0 0 0 0
          0 0 0 0 0 0
          0 0 0 0 0 0
          0 0 0 0 0 0
          0 0 0 0 0 0
          0 0 0 0 0 0
          0 0 0 0 0 0
          0 0 0 0 0 0
          0 0 0 0 0 0
          0 0 0 0 0 0
          0 0 0 0 0 0
          0 0 0 0 0 0
          0 0 0 0 0 0
          0 0 0 0 0 0
          0 0 0 0 0 0
          0 0 0 0 0 0
          0 0 0 0 0 0
          0 0 0 0 0 0
          0 0 0 0 0 0
          0 0 0 0 0 0
          0 0 0 0 0 0
          0 0 0 0 0 0
          0 0 0 0 0 0
          0 0 0 0 0 0
          0 0 0 0 0 0
          0 0 0 0 0 0
          0 0 0 0 0 0
          0 0 0 0 0 0
          0 0 0 0 0 0
          0 0 0 0 0 0
          0 0 0 0 0 0
          0 0 0 0 0 0
          0 0 0 0 0 0
          0 0 0 0 0 0
          0 0 0 0 0 0
          0 0 0 0 0 0
          0 0 0 0 0 0
          0 0 0 0 0 0
          0 0 0 0 0 0
          0 0 0 0 0 0
          0 0 0 0 0 0
          0 0 0 0 0 0
          0 0 0 0 0 0
          0 0 0 0 0 0
          0 0 0 0 0 0
          0 0 0 0 0 0
          0 0 0 0 0 0
          0 0 0 0 0 0
          0 0 0 0 0 0
          0 0 0 0 0 0
          0 0 0 0 0 0
          0 0 0 0 0 0
          0 0 0 0 0 0
          0 0 0 0 0 0
          0 0 0 0 0 0
          0 0 0 0 0 0
          0 0 0 0 0 0
          0 0 0 0 0 0
          0 0 0 0 0 0
          0 0 0 0 0 0
          0 0 0 0 0 0
          0 0 0 0 0 0
          0 0 0 0 0 0
          0 0 0 0 0 0
          0 0 0 0 0 0
          0 0 0 0 0 0
          0 0 0 0 0 0
          0 0 0 0 0 0
          0 0 0 0 0 0
          0 0 0 0 0 0
          0 0 0 0 0 0
          0 0 0 0 0 0
          0 0 0 0 0 0
          0 0 0 0 0 0
          0 0 0 0 0 0
          0 0 0 0 0 0
          0 0 0 0 0 0
          0 0 0 0 0 0
          0 0 0 0 0 0
          0 0 0 0 0 0
          0 0 0 0 0 0
          0 0 0 0 0 0
          0 0 0 0 0 0
          0 0 0 0 0 0
          0 0 0 0 0 0
          0 0 0 0 0 0
          0 0 0 0 0 0
          0 0 0 0 0 0
          0 0 0 0 0 0
          0 0 0 0 0 0
          0 0 0 0 0 0
          0 0 0 0 0 0
          0 0 0 0 0 0
          0 0 0 0 0 0
          0 0 0 0 0 0
          0 0 0 0 0 0
          0 0 0 0 0 0
          0 0 0 0 0 0
          0 0 0 0 0 0
          0 0 0 0 0 0
          0 0 0 0 0 0
          0 0 0 0 0 0
          0 0 0 0 0 0
          0 0 0 0 0 0
          0 0 0 0 0 0
          0 0 0 0 0 0
          0 0 0 0 0 0
          0 0 0 0 0 0
          0 0 0 0 0 0
          0 0 0 0 0 0
          0 0 0 0 0 0
          0 0 0 0 0 0
          0 0 0
        </DataArray>
        <DataArray type="Float64" Name="gradient_error" format="ascii" RangeMin="9.459416673937496e-13" RangeMax="3.479588594673771e-8">
          7.423964932098163e-12 3.27430986461561e-11 2.1080925422168302e-12 1.8480849361274727e-12 1.9909699490142018e-12 3.3988691726388654e-12
          2.714475041765333e-12 6.634301176122654e-10 9.574111405579652e-9 1.591237892860097e-10 4.704196556007196e-10 1.4758638871643383e-9
          1.9439305714319105e-8 3.8555180226909325e-9 2.8170933247274246e-10 3.833162048398102e-10 2.2303052466393753e-11 7.992921471973635e-11
          2.2954717221164147e-10 1.4215664140870787e-10 9.945268143100394e-10 1.336836874148176e-9 9.704852166394897e-10 1.6791469339863125e-9
          1.938983656902822e-8 3.163071699402385e-8 1.763983901779958e-8 3.0945704816670366e-8 2.9736905036104044e-10 5.648061931578207e-10
          3.979440061687302e-10 1.015346637128614e-9 8.774093822678768e-9 2.310589039997208e-8 4.267023657670199e-9 1.1810479407736837e-8
          3.3299459468406883e-9 5.8640335827290135e-9 2.85430926807798e-9 3.151355180562497e-8 1.6768643333462106e-8 7.663774535765019e-9
          2.8684530761381626e-10 1.6157032602906742e-10 1.0200713552659721e-10 2.353298371004782e-10 2.876634915561237e-11 1.620032256793668e-11
          3.301659504793677e-10 2.3227492752585425e-10 5.289858519610358e-11 8.248966488692394e-10 1.1045560389603786e-9 3.002142782296188e-10
          4.846135608801308e-10 4.933742214206338e-10 6.654617955581686e-10 1.516129563729982e-10 1.384215429051518e-9 5.931065498780452e-10
          8.375493696957034e-10 8.491677695058199e-11 4.09745856091157e-11 5.838040713964898e-11 3.2922741055586324e-11 5.823410840907978e-12
          1.2231068975185896e-11 3.862682889705465e-10 1.65637837291095e-10 2.143660770257393e-11 1.5688699320870376e-11 7.003888723071606e-12
          2.59740632876632e-12 1.725381203974943e-11 1.1576140836951755e-12 9.459416673937496e-13 6.266657523578733e-12 2.2724714609116468e-12
          3.191021775073253e-11 1.1587373379763716e-11 1.7169554541345163e-9 2.517668212186464e-9 1.7451270723951368e-9 1.5933060757730846e-9
          3.5534513359837107e-9 1.6096999349901546e-9 3.4340933444809526e-10 2.501577709255144e-10 1.1541613270385805e-9 2.0020599890384656e-9
          4.197275161552088e-10 9.257283179674354e-10 7.658218495179143e-10 1.3135372153269798e-9 5.014223544511254e-10 1.8385897884423135e-10
          2.6303444440035963e-10 9.592236580504256e-11 2.3310466596074955e-10 7.611828179186608e-11 1.134639637628856e-10 7.69576441512197e-11
          5.168865144189884e-11 8.022666309651639e-11 3.053452359387846e-11 4.983486065400814e-11 8.21921213449703e-12 1.2690274551142036e-11
          9.852350658504569e-12 1.7161336967787042e-11 6.426005979105971e-12 9.650222887188675e-12 4.351528536116749e-12 7.145791549724766e-12
          1.2874439795271377e-11 9.940054563332782e-12 3.13058874942302e-9 9.12669556234799e-9 1.7247909407112726e-9 2.479583148652326e-10
          3.1432891709435964e-9 2.1572414759792203e-10 1.9460644010854096e-10 1.536469508584513e-10 4.768564125563275e-10 4.669986770442366e-9
          9.714059182242007e-10 5.140484816828031e-9 8.676453604801513e-10 9.138915460906646e-10 1.0008791167987556e-9 2.083001546146432e-9
          1.1838663281763436e-9 3.608933961890043e-9 4.393454009627811e-10 5.819393928244069e-10 2.818389873888377e-10 9.278142024150653e-10
          5.454013003333257e-9 3.0460854290410308e-9 6.250588555449624e-9 1.3279255410038436e-9 6.366787930706054e-10 1.524756061863589e-9
          6.159658828737026e-10 1.13994388802413e-9 1.838129568623278e-10 1.4596096666713255e-10 4.6483759019784763e-10 6.806781285094809e-10
          1.36377206359023e-10 1.999149893736802e-9 3.2335319659115536e-10 1.1045294157379093e-9 1.3011708136704273e-10 1.112384615013207e-10
          9.50651103347313e-11 8.643640822292869e-11 1.2731511748493003e-10 9.710560327222046e-11 7.327663797247537e-11 2.647323178516969e-10
          2.1599744362443798e-10 1.2789489852494312e-10 3.531118167666194e-10 3.7270116826527146e-10 2.1971816674890917e-10 1.309746521994079e-10
          1.644035242037791e-10 1.7801540382499123e-10 5.920168815366961e-11 5.110699251530047e-10 7.138987395258664e-11 2.4440191963055857e-10
          1.495222126449191e-10 9.027023680823483e-11 1.1007440743813547e-10 6.673739486130534e-11 6.741383217899588e-11 4.010640325472753e-11
          5.471496391912179e-11 4.2677441251204345e-11 2.1255450416865977e-11 3.041667634270942e-9 5.644451079092575e-10 1.6874569324494946e-9
          2.783990842880107e-10 3.495044969722284e-9 6.421770475953493e-10 1.97596123501175e-9 4.878262040019319e-10 4.150705504741457e-10
          2.3161861654965723e-10 1.9164366595996565e-10 5.607307784681526e-10 4.820348409549217e-10 2.7784616812541117e-10 7.374113580030857e-10
          1.180270172406858e-10 3.480158570518313e-10 4.488278887073145e-11 8.506803356712144e-10 1.409844331690993e-10 4.0143914528204866e-10
          9.476532798515034e-11 7.632722327317235e-11 3.461215644649254e-11 2.7128824112610708e-11 1.1466829251869138e-10 9.331998543777097e-11
          4.135146570229842e-11 1.7246316521950618e-10 7.993581957924348e-11 3.2835544424444744e-11 3.446181097862603e-10 1.5529977524805226e-10
          4.0432852001249556e-10 1.9004132176381768e-10 6.045490690924384e-11 7.461399977096645e-11 7.22913871397081e-11 9.796568084813264e-11
          7.195303672037385e-11 1.4645888777095489e-10 1.8901963339167633e-10 8.772621043057475e-11 2.0876146579799998e-10 2.38384235648199e-11
          2.696641289377602e-11 2.153232403485944e-11 3.0094402222732136e-11 6.086136833697843e-11 6.922364898894008e-11 4.069327028995654e-11
          3.280362191501682e-11 4.030703055843251e-11 5.5575338978510805e-11 3.26732369350954e-11 8.577834781731533e-11 1.887614121252432e-11
          5.524542588605774e-11 2.7429385223527126e-11 2.231927993611244e-11 1.704081334147692e-11 2.2524439241399715e-11 1.327612890136999e-11
          1.5167170617155115e-11 1.0523519373221101e-10 1.562381124977537e-11 5.0010547582536004e-11 9.180981804505825e-12 1.1670414919231342e-10
          1.8044975595305992e-11 5.267887626047562e-11 1.1632577485330562e-11 6.399687563031157e-12 1.3608858523721505e-11 4.220565794781131e-12
          2.0933227138235526e-11 1.9833560766124545e-11 1.4925259747275434e-11 1.0308487263847802e-11 1.5753575540269007e-11 1.6351009690498934e-11
          9.264714206744016e-12 1.875799354479506e-11 5.532061471687787e-12 1.6948443840728865e-11 1.0164526553433873e-11 6.97428607571251e-12
          6.7993851134759085e-12 6.241160615485004e-12 3.671732255023158e-12 5.682936117494098e-12 4.55701903789329e-10 2.628763812888834e-10
          4.121450280006213e-10 3.1662051296290635e-10 1.1288762838272406e-10 2.2861625094478329e-10 2.3822653011321173e-10 3.172060719905274e-10
          2.518016385630872e-10 1.8398599858180227e-10 2.7841343660983996e-10 1.1054704687344768e-10 2.03299650739563e-10 1.487016305434595e-10
          2.163177835959657e-10 1.520702526185752e-10 7.838700871156408e-11 1.4364325900468666e-10 6.512152132243375e-11 1.0602451734160459e-10
          1.5599932658311794e-10 2.916665911664321e-10 4.5140471304926175e-10 4.2622068453801555e-10 3.8102967646487025e-10 6.209245618738297e-10
          1.0015736898930649e-10 1.3396968144411644e-10 1.1739658898963115e-10 2.1869265551064158e-10 7.603315039969754e-11 1.0318809119300184e-10
          9.047082732645817e-11 1.7321884776936928e-10 3.438826189963528e-10 3.1113071223256466e-10 5.186558042579927e-10 2.8087488962442004e-10
          2.523847271391041e-10 4.368149783635361e-10 8.926384999625769e-10 8.514576096408213e-10 7.840467728188958e-10 1.0120839565336464e-9
          1.10350424121142e-9 1.0793798537463994e-9 1.029969610044278e-9 1.0897048441072896e-9 7.331847447908735e-10 6.841306128912132e-10
          9.202466597414455e-10 6.352379795837082e-10 8.136065283593215e-10 9.790677142598763e-10 9.269477829214438e-10 9.648619109729718e-10
          8.729906515255422e-10 8.612693644691929e-10 1.3279419990740727e-10 2.541033889524472e-10 9.304600940380951e-11 1.2221646122834113e-10
          9.57395934609797e-11 1.1739273315087099e-10 9.332962259246e-11 2.3043423493216183e-10 1.9306438161631e-10 1.7703757484494036e-10
          8.595548669893486e-11 1.00605024612761e-10 8.670814194892293e-11 1.473267960087954e-10 7.331833634620694e-11 8.834492042681467e-11
          5.4696179375399436e-11 6.912668402493687e-11 6.403551467912712e-11 7.556174384475593e-11 5.821974180930157e-11 1.3135742919305352e-10
          1.065592691312024e-10 1.0376689168619856e-10 3.5813371712056e-10 2.7603419037995815e-10 5.119262049847001e-10 3.348081418374507e-10
          2.9464311077542224e-10 2.5539780225150553e-10 2.2085112839525326e-10 4.836651535794413e-10 4.3457604240241746e-10 3.649922241087543e-10
          2.065736631630501e-10 1.4709405650309512e-10 2.876339723560918e-10 1.8903833482119933e-10 1.6051609510918107e-10 1.3383274244869612e-10
          1.1234957398086754e-10 2.669527863601301e-10 2.3251019919132284e-10 1.8765904748929142e-10 7.825344269231221e-11 1.0420921551356962e-10
          6.776163483592646e-11 9.086949026537069e-11 5.965662599009674e-11 7.88545357155838e-11 6.836274823930431e-11 1.6888313168195688e-10
          1.4945311460985988e-10 1.26449637313467e-10 5.888911385324234e-11 7.955020663242701e-11 5.109019369802518e-11 6.951659025960008e-11
          4.451870003016229e-11 5.965049354465582e-11 5.2005011796222724e-11 1.324636364088887e-10 1.170745432801495e-10 9.815904204315436e-11
          4.4894077803862877e-11 5.760819816537398e-11 3.8263190969196956e-11 4.95467336667819e-11 3.891979473878957e-11 4.803952509871699e-11
          4.108087366234817e-11 9.142011385567804e-11 7.994079875641454e-11 7.123885013491521e-11 3.33713454774587e-11 4.3235634268498844e-11
          2.9168192815666566e-11 3.7759569066778385e-11 2.893936659429817e-11 3.5906525781526174e-11 3.1453153181503624e-11 7.0243599224731e-11
          6.163265902559696e-11 5.443153350275776e-11 2.637942484468196e-10 2.3725296559156644e-10 1.9583080943794347e-10 1.749877780098734e-10
          3.959920703471493e-10 3.617295590198271e-10 2.9187058370665386e-10 2.1311410549269766e-10 1.9064448218738026e-10 1.563705433492975e-10
          1.392569953843808e-10 3.294515797701209e-10 2.985372766174897e-10 2.396619553105108e-10 1.4101738186468594e-10 1.2519883753855968e-10
          9.791624965297757e-11 8.642670853228741e-11 2.077826040709523e-10 1.8707615623631154e-10 1.430837747632667e-10 1.112842578158614e-10
          9.863736797309954e-11 7.641057570144573e-11 6.740177258412169e-11 1.6833096588459003e-10 1.5089776634880005e-10 1.1439059771367654e-10
          8.663203473158574e-11 1.0118337341003311e-10 7.028460316529127e-11 1.3767037681564606e-10 7.714386214260976e-11 9.189387574627452e-11
          6.227834840994428e-11 7.65878560231825e-11 5.308185266680422e-11 6.291246388719648e-11 5.122576855595237e-11 1.2695363950599677e-10
          1.0877855691329371e-10 8.550088753292872e-11 3.93549376876005e-11 4.619048444349098e-11 3.0626382425999296e-11 6.107839068764863e-11
          3.4857925833976994e-11 4.129235791421368e-11 2.7652730516201356e-11 3.337098364242353e-11 2.3044470985933323e-11 2.7033753663972405e-11
          2.1396348476424484e-11 5.532065492688672e-11 4.5856821072525494e-11 3.5641440957013676e-11 5.3228868578387896e-11 6.617588172533493e-11
          4.6412361003905776e-11 5.805914732976811e-11 3.578061247098956e-11 4.3847682405934067e-11 3.821898194031302e-11 9.553330874114985e-11
          8.479454166637868e-11 6.209363092642389e-11 4.051181145414672e-11 5.105294530519406e-11 3.5328417658364656e-11 4.4830679692872e-11
          2.6936828456815292e-11 3.3425141927775495e-11 2.922012213103798e-11 7.539549817210672e-11 6.688448561047475e-11 4.8360828060848635e-11
          2.318891753172986e-11 2.825775608315491e-11 1.9943961992722207e-11 2.4444489482367972e-11 1.4986326890616276e-11 1.7952556683859085e-11
          1.541524289342246e-11 3.9433804158187175e-11 3.448089582808989e-11 2.4500865412452908e-11 1.72175502107513e-11 2.125417415114833e-11
          1.489720026512041e-11 1.8495085543861863e-11 1.0986676134708773e-11 1.3324994887448297e-11 1.1540120893605068e-11 3.028979839538343e-11
          2.65877117787623e-11 1.855548939492456e-11 6.99395420217296e-10 5.295487545813463e-10 8.189817435992744e-10 6.626957766214373e-10
          6.031836496268215e-10 4.982622457515374e-10 4.4749067796290386e-10 7.986169638975314e-10 7.553620761858652e-10 6.070792166360093e-10
          3.880855940012584e-10 2.7210269008075083e-10 4.653490264938507e-10 3.619421193520069e-10 3.1990152560664007e-10 2.522768051185841e-10
          2.2032250374678719e-10 4.436693235738579e-10 4.0476949287389975e-10 3.1031547149725843e-10 8.98657088698006e-10 7.032524490674687e-10
          9.37085832669979e-10 8.729333940145695e-10 8.23814935963559e-10 6.76774933980471e-10 6.289631955740914e-10 8.946780681677984e-10
          8.286653053752935e-10 7.016978056283823e-10 5.257171689761013e-10 3.747362675756291e-10 5.553878250899309e-10 5.010249324917944e-10
          4.579097321792861e-10 3.534960178105854e-10 3.1775026939816766e-10 5.234231995833406e-10 4.725339720718387e-10 3.711557417585263e-10
          5.595533750940018e-10 5.18539397801616e-10 4.110175651325093e-10 3.779822223401491e-10 7.098909503445291e-10 6.646700397781305e-10
          5.251414730952231e-10 4.784418250705544e-10 4.389350380834777e-10 3.4641708581961607e-10 3.158440849499659e-10 6.191873686219602e-10
          5.733843164764008e-10 4.512349382429139e-10 2.90707597913509e-10 2.651928740904739e-10 1.9826936749030976e-10 1.7943192152959775e-10
          3.7243695209486723e-10 3.4307010407537155e-10 2.535622163235199e-10 2.41384148838299e-10 2.187182403520371e-10 1.6221473863931847e-10
          1.4608913442770254e-10 3.150243833202613e-10 2.8783301447411384e-10 2.1114089672146575e-10 7.773844280774868e-10 7.310236373969442e-10
          5.878087561859405e-10 5.48496950717837e-10 7.820967868241728e-10 7.359039204594329e-10 6.004433187231695e-10 6.839504041243989e-10
          6.361284921721226e-10 5.095552559439588e-10 4.707163043518587e-10 6.890187991849737e-10 6.413667389590562e-10 5.213561860917358e-10
          4.2330765852146054e-10 3.9171114369660196e-10 2.908261004024935e-10 2.668802362712589e-10 4.3710825508320086e-10 4.0486186887944256e-10
          3.024528054449378e-10 3.6123630661685124e-10 3.314260403650327e-10 2.4432212491879635e-10 2.226602356703126e-10 3.7371145274239753e-10
          3.4318736300120705e-10 2.54621431879077e-10 1.8094323573774805e-10 1.2234021680821296e-10 2.1732780478480052e-10 1.6816798457540415e-10
          1.466177578768511e-10 1.1168124323714258e-10 9.482279431567884e-11 2.0567811527771804e-10 1.842347912425044e-10 1.359217739053778e-10
          7.733615271337005e-11 5.0281344195009555e-11 9.131772188245283e-11 7.079986333770572e-11 5.991881434265762e-11 4.507033361210159e-11
          3.697439944501972e-11 8.493921841453137e-11 7.370231251476276e-11 5.372614466280357e-11 2.4679022996223427e-10 1.6692413508009473e-10
          2.612052802875519e-10 2.342230342965436e-10 2.109932058645446e-10 1.5470412719621223e-10 1.3497611373114425e-10 2.4616241752640513e-10
          2.2009259480761582e-10 1.6266849309768532e-10 1.023885388446373e-10 6.658262147713617e-11 1.0768318917519323e-10 9.577846232134634e-11
          8.389702788981006e-11 6.039940676004389e-11 5.074301681437116e-11 1.0036369462971826e-10 8.760265405900453e-11 6.322734584666799e-11
          1.3076031811506355e-10 1.1743137831420816e-10 8.373470126921735e-11 7.461600624089364e-11 1.6623053081647396e-10 1.5062189213199866e-10
          1.0543902256190208e-10 1.0545905284006686e-10 9.441182563994425e-11 6.656741660487042e-11 5.924410950954999e-11 1.3633118777450495e-10
          1.229467655034994e-10 8.517380108736575e-11 5.228362195430596e-11 4.62074559351354e-11 3.1931766213598085e-11 2.7984253885137988e-11
          6.5043001145906e-11 5.796202642170178e-11 3.9185593998856396e-11 4.0946030340707417e-11 3.6225446050652594e-11 2.462825202913591e-11
          2.1658431013706384e-11 5.172553166554436e-11 4.605912160425872e-11 3.066364571584393e-11 1.9134531490095462e-10 1.741838300897619e-10
          1.2125105319905445e-10 1.0948858046818643e-10 1.9980648178907058e-10 1.821034828668159e-10 1.2682095430077027e-10 1.5832370461431775e-10
          1.4334758156669505e-10 9.881880650773894e-11 8.890061674491182e-11 1.6570622217178726e-10 1.5018925391270964e-10 1.0361664332752566e-10
          7.446350924709327e-11 6.667220641407807e-11 4.4560499099821594e-11 3.954333010117686e-11 7.786724642919211e-11 6.981849717085731e-11
          4.6530398281322643e-11 5.974558384661118e-11 5.340493608307882e-11 3.517381213902634e-11 3.123470840171612e-11 6.264336634432698e-11
          5.6060068324024087e-11 3.6829171754975355e-11 5.741513569719649e-11 7.896861280282432e-11 1.3559244655445862e-10 2.2547708321035904e-10
          3.6025551499778676e-10 4.4229032612731495e-11 6.053367953438434e-11 3.3337653804739306e-11 4.516556878222157e-11 1.0298386988502762e-10
          7.578637045227143e-11 2.50533373118856e-11 3.265593522798093e-11 2.1778995266723732e-11 2.710654409977152e-11 5.3868402779858197e-11
          4.157445107795839e-11 1.6962536550984628e-10 1.233984792467127e-10 2.6891160310594646e-10 2.406810599317242e-10 1.9359119717545125e-10
          8.706299818780365e-11 5.928046095060031e-11 1.345811947607459e-10 1.1934906262641012e-10 9.054048893735135e-11 3.0824134917716395e-11