<?xml version="1.0"?>
<VTKFile type="UnstructuredGrid" version="0.1" byte_order="LittleEndian" header_type="UInt32" compressor="vtkZLibDataCompressor">
  <UnstructuredGrid>
    <Piece NumberOfPoints="324" NumberOfCells="184">
      <PointData>
        <DataArray type="Int32" Name="libmesh_node_id" format="ascii" RangeMin="231" RangeMax="2529">
          309 559 560 561 562 564
          566 567 569 570 571 572
          583 584 585 586 950 951
          952 955 958 960 961 962
          963 964 965 966 967 968
          970 971 972 973 1050 1051
          1053 1056 1058 1059 1060 1061
          1062 1063 1064 1065 1066 1067
          1070 1071 1078 1079 1081 1082
          1315 1316 1319 1320 1321 1324
          1325 1365 1366 1598 1599 1600
          1603 1606 1614 1615 1618 1620
          1622 1623 1624 1625 1626 1627
          1628 1629 1630 1631 1632 1633
          1634 1635 1636 1637 1638 1639
          1640 1641 1642 1643 1644 1645
          1646 1647 1648 1649 1650 1651
          1652 1653 1654 1655 1656 1657
          1658 1659 1660 1661 1662 1663
          1664 1665 1666 1667 1668 1669
          1840 1841 1843 1846 1852 1854
          1856 1867 1868 1870 1873 1881
          1883 1885 1887 1888 1889 1890
          1891 1892 1893 1894 1895 1896
          1897 1898 1899 1900 1901 1902
          1903 1904 1905 1906 1907 1908
          1909 1910 1911 1912 1913 1914
          1915 1916 1917 1918 1919 1920
          1921 1922 1923 1924 1925 1926
          1927 1928 1929 1930 1931 1932
          1933 1934 1935 1936 1937 1938
          1939 1940 1941 1942 1943 1944
          1945 1946 1947 1948 1949 1950
          1951 1952 1953 1954 1961 1962
          1965 1967 2003 2004 2005 2006
          2007 2008 2009 2010 2011 2012
          2013 2014 2015 2016 2017 2018
          2019 2020 2021 2022 2023 2024
          2027 2028 2030 2031 2034 2035
          2347 2348 2349 2350 2354 2355
          2357 2358 2360 2375 2376 2379
          2380 2382 2384 2395 2396 2399
          2401 2402 2404 2415 2417 2419
          2421 2504 2505 2508 2509 2511
          2513 2524 2528 231 563 565
          308 568 741 742 743 744
          969 1322 1323 1326 1080 310
          1367 1368 1369 1370 1371 1372
          1373 1374 1146 1147 1153 1386
          1174 2351 2352 2353 2356 1148
          2359 1149 2377 2378 2381 2383
          1154 2397 2398 2400 1156 2403
          1157 2416 2418 2420 1159 2506
          2507 2510 2512 1175 2525 2529
        </DataArray>
        <DataArray type="Float64" Name="bounds" format="ascii" RangeMin="0" RangeMax="0">
          0 0 0 0 0 0
          0 0 0 0 0 0
          0 0 0 0 0 0
          0 0 0 0 0 0
          0 0 0 0 0 0
          0 0 0 0 0 0
          0 0 0 0 0 0
          0 0 0 0 0 0
          0 0 0 0 0 0
          0 0 0 0 0 0
          0 0 0 0 0 0
          0 0 0 0 0 0
          0 0 0 0 0 0
          0 0 0 0 0 0
          0 0 0 0 0 0
          0 0 0 0 0 0
          0 0 0 0 0 0
          0 0 0 0 0 0
          0 0 0 0 0 0
          0 0 0 0 0 0
          0 0 0 0 0 0
          0 0 0 0 0 0
          0 0 0 0 0 0
          0 0 0 0 0 0
          0 0 0 0 0 0
          0 0 0 0 0 0
          0 0 0 0 0 0
          0 0 0 0 0 0
          0 0 0 0 0 0
          0 0 0 0 0 0
          0 0 0 0 0 0
          0 0 0 0 0 0
          0 0 0 0 0 0
          0 0 0 0 0 0
          0 0 0 0 0 0
          0 0 0 0 0 0
          0 0 0 0 0 0
          0 0 0 0 0 0
          0 0 0 0 0 0
          0 0 0 0 0 0
          0 0 0 0 0 0
          0 0 0 0 0 0
          0 0 0 0 0 0
          0 0 0 0 0 0
          0 0 0 0 0 0
          0 0 0 0 0 0
          0 0 0 0 0 0
          0 0 0 0 0 0
          0 0 0 0 0 0
          0 0 0 0 0 0
          0 0 0 0 0 0
          0 0 0 0 0 0
          0 0 0 0 0 0
          0 0 0 0 0 0
        </DataArray>
        <DataArray type="Float64" Name="gradient_error" format="ascii" RangeMin="1.1987770935124006e-10" RangeMax="3.167632234862017e-8">
          8.866099271172782e-10 4.881978948332473e-9 5.289873636696888e-9 4.154430363116243e-9 3.85803503242634e-9 1.3556743059548075e-9
          5.433484120382822e-9 5.624614517016466e-9 2.825924117052031e-9 2.7925170921204873e-9 6.752773644034306e-10 4.8810918691791465e-9
          3.167632234862017e-8 1.3566931969752437e-8 1.0982054591893156e-8 3.911532233053927e-9 3.1430633198877967e-9 2.165118677908017e-9
          1.9754312718740667e-9 2.8526683653839693e-9 2.4419022947121436e-9 1.3655660763590113e-9 1.2617624196268154e-9 8.885152984600826e-10
          8.1364898988499e-10 5.211746054448729e-10 6.747891479442391e-10 6.138246002006737e-10 1.0181132930294215e-9 1.2566115465574676e-9
          1.3957022228589478e-9 1.1848755031153092e-9 7.619635110986703e-10 1.2930333595366497e-9 1.1008050990082372e-8 9.08986392604454e-9
          5.266194252339823e-9 2.5830927510136205e-8 6.270259888809425e-9 5.0482575664580985e-9 3.0223537802469063e-9 2.399652139886867e-9
          2.734574652515013e-9 1.2591830878652934e-9 2.034864229809737e-8 1.6304781177705195e-8 8.541026669260437e-9 7.988098448369393e-9
          3.288529677418232e-9 2.8436097789826627e-9 2.0973591825224794e-9 1.880840825984475e-9 8.54390702150708e-10 2.2436566375929694e-9
          1.7192549834590053e-9 3.0676285783055267e-9 2.22707254337949e-9 8.036618026947529e-10 1.4191453886417733e-9 7.290557822252825e-10
          1.0689780962423341e-9 2.218931570473429e-10 2.1468379171158582e-10 8.768424417811402e-10 1.391550489445904e-9 1.3475730444872857e-9
          1.226319659049344e-9 2.7251780066289246e-9 7.501642576357928e-10 1.0523959693877174e-9 9.557482202054144e-10 2.0216636570354484e-9
          6.066727959937432e-10 5.880936875227486e-10 9.471532962267453e-10 9.15743545149603e-10 3.988514321895522e-10 6.427158607611677e-10
          6.208617481745052e-10 5.410614184017293e-10 8.303209457201637e-10 5.608447870271674e-10 2.0085028183215914e-9 1.9306900117845718e-9
          1.3395963736022669e-9 1.7157378244815662e-9 2.8361675186982487e-10 2.7419266401098387e-10 4.2251537459686937e-10 4.0774864972843314e-10
          2.3002531043534255e-10 3.30770082782499e-10 3.1918218845626835e-10 2.495181678796218e-10 3.679020413603018e-10 2.873997210383021e-10
          9.440940333301255e-10 9.054575094100841e-10 6.993799937964409e-10 7.991124004374905e-10 5.016396294337427e-10 7.089080769214945e-10
          3.3734741886060173e-10 4.782313279313001e-10 4.906710011157808e-10 6.415080564751225e-10 4.3378071739610846e-10 1.4028087360130943e-9
          9.644795205943844e-10 1.2213352920467095e-9 2.253532348632661e-10 3.1215614528872194e-10 1.8723592673441167e-10 2.4820696798109093e-10
          2.1643871011943149e-10 2.814901327168371e-10 2.2920878801561523e-10 6.472308200757473e-10 4.970425842430393e-10 5.593117170105734e-10
          5.718343528196837e-9 5.475966105906765e-9 4.815732782012756e-9 1.0492708631876515e-8 3.9154902819736795e-9 2.9658438392966933e-9
          7.1958026150090296e-9 1.9539020345717854e-8 1.8580562158305328e-8 1.5925381790580628e-8 3.019922318027355e-8 1.2338241284197115e-8
          8.769638347727846e-9 1.9645785684969707e-8 4.202963358334175e-9 4.013541127319363e-9 3.0123966029669312e-9 2.870664510696256e-9
          3.500680230176018e-9 2.488324140080727e-9 8.448267811136921e-9 8.02368407765083e-9 5.937455313447076e-9 6.879293322850351e-9
          2.0953149880835817e-9 1.993998930309212e-9 1.4000411112028284e-9 1.3314090063234152e-9 1.7212689034647087e-9 1.1463846151743075e-9
          4.455926567985618e-9 4.210396932936956e-9 2.8513869660468058e-9 3.557996676872949e-9 2.806011289869236e-9 1.9758129076325983e-9
          2.0858857228033933e-9 1.4507734332560275e-9 5.355378054646592e-9 3.880098117268738e-9 3.837303043954173e-9 1.3570433216876887e-9
          9.001076467173482e-10 9.865157243150931e-10 6.514734423725973e-10 2.709663490394306e-9 1.8174259963169566e-9 1.8888850946590463e-9
          1.5634690898246522e-8 1.4825174848206721e-8 1.2044049695528288e-8 1.1383420174837374e-8 1.2601892615234834e-8 9.579100269266329e-9
          2.5965576203364305e-8 2.4674313778286033e-8 1.9305314362413443e-8 2.0955074495703383e-8 8.839050358905487e-9 8.323619296886886e-9
          6.138410151846771e-9 5.764395115148389e-9 6.936241198435008e-9 4.768660220385174e-9 1.5323808854702368e-8 1.4496158951246005e-8
          1.0337738894846742e-8 1.2127456801216988e-8 9.598258520256598e-9 7.177710986862308e-9 6.642782600871844e-9 4.866554482117645e-9
          1.5756155489668124e-8 1.2103946188220195e-8 1.0630031012883885e-8 5.1282979885518116e-9 3.4919841450972276e-9 3.4245830174607056e-9
          2.3087670097339653e-9 8.856498292538627e-9 6.140794454256455e-9 5.728140434837178e-9 1.5269997711786567e-9 2.106522554848006e-9
          1.583678436546886e-9 3.6246013378493232e-9 1.0350334922636942e-9 1.4444529516152962e-9 7.056605945338468e-10 9.91080993997062e-10
          8.600991650084774e-10 1.1519154733147933e-9 7.845250750113923e-10 2.5667770836421113e-9 1.7921954573070855e-9 1.8390569256969052e-9
          4.694051025743432e-10 6.665361655306538e-10 3.084787731381808e-10 4.396096998260979e-10 3.8699070365007873e-10 5.242725914119231e-10
          3.464954794370844e-10 1.2229337941096053e-9 8.112806708148614e-10 8.528428352971807e-10 4.2888163393608275e-9 3.0676373559054032e-9
          6.619445274577022e-9 4.84111154318153e-9 2.124299023734825e-9 1.4193184504271113e-9 3.4026840661686324e-9 2.2929500364777795e-9
          5.509616838691621e-10 5.269300718511356e-10 8.913503480191069e-10 8.473850802974001e-10 4.600163869489589e-10 7.291450945401445e-10
          1.954871181282337e-9 1.842850515866612e-9 1.5480425002082546e-9 3.6956170518151073e-10 5.726919793252148e-10 2.755188283646678e-10
          4.153974037108967e-10 1.1700939166877324e-9 8.094908722011835e-10 4.031273791864558e-9 3.778164685516703e-9 3.110326262930441e-9
          7.392378630567292e-9 6.929089556529944e-9 5.667005024315532e-9 2.264975325888941e-9 1.4907316286432384e-9 4.028837149400611e-9
          2.54257188073786e-9 1.9623985954569525e-10 2.8097116909540645e-10 1.6343115866026746e-10 2.2166111291485344e-10 5.204918610275918e-10
          3.612777846741958e-10 9.133231782593082e-10 1.4810493517733989e-9 2.4550202602270226e-9 1.946219676220527e-9 1.1968140484921889e-9
          1.7400946810641953e-9 1.6240530769229928e-9 5.21679940212268e-10 4.699023240730539e-10 3.24127308138127e-10 3.29847095436265e-10
          6.681504787964241e-10 3.8622698076288977e-10 6.58624992478202e-10 5.346482260311178e-10 9.601619026160155e-10 1.5729637406566193e-9
          5.985033348633183e-10 5.410602158585399e-10 1.1987770935124006e-10 2.6688816772899487e-10 2.392159011387346e-10 1.966361821903775e-10
          4.116299637171008e-10 2.1038261702391755e-10 6.538425692993461e-10 5.730250214848105e-10 3.9881603237911524e-10 2.869988593813085e-10
          4.0548034098232086e-10 3.1804470261089874e-10 5.459754416281782e-10 5.191045766991229e-10 4.4738130094585225e-10 1.2069943222171724e-9
          1.1377568264835762e-9 9.559440939372386e-10 2.26188451737346e-10 3.5297661155498907e-10 2.5754317195433556e-10 7.235012970930721e-10
          5.01615127272266e-10 2.505473912765641e-9 2.345532354690505e-9 1.92661135420926e-9 4.666357776695063e-9 4.361044416643578e-9
          3.543015931639468e-9 1.4012387389906978e-9 9.22914841262219e-10 2.503208200607754e-9 1.5750701278745197e-9 1.2438582251095352e-10
          1.7631341095363957e-10 1.4096481098694956e-10 3.237843734234756e-10 3.494093132591305e-10 5.665925470987123e-10 9.179936261083343e-10
        </DataArray>
        <DataArray type="Float64" Name="gradient_matprop_error" format="ascii" RangeMin="0" RangeMax="0">
          0 0 0 0 0 0
          0 0 0 0 0 0
          0 0 0 0 0 0
          0 0 0 0 0 0
          0 0 0 0 0 0
          0 0 0 0 0 0
          0 0 0 0 0 0
          0 0 0 0 0 0
          0 0 0 0 0 0
          0 0 0 0 0 0
          0 0 0 0 0 0
          0 0 0 0 0 0
          0 0 0 0 0 0
          0 0 0 0 0 0
          0 0 0 0 0 0
          0 0 0 0 0 0
          0 0 0 0 0 0
          0 0 0 0 0 0
          0 0 0 0 0 0
          0 0 0 0 0 0
          0 0 0 0 0 0
          0 0 0 0 0 0
          0 0 0 0 0 0
          0 0 0 0 0 0
          0 0 0 0 0 0
          0 0 0 0 0 0
          0 0 0 0 0 0
          0 0 0 0 0 0
          0 0 0 0 0 0
          0 0 0 0 0 0
          0 0 0 0 0 0
          0 0 0 0 0 0
          0 0 0 0 0 0
          0 0 0 0 0 0
          0 0 0 0 0 0
          0 0 0 0 0 0
          0 0 0 0 0 0
          0 0 0 0 0 0
          0 0 0 0 0 0
          0 0 0 0 0 0
          0 0 0 0 0 0
          0 0 0 0 0 0
          0 0 0 0 0 0
          0 0 0 0 0 0
          0 0 0 0 0 0
          0 0 0 0 0 0
          0 0 0 0 0 0
          0 0 0 0 0 0
          0 0 0 0 0 0
          0 0 0 0 0 0
          0 0 0 0 0 0
          0 0 0 0 0 0
          0 0 0 0 0 0
          0 0 0 0 0 0
        </DataArray>
        <DataArray type="Float64" Name="initial_marker" format="ascii" RangeMin="0" RangeMax="2">
          1.5 0 0 0 0 0
          0 0 2 1 0.75 0
          2 2 2 2 0 0
          0 0 2 0 0 0
          0 0 0 0 0 0
          2 2 1.25 1 2 2
          2 2 2 2 2 2
          2 2 2 2 2 2
          0 1.75 0 1.5 1.5 0
          0 0 0 0 0 0
          0 0 0 0 1 1
          1 2 0 0.5 0 1.5
          0 0 1 1 0 1
          1 0 1 1 2 2
          2 2 0 0 1 1
          0 1 1 0 0.75 0.5
          2 2 2 1.75 0 0.5
          0 0.5 0 0 0 1.5
          1.5 1.3333333333333333 0 0.25 0 0
          0 0 0 1.25 1.3333333333333333 1.3333333333333333
          2 2 2 2 2 2
          2 2 2 2 2 2
          2 2 2 2 2 2
          2 2 2 2 2 2
          2 2 2 2 2 2
          2 2 2 2 2 2
          2 2 2 2 2 2
          2 2 1.75 2 2 2
          2 2 2 2 2 2
          2 2 2 2 2 2
          2 2 2 2 2 2
          2 2 2 2 2 2
          2 2 2 2 2 2
          2 2 2 2 1 1.5
          1 2 1 1.5 1 1.5
          0 1 1 2 2 2
          1 1.5 0.5 1.25 0 1
          1 2 2 2 2 2
          2 2 2 2 2 2
          2 2 2 2 2 2
          2 2 2 2 2 1
          1.5 2 2 2 2 2
          2 2 2 2 2 2
          2 0 0.75 0 0.5 1.75
          1.3333333333333333 2 2 0 0 0
          0 0 0 0 0 0
          0 0 0 0 0 0
          0 0 0 0 0 0
          0 0 1 1 0.25 0
          0 2 2 2 2 2
          2 2 1.5 1.75 1.25 2
          2 2 2 2 2 2
          2 2 2 2 2 0
          0.5 0 1.5 0.5 2 2
        </DataArray>
        <DataArray type="Float64" Name="markers_norefine" format="ascii" RangeMin="0" RangeMax="0">
          0 0 0 0 0 0
          0 0 0 0 0 0
          0 0 0 0 0 0
          0 0 0 0 0 0
          0 0 0 0 0 0
          0 0 0 0 0 0
          0 0 0 0 0 0
          0 0 0 0 0 0
          0 0 0 0 0 0
          0 0 0 0 0 0
          0 0 0 0 0 0
          0 0 0 0 0 0
          0 0 0 0 0 0
          0 0 0 0 0 0
          0 0 0 0 0 0
          0 0 0 0 0 0
          0 0 0 0 0 0
          0 0 0 0 0 0
          0 0 0 0 0 0
          0 0 0 0 0 0
          0 0 0 0 0 0
          0 0 0 0 0 0
          0 0 0 0 0 0
          0 0 0 0 0 0
          0 0 0 0 0 0
          0 0 0 0 0 0
          0 0 0 0 0 0
          0 0 0 0 0 0
          0 0 0 0 0 0
          0 0 0 0 0 0
          0 0 0 0 0 0
          0 0 0 0 0 0
          0 0 0 0 0 0
          0 0 0 0 0 0
          0 0 0 0 0 0
          0 0 0 0 0 0
          0 0 0 0 0 0
          0 0 0 0 0 0
          0 0 0 0 0 0
          0 0 0 0 0 0
          0 0 0 0 0 0
          0 0 0 0 0 0
          0 0 0 0 0 0
          0 0 0 0 0 0
          0 0 0 0 0 0
          0 0 0 0 0 0
          0 0 0 0 0 0
          0 0 0 0 0 0
          0 0 0 0 0 0
          0 0 0 0 0 0
          0 0 0 0 0 0
          0 0 0 0 0 0
          0 0 0 0 0 0
          0 0 0 0 0 0
        </DataArray>
        <DataArray type="Float64" Name="markers_mustrefine" format="ascii" RangeMin="0" RangeMax="2">
          1.5 0 0 0 0 0
          0 0 2 1 0.75 0
          2 2 2 2 0 0
          0 0 2 0 0 0
          0 0 0 0 0 0
          2 2 1.25 1 2 2
          2 2 2 2 2 2
          2 2 2 2 2 2
          0 1.75 0 1.5 1.5 0
          0 0 0 0 0 0
          0 0 0 0 1 1
          1 2 0 0.5 0 1.5
          0 0 1 1 0 1
          1 0 1 1 2 2
          2 2 0 0 1 1
          0 1 1 0 0.75 0.5
          2 2 2 1.75 0 0.5
          0 0.5 0 0 0 1.5
          1.5 1.3333333333333333 0 0.25 0 0
          0 0 0 1.25 1.3333333333333333 1.3333333333333333
          2 2 2 2 2 2
          2 2 2 2 2 2
          2 2 2 2 2 2
          2 2 2 2 2 2
          2 2 2 2 2 2
          2 2 2 2 2 2
          2 2 2 2 2 2
          2 2 1.75 2 2 2
          2 2 2 2 2 2
          2 2 2 2 2 2
          2 2 2 2 2 2
          2 2 2 2 2 2
          2 2 2 2 2 2
          2 2 2 2 1 1.5
          1 2 1 1.5 1 1.5
          0 1 1 2 2 2
          1 1.5 0.5 1.25 0 1
          1 2 2 2 2 2
          2 2 2 2 2 2
          2 2 2 2 2 2
          2 2 2 2 2 1
          1.5 2 2 2 2 2
          2 2 2 2 2 2
          2 0 0.75 0 0.5 1.75
          1.3333333333333333 2 2 0 0 0
          0 0 0 0 0 0
          0 0 0 0 0 0
          0 0 0 0 0 0
          0 0 1 1 0.25 0
          0 2 2 2 2 2
          2 2 1.5 1.75 1.25 2
          2 2 2 2 2 2
          2 2 2 2 2 0
          0.5 0 1.5 0.5 2 2
        </DataArray>
        <DataArray type="Float64" Name="gradient_marker" format="ascii" RangeMin="1" RangeMax="1">
          1 1 1 1 1 1
          1 1 1 1 1 1
          1 1 1 1 1 1
          1 1 1 1 1 1
          1 1 1 1 1 1
          1 1 1 1 1 1
          1 1 1 1 1 1
          1 1 1 1 1 1
          1 1 1 1 1 1
          1 1 1 1 1 1
          1 1 1 1 1 1
          1 1 1 1 1 1
          1 1 1 1 1 1
          1 1 1 1 1 1
          1 1 1 1 1 1
          1 1 1 1 1 1
          1 1 1 1 1 1
          1 1 1 1 1 1
          1 1 1 1 1 1
          1 1 1 1 1 1
          1 1 1 1 1 1
          1 1 1 1 1 1
          1 1 1 1 1 1
          1 1 1 1 1 1
          1 1 1 1 1 1
          1 1 1 1 1 1
          1 1 1 1 1 1
          1 1 1 1 1 1
          1 1 1 1 1 1
          1 1 1 1 1 1
          1 1 1 1 1 1
          1 1 1 1 1 1
          1 1 1 1 1 1
          1 1 1 1 1 1
          1 1 1 1 1 1
          1 1 1 1 1 1
          1 1 1 1 1 1
          1 1 1 1 1 1
          1 1 1 1 1 1
          1 1 1 1 1 1
          1 1 1 1 1 1
          1 1 1 1 1 1
          1 1 1 1 1 1
          1 1 1 1 1 1
          1 1 1 1 1 1
          1 1 1 1 1 1
          1 1 1 1 1 1
          1 1 1 1 1 1
          1 1 1 1 1 1
          1 1 1 1 1 1
          1 1 1 1 1 1
          1 1 1 1 1 1
          1 1 1 1 1 1
          1 1 1 1 1 1
        </DataArray>
        <DataArray type="Float64" Name="gradient_matprop_marker" format="ascii" RangeMin="0" RangeMax="0">
          0 0 0 0 0 0
          0 0 0 0 0 0
          0 0 0 0 0 0
          0 0 0 0 0 0
          0 0 0 0 0 0
          0 0 0 0 0 0
          0 0 0 0 0 0
          0 0 0 0 0 0
          0 0 0 0 0 0
          0 0 0 0 0 0
          0 0 0 0 0 0
          0 0 0 0 0 0
          0 0 0 0 0 0
          0 0 0 0 0 0
          0 0 0 0 0 0
          0 0 0 0 0 0
          0 0 0 0 0 0
          0 0 0 0 0 0
          0 0 0 0 0 0
          0 0 0 0 0 0
          0 0 0 0 0 0
          0 0 0 0 0 0
          0 0 0 0 0 0
          0 0 0 0 0 0
          0 0 0 0 0 0
          0 0 0 0 0 0
          0 0 0 0 0 0
          0 0 0 0 0 0
          0 0 0 0 0 0
          0 0 0 0 0 0
          0 0 0 0 0 0
          0 0 0 0 0 0
          0 0 0 0 0 0
          0 0 0 0 0 0
          0 0 0 0 0 0
          0 0 0 0 0 0
          0 0 0 0 0 0
          0 0 0 0 0 0
          0 0 0 0 0 0
          0 0 0 0 0 0
          0 0 0 0 0 0
          0 0 0 0 0 0
          0 0 0 0 0 0
          0 0 0 0 0 0
          0 0 0 0 0 0
          0 0 0 0 0 0
          0 0 0 0 0 0
          0 0 0 0 0 0
          0 0 0 0 0 0
          0 0 0 0 0 0
          0 0 0 0 0 0
          0 0 0 0 0 0
          0 0 0 0 0 0
          0 0 0 0 0 0
        </DataArray>
        <DataArray type="Float64" Name="combo" format="ascii" RangeMin="1" RangeMax="1">
          1 1 1 1 1 1
          1 1 1 1 1 1
          1 1 1 1 1 1
          1 1 1 1 1 1
          1 1 1 1 1 1
          1 1 1 1 1 1
          1 1 1 1 1 1
          1 1 1 1 1 1
          1 1 1 1 1 1
          1 1 1 1 1 1
          1 1 1 1 1 1
          1 1 1 1 1 1
          1 1 1 1 1 1
          1 1 1 1 1 1
          1 1 1 1 1 1
          1 1 1 1 1 1
          1 1 1 1 1 1
          1 1 1 1 1 1
          1 1 1 1 1 1
          1 1 1 1 1 1
          1 1 1 1 1 1
          1 1 1 1 1 1
          1 1 1 1 1 1
          1 1 1 1 1 1
          1 1 1 1 1 1
          1 1 1 1 1 1
          1 1 1 1 1 1
          1 1 1 1 1 1
          1 1 1 1 1 1
          1 1 1 1 1 1
          1 1 1 1 1 1
          1 1 1 1 1 1
          1 1 1 1 1 1
          1 1 1 1 1 1
          1 1 1 1 1 1
          1 1 1 1 1 1
          1 1 1 1 1 1
          1 1 1 1 1 1
          1 1 1 1 1 1
          1 1 1 1 1 1
          1 1 1 1 1 1
          1 1 1 1 1 1
          1 1 1 1 1 1
          1 1 1 1 1 1
          1 1 1 1 1 1
          1 1 1 1 1 1
          1 1 1 1 1 1
          1 1 1 1 1 1
          1 1 1 1 1 1
          1 1 1 1 1 1
          1 1 1 1 1 1
          1 1 1 1 1 1
          1 1 1 1 1 1
          1 1 1 1 1 1
        </DataArray>
        <DataArray type="Float64" Name="dHdT" format="ascii" RangeMin="25.816289104910567" RangeMax="35.58697120287154">
          25.944085533988396 25.84806506050552 25.8463406711648 25.892894487588467 25.878436127162182 25.83329170096448
          25.841728439520203 25.865388073167555 26.495334761943237 26.205187323152103 25.888499509666214 25.95283152808445
          35.58697120287154 29.429905270959107 28.502481235918793 26.631118993305392 25.929337976500403 25.997803337619967
          25.98220402802177 25.96309459261112 26.40578328604329 25.872261012666055 25.86858564889321 25.89598050139256
          25.889299808029346 25.838363273338732 25.852154985371943 25.849000900524054 25.860671842639785 25.882652039054847
          26.13322858242298 26.087765629095106 25.925207122356312 25.991956314034184 28.627857593937637 28.05044800103848
          27.064097526227798 33.69810433519221 27.225915697185187 26.93498091749238 26.454911724761722 26.32011840721631
          26.424422286202173 26.083836137232247 32.03760689290881 30.22179031483534 27.72145377374199 27.613615277865513
          26.041403287692695 26.374740766780477 25.92679012033734 26.076192935588963 25.928340352809148 25.905485149002136
          25.893513930972027 25.940496145672448 25.917822129516317 25.853620577986515 25.874664639716432 25.85080775581382
          25.86559571770522 25.82528187883306 25.82466261484581 26.051846073078266 26.16538677405358 26.155298878126978
          26.127521176375332 26.471326868745592 26.01470839097809 26.091951233598817 26.07407109664735 26.31629356458229
          25.97460178537459 25.97064441952724 26.04922336619712 26.04225737424568 25.91707073750275 25.970133705710126
          25.96538766136746 25.959821447672912 26.02335258412161 25.952682484878686 26.284494112050464 26.266926496410818
          26.120841758132098 26.21966787769695 25.883767536486854 25.881962651364987 25.916641083140036 25.913417874617405
          25.868554954586955 25.895323289399187 25.892693088472512 25.87730412081682 25.905016823574453 25.885992826508332
          26.024935970877348 26.016525815520843 25.965898650362437 25.99426803996118 25.94693536857751 25.9995409006739
          25.901908598544146 25.936953210445672 25.94091489548909 25.987668015398818 25.929183068158782 26.15623936083856
          26.043759346965903 26.120090803853284 25.871994707356173 25.894659399278922 25.860468381518636 25.877879829653715
          25.869538939321835 25.88947981750372 25.873836893836597 25.96486731382171 25.926303639659594 25.94861373390452
          27.177536333561363 27.117680325449545 26.957548788289802 28.465045401795475 26.74433122536152 26.52531528335738
          27.54123221096754 31.84666191324213 31.430496114020848 30.334743109101794 35.093122672989836 29.032183615947886
          27.960551349257262 31.577754527566505 26.7803045262516 26.736096874965906 26.485537765777273 26.453909093715094
          26.6185819251524 26.37000108439347 27.821722806137082 27.706216812912725 27.14492227379426 27.40943426129169
          26.267316459026308 26.24546511177811 26.110118166662744 26.09566984373359 26.187668260744346 26.05742461622804
          26.781558001960203 26.72560056835963 26.417348767780812 26.58040187708768 26.463086235755174 26.25941547338571
          26.305200406487835 26.148346095840665 27.040982891202276 26.672042709400287 26.694322442373643 26.11182352885778
          26.007452591257042 26.036378271521052 25.958242557082304 26.398105474100365 26.198236728521625 26.22650909512242
          30.190640281957158 29.848633769275438 28.816596337698098 28.59264441544649 29.019949086490914 28.045359519694724
          33.91955956989072 33.41544796382175 31.52855255926985 31.968551461009696 27.844545764669945 27.698895397391347
          27.15333852574009 27.05886983618663 27.337625338921274 26.823204025388918 30.061791558689194 29.67293342111615
          28.272087125586054 28.757121715375888 28.1012999624748 27.421200394575493 27.34522507388172 26.88925525822005
          30.026931011104192 28.742344187290335 28.381779031618805 26.915642596120463 26.544322398069436 26.548795592740753
          26.29915319278513 27.79090939921773 27.117722077741522 27.04623707755153 26.200311565300787 26.331803467580585
          26.22033044952622 26.675142037521063 26.077071590820385 26.16956248988266 25.99132540503297 26.055345438725745
          26.038874464189696 26.109622011675405 26.01510788540756 26.413817795426233 26.226311076574383 26.259594461505333
          25.9316449356079 25.974477718058335 25.89074848656113 25.91835879731033 25.91607708527302 25.94812319383134
          25.901509951318477 26.090459917609177 25.993889625101822 26.01726416013715 26.797043036539158 26.498150772278084
          27.34577368386945 26.888063270145675 26.277546338504436 26.117791977685364 26.54745915493344 26.29831556372161
          25.931581795312795 25.926515515319636 26.001737233479396 25.992510227890136 25.91327946186681 25.968171377316473
          26.221420101204902 26.197412637790322 26.135177636386 25.895588940175553 25.936441014356827 25.877566563849605
          25.905271965411472 26.057202986997794 25.98429586977093 26.666346393246172 26.606705838877534 26.45715059690508
          27.489585643950157 27.352863728782395 27.019798949583837 26.279036854822863 26.12182903079036 26.644281054118913
          26.334945011052625 25.86289565593067 25.880123308395593 25.856726376106096 25.869525182349822 25.927441585477514
          25.897411370553613 26.005875070946907 26.12149448967275 25.82096328898779 25.825234882054197 25.8303115012647
          25.8185058783222 25.827959672091335 25.81653843148404 25.816289104910567 25.817648321277066 25.817027307620393
          25.84546917078973 25.83279416138298 25.84189550740124 25.838444633892482 25.864585487549533 25.851003036261588
          25.835703884974368 25.833734786597383 25.818472681346186 25.822812874091536 25.821971634392654 25.823362929394364
          25.829528250335635 25.82128141231932 25.866920048031613 25.85956966292303 25.844689710177242 25.825893737621158
          25.834637182588867 25.88458515259911 25.929245572018672 25.92361653088939 25.908793242478474 26.061936144693316
          26.047264864558475 26.009346925044007 25.86514741926441 25.889372600675195 25.87018391767009 25.961928030836933
          25.917698806632977 26.333217638323212 26.297060389038514 26.20606120961243 26.826448995259646 26.746052178670066
          26.547812994013732 26.097291236112778 26.001339373538507 26.32089741308701 26.132003031395453 25.84436518995679
          25.854727953252823 25.848234277319023 25.88333307776086 25.858656587938704 25.930904662266215 26.001380629264617
        </DataArray>
        <DataArray type="Float64" Name="dk/dtemperature" format="ascii" RangeMin="0.008061392007327079" RangeMax="0.015804580349343195">
          0.015804580349343192 0.015804580349343195 0.015804580349343195 0.015804580349343192 0.015804580349343192 0.015804580349343192
          0.015804580349343195 0.015804580349343192 0.015019207234842537 0.015410195484060545 0.015804580349343192 0.015804580349343192
          0.008061392007327079 0.012013258978352892 0.01278296567621712 0.014794399026065299 0.01580458034934319 0.015762814551807676
          0.015794138899959315 0.01578369745057543 0.01511506728822224 0.01580458034934319 0.01580458034934319 0.015804580349343192
          0.01580458034934319 0.01580458034934319 0.01580458034934319 0.015804580349343192 0.01580458034934319 0.015804580349343192
          0.015553985564130103 0.01565840005796889 0.015804580349343192 0.015773256001191553 0.012670753242513419 0.01317823284268894
          0.014239991561399202 0.009039936749534891 0.014124001715797403 0.01440963451225061 0.015121231517376574 0.015274267941177642
          0.015116954297147036 0.015647958608585012 0.01020280350592944 0.011478481497577412 0.01351789360064035 0.013662501384577324
          0.015710607304888283 0.015140919310491965 0.015804580349343192 0.015679282956736647 0.015804580349343192 0.015804580349343192
          0.015804580349343192 0.015783697450575434 0.015804580349343192 0.015804580349343192 0.015804580349343192 0.015804580349343192
          0.015804580349343192 0.015804580349343192 0.015804580349343192 0.01574193165303992 0.01551221976659459 0.01552266121597847
          0.01558530991228174 0.015028453578574043 0.015804580349343192 0.015647958608585012 0.01565840005796889 0.015250302927832717
          0.015804580349343195 0.015804580349343195 0.015721048754272163 0.015721048754272163 0.015804580349343192 0.015804580349343192
          0.015804580349343192 0.015804580349343192 0.01574193165303992 0.015804580349343192 0.015331444311599003 0.015361573554098267
          0.015595751361665617 0.015432273488480672 0.015804580349343192 0.015804580349343192 0.015804580349343192 0.015804580349343192