<?xml version="1.0"?>
<VTKFile type="UnstructuredGrid" version="0.1" byte_order="LittleEndian" header_type="UInt32" compressor="vtkZLibDataCompressor">
  <UnstructuredGrid>
    <Piece NumberOfPoints="343" NumberOfCells="185">
      <PointData>
        <DataArray type="Int32" Name="libmesh_node_id" format="ascii" RangeMin="304" RangeMax="2185">
          304 306 314 549 550 551
          557 575 589 938 939 940
          941 944 946 947 948 949
          953 954 956 957 959 984
          985 986 987 988 990 991
          992 993 1011 1024 1025 1026
          1027 1028 1030 1031 1032 1033
          1041 1045 1048 1049 1054 1055
          1088 1089 1090 1091 1094 1095
          1096 1589 1590 1591 1592 1593
          1594 1595 1596 1597 1601 1602
          1604 1605 1607 1608 1609 1610
          1611 1612 1613 1616 1617 1619
          1621 1686 1688 1689 1690 1691
          1693 1695 1696 1697 1768 1769
          1771 1774 1776 1777 1778 1779
          1780 1781 1782 1783 1784 1785
          1787 1789 1791 1793 1794 1795
          1796 1797 1798 1799 1802 1803
          1805 1808 1810 1811 1812 1813
          1814 1815 1816 1817 1818 1819
          1821 1823 1825 1827 1828 1829
          1830 1831 1832 1833 1834 1835
          1836 1837 1838 1839 1842 1844
          1845 1847 1848 1849 1850 1851
          1853 1855 1858 1859 1860 1861
          1862 1863 1864 1865 1866 1869
          1871 1872 1874 1875 1877 1878
          1879 1880 1884 1955 1956 1959
          1960 2057 2058 2059 2060 2061
          2062 2063 2064 2065 2066 2067
          2068 2069 2070 2071 2072 2073
          2074 2075 2076 2077 2078 2079
          2081 2082 2083 2084 2085 2088
          2089 2091 2092 2093 2094 2095
          2096 2097 2098 2099 2100 2101
          2102 2103 2104 2105 2106 2107
          2108 2109 2110 2111 2112 2113
          2115 2116 2117 2118 2119 2122
          2123 559 560 561 562 950
          951 952 955 989 576 1012
          1029 1042 581 1046 1052 1057
          1068 1006 1069 1007 1316 1314
          570 1070 1598 1599 1600 1603
          569 1606 958 1614 1615 1618
          1620 1840 1841 1843 1050 1846
          1051 1852 1854 1856 1857 1053
          1867 1868 1870 583 1873 1056
          1881 1882 1876 1883 1885 1886
          584 1961 1962 1963 1964 1957
          1965 1966 1958 1967 1968 1071
          2080 1092 2086 2087 2090 1093
          2114 1097 2120 2121 2124 590
          1927 1928 2125 2126 1930 2129
          2131 2132 2134 1945 2145 1947
          2147 2149 2151 2159 2160 2163
          2165 2166 2168 2179 2181 2183
          2185
        </DataArray>
        <DataArray type="Float64" Name="bounds" format="ascii" RangeMin="0" RangeMax="0">
          0 0 0 0 0 0
          0 0 0 0 0 0
          0 0 0 0 0 0
          0 0 0 0 0 0
          0 0 0 0 0 0
          0 0 0 0 0 0
          0 0 0 0 0 0
          0 0 0 0 0 0
          0 0 0 0 0 0
          0 0 0 0 0 0
          0 0 0 0 0 0
          0 0 0 0 0 0
          0 0 0 0 0 0
          0 0 0 0 0 0
          0 0 0 0 0 0
          0 0 0 0 0 0
          0 0 0 0 0 0
          0 0 0 0 0 0
          0 0 0 0 0 0
          0 0 0 0 0 0
          0 0 0 0 0 0
          0 0 0 0 0 0
          0 0 0 0 0 0
          0 0 0 0 0 0
          0 0 0 0 0 0
          0 0 0 0 0 0
          0 0 0 0 0 0
          0 0 0 0 0 0
          0 0 0 0 0 0
          0 0 0 0 0 0
          0 0 0 0 0 0
          0 0 0 0 0 0
          0 0 0 0 0 0
          0 0 0 0 0 0
          0 0 0 0 0 0
          0 0 0 0 0 0
          0 0 0 0 0 0
          0 0 0 0 0 0
          0 0 0 0 0 0
          0 0 0 0 0 0
          0 0 0 0 0 0
          0 0 0 0 0 0
          0 0 0 0 0 0
          0 0 0 0 0 0
          0 0 0 0 0 0
          0 0 0 0 0 0
          0 0 0 0 0 0
          0 0 0 0 0 0
          0 0 0 0 0 0
          0 0 0 0 0 0
          0 0 0 0 0 0
          0 0 0 0 0 0
          0 0 0 0 0 0
          0 0 0 0 0 0
          0 0 0 0 0 0
          0 0 0 0 0 0
          0 0 0 0 0 0
          0
        </DataArray>
        <DataArray type="Float64" Name="gradient_error" format="ascii" RangeMin="7.501642576357928e-10" RangeMax="1.944429196282359e-7">
          9.962170808251888e-9 9.192226996931824e-8 2.478161826631007e-8 1.1325497016838279e-8 5.295698911929507e-8 4.30963985493053e-8
          6.642117217752904e-8 1.4784729709474623e-7 3.238767828419694e-8 1.1931178797206854e-8 1.69331025501431e-8 1.5310904112043013e-8
          1.1929100743607845e-8 5.6768172701465343e-8 9.11653756689875e-9 8.235941427980734e-9 1.0183152536591681e-8 9.216165900257891e-9
          6.249706287672985e-9 7.990280756794462e-9 2.6196368530364416e-8 2.3578315330197476e-8 1.7992135976205207e-8 1.830200492927163e-7
          1.6365765262563993e-7 1.6428520548399518e-7 1.4476343877018748e-7 1.1540212463406495e-7 1.5553705933717496e-7 1.4044180207071495e-7
          1.3028477950178893e-7 1.4260845280808084e-7 1.193186424919537e-7 4.033942417671911e-8 4.590407730541635e-8 4.4639853482002706e-8
          5.133377908045709e-8 1.4447952665188863e-7 2.0782047135874202e-8 4.552455799678678e-8 5.083552145763154e-8 1.6168637414991135e-7
          1.7257526245540043e-7 1.944429196282359e-7 8.403117863014765e-8 7.306102894394e-8 8.897255138848524e-8 7.629980722954789e-8
          4.541467457833695e-8 5.203251648161395e-8 4.2267158452433544e-8 4.524314590866819e-8 3.2410520334310726e-8 5.219150865732596e-8
          4.79570171979186e-8 1.849562987337956e-9 2.298738217061043e-9 2.226789800125046e-9 2.058277165066266e-9 4.691797940020638e-9
          1.4988292806735088e-9 1.453201671323609e-9 1.979351829305228e-9 1.917928592074412e-9 1.3377265930048256e-9 1.76177990204833e-9
          4.079916584328274e-9 3.93571025880161e-9 3.5662592784230436e-9 1.4762860320555814e-9 1.7622099359460552e-9 1.5627069249486268e-9
          3.603194232039334e-9 1.1922797915943824e-9 1.5147715270723738e-9 1.1166804591528226e-9 1.3624886048916842e-9 2.9965163276214404e-9
          2.6978846178492925e-9 4.711592098446344e-8 4.94308438690722e-8 4.94371556738824e-8 5.0593203709046585e-8 4.723855433778463e-8
          4.088399735781329e-8 4.0423640814192755e-8 3.8684557013473435e-8 3.581364043150885e-8 4.5203815644671174e-8 4.5594854319185525e-8
          4.5994086820948147e-8 4.267471156012117e-8 4.769402542600929e-8 4.813685261980093e-8 4.9031511209069276e-8 4.960778188186678e-8
          4.811379710333886e-8 4.900700269793934e-8 4.294271452281736e-8 4.552396433034277e-8 4.74480113928084e-8 4.906255626962118e-8
          4.3643356681730666e-8 4.128443271526493e-8 4.7232093142352134e-8 4.418951535163287e-8 4.335982541717455e-8 4.073111631018057e-8
          3.888969799313471e-8 4.9412914048130556e-8 5.026692287357276e-8 4.880592969488695e-8 2.896352554894441e-8 3.653139988177379e-8
          4.571987632214965e-8 3.1787164297212854e-8 3.0737580952934015e-8 3.909226225596572e-8 3.350573392949263e-8 4.160892108881039e-8
          4.891065007269124e-8 5.1169350012314184e-8 2.1546939843179703e-8 3.3973145416965354e-8 3.694417944669099e-8 4.868522747503322e-8
          4.852050751600591e-8 4.9700536602315666e-8 4.8979544752955585e-8 5.1419291902304324e-8 5.3108064868892216e-8 5.246422721822361e-8
          5.3589537961284206e-8 5.196814559742052e-8 5.371737781151457e-8 5.296518723552561e-8 8.366604309483585e-9 8.050509386016675e-9
          7.33337298748179e-9 1.5492042881701196e-8 7.466096646913328e-9 7.173167864342905e-9 6.445718935878473e-9 1.4414510267712307e-8
          1.3661426631727083e-8 1.1917926263793498e-8 6.245221597396779e-9 4.896693830640667e-9 1.1065293623395266e-8 5.398481710362514e-9
          4.1888189273093684e-9 9.642019001149596e-9 2.6812046212258827e-8 2.5108900014181315e-8 2.174768283694782e-8 5.084416890588455e-8
          4.981979743291464e-8 4.073799080808043e-8 4.463457578407985e-8 2.418763766182417e-8 2.282136497992643e-8 1.9702480563488292e-8
          3.646085981923612e-8 3.480419604505957e-8 3.015152551943479e-8 1.7684421968340413e-8 3.565572095760614e-8 2.823048108744315e-8
          3.0837716306997275e-8 1.5733793519546115e-8 2.3526385916017983e-8 2.978961073616092e-9 3.6817612493354633e-9 2.408062554984795e-9
          3.096401276056797e-9 4.917652284622454e-8 4.9740461603209926e-8 4.807829019287244e-8 4.841731206243534e-8 4.840371894323605e-8
          4.620868862183157e-8 4.548805361193607e-8 4.837701034652881e-8 4.83080802767752e-8 5.2466316675140544e-8 4.5755141098771146e-8
          4.566343783662901e-8 4.1987033674084746e-8 4.1321643433967384e-8 4.2445597520046045e-8 3.721673473265739e-8 4.423726670024214e-8
          4.7048345376588055e-8 4.453711748950571e-8 4.961713696685583e-8 4.111829465831666e-8 3.782428145800255e-8 3.573355179035654e-8
          4.951984423242535e-8 4.7075576197770826e-8 4.537302219569114e-8 3.367290091202834e-8 2.869885390133249e-8 4.2957208445216166e-8
          3.738407718092784e-8 3.618373087222666e-8 4.3323544871000596e-8 3.7708485373811914e-8 4.3700975480020835e-8 5.24396704891521e-8
          5.245711502224614e-8 2.8900231307145725e-8 3.955419482244882e-8 4.079100520417351e-8 5.211956973041536e-8 3.756709286140205e-8
          4.282670568539891e-8 3.578702480179926e-8 4.098437477488035e-8 5.094707993360613e-8 4.7804078886150425e-8 3.402670417272066e-8
          4.0452651621067086e-8 3.863494197674366e-8 5.0761891060115374e-8 5.325610653261206e-8 5.169368606438317e-8 5.2096230956694444e-8
          5.40533929594006e-8 5.2824283648285915e-8 5.407580479572241e-8 4.83489125378147e-8 4.308109509654374e-8 4.990118124204334e-8
          4.4927330533349616e-8 4.881978948332473e-9 5.289873636696888e-9 4.154430363116243e-9 3.85803503242634e-9 3.1430633198877967e-9
          2.165118677908017e-9 1.9754312718740667e-9 2.8526683653839693e-9 9.79131980782663e-8 1.2459851481075492e-7 1.002422643526129e-7
          1.317763199426081e-7 1.4982562533922264e-7 1.5133104202426277e-7 1.7085548287990503e-7 4.8015477911347544e-8 6.52865513632216e-8
          1.1565701511646486e-8 2.5084828137505625e-8 2.4759825485844214e-8 5.2082434447989944e-8 3.0676285783055267e-9 6.136459140892002e-9
          2.7925170921204873e-9 3.288529677418232e-9 8.768424417811402e-10 1.391550489445904e-9 1.3475730444872857e-9 1.226319659049344e-9
          2.825924117052031e-9 2.7251780066289246e-9 2.4419022947121436e-9 7.501642576357928e-10 1.0523959693877174e-9 9.557482202054144e-10
          2.0216636570354484e-9 5.718343528196837e-9 5.475966105906765e-9 4.815732782012756e-9 1.1008050990082372e-8 1.0492708631876515e-8
          9.08986392604454e-9 3.9154902819736795e-9 2.9658438392966933e-9 7.1958026150090296e-9 7.158831690264406e-9 5.266194252339823e-9
          1.9539020345717854e-8 1.8580562158305328e-8 1.5925381790580628e-8 3.167632234862017e-8 3.019922318027355e-8 2.5830927510136205e-8
          1.2338241284197115e-8 1.1369289134862725e-8 1.2813712042562442e-8 8.769638347727846e-9 1.9645785684969707e-8 1.6631154886123602e-8
          1.3566931969752437e-8 1.5269997711786567e-9 2.106522554848006e-9 1.6833335792711602e-9 2.1327456993166102e-9 2.567628790103302e-9
          1.583678436546886e-9 5.107778519582456e-9 5.976450811779832e-9 3.6246013378493232e-9 3.446185544252288e-9 2.8436097789826627e-9
          2.796780977823653e-8 7.598597740802042e-8 2.3183439417708184e-8 1.9353457701248914e-8 2.968116767482942e-8 2.5203709269336474e-8
          4.1362059347155096e-8 8.962172402753217e-8 3.459120029845506e-8 2.961728175256694e-8 3.648050850277716e-8 3.125356726420273e-8
          2.5965576203364305e-8 2.4674313778286033e-8 3.642521611650537e-8 3.535386346894696e-8 2.0955074495703383e-8 3.0967415714208035e-8
          3.9613192005550925e-8 4.077514625988385e-8 3.926823314120786e-8 1.5756155489668124e-8 2.3361252450183692e-8 1.0630031012883885e-8
          1.546825080834923e-8 3.091378143179327e-8 2.0313762925993954e-8 3.468989205986509e-8 3.915723459351013e-8 4.310763640161474e-8
          3.112208098561458e-8 3.713535322353224e-8 4.3838152827019525e-8 3.625979027084333e-8 2.396982826619621e-8 3.811055416247281e-8
          2.5335470448624508e-8
        </DataArray>
        <DataArray type="Float64" Name="gradient_matprop_error" format="ascii" RangeMin="0" RangeMax="0">
          0 0 0 0 0 0
          0 0 0 0 0 0
          0 0 0 0 0 0
          0 0 0 0 0 0
          0 0 0 0 0 0
          0 0 0 0 0 0
          0 0 0 0 0 0
          0 0 0 0 0 0
          0 0 0 0 0 0
          0 0 0 0 0 0
          0 0 0 0 0 0
          0 0 0 0 0 0
          0 0 0 0 0 0
          0 0 0 0 0 0
          0 0 0 0 0 0
          0 0 0 0 0 0
          0 0 0 0 0 0
          0 0 0 0 0 0
          0 0 0 0 0 0
          0 0 0 0 0 0
          0 0 0 0 0 0
          0 0 0 0 0 0
          0 0 0 0 0 0
          0 0 0 0 0 0
          0 0 0 0 0 0
          0 0 0 0 0 0
          0 0 0 0 0 0
          0 0 0 0 0 0
          0 0 0 0 0 0
          0 0 0 0 0 0
          0 0 0 0 0 0
          0 0 0 0 0 0
          0 0 0 0 0 0
          0 0 0 0 0 0
          0 0 0 0 0 0
          0 0 0 0 0 0
          0 0 0 0 0 0
          0 0 0 0 0 0
          0 0 0 0 0 0
          0 0 0 0 0 0
          0 0 0 0 0 0
          0 0 0 0 0 0
          0 0 0 0 0 0
          0 0 0 0 0 0
          0 0 0 0 0 0
          0 0 0 0 0 0
          0 0 0 0 0 0
          0 0 0 0 0 0
          0 0 0 0 0 0
          0 0 0 0 0 0
          0 0 0 0 0 0
          0 0 0 0 0 0
          0 0 0 0 0 0
          0 0 0 0 0 0
          0 0 0 0 0 0
          0 0 0 0 0 0
          0 0 0 0 0 0
          0
        </DataArray>
        <DataArray type="Float64" Name="initial_marker" format="ascii" RangeMin="0" RangeMax="2">
          0 2 2 0 0.5 0.25
          1.5 2 2 0 1 1
          0.5 2 0 0 0.5 0.5
          0 0.25 2 2 1.25 2
          2 2 2 2 2 2
          2 2 2 2 2 2
          2 2 2 2 2 2
          2 2 2 2 2 2
          2 2 2 2 2 2
          2 0 1 1 1 2
          0 0 1 1 0 1
          2 2 2 0 0.5 0
          1.5 0 0.5 0 0 1.5
          1.3333333333333333 2 2 2 2 2
          2 2 2 2 2 2
          2 2 2 2 2 2
          2 2 2 2 2 2
          2 2 2 2 2 2
          2 2 2 2 2 2
          2 2 2 2 2 2
          2 2 2 2 2 2
          2 2 2 2 2 2
          2 2 2 2 2 2
          2 2 2 2 2 2
          2 2 2 2 2 2
          2 2 2 2 2 2
          2 2 2 2 2 2
          2 2 2 2 2 2
          2 2 2 1 1.5 1
          1.5 2 2 2 2 2
          2 2 2 2 2 2
          2 2 2 2 2 2
          2 2 2 2 2 2
          2 2 2 2 2 2
          2 2 2 2 2 2
          2 2 2 2 2 2
          2 2 2 2 2 2
          2 2 2 2 2 2
          2 2 2 2 2 2
          2 0 0 0 0 0
          0 0 0 2 2 2
          2 2 2 2 2 2
          0.5 1.3333333333333333 2 2 0 0
          1 0 0 1 1 1
          2 2 2 0 0.5 0
          1.5 2 2 2 2 2
          2 2 2 2 2 2
          2 2 2 2 2 2
          2 2 2 2 2 2
          2 1 1.5 0 1 1
          1 2 2 2 2 1.75
          2 2 2 2 2 2
          2 2 2 2 2 2
          2 2 2 2 2 2
          2 2 2 2 2 2
          2 2 2 2 2 2
          2 2 2 2 2 2
          2
        </DataArray>
        <DataArray type="Float64" Name="markers_norefine" format="ascii" RangeMin="0" RangeMax="2">
          0 0 2 0 0 0
          0 1 2 0 0 0
          0 0 0 0 0 0
          0 0 0 0 0 0
          0 0 0 0 1 0.5
          0.25 0 0 2 2 2
          2 0.5 2 2 2 1
          0 0 0 0 0 0
          2 1.5 1.5 0.5 2 2
          1.5 0 0 0 0 0
          0 0 0 0 0 0
          0 0 0 0 0 0
          0 0 0 0 0 0
          0 2 2 2 1.5 1
          0 0 0 0 2 2
          1.5 2 2 2 2 1.75
          1.5 1.25 2 2 2 2
          0.5 0 1.5 0.5 0.5 0
          0 1.5 1.25 1 2 2
          2 2 2 2 2 2
          2 2 2 2 2 2
          2 2 2 2 1.75 2
          1.5 2 2 2 0 0
          0 0 0 0 0 0
          0 0 0 0 0 0
          0 0 0 0 0 1
          0.5 0 0 0 0 0
          0 0 0 0 0 0
          0 0 0 0 0 0
          0 1.5 1.25 1 1 0.75
          0.5 2 2 2 1.75 1
          0.75 0.5 0.25 0.25 0 2
          1.75 1.25 1 0.25 0 0
          0.75 0.5 0 0 0 0.25
          0 2 2 2 2 2
          2 2 2 2 2 2
          2 2 2 1.75 1.25 2
          2 2 2 1.25 1 0.5
          1.5 1 1 0.75 0.25 1
          0.5 0 0 0 0 0
          0 0 0 0 0 0
          0.25 0 1 0 0 0
          0 0 0 0 0 0
          0 0 0 0 0 0
          0 0 0 0 0 0
          0 0 0 0 0 0
          0 0 0 0 0 0
          0 0 0 0 0 0
          0 0 0 0 0 0
          0 0 0 0 0 0
          0 0 0 0 0 0
          0 0 0 0 0 0
          0 0 0 0 0 0
          0 0 0 0 0 0
          0.5 0.5 0.25 0 0 0
          0 0 0 1.5 1.25 0.5
          2 1.5 0.5 0 0 0
          0
        </DataArray>
        <DataArray type="Float64" Name="markers_mustrefine" format="ascii" RangeMin="0" RangeMax="2">
          0 2 2 0 0.5 0.25
          1.5 2 2 0 1 1
          0.5 2 0 0 0.5 0.5
          0 0.25 2 2 1.25 2
          2 2 2 2 2 2
          2 2 2 2 2 2
          2 2 2 2 2 2
          2 2 2 2 2 2
          2 2 2 2 2 2
          2 0 1 1 1 2
          0 0 1 1 0 1
          2 2 2 0 0.5 0
          1.5 0 0.5 0 0 1.5
          1.3333333333333333 2 2 2 2 2
          2 2 2 2 2 2
          2 2 2 2 2 2
          2 2 2 2 2 2
          2 2 2 2 2 2
          2 2 2 2 2 2
          2 2 2 2 2 2
          2 2 2 2 2 2
          2 2 2 2 2 2
          2 2 2 2 2 2
          2 2 2 2 2 2
          2 2 2 2 2 2
          2 2 2 2 2 2
          2 2 2 2 2 2
          2 2 2 2 2 2
          2 2 2 1 1.5 1
          1.5 2 2 2 2 2
          2 2 2 2 2 2
          2 2 2 2 2 2
          2 2 2 2 2 2
          2 2 2 2 2 2
          2 2 2 2 2 2
          2 2 2 2 2 2
          2 2 2 2 2 2
          2 2 2 2 2 2
          2 2 2 2 2 2
          2 0 0 0 0 0
          0 0 0 2 2 2
          2 2 2 2 2 2
          0.5 1.3333333333333333 2 2 0 0
          1 0 0 1 1 1
          2 2 2 0 0.5 0
          1.5 2 2 2 2 2
          2 2 2 2 2 2
          2 2 2 2 2 2
          2 2 2 2 2 2
          2 1 1.5 0 1 1
          1 2 2 2 2 1.75
          2 2 2 2 2 2
          2 2 2 2 2 2
          2 2 2 2 2 2
          2 2 2 2 2 2
          2 2 2 2 2 2
          2 2 2 2 2 2
          2
        </DataArray>
        <DataArray type="Float64" Name="gradient_marker" format="ascii" RangeMin="0" RangeMax="1">
          0.75 0.25 0 0.5 0.5 0.5
          0.25 0.5 1 0 0 0
          0 0 0.5 0.5 0.5 0.5
          0.5 0.5 0.5 0.5 0.5 0.75
          0.625 0.5 0.5 0.5 0.5 0.5
          0.5 0.75 0.625 0 0 0
          0 0.5 0 0 0 0.5
          0.875 1 0.75 0.75 0.75 0.75
          0.5 0.5 1 1 0.5 0.5
          1 1 1 1 1 1
          1 1 1 1 1 1
          1 1 1 1 1 1
          1 1 1 1 1 1
          1 0 0 0 0 0
          0 0 0 0 0 0
          0 0 0 0 0 0
          0 0 0 0 0 0
          0 0 0 0 0 0
          0 0 0 0 0 0
          0 0 0 0 0 0
          0 0 0 0 0 0
          0 0 0 0 0 0
          0 0 0 0 1 1
          1 1 1 1 1 1
          1 1 1 1 1 1
          1 1 1 1 1 0
          0 0.6666666666666666 0 1 1 1
          1 1 1 1 0 0.6666666666666666
          0 1 1 1 1 1
          1 0 0 0.5 0.5 0
          0.5 0 0 0.5 0 1
          1 1 1 1 1 1
          1 1 1 0 0.5 0
          0 0.5 0 1 1 1
          1 0 0 0.5 0.5 0
          0.5 0 0 0.5 0 1
          1 1 1 1 1 1
          1 1 1 0 0.5 0
          0 0.5 0 1 1 1
          1 1 1 1 1 1
          1 1 1 0.375 0.625 0.375
          0.5 0.625 0.5 0.75 0.625 0.75
          0.5 0 0.5 0.125 1 0.5
          1 1 1 1 1 1
          1 1 1 1 1 1
          1 1 1 1 1 1
          1 1 1 1 1 1
          1 1 1 1 1 1
          1 1 1 1 1 1
          1 1 1 1 1 1
          1 1 1 1 1 1
          0.6666666666666666 0.75 1 1 1 1
          0.6666666666666666 0.75 1 1 1 1
          1 1 1 1 1 1
          1 1 1 1 1 1
          1 1 1 1 1 1
          1 1 1 1 1 1
          1
        </DataArray>
        <DataArray type="Float64" Name="gradient_matprop_marker" format="ascii" RangeMin="0" RangeMax="0">
          0 0 0 0 0 0
          0 0 0 0 0 0
          0 0 0 0 0 0
          0 0 0 0 0 0
          0 0 0 0 0 0
          0 0 0 0 0 0
          0 0 0 0 0 0
          0 0 0 0 0 0
          0 0 0 0 0 0
          0 0 0 0 0 0
          0 0 0 0 0 0
          0 0 0 0 0 0
          0 0 0 0 0 0
          0 0 0 0 0 0
          0 0 0 0 0 0
          0 0 0 0 0 0
          0 0 0 0 0 0
          0 0 0 0 0 0
          0 0 0 0 0 0
          0 0 0 0 0 0
          0 0 0 0 0 0
          0 0 0 0 0 0
          0 0 0 0 0 0
          0 0 0 0 0 0
          0 0 0 0 0 0
          0 0 0 0 0 0
          0 0 0 0 0 0
          0 0 0 0 0 0
          0 0 0 0 0 0
          0 0 0 0 0 0
          0 0 0 0 0 0
          0 0 0 0 0 0
          0 0 0 0 0 0
          0 0 0 0 0 0
          0 0 0 0 0 0
          0 0 0 0 0 0
          0 0 0 0 0 0
          0 0 0 0 0 0
          0 0 0 0 0 0
          0 0 0 0 0 0
          0 0 0 0 0 0
          0 0 0 0 0 0
          0 0 0 0 0 0
          0 0 0 0 0 0
          0 0 0 0 0 0
          0 0 0 0 0 0
          0 0 0 0 0 0
          0 0 0 0 0 0
          0 0 0 0 0 0
          0 0 0 0 0 0
          0 0 0 0 0 0
          0 0 0 0 0 0
          0 0 0 0 0 0
          0 0 0 0 0 0
          0 0 0 0 0 0
          0 0 0 0 0 0
          0 0 0 0 0 0
          0
        </DataArray>
        <DataArray type="Float64" Name="combo" format="ascii" RangeMin="0" RangeMax="2">
          0.75 0.25 2 0.5 0.5 0.5
          0.25 1.5 2 0 0 0
          0 0 0.5 0.5 0.5 0.5
          0.5 0.5 0.5 0.5 0.5 0.75
          0.625 0.5 0.5 0.5 1.5 1
          0.75 0.75 0.625 2 2 2
          2 1 2 2 2 1.5
          0.875 1 0.75 0.75 0.75 0.75
          2 1.625 1.75 1.25 2 2
          1.75 1 1 1 1 1
          1 1 1 1 1 1
          1 1 1 1 1 1
          1 1 1 1 1 1
          1 2 2 2 1.5 1
          0 0 0 0 2 2
          1.5 2 2 2 2 1.75
          1.5 1.25 2 2 2 2
          0.5 0 1.5 0.5 0.5 0
          0 1.5 1.25 1 2 2
          2 2 2 2 2 2
          2 2 2 2 2 2
          2 2 2 2 1.75 2
          1.5 2 2 2 1 1
          1 1 1 1 1 1
          1 1 1 1 1 1
          1 1 1 1 1 1
          0.5 0.6666666666666666 0 1 1 1
          1 1 1 1 0 0.6666666666666666
          0 1 1 1 1 1
          1 1.5 1.25 1.25 1.25 0.75
          0.875 2 2 2 1.75 1.5
          1.375 1.25 1.125 1.125 1 2
          1.875 1.625 1.5 0.25 0.5 0
          0.75 0.875 0 1 1 1.125
          1 2 2 2 2 2
          2 2 2 2 2 2
          2 2 2 1.875 1.625 2
          2 2 2 1.25 1.25 0.5
          1.5 1.25 1 1.375 1.125 1.5
          1.25 1 1 1 1 1
          1 1 1 0.375 0.625 0.375
          0.75 0.625 1.5 0.75 0.625 0.75
          0.5 0 0.5 0.125 1 0.5
          1 1 1 1 1 1
          1 1 1 1 1 1
          1 1 1 1 1 1
          1 1 1 1 1 1
          1 1 1 1 1 1
          1 1 1 1 1 1
          1 1 1 1 1 1
          1 1 1 1 1 1
          0.6666666666666666 0.75 1 1 1 1
          0.6666666666666666 0.75 1 1 1 1
          1 1 1 1 1 1
          1.25 1.25 1.125 1 1 1
          1 1 1 1.75 1.625 1.25
          2 1.75 1.25 1 1 1
          1
        </DataArray>
        <DataArray type="Float64" Name="dHdT" format="ascii" RangeMin="25.8463406711648" RangeMax="59.125751389541136">
          25.852517482388862 28.205121791101035 46.31084122603238 25.885345368390965 26.21308377179518 26.131604995625246
          27.306301225746477 44.532372479136974 54.96824739785028 26.146379399097555 26.488799387434973 26.42722141405396
          26.292160100075353 28.281567162774632 26.077783973605385 26.057995397619774 26.308435352744787 26.263910219353765
          26.015243652930664 26.16530578902961 27.412963151850878 27.218927833292653 26.773359893314694 35.41704199486469
          33.819154903257584 33.37788623645009 32.19433448673406 31.04611857142929 47.00987179240177 43.421983517353745
          39.81544262295068 34.76815724421646 31.345016691837237 49.09467034890633 52.46651648592163 49.133725771010866
          52.09794065793646 43.396601273611154 46.314368635574674 48.87712674905865 49.6200485708117 46.53365224304377
          34.29298556650038 35.87144909984764 31.391447571344976 30.4409720151469 40.786084078335044 36.7179527365835
          51.7125065536993 50.15301603162032 52.01820434085129 43.18849432225771 46.26483479261351 51.49191061371592
          50.27537690621709 26.263493582631014 26.44028626684953 26.42282059439588 26.37523283655417 26.937766325695772
          26.191788091628286 26.182334008297772 26.3374608085509 26.32276813206555 26.156135066331203 26.282447085089206
          26.797149224581553 26.764142873916118 26.674367345594305 26.18688816372392 26.308456048764292 26.271801346362473
          26.686293075329797 26.121365186209825 26.227872083300678 26.103340164724507 26.19892545200313 26.54839273852667
          26.476883968703362 53.36469393196373 52.95497553470565 51.79886593531286 49.902881133132865 46.85889618279462
          41.912920182770435 40.1055616980019 38.73640110240342 37.13608736633463 53.03140103099177 53.34431922408774
          51.96265582386357 49.77779522040032 52.40854352919456 52.55756620430052 51.93291352838811 51.65331495602692
          50.28791656830161 48.53744221835796 49.072569024637694 49.94099197826541 50.437445146234005 52.313739731958556
          46.118585445771345 41.96909666099924 51.85438760753819 43.98170820371861 42.08168666151763 40.09417215024048
          38.46220526998505 50.21906830913598 48.09736640641277 46.62007208624796 46.30018356127106 46.263794659340725
          49.69299292798434 46.295943394092575 46.29907688514689 46.4288856627855 46.28793181522785 46.87316148971085
          49.825681554174224 50.525790376029356 46.315127244701856 46.292053842328365 46.27518146587467 48.74082059823996
          52.855825114133765 52.55307012970922 52.32712572196338 52.057765799297144 51.317479563503596 51.02286293066993
          49.04176953914232 51.53524968975765 51.867198534813475 51.85783862299027 28.02593534155156 27.935871254294558
          27.701315086536766 30.23376177568813 27.71581444095858 27.63659552677558 27.4273845214615 29.81054938905215
          29.568558722137357 28.974270006505876 27.377591157480897 27.031794963205265 28.680670841353837 27.142683550924456
          26.84301826235385 28.255384198515745 34.44466668902277 34.091297464774264 32.96588485849994 49.413974374239935
          46.967828871562254 40.814518013629915 41.607745275250686 33.570791280575115 33.18405382422573 32.02488148305308
          38.21576978536057 37.320571724356945 35.47745420813814 31.144739151018896 37.50291110253966 34.99726070986392
          36.31201502346252 30.359065423236547 33.296292848298556 26.500717384479188 26.719058002299185 26.38707321167374
          26.57331566604646 51.74472856544939 50.38719023551308 50.21072927245346 48.14532272385584 46.23533019809192
          43.279783543307396 50.14228626402313 51.41113694793393 52.35981689829224 51.53173062004337 46.619743365109954
          44.72952075404212 42.188161499722085 40.72664517028437 40.38691897582136 37.63224994540478 53.38008656165213
          52.21495156786548 49.44374428723345 47.22524505355941 40.34521374520464 38.27379843254317 37.249418999802195
          45.71095170891964 42.90356302718514 41.03842980959728 36.36417758586439 34.52057788966529 40.03453711051546
          37.35404973710851 46.2540323011865 47.88554207027626 47.3818954096201 49.91980877726182 51.43269231844724
          52.00277915910516 46.29897483098559 46.75536184414854 48.33556660597126 50.66483851774089 50.621186486749124
          52.463552474701785 55.86368645823394 54.555095612912 51.480864163065874 48.44599041824011 47.131094750966284
          50.754197638771956 54.97210766698051 52.346184163055405 49.635104958890125 46.680443849289055 45.9218771202518
          51.035822887810596 47.97584580321677 47.95371759745091 43.41707671474808 39.901481576071525 44.631171738225625
          40.9876826098623 25.84806506050552 25.8463406711648 25.892894487588467 25.878436127162182 25.929337976500403
          25.997803337619967 25.98220402802177 25.96309459261112 29.908780578405466 33.479887482809936 30.064156140946224
          39.45841840052023 32.37418200102185 43.76898314869672 33.49792713965394 28.62777565045147 32.187494537721676
          26.37067495444468 26.813035693233534 27.199445358366834 27.981722605690365 25.940496145672448 26.066338600490703
          26.205187323152103 26.041403287692695 26.051846073078266 26.16538677405358 26.155298878126978 26.127521176375332
          26.495334761943237 26.471326868745592 26.40578328604329 26.01470839097809 26.091951233598817 26.07407109664735
          26.31629356458229 27.177536333561363 27.117680325449545 26.957548788289802 28.627857593937637 28.465045401795475
          28.05044800103848 26.74433122536152 26.52531528335738 27.54123221096754 27.588051661412898 27.064097526227798
          31.84666191324213 31.430496114020848 30.334743109101794 35.58697120287154 35.093122672989836 33.69810433519221
          29.032183615947886 28.833191169821923 29.350943037537146 27.960551349257262 31.577754527566505 30.821678177617997
          29.429905270959107 26.200311565300787 26.331803467580585 26.234572905306628 26.35389182260665 26.45952674550464
          26.22033044952622 27.054670087467564 27.28129983307973 26.675142037521063 26.654772653821137 26.374740766780477
          34.910523262346665 36.43755090387193 33.186361657761864 31.456013217570302 35.17906319740905 33.34354808943408
          39.88409194765074 39.4543934060093 36.59572707408472 34.48765617251859 37.17093967175066 34.858238316112974
          33.91955956989072 33.41544796382175 38.14787404796873 37.2788960901943 31.968551461009696 35.265425203722664
          45.64073838316382 43.40506600198712 38.86331277466941 30.026931011104192 32.624517209264155 28.381779031618805
          29.906503725827328 34.98261677171678 31.589343188588558 55.048649236325346 51.03217348848352 42.77372266459399
          59.125751389541136 54.318156224537645 44.52030873115476 36.6964788351424 32.785474526505425 37.40937084831974
          33.19099250211694
        </DataArray>
        <DataArray type="Float64" Name="dk/dtemperature" format="ascii" RangeMin="0.0039508750000000325" RangeMax="0.043712651148754125">
          0.015804580349343192 0.01322956287949192 0.004181250000000016 0.015804580349343195 0.015381888653164331 0.015482655778260638