<?xml version="1.0"?>
<VTKFile type="UnstructuredGrid" version="0.1" byte_order="LittleEndian" header_type="UInt32" compressor="vtkZLibDataCompressor">
  <UnstructuredGrid>
    <Piece NumberOfPoints="1308" NumberOfCells="932">
      <PointData>
        <DataArray type="Int32" Name="libmesh_node_id" format="ascii" RangeMin="2449" RangeMax="13914">
          2449 2457 2656 2657 2661 2662
          2668 2818 2819 3327 3328 3329
          3330 3331 3332 3333 3334 3335
          3336 3337 3338 3339 3340 3361
          3362 3363 3364 3365 3366 3367
          3368 3369 3370 3388 3389 3390
          3391 3396 3398 3399 3401 3716
          3717 3723 3724 3725 3726 4909
          4910 4911 4914 4917 4921 4922
          4925 4927 5009 5010 5012 5015
          5017 5018 5019 5020 5021 5022
          5023 5024 5025 5026 5027 5028
          5029 5030 5032 5034 5036 5038
          5039 5040 5041 5042 5043 5044
          5045 5046 5047 5050 5051 5053
          5056 5058 5059 5060 5061 5062
          5063 5064 5065 5066 5067 5069
          5071 5073 5075 5076 5077 5078
          5079 5080 5081 5149 5150 5155
          5157 5158 5161 5162 5164 5165
          5188 5192 5194 5195 5198 5199
          5215 5216 5217 5218 5219 5220
          5221 5222 5223 5224 5225 5226
          5227 5228 5229 5230 5231 5232
          5239 5240 5243 5244 5245 5246
          5247 5248 5249 5250 5251 5252
          5263 5264 5265 5266 5267 5268
          5269 5270 5271 5272 5273 5274
          5279 5280 5283 5284 5285 5286
          5287 5288 5289 5695 5696 5697
          5698 5699 5700 5701 5702 5703
          5704 5705 5706 5707 5708 5709
          5710 5711 5861 5862 5865 5866
          5867 5868 5869 5870 5871 5872
          5873 5874 5875 5876 5877 5878
          5879 5880 5881 5882 5883 5884
          5885 5886 5887 5888 5889 5890
          5891 5892 5893 5894 5895 5896
          5897 5898 5899 10945 10946 10947
          10948 10966 10967 10968 11505 11506
          11507 11508 11509 11510 11511 11512
          11513 11514 11522 11523 11524 11525
          11526 11527 11528 11539 11540 11541
          11542 11543 11544 11545 11546 11547
          11548 11556 11557 11558 11559 11560
          11561 11562 11563 11564 11565 11566
          11567 11568 11569 11570 11571 11572
          11573 11574 11575 11576 11577 11578
          11579 11580 11581 11582 11583 11584
          11585 11586 11587 11588 11589 11590
          11591 11592 11593 11594 11595 11596
          11597 11598 11599 11600 11601 11602
          11603 11604 11605 11606 11607 11608
          11609 11610 11611 11612 11613 11614
          11615 11616 11617 11618 11619 11620
          11621 11622 11623 11624 11625 11626
          11627 11628 11629 11630 11631 11632
          11633 11634 11635 11636 11637 11638
          11639 11640 11641 11642 11643 11644
          11652 11653 11654 11655 11656 11657
          11658 11659 11660 11661 11672 11673
          11674 11675 11676 11677 11678 11679
          11680 11681 11689 11690 11691 11692
          11693 11694 11695 11703 11704 11705
          11706 11707 11708 11709 11710 11711
          11712 11713 11714 11715 11716 11717
          11718 11719 11720 11721 11722 11723
          11724 11725 11726 11727 11728 11729
          11730 11731 11732 11733 11734 11735
          11736 11737 11738 11739 11740 11741
          11742 11743 11744 11745 11746 11747
          11748 11749 11750 11751 11752 11753
          11754 11755 11756 11757 11758 11759
          11760 11761 11762 11763 11764 11765
          11766 11767 11768 11769 11770 11771
          11772 11773 11774 11775 11776 11777
          11788 11789 11790 11791 11792 11793
          11794 11795 11796 11797 11805 11806
          11807 11808 11809 11810 11811 11822
          11823 11824 11825 11826 11827 11828
          11829 11830 11831 11839 11840 11841
          11842 11843 11844 11845 11846 11847
          11848 11849 11850 11851 11852 11853
          11854 11855 11856 11857 11858 11859
          11860 11861 11862 11863 11864 11865
          11866 11867 11868 11869 11870 11871
          11872 11873 11874 11875 11876 11877
          11878 11879 11880 11881 11882 11883
          11884 11885 11886 11887 11888 11889
          11890 11891 11892 11893 11894 11895
          11896 11897 11898 11899 11900 11901
          11902 11903 11904 11905 11906 11907
          11908 11909 11910 11911 11912 11913
          11921 11922 11923 11924 11925 11926
          11927 11935 11936 11937 11938 11939
          11940 11941 11949 11950 11951 11952
          11953 11954 11955 11963 11964 11965
          11966 11967 11968 11969 11970 11971
          11972 11973 11974 11975 11976 11977
          11978 11979 11980 11981 11982 11983
          11984 11985 11986 11987 11988 11989
          11990 11991 11992 11993 11994 11995
          11996 11997 11998 11999 12000 12001
          12002 12003 12004 12005 12006 12007
          12008 12009 12010 12011 12012 12013
          12014 12015 12016 12017 12018 12019
          12020 12021 12022 12023 12024 12025
          12507 12508 12511 12513 12543 12545
          12547 12563 12564 12565 12566 12567
          12568 12569 12570 12571 12572 12573
          12574 12575 12576 12577 12578 12579
          12580 12581 12582 12591 12593 12594
          12595 12596 12597 12598 12599 12600
          12601 12602 12604 12605 12606 12608
          12612 12614 12615 12621 12692 12694
          12696 12720 12722 12724 12740 12741
          12742 12743 12744 12745 12746 12747
          12748 12749 12750 12751 12752 12753
          12755 12759 12761 12765 12768 12769
          12770 12771 12772 12773 12774 12775
          12776 12777 12778 12779 12780 12781
          12783 12787 12789 12793 12914 12915
          12916 12917 12918 12919 12920 12921
          12922 12923 12924 12925 12926 12927
          12928 12929 12930 12931 12932 12933
          12934 12935 12936 12937 12938 12939
          12940 12941 12942 12943 12944 12945
          12946 12947 12948 12949 12950 12951
          12952 12953 12954 12955 12956 12957
          12958 12959 12960 12961 12962 12963
          12964 12965 12966 12967 12968 12969
          12970 12971 12972 12973 12974 12975
          12976 12977 12978 12979 12980 12981
          12982 12983 12984 12985 12986 12987
          12988 12989 12990 12991 12992 12993
          12994 12995 12996 12997 12998 12999
          13000 13001 13002 13003 13004 13005
          13006 13007 13008 13009 13010 13011
          13012 13013 13014 13015 13016 13017
          13018 13019 13020 13021 13022 13023
          13024 13025 13026 13027 13028 13029
          13044 13045 13046 13048 13049 13050
          13061 13062 13063 13064 13065 13066
          13067 13068 13069 13070 13071 13072
          13073 13074 13075 13076 13077 13078
          13079 13080 13081 13082 13083 13084
          13085 13086 13087 13088 13089 13090
          13091 13092 13093 13094 13095 13096
          13097 13098 13099 13100 13101 13102
          13103 13104 13105 13106 13107 13108
          13109 13110 13111 13112 13113 13114
          13115 13116 13117 13118 13119 13120
          13121 13122 13123 13124 13125 13126
          13127 13128 13129 13130 13133 13134
          13136 13138 13149 13150 13153 13154
          13156 13158 13169 13170 13171 13172
          13173 13174 13175 13176 13177 13178
          13179 13180 13181 13182 13183 13184
          13185 13186 13187 13188 13189 13190
          13191 13192 13193 13194 13195 13196
          13197 13198 13199 13200 13201 13202
          13203 13204 13205 13206 13207 13208
          13209 13210 13211 13212 13213 13214
          13215 13216 13217 13218 13219 13220
          13221 13222 13223 13224 13225 13226
          13227 13228 13229 13230 13231 13232
          13233 13234 13235 13236 13237 13238
          13239 13240 13241 13242 13243 13244
          13245 13246 13257 13258 13259 13261
          13262 13263 13271 13272 13273 13274
          13275 13276 13277 13278 13279 13280
          13291 13292 13293 13295 13296 13297
          13305 13306 13307 13308 13309 13310
          13311 13312 13313 13314 13315 13316
          13317 13318 13319 13320 13321 13322
          13323 13324 13325 13326 13327 13328
          13329 13330 13331 13332 13333 13334
          13335 13336 13337 13338 13339 13340
          13341 13342 13343 13344 13345 13346
          13347 13348 13349 13350 13351 13352
          13353 13354 13355 13356 13357 13358
          13359 13360 13361 13363 13365 13367
          13375 13377 13379 13381 13389 13391
          13393 13395 13403 13405 13407 13409
          13748 13749 13750 13751 13755 13756
          13758 13759 13760 13761 13765 13766
          13788 13789 13792 13793 13795 13818
          13819 13822 13823 13825 13826 13829
          13830 13846 13847 13850 13851 13853
          13854 13857 13858 13874 13878 13908
          13912 2821 2822 2660 3533 3534
          2670 2671 3718 3719 3727 3728
          3729 3730 3731 3732 3392 2673
          3395 3743 3744 3416 3380 5159
          5160 5163 2672 5233 5234 5235
          5236 5238 5237 5253 5254 5257
          5258 5362 5363 5364 5365 5372
          5373 12603 12616 12617 12622 12762
          12766 12790 12794 13030 13031 13032
          13033 13037 13038 13040 13041 13043
          13047 5242 13051 13052 13055 13056
          13058 13060 13131 13132 13135 13137
          5260 13151 13152 13155 13157 5262
          13247 13248 13251 13253 13254 13256
          13260 5277 13264 13266 13268 13270
          13281 13282 13285 13287 13288 13290
          13294 5282 13298 13300 13302 13304
          13362 13364 13366 5290 13376 13378
          13380 5292 13390 13392 13394 5294
          13404 13406 13408 5296 13752 13753
          13754 13757 5369 13762 13763 13764
          13767 5370 13769 13775 13790 13791
          13794 13796 13797 5379 13820 13821
          13824 5392 13827 13828 13831 5393
          13832 13836 13848 13849 13852 5396
          13855 13856 13859 5397 13860 13864
          13875 13876 13877 13879 13880 5399
          13909 13910 13911 13913 13914 5403
        </DataArray>
        <DataArray type="Float64" Name="bounds" format="ascii" RangeMin="0" RangeMax="0">
          0 0 0 0 0 0
          0 0 0 0 0 0
          0 0 0 0 0 0
          0 0 0 0 0 0
          0 0 0 0 0 0
          0 0 0 0 0 0
          0 0 0 0 0 0
          0 0 0 0 0 0
          0 0 0 0 0 0
          0 0 0 0 0 0
          0 0 0 0 0 0
          0 0 0 0 0 0
          0 0 0 0 0 0
          0 0 0 0 0 0
          0 0 0 0 0 0
          0 0 0 0 0 0
          0 0 0 0 0 0
          0 0 0 0 0 0
          0 0 0 0 0 0
          0 0 0 0 0 0
          0 0 0 0 0 0
          0 0 0 0 0 0
          0 0 0 0 0 0
          0 0 0 0 0 0
          0 0 0 0 0 0
          0 0 0 0 0 0
          0 0 0 0 0 0
          0 0 0 0 0 0
          0 0 0 0 0 0
          0 0 0 0 0 0
          0 0 0 0 0 0
          0 0 0 0 0 0
          0 0 0 0 0 0
          0 0 0 0 0 0
          0 0 0 0 0 0
          0 0 0 0 0 0
          0 0 0 0 0 0
          0 0 0 0 0 0
          0 0 0 0 0 0
          0 0 0 0 0 0
          0 0 0 0 0 0
          0 0 0 0 0 0
          0 0 0 0 0 0
          0 0 0 0 0 0
          0 0 0 0 0 0
          0 0 0 0 0 0
          0 0 0 0 0 0
          0 0 0 0 0 0
          0 0 0 0 0 0
          0 0 0 0 0 0
          0 0 0 0 0 0
          0 0 0 0 0 0
          0 0 0 0 0 0
          0 0 0 0 0 0
          0 0 0 0 0 0
          0 0 0 0 0 0
          0 0 0 0 0 0
          0 0 0 0 0 0
          0 0 0 0 0 0
          0 0 0 0 0 0
          0 0 0 0 0 0
          0 0 0 0 0 0
          0 0 0 0 0 0
          0 0 0 0 0 0
          0 0 0 0 0 0
          0 0 0 0 0 0
          0 0 0 0 0 0
          0 0 0 0 0 0
          0 0 0 0 0 0
          0 0 0 0 0 0
          0 0 0 0 0 0
          0 0 0 0 0 0
          0 0 0 0 0 0
          0 0 0 0 0 0
          0 0 0 0 0 0
          0 0 0 0 0 0
          0 0 0 0 0 0
          0 0 0 0 0 0
          0 0 0 0 0 0
          0 0 0 0 0 0
          0 0 0 0 0 0
          0 0 0 0 0 0
          0 0 0 0 0 0
          0 0 0 0 0 0
          0 0 0 0 0 0
          0 0 0 0 0 0
          0 0 0 0 0 0
          0 0 0 0 0 0
          0 0 0 0 0 0
          0 0 0 0 0 0
          0 0 0 0 0 0
          0 0 0 0 0 0
          0 0 0 0 0 0
          0 0 0 0 0 0
          0 0 0 0 0 0
          0 0 0 0 0 0
          0 0 0 0 0 0
          0 0 0 0 0 0
          0 0 0 0 0 0
          0 0 0 0 0 0
          0 0 0 0 0 0
          0 0 0 0 0 0
          0 0 0 0 0 0
          0 0 0 0 0 0
          0 0 0 0 0 0
          0 0 0 0 0 0
          0 0 0 0 0 0
          0 0 0 0 0 0
          0 0 0 0 0 0
          0 0 0 0 0 0
          0 0 0 0 0 0
          0 0 0 0 0 0
          0 0 0 0 0 0
          0 0 0 0 0 0
          0 0 0 0 0 0
          0 0 0 0 0 0
          0 0 0 0 0 0
          0 0 0 0 0 0
          0 0 0 0 0 0
          0 0 0 0 0 0
          0 0 0 0 0 0
          0 0 0 0 0 0
          0 0 0 0 0 0
          0 0 0 0 0 0
          0 0 0 0 0 0
          0 0 0 0 0 0
          0 0 0 0 0 0
          0 0 0 0 0 0
          0 0 0 0 0 0
          0 0 0 0 0 0
          0 0 0 0 0 0
          0 0 0 0 0 0
          0 0 0 0 0 0
          0 0 0 0 0 0
          0 0 0 0 0 0
          0 0 0 0 0 0
          0 0 0 0 0 0
          0 0 0 0 0 0
          0 0 0 0 0 0
          0 0 0 0 0 0
          0 0 0 0 0 0
          0 0 0 0 0 0
          0 0 0 0 0 0
          0 0 0 0 0 0
          0 0 0 0 0 0
          0 0 0 0 0 0
          0 0 0 0 0 0
          0 0 0 0 0 0
          0 0 0 0 0 0
          0 0 0 0 0 0
          0 0 0 0 0 0
          0 0 0 0 0 0
          0 0 0 0 0 0
          0 0 0 0 0 0
          0 0 0 0 0 0
          0 0 0 0 0 0
          0 0 0 0 0 0
          0 0 0 0 0 0
          0 0 0 0 0 0
          0 0 0 0 0 0
          0 0 0 0 0 0
          0 0 0 0 0 0
          0 0 0 0 0 0
          0 0 0 0 0 0
          0 0 0 0 0 0
          0 0 0 0 0 0
          0 0 0 0 0 0
          0 0 0 0 0 0
          0 0 0 0 0 0
          0 0 0 0 0 0
          0 0 0 0 0 0
          0 0 0 0 0 0
          0 0 0 0 0 0
          0 0 0 0 0 0
          0 0 0 0 0 0
          0 0 0 0 0 0
          0 0 0 0 0 0
          0 0 0 0 0 0
          0 0 0 0 0 0
          0 0 0 0 0 0
          0 0 0 0 0 0
          0 0 0 0 0 0
          0 0 0 0 0 0
          0 0 0 0 0 0
          0 0 0 0 0 0
          0 0 0 0 0 0
          0 0 0 0 0 0
          0 0 0 0 0 0
          0 0 0 0 0 0
          0 0 0 0 0 0
          0 0 0 0 0 0
          0 0 0 0 0 0
          0 0 0 0 0 0
          0 0 0 0 0 0
          0 0 0 0 0 0
          0 0 0 0 0 0
          0 0 0 0 0 0
          0 0 0 0 0 0
          0 0 0 0 0 0
          0 0 0 0 0 0
          0 0 0 0 0 0
          0 0 0 0 0 0
          0 0 0 0 0 0
          0 0 0 0 0 0
          0 0 0 0 0 0
          0 0 0 0 0 0
          0 0 0 0 0 0
          0 0 0 0 0 0
          0 0 0 0 0 0
          0 0 0 0 0 0
          0 0 0 0 0 0
          0 0 0 0 0 0
          0 0 0 0 0 0
          0 0 0 0 0 0
          0 0 0 0 0 0
          0 0 0 0 0 0
          0 0 0 0 0 0
          0 0 0 0 0 0
        </DataArray>
        <DataArray type="Float64" Name="gradient_error" format="ascii" RangeMin="4.9758536184002847e-14" RangeMax="4.62023521883306e-11">
          4.318639129941848e-12 1.0714020315804837e-11 2.2588483973451403e-11 1.680949059290311e-11 9.835219133883808e-13 6.220642632413576e-13
          3.5812943687316517e-12 2.048077974116538e-11 1.6601267995302304e-11 4.1328992326576425e-12 3.6829781756662115e-12 2.7706926778916357e-12
          2.421316847419862e-12 1.3376277862058288e-12 9.731890057438168e-13 8.699074175378185e-13 2.6313241428081437e-12 1.700222080769853e-12
          7.669008979660146e-13 1.834552556998969e-12 1.943896031959736e-12 7.871751750914034e-13 1.3690780404830743e-12 1.3689542760025067e-11
          1.0047978251944042e-11 4.162438565144723e-12 3.0481988476774727e-12 4.044920403708239e-12 1.2183034175485243e-12 3.2627043424601e-11
          2.616670286366064e-11 8.407515934628852e-12 1.1488460143903666e-11 2.618243437636821e-13 3.3593119083995775e-13 1.1256619561158538e-12
          8.225836341369333e-13 3.2593962332499123e-13 3.085839973437695e-12 2.380687828944177e-12 9.893802655238701e-13 1.5389627347797127e-12
          1.677883376868e-12 5.269864907412429e-13 4.736575582500326e-13 3.3809983042471825e-13 3.8044596808611804e-13 1.3378667169161716e-12
          1.7012292843182053e-12 1.6168909751667974e-12 1.917329574875646e-12 1.734423096806742e-12 9.663305572862431e-13 2.0257740696727186e-12
          1.4777982541612357e-12 1.962673934806833e-12 3.995291400935513e-12 3.730266435513917e-12 3.038826358681141e-12 1.2667784555124334e-11
          1.7666749456798233e-12 1.67443128338503e-12 2.2052727553607963e-12 2.0587728651571753e-12 9.299505342628796e-13 1.1847278367663939e-12
          1.1060593100932916e-12 1.4306698044677437e-12 1.6762793906351228e-12 9.007095637647883e-13 7.660385654540345e-12 7.08632897090773e-12
          3.84951864382907e-12 5.6154421508025726e-12 2.166142637273604e-12 1.3595122966958426e-12 6.853988417085021e-12 1.1023398901805283e-12
          1.1946869822012766e-12 5.903867234600312e-13 6.410987462554233e-13 7.534306566495258e-13 7.493932575841586e-13 4.964678096222935e-13
          3.82456362033371e-12 2.0732740823551527e-12 2.2527173245139734e-12 3.4029563392227544e-11 3.1429579804025434e-11 2.4742634809915962e-11
          3.102096447454945e-11 1.9319523339666745e-11 1.7829957859600292e-11 1.0627803952238437e-11 9.802396402195176e-12 1.4007495139281438e-11
          7.687966119122547e-12 1.90113533777664e-11 1.801168495350902e-11 1.0119538136156418e-11 1.507088691559244e-11 1.6583101693921327e-11
          9.47268680356548e-12 1.8923124247804155e-11 9.360721324240179e-12 5.125141663667303e-12 5.328910237930431e-12 2.909271520122418e-12
          1.0805296122097726e-11 5.981861915345927e-12 6.511931475747175e-12 8.392445195645685e-13 7.54291078152569e-13 2.08395007772846e-12
          5.627052535359804e-13 5.12964121466628e-13 6.04692305209498e-13 4.612324233891664e-13 1.1567231656496131e-12 6.234800597966194e-13
          4.639514788796736e-12 5.842100935392017e-12 2.6001389032285744e-12 1.4149491606520503e-12 3.291358263543088e-12 1.8001829047933539e-12
          5.153570977049198e-13 4.858530898749804e-13 6.199276670168033e-13 5.786610070038909e-13 2.4198809909383957e-13 3.1525638853223143e-13
          2.9394974357523157e-13 4.093244405706299e-13 4.712808540969135e-13 2.9725903410351203e-13 2.1963919746731183e-12 2.0308058632085803e-12
          1.0404775284198205e-12 1.6073162228771126e-12 2.2252984239842855e-13 2.0652386250119288e-13 2.4438261644357696e-13 2.283325529410641e-13
          5.593154789589867e-13 5.167744081976477e-13 3.0103013693849533e-13 3.3427577356169195e-13 3.025707911270645e-13 2.717401328709734e-13
          4.138266738993098e-13 3.627148959430287e-13 2.2836312731559957e-13 1.0918130241741217e-12 5.57752160732441e-13 6.398015879506222e-13
          5.66703930054692e-12 5.224246352333657e-12 2.9296812067099825e-12 2.699587516082916e-12 4.0915595993052815e-12 2.1117034648287436e-12
          5.843564386135602e-12 5.504471500332673e-12 2.899841206404033e-12 4.544548723758989e-12 1.4685168843867996e-12 1.3526619663968268e-12
          1.5781855120923114e-12 1.479910295984426e-12 2.721994579211119e-12 1.402362110505397e-12 1.5413565749082373e-12 7.924297302029511e-13
          3.2111656439254096e-12 1.6716818706200262e-12 1.910996277980153e-12 7.545068852993724e-13 7.299636466435604e-13 1.7423449482024655e-12
          1.6623914321350592e-12 4.505990518861499e-13 1.00486108907941e-12 9.547616075480705e-13 6.701435001712266e-13 1.4534872802449529e-12
          8.217838963369464e-13 5.812626345651552e-13 1.1631379929864263e-12 3.3757444316687097e-13 6.364190593198598e-13 4.5296270856016497e-13
          8.270512462873168e-13 5.047533309783587e-13 5.615971782291759e-13 9.579821695438967e-13 7.147867669754777e-13 3.2393659853724033e-13
          5.209720352971877e-13 2.436815167246615e-13 3.6284426892503007e-13 2.6960645672975625e-13 3.8958091957034134e-13 2.792934488800993e-13
          2.7019372985623956e-13 2.5997611112352107e-13 5.399042300877274e-13 5.118244560904047e-13 1.4718370395477815e-13 2.79859535474135e-13
          2.624779296672042e-13 2.306236457048387e-13 4.3700029670578247e-13 2.510285705516066e-13 8.006939461619896e-14 8.259541562190088e-14
          1.3360117792024688e-13 1.2683953884551305e-13 6.223627151342972e-14 8.103619538019366e-14 8.234978189220382e-14 8.512143662760278e-14
          1.2007789977077921e-13 8.366336840421397e-14 1.95322564053256e-13 3.3458817393464186e-13 1.478858356139721e-13 2.3120062790240574e-13
          1.7915632908763716e-13 2.789204365508009e-13 1.9950819187053858e-13 1.5220736122347475e-12 1.4994299804205032e-12 1.2774948501213324e-12
          1.4313178026536232e-12 1.3103154216967376e-12 1.1168605441226819e-12 1.317018034831197e-12 2.88267201461492e-12 2.8366642397296393e-12
          2.165336093193975e-12 2.130992903317502e-12 2.7006799950396428e-12 2.02830121783118e-12 5.319616044983221e-12 5.2292654192024754e-12
          3.927255450601562e-12 4.9678391989810475e-12 2.4905331611957503e-12 1.8651036084897366e-12 2.2250155044766845e-12 1.6584907471036365e-12
          4.5616999173678175e-12 3.424345083451211e-12 4.049576230887016e-12 9.861677718861209e-12 9.683808140518258e-12 7.433053501917735e-12
          7.298691690102725e-12 9.169772770342435e-12 6.910428142742841e-12 1.809923162242047e-11 1.775221060427595e-11 1.3426417461070031e-11
          1.6751581730729145e-11 8.374686534955331e-12 6.309961778000429e-12 7.379256811017043e-12 5.558392799829728e-12 1.5210770111790116e-11
          1.149986731908167e-11 1.3294701269460178e-11 1.1160143696914754e-12 1.0992542442217197e-12 1.5967035436018348e-12 1.5712470133402415e-12
          7.906699197087088e-13 1.1679337839529825e-12 1.1491206046682249e-12 1.0473107283682697e-12 1.4957088214231073e-12 1.0943098837551918e-12
          2.979069992557336e-12 2.928289005124333e-12 2.167684672547848e-12 2.781180919928315e-12 5.847292507203756e-13 5.756035671107867e-13
          8.542276704443262e-13 8.404667020975691e-13 4.200118136948066e-13 6.229118143556586e-13 6.129259497063366e-13 5.492602344900157e-13
          8.006130884452135e-13 5.839963709572116e-13 1.6215660231192692e-12 1.5939254048248306e-12 1.1645272105337789e-12 1.513875447667689e-12
          9.628969828101474e-13 1.3762198473388284e-12 6.968760644392233e-13 1.0087882260603284e-12 8.565069960296776e-13 1.2252559940113631e-12
          9.005675346503472e-13 2.5525973532508593e-12 1.889513610763514e-12 2.264616768710422e-12 5.085173011519209e-13 7.386421088204898e-13
          3.7144890008501817e-13 5.389698705100675e-13 4.561782662686686e-13 6.597871113706726e-13 4.813476054128444e-13 1.3895001731870245e-12
          1.015237820115362e-12 1.2327524451897268e-12 5.56260182557549e-12 5.461862234303503e-12 4.13337771341874e-12 4.0584061023366584e-12
          5.170775898325049e-12 3.841790440306937e-12 1.0278211728269496e-11 1.0080219704047776e-11 7.512532829202376e-12 9.509432925312767e-12
          3.0497046240417032e-12 2.9943179477975554e-12 2.234339767230162e-12 2.193711378035604e-12 2.8343012937416748e-12 2.076357250668671e-12
          5.667520974905877e-12 5.557941225426484e-12 4.081831017866116e-12 5.242093170860411e-12 4.720669543993594e-12 3.5068718799048456e-12
          4.157419728432458e-12 3.087820113901022e-12 8.630871130864142e-12 6.4304204725438134e-12 7.538993148430928e-12 2.58691834769043e-12
          1.8949736387236433e-12 2.2774093190640054e-12 1.6680402528024643e-12 4.756093198007955e-12 3.4921206228040243e-12 4.152340595848478e-12
          1.3650735993054813e-12 1.9196978357524028e-12 1.0053875290563463e-12 1.4279070518761895e-12 1.1368291035621707e-12 1.6025115816787305e-12
          1.1933998852473304e-12 3.4767286097536516e-12 2.607961538972066e-12 2.8883776576540812e-12 9.254834908440967e-13 1.3008738914639274e-12
          6.897220377367529e-13 9.718369080668471e-13 7.351980096286826e-13 1.0271990959617812e-12 7.693958701111938e-13 2.324068689413596e-12
          1.7427605273872495e-12 1.813114280864313e-12 6.276125933450943e-12 4.7258496470751866e-12 5.155574123900011e-12 3.8805964093806076e-12
          1.1190358219031137e-11 8.45409939631139e-12 9.07670442730935e-12 4.093667172194702e-12 3.080018751228302e-12 3.144960860330792e-12
          2.3652448418149857e-12 7.1005960222226886e-12 5.3588662880593e-12 5.362849190455805e-12 7.395392843893013e-13 1.0572065207121345e-12
          5.433098626053825e-13 7.792280391659094e-13 6.216732527619535e-13 8.85692976244035e-13 6.544950252882521e-13 1.943148090018403e-12
          1.4382510792706653e-12 1.6139794882466142e-12 3.9622995374029464e-13 5.707182291840568e-13 2.8818551662500567e-13 4.15832642298509e-13
          3.365471403781667e-13 4.800330067465945e-13 3.5004764296902135e-13 1.057703916570635e-12 7.7267797276598e-13 8.782623857885643e-13
          5.114749864395965e-13 7.221907368399085e-13 3.7999516679227643e-13 5.346997596168338e-13 4.0955376623471174e-13 5.720281866990931e-13
          4.239884926244006e-13 1.2987423593912367e-12 9.615617797735818e-13 1.0128565257195902e-12 2.8386863354814705e-13 3.9413845664469136e-13
          2.1197531729595507e-13 2.8710609611179794e-13 2.3289388148133733e-13 3.1220332715879087e-13 2.467127280744504e-13 7.072172980971254e-13
          5.140931999740455e-13 5.500525464705848e-13 3.5336766067364717e-12 2.6238394805747276e-12 2.900728458532245e-12 2.1532622224703804e-12
          6.340770930663482e-12 4.721352885245287e-12 5.1384235314193204e-12 1.934694085393874e-12 1.416669940588885e-12 1.5870653637321362e-12
          1.1614446248273238e-12 3.4901139836386246e-12 2.5613230740238303e-12 2.826146741488294e-12 2.3015427871289193e-12 1.708255567817771e-12
          1.7666591787966342e-12 1.3108042344040831e-12 4.015566785221477e-12 2.9875215807208367e-12 3.0293646186354153e-12 1.2599080157089722e-12
          9.22241140788979e-13 9.678231770781554e-13 7.08204497964363e-13 2.2065782821602187e-12 1.617879846360915e-12 1.6627819829329646e-12
          3.121449712563539e-11 3.05906350798927e-11 2.3697364382033563e-11 2.3222153108487067e-11 2.8793927861530083e-11 2.1853813280084313e-11
          4.462485609957987e-11 4.375258590518329e-11 3.336056131592313e-11 4.1233939741168015e-11 2.6034227676785416e-11 1.975283470384742e-11
          2.261597194544727e-11 1.7151822990119866e-11 3.734663019680564e-11 2.8451436750214524e-11 3.2500766584777874e-11 4.62023521883306e-11
          4.547884502212925e-11 3.5500639995992505e-11 3.493422962736079e-11 4.334460901727571e-11 3.326657144235149e-11 4.2198844945637786e-11
          4.170650850982448e-11 3.2229447711869114e-11 4.0201164506783215e-11 3.992265029487277e-11 3.060143648408845e-11 3.544784773113583e-11
          2.7129995638321874e-11 3.764084945256938e-11 2.8984558830830658e-11 3.4063098567311175e-11 1.7852572042305584e-11 1.74935170036544e-11
          1.3346766541576945e-11 1.307763909547203e-11 1.6459806366726445e-11 1.2302934553825566e-11 2.5742533386607712e-11 2.523388147173162e-11
          1.8936066778889694e-11 2.3766213529786135e-11 9.902372927659584e-12 9.702241335859492e-12 7.29122847375265e-12 7.143567039878776e-12
          9.126216875837339e-12 6.7186113851833924e-12 1.4385327710873915e-11 1.4098656774898324e-11 1.0415244573111996e-11 1.3271943791670927e-11
          1.4873113323922493e-11 1.1114116990368344e-11 1.2909644697812681e-11 9.64355316468486e-12 2.150405848105083e-11 1.6126020245381242e-11
          1.8689352031183116e-11 8.242486544766135e-12 6.066784641317177e-12 7.149665645551748e-12 5.260960038622255e-12 1.1999027469792441e-11
          8.859182179143835e-12 1.0417461218909059e-11 2.7051408881259618e-11 2.6612465814009674e-11 2.0444363839629462e-11 2.010750937228968e-11
          2.5322281046224528e-11 1.911888896910376e-11 2.50109280009245e-11 2.4694149524586462e-11 1.8762111868544647e-11 2.3736178786975555e-11
          1.5325939616116602e-11 1.5069861992530673e-11 1.1396792305461115e-11 1.1203902350150278e-11 1.4319333913149214e-11 1.0639266870044357e-11
          1.4330931008005927e-11 1.4137125579160508e-11 1.0564996018823405e-11 1.3555845287458811e-11 2.326642665059536e-11 1.7547712699969816e-11
          2.0598073111624054e-11 1.5514973599587526e-11 2.2134907818558745e-11 1.6766194870790302e-11 1.9938356171082514e-11 1.312939319094699e-11
          9.745997711067934e-12 1.1594379697929034e-11 8.596769404231033e-12 1.259712140132132e-11 9.388921579026185e-12 1.1301196761667724e-11
          1.8882792038665006e-11 1.431297248352143e-11 1.516093745667578e-11 1.1484775248360437e-11 2.717068047280337e-11 2.0668082451876612e-11
          2.1820022558509127e-11 1.1714275109731431e-11 8.867742933221412e-12 8.71891426998885e-12 6.59523582740287e-12 1.6836320060725848e-11
          1.2783332277798469e-11 1.248843799412939e-11 3.026915230848582e-11 2.31285577341959e-11 2.481001854800108e-11 1.8926088472970885e-11
          2.965492803022654e-11 2.2724899529960932e-11 2.4751045030003916e-11 1.949695699118136e-11 1.4849443554783333e-11 1.4684558566841725e-11
          1.1167312832279966e-11 1.976409329357448e-11 1.5078444070372996e-11 1.50872646457186e-11 1.0767798696161232e-11 8.040140771109902e-12
          8.635327248008126e-12 6.444612833680302e-12 1.5600278917763997e-11 1.1684587652596984e-11 1.250682127745641e-11 5.958597639443968e-12
          4.3829865614427534e-12 4.773930132965311e-12 3.510066382255387e-12 8.684718386856368e-12 6.405726544118271e-12 6.952814189294892e-12
          6.663430992831193e-12 4.9701018829387406e-12 4.952351305203994e-12 3.6914223156848705e-12 9.632727877642159e-12 7.203908115140333e-12
          7.1315333154030694e-12 3.6796922936396844e-12 2.704158413197324e-12 2.7313386710877713e-12 2.0060767837544834e-12 5.346923514099699e-12