<?xml version="1.0"?>
<VTKFile type="UnstructuredGrid" version="0.1" byte_order="LittleEndian" header_type="UInt32" compressor="vtkZLibDataCompressor">
  <UnstructuredGrid>
    <Piece NumberOfPoints="1449" NumberOfCells="953">
      <PointData>
        <DataArray type="Int32" Name="libmesh_node_id" format="ascii" RangeMin="2203" RangeMax="10744">
          2203 2323 2361 2439 2442 2445
          2505 2506 2509 2511 2629 2630
          2631 2635 2646 2647 2648 2649
          2650 2651 2652 2653 2654 2655
          2814 2815 3219 3220 3221 3222
          3223 3224 3225 3226 3228 3233
          3234 3235 3238 3259 3261 3262
          3263 3265 3268 3269 3272 3293
          3294 3295 3296 3297 3298 3299
          3300 3301 3302 3303 3304 3305
          3306 3307 3308 3309 3310 3311
          3312 3525 3527 3529 3530 3586
          3587 3588 3589 3590 3591 3592
          3593 3594 3595 3692 3693 3694
          3695 3696 3697 3698 3699 3700
          3701 3702 3703 3704 3705 3706
          3707 3708 3709 3710 3711 3712
          3713 3714 3715 4397 4398 4399
          4400 4401 4402 4403 4404 4405
          4406 4407 4408 4411 4412 4413
          4414 4416 4417 4418 4419 4420
          4421 4422 4423 4424 4425 4426
          4584 4586 4588 4590 4592 4594
          4596 4597 4598 4599 4600 4601
          4602 4603 4604 4605 4606 4607
          4608 4609 4610 4611 4612 4613
          4615 4617 4619 4621 4623 4625
          4627 4628 4629 4630 4631 4632
          4633 4634 4635 4636 4637 4638
          4639 4640 4641 4660 4661 4662
          4665 4670 4671 4672 4675 4692
          4693 4696 4699 4700 4703 4769
          4770 4771 4772 4773 4774 4775
          4776 4777 4778 4779 4780 4781
          4782 4783 4784 4785 4786 4787
          4788 4789 4790 4791 4792 4793
          4794 4795 4796 4797 4798 4799
          4800 4801 4802 4803 4804 4805
          4806 4807 4808 4809 4810 4811
          4812 4813 4814 4815 4816 4817
          4818 4819 4820 4821 4822 4823
          4824 4825 4826 4827 4828 4829
          4830 4831 4832 4833 4834 4835
          4836 4837 4838 4839 4840 4841
          4842 4843 4844 4845 4846 4847
          4848 4849 4850 4851 4852 4853
          4854 4855 4856 5524 5525 5526
          5527 5528 5529 5530 5531 5532
          5533 5616 5617 5618 5619 5620
          5621 5622 5654 5655 5656 5657
          5658 5659 5660 5661 5662 5663
          5664 5665 5666 5667 5668 5669
          5670 5671 5672 5673 5674 5675
          5676 5677 5678 5679 5680 5681
          5682 5683 5684 5685 5686 5687
          5688 5689 5690 5691 5692 5693
          5694 5845 5846 5847 5848 5849
          5850 5851 5852 5853 5854 5855
          5856 5857 5858 7972 7973 7974
          7975 7976 7977 7978 7979 7980
          7981 7982 7983 7984 7985 7986
          7987 7988 7989 7990 7991 7992
          7993 7994 7995 7996 7997 7998
          7999 8000 8001 8002 8003 8004
          8005 8006 8007 8008 8009 8010
          8011 8012 8013 8014 8015 8016
          8017 8018 8019 8020 8021 8032
          8033 8034 8035 8036 8037 8038
          8039 8040 8041 8052 8053 8054
          8055 8056 8057 8058 8059 8060
          8061 8062 8063 8064 8065 8066
          8067 8068 8069 8070 8071 9142
          9143 9144 9146 9147 9155 9156
          9157 9158 9159 9160 9161 9170
          9171 9172 9174 9175 9183 9184
          9185 9186 9187 9188 9189 9190
          9191 9192 9193 9194 9195 9196
          9204 9205 9206 9207 9208 9209
          9210 9218 9219 9220 9221 9222
          9223 9224 9232 9233 9234 9235
          9236 9237 9238 9249 9253 9254
          9255 9256 9257 9258 9259 9260
          9262 9263 9264 9266 9268 9270
          9271 9272 9273 9274 9275 9276
          9277 9278 9279 9283 9287 9288
          9289 9290 9291 9292 9293 9295
          9297 9299 9301 9302 9303 9304
          9305 9306 9307 9308 9309 9310
          9311 9312 9313 9314 9315 9316
          9317 9322 9323 9324 9327 9328
          9329 9330 9331 9332 9333 9334
          9335 9336 9337 9338 9339 9340
          9341 9342 9343 9344 9345 9346
          9347 9348 9349 9350 9351 9352
          9353 9354 9357 9358 9361 9362
          9363 9364 9365 9366 9367 9368
          9369 9370 9371 9372 9373 9374
          9375 9384 9385 9386 9388 9389
          9397 9398 9399 9400 9401 9402
          9403 9412 9413 9414 9416 9417
          9425 9426 9427 9428 9429 9430
          9431 9432 9433 9434 9435 9436
          9437 9438 9446 9447 9448 9449
          9450 9451 9452 9460 9461 9462
          9463 9464 9465 9466 9474 9475
          9476 9477 9478 9479 9480 9491
          9495 9496 9497 9498 9499 9500
          9501 9503 9505 9507 9509 9510
          9511 9512 9513 9514 9515 9519
          9523 9524 9525 9526 9527 9528
          9529 9531 9533 9535 9537 9538
          9539 9540 9541 9542 9543 9544
          9545 9546 9547 9548 9549 9550
          9553 9554 9557 9558 9559 9560
          9561 9562 9563 9564 9565 9566
          9567 9568 9569 9570 9571 9572
          9573 9574 9575 9576 9577 9578
          9581 9582 9585 9586 9587 9588
          9589 9590 9591 9592 9593 9594
          9595 9596 9597 9598 9599 9744
          9754 9771 9772 9775 9778 9779
          9782 9812 9822 9839 9840 9843
          9846 9847 9850 9979 9980 9983
          9986 9987 9990 10007 10008 10011
          10014 10015 10018 10035 10036 10039
          10042 10043 10046 10063 10064 10067
          10070 10071 10074 10321 10322 10323
          10324 10325 10326 10327 10328 10329
          10330 10331 10332 10333 10334 10335
          10336 10337 10338 10339 10340 10341
          10342 10343 10344 10345 10346 10347
          10348 10349 10350 10351 10352 10353
          10354 10355 10356 10357 10358 10359
          10360 10361 10362 10363 10364 10365
          10366 10367 10368 10369 10370 10371
          10372 10373 10374 10375 10376 10377
          10378 10379 10380 10381 10382 10383
          10384 10385 10386 10387 10388 10389
          10390 10391 10392 10393 10394 10395
          10396 10397 10398 10399 10400 10401
          10402 10403 10404 10405 10406 10407
          10408 10409 10410 10411 10412 10413
          10414 10415 10416 10417 10418 10419
          10420 10421 10422 10423 10424 10425
          10426 10427 10428 10429 10430 10431
          10432 10433 10434 10435 10436 10437
          10438 10439 10440 10441 10442 10443
          10444 10445 10446 10447 10448 10449
          10450 10451 10452 10453 10454 10455
          10456 10457 10458 10459 10460 10461
          10462 10463 10464 10465 10466 10467
          10468 10469 10470 10471 10472 10473
          10474 10475 10476 10477 10478 10479
          10480 10481 10482 10483 10484 10485
          10486 10487 10488 10489 10490 10491
          10492 10493 10494 10495 10496 10497
          10498 10499 10500 10501 10502 10503
          10504 10505 10506 10507 10508 10509
          10510 10511 10512 10513 10514 10515
          10516 10517 10518 10519 10520 10521
          10522 10523 10524 10525 10526 10527
          10528 10529 10530 10531 10532 10533
          10534 10535 10536 10537 10538 10539
          10540 10541 10542 10543 10544 10545
          10546 10547 10548 10549 10550 10551
          10552 10553 10554 10555 10556 10557
          10558 10559 10560 10561 10562 10563
          10564 10565 10566 10567 10568 10569
          10570 10571 10572 10573 10574 10575
          10576 10577 10578 10579 10580 10581
          10582 10583 10584 10585 10586 10587
          10588 10589 10590 10591 10592 10593
          10594 10595 10596 10597 10598 10599
          10600 10601 10602 10603 10604 10605
          10606 10607 10608 10609 10610 10611
          10612 10613 10614 10615 10616 10617
          10618 10619 10620 10621 10622 10623
          10624 10625 10626 10627 10628 10629
          10630 10631 10632 10633 10634 10635
          10636 10637 10638 10639 10640 10641
          10642 10643 10644 10645 10646 10647
          10648 10649 10650 10651 10652 10653
          10654 10655 10656 10657 10658 10659
          10660 10661 10662 10663 10664 10665
          10666 10667 10668 10669 10670 10671
          10672 10673 10674 10675 10676 10677
          10678 10679 10680 10681 10682 10683
          10684 10685 10686 10687 10688 10689
          10690 10691 10692 10693 10694 10695
          10696 10697 10698 10699 10700 10701
          10702 10703 10704 10705 10706 10707
          10708 10709 10710 10711 10712 10713
          10714 10715 10716 10717 10718 10719
          10720 10721 10722 10723 10724 10725
          10726 10727 10728 10729 10730 10731
          10732 10733 10734 10735 10736 10737
          10738 10739 10740 10741 10742 10743
          10744 2440 2503 2441 2504 2508
          2510 2512 2638 2639 2642 2802
          2809 2805 2612 2623 2436 3198
          3149 3132 3199 3150 3200 3153
          3520 3523 3578 3579 3582 2446
          3584 3673 3674 3677 3285 3684
          3289 3685 3688 2644 3690 4333
          4075 4051 4334 4076 4335 4079
          4343 4344 4095 4096 4099 4101
          2617 4727 4728 4731 3286 4761
          4745 4762 4765 4767 5649 5650
          5653 5840 5841 5844 7740 6562
          6518 7741 6563 7742 6566 2614
          7745 6568 4338 4081 7750 7751
          7752 7755 3204 6582 6583 6586
          6588 3155 7780 7781 7782 7785
          4348 6616 6617 6620 6622 6967
          8294 9134 7274 8295 9135 9136
          7276 9137 8301 9141 8302 8305
          4470 9145 9139 4583 9148 7288
          9149 9150 7290 9151 9153 4585
          8329 8330 9169 9163 9165 8333
          3243 9173 9167 4587 9177 9179
          9181 4589 8350 8351 8354 4476
          8378 8379 8382 4480 9246 7374
          9247 9248 7376 9250 9251 9252
          7392 9261 7393 9265 7396 9267
          9269 9280 9281 9282 9284 9285
          9286 9294 9296 9298 9300 8549
          8550 9383 9377 9379 8553 4504
          9387 9381 4614 9391 9393 9395
          4616 8577 8578 9411 9405 9407
          8581 3248 9415 9409 4618 9419
          9421 9423 4620 8598 8599 8602
          4510 8626 8627 8630 4514 9488
          9489 9490 9492 9493 9494 9502
          9504 9506 9508 9516 9517 9518
          9520 9521 9522 9530 9532 9534
          9536 10125 10126 10129 4269 10131
          7424 10141 10143 3187 10145 4733
          10159 10160 10163 10165 7588 10215
          10217 4297 10219 4743 10229 10231
          10233 7616 10243 10245 2444 10247
          4747 10257 10259 10261 3291 10305
          10315 10317 10319
        </DataArray>
        <DataArray type="Float64" Name="bounds" format="ascii" RangeMin="0" RangeMax="0">
          0 0 0 0 0 0
          0 0 0 0 0 0
          0 0 0 0 0 0
          0 0 0 0 0 0
          0 0 0 0 0 0
          0 0 0 0 0 0
          0 0 0 0 0 0
          0 0 0 0 0 0
          0 0 0 0 0 0
          0 0 0 0 0 0
          0 0 0 0 0 0
          0 0 0 0 0 0
          0 0 0 0 0 0
          0 0 0 0 0 0
          0 0 0 0 0 0
          0 0 0 0 0 0
          0 0 0 0 0 0
          0 0 0 0 0 0
          0 0 0 0 0 0
          0 0 0 0 0 0
          0 0 0 0 0 0
          0 0 0 0 0 0
          0 0 0 0 0 0
          0 0 0 0 0 0
          0 0 0 0 0 0
          0 0 0 0 0 0
          0 0 0 0 0 0
          0 0 0 0 0 0
          0 0 0 0 0 0
          0 0 0 0 0 0
          0 0 0 0 0 0
          0 0 0 0 0 0
          0 0 0 0 0 0
          0 0 0 0 0 0
          0 0 0 0 0 0
          0 0 0 0 0 0
          0 0 0 0 0 0
          0 0 0 0 0 0
          0 0 0 0 0 0
          0 0 0 0 0 0
          0 0 0 0 0 0
          0 0 0 0 0 0
          0 0 0 0 0 0
          0 0 0 0 0 0
          0 0 0 0 0 0
          0 0 0 0 0 0
          0 0 0 0 0 0
          0 0 0 0 0 0
          0 0 0 0 0 0
          0 0 0 0 0 0
          0 0 0 0 0 0
          0 0 0 0 0 0
          0 0 0 0 0 0
          0 0 0 0 0 0
          0 0 0 0 0 0
          0 0 0 0 0 0
          0 0 0 0 0 0
          0 0 0 0 0 0
          0 0 0 0 0 0
          0 0 0 0 0 0
          0 0 0 0 0 0
          0 0 0 0 0 0
          0 0 0 0 0 0
          0 0 0 0 0 0
          0 0 0 0 0 0
          0 0 0 0 0 0
          0 0 0 0 0 0
          0 0 0 0 0 0
          0 0 0 0 0 0
          0 0 0 0 0 0
          0 0 0 0 0 0
          0 0 0 0 0 0
          0 0 0 0 0 0
          0 0 0 0 0 0
          0 0 0 0 0 0
          0 0 0 0 0 0
          0 0 0 0 0 0
          0 0 0 0 0 0
          0 0 0 0 0 0
          0 0 0 0 0 0
          0 0 0 0 0 0
          0 0 0 0 0 0
          0 0 0 0 0 0
          0 0 0 0 0 0
          0 0 0 0 0 0
          0 0 0 0 0 0
          0 0 0 0 0 0
          0 0 0 0 0 0
          0 0 0 0 0 0
          0 0 0 0 0 0
          0 0 0 0 0 0
          0 0 0 0 0 0
          0 0 0 0 0 0
          0 0 0 0 0 0
          0 0 0 0 0 0
          0 0 0 0 0 0
          0 0 0 0 0 0
          0 0 0 0 0 0
          0 0 0 0 0 0
          0 0 0 0 0 0
          0 0 0 0 0 0
          0 0 0 0 0 0
          0 0 0 0 0 0
          0 0 0 0 0 0
          0 0 0 0 0 0
          0 0 0 0 0 0
          0 0 0 0 0 0
          0 0 0 0 0 0
          0 0 0 0 0 0
          0 0 0 0 0 0
          0 0 0 0 0 0
          0 0 0 0 0 0
          0 0 0 0 0 0
          0 0 0 0 0 0
          0 0 0 0 0 0
          0 0 0 0 0 0
          0 0 0 0 0 0
          0 0 0 0 0 0
          0 0 0 0 0 0
          0 0 0 0 0 0
          0 0 0 0 0 0
          0 0 0 0 0 0
          0 0 0 0 0 0
          0 0 0 0 0 0
          0 0 0 0 0 0
          0 0 0 0 0 0
          0 0 0 0 0 0
          0 0 0 0 0 0
          0 0 0 0 0 0
          0 0 0 0 0 0
          0 0 0 0 0 0
          0 0 0 0 0 0
          0 0 0 0 0 0
          0 0 0 0 0 0
          0 0 0 0 0 0
          0 0 0 0 0 0
          0 0 0 0 0 0
          0 0 0 0 0 0
          0 0 0 0 0 0
          0 0 0 0 0 0
          0 0 0 0 0 0
          0 0 0 0 0 0
          0 0 0 0 0 0
          0 0 0 0 0 0
          0 0 0 0 0 0
          0 0 0 0 0 0
          0 0 0 0 0 0
          0 0 0 0 0 0
          0 0 0 0 0 0
          0 0 0 0 0 0
          0 0 0 0 0 0
          0 0 0 0 0 0
          0 0 0 0 0 0
          0 0 0 0 0 0
          0 0 0 0 0 0
          0 0 0 0 0 0
          0 0 0 0 0 0
          0 0 0 0 0 0
          0 0 0 0 0 0
          0 0 0 0 0 0
          0 0 0 0 0 0
          0 0 0 0 0 0
          0 0 0 0 0 0
          0 0 0 0 0 0
          0 0 0 0 0 0
          0 0 0 0 0 0
          0 0 0 0 0 0
          0 0 0 0 0 0
          0 0 0 0 0 0
          0 0 0 0 0 0
          0 0 0 0 0 0
          0 0 0 0 0 0
          0 0 0 0 0 0
          0 0 0 0 0 0
          0 0 0 0 0 0
          0 0 0 0 0 0
          0 0 0 0 0 0
          0 0 0 0 0 0
          0 0 0 0 0 0
          0 0 0 0 0 0
          0 0 0 0 0 0
          0 0 0 0 0 0
          0 0 0 0 0 0
          0 0 0 0 0 0
          0 0 0 0 0 0
          0 0 0 0 0 0
          0 0 0 0 0 0
          0 0 0 0 0 0
          0 0 0 0 0 0
          0 0 0 0 0 0
          0 0 0 0 0 0
          0 0 0 0 0 0
          0 0 0 0 0 0
          0 0 0 0 0 0
          0 0 0 0 0 0
          0 0 0 0 0 0
          0 0 0 0 0 0
          0 0 0 0 0 0
          0 0 0 0 0 0
          0 0 0 0 0 0
          0 0 0 0 0 0
          0 0 0 0 0 0
          0 0 0 0 0 0
          0 0 0 0 0 0
          0 0 0 0 0 0
          0 0 0 0 0 0
          0 0 0 0 0 0
          0 0 0 0 0 0
          0 0 0 0 0 0
          0 0 0 0 0 0
          0 0 0 0 0 0
          0 0 0 0 0 0
          0 0 0 0 0 0
          0 0 0 0 0 0
          0 0 0 0 0 0
          0 0 0 0 0 0
          0 0 0 0 0 0
          0 0 0 0 0 0
          0 0 0 0 0 0
          0 0 0 0 0 0
          0 0 0 0 0 0
          0 0 0 0 0 0
          0 0 0 0 0 0
          0 0 0 0 0 0
          0 0 0 0 0 0
          0 0 0 0 0 0
          0 0 0 0 0 0
          0 0 0 0 0 0
          0 0 0 0 0 0
          0 0 0 0 0 0
          0 0 0 0 0 0
          0 0 0 0 0 0
          0 0 0 0 0 0
          0 0 0 0 0 0
          0 0 0 0 0 0
          0 0 0 0 0 0
          0 0 0 0 0 0
          0 0 0 0 0 0
          0 0 0 0 0 0
          0 0 0 0 0 0
          0 0 0 0 0 0
          0 0 0
        </DataArray>
        <DataArray type="Float64" Name="gradient_error" format="ascii" RangeMin="6.576970779406312e-13" RangeMax="9.78567292566924e-10">
          1.1954355386775957e-11 1.362879655925101e-12 4.487243959660159e-12 3.019991244877986e-11 7.784374806464594e-12 6.2157744460247e-12
          8.129776876695593e-12 4.873612999917901e-12 2.0023866114518224e-12 1.1818747609204692e-12 1.1173024333574015e-10 2.640209310843268e-11
          7.626876165380743e-12 2.723608170487412e-11 3.8080874596340624e-11 1.7056463870732942e-11 9.984284193846573e-12 6.048584415107334e-12
          2.023928971884727e-11 1.3832398244067516e-11 3.6488882577278626e-12 8.900935483476426e-12 1.791342051958316e-12 4.79008963169429e-12
          1.0015231749714533e-10 3.081183294557195e-11 2.517142367707916e-10 1.6358853760081571e-10 1.2087084665924548e-10 7.874107229133847e-11
          1.0049139716266303e-10 6.255656188306125e-11 3.629667718607343e-11 4.3298572451540026e-11 2.9811701910883023e-11 2.25598939113363e-11
          2.2858835377159907e-11 1.032111073503376e-11 1.7585365357236644e-11 1.4404872931895443e-10 2.8389637938737087e-11 1.4918458081205358e-11
          2.8656633463101756e-10 4.943988878269471e-11 7.1586789858066205e-12 3.133923139035189e-12 1.3657034442485006e-11 2.3887999215595055e-11
          1.3753024214074021e-11 1.716191759414462e-11 6.717138297022368e-12 2.1660776102769447e-11 1.5623911442216018e-11 7.449190887708413e-12
          6.50176611421197e-12 5.795344971687449e-12 1.9042507345741016e-11 1.5354944678293626e-11 6.5571636784741945e-12 8.44099337849744e-12
          4.169126266401867e-12 6.330019765604856e-12 4.9080614086339654e-12 3.6635734585662815e-12 4.568796913543264e-12 1.927178771458889e-12
          4.143883086576828e-12 3.2771492375299226e-11 9.969614926701958e-12 1.0578866161331612e-11 3.918218462149724e-12 4.67719658088754e-12
          4.149580522887896e-12 1.9619601178334452e-12 1.5937366738247344e-12 2.893323313165262e-12 1.842163083477658e-12 8.066139581645071e-13
          3.6219644648882536e-12 1.2255132298160236e-12 7.910028537900541e-13 3.5572800289771424e-11 3.0337349335150885e-11 1.7130860748613452e-11
          2.0467622716586033e-11 2.0577400972932195e-11 3.059945131307174e-11 1.4111415712318834e-11 8.002277974170776e-12 1.5756987529516032e-11
          4.105287287911886e-12 7.469192892063264e-12 5.033045322755733e-12 6.541337146582084e-12 3.4681923178584676e-12 1.3509584220134984e-11
          1.538523315205589e-11 6.391455571231017e-12 7.15541621730604e-12 8.203892534436118e-12 7.781082634300452e-12 3.4854606551806596e-12
          1.7260882083976793e-11 7.919376863381062e-12 7.358272734164788e-12 1.6894647879938778e-10 1.0387945548070999e-10 1.2220953498380562e-10
          7.517271208356455e-11 1.060059981274589e-10 6.462961268661052e-11 5.8069756361572744e-11 7.710136657604064e-11 5.734872667341492e-11
          4.4253836515759836e-11 8.610289181376727e-11 5.3121801845545643e-11 5.2758524772359426e-11 5.2938409836615744e-11 3.700228716611908e-11
          4.165872767474841e-11 4.225577666546274e-11 6.150450158958135e-11 5.811290782036224e-11 4.319403005599735e-11 5.327984637171607e-11
          3.4774420621376026e-11 5.268733007441492e-11 3.728220978884247e-11 4.2670934920967885e-11 4.240628699190883e-11 4.202062277366708e-11
          1.3313666214353286e-10 7.199703122979999e-11 2.811544475849217e-10 9.963734822006433e-11 5.313202813006023e-11 2.1790249153023558e-10
          1.0943316920699213e-10 4.764627269387375e-11 3.5508371284409845e-11 2.2047217844879195e-11 1.618598956362518e-11 8.716357861983492e-11
          6.656279523266035e-11 3.789753698154936e-11 4.217426857502898e-11 2.5869267900070292e-11 2.968615022673353e-11 1.8414535754322336e-11
          2.484534681257614e-11 1.534885966506768e-11 1.4551882283068232e-11 4.965390404803442e-11 3.615760739216193e-11 2.0805946037482157e-11
          4.864680662753291e-10 2.421795739783221e-10 5.574861994277292e-10 3.8947311181519667e-10 1.8891724850766428e-10 4.510003542969757e-10
          2.2554322592048808e-10 1.3596380214165628e-10 1.061658185850723e-10 5.575915672342355e-11 4.250831826670158e-11 1.596547158174185e-10
          1.256947323985934e-10 6.439340672598226e-11 8.089771517472433e-11 6.01254404716707e-11 3.17022905564589e-11 2.3110641006644574e-11
          9.652705547495446e-11 7.227189014232099e-11 3.7122028588703936e-11 1.583711927358114e-11 9.938969925777093e-12 6.621499210700533e-12
          1.0454659258352656e-11 6.806402060329476e-12 4.342268009096845e-12 2.782192745163776e-12 4.790208500982362e-12 1.6459487442497462e-11
          1.1447556943079403e-11 1.951785847678253e-11 7.774764618645228e-12 5.155606834445948e-12 9.32755848495941e-12 2.9087243423778068e-11
          1.773093628768702e-11 2.0623497994784476e-11 1.2756485475294335e-11 2.5767735150641234e-11 2.1724461808119664e-11 1.5519764580286064e-11
          1.5488774778040177e-11 1.1387247902959379e-11 1.8929627512777932e-11 1.8398569085852666e-11 1.3113690018561758e-11 1.9413082186246797e-11
          1.3259161352159722e-11 1.2935034075638294e-11 1.0864259045041795e-11 7.542370134507801e-12 8.209737655191717e-12 5.795756724984372e-12
          9.724605331864725e-12 2.157906520747765e-11 1.6079392860093398e-11 1.5224546252427642e-11 1.1122420091479399e-11 2.4349542646026122e-11
          1.8255685089583583e-11 8.86964023951997e-12 1.1753009685717007e-11 8.405251908599766e-12 7.915782295549022e-12 6.811054398575039e-12
          1.3425651075086828e-11 9.654741529777913e-12 4.668333361895413e-12 2.0873681611786326e-11 1.6781460326900788e-11 1.5195851335064218e-11
          1.2239350895878e-11 1.131444783656757e-11 1.3875551875860533e-11 1.0123856882522113e-11 9.56873456519942e-12 6.894799348171209e-12
          1.5143129391846057e-11 1.0727962780694112e-11 8.633793718220578e-12 7.41113766704404e-12 7.293986579143932e-12 5.8238454367676e-12
          7.096775282003466e-12 4.8194814167480135e-12 4.847474472556429e-12 6.036778383903305e-12 7.622943147677958e-12 1.5509553955272662e-11
          1.0501936417364175e-11 1.0344231580875995e-11 8.437604999571764e-12 6.638676835817917e-12 6.5254515529102285e-12 6.935699898297847e-12
          5.290026060139715e-12 4.913736749002656e-12 5.905531105452334e-12 6.762803583554198e-12 5.5310026330275605e-12 4.289662743767234e-12
          3.496061420169759e-12 4.370671301311509e-12 5.7338502015122424e-12 3.6041289073097463e-12 3.2413116266325332e-12 2.0587332969704538e-12
          3.863173861598732e-12 5.87347979896175e-12 4.0138235353438115e-12 5.984915618303524e-12 4.019266531107886e-12 6.779506627076496e-12
          4.656746099762381e-12 6.649563831365908e-12 2.682477702812727e-12 1.7510853212100564e-12 2.6256283627546402e-12 1.6808189499002237e-12
          3.1300607597347923e-12 2.05548767779071e-12 3.012724702506221e-12 2.717096095849293e-12 3.1671932066978428e-12 1.239377407585922e-12
          1.4071488652485054e-12 1.699765579978235e-12 1.546604837301758e-12 7.4568251109469e-13 3.617290317546392e-12 1.5749203229110883e-12
          1.3934440946252812e-12 3.031395177905333e-11 5.007599038721376e-11 2.1373012764784447e-11 3.527817575767781e-11 1.7443505040981553e-11
          2.6053390439796036e-11 2.092733114827135e-11 1.1938912494572812e-11 1.494471379010614e-11 8.256165902787517e-12 1.0605983386461358e-11
          8.281402702046582e-12 9.151162007653357e-12 6.368119335576818e-12 5.824015927055305e-12 7.47693131089581e-12 4.073379589022299e-12
          5.1764958032013465e-12 3.874370112317402e-12 4.475726784761814e-12 3.1641012309595327e-12 2.665965734822222e-12 3.403051922314823e-12
          2.125741685789996e-12 2.6719093864838217e-12 1.880442161169958e-12 2.279885835048297e-12 1.979346797545803e-12 4.999943775425706e-12
          3.716873042043202e-12 2.9825580263897174e-12 6.400955310270665e-12 4.393844967370011e-12 3.374532679936389e-12 2.4601755347060525e-12
          6.942161179497345e-12 4.821418915264044e-12 3.4632788160199793e-12 2.639469053023841e-12 2.9147206583237342e-12 1.7065331365243407e-12
          1.8782972022066886e-12 1.7671565258372808e-12 1.7028829107143309e-12 1.1246596432937125e-12 3.189972263623628e-12 2.0500612678890362e-12
          1.638609295591381e-12 1.8820251869328882e-11 2.6692745941535988e-11 1.3402928391698927e-11 1.88982042712784e-11 1.3348599644077431e-11
          1.769517645213316e-11 1.2626873193089087e-11 9.548507774557504e-12 1.30707882535307e-11 8.086691856598382e-12 1.0626320409404612e-11
          7.014797336885926e-12 9.18811550699493e-12 7.956181871381723e-12 5.641920660462386e-11 7.259289316160227e-11 4.8712204754619836e-11
          6.287279341754099e-11 4.501845124494601e-11 5.763121332213052e-11 4.981003843449905e-11 1.126219192905735e-10 9.82302243770782e-11
          8.864125826794933e-11 4.1595612876199184e-11 5.404903598031496e-11 3.534901580330906e-11 4.621765545543544e-11 3.312191019622844e-11
          4.2744927301328275e-11 3.649494191227917e-11 8.520560402741741e-11 7.347613525428924e-11 6.66922745324676e-11 3.516764814743625e-11
          4.475459338645477e-11 3.031678599453223e-11 3.860061641870391e-11 2.697792218767925e-11 3.404238271458843e-11 2.926829078818758e-11
          6.816641376918981e-11 5.912122452344119e-11 5.122959984663379e-11 2.5972984973856827e-11 3.306295203298069e-11 2.2167149085767122e-11
          2.808896042944505e-11 2.007637999778116e-11 2.4863649168393214e-11 2.251113883841824e-11 5.106005439346887e-11 4.376403241194773e-11
          3.7943590068993014e-11 3.0045671740430515e-11 3.938049088714217e-11 2.540702953994498e-11 3.3365698320866586e-11 2.387082146895654e-11
          3.102848209171926e-11 2.6226198811411725e-11 6.29788876237899e-11 5.3652862900505626e-11 4.9024067482672e-11 1.881317039839216e-11
          2.3731844828626993e-11 1.5836003898509612e-11 1.9981719746315128e-11 1.6710602009097544e-11 2.0343648802130747e-11 1.708521523851025e-11
          3.7167537353749986e-11 3.1408382870205353e-11 3.049588509452044e-11 2.04354399448857e-11 2.5210464788825972e-11 1.7590360783018773e-11
          2.163593207903328e-11 1.7827580510814534e-11 2.130955972467481e-11 1.830276271445454e-11 3.7556880473905376e-11 3.2350916136166416e-11
          2.963399224462185e-11 1.5309046596010164e-11 1.840103354153361e-11 1.4401654100707729e-11 1.6882810470083948e-11 1.3381153973464576e-11
          1.5773086489506063e-11 1.4697224286678694e-11 2.760856244939758e-11 2.568450174649862e-11 2.195455072289245e-11 1.1429045486635108e-10
          1.019025783454495e-10 8.828917822032424e-11 1.7418289839357023e-10 1.5239273229714773e-10 7.720841858361214e-11 6.679689707988191e-11
          5.7100748731350925e-11 4.9265319756299746e-11 1.1390416889600931e-10 9.912377863169564e-11 8.305206883962464e-11 2.5943231375403684e-10
          2.2257876536061813e-10 1.9618757538114882e-10 3.7550157853831385e-10 3.159668046810267e-10 1.6438830850718243e-10 1.4422573286505778e-10
          1.1822563137654927e-10 1.0325878315079523e-10 2.3070025205471852e-10 2.0414462506575526e-10 1.6366561372012003e-10 9.871211769621171e-11
          8.47123381229862e-11 7.602312427737405e-11 6.505776021506368e-11 1.51726934018901e-10 1.3127053197145394e-10 1.1555389756093612e-10
          5.730907854777555e-11 4.883292731903303e-11 4.204199846189491e-11 3.564503478970761e-11 8.572087588689595e-11 7.366497536389286e-11
          6.203875248794811e-11 2.2812853021542723e-10 1.9916887065656032e-10 1.7174974019418107e-10 1.4932425524052343e-10 3.335535139126718e-10
          2.9408586895669857e-10 2.484078170394982e-10 1.2571063267818104e-10 1.0885389898446035e-10 8.962407517217025e-11 7.730261133795691e-11
          1.7942048697331762e-10 1.5661148982316555e-10 1.2596419065438343e-10 3.3716848618016075e-11 4.126543710848523e-11 3.541733273175849e-11
          2.908343582239519e-11 2.4932053685418248e-11 5.915271716102059e-11 5.1093912391620846e-11 4.1243128298845305e-11 2.2506085615500086e-11
          1.9322933817294513e-11 2.3418655557986906e-11 1.572661882435853e-11 1.6074146169417632e-11 3.269331487690599e-11 1.6549473980070244e-11
          2.010482291477573e-11 1.4119674079208878e-11 1.7185222704301254e-11 1.1418464465864662e-11 1.3720936949291326e-11 1.1660698717183334e-11
          2.8200000830127007e-11 2.421263907718676e-11 1.894092693942514e-11 6.5418979195957e-11 8.297833592118494e-11 7.216075121368614e-11
          5.697383711432527e-11 4.9347818942353994e-11 1.1311227306032919e-10 9.904543227986258e-11 7.63874797182928e-11 4.423036762267498e-11
          2.938380449949339e-11 5.798034854997831e-11 3.835682700278666e-11 3.309937514511405e-11 2.5371864889165956e-11 2.1801433324298426e-11
          5.0558650965145925e-11 4.3849909112552277e-11 3.288481352975584e-11 2.4280890108926512e-11 3.009596501447412e-11 2.035955564265672e-11
          2.544343085379999e-11 1.725782117895817e-11 2.1185891036619793e-11 1.790760393864468e-11 4.387293813423398e-11 3.744878788691753e-11
          3.0397043918381785e-11 1.2193243944805447e-11 1.5081418819865853e-11 1.2627150255338511e-11 2.1890192068548712e-11 1.198605123244309e-11
          1.4632621623069395e-11 1.0176423941528819e-11 1.2405017392438133e-11 8.211749713091365e-12 9.832435159511647e-12 9.086734463011296e-12
          2.073113312693709e-11 1.7634999907731773e-11 1.3732438522620199e-11 8.642010918865584e-12 1.0459265373277028e-11 7.2632378257572475e-12
          8.753221207431003e-12 7.350186570619907e-12 8.602884536963282e-12 7.200040647427949e-12 1.4840356668946825e-11 1.2405510320484873e-11
          1.0809401374074663e-11 6.237880556439772e-11 5.359851942440826e-11 4.249519324646508e-11 3.63759642302494e-11 8.619532982461235e-11
          7.454701298742736e-11 5.7662340263918364e-11 3.0954249990098065e-11 2.618602469814058e-11 4.249959982166288e-11 2.8435607684635413e-11
          2.4283539061826616e-11 1.865103104504709e-11 1.583174441210702e-11 3.7813612716607335e-11 3.2417017342181613e-11 2.437210334258649e-11