<?xml version="1.0"?>
<VTKFile type="UnstructuredGrid" version="0.1" byte_order="LittleEndian" header_type="UInt32" compressor="vtkZLibDataCompressor">
  <UnstructuredGrid>
    <Piece NumberOfPoints="307" NumberOfCells="148">
      <PointData>
        <DataArray type="Int32" Name="libmesh_node_id" format="ascii" RangeMin="210" RangeMax="2313">
          210 219 259 261 264 267
          377 386 387 388 391 394
          409 582 587 749 750 753
          787 795 796 800 803 812
          813 818 833 834 837 838
          840 842 857 873 874 875
          876 877 878 879 969 970
          973 974 976 978 1109 1112
          1134 1135 1136 1144 1145 1148
          1149 1192 1193 1194 1195 1196
          1197 1198 1199 1203 1204 1216
          1217 1218 1219 1222 1223 1224
          1383 1389 1390 1394 1413 1417
          1421 1504 1505 1506 1507 1508
          1509 1512 1513 1515 1517 1518
          1519 1520 1521 1523 1525 1527
          1528 1529 1530 1531 1532 1533
          1536 1537 1539 1541 1610 1616
          1617 1620 1711 1715 1723 1724
          1725 1726 1727 1728 1729 1730
          1731 1732 1733 1734 1735 1736
          1737 1738 1739 1740 1741 1742
          1743 1744 1745 1746 1747 1748
          1749 1750 1751 1752 1753 1754
          1755 1756 1757 1758 1759 1760
          1761 1762 1767 1769 1791 1793
          1795 1797 2263 2264 2265 2266
          2267 2268 2269 2270 2271 2272
          2273 2274 2275 2276 2277 2278
          2279 2280 2281 2282 2283 2284
          2285 2286 375 382 376 384
          389 392 395 424 428 425
          429 431 433 581 584 586
          369 372 598 599 583 600
          601 605 606 730 747 731
          732 748 751 752 736 374
          755 754 756 784 785 786
          788 789 790 791 793 797
          798 801 804 835 403 836
          839 772 971 972 975 977
          1118 1146 1147 1150 404 1200
          1201 1202 1205 1220 1221 1225
          397 1510 1391 1511 1514 814
          1516 1418 1522 1524 399 1526
          841 1534 1535 1538 1540 1556
          1558 1763 1765 1764 1766 1768
          880 1576 1777 1578 1779 1781
          1778 1782 1783 1792 1794 1712
          872 1796 884 1805 1806 1807
          1809 1810 1811 2287 2288 2291
          2292 2294 2296 2307 2309 2311
          2313
        </DataArray>
        <DataArray type="Float64" Name="bounds" format="ascii" RangeMin="0" RangeMax="0">
          0 0 0 0 0 0
          0 0 0 0 0 0
          0 0 0 0 0 0
          0 0 0 0 0 0
          0 0 0 0 0 0
          0 0 0 0 0 0
          0 0 0 0 0 0
          0 0 0 0 0 0
          0 0 0 0 0 0
          0 0 0 0 0 0
          0 0 0 0 0 0
          0 0 0 0 0 0
          0 0 0 0 0 0
          0 0 0 0 0 0
          0 0 0 0 0 0
          0 0 0 0 0 0
          0 0 0 0 0 0
          0 0 0 0 0 0
          0 0 0 0 0 0
          0 0 0 0 0 0
          0 0 0 0 0 0
          0 0 0 0 0 0
          0 0 0 0 0 0
          0 0 0 0 0 0
          0 0 0 0 0 0
          0 0 0 0 0 0
          0 0 0 0 0 0
          0 0 0 0 0 0
          0 0 0 0 0 0
          0 0 0 0 0 0
          0 0 0 0 0 0
          0 0 0 0 0 0
          0 0 0 0 0 0
          0 0 0 0 0 0
          0 0 0 0 0 0
          0 0 0 0 0 0
          0 0 0 0 0 0
          0 0 0 0 0 0
          0 0 0 0 0 0
          0 0 0 0 0 0
          0 0 0 0 0 0
          0 0 0 0 0 0
          0 0 0 0 0 0
          0 0 0 0 0 0
          0 0 0 0 0 0
          0 0 0 0 0 0
          0 0 0 0 0 0
          0 0 0 0 0 0
          0 0 0 0 0 0
          0 0 0 0 0 0
          0 0 0 0 0 0
          0
        </DataArray>
        <DataArray type="Float64" Name="gradient_error" format="ascii" RangeMin="2.441758613497394e-9" RangeMax="1.584644938493963e-7">
          3.0776407052804144e-8 1.3267015751170086e-7 2.271795306595141e-8 7.643612448205616e-8 7.988052294597293e-8 9.062880975368906e-8
          8.51788851953541e-8 7.006295509706118e-8 8.270544681738783e-8 7.494526527542512e-8 8.491694673177101e-8 6.985831298773576e-8
          7.902981751148664e-9 2.5688329553316948e-8 4.5522994939676244e-8 3.265576228479656e-8 5.842395858682673e-8 4.067084986941932e-8
          8.191416488689474e-8 3.744267649153176e-8 4.6338087920581796e-8 3.3974194296557636e-8 5.0562559406822066e-8 2.275261971055295e-8
          4.2784431267159e-8 8.249936472730892e-8 1.9949267337057565e-8 3.295336062723649e-8 1.8901538648675143e-8 2.650921340978075e-8
          5.440935446143274e-8 3.472674783619615e-8 9.194183637547949e-8 7.877438400938964e-8 1.3778378247962204e-8 4.3846736520989006e-8
          6.8885530656826325e-9 8.930022328951353e-8 1.6352348653504896e-8 4.874209505033745e-8 2.489648675737852e-8 2.857741571605193e-8
          2.1278074393570554e-8 2.6388923490813722e-8 3.122351012944313e-8 2.8220198195291798e-8 4.9888468966790826e-8 2.9514912130259964e-8
          1.7580284844357895e-8 2.2840540725135064e-8 1.8345583917219484e-8 1.4350042536650555e-8 1.916168664362715e-8 1.1206779818072254e-8
          1.460263990943886e-8 1.5789638062341176e-8 2.0611622296517838e-8 1.9557010245586504e-8 1.722459257551267e-8 1.2272176259428206e-8
          1.1658656952184499e-8 1.7227510794643125e-8 1.6370391019856926e-8 1.0164483723495325e-8 1.4284189359333624e-8 8.26160379459692e-9
          1.085429829298366e-8 1.1282940190985353e-8 1.3729118884441136e-8 7.2393777871439755e-9 9.510772908374183e-9 1.1511450812512094e-8
          5.59360078931754e-9 4.174889404117418e-9 5.066776367171928e-9 7.758695641834715e-9 1.2222366545912896e-8 1.1385575891173926e-8
          1.6180471732132704e-8 4.165563303161932e-9 4.7880326008487684e-9 4.325164563273564e-9 7.157173082164141e-9 3.6177982628612423e-9
          4.310611453008592e-9 3.33779338467817e-9 3.899789150938562e-9 6.4889336926221095e-9 5.741339524798448e-9 1.0261401179343947e-8
          8.236427604382533e-9 1.3913979270913828e-8 9.436910841855055e-9 7.516263702291772e-9 1.3011849092472297e-8 1.0110589421269446e-8
          5.584225077597699e-9 6.452988844005192e-9 5.727949676857353e-9 8.358928688916952e-9 4.9710706982336796e-9 5.820654169905433e-9
          4.379261375139437e-9 5.092092007670534e-9 7.681250447272593e-9 6.172872088543448e-9 2.324353513193824e-8 2.223515307304155e-8
          2.003468928657629e-8 2.7751604593917783e-8 2.6997851055814144e-8 2.845546405182629e-8 1.8547242564815745e-8 1.4070670738156708e-8
          2.241498265641416e-8 1.736303783106221e-8 1.516624936010888e-8 1.309076490960882e-8 1.1237815208409887e-8 2.137830537478624e-8
          1.916610451039182e-8 1.5760730498892094e-8 1.047496570371136e-8 7.803423948797752e-9 1.2183911425673926e-8 9.692733386535992e-9
          8.173972934695238e-9 7.093116909278096e-9 5.786680660337634e-9 1.1405477153325954e-8 9.813411299562041e-9 8.313150589051998e-9
          2.5499293388122116e-8 1.888251678489592e-8 2.705410614411496e-8 2.450565542190955e-8 2.2234280028260052e-8 1.7795894366644946e-8
          1.5657507003638353e-8 2.5856456513048286e-8 2.3370262668939566e-8 1.8682089288169804e-8 1.3394140570156385e-8 9.933405954313327e-9
          1.3974284928966419e-8 1.2629665358674922e-8 1.0994755502363002e-8 9.13101136064812e-9 7.636108150090117e-9 1.3141579930801923e-8
          1.1420846531593163e-8 9.465108549034074e-9 1.6675359438623664e-8 1.1790914897161805e-8 1.9451487367546045e-8 1.3488861965550462e-8
          2.0501676815677432e-8 1.4117688145280015e-8 5.090292008873926e-9 5.64300059047248e-9 5.063509929068029e-9 6.4926359891198084e-9
          4.615816731800962e-9 5.09796706394162e-9 3.6645132719848018e-9 4.06037011108426e-9 4.0908521452565295e-9 4.426690116278396e-9
          3.3638731785464104e-9 5.895939862407703e-9 4.762201506511343e-9 5.042293287892465e-9 7.026895851195679e-9 6.311274800312684e-9
          7.264228896222777e-9 6.4220625198769214e-9 5.238276305989592e-9 5.500062397759698e-9 4.199418311956444e-9 6.6323627110207185e-9
          5.408376549140217e-9 5.678066307034726e-9 1.3850988900572767e-7 1.24152522555225e-7 1.2040756232607603e-7 1.3860528569259961e-7
          1.2734702767187786e-7 9.93879047812748e-8 1.530831706217948e-7 2.193338673142475e-8 2.4242443282818824e-8 2.912912706241492e-8
          4.488163359585915e-8 3.743316324388321e-8 5.522734859088005e-8 1.178020093650198e-7 5.8963525379187006e-8 8.426718195976982e-8
          1.2660540442921798e-7 7.436161544246855e-8 1.472770478951772e-8 1.3333119784181993e-8 6.652566735883711e-8 1.0446942100022675e-8
          9.277559428408228e-9 9.929523962774314e-9 1.4156003359174458e-8 5.9057989092305764e-8 4.6268197376614335e-8 8.471845747281234e-8
          8.047249233903208e-8 6.345317984426955e-8 3.965183192741747e-8 5.257473833828536e-8 1.4278462365069828e-7 1.4798508617986242e-7
          1.0067952896381029e-7 1.0297127708434606e-7 7.369383858970797e-8 1.388882839852199e-7 1.418286541463045e-7 8.620156842220254e-8
          1.5247217611367245e-7 1.584644938493963e-7 9.461120133441974e-8 4.737831369082631e-8 5.1865566837055094e-8 3.858672008683004e-8
          3.995288065789763e-8 5.635281998328387e-8 4.1319041228965226e-8 1.0108799334790027e-8 1.7526070374073258e-8 8.134527277101096e-9
          1.3601557182485168e-8 1.5276921448990434e-7 1.2769577470975649e-8 1.0854204465940325e-8 1.787825804921761e-8 1.1983665829472089e-8
          1.497651201220571e-8 8.87487174641392e-9 1.239314693038994e-8 8.650814852622057e-9 9.024028075845143e-9 5.907156065204943e-9
          1.1195290821987402e-8 1.0638290271352377e-8 9.103777170854536e-9 4.48904871266305e-9 7.0221449808945555e-9 5.91802534079739e-9
          8.055118037210779e-9 2.7244396764097747e-9 4.072298553510731e-9 3.41418818741387e-9 3.0730468440033025e-9 6.399827077029731e-9
          5.261086928862646e-9 9.75738686573836e-9 7.903715085154056e-9 6.171443462077953e-9 1.4327001414729126e-8 1.1243890049007714e-8
          8.574986863810924e-9 3.869764594984787e-9 4.651919713733273e-9 3.9646747542657075e-9 6.361931287940497e-9 9.497794403597075e-9
          7.095244045479568e-9 1.306315753047941e-8 9.486616628117316e-9 1.0850638923564468e-8 7.743631913614933e-9 1.399103178112312e-8
          9.74235745149448e-9 5.153270834597532e-9 6.7433729529214664e-9 3.961079484421931e-9 4.667904510824377e-9 8.202906980325627e-9
          5.397329132203325e-9 6.6405619224340356e-9 5.6255893377700395e-9 1.637954019692481e-8 1.1221316405302368e-8 2.3090516269726455e-8
          2.4439293248475572e-8 1.7276050695644686e-8 1.1768735565863321e-8 9.2582799825694e-9 7.542725143437133e-9 6.279336747775948e-9
          9.642059321515607e-9 7.871444861166563e-9 6.514919644918728e-9 2.8653122269526155e-9 3.1986750502594113e-9 2.441758613497394e-9
          2.633916139384938e-9 3.789235670375085e-9 3.02659586359403e-9 4.190466320170731e-9 3.3359914324258826e-9 4.334499173157497e-9
          3.444864802936188e-9
        </DataArray>
        <DataArray type="Float64" Name="gradient_matprop_error" format="ascii" RangeMin="0" RangeMax="0">
          0 0 0 0 0 0
          0 0 0 0 0 0
          0 0 0 0 0 0
          0 0 0 0 0 0
          0 0 0 0 0 0
          0 0 0 0 0 0
          0 0 0 0 0 0
          0 0 0 0 0 0
          0 0 0 0 0 0
          0 0 0 0 0 0
          0 0 0 0 0 0
          0 0 0 0 0 0
          0 0 0 0 0 0
          0 0 0 0 0 0
          0 0 0 0 0 0
          0 0 0 0 0 0
          0 0 0 0 0 0
          0 0 0 0 0 0
          0 0 0 0 0 0
          0 0 0 0 0 0
          0 0 0 0 0 0
          0 0 0 0 0 0
          0 0 0 0 0 0
          0 0 0 0 0 0
          0 0 0 0 0 0
          0 0 0 0 0 0
          0 0 0 0 0 0
          0 0 0 0 0 0
          0 0 0 0 0 0
          0 0 0 0 0 0
          0 0 0 0 0 0
          0 0 0 0 0 0
          0 0 0 0 0 0
          0 0 0 0 0 0
          0 0 0 0 0 0
          0 0 0 0 0 0
          0 0 0 0 0 0
          0 0 0 0 0 0
          0 0 0 0 0 0
          0 0 0 0 0 0
          0 0 0 0 0 0
          0 0 0 0 0 0
          0 0 0 0 0 0
          0 0 0 0 0 0
          0 0 0 0 0 0
          0 0 0 0 0 0
          0 0 0 0 0 0
          0 0 0 0 0 0
          0 0 0 0 0 0
          0 0 0 0 0 0
          0 0 0 0 0 0
          0
        </DataArray>
        <DataArray type="Float64" Name="initial_marker" format="ascii" RangeMin="0" RangeMax="2">
          0 0 0 0 0 2
          1.5 0 0 0 0 0
          2 0 0 0.3333333333333333 1.25 0.6666666666666666
          2 0.6666666666666666 1 0 1 0.5
          2 2 0.25 1 0 0.25
          2 1 2 2 2 2
          2 2 2 2 0.25 0.5
          0 0 0.5 0 0 0
          0 0 0 0 0 0
          0 0 0 0 0 0
          0 0 0 0 0 0
          0 0 0 0 0 0
          1 0 1 2 2 2
          2 0 0.5 0 1.5 0
          0.5 0 0 1.5 0.6666666666666666 2
          1.5 2 2 1.5 2 2
          0 0.5 0 1.5 0 0.5
          0 0 1.5 0.6666666666666666 2 2
          2 2 2 2 2 2
          2 2 2 2 2 2
          2 2 2 1.5 2 2
          2 1.5 1.5 2 2 2
          2 2 2 2 2 2
          2 2 2 2 2 2
          2 2 2 2 2 2
          2 2 2 2 2 2
          2 2 0 0.5 0 1
          0 0.5 0 0.5 0 0
          0 1 1 0 1 0
          1 1 1 0 0 1
          1 0 0 0 1 0
          0 0 0 0 0 0
          0 0 0 0 0 0
          0.5 0.75 0 0 0 0
          0 0 0 1 0 1.5
          1.75 1 0 1 2 2
          2 2 1.6666666666666667 2 2 1.75
          2 2 2 0.5 0.75 0
          0 1 0 0 0 0.5
          0 2 0 0 0 0
          0 0 0 0 0.5 0
          0 0 0 0 0 0
          0 0 1 0.5 0 2
          1.5 2 2 1.5 2 2
          2 0 0.5 0 1.5 2
          2 2 2 2 2 2
          2 1.5 2 0.6666666666666666 1.5 2
          2 2 2 2 2 2
          2 2 2 2 2 2
          2 2 2 0 0.5 0
          0 1 0 1 0 1
          0
        </DataArray>
        <DataArray type="Float64" Name="markers_norefine" format="ascii" RangeMin="0" RangeMax="0">
          0 0 0 0 0 0
          0 0 0 0 0 0
          0 0 0 0 0 0
          0 0 0 0 0 0
          0 0 0 0 0 0
          0 0 0 0 0 0
          0 0 0 0 0 0
          0 0 0 0 0 0
          0 0 0 0 0 0
          0 0 0 0 0 0
          0 0 0 0 0 0
          0 0 0 0 0 0
          0 0 0 0 0 0
          0 0 0 0 0 0
          0 0 0 0 0 0
          0 0 0 0 0 0
          0 0 0 0 0 0
          0 0 0 0 0 0
          0 0 0 0 0 0
          0 0 0 0 0 0
          0 0 0 0 0 0
          0 0 0 0 0 0
          0 0 0 0 0 0
          0 0 0 0 0 0
          0 0 0 0 0 0
          0 0 0 0 0 0
          0 0 0 0 0 0
          0 0 0 0 0 0
          0 0 0 0 0 0
          0 0 0 0 0 0
          0 0 0 0 0 0
          0 0 0 0 0 0
          0 0 0 0 0 0
          0 0 0 0 0 0
          0 0 0 0 0 0
          0 0 0 0 0 0
          0 0 0 0 0 0
          0 0 0 0 0 0
          0 0 0 0 0 0
          0 0 0 0 0 0
          0 0 0 0 0 0
          0 0 0 0 0 0
          0 0 0 0 0 0
          0 0 0 0 0 0
          0 0 0 0 0 0
          0 0 0 0 0 0
          0 0 0 0 0 0
          0 0 0 0 0 0
          0 0 0 0 0 0
          0 0 0 0 0 0
          0 0 0 0 0 0
          0
        </DataArray>
        <DataArray type="Float64" Name="markers_mustrefine" format="ascii" RangeMin="0" RangeMax="2">
          0 0 0 0 0 2
          1.5 0 0 0 0 0
          2 0 0 0.3333333333333333 1.25 0.6666666666666666
          2 0.6666666666666666 1 0 1 0.5
          2 2 0.25 1 0 0.25
          2 1 2 2 2 2
          2 2 2 2 0.25 0.5
          0 0 0.5 0 0 0
          0 0 0 0 0 0
          0 0 0 0 0 0
          0 0 0 0 0 0
          0 0 0 0 0 0
          1 0 1 2 2 2
          2 0 0.5 0 1.5 0
          0.5 0 0 1.5 0.6666666666666666 2
          1.5 2 2 1.5 2 2
          0 0.5 0 1.5 0 0.5
          0 0 1.5 0.6666666666666666 2 2
          2 2 2 2 2 2
          2 2 2 2 2 2
          2 2 2 1.5 2 2
          2 1.5 1.5 2 2 2
          2 2 2 2 2 2
          2 2 2 2 2 2
          2 2 2 2 2 2
          2 2 2 2 2 2
          2 2 0 0.5 0 1
          0 0.5 0 0.5 0 0
          0 1 1 0 1 0
          1 1 1 0 0 1
          1 0 0 0 1 0
          0 0 0 0 0 0
          0 0 0 0 0 0
          0.5 0.75 0 0 0 0
          0 0 0 1 0 1.5
          1.75 1 0 1 2 2
          2 2 1.6666666666666667 2 2 1.75
          2 2 2 0.5 0.75 0
          0 1 0 0 0 0.5
          0 2 0 0 0 0
          0 0 0 0 0.5 0
          0 0 0 0 0 0
          0 0 1 0.5 0 2
          1.5 2 2 1.5 2 2
          2 0 0.5 0 1.5 2
          2 2 2 2 2 2
          2 1.5 2 0.6666666666666666 1.5 2
          2 2 2 2 2 2
          2 2 2 2 2 2
          2 2 2 0 0.5 0
          0 1 0 1 0 1
          0
        </DataArray>
        <DataArray type="Float64" Name="gradient_marker" format="ascii" RangeMin="0" RangeMax="1">
          0.5 1 0.5 0.375 0.625 0.5
          0.375 0.375 0.5 0.5 0.75 0.5
          1 0 0.25 0 0.25 0
          0.5 0 0 0 0 0
          0.25 0.5 0 0.125 0 0
          0.375 0.125 0.375 0.5 1 0.25
          1 0.5 1 0.25 0 0
          0 0 0 0 0.25 0.125
          0 0 0 0 0 0
          0 0 0 0 0 0
          0 0 0 0 0 0
          0 0 0 0 0 0
          0 0.5 0.5 0.5 0 0.5
          0.5 0 0 0 0 0.5
          0.5 0.5 0.5 0.5 0.5 0
          0 0 0.5 0.5 0.5 0.5
          0 0 0 0 0.5 0.5
          0.5 0.5 0.5 0.5 0 0.5
          1 0.5 1 1 0 0
          0 0.5 1 0.5 1 0.5
          1 0.5 0 0 0 0.5
          1 0.5 1 0.5 1 0.5
          0 0 0 0.5 1 0.5
          1 0.5 1 0.5 0 0
          0 0.5 1 0.5 1 0.5
          1 0.5 1 1 1 1
          1 1 0 0 0 0
          0.5 0.5 1 1 0.5 0.5
          1 0.5 1 0.5 0 0
          0 0.5 1 0.5 1 0.5
          1 0.5 0.75 0.75 0.5 0.75
          1 0.5 1 0.5 0.5 0.625
          0.75 0.75 1 0.5 0.25 0.5
          0.5 0.25 0.5 0.5 0.25 0.5
          0.5 0.5 0.5 0 0 0.5
          0.5 0.25 0 0 1 1
          0.75 0.75 0.3333333333333333 1 1 0.625
          1 1 0.75 0 0.125 0
          0 0.25 0 0.625 0.5 0.875
          0.625 0.75 0.625 0.75 0.5 0.75
          0.5 0.5 0.5 0.5 0.875 0.5
          0.5 0.5 0.5 0.5 0.5 0.5
          0.75 1 1 1 1 1
          1 1 1 1 1 1
          1 1 1 1 1 1
          1 1 1 1 1 1
          1 1 1 1 1 1
          1 1 1 1 1 1
          1 1 1 1 1 1
          1 1 1 1 1 1
          1 1 1 1 1 1
          1
        </DataArray>
        <DataArray type="Float64" Name="gradient_matprop_marker" format="ascii" RangeMin="0" RangeMax="0">
          0 0 0 0 0 0
          0 0 0 0 0 0
          0 0 0 0 0 0
          0 0 0 0 0 0
          0 0 0 0 0 0
          0 0 0 0 0 0
          0 0 0 0 0 0
          0 0 0 0 0 0
          0 0 0 0 0 0
          0 0 0 0 0 0
          0 0 0 0 0 0
          0 0 0 0 0 0
          0 0 0 0 0 0
          0 0 0 0 0 0
          0 0 0 0 0 0
          0 0 0 0 0 0
          0 0 0 0 0 0
          0 0 0 0 0 0
          0 0 0 0 0 0
          0 0 0 0 0 0
          0 0 0 0 0 0
          0 0 0 0 0 0
          0 0 0 0 0 0
          0 0 0 0 0 0
          0 0 0 0 0 0
          0 0 0 0 0 0
          0 0 0 0 0 0
          0 0 0 0 0 0
          0 0 0 0 0 0
          0 0 0 0 0 0
          0 0 0 0 0 0
          0 0 0 0 0 0
          0 0 0 0 0 0
          0 0 0 0 0 0
          0 0 0 0 0 0
          0 0 0 0 0 0
          0 0 0 0 0 0
          0 0 0 0 0 0
          0 0 0 0 0 0
          0 0 0 0 0 0
          0 0 0 0 0 0
          0 0 0 0 0 0
          0 0 0 0 0 0
          0 0 0 0 0 0
          0 0 0 0 0 0
          0 0 0 0 0 0
          0 0 0 0 0 0
          0 0 0 0 0 0
          0 0 0 0 0 0
          0 0 0 0 0 0
          0 0 0 0 0 0
          0
        </DataArray>
        <DataArray type="Float64" Name="combo" format="ascii" RangeMin="0" RangeMax="1">
          0.5 1 0.5 0.375 0.625 0.5
          0.375 0.375 0.5 0.5 0.75 0.5
          1 0 0.25 0 0.25 0
          0.5 0 0 0 0 0
          0.25 0.5 0 0.125 0 0
          0.375 0.125 0.375 0.5 1 0.25
          1 0.5 1 0.25 0 0
          0 0 0 0 0.25 0.125
          0 0 0 0 0 0
          0 0 0 0 0 0
          0 0 0 0 0 0
          0 0 0 0 0 0
          0 0.5 0.5 0.5 0 0.5
          0.5 0 0 0 0 0.5
          0.5 0.5 0.5 0.5 0.5 0
          0 0 0.5 0.5 0.5 0.5
          0 0 0 0 0.5 0.5
          0.5 0.5 0.5 0.5 0 0.5
          1 0.5 1 1 0 0
          0 0.5 1 0.5 1 0.5
          1 0.5 0 0 0 0.5
          1 0.5 1 0.5 1 0.5
          0 0 0 0.5 1 0.5
          1 0.5 1 0.5 0 0
          0 0.5 1 0.5 1 0.5
          1 0.5 1 1 1 1
          1 1 0 0 0 0
          0.5 0.5 1 1 0.5 0.5
          1 0.5 1 0.5 0 0
          0 0.5 1 0.5 1 0.5
          1 0.5 0.75 0.75 0.5 0.75
          1 0.5 1 0.5 0.5 0.625
          0.75 0.75 1 0.5 0.25 0.5
          0.5 0.25 0.5 0.5 0.25 0.5
          0.5 0.5 0.5 0 0 0.5
          0.5 0.25 0 0 1 1
          0.75 0.75 0.3333333333333333 1 1 0.625
          1 1 0.75 0 0.125 0
          0 0.25 0 0.625 0.5 0.875
          0.625 0.75 0.625 0.75 0.5 0.75
          0.5 0.5 0.5 0.5 0.875 0.5
          0.5 0.5 0.5 0.5 0.5 0.5
          0.75 1 1 1 1 1
          1 1 1 1 1 1
          1 1 1 1 1 1
          1 1 1 1 1 1
          1 1 1 1 1 1
          1 1 1 1 1 1
          1 1 1 1 1 1
          1 1 1 1 1 1
          1 1 1 1 1 1
          1
        </DataArray>
        <DataArray type="Float64" Name="dHdT" format="ascii" RangeMin="25.916123783221582" RangeMax="41.65612358353546">
          25.974996593694243 26.385143032996602 25.934116655012986 27.12749512424608 26.112873401984785 32.41731647639835
          29.90328180400987 26.50941279023734 27.040503775346693 26.511207149871765 26.55554346265378 27.334200549032072
          28.894151229743386 26.059884493146875 26.26231601680699 27.818892025555186 29.71171782798387 28.34333891850736
          31.71924512738641 28.11320507724693 28.752218386929478 27.79762854582944 29.049379283788568 27.539465155703823
          30.095936476734458 35.116470391678554 27.111624336025905 28.6296498902402 26.882806314464457 27.51412071535037
          31.382199502891932 28.860389472073795 39.14694682941748 34.73567033778382 31.92938884433312 30.391898383976564
          28.459803603940166 36.143992563191595 33.51557184155471 31.0629284524358 27.408476254185008 27.93105020715208
          26.970597738493353 27.262993170843682 28.15373802176495 27.387561784489975 26.28819795681391 26.08886763496522
          26.79942661177035 27.114463431685195 26.801094949655734 26.627306328163236 26.889226567501055 26.45664438993384
          26.629707654861576 26.52481927362395 27.00028027632523 26.94491405262965 26.803479964174485 26.405049248566172
          26.382525963054672 26.78280594078005 26.737538719003425 26.32285324273583 26.61973732174141 26.24467876524271
          26.346731869520998 26.466899573513402 26.613965628367435 26.203653722556936 26.386596000770773 26.510519157319973
          28.038360706866243 27.367632052041685 27.79134073149251 28.919089331531517 31.49143926018554 30.8398641004462
          33.73778480254001 27.341669861734513 27.721255181296712 27.562630336043384 28.69387556701689 27.16920385767081
          27.50959133981047 27.070240431861144 27.370409960911125 28.373195812500843 28.062722199590706 30.20851271872093
          29.181586802718193 32.55978969206963 29.713052211407227 28.806189357169483 31.80939051723578 30.11089529839503
          27.96935424987043 28.383256211573613 28.035088078360886 29.299745390774845 27.731823627333394 28.099049563384177
          27.495687057337456 27.791260218582615 28.916054557979617 28.273173403577005 36.76535828084982 36.24303048241355
          34.98075312863076 37.80745794464132 36.650353530238014 36.90618272755039 35.1260853182252 32.577194313957975
          36.666090111588026 34.30514294147312 32.66865992203728 31.82179405121391 30.45558440064336 36.092575618457644
          34.73374304125497 33.53686578339541 30.393629363703525 29.010860482940164 31.51549984303382 29.885039509233927
          28.977924826125648 28.660453055653385 28.032802867244058 30.879580294083848 29.74283210893477 29.20359406396589
          37.10933447403725 35.372937343981725 37.14919478147657 36.81850010696438 35.897194252662764 34.66931805171329
          33.09235580372333 36.97304544525107 36.232253078198866 35.04028720220698 32.42637233583015 30.06909633406584
          32.80667110472681 31.679311554830427 30.345019582916535 29.606449972799055 28.77623018689087 32.003707923436735
          30.578157348620103 29.760274513521473 33.05126025214863 30.4649883865347 34.42005387614254 31.397730265574502
          34.866992409922524 31.76872123349709 27.88711968964094 28.083612487742908 27.71040001271274 28.436304882746747
          27.666320324834057 27.84028160855746 27.264018203024435 27.399756571721763 27.374270170772352 27.507938388158703
          27.14204550394796 28.15661762864567 27.650296165894673 27.747392624720526 28.684652496489445 28.16324282816649
          28.77680051333026 28.381796352239792 27.831844380890118 27.91384514114377 27.465313671416947 28.464600339469104
          27.898591370409985 27.974511638391544 27.79326930199129 26.987511362399772 31.356278387880614 27.68960602684278
          26.971108306608834 28.140713477300984 27.215476179201534 26.100716894675784 26.044769825694434 26.391042121938828
          26.21221742948688 26.586463823468563 26.30110916646722 26.93027700230428 26.470087856350673 26.60121062776017
          29.189420626948603 28.207665094053265 25.954307861079634 25.942756403607127 26.567988531720214 26.06359839070202
          26.033093793288813 25.916123783221582 25.993859825355635 30.008033934177746 28.925977540636776 32.311025785060494
          31.3921261913136 30.565694903301843 28.40089125320583 29.5484791764392 36.98899879748904 36.240804219846794
          32.67302427138822 33.66861672410267 31.59658707660181 36.47178788639478 35.636095134531566 32.71032077579122
          37.81175459055112 37.061839037528586 33.373794486516005 29.126631026097762 29.495191592929658 28.148495961415733
          28.333510080469885 29.863752159761553 28.51852419952404 26.566096330955727 26.392794131230193 27.357612165593448
          26.802887767397806 41.65612358353546 26.767045024517913 27.05555322138685 26.780552656739502 27.193203660776497
          25.95744891103994 26.334924715323886 26.502430189532994 26.340352862549203 27.519258311242165 26.15932220174734
          26.41984142253341 26.39034934677938 26.3130662581202 26.080614809880903 26.22064158351422 26.176007921813387
          26.75757442401291 26.860286311812494 27.34763492469694 27.12764174391946 27.020909930865628 28.224902589426044
          27.798970105696377 29.6905197774532 28.83504558885263 28.137509698467603 32.17043487575001 30.449558665515106
          29.1436677446687 27.305203157600758 27.590457786471873 27.352452744773682 28.228889833468852 29.356942991514778
          28.378888380059564 31.106295911745093 29.36157462870596 29.752537800133695 28.489217198886863 31.28595815369298
          29.28211229074901 27.67692881403807 28.25458771066466 27.29087803176576 27.52772809661854 28.837593127038744
          27.663476019514178 28.102098863151113 27.860089697078386 32.57119558133004 29.939023604940473 35.43378862206774
          35.88118609510596 33.05584323322741 30.20041800783754 29.288383691051493 28.43808090590921 28.1057988268069
          29.460638320799877 28.565505302832136 28.197287883562993 26.932902076548913 27.03886091168299 26.760656676265757
          26.840950461249776 27.234783649003457 26.988644029228436 27.37768289372668 27.095509845548946 27.430618236263502
          27.134975878874805
        </DataArray>
        <DataArray type="Float64" Name="dk/dtemperature" format="ascii" RangeMin="0.00724345860374862" RangeMax="0.015804580349343192">
          0.015721048754272163 0.015192684558304652 0.01576281455180768 0.014208980866222898 0.015559457890012016 0.009923527259689521
          0.011760588794519586 0.015027319676194908 0.014318049982076192 0.014971527112318403 0.014932151526087633 0.013969137789320522
          0.012277126574849188 0.01565840005796889 0.015352389262152127 0.01340454754739489 0.011873368179412853 0.012928097629299877
          0.010460757852067213 0.013114449112657035 0.012545328352287636 0.013383529231561393 0.012301652599798794 0.013727917693970304
          0.011487414810727736 0.008623283531118266 0.01420778660908266 0.012686728532249534 0.014466224096066077 0.01375779194123109
          0.01053704199652458 0.012491552303176489 0.007822095276067658 0.008648381287133132 0.010306777697685768 0.011285883954583627
          0.012689495834142155 0.007744475019642082 0.009384345909577388 0.010816711484093623 0.013869568315412969 0.013300318926074832
          0.014353213793911301 0.01398285005417406 0.01306802812743227 0.01381741718069407 0.015326600140179898 0.015590782238163651
          0.014595130035094573 0.014180234581756365 0.014558144660168545 0.014812640960850465 0.014478636987112829 0.015030151886606356
          0.014794148273387453 0.014951400714144816 0.01436717256888204 0.014432464774704282 0.014547827314355402 0.015108903059067905
          0.015148278645298677 0.014648341989749607 0.014691429542044606 0.015229420029064961 0.014825283072134486 0.015370819897829773
          0.015145888433993927 0.015036441067843558 0.014780813410318883 0.015470453969059071 0.015156833085757753 0.014963729172453491
          0.013132815433850318 0.013862960390127688 0.013398378792842556 0.012310084633711391 0.01059253482382768 0.010953960470538936
          0.009120022482651563 0.013908503599561303 0.013462411295690684 0.013630980698924083 0.012497651623812008 0.01410677042833277
          0.013704829890741784 0.014239114351282809 0.01386912461928202 0.012793280476493894 0.013076283942096964 0.011326708170798973
          0.012022257963455046 0.009952963524286262 0.011658632192158711 0.012376569399649628 0.01036533894928208 0.011400552271543914
          0.01316702131651688 0.012756040954841511 0.013138590382049928 0.011926397910075338 0.013457243289150727 0.01307689282681819
          0.013747465261784574 0.013397744698794869 0.012298890077781845 0.01287123236631748 0.00724345860374862 0.007468240590020609
          0.008243310838506917 0.007366124224733615 0.007386100037431286 0.00742366216723017 0.008314056512456045 0.009953845203081265
          0.0073425468330108 0.008839136626102745 0.00985200854680958 0.010378233510268196 0.011167066678446053 0.00758233410016374
          0.00843472266683253 0.009337294337792259 0.011143290903308657 0.012139629918577446 0.01050900322875666 0.011526415766827901