<?xml version="1.0"?>
<VTKFile type="UnstructuredGrid" version="0.1" byte_order="LittleEndian" header_type="UInt32" compressor="vtkZLibDataCompressor">
  <UnstructuredGrid>
    <Piece NumberOfPoints="305" NumberOfCells="152">
      <PointData>
        <DataArray type="Int32" Name="libmesh_node_id" format="ascii" RangeMin="269" RangeMax="1964">
          271 396 397 400 410 598
          599 600 601 602 603 604
          605 809 819 820 821 822
          823 824 825 826 828 829
          830 887 888 889 890 891
          894 895 1200 1201 1202 1205
          1206 1207 1208 1209 1210 1211
          1212 1213 1214 1215 1220 1221
          1225 1226 1227 1228 1229 1230
          1231 1232 1233 1234 1235 1236
          1237 1238 1239 1240 1241 1242
          1371 1372 1373 1376 1387 1388
          1391 1422 1423 1424 1425 1426
          1427 1428 1429 1430 1431 1432
          1433 1434 1435 1436 1437 1438
          1439 1440 1441 1442 1443 1444
          1445 1446 1447 1448 1449 1450
          1451 1452 1453 1454 1455 1456
          1457 1458 1460 1461 1462 1463
          1464 1465 1466 1467 1468 1469
          1470 1471 1472 1473 1474 1475
          1476 1477 1478 1479 1480 1481
          1482 1483 1484 1485 1486 1487
          1489 1490 1491 1494 1495 1497
          1498 1500 1501 1510 1511 1514
          1542 1543 1544 1545 1546 1547
          1548 1561 1562 1655 1656 1657
          1658 1659 1660 1665 1666 1669
          1675 1676 1682 1819 1820 1821
          1822 1823 1824 1825 1826 1827
          1828 1829 1830 1831 1832 1833
          1834 1835 1836 1837 1838 1839
          1840 1841 1842 1847 1848 1849
          1850 1851 1852 1853 1854 1855
          1856 1857 1858 1859 1860 1861
          1862 1863 1867 1868 1869 1870
          1871 1872 1887 1888 1889 1890
          1949 1950 1951 1952 269 270
          607 606 608 609 610 611
          615 616 613 614 274 414
          411 417 272 845 843 827
          846 844 901 902 892 903
          904 893 908 909 896 915
          916 917 918 835 847 403
          1459 1493 1492 832 1496 1499
          1503 814 1549 1516 1550 1551
          836 1559 1560 1553 1563 1565
          1564 1678 1677 1684 1843 1844
          1845 1846 1864 1865 1866 1877
          1878 1881 1894 1896 1953 1954
          1955 1959 1960 1963 1964
        </DataArray>
        <DataArray type="Float64" Name="bounds" format="ascii" RangeMin="0" RangeMax="0">
          0 0 0 0 0 0
          0 0 0 0 0 0
          0 0 0 0 0 0
          0 0 0 0 0 0
          0 0 0 0 0 0
          0 0 0 0 0 0
          0 0 0 0 0 0
          0 0 0 0 0 0
          0 0 0 0 0 0
          0 0 0 0 0 0
          0 0 0 0 0 0
          0 0 0 0 0 0
          0 0 0 0 0 0
          0 0 0 0 0 0
          0 0 0 0 0 0
          0 0 0 0 0 0
          0 0 0 0 0 0
          0 0 0 0 0 0
          0 0 0 0 0 0
          0 0 0 0 0 0
          0 0 0 0 0 0
          0 0 0 0 0 0
          0 0 0 0 0 0
          0 0 0 0 0 0
          0 0 0 0 0 0
          0 0 0 0 0 0
          0 0 0 0 0 0
          0 0 0 0 0 0
          0 0 0 0 0 0
          0 0 0 0 0 0
          0 0 0 0 0 0
          0 0 0 0 0 0
          0 0 0 0 0 0
          0 0 0 0 0 0
          0 0 0 0 0 0
          0 0 0 0 0 0
          0 0 0 0 0 0
          0 0 0 0 0 0
          0 0 0 0 0 0
          0 0 0 0 0 0
          0 0 0 0 0 0
          0 0 0 0 0 0
          0 0 0 0 0 0
          0 0 0 0 0 0
          0 0 0 0 0 0
          0 0 0 0 0 0
          0 0 0 0 0 0
          0 0 0 0 0 0
          0 0 0 0 0 0
          0 0 0 0 0 0
          0 0 0 0 0
        </DataArray>
        <DataArray type="Float64" Name="gradient_error" format="ascii" RangeMin="3.233535898570358e-10" RangeMax="2.9869075953628664e-8">
          3.361817448254419e-9 1.0181235485476456e-8 8.055118037210779e-9 5.532936948178323e-9 1.6302964451150596e-9 1.472770478951772e-8
          1.3333119784181993e-8 1.0446942100022675e-8 9.277559428408228e-9 5.599460069060478e-9 4.17664764504861e-9 4.8146107486209745e-9
          9.929523962774314e-9 9.610613277163217e-9 6.189451608012267e-9 5.776926409809874e-9 6.122656730110211e-9 5.5212386583824674e-9
          3.071821071233096e-9 3.5319088212583115e-9 3.1520452501931705e-9 6.1069731477637844e-9 4.23731071784792e-9 1.7332229315908928e-8
          1.5101210287143496e-8 1.6494855769052045e-9 1.5126029692020043e-9 1.7094497680587015e-9 1.5182068861572951e-9 1.1768120298675964e-9
          2.464546738237513e-9 2.063524962028864e-9 5.907156065204943e-9 1.1195290821987402e-8 1.0638290271352377e-8 9.103777170854536e-9
          3.5608643398257465e-9 3.44176367119163e-9 6.701989138445389e-9 6.323145843306962e-9 2.013923445567752e-9 3.687614136107775e-9
          3.4439373121620212e-9 3.104107715690561e-9 5.304106164986503e-9 3.213079762960299e-9 4.48904871266305e-9 7.0221449808945555e-9
          5.91802534079739e-9 2.7011277295775702e-9 4.063516749274242e-9 2.093067330039218e-9 2.9195050342889443e-9 2.516703030331531e-9
          3.463123716744016e-9 2.6002917561295246e-9 1.0669940946556714e-9 1.1147089744628248e-9 1.8537765953144616e-9 1.7679806284401533e-9
          7.984621117913412e-10 1.1891208440977617e-9 1.2015695705927857e-9 1.1624238542699785e-9 1.6821846615658448e-9 1.2140182970878095e-9
          4.064504740017289e-9 5.564591138899074e-9 5.454899487365765e-9 5.138559418028784e-9 3.5269739252275478e-9 4.660589288211069e-9
          4.072298553510731e-9 3.28130143826976e-9 3.2154498152680497e-9 4.467132260402423e-9 4.372423445174079e-9 2.4798549531974135e-9
          3.504298098101636e-9 3.424978815422929e-9 3.043378248033911e-9 4.108145136817153e-9 3.210850731102028e-9 7.590385116035904e-9
          7.407607718142881e-9 5.966191621619755e-9 6.888984106890135e-9 1.8946678770477346e-9 1.8491656527784397e-9 2.6553795809043592e-9
          2.591745701707539e-9 1.3394014796843623e-9 1.9414945639146903e-9 1.893243469975954e-9 1.7530742391867562e-9 2.4244540121151464e-9
          1.7673246942220085e-9 4.750566423121988e-9 4.6230140108467885e-9 3.433197351834786e-9 4.25971679638823e-9 2.7986555486454787e-9
          3.707101287575892e-9 2.1958600153143903e-9 2.8741430079606186e-9 2.490286627666172e-9 3.207075297574247e-9 2.6342811034592524e-9
          6.122818447626012e-9 4.8535764538261394e-9 1.6776912677306286e-9 2.171625052870037e-9 1.2211833595005463e-9 1.5855017921766475e-9
          1.6528974855968896e-9 2.0224539040205e-9 1.4813465719464948e-9 3.7034324568573056e-9 2.7236033850699394e-9 3.4195051081822713e-9
          1.2631178405687778e-8 1.2274806487153894e-8 1.048984212560061e-8 1.0179599575155805e-8 1.1281878304985264e-8 9.310456927415843e-9
          2.052719667354394e-8 1.985326310507101e-8 1.674411296830038e-8 1.7960585262648583e-8 8.354772106307407e-9 8.093338726959276e-9
          6.343172118932026e-9 6.1350921193054025e-9 7.3632173282397055e-9 5.556634069511079e-9 1.4040406551918088e-8 1.3554123829027283e-8
          1.2192323467274017e-8 9.851822801812698e-9 8.071323836504884e-9 1.525345257800177e-8 1.2758003591700027e-8 6.325013593769819e-9
          4.734840310821903e-9 3.814005895246935e-9 1.0235665394499314e-8 2.7244396764097747e-9 3.41418818741387e-9 3.0730468440033025e-9
          2.1601088200531034e-9 2.667247179775912e-9 1.9413715098472096e-9 2.3393082898925e-9 1.9997971782633375e-9 2.3959706958665443e-9
          2.1202614423300446e-9 2.240344337632819e-9 2.9283803154351988e-9 2.9869075953628664e-8 2.9079134353110614e-8 2.6040531095867696e-8
          2.523342875594777e-8 2.6535365970348146e-8 2.2763433188810032e-8 2.145521046882202e-8 2.073382716123161e-8 1.8595742968130697e-8
          2.2341206494916488e-8 1.8944613233953002e-8 1.5392746981633195e-8 9.612218783583069e-10 9.388645034587728e-10 1.366837636444078e-9
          1.3329246219620897e-9 6.449326669253048e-10 9.302298790114283e-10 9.078411738340358e-10 8.844436104208842e-10 1.2397937725459816e-9
          8.422482016335182e-10 2.512290701932422e-9 2.439918872507415e-9 1.6595483686057357e-9 2.234736204081946e-9 4.4241121164722135e-10
          4.3361889339322527e-10 6.072468503229753e-10 5.930996223344816e-10 3.5700025340190133e-10 4.749400334496094e-10 4.642550635953149e-10
          4.078111410730233e-10 5.525138164410958e-10 4.338234641557069e-10 8.308236506922579e-10 1.1010164645001485e-9 5.558108880884515e-10
          7.417500539198457e-10 8.092672091019859e-10 1.0214569913884352e-9 6.844561732292983e-10 1.9255117979211835e-9 1.307266821300097e-9
          1.7634971463006004e-9 3.8071765285219876e-10 4.911494186889873e-10 3.233535898570358e-10 3.9945394432457947e-10 3.706395986975801e-10
          4.5622359884177117e-10 3.848310540787655e-10 4.577183533035942e-9 4.421976833352058e-9 3.1364112003042117e-9 3.0278696156613833e-9
          3.991911020965695e-9 2.7277762724670715e-9 3.385092208864916e-9 2.3077616901034937e-9 2.713293101685493e-9 1.8468100241802514e-9
          1.582379833196687e-9 2.0741295321535254e-9 1.0784448582159244e-9 1.4099881056602007e-9 9.08300446383388e-9 7.167243923875791e-9
          6.594694598102963e-9 1.4156003359174458e-8 1.926655717461126e-9 1.756547196826673e-9 1.845981535436132e-9 2.8754932026021685e-9
          1.5000299939069364e-9 3.234349489362755e-9 1.22256380371388e-9 1.1577609611457126e-9 1.1252147690197017e-9 1.0091213564794562e-9
          2.8085186452376082e-9 3.429041516498927e-9 7.1014322702565785e-9 6.4066842436973165e-9 7.25054043187047e-9 5.343507798986376e-9
          4.7123987404218565e-9 6.193050183971232e-9 1.2042252308178084e-9 1.1155912598653415e-9 1.0271024936589752e-9 7.503278800012681e-10
          6.903712770074857e-10 9.268067392436988e-10 9.046005123421447e-10 5.500657857357271e-10 1.0154671680553226e-9 3.844725256161785e-9
          2.32924854706865e-9 1.6684347468515525e-9 1.155084967432046e-9 1.0108799334790027e-8 7.325136207771432e-9 1.7526070374073258e-8
          5.200014111318454e-9 6.649749293131277e-9 8.202529630878139e-9 1.0179604345404912e-8 1.2289760123152773e-8 5.1461741618480614e-9
          8.079134715932244e-9 6.399827077029731e-9 4.2149252831202664e-9 5.261086928862646e-9 3.670026713713188e-9 3.637554861204107e-9
          8.134527277101096e-9 3.094565003657599e-9 3.986166057275388e-9 5.218064778959331e-9 2.3376280767972986e-9 2.1661071836918782e-9
          2.9691506619532305e-9 1.4697370354783948e-8 1.7484163225890745e-8 1.1854365796639005e-8 1.1144773994739837e-9 1.0822372085286256e-9
          7.714786670005509e-10 9.911889957756886e-10 8.519059169331011e-10 6.123241666391026e-10 7.762892565595794e-10 2.045840379702982e-9
          1.9746736021477907e-9 1.7779493043270126e-9 1.5007299129219184e-9 1.1963973494255943e-9 1.1921437598583951e-9 1.5290765232713294e-9
          1.0395954609904415e-9 6.944337483401025e-10 9.133622181377828e-10 5.258859649168698e-10 6.757198419886241e-10
        </DataArray>
        <DataArray type="Float64" Name="gradient_matprop_error" format="ascii" RangeMin="0" RangeMax="0">
          0 0 0 0 0 0
          0 0 0 0 0 0
          0 0 0 0 0 0
          0 0 0 0 0 0
          0 0 0 0 0 0
          0 0 0 0 0 0
          0 0 0 0 0 0
          0 0 0 0 0 0
          0 0 0 0 0 0
          0 0 0 0 0 0
          0 0 0 0 0 0
          0 0 0 0 0 0
          0 0 0 0 0 0
          0 0 0 0 0 0
          0 0 0 0 0 0
          0 0 0 0 0 0
          0 0 0 0 0 0
          0 0 0 0 0 0
          0 0 0 0 0 0
          0 0 0 0 0 0
          0 0 0 0 0 0
          0 0 0 0 0 0
          0 0 0 0 0 0
          0 0 0 0 0 0
          0 0 0 0 0 0
          0 0 0 0 0 0
          0 0 0 0 0 0
          0 0 0 0 0 0
          0 0 0 0 0 0
          0 0 0 0 0 0
          0 0 0 0 0 0
          0 0 0 0 0 0
          0 0 0 0 0 0
          0 0 0 0 0 0
          0 0 0 0 0 0
          0 0 0 0 0 0
          0 0 0 0 0 0
          0 0 0 0 0 0
          0 0 0 0 0 0
          0 0 0 0 0 0
          0 0 0 0 0 0
          0 0 0 0 0 0
          0 0 0 0 0 0
          0 0 0 0 0 0
          0 0 0 0 0 0
          0 0 0 0 0 0
          0 0 0 0 0 0
          0 0 0 0 0 0
          0 0 0 0 0 0
          0 0 0 0 0 0
          0 0 0 0 0
        </DataArray>
        <DataArray type="Float64" Name="initial_marker" format="ascii" RangeMin="0" RangeMax="2">
          0 0 0 0 0 0
          0 0 0 0 0 0
          0 0 0 0 2 2
          0 2 2 0 1.5 2
          2 0 0 2 2 0
          0 1 0 0 0 0
          0 0 0 0 0 0
          0 0 0 0 0 0
          0 0 0 0 0 0
          0 0 0 0 0 0
          0 0 0 0 0 0
          0 1 1 1 0 1
          1 0 0 1 1 0
          1 1 0 1 1 2
          2 2 2 0 0 1
          1 0 1 1 0 1
          1 2 2 2 2 0
          1 0 1 0 0.75 0.6666666666666666
          2 2 0 1 0 1
          0 1 1 2 2 2
          2 2 2 2 2 2
          2 2 2 2 2 2
          2 2 2 2 2 2
          2 2 2 2 2 2
          2 2 2 0 0.5 0
          0 0.25 0 0 0 0
          0 2 2 2 2 2
          2 2 2 2 2 2
          2 2 2 0 0 1
          1 0 1 1 0 1
          1 2 2 2 2 0
          0 1 1 0 1 1
          0 0.75 0.5 0 0.75 0
          0.5 0 0.5 0 1.75 1.5
          1.6666666666666667 0 0.25 0 0 0
          0 0 2 2 2 2
          2 2 2 2 2 2
          2 2 1.5 1.75 0 0
          0 0 0 0 0 0
          0 0 0 0 0 0
          0 0 0 0 0 1.5
          0.5 0.5 0 0 1.5 1
          1 1.25 0 0.25 0.75 0
          0.25 0 0 0 0 0
          1.75 2 2 2 2 2
          2 2 1.25 1.5 1.3333333333333333 0.6666666666666666
          0.5 2 2 2 1 1.5
          1.5 2 2 2 2 2
          2 1.75 1.25 1.3333333333333333 1.3333333333333333 2
          2 2 2 2 1 1.5
          1.25 1 1.5 0 0.75
        </DataArray>
        <DataArray type="Float64" Name="markers_norefine" format="ascii" RangeMin="0" RangeMax="0">
          0 0 0 0 0 0
          0 0 0 0 0 0
          0 0 0 0 0 0
          0 0 0 0 0 0
          0 0 0 0 0 0
          0 0 0 0 0 0
          0 0 0 0 0 0
          0 0 0 0 0 0
          0 0 0 0 0 0
          0 0 0 0 0 0
          0 0 0 0 0 0
          0 0 0 0 0 0
          0 0 0 0 0 0
          0 0 0 0 0 0
          0 0 0 0 0 0
          0 0 0 0 0 0
          0 0 0 0 0 0
          0 0 0 0 0 0
          0 0 0 0 0 0
          0 0 0 0 0 0
          0 0 0 0 0 0
          0 0 0 0 0 0
          0 0 0 0 0 0
          0 0 0 0 0 0
          0 0 0 0 0 0
          0 0 0 0 0 0
          0 0 0 0 0 0
          0 0 0 0 0 0
          0 0 0 0 0 0
          0 0 0 0 0 0
          0 0 0 0 0 0
          0 0 0 0 0 0
          0 0 0 0 0 0
          0 0 0 0 0 0
          0 0 0 0 0 0
          0 0 0 0 0 0
          0 0 0 0 0 0
          0 0 0 0 0 0
          0 0 0 0 0 0
          0 0 0 0 0 0
          0 0 0 0 0 0
          0 0 0 0 0 0
          0 0 0 0 0 0
          0 0 0 0 0 0
          0 0 0 0 0 0
          0 0 0 0 0 0
          0 0 0 0 0 0
          0 0 0 0 0 0
          0 0 0 0 0 0
          0 0 0 0 0 0
          0 0 0 0 0
        </DataArray>
        <DataArray type="Float64" Name="markers_mustrefine" format="ascii" RangeMin="0" RangeMax="2">
          0 0 0 0 0 0
          0 0 0 0 0 0
          0 0 0 0 2 2
          0 2 2 0 1.5 2
          2 0 0 2 2 0
          0 1 0 0 0 0
          0 0 0 0 0 0
          0 0 0 0 0 0
          0 0 0 0 0 0
          0 0 0 0 0 0
          0 0 0 0 0 0
          0 1 1 1 0 1
          1 0 0 1 1 0
          1 1 0 1 1 2
          2 2 2 0 0 1
          1 0 1 1 0 1
          1 2 2 2 2 0
          1 0 1 0 0.75 0.6666666666666666
          2 2 0 1 0 1
          0 1 1 2 2 2
          2 2 2 2 2 2
          2 2 2 2 2 2
          2 2 2 2 2 2
          2 2 2 2 2 2
          2 2 2 0 0.5 0
          0 0.25 0 0 0 0
          0 2 2 2 2 2
          2 2 2 2 2 2
          2 2 2 0 0 1
          1 0 1 1 0 1
          1 2 2 2 2 0
          0 1 1 0 1 1
          0 0.75 0.5 0 0.75 0
          0.5 0 0.5 0 1.75 1.5
          1.6666666666666667 0 0.25 0 0 0
          0 0 2 2 2 2
          2 2 2 2 2 2
          2 2 1.5 1.75 0 0
          0 0 0 0 0 0
          0 0 0 0 0 0
          0 0 0 0 0 1.5
          0.5 0.5 0 0 1.5 1
          1 1.25 0 0.25 0.75 0
          0.25 0 0 0 0 0
          1.75 2 2 2 2 2
          2 2 1.25 1.5 1.3333333333333333 0.6666666666666666
          0.5 2 2 2 1 1.5
          1.5 2 2 2 2 2
          2 1.75 1.25 1.3333333333333333 1.3333333333333333 2
          2 2 2 2 1 1.5
          1.25 1 1.5 0 0.75
        </DataArray>
        <DataArray type="Float64" Name="gradient_marker" format="ascii" RangeMin="0.5" RangeMax="1">
          1 0.75 0.75 1 1 0.5
          0.5 0.5 0.5 1 1 1
          0.5 0.75 1 1 1 1
          1 1 1 1 1 1
          1 1 1 1 1 1
          1 1 0.5 0.5 0.5 0.5
          1 1 1 1 1 1
          1 1 1 1 0.5 0.5
          0.5 1 1 1 1 1
          1 1 1 1 1 1
          1 1 1 1 1 1
          1 1 1 1 1 1
          1 1 1 1 1 1
          1 1 1 1 1 1
          1 1 1 1 1 1
          1 1 1 1 1 1
          1 1 1 1 1 1
          1 1 1 1 1 1
          1 1 1 1 1 1
          1 1 1 1 1 1
          1 1 1 1 1 1
          1 1 1 1 1 1
          1 1 1 1 1 1
          1 1 1 1 1 1
          1 1 1 1 1 1
          1 1 1 1 1 1
          1 1 1 1 1 1
          1 1 1 1 1 1
          1 1 1 1 1 1
          1 1 1 1 1 1
          1 1 1 1 1 1
          1 1 1 1 1 1
          1 1 1 1 1 1
          1 1 1 1 1 1
          1 1 1 1 1 1
          1 1 1 1 1 1
          1 1 1 1 1 1
          1 1 1 1 1 1
          1 0.5 1 1 1 1
          1 1 1 1 1 1
          1 1 1 1 1 1
          1 1 1 1 1 1
          1 1 1 1 1 1
          1 1 1 0.625 1 0.5
          1 1 1 1 1 1
          1 1 1 1 1 1
          0.875 1 1 1 1 1
          1 1 1 1 1 1
          1 1 1 1 1 1
          1 1 1 1 1 1
          1 1 1 1 1
        </DataArray>
        <DataArray type="Float64" Name="gradient_matprop_marker" format="ascii" RangeMin="0" RangeMax="0">
          0 0 0 0 0 0
          0 0 0 0 0 0
          0 0 0 0 0 0
          0 0 0 0 0 0
          0 0 0 0 0 0
          0 0 0 0 0 0
          0 0 0 0 0 0
          0 0 0 0 0 0
          0 0 0 0 0 0
          0 0 0 0 0 0
          0 0 0 0 0 0
          0 0 0 0 0 0
          0 0 0 0 0 0
          0 0 0 0 0 0
          0 0 0 0 0 0
          0 0 0 0 0 0
          0 0 0 0 0 0
          0 0 0 0 0 0
          0 0 0 0 0 0
          0 0 0 0 0 0
          0 0 0 0 0 0
          0 0 0 0 0 0
          0 0 0 0 0 0
          0 0 0 0 0 0
          0 0 0 0 0 0
          0 0 0 0 0 0
          0 0 0 0 0 0
          0 0 0 0 0 0
          0 0 0 0 0 0
          0 0 0 0 0 0
          0 0 0 0 0 0
          0 0 0 0 0 0
          0 0 0 0 0 0
          0 0 0 0 0 0
          0 0 0 0 0 0
          0 0 0 0 0 0
          0 0 0 0 0 0
          0 0 0 0 0 0
          0 0 0 0 0 0
          0 0 0 0 0 0
          0 0 0 0 0 0
          0 0 0 0 0 0
          0 0 0 0 0 0
          0 0 0 0 0 0
          0 0 0 0 0 0
          0 0 0 0 0 0
          0 0 0 0 0 0
          0 0 0 0 0 0
          0 0 0 0 0 0
          0 0 0 0 0 0
          0 0 0 0 0
        </DataArray>
        <DataArray type="Float64" Name="combo" format="ascii" RangeMin="0.5" RangeMax="1">
          1 0.75 0.75 1 1 0.5
          0.5 0.5 0.5 1 1 1
          0.5 0.75 1 1 1 1
          1 1 1 1 1 1
          1 1 1 1 1 1
          1 1 0.5 0.5 0.5 0.5
          1 1 1 1 1 1
          1 1 1 1 0.5 0.5
          0.5 1 1 1 1 1
          1 1 1 1 1 1
          1 1 1 1 1 1
          1 1 1 1 1 1
          1 1 1 1 1 1
          1 1 1 1 1 1
          1 1 1 1 1 1
          1 1 1 1 1 1
          1 1 1 1 1 1
          1 1 1 1 1 1
          1 1 1 1 1 1
          1 1 1 1 1 1
          1 1 1 1 1 1
          1 1 1 1 1 1
          1 1 1 1 1 1
          1 1 1 1 1 1
          1 1 1 1 1 1
          1 1 1 1 1 1
          1 1 1 1 1 1
          1 1 1 1 1 1
          1 1 1 1 1 1
          1 1 1 1 1 1
          1 1 1 1 1 1
          1 1 1 1 1 1
          1 1 1 1 1 1
          1 1 1 1 1 1
          1 1 1 1 1 1
          1 1 1 1 1 1
          1 1 1 1 1 1
          1 1 1 1 1 1
          1 0.5 1 1 1 1
          1 1 1 1 1 1
          1 1 1 1 1 1
          1 1 1 1 1 1
          1 1 1 1 1 1
          1 1 1 0.625 1 0.5
          1 1 1 1 1 1
          1 1 1 1 1 1
          0.875 1 1 1 1 1
          1 1 1 1 1 1
          1 1 1 1 1 1
          1 1 1 1 1 1
          1 1 1 1 1
        </DataArray>
        <DataArray type="Float64" Name="dHdT" format="ascii" RangeMin="25.828903099164688" RangeMax="38.5085836557527">
          26.194219664113405 27.0306582040878 26.75757442401291 26.124065882863345 25.89323545080922 25.954307861079634
          25.942756403607127 26.06359839070202 26.033093793288813 25.87117397170525 25.907315211832234 25.89906130618492
          25.916123783221582 26.95300771999012 26.52672018301112 26.478060733042977 27.921840595829813 27.706199512254454
          26.17005098792158 26.93172798477546 26.820096415669124 26.362180667596903 26.542644093399804 33.04528220273258
          31.897818484297325 25.995824043551085 25.987783970911664 26.33201267075257 26.28246228546997 25.906840317721787
          25.99712290062504 26.161118312639836 26.15932220174734 26.41984142253341 26.39034934677938 26.3130662581202
          26.031772233759202 26.0237863202738 26.174711824331894 26.155919653765153 25.935238515758464 26.01293607360734
          26.00408715127999 26.00309854743765 26.10877859359938 25.999259856191014 26.080614809880903 26.22064158351422
          26.176007921813387 25.978519164793507 26.056411154370714 25.93843437078964 25.991372660372356 25.966641641500125
          26.032392604741084 25.975442210076956 25.882157400825825 25.882065428515652 25.916092177899397 25.914310951236644
          25.862814715052693 25.881384617415957 25.881751599262042 25.88197345620548 25.91252972457389 25.88211858110813
          27.365760396059034 27.916931799689177 27.872600532084157 27.748528285492693 27.16151334204623 27.56484179946342
          27.34763492469694 27.03597729489648 27.01314569832335 27.439529445439895 27.404845345113987 26.71862007157413
          27.04449542972428 27.01821216180337 26.94773698186915 27.306836182006002 26.943292919345154 28.596049130233425
          28.52008054546031 27.864759187329803 28.309436854093452 26.492563500604952 26.480269613590565 26.722053974072196
          26.702862632913657 26.29262630813202 26.46524473012314 26.451924716599688 26.443284978386146 26.64795509701444
          26.41355979491633 27.372460057490144 27.33027355917695 26.90204905940742 27.214316407568774 26.84890065753749
          27.161261730889315 26.59324668502684 26.832914684656764 26.73187966901702 26.99039970101508 26.76494575496177
          28.008222875363124 27.47734598545562 26.389176950367716 26.56864066392713 26.22918111645927 26.35856935051389
          26.359759670539333 26.5250424255805 26.328623814271342 27.047806018354816 26.703325165406547 26.957229205826522
          31.00240186988755 30.79374777436733 29.651116497795293 29.50540249304059 30.24094372115632 29.11836597932638
          34.62978004939673 34.37603840026121 32.751027588754965 33.59128592135174 28.607321414787712 28.506114407880524
          27.798287801178788 27.729350951960093 28.235944527495242 27.54331141290766 31.19513254385231 30.925719838636162
          30.21240494840174 29.51965503460331 28.601613573724237 32.270209466793375 30.674902791302504 27.868454425774807
          27.287260292053716 27.012385608639327 29.31276356678786 26.860286311812494 27.12764174391946 27.020909930865628
          26.613242332608408 26.818614415466794 26.50264989519892 26.6798728414189 26.555366780269686 26.73544177145813
          26.607253266963877 26.56208160523871 26.75720617403502 38.5085836557527 37.88026998730248 36.2486299065547
          36.01065599393649 36.669887974703485 35.19741013217734 34.75496804945324 34.410105448437776 33.35506872787009
          35.318053115390185 33.65814530750042 31.713951696315128 26.15280953133362 26.14736511926168 26.266258928062562
          26.25735934467444 26.038135091277557 26.117118494803158 26.111414241040663 26.13120490769511 26.232129630242472
          26.095875879075592 26.589177331398346 26.569008454435313 26.31882523849186 26.513212421223365 25.962707303098647
          25.960616987326784 26.010281288121902 26.006777059101083 25.92932074996252 25.966539018574142 25.96389214684694
          25.955567203062948 25.99748822695863 25.95700636040643 26.108574586885346 26.197128111527913 26.018665542125248
          26.075665155004213 26.096660065570212 26.17845672385721 26.065288539135413 26.434076061163235 26.230901372199234
          26.392075052971176 25.950718579515534 25.98608848980255 25.9218634582065 25.948875550958018 25.948829424460087
          25.980473355768098 25.944983656222917 27.182089782064455 27.135855776298847 26.72448458089658 26.694350614475468
          27.01020480349196 26.61210813732893 26.83623246259066 26.497605114771186 26.64805594174308 26.37325896318115
          26.33776599161271 26.47203313852083 26.16731294374273 26.25677677034077 25.855968637068873 25.847610386815738
          25.889573228932655 25.993859825355635 25.8386584953617 25.83751161129966 25.84559289720056 25.84918304214515
          25.835310540878762 25.848227575574807 25.829285262643204 25.828903099164688 25.837501242577844 25.8354562888814
          25.890607249669678 25.87181462593434 26.00623929184009 26.13641622398733 26.26288822599566 27.18105582467458
          26.29529303368046 26.69177714975222 25.875382864966866 25.87246108641523 26.012158297447957 25.892463201516392
          25.886899180850936 25.99484647751533 25.86529813831534 25.87416060583812 25.95768884761658 26.003237988413648
          26.050252557485237 25.9049820205566 25.92000785515009 26.566096330955727 26.218329414020804 26.392794131230193
          27.66842599880372 28.063611433671415 28.79064972373658 29.45687314908102 30.703183691881463 27.478476526509834
          28.471967678151632 28.224902589426044 27.33708709484626 27.798970105696377 27.086615349726415 27.151983050282855
          27.357612165593448 26.84549055453645 27.120815058492465 27.575813899905242 26.631443995261428 26.54048833702968
          26.819356436300705 31.60721079004798 33.36410987825619 29.995324336281488 26.14635711489772 26.138172898732847
          26.044223730807754 26.115565946798622 26.08386999574853 26.006412284125332 26.067494015879788 26.39561213667119
          26.37684023878908 26.325411439039396 26.253686718090904 26.17569017155007 26.231732657735122 26.32248097883118
          26.157763600033626 26.045469287365776 26.10207657179823 26.0015363213072 26.03916564937562
        </DataArray>
        <DataArray type="Float64" Name="dk/dtemperature" format="ascii" RangeMin="0.007562691859391734" RangeMax="0.015804580349343195">
          0.01542868817152356 0.014277604242275912 0.014635828224596957 0.015576063568550234 0.015804580349343192 0.015804580349343192
          0.015804580349343192 0.015637517159201135 0.015710607304888283 0.015804580349343192 0.01580458034934319 0.015804580349343192
          0.015804580349343192 0.014384600193848305 0.014926743797527467 0.015030655088986308 0.013294093493647255 0.01348392574296975
          0.015470453969059075 0.014410706362844375 0.014562232330993479 0.015212122447254317 0.014944041379338108 0.009509391700993988
          0.0103474741901639 0.015804580349343192 0.015804580349343192 0.01522942002906496 0.015318612650910382 0.015804580349343192
          0.015776736484319515 0.015522661215978468 0.01551221976659459 0.01512123151737658 0.015161802209259723 0.01529823295452257
          0.01572104875427216 0.015741931653039918 0.015475234391668561 0.015526246532935583 0.01580458034934319 0.015721048754272163
          0.01574193165303992 0.015783697450575434 0.015617829366085748 0.01576281455180768 0.015700165855504405 0.015443910043516924
          0.015493727079131573 0.015804580349343192 0.015689724406120528 0.015804580349343192 0.015783697450575434 0.015804580349343192
          0.015721048754272163 0.015804580349343192 0.015804580349343192 0.015804580349343192 0.015804580349343192 0.015804580349343192
          0.015804580349343192 0.015804580349343192 0.015804580349343192 0.015804580349343192 0.015804580349343192 0.015804580349343192
          0.01382999893721697 0.01323018509436986 0.013282076991289664 0.013440145438890199 0.014123121111632508 0.013661742338446784
          0.013896487097203706 0.014207409207297706 0.014223261779290257 0.013762826510566931 0.013793394358124399 0.014642560253452983
          0.01425244751732712 0.014285721774701048 0.014360387821874036 0.013939134347416253 0.01439642629828916 0.012610748055729117
          0.0126567256276603 0.013333594880473013 0.012851336602568032 0.014988386089070844 0.01500687877653386 0.014702062237857342
          0.014727789308044205 0.015219859183845986 0.015030151886606358 0.01503015188660636 0.015043864151459889 0.014780563506153165
          0.01507877381656864 0.013882085474614125 0.013945614775082306 0.01445083590413294 0.014073114526613244 0.014534371741764602
          0.014143751560698161 0.014877429964292761 0.014542419585795234 0.014659669134371145 0.014342960196907777 0.014627672718363413
          0.01317508443376578 0.01374332741834403 0.015101732425153669 0.014872146339303326 0.015366039475220288 0.015186459125877072
          0.01514110801138444 0.0149366820445314 0.015245522505223229 0.014270876455980514 0.014720554925320355 0.014384623706150514
          0.010922007656727413 0.011025289407896276 0.011818206004338453 0.011893812161925331 0.011364258262575264 0.01217510144380301
          0.008382188727154453 0.008584754076289895 0.009737782143876918 0.00920817267149563 0.012606469138475325 0.012711070636182344
          0.013390963345835356 0.01348134767928465 0.012966507047278168 0.013696401250877684 0.01082954314478227 0.01098251581977371
          0.011420552331807467 0.011834688427818055 0.012592820622431418 0.010088638928664132 0.011095358953476577 0.013320888171867253
          0.013979896285728252 0.014306289323469211 0.012029551003915753 0.014481661292465264 0.014164384555300199 0.014312957603515624
          0.014823335708448567 0.014566134694974439 0.014988386089070842 0.014750748765141364 0.014914415339218785 0.01467954562837901