<?xml version="1.0"?>
<VTKFile type="UnstructuredGrid" version="0.1" byte_order="LittleEndian" header_type="UInt32" compressor="vtkZLibDataCompressor">
  <UnstructuredGrid>
    <Piece NumberOfPoints="529" NumberOfCells="287">
      <PointData>
        <DataArray type="Int32" Name="libmesh_node_id" format="ascii" RangeMin="232" RangeMax="2354">
          232 233 234 235 236 237
          260 261 262 286 287 288
          289 290 291 314 315 316
          340 341 342 343 344 345
          368 369 370 394 396 397
          398 399 423 424 432 433
          434 435 436 437 438 439
          440 441 442 443 445 446
          447 448 449 450 451 452
          453 454 455 456 457 458
          459 460 461 462 463 464
          521 522 523 524 525 526
          527 528 529 530 531 532
          533 534 535 536 537 538
          539 540 541 542 543 544
          545 546 547 548 549 550
          551 552 553 554 555 556
          557 558 559 560 561 562
          563 564 565 566 567 568
          569 570 571 575 576 578
          579 581 666 667 668 669
          670 671 672 673 674 675
          676 677 678 679 710 711
          712 713 714 715 716 717
          718 719 720 721 722 723
          724 725 726 727 728 729
          730 731 732 733 734 735
          736 737 738 739 745 788
          789 790 791 792 793 794
          795 796 797 798 799 800
          801 802 803 804 805 806
          807 808 809 810 811 812
          813 814 815 816 817 818
          819 820 821 822 823 824
          825 826 827 828 829 830
          831 832 833 834 835 836
          837 838 839 840 841 842
          843 844 845 846 847 848
          849 850 851 852 853 854
          855 856 857 858 859 860
          861 862 863 864 865 866
          867 868 869 870 871 872
          873 874 875 876 877 878
          879 880 881 882 883 884
          885 886 887 888 889 890
          891 892 893 894 895 896
          897 898 899 900 901 902
          903 904 919 920 921 922
          923 924 925 926 927 928
          1145 1146 1147 1148 1149 1150
          1151 1152 1153 1154 1155 1156
          1157 1158 1189 1191 1193 1194
          1196 1198 1199 1200 1201 1202
          1203 1204 1205 1206 1207 1208
          1209 1210 1211 1212 1213 1214
          1215 1216 1217 1218 1219 1220
          1221 1222 1223 1224 1225 1226
          1227 1228 1229 1230 1231 1232
          1233 1234 1235 1236 1237 1238
          1239 1240 1241 1242 1245 1246
          1251 1293 1294 1295 1296 1297
          1298 1299 1300 1301 1302 1303
          1304 1305 1306 1307 1308 1309
          1310 1311 1312 1313 1314 1315
          1316 1317 1318 1319 1320 1321
          1322 1323 1324 1325 1326 1327
          1328 1329 1330 1331 1332 1333
          1334 1335 1336 1337 1338 1339
          1340 1341 1342 1343 1344 1345
          1346 1347 1348 1349 1350 1351
          1352 1353 1354 1355 1356 1357
          1358 1359 1360 1361 1362 1363
          1364 1365 1366 1367 1368 1369
          1370 1371 1372 1373 1374 1375
          1376 1467 1468 1469 1470 1471
          1472 1473 1474 1475 1476 1477
          1478 1479 1480 2275 2276 2277
          2278 2279 2280 2281 2282 2283
          2284 2285 2286 2287 2288 2289
          2290 2291 2292 2293 2294 2305
          2306 2307 2308 2309 2310 2311
          2312 2313 2314 2315 2316 2317
          2318 2319 2320 2321 2322 2323
          2324 2325 2326 2327 2328 2329
          2330 2331 2332 2333 2334 2335
          2336 2337 2338 2339 2340 2341
          2342 2343 2344 2345 2346 2347
          2348 2349 2350 2351 2352 2353
          2354
        </DataArray>
        <DataArray type="Float64" Name="bounds" format="ascii" RangeMin="0" RangeMax="0">
          0 0 0 0 0 0
          0 0 0 0 0 0
          0 0 0 0 0 0
          0 0 0 0 0 0
          0 0 0 0 0 0
          0 0 0 0 0 0
          0 0 0 0 0 0
          0 0 0 0 0 0
          0 0 0 0 0 0
          0 0 0 0 0 0
          0 0 0 0 0 0
          0 0 0 0 0 0
          0 0 0 0 0 0
          0 0 0 0 0 0
          0 0 0 0 0 0
          0 0 0 0 0 0
          0 0 0 0 0 0
          0 0 0 0 0 0
          0 0 0 0 0 0
          0 0 0 0 0 0
          0 0 0 0 0 0
          0 0 0 0 0 0
          0 0 0 0 0 0
          0 0 0 0 0 0
          0 0 0 0 0 0
          0 0 0 0 0 0
          0 0 0 0 0 0
          0 0 0 0 0 0
          0 0 0 0 0 0
          0 0 0 0 0 0
          0 0 0 0 0 0
          0 0 0 0 0 0
          0 0 0 0 0 0
          0 0 0 0 0 0
          0 0 0 0 0 0
          0 0 0 0 0 0
          0 0 0 0 0 0
          0 0 0 0 0 0
          0 0 0 0 0 0
          0 0 0 0 0 0
          0 0 0 0 0 0
          0 0 0 0 0 0
          0 0 0 0 0 0
          0 0 0 0 0 0
          0 0 0 0 0 0
          0 0 0 0 0 0
          0 0 0 0 0 0
          0 0 0 0 0 0
          0 0 0 0 0 0
          0 0 0 0 0 0
          0 0 0 0 0 0
          0 0 0 0 0 0
          0 0 0 0 0 0
          0 0 0 0 0 0
          0 0 0 0 0 0
          0 0 0 0 0 0
          0 0 0 0 0 0
          0 0 0 0 0 0
          0 0 0 0 0 0
          0 0 0 0 0 0
          0 0 0 0 0 0
          0 0 0 0 0 0
          0 0 0 0 0 0
          0 0 0 0 0 0
          0 0 0 0 0 0
          0 0 0 0 0 0
          0 0 0 0 0 0
          0 0 0 0 0 0
          0 0 0 0 0 0
          0 0 0 0 0 0
          0 0 0 0 0 0
          0 0 0 0 0 0
          0 0 0 0 0 0
          0 0 0 0 0 0
          0 0 0 0 0 0
          0 0 0 0 0 0
          0 0 0 0 0 0
          0 0 0 0 0 0
          0 0 0 0 0 0
          0 0 0 0 0 0
          0 0 0 0 0 0
          0 0 0 0 0 0
          0 0 0 0 0 0
          0 0 0 0 0 0
          0 0 0 0 0 0
          0 0 0 0 0 0
          0 0 0 0 0 0
          0 0 0 0 0 0
          0
        </DataArray>
        <DataArray type="Float64" Name="gradient_error" format="ascii" RangeMin="4.618120457532992e-11" RangeMax="0.0000012573013564938927">
          3.022288469680995e-8 1.6098816927610197e-8 1.0969052086255485e-8 5.837950455448715e-9 1.1411567167275776e-9 5.936689606514538e-10
          1.974749158410443e-9 7.068488246419457e-10 4.618120457532992e-11 9.548160573224995e-8 5.019552276939942e-8 1.103656727243196e-8
          6.150123501664087e-9 1.3447397017917193e-9 6.322539749158054e-10 7.70942067416356e-9 2.772619927265716e-9 1.925027406488847e-10
          2.4201736189861154e-7 6.625608144016015e-8 1.2029079208666017e-8 8.077602558993562e-9 4.874039925905251e-9 2.5827203182893447e-9
          7.404580099239282e-9 2.4666089521607443e-9 3.570925177873592e-10 0.0000011984937090636084 1.439522696426784e-7 2.229850866498311e-8
          2.960219590821728e-7 9.820403611517485e-9 3.008544619182803e-9 9.974759836350463e-10 8.329297059736813e-8 5.828000272153808e-8
          1.5476786745488424e-7 7.007724387786493e-7 3.807331054969491e-7 2.959338235120874e-7 3.695543750734347e-7 1.0811840926956858e-8
          7.969469735566229e-8 2.274735031791294e-7 2.4353511754771734e-8 2.509278032244966e-8 1.2311283680225547e-8 1.1441399242590154e-7
          6.930969700754598e-7 9.575209679867757e-7 3.688625483561513e-7 4.014711215012385e-8 7.300024898929729e-9 4.286122392739582e-9
          6.408529130961829e-8 1.997691492963231e-7 3.934698357916839e-9 4.76854829851725e-8 1.0455132242368019e-7 3.879513946225508e-9
          5.692160642916652e-9 3.849902006555894e-9 1.942657199382551e-7 3.3559513049697184e-7 2.7924508541591274e-7 9.062699715693544e-9
          8.22541270896038e-8 2.2228481118086486e-7 4.6036952908814735e-7 4.2125505516893173e-7 2.108927831084232e-7 3.269626936169921e-7
          5.932271452762523e-7 2.1365526170757557e-7 2.3003192249107051e-7 3.3177845006167905e-7 3.163416582078617e-7 4.1273214034495655e-7
          5.890127711951025e-7 3.939414367214014e-7 1.2739378563645976e-7 2.215904894292743e-7 5.103661371317696e-7 2.446897732513262e-7
          3.773068982173205e-7 7.12341178179297e-8 2.0538877406296625e-7 2.508727618556373e-7 3.379800196335124e-7 1.9690509284545947e-7
          2.745206566255059e-7 3.4257755924583143e-7 2.8105141219095413e-7 3.726268799899327e-7 3.4554714299105076e-7 1.6548208394612612e-7
          2.7261590487569467e-7 3.063295721040137e-7 3.548105999938568e-7 5.77308179338853e-8 1.854769252752831e-7 3.0103534500370286e-7
          3.4498306786226865e-7 1.1201486775045209e-7 3.297110985457539e-7 2.961977568653882e-7 2.41609126874284e-7 3.121777567563717e-7
          2.2008235145125392e-7 2.3475211058066108e-7 3.4726261116915496e-7 3.969563765772857e-7 3.105322040062537e-7 3.68012823175518e-8
          3.7248462912146605e-8 3.598381089937955e-7 2.5251856872964623e-7 3.6875431838373285e-8 1.2877063064801627e-7 3.7108574511183894e-7
          4.57060599254098e-7 2.417979082298805e-7 1.1115072571846528e-9 1.0464267724731757e-9 3.34888831163593e-9 4.747808264745411e-9
          1.0652881333378852e-9 1.8291986118594318e-9 3.9105875137562546e-10 1.242869262115602e-9 1.7542921260838543e-9 6.996698630558998e-10
          5.586269366087207e-9 8.449189757017645e-9 2.5931090903809785e-9 2.094679772855579e-9 0.000001084403463344195 9.236816828678429e-7
          9.153094888867358e-7 0.0000011341754905880333 9.030289010277309e-7 9.886137368848991e-7 0.0000010863054226903141 5.147317886001439e-7
          7.519999704561939e-7 7.400074830974691e-7 7.055615347696265e-7 0.0000010548041949095186 0.0000012573013564938927 9.89268152312244e-7
          5.6200941809583734e-8 7.249236099628136e-8 1.3011271290565282e-7 1.5185412897831018e-7 4.2008265038812634e-8 1.0798809017550925e-7
          1.7119645602879591e-9 6.216632141028067e-9 6.466694698578374e-9 8.548402302249222e-9 2.0402448400172192e-7 2.31215896960339e-7
          1.7396791531220586e-7 1.0721299721768173e-8 2.906028911107556e-8 8.412380238616718e-8 1.391873156612588e-7 1.997647275038946e-7
          1.9306531812899748e-7 1.9452242974216902e-7 1.6659677363793788e-7 1.7225814583992306e-7 1.937707055672173e-7 1.865482385116639e-7
          2.043556666579748e-7 1.7961937794167414e-7 2.0225817044561365e-7 1.8770256809740396e-7 2.1111617929088502e-7 2.0408916572927997e-7
          2.2228572996127512e-7 1.1932341791101617e-7 1.61129722921675e-7 1.5662063747981684e-7 1.6811577082919126e-7 2.132291638614199e-7
          2.204455910324836e-7 2.133844756714389e-7 1.8938120014364623e-7 2.1319056828801705e-7 2.2196191955741392e-7 2.005440288559393e-7
          2.2517079357968054e-7 2.0867012289788777e-7 2.3311751809325688e-7 2.441425350584725e-7 1.3517188045650756e-7 1.7754367660908332e-7
          1.8847239323998542e-7 2.3251101209851795e-7 2.401267114416697e-7 2.3099157173042916e-7 2.129861873143977e-7 2.3841331402836788e-7
          2.405620594540949e-7 2.2689238968385912e-7 2.53087735500899e-7 2.2390226359389907e-7 2.5602643367716507e-7 2.6887079900863395e-7
          1.539838708970051e-7 2.0078769056872802e-7 2.146991531454561e-7 2.5801121836055756e-7 2.623306349600108e-7 2.507017204428171e-7
          2.425042624460903e-7 2.6939429332764655e-7 2.614209973097267e-7 2.601265752070514e-7 2.8757626618039276e-7 2.4050666378552284e-7
          2.827616595468722e-7 2.977907641858694e-7 1.787621317943217e-7 2.3049352018068238e-7 2.485415524138551e-7 2.8866425941540236e-7
          2.8743691256734876e-7 2.7270730488156635e-7 2.8015012459325135e-7 3.0792977046918853e-7 2.8452275497351333e-7 3.0308793007897053e-7
          3.308103585962252e-7 2.5839312759839356e-7 3.140442623642123e-7 3.3159705454174304e-7 2.1262366030014665e-7 2.693434350033627e-7
          2.935580527432214e-7 3.257987190347818e-7 3.1521010518622484e-7 2.967896564239678e-7 3.296254382543568e-7 3.566331214753725e-7
          3.0917895294505496e-7 3.607753751174443e-7 3.854253053351208e-7 2.7724579719481686e-7 3.5049423357874507e-7 3.7024417337163466e-7
          2.6200224788812716e-7 3.220404301755904e-7 3.560469507769822e-7 3.708874805621144e-7 2.1839936297065144e-7 2.1555216556873674e-7
          2.5548012175975057e-7 2.492505745752084e-7 1.7412681997385216e-7 2.612487641493577e-7 1.617997496802741e-7 1.9361258105839929e-7
          1.9383982718041045e-7 1.9208441710824342e-7 2.9256088054884975e-7 2.8294898358168e-7 3.019236079580508e-7 2.2542541243652447e-7
          3.444980981969445e-7 3.215738562396491e-7 3.9519539703881695e-7 4.1684081909604207e-7 3.3418654359284695e-7 4.308073021407593e-7
          4.5110390182165253e-7 2.470567137088032e-7 3.910831722305723e-7 4.140068894667711e-7 3.33723657631165e-7 3.9448400019742424e-7
          4.346446354709217e-7 4.2583735405700684e-7 1.5066145337989333e-7 2.663298479830149e-7 1.477403322618037e-7 2.7050948760803074e-7
          1.0585909362453403e-7 1.8897959265815243e-7 1.844056977850651e-7 3.1084262282672e-7 3.1925850769829666e-7 2.252548803031098e-7
          1.9820828188965336e-9 1.197345101919978e-9 2.8821396018012346e-9 8.929815503572918e-9 3.295796125454377e-9 2.2094516968173566e-9
          6.417621519277676e-9 4.98168203926633e-10 1.316348674055065e-9 8.27641197245226e-10 4.126073849434221e-10 1.1231072681803355e-9
          3.905427534982435e-9 3.3893372043538705e-10 2.3597487389172462e-9 5.371323030737637e-9 1.3630615606401627e-9 2.0077818285502385e-9
          8.382897322558028e-9 2.6525020964603146e-9 1.2310745867379138e-7 1.3842766175322134e-7 2.1417886600584494e-7 2.2983535242223184e-7
          1.0657178168930825e-7 1.9528786683287054e-7 2.1142255293724576e-8 3.438767866854474e-8 4.7931076453949804e-8 2.2311452980529448e-8
          3.052502733378985e-7 3.2124304309124235e-7 2.840039519764328e-7 4.763310204336491e-8 1.0932155791154119e-8 6.4743460084675295e-9
          7.04200082726653e-9 3.905595558620278e-8 3.4141438859334514e-8 2.1695432279351415e-8 2.3420935764192504e-8 6.3594672145552505e-9
          3.0960205622754256e-8 2.3063843156082606e-8 2.016536225780941e-9 9.249425699368313e-9 7.785915942182218e-9 1.5167480689410955e-8
          9.562607948856167e-9 7.264582612759891e-9 2.99886714038609e-8 2.558270914835386e-8 6.736718262234228e-9 2.555249686344445e-8
          2.3682252004204265e-8 4.966557276663613e-9 2.1176746892846835e-8 2.1812007144964083e-8 8.948022439489985e-8 1.7387956216198083e-7
          8.104445826782714e-9 1.2354946902966817e-8 2.5827889992906177e-7 1.660544797915092e-8 2.0441915256452924e-8 1.9972451498248592e-8
          1.950298774004426e-8 1.8578865871936594e-7 1.8039316142967845e-7 2.0309059157035297e-7 1.9671897437454793e-7 1.90541603219677e-7
          2.0947365282481617e-7 1.58213669365857e-7 1.769460833865801e-7 1.7376345177609877e-7 1.8045979383610917e-7 2.2039252442134e-7
          2.130447873194174e-7 2.2840570242995535e-7 1.9567849740730322e-7 8.097387509091255e-8 8.501053477530834e-8 8.851182721142461e-8
          1.4928017099901348e-7 1.4969437595653769e-7 1.3905945459316593e-7 1.3907981413163626e-7 8.096323352409962e-8 1.496472972573697e-7
          1.3859712409831126e-7 8.904719445970414e-8 1.2842453322979418e-7 1.2887945726425902e-7 1.2754695093925287e-7 1.951955145100331e-7
          2.1598770018859785e-7 1.9974234633645292e-7 2.226172820470625e-7 1.623971022767462e-7 1.8376297376520357e-7 1.8677604739479606e-7
          2.3677988586716257e-7 2.454922177576721e-7 2.0512884525366093e-7 2.0412933316279156e-7 2.2932509997735512e-7 2.0828832534378098e-7
          2.3605610438786707e-7 1.6488428682026148e-7 1.894112050701686e-7 1.9155663755772956e-7 2.545208667919187e-7 2.6382388343195313e-7
          2.1393812332007574e-7 7.092006120606022e-8 7.636105528335872e-8 1.4905864872720087e-7 1.376297795557385e-7 7.120120284359957e-8
          1.478469207195153e-7 1.3609202417069867e-7 8.18020493606572e-8 1.262009103842761e-7 1.2433712762188195e-7 5.871108301746546e-8
          6.551380523983907e-8 1.4594133238466433e-7 1.3393365265631005e-7 5.805595118347242e-8 1.4302283169124206e-7 1.3080509859016144e-7
          7.231652746221269e-8 1.219259729279558e-7 1.0464672802676128e-7 2.121371103151676e-7 2.427350672745254e-7 1.650502322267223e-7
          1.9309102616575194e-7 2.733330242338832e-7 2.2113182010478163e-7 4.557030524844113e-8 4.860561309497568e-8 1.3894968259793064e-7
          1.2627784378980703e-7 4.059677744550708e-8 1.3389576729679248e-7 1.207033482294088e-7 4.930339971792844e-8 9.354391836569855e-8
          8.710208669270836e-8 1.9918019733327108e-7 1.9431581749890598e-7 1.7829116354122983e-7 1.685298648214728e-7 1.661729471919632e-7
          1.770386796396292e-7 1.715031655779726e-7 1.8945143766454085e-7 1.8790441208729521e-7 1.744764663344724e-7 1.331656970506553e-7
          1.5976154178035242e-7 1.6471516761471537e-7 1.8635738651004955e-7 1.2558029455782369e-8 8.803222035424093e-9 1.3484352193837241e-8
          2.9010272335883683e-8 2.118057346896285e-8 1.5973372308117866e-8 2.227922534053803e-8 5.048414615065819e-9 1.0766171147272884e-8
          1.554817834519237e-8 1.2861221414693943e-8 9.995270772546903e-9 1.284822648738594e-8 3.5497165770041987e-8 3.851006963505685e-8
          2.522346725667331e-8 2.525317583773671e-8 7.129320130399862e-9 1.1936864878289773e-8 1.5009185905431434e-8 1.1517588726364487e-7
          1.1183633922296171e-7 1.1997284200430782e-7 1.4465017231577749e-7 1.4475623425130208e-7 1.3577764363409851e-7 1.352942260718964e-7
          1.0068867531105035e-7 1.4514496614687284e-7 1.3649971928248197e-7 1.0849679118227856e-7 1.26799053016895e-7 1.259382798280153e-7
          1.278544724180911e-7 9.493242633983304e-8 9.648717227590505e-8 1.461165442870077e-7 1.3720933182591602e-7 9.407321156891314e-8
          1.4739757383010843e-7 1.3806392838218268e-7 9.804191821197707e-8 1.2830211936482438e-7 1.2873028293425694e-7 1.714688626895018e-7
          1.655376897867005e-7 1.896334710576245e-7 1.8576263071691138e-7 1.5256183859499243e-7 1.723178488279905e-7 1.7225717101676272e-7
          2.0779807942574728e-7 2.059875716471222e-7 1.9207385906098862e-7 8.869469428619424e-8 9.149137299332206e-8 1.4847980671887165e-7
          1.3871778948308633e-7 9.428805170044988e-8 1.2895577224730098e-7 3.6197553528568276e-8 4.2212674531128784e-8 5.785169357452255e-8
          6.172264688567803e-8 2.919663884730871e-8 5.1458417926575635e-8 2.542922856278989e-8 4.222155539933144e-8 4.66798406692339e-8
          3.622359162975963e-8
        </DataArray>
        <DataArray type="Float64" Name="gradient_matprop_error" format="ascii" RangeMin="0" RangeMax="0">
          0 0 0 0 0 0
          0 0 0 0 0 0
          0 0 0 0 0 0
          0 0 0 0 0 0
          0 0 0 0 0 0
          0 0 0 0 0 0
          0 0 0 0 0 0
          0 0 0 0 0 0
          0 0 0 0 0 0
          0 0 0 0 0 0
          0 0 0 0 0 0
          0 0 0 0 0 0
          0 0 0 0 0 0
          0 0 0 0 0 0
          0 0 0 0 0 0
          0 0 0 0 0 0
          0 0 0 0 0 0
          0 0 0 0 0 0
          0 0 0 0 0 0
          0 0 0 0 0 0
          0 0 0 0 0 0
          0 0 0 0 0 0
          0 0 0 0 0 0
          0 0 0 0 0 0
          0 0 0 0 0 0
          0 0 0 0 0 0
          0 0 0 0 0 0
          0 0 0 0 0 0
          0 0 0 0 0 0
          0 0 0 0 0 0
          0 0 0 0 0 0
          0 0 0 0 0 0
          0 0 0 0 0 0
          0 0 0 0 0 0
          0 0 0 0 0 0
          0 0 0 0 0 0
          0 0 0 0 0 0
          0 0 0 0 0 0
          0 0 0 0 0 0
          0 0 0 0 0 0
          0 0 0 0 0 0
          0 0 0 0 0 0
          0 0 0 0 0 0
          0 0 0 0 0 0
          0 0 0 0 0 0
          0 0 0 0 0 0
          0 0 0 0 0 0
          0 0 0 0 0 0
          0 0 0 0 0 0
          0 0 0 0 0 0
          0 0 0 0 0 0
          0 0 0 0 0 0
          0 0 0 0 0 0
          0 0 0 0 0 0
          0 0 0 0 0 0
          0 0 0 0 0 0
          0 0 0 0 0 0
          0 0 0 0 0 0
          0 0 0 0 0 0
          0 0 0 0 0 0
          0 0 0 0 0 0
          0 0 0 0 0 0
          0 0 0 0 0 0
          0 0 0 0 0 0
          0 0 0 0 0 0
          0 0 0 0 0 0
          0 0 0 0 0 0
          0 0 0 0 0 0
          0 0 0 0 0 0
          0 0 0 0 0 0
          0 0 0 0 0 0
          0 0 0 0 0 0
          0 0 0 0 0 0
          0 0 0 0 0 0
          0 0 0 0 0 0
          0 0 0 0 0 0
          0 0 0 0 0 0
          0 0 0 0 0 0
          0 0 0 0 0 0
          0 0 0 0 0 0
          0 0 0 0 0 0
          0 0 0 0 0 0
          0 0 0 0 0 0
          0 0 0 0 0 0
          0 0 0 0 0 0
          0 0 0 0 0 0
          0 0 0 0 0 0
          0 0 0 0 0 0
          0
        </DataArray>
        <DataArray type="Float64" Name="initial_marker" format="ascii" RangeMin="0" RangeMax="2">
          0 0 0 0 0 0
          0 0 0 0 0 0
          0 0 0 0 0 0
          0 0 0 0 0 0
          0 0 0 0 2 0
          2 0 0 0 0 0
          0 0 0 0 0 0
          0 0 0 0 0 1
          0 0 0 0 0 0
          0 0 0 0 0 0
          0 0 2 0 0 0
          0 0 0 0 0 0
          0 0 0 0 0 0
          0 0 2 0.5 0 1
          0 0 0 0.5 0 0
          1 0 0 0 0 2
          1 1 0 0 0 1
          0.5 0 1 0.5 0 0
          0 2 1 2 0 0
          0 1 0.5 0 0 2
          2 0 0 0 0 0
          0 0 0 0 0 0
          0 0 0 0 0 0
          0 0 0 0 0 0
          0 0 0 0 0 0
          0 0 0 0 0 0
          0 0 0 0 0 0
          0 0 0 0 0 0
          0 0 0.5 1 0.5 0.25
          0 1 0.75 0 0 0
          0.25 2 1 0.5 1.5 0
          0 0 1 1 0 1
          1 0 0.5 0.5 2 2
          2 1 0 0 1 1
          0.25 1.5 1.25 0 0.5 0.5
          2 2 2 1 1 0.5
          2 1.5 0.5 2 1.5 0
          0.5 0.5 2 2 2 1
          1 0.75 2 1.75 1 2
          2 0.3333333333333333 0.75 1 2 2
          2 1 1 1 2 2
          1 2 2 0.6666666666666666 1.25 1.5
          2 2 2 1.5 0 0
          0.25 0 0 0.5 0 0
          0 0 0.5 0 1 0
          1 1 2 2 1 2
          2 0.5 1.5 1.5 2 2
          2 2 0 0.5 0 0.5
          0 0 0 1 1 0
          0 0 0 0 0 0
          0 0 0 0 0 0
          0 0 0 0 0 0
          0 0 0 0 0 0
          0 0 0 0 0 0
          0 0 0 0 0 0
          0 0 0 0 0 0
          0 0 0 0 0 0
          0 0 0 0 0 0
          0 0 0 0 0 0
          0 0 0 0 0 0
          0 0 0 0 0 0
          0 0 0 0 0 0
          0 0 0 0 0 0
          0 0 0 0 0 0
          0 0 0 0 0 0
          0 0 0 0 0 0
          0 0 0 0 0 0
          0 0 0 0 0 0
          0 0 0 0 0 0
          0 0 0 0 0 0
          0 0 0 0 0 0
          0 0 0 0 0 0
          0 0 0 0 0 0
          0 0 0 0 0 0
          0 0 0 0 0 0
          0 0 0 0 0 0
          0 0 0 0 0 0
          0 0 0 0 0 0
          0 0 0 0 0 0
          0 0 0 0 0 0
          0 0 0 0 0 0
          0 0 0 0 0 0
          0 0 0 0 0 0
          0 0 0 0 0 0
          0 0 0 0 0 0
          0 0 0 0 0 0
          0 0 0 0 0 0
          0 0 0 0 0 0
          0
        </DataArray>
        <DataArray type="Float64" Name="markers_norefine" format="ascii" RangeMin="0" RangeMax="0">
          0 0 0 0 0 0
          0 0 0 0 0 0
          0 0 0 0 0 0
          0 0 0 0 0 0
          0 0 0 0 0 0
          0 0 0 0 0 0
          0 0 0 0 0 0
          0 0 0 0 0 0
          0 0 0 0 0 0
          0 0 0 0 0 0
          0 0 0 0 0 0
          0 0 0 0 0 0
          0 0 0 0 0 0
          0 0 0 0 0 0
          0 0 0 0 0 0
          0 0 0 0 0 0
          0 0 0 0 0 0
          0 0 0 0 0 0
          0 0 0 0 0 0
          0 0 0 0 0 0
          0 0 0 0 0 0
          0 0 0 0 0 0
          0 0 0 0 0 0
          0 0 0 0 0 0
          0 0 0 0 0 0
          0 0 0 0 0 0
          0 0 0 0 0 0
          0 0 0 0 0 0
          0 0 0 0 0 0
          0 0 0 0 0 0
          0 0 0 0 0 0
          0 0 0 0 0 0
          0 0 0 0 0 0
          0 0 0 0 0 0
          0 0 0 0 0 0
          0 0 0 0 0 0
          0 0 0 0 0 0
          0 0 0 0 0 0
          0 0 0 0 0 0
          0 0 0 0 0 0
          0 0 0 0 0 0
          0 0 0 0 0 0
          0 0 0 0 0 0
          0 0 0 0 0 0
          0 0 0 0 0 0
          0 0 0 0 0 0
          0 0 0 0 0 0
          0 0 0 0 0 0
          0 0 0 0 0 0
          0 0 0 0 0 0
          0 0 0 0 0 0
          0 0 0 0 0 0
          0 0 0 0 0 0
          0 0 0 0 0 0
          0 0 0 0 0 0
          0 0 0 0 0 0
          0 0 0 0 0 0
          0 0 0 0 0 0
          0 0 0 0 0 0
          0 0 0 0 0 0
          0 0 0 0 0 0
          0 0 0 0 0 0
          0 0 0 0 0 0
          0 0 0 0 0 0
          0 0 0 0 0 0
          0 0 0 0 0 0
          0 0 0 0 0 0
          0 0 0 0 0 0
          0 0 0 0 0 0
          0 0 0 0 0 0
          0 0 0 0 0 0
          0 0 0 0 0 0
          0 0 0 0 0 0
          0 0 0 0 0 0
          0 0 0 0 0 0
          0 0 0 0 0 0
          0 0 0 0 0 0
          0 0 0 0 0 0
          0 0 0 0 0 0
          0 0 0 0 0 0
          0 0 0 0 0 0
          0 0 0 0 0 0
          0 0 0 0 0 0
          0 0 0 0 0 0
          0 0 0 0 0 0
          0 0 0 0 0 0
          0 0 0 0 0 0
          0 0 0 0 0 0
          0
        </DataArray>
        <DataArray type="Float64" Name="markers_mustrefine" format="ascii" RangeMin="0" RangeMax="2">
          0 0 0 0 0 0
          0 0 0 0 0 0
          0 0 0 0 0 0
          0 0 0 0 0 0
          0 0 0 0 2 0
          2 0 0 0 0 0
          0 0 0 0 0 0
          0 0 0 0 0 1
          0 0 0 0 0 0
          0 0 0 0 0 0
          0 0 2 0 0 0
          0 0 0 0 0 0
          0 0 0 0 0 0
          0 0 2 0.5 0 1
          0 0 0 0.5 0 0
          1 0 0 0 0 2
          1 1 0 0 0 1
          0.5 0 1 0.5 0 0
          0 2 1 2 0 0
          0 1 0.5 0 0 2
          2 0 0 0 0 0
          0 0 0 0 0 0
          0 0 0 0 0 0
          0 0 0 0 0 0
          0 0 0 0 0 0
          0 0 0 0 0 0
          0 0 0 0 0 0
          0 0 0 0 0 0
          0 0 0.5 1 0.5 0.25
          0 1 0.75 0 0 0
          0.25 2 1 0.5 1.5 0
          0 0 1 1 0 1
          1 0 0.5 0.5 2 2
          2 1 0 0 1 1
          0.25 1.5 1.25 0 0.5 0.5
          2 2 2 1 1 0.5
          2 1.5 0.5 2 1.5 0
          0.5 0.5 2 2 2 1
          1 0.75 2 1.75 1 2
          2 0.3333333333333333 0.75 1 2 2
          2 1 1 1 2 2
          1 2 2 0.6666666666666666 1.25 1.5
          2 2 2 1.5 0 0
          0.25 0 0 0.5 0 0
          0 0 0.5 0 1 0
          1 1 2 2 1 2
          2 0.5 1.5 1.5 2 2
          2 2 0 0.5 0 0.5
          0 0 0 1 1 0
          0 0 0 0 0 0
          0 0 0 0 0 0
          0 0 0 0 0 0
          0 0 0 0 0 0
          0 0 0 0 0 0
          0 0 0 0 0 0
          0 0 0 0 0 0
          0 0 0 0 0 0
          0 0 0 0 0 0
          0 0 0 0 0 0
          0 0 0 0 0 0
          0 0 0 0 0 0
          0 0 0 0 0 0
          0 0 0 0 0 0
          0 0 0 0 0 0
          0 0 0 0 0 0
          0 0 0 0 0 0
          0 0 0 0 0 0
          0 0 0 0 0 0
          0 0 0 0 0 0
          0 0 0 0 0 0
          0 0 0 0 0 0
          0 0 0 0 0 0
          0 0 0 0 0 0
          0 0 0 0 0 0
          0 0 0 0 0 0
          0 0 0 0 0 0
          0 0 0 0 0 0
          0 0 0 0 0 0
          0 0 0 0 0 0
          0 0 0 0 0 0
          0 0 0 0 0 0
          0 0 0 0 0 0
          0 0 0 0 0 0
          0 0 0 0 0 0
          0 0 0 0 0 0
          0 0 0 0 0 0
          0 0 0 0 0 0
          0 0 0 0 0 0
          0
        </DataArray>
        <DataArray type="Float64" Name="gradient_marker" format="ascii" RangeMin="0" RangeMax="1">
          1 1 1 1 1 1
          1 1 1 1 1 1
          1 1 1 1 1 1
          1 1 1 1 1 1
          1 1 1 1 1 1
          1 1 1 1 1 1
          1 1 1 1 1 1
          1 1 1 1 1 1
          1 1 1 1 1 1
          0.5 1 1 0.5 0.875 1
          1 1 1 1 1 1
          1 1 1 1 1 1
          1 1 1 1 1 1
          1 1 1 1 1 1
          1 1 1 1 1 1
          1 1 1 1 1 1
          1 1 1 0.5 0.75 1
          1 0.625 1 1 1 1
          0.875 1 1 1 1 0.5
          0.5 1 1 0.6666666666666666 0.75 1
          1 1 1 1 1 1
          1 1 1 1 1 1
          1 1 1 1 1 1
          1 1 1 1 1 1
          1 1 1 1 1 1
          1 1 1 1 1 1
          1 1 1 1 1 1
          1 1 1 1 1 1
          1 1 1 1 1 1
          1 1 1 1 1 1
          1 1 1 1 1 1
          1 1 1 1 1 1
          1 1 1 1 1 1
          1 1 1 1 1 1
          1 1 1 1 1 1
          1 1 1 1 1 1
          1 1 1 1 1 1
          1 1 1 1 1 1
          1 1 1 1 1 1
          1 1 1 1 1 1
          1 1 1 1 1 1
          1 1 1 1 1 1
          1 1 1 1 1 1
          1 1 0.8333333333333334 1 1 1
          1 1 1 1 1 1
          1 1 1 1 1 1
          1 1 1 1 1 1
          1 1 0.75 1 0.75 1
          0.5 1 1 1 1 1
          1 1 1 1 1 1
          1 1 1 1 1 1
          1 1 1 1 1 1
          1 1 1 1 1 1
          1 1 1 1 1 1
          1 1 1 1 1 1
          1 1 1 1 1 1
          1 1 1 1 1 1
          1 1 1 1 1 1
          1 1 1 1 1 1
          1 1 1 1 1 1
          1 1 1 1 1 1
          1 1 1 1 1 1
          1 1 1 0.5 0.75 1
          1 0.75 0.875 1 0.5 0.5
          0.75 1 1 1 1 1
          1 1 1 1 1 1
          1 1 1 1 1 1
          1 1 1 1 1 1
          1 0 0.25 0.5 0.625 0
          0.5 0.5 0.5 0.75 0.5 0
          0 0.5 0.5 0 0.5 0.5
          0 0.5 0.5 1 1 1
          1 1 1 0 0 0.5
          0.5 0 0.5 0.5 0 0.5
          0.5 1 1 1 1 1
          1 1 1 1 1 1
          1 1 1 1 1 1
          1 1 1 1 1 1
          1 1 1 1 1 1
          1 1 1 1 1 1
          1 1 1 1 1 1
          1 1 1 1 1 1
          1 1 1 1 1 1
          1 1 1 1 1 1
          1 1 1 1 1 1
          1 1 1 1 1 1
          1 1 1 0 0 0.25
          0.25 0 0.25 0 0 0
          0
        </DataArray>
        <DataArray type="Float64" Name="gradient_matprop_marker" format="ascii" RangeMin="0" RangeMax="0">
          0 0 0 0 0 0
          0 0 0 0 0 0
          0 0 0 0 0 0
          0 0 0 0 0 0
          0 0 0 0 0 0
          0 0 0 0 0 0
          0 0 0 0 0 0
          0 0 0 0 0 0
          0 0 0 0 0 0
          0 0 0 0 0 0
          0 0 0 0 0 0
          0 0 0 0 0 0
          0 0 0 0 0 0
          0 0 0 0 0 0
          0 0 0 0 0 0
          0 0 0 0 0 0
          0 0 0 0 0 0
          0 0 0 0 0 0
          0 0 0 0 0 0
          0 0 0 0 0 0
          0 0 0 0 0 0
          0 0 0 0 0 0
          0 0 0 0 0 0
          0 0 0 0 0 0
          0 0 0 0 0 0
          0 0 0 0 0 0
          0 0 0 0 0 0
          0 0 0 0 0 0
          0 0 0 0 0 0
          0 0 0 0 0 0
          0 0 0 0 0 0
          0 0 0 0 0 0
          0 0 0 0 0 0
          0 0 0 0 0 0
          0 0 0 0 0 0
          0 0 0 0 0 0
          0 0 0 0 0 0
          0 0 0 0 0 0
          0 0 0 0 0 0
          0 0 0 0 0 0
          0 0 0 0 0 0
          0 0 0 0 0 0
          0 0 0 0 0 0
          0 0 0 0 0 0
          0 0 0 0 0 0
          0 0 0 0 0 0
          0 0 0 0 0 0
          0 0 0 0 0 0