<?xml version="1.0"?>
<VTKFile type="UnstructuredGrid" version="0.1" byte_order="LittleEndian" header_type="UInt32" compressor="vtkZLibDataCompressor">
  <UnstructuredGrid>
    <Piece NumberOfPoints="555" NumberOfCells="298">
      <PointData>
        <DataArray type="Int32" Name="libmesh_node_id" format="ascii" RangeMin="349" RangeMax="4622">
          480 482 486 487 490 491
          492 605 617 618 622 623
          690 691 697 760 761 764
          766 768 769 772 773 775
          777 1031 1057 1058 1062 1067
          1068 1069 1072 1073 1074 1076
          1077 1078 1079 1080 1081 1082
          1120 1272 1281 1444 1996 1997
          2000 2001 2002 2004 2005 2010
          2011 2012 2013 2014 2015 2037
          2039 2041 2043 2044 2045 2046
          2047 2048 2049 2050 2051 2052
          2053 2054 2055 2056 2057 2058
          2059 2060 2061 2062 2063 2064
          2065 2066 2067 2068 2069 2070
          2071 2072 2073 2144 2148 2231
          2232 2235 2236 2238 2240 2362
          2363 2364 2365 2366 2369 2370
          2389 2390 2391 2392 2393 2394
          2395 2396 2397 2398 2399 2400
          2401 2402 2403 2404 2405 2406
          2407 2408 2409 2410 2411 2412
          2413 2414 2415 2416 2417 2418
          2419 2420 2421 2422 2423 2424
          2425 2426 2434 2435 2438 2439
          3473 3475 3476 3477 3478 3483
          3484 3485 3488 3493 3494 3495
          3498 3499 3500 3501 3502 3503
          3504 3505 3506 3507 3508 3509
          3510 3511 3512 3513 3514 3515
          3516 3517 3518 3659 3660 3662
          3663 3664 3665 3673 3675 3676
          3677 3679 3680 3681 3682 3685
          3686 3689 3692 3693 3696 3697
          3698 3699 3700 3701 3702 3703
          3704 3705 3706 3707 3708 3709
          3710 3713 3714 3717 3720 3721
          3724 3725 3726 3727 3728 3729
          3730 3731 3732 3733 3734 3735
          3736 3737 3738 3739 3740 3741
          3742 3743 3744 3745 3746 3747
          3748 3749 3750 3751 3752 3753
          3754 3755 3756 3757 3758 3759
          3760 3761 3762 3763 3764 3765
          3766 3767 3768 3769 3770 3771
          3772 3773 3774 3775 3776 3777
          3778 3779 3780 3781 3782 3783
          3784 3785 3786 3787 3788 3789
          3790 3791 3792 3793 3794 3795
          3796 3797 3798 3799 3800 3801
          3802 3803 3931 3932 3936 3947
          3948 3951 3952 3954 3956 4145
          4149 4157 4159 4161 4163 4173
          4177 4185 4187 4188 4189 4191
          4589 4590 4591 4592 4593 4594
          4595 4596 4597 4598 4599 4600
          4603 4604 4606 4608 4609 4610
          4611 4612 4613 4614 4615 4616
          4618 4620 4622 483 349 485
          488 600 611 602 613 692
          693 403 698 770 619 771
          774 776 632 779 637 785
          1027 1063 1028 1064 1065 1066
          1033 1070 1071 1056 1044 1075
          1111 1115 1112 1116 1118 1114
          1117 1119 1275 1278 1279 1276
          610 484 614 1269 1282 1431
          1438 1433 1440 1445 1436 1441
          1443 1446 1039 1050 1975 1926
          1909 1976 1927 1998 1977 1999
          1930 1041 1981 2003 1932 1052
          2006 2007 2008 616 2009 2020
          2021 2036 1962 2038 1964 2040
          2042 621 2102 2106 2103 2107
          2233 2234 2237 2239 2367 2368
          2371 1455 2373 1090 2436 2108
          2437 2440 2111 1091 3471 3479
          3472 3480 3481 3482 3474 3486
          3487 3489 3490 3491 3492 3496
          3497 3552 3656 3576 3582 3667
          3661 3583 3674 3669 2025 3586
          3671 1060 3678 3658 3683 3684
          3687 3688 3690 3691 3694 3695
          3711 3712 3715 3716 3718 3719
          3722 3723 3927 3928 3929 3930
          3933 3934 3935 2109 3949 3950
          3953 3955 4143 4144 4146 4147
          4148 2142 4158 4160 4162 4164
          4166 4168 4170 4171 4172 4174
          4175 4176 2146 4186 4190 4192
          4194 4196 4198 3966 4601 4167
          4602 4605 2145 4607 4195 4617
          4619 1096 4621
        </DataArray>
        <DataArray type="Float64" Name="bounds" format="ascii" RangeMin="0" RangeMax="0">
          0 0 0 0 0 0
          0 0 0 0 0 0
          0 0 0 0 0 0
          0 0 0 0 0 0
          0 0 0 0 0 0
          0 0 0 0 0 0
          0 0 0 0 0 0
          0 0 0 0 0 0
          0 0 0 0 0 0
          0 0 0 0 0 0
          0 0 0 0 0 0
          0 0 0 0 0 0
          0 0 0 0 0 0
          0 0 0 0 0 0
          0 0 0 0 0 0
          0 0 0 0 0 0
          0 0 0 0 0 0
          0 0 0 0 0 0
          0 0 0 0 0 0
          0 0 0 0 0 0
          0 0 0 0 0 0
          0 0 0 0 0 0
          0 0 0 0 0 0
          0 0 0 0 0 0
          0 0 0 0 0 0
          0 0 0 0 0 0
          0 0 0 0 0 0
          0 0 0 0 0 0
          0 0 0 0 0 0
          0 0 0 0 0 0
          0 0 0 0 0 0
          0 0 0 0 0 0
          0 0 0 0 0 0
          0 0 0 0 0 0
          0 0 0 0 0 0
          0 0 0 0 0 0
          0 0 0 0 0 0
          0 0 0 0 0 0
          0 0 0 0 0 0
          0 0 0 0 0 0
          0 0 0 0 0 0
          0 0 0 0 0 0
          0 0 0 0 0 0
          0 0 0 0 0 0
          0 0 0 0 0 0
          0 0 0 0 0 0
          0 0 0 0 0 0
          0 0 0 0 0 0
          0 0 0 0 0 0
          0 0 0 0 0 0
          0 0 0 0 0 0
          0 0 0 0 0 0
          0 0 0 0 0 0
          0 0 0 0 0 0
          0 0 0 0 0 0
          0 0 0 0 0 0
          0 0 0 0 0 0
          0 0 0 0 0 0
          0 0 0 0 0 0
          0 0 0 0 0 0
          0 0 0 0 0 0
          0 0 0 0 0 0
          0 0 0 0 0 0
          0 0 0 0 0 0
          0 0 0 0 0 0
          0 0 0 0 0 0
          0 0 0 0 0 0
          0 0 0 0 0 0
          0 0 0 0 0 0
          0 0 0 0 0 0
          0 0 0 0 0 0
          0 0 0 0 0 0
          0 0 0 0 0 0
          0 0 0 0 0 0
          0 0 0 0 0 0
          0 0 0 0 0 0
          0 0 0 0 0 0
          0 0 0 0 0 0
          0 0 0 0 0 0
          0 0 0 0 0 0
          0 0 0 0 0 0
          0 0 0 0 0 0
          0 0 0 0 0 0
          0 0 0 0 0 0
          0 0 0 0 0 0
          0 0 0 0 0 0
          0 0 0 0 0 0
          0 0 0 0 0 0
          0 0 0 0 0 0
          0 0 0 0 0 0
          0 0 0 0 0 0
          0 0 0 0 0 0
          0 0 0
        </DataArray>
        <DataArray type="Float64" Name="gradient_error" format="ascii" RangeMin="2.5232561253913097e-11" RangeMax="1.6014226772092316e-7">
          5.215632417016983e-10 8.008492252691327e-9 3.735804884598691e-10 4.25641130767391e-10 1.6388628802286072e-8 2.639528396253076e-10
          4.676143814971622e-10 1.168856431606416e-8 2.3338557233190812e-9 2.878940794741041e-9 2.5703613435237348e-9 3.226200266852598e-9
          1.2742915252473672e-10 2.3323508581316004e-10 3.3904101910158326e-10 2.0220457452323853e-9 2.5793625422518195e-9 3.6416062788834213e-10
          3.1366793392712542e-9 1.2960506783083716e-9 1.2252119441282286e-9 2.775583207267893e-10 2.943233136609398e-10 1.14615667133355e-9
          3.1108830659509033e-10 2.001638572726829e-8 1.811657517001418e-8 7.133915860407033e-10 4.0358785575376774e-8 6.547486402762026e-9
          7.68699627734455e-9 2.6617419209301313e-9 8.826506151927075e-9 5.085519843669613e-9 6.385096099129452e-9 4.4993444797950174e-10
          7.172873995706889e-10 1.0353116481974658e-9 3.592498099995107e-10 3.0412857985368555e-9 3.667863184548628e-10 1.2876460670784134e-9
          2.4357364428057395e-10 2.193696326125014e-9 5.516628584530806e-10 2.983110984415276e-10 6.046659987111569e-9 2.1210152998766434e-8
          4.633630310650089e-9 1.3127377924299395e-8 4.70742873075209e-9 4.101953345070926e-8 3.851384978651527e-8 1.075953401216493e-9
          1.1622788676818687e-9 5.080658318804806e-10 3.858125580926648e-9 2.1061501380874435e-9 1.4494339551369106e-9 5.710417211391249e-8
          3.1145358784531915e-8 4.934883156340048e-8 1.2595202283302254e-8 7.96413968609613e-9 3.151389454415991e-9 1.7041612757510079e-9
          1.843086011373726e-8 1.2092390539915098e-8 4.595605578850533e-9 1.6650973994585944e-8 2.2312499289222515e-8 1.6851568754222815e-8
          2.7974024583859083e-8 1.3820017274984494e-8 1.8403307617232973e-8 4.9344791244938745e-9 8.05866411941677e-9 8.795689687492616e-9
          1.1590174047589518e-8 2.7603402518666473e-9 2.2986597959481448e-8 9.77552793506174e-9 1.4384658407686422e-8 1.3170511047717215e-9
          9.150220276605092e-10 5.612717166777319e-10 4.815437043012882e-10 1.0018979862797874e-9 6.673069940052177e-10 4.4271446620227595e-10
          7.971299453225643e-10 5.179722141020273e-10 3.308814616063165e-10 8.303955004263133e-10 1.2816215730929955e-9 2.3589053637140213e-10
          2.8913766098246626e-10 2.0197373373908684e-10 4.04767231849813e-10 3.8381995332223683e-10 5.142802710143831e-10 3.523991383431215e-10
          5.772209673224231e-10 4.615757192186954e-10 2.4934262316852886e-10 3.9914013037541906e-10 1.9492109335851335e-10 3.328176262067651e-10
          3.6189124739305966e-10 3.984487082208915e-10 2.925766964604136e-10 4.350061690487233e-10 2.516254857055043e-10 3.039284371665829e-10
          1.41359724017949e-10 2.0940816611227435e-10 2.0604750351817503e-10 2.0631736873067634e-10 1.2005804100093905e-10 3.562313886276615e-10
          2.7745660820659973e-10 2.065872339431776e-10 1.0380983208009695e-9 1.6225262706190615e-9 1.151437566452345e-9 6.593058716033931e-10
          1.119871697211687e-9 1.847192291493504e-10 4.301077468328081e-10 4.5292700115358146e-10 7.377545367261908e-10 2.1819778440812046e-10
          3.507382853140852e-10 4.880648438005979e-10 4.0977509099902806e-10 6.253914022871104e-10 2.492535396727158e-10 3.3375683450520533e-10
          1.4776879403134633e-10 1.7944882520981273e-10 2.088628515810745e-10 2.771321258207164e-10 1.4448916064240476e-10 4.182601293376948e-10
          2.1112885638827913e-10 3.4540140006035833e-10 6.254253696726842e-11 1.7194393467815372e-10 4.8233467067021756e-11 7.846337092997629e-11
          2.693758374432344e-9 1.1218418570547406e-9 1.6127386557462425e-9 1.228800727591061e-9 3.5280795827352256e-9 1.5004815300427544e-9
          2.269285976945618e-9 1.5741822580024469e-9 5.2304168384009526e-9 5.646192707950317e-10 1.115099506052641e-9 7.870411867592631e-10
          2.8727349034808176e-9 8.598319600376613e-10 1.3265162848269958e-9 4.943522053436304e-10 8.767340478561521e-10 6.136686882240832e-10
          9.718168110119425e-10 5.982479891315977e-10 2.9803288247402076e-9 2.0861776856245675e-9 1.8843046458031255e-9 3.2999175017702803e-10
          6.065706945003682e-10 2.2504343118788325e-10 4.2202436999217806e-10 2.439370680606874e-10 4.0972635150394625e-10 2.8389609292701264e-10
          1.4975742121573964e-9 1.0721351861183527e-9 8.509393109992999e-10 1.1313810314646e-8 3.7569438268655244e-8 3.2029334595812196e-8
          6.37676717976908e-9 3.506679190069753e-9 9.227506331738515e-9 4.0358544353071904e-8 3.420339208368491e-8 2.459406296836454e-8
          4.314765043748856e-8 3.637744957155761e-8 1.2027332281896159e-8 6.71998772025596e-9 1.3400662548820738e-8 9.984852618983877e-9
          7.735360505367512e-9 1.5168291056697206e-8 6.040405934760963e-9 4.601753321264116e-9 1.0173790009785935e-8 5.532546160198473e-9
          4.108648346096391e-9 2.9041051325903548e-9 1.9776972606404344e-9 8.310844719662671e-9 6.607656182105009e-9 4.384873408024206e-9
          3.0803242764007936e-9 2.2715337267933543e-9 1.4239726128999518e-9 1.019162189049574e-9 5.144527126650062e-9 3.8920707449888005e-9
          2.3377539818851182e-9 1.9563429876163137e-8 1.678329252185977e-8 2.1337239623946202e-8 1.3768153911003625e-8 1.092177583084363e-8
          1.518964960630592e-8 1.0875698201003199e-8 8.774814335205122e-9 5.738321021520013e-9 4.176960624174976e-9 1.2027342243213914e-8
          9.638373517512548e-9 6.353630990367533e-9 6.970551571572105e-9 5.361288246971025e-9 3.1422020897206232e-9 2.3193466469064765e-9
          7.700698657154591e-9 5.956237394110924e-9 3.468190292445566e-9 1.1014114971877748e-9 1.5183771209794934e-9 1.1660051837206342e-9
          2.2502681961933104e-9 2.803798445470925e-9 1.4203419208732512e-9 3.0424032433264404e-9 4.4144382802463565e-10 4.927132356607716e-10
          3.982207929791496e-10 5.439826432969076e-10 9.283932884874877e-10 1.2837705234676524e-9 6.361251621893167e-10 8.862006685216286e-10
          6.509293174893837e-10 9.006101944126317e-10 5.373974361440979e-10 1.941814585931187e-9 1.3909731749722226e-9 1.0712818669581412e-9
          4.3876997068653535e-10 6.152783042137751e-10 3.021307233884275e-10 4.282770870470845e-10 2.875891388865555e-10 3.707351099268796e-10
          2.5322788493930867e-10 9.831503240841247e-10 6.947237743752942e-10 4.5064753362584706e-10 2.461654791307494e-9 1.8176483872871335e-9
          1.1387854332746472e-9 7.249867962233712e-10 2.6788281692004314e-9 1.989626599483762e-9 1.2457936017800222e-9 1.3040974058893085e-9
          9.302373969078499e-10 4.99969223940963e-10 4.1413034980997723e-10 1.433680801351383e-9 1.0254506957708526e-9 5.509076879267574e-10
          3.85294151297159e-10 4.2419582063893523e-10 2.7336684727081356e-10 2.9469726533495567e-10 3.007172816161447e-10 3.0558953013776683e-10
          1.8282064773143964e-10 4.6309748998071125e-10 3.160276833990977e-10 3.1046177865938895e-10 1.8254763561938317e-10 1.9516028738683315e-10
          1.4750605126682155e-10 1.5660444972085364e-10 1.4069694703368129e-10 1.3650237701101315e-10 1.2032172585553102e-10 2.077729391542831e-10
          1.6570284817488568e-10 1.3230780698834499e-10 2.6273661996304783e-10 5.442505378032207e-10 1.5019143474720086e-9 1.508931491965655e-10
          2.8806662648029784e-10 1.1029529817379996e-10 1.9206340339014404e-10 7.500087074649802e-10 4.1306289433462557e-10 3.385677676400955e-9
          6.012141868444268e-9 1.6269930491392424e-9 7.124970986299125e-10 2.8438387185483986e-9 1.2087923726315444e-9 8.370568115523602e-9
          9.310143607659954e-9 3.969880895410261e-9 1.661144346808601e-9 1.1496557631298542e-9 4.43129314083628e-9 1.847019558415244e-9
          2.0433377288012305e-10 2.9256330606959355e-10 1.3599913874062531e-10 1.9516283028178463e-10 1.2946926751555315e-10 1.702351373666003e-10
          1.1181928471787242e-10 4.794716035133337e-10 3.213488816863494e-10 2.6543254496676667e-10 8.776679529392146e-11 1.2658076254331338e-10
          5.471067549843853e-11 7.160843399685082e-11 2.0958110118140166e-10 1.1133199894820697e-10 6.451785495038581e-10 4.339099666609018e-10
          3.5447488293091457e-10 2.3117726722343635e-10 7.122067312401128e-10 4.794486917720487e-10 3.890856831459432e-10 2.8389669398918925e-10
          1.483624839967161e-10 3.140259154082805e-10 1.6256716259228137e-10 1.2090783468380196e-10 1.321620630480212e-10 3.787322649959515e-10
          1.4894120111984769e-10 8.898915398648185e-9 1.618906853474536e-9 5.261717362008882e-8 1.7916622912332934e-8 4.941383676609536e-11
          6.059659768146273e-11 1.151235952211021e-10 7.177935859683008e-11 4.0803008711623784e-10 3.837943393974629e-10 2.5862615132620294e-10
          1.1285193850199974e-10 1.1770861936320486e-10 3.4710273399895916e-11 3.4024861256903025e-11 5.96335877104709e-11 4.000917036070289e-11
          7.510267007169533e-8 5.0462888995320594e-8 9.400393410872544e-8 1.0530257835812187e-7 1.931953739437467e-8 4.9634100479890525e-8
          1.1748546715324686e-7 1.6014226772092316e-7 7.294791334311465e-8 5.931126639314534e-9 7.975477438679117e-8 2.6411036234351955e-10
          6.932234029667949e-11 8.51276964677232e-11 1.38706923377001e-10 1.942575099559174e-10 2.3240842473856982e-10 2.992455048410941e-11
          4.2547187213182224e-11 4.378301975454027e-11 6.691283917098335e-10 2.5905829447790313e-10 2.6194363272663924e-10 6.103956250814571e-10
          8.228100220127022e-10 2.455402317240167e-10 2.5767900962875764e-10 2.4813157641193644e-9 2.6482897097537536e-10 5.957215689340855e-10
          2.553275177766809e-10 3.927054312709102e-9 1.3160945449823856e-9 8.815780788565295e-10 2.5145787755638814e-9 8.627352585118303e-11
          1.8725653261987506e-10 2.401229326885589e-10 1.0492972288704562e-8 3.3144775449787858e-9 8.779813751193715e-9 9.394284224562825e-9
          5.432574803351355e-8 4.1331027355497696e-8 2.898490336330106e-8 3.5047087153340256e-9 1.9067649147297143e-8 9.868052341791404e-9
          1.8220785417345593e-8 1.1237585774413236e-7 9.368897399055013e-8 8.584840170862825e-8 1.0382781246336893e-7 4.794290988753305e-8
          1.8433467030268276e-9 1.345750715645608e-9 8.803127291036826e-10 3.9456132001548515e-10 6.342416092777264e-10 8.417199483864893e-8
          5.877834037678415e-8 1.0975150637708586e-7 1.293561127085158e-7 6.456389607337701e-8 9.398004323146886e-8 8.629603581911371e-8
          8.216758023595546e-8 1.539126536633011e-7 3.6817685429002407e-10 1.557303005992334e-10 2.710587591731154e-10 2.0947289324647303e-10
          9.674030248436874e-11 1.211856845716108e-10 1.7262155244336688e-10 1.6178882128606897e-10 8.525581561606761e-11 1.4016694641819902e-10
          1.1505551335704993e-10 5.711272014490223e-11 3.607374638849562e-11 7.673357748109403e-11 2.5232561253913097e-11 8.499404111768166e-11
          6.98489655375375e-11 3.10446504539462e-11 3.2123614351024354e-10 1.324185751298165e-10 3.050022513328366e-9 2.3433805395518846e-9
          4.065714539975559e-9 3.523353317081143e-9 1.360834334050417e-9 2.5775923351124248e-9 9.549708503220655e-9 8.407908444168345e-9
          6.463142738728302e-9 9.215327947792657e-10 1.875952809608758e-9 6.401374093272884e-10 1.348250366398107e-9 4.990480414113767e-9
          3.758088833569034e-9 4.639402655784975e-8 3.989477165869715e-8 4.913016530341309e-8 4.919134848257905e-8 4.223634143339512e-8
          3.026019785490304e-8 4.7951828401403464e-8 3.734805125800834e-8 3.772926820581576e-8 4.9956110997437546e-8 5.038935311989329e-8
          4.45779112080931e-8 4.958240475116046e-8 4.039996696743792e-8 1.8103166453685094e-8 1.6313906114534795e-8 1.3187562047337467e-8
          2.545902644640421e-8 2.1658517512785707e-8 1.062978249211739e-8 8.318783991065482e-9 1.788179545380961e-8 1.4316286288234492e-8
          3.3357374511882014e-8 2.8749784817671867e-8 3.631201756629891e-8 3.142572356316508e-8 2.397687377286761e-8 1.9402794048893226e-8
          2.629913361856149e-8 2.1350769159779292e-8 4.367468512015088e-10 9.448166815260762e-10 2.9047362515264253e-10 6.423474992555127e-10
          3.664207115794881e-10 2.736090750986559e-9 1.9191197004250813e-9 1.0364103568753073e-9 9.935298585969102e-11 1.919848092666145e-10
          1.2699582477051767e-10 5.092928368491201e-10 6.28682122991279e-9 4.563076177750875e-9 2.396608658517603e-9 1.1083200538650166e-8
          8.256915280861784e-9 4.354244609025553e-9 1.1263561571290863e-9 4.838978029222244e-10 2.0011700710957444e-9 7.524272044516337e-10
          3.185206225724392e-10 1.3540444435708675e-9 5.513620055245843e-10 1.5188274224771457e-8 1.146550903880305e-8 6.158988226861736e-9
          1.676449484194569e-8 1.2699321843892503e-8 6.8887845980597284e-9 2.82349153353631e-9 3.163386198114602e-9 1.9271277034908447e-9
          7.676065988462274e-10 2.165745415897882e-9 8.573801379003561e-10 1.8059619488580232e-10 5.513813859168568e-11 2.0297702029111075e-10
          7.977604209931015e-11 4.46485727073775e-11 3.53562132876449e-10 1.3270613541667432e-10 4.942964040128802e-10 1.8036172763617733e-10
          9.328374798275487e-11 5.529012141986267e-10 1.9972513004594067e-10
        </DataArray>
        <DataArray type="Float64" Name="gradient_matprop_error" format="ascii" RangeMin="0" RangeMax="0">
          0 0 0 0 0 0
          0 0 0 0 0 0
          0 0 0 0 0 0
          0 0 0 0 0 0
          0 0 0 0 0 0
          0 0 0 0 0 0
          0 0 0 0 0 0
          0 0 0 0 0 0
          0 0 0 0 0 0
          0 0 0 0 0 0
          0 0 0 0 0 0
          0 0 0 0 0 0
          0 0 0 0 0 0
          0 0 0 0 0 0
          0 0 0 0 0 0
          0 0 0 0 0 0
          0 0 0 0 0 0
          0 0 0 0 0 0
          0 0 0 0 0 0
          0 0 0 0 0 0
          0 0 0 0 0 0
          0 0 0 0 0 0
          0 0 0 0 0 0
          0 0 0 0 0 0
          0 0 0 0 0 0
          0 0 0 0 0 0
          0 0 0 0 0 0
          0 0 0 0 0 0
          0 0 0 0 0 0
          0 0 0 0 0 0
          0 0 0 0 0 0
          0 0 0 0 0 0
          0 0 0 0 0 0
          0 0 0 0 0 0
          0 0 0 0 0 0
          0 0 0 0 0 0
          0 0 0 0 0 0
          0 0 0 0 0 0
          0 0 0 0 0 0
          0 0 0 0 0 0
          0 0 0 0 0 0
          0 0 0 0 0 0
          0 0 0 0 0 0
          0 0 0 0 0 0
          0 0 0 0 0 0
          0 0 0 0 0 0
          0 0 0 0 0 0
          0 0 0 0 0 0
          0 0 0 0 0 0
          0 0 0 0 0 0
          0 0 0 0 0 0
          0 0 0 0 0 0
          0 0 0 0 0 0
          0 0 0 0 0 0
          0 0 0 0 0 0
          0 0 0 0 0 0
          0 0 0 0 0 0
          0 0 0 0 0 0
          0 0 0 0 0 0
          0 0 0 0 0 0
          0 0 0 0 0 0
          0 0 0 0 0 0
          0 0 0 0 0 0
          0 0 0 0 0 0
          0 0 0 0 0 0
          0 0 0 0 0 0
          0 0 0 0 0 0
          0 0 0 0 0 0
          0 0 0 0 0 0
          0 0 0 0 0 0
          0 0 0 0 0 0
          0 0 0 0 0 0
          0 0 0 0 0 0
          0 0 0 0 0 0
          0 0 0 0 0 0
          0 0 0 0 0 0
          0 0 0 0 0 0
          0 0 0 0 0 0
          0 0 0 0 0 0
          0 0 0 0 0 0
          0 0 0 0 0 0
          0 0 0 0 0 0
          0 0 0 0 0 0
          0 0 0 0 0 0
          0 0 0 0 0 0
          0 0 0 0 0 0
          0 0 0 0 0 0
          0 0 0 0 0 0
          0 0 0 0 0 0
          0 0 0 0 0 0
          0 0 0 0 0 0
          0 0 0 0 0 0
          0 0 0
        </DataArray>
        <DataArray type="Float64" Name="initial_marker" format="ascii" RangeMin="0" RangeMax="2">
          0 0 0 0 0 0
          0 0 0 0 2 0
          0 0 0 0 0 0
          0 0 0 0 0 0
          0 0 1.5 1.5 2 0
          0 0 0 0 0 0
          0 0 0 0.5 0 0
          0 0 0 0 0 1
          0 1 0.3333333333333333 2 2 0
          0 0 2 2 1.5 2
          2 2 2 2 2 2
          2 2 2 1 1.5 1
          2 1 1.5 0.3333333333333333 1.25 0
          1 0.3333333333333333 2 2 2 0
          1 0 1 0 0 0
          2 1 0 2 2 0
          1 0 0 1 0 0
          0 0 0 0 0 0
          0 0 0 0 0 0
          0 0 0 0 0 0
          0 0 0 0 0 0
          0 0 0 0 0 0
          0 0 0 0 0 0
          0 0 0 0 0 0
          0 0 0 0 0 0
          2 1 1.5 1 2 2
          2 2 2 2 2 1.75
          2 1 1.5 1 1.5 0
          1 1 2 2 2 1
          1.5 0.5 1.25 0 1 1
          2 2 2 2 2 2
          2 2 2 2 2 2
          2 2 2 2 2 2
          2 2 2 2 2 2
          2 2 2 2 2 2
          2 2 2 2 2 2
          2 2 2 2 2 2
          2 2 2 2 2 2
          2 2 2 2 2 2
          2 2 2 1 1.5 1
          2 2 1.5 2 0 0.5
          0 1 1 1.5 1 1.5
          0 1 1 2 2 1.3333333333333333
          1 1.5 1 1.5 0 1
          1 2 2 1.3333333333333333 2 2
          1.5 1.5 2 2 2 2
          2 1.25 1.3333333333333333 2 2 1.5
          0 0.5 0 0.5 0 0
          0 1 1 0 0 0.25
          0 0 0 0 0 0.5
          0 0 1 1.5 2 0
          1 0 1 2 2 2
          2 2 2 2 2 2
          2 2 2 2 2 2
          1 1.5 1 1.5 0 1
          1 2 2 2 1 1.25
          0 0.5 1.75 1.5 2 2
          2 2 2 2 2 2
          2 2 2 0 0 0
          0 0 0 0 0 0
          0 0 0 0 0 0
          0 0 0 0 0 0
          0 0 0.25 0.5 0 0.25
          0.5 1 1 0 1.5 0
          0 0 0 0 0 0
          0 0 0 0 0 0
          0 0 0 0 0 0
          0 0 0 0 0 0
          0 0 0.5 0.25 1 0
          1.5 1.5 1 0 1.5 1
          1 2 2 2 2 2
          0 1 0 0 0.75 2
          2 2 2 2 2 2
          2 2 0 0 0.5 0
          0 0.5 0 1 0 0
          0 0 0 0 0 0
          0 0 1.5 1.25 2 2
          2 2 2 2 2 2
          2 2 2 2 2 2
          2 2 2 2 2 2
          2 2 2 2 2 2
          2 2 2 2 2 2
          2 2 2 2 2 2
          2 2 2 2 2 2
          2 2 2 2 2 2
          1.5 2 2 2 0 1
          1 2 2 2 2 2
          2 2 2 2 2 2
          2 2 2 2 2 2
          2 2 2 2 2 2
          2 2 2 2 1 2
          1 0 2 1.5 2 2
          2 2 2
        </DataArray>
        <DataArray type="Float64" Name="markers_norefine" format="ascii" RangeMin="0" RangeMax="2">
          0 0 0 0 0 0
          0 0 0 0 0 0
          0 0 0 0 0 0
          0 0 0 0 0 0
          0 0 0 0 0 0
          0 0 0 0 0 0
          0 0 0 0 0 0
          0 0 0 0 0 0
          0 0 0 0 0 0
          0 0 0 0 0 0
          0 0 0 0 0 0
          0 0 0 0 0 0
          0 0 0 0 0 0
          0 0 0 0 0 0
          0 0 0 0 0 0
          0 0 0 0 0 0
          0 0 0 0 0 0
          0 0 0 0 0 0
          0 0 0 0 0 0
          0 0 0 0 0 0
          0 0 0 0 0 0
          0 0 0 0 0 0
          0 0 0 0 0 0
          0 0 0 0 0 0
          0 0 0 0 0 0
          0 0 0 0 0 0
          0 0 0 0 0 0
          0 0 0 0 0 0
          0 0 0 0 0 0
          0 0 0 0 0 0
          0 0 0 0 0.5 0
          0 0 0 0.75 0 0
          1 0 0 0 0 0
          0 0 0 0 0 0
          0 0 0 0 0 0
          0 0 0 0 0 0
          0 0 0 0 0 0
          0 0 0 0 0 0
          0 0 0 0 0 0
          0 0 0 0 0 0
          0 0 0 0 0 0
          0 0 0 0 0 0
          0 0 0 0 0 0
          0 0 0 0 0 0
          0 0 0 0 0 0
          0 0 0 0 0 0
          0 0 0 0 0 0
          0 0 0 0 0 0
          0 0 0 0 0 0
          0 0 0 0 0 0
          0 0 0 0 0 0
          0 0 0 0 0 0
          0 0 0 0 0 0
          0 0 0 0 0 0
          0 0 0 0 0 0
          0 0 0 0 0 0
          0 0 0 0 0 0
          0 0 0 0 0 0
          0 0 0 0 0 0
          0 0 0 0 0 0
          0 0 0 0 0 0
          0 0 0 0 0 0
          0 0 0 0 0 0
          0 0 0 0 0 0
          0 0 0 0 0 0
          0 0 0 0 0 0
          0 0 0 0 0 0
          0 0 0 0 0 0
          0 0 0 0 0 0
          0 0 0 0 0 0
          0 0 0 0 0 0
          0 0 0 0 0 1.5
          0.5 0 0 0 0 0
          0 0 0 0 0 0
          0 0 0 0 0 0
          0 0 0 0 0 0
          0 0 0 0 0 0
          0 0 0 0 0 0
          0 0 0 0 0 0
          0 1.3333333333333333 1 2 1.75 1
          0 1.25 0.25 0 2 2
          1 1.5 0.5 0 0 0
          0 0 0 0 0 0
          0 0 0 0 0 0
          0 0 0 0 0 0
          0 0 0 0 0 0
          0 0 0 0 0 0
          0 0 0 0 0 0
          0 0 0 0 0 0
          0 0 0 0 0 0
          0 0 0 0 0 0
          0 0 0 0 0 0
          0 0 0
        </DataArray>
        <DataArray type="Float64" Name="markers_mustrefine" format="ascii" RangeMin="0" RangeMax="2">
          0 0 0 0 0 0
          0 0 0 0 2 0
          0 0 0 0 0 0
          0 0 0 0 0 0
          0 0 1.5 1.5 2 0
          0 0 0 0 0 0
          0 0 0 0.5 0 0
          0 0 0 0 0 1
          0 1 0.3333333333333333 2 2 0
          0 0 2 2 1.5 2
          2 2 2 2 2 2
          2 2 2 1 1.5 1
          2 1 1.5 0.3333333333333333 1.25 0
          1 0.3333333333333333 2 2 2 0
          1 0 1 0 0 0
          2 1 0 2 2 0
          1 0 0 1 0 0
          0 0 0 0 0 0
          0 0 0 0 0 0
          0 0 0 0 0 0
          0 0 0 0 0 0
          0 0 0 0 0 0
          0 0 0 0 0 0
          0 0 0 0 0 0
          0 0 0 0 0 0
          2 1 1.5 1 2 2
          2 2 2 2 2 1.75
          2 1 1.5 1 1.5 0
          1 1 2 2 2 1
          1.5 0.5 1.25 0 1 1
          2 2 2 2 2 2
          2 2 2 2 2 2
          2 2 2 2 2 2
          2 2 2 2 2 2
          2 2 2 2 2 2
          2 2 2 2 2 2
          2 2 2 2 2 2
          2 2 2 2 2 2
          2 2 2 2 2 2
          2 2 2 1 1.5 1
          2 2 1.5 2 0 0.5
          0 1 1 1.5 1 1.5
          0 1 1 2 2 1.3333333333333333
          1 1.5 1 1.5 0 1
          1 2 2 1.3333333333333333 2 2
          1.5 1.5 2 2 2 2
          2 1.25 1.3333333333333333 2 2 1.5
          0 0.5 0 0.5 0 0
          0 1 1 0 0 0.25
          0 0 0 0 0 0.5
          0 0 1 1.5 2 0
          1 0 1 2 2 2
          2 2 2 2 2 2
          2 2 2 2 2 2
          1 1.5 1 1.5 0 1
          1 2 2 2 1 1.25
          0 0.5 1.75 1.5 2 2
          2 2 2 2 2 2
          2 2 2 0 0 0
          0 0 0 0 0 0
          0 0 0 0 0 0
          0 0 0 0 0 0
          0 0 0.25 0.5 0 0.25
          0.5 1 1 0 1.5 0
          0 0 0 0 0 0
          0 0 0 0 0 0
          0 0 0 0 0 0
          0 0 0 0 0 0
          0 0 0.5 0.25 1 0
          1.5 1.5 1 0 1.5 1
          1 2 2 2 2 2
          0 1 0 0 0.75 2
          2 2 2 2 2 2
          2 2 0 0 0.5 0
          0 0.5 0 1 0 0
          0 0 0 0 0 0
          0 0 1.5 1.25 2 2
          2 2 2 2 2 2
          2 2 2 2 2 2
          2 2 2 2 2 2
          2 2 2 2 2 2
          2 2 2 2 2 2
          2 2 2 2 2 2
          2 2 2 2 2 2
          2 2 2 2 2 2
          1.5 2 2 2 0 1
          1 2 2 2 2 2
          2 2 2 2 2 2
          2 2 2 2 2 2
          2 2 2 2 2 2
          2 2 2 2 1 2
          1 0 2 1.5 2 2
          2 2 2
        </DataArray>
        <DataArray type="Float64" Name="gradient_marker" format="ascii" RangeMin="0" RangeMax="1">
          1 1 1 1 0.5 1
          1 0.75 0.8333333333333334 0.5 1 0.25
          1 1 1 1 1 1
          1 1 0.875 1 1 0.75
          1 0 0.125 1 0.25 0
          0 0 0 0.5 0.5 1
          0.5 0.5 1 0.25 1 0.5
          1 1 1 0.5 0 0
          0 0 0.5 0.125 0.16666666666666666 1
          1 1 1 1 1 0.25
          0.125 0.25 1 1 1 1
          1 1 1 0 0 0
          0 0 0 0.5 0.125 0
          0 0.5 0 0 0 1
          1 1 1 1 1 1
          1 1 1 1 1 1
          1 1 1 1 1 0
          0 0 0.5 0.5 0.5 0.5
          0 0 0 0 0.5 0.5
          1 1 0.5 0.5 1 0.5
          1 0.5 1 1 1 1
          1 1 1 1 1 1
          1 1 1 1 1 1
          1 1 1 1 1 1
          1 1 1 1 1 1
          0 0 0 0 0 0.5
          0.5 1 0.5 1 1 1
          1 0.5 0.5 1 1 0.5
          0.5 1 0.5 1 0.5 1
          1 1 1 1 1 1
          1 1 1 0 0 0
          0 0 0 0 0 0
          0 0 0 0 0 0.5
          1 0.5 1 1 1 0.5
          1 0.5 1 0.5 1 0.5
          1 1 1 1 1 1
          1 0.5 1 0.5 1 1
          1 0.5 1 0.5 1 0.5
          1 0.5 1 1 1 1
          1 1 1 0 0 0
          0 0 0 0 0 0
          0 0 0.5 0.5 1 1
          0.5 0.5 1 0.5 1 0.5
          1 1 1 1 1 1
          1 1 1 1 0.5 1
          0.5 1 0.5 1 0.5 1
          1 1 1 1 1 1
          0.5 0.5 1 1 0.5 0.5
          1 0.5 1 0.5 1 1
          1 1 1 1 1 1
          1 1 1 1 1 1
          1 1 1 1 1 1
          1 1 1 1 1 1