<?xml version="1.0"?>
<VTKFile type="UnstructuredGrid" version="0.1" byte_order="LittleEndian" header_type="UInt32" compressor="vtkZLibDataCompressor">
  <UnstructuredGrid>
    <Piece NumberOfPoints="536" NumberOfCells="286">
      <PointData>
        <DataArray type="Int32" Name="libmesh_node_id" format="ascii" RangeMin="20" RangeMax="5340">
          24 25 26 27 28 29
          30 31 32 33 34 35
          36 37 38 39 40 41
          42 43 44 45 46 47
          84 85 86 87 88 89
          90 91 92 93 94 95
          120 121 122 123 124 125
          126 127 128 129 130 131
          150 151 152 153 154 155
          174 175 176 177 178 179
          180 181 182 183 184 185
          204 205 206 207 208 209
          228 229 230 231 238 239
          258 259 263 282 283 284
          285 312 313 334 336 337
          338 339 366 367 388 389
          390 391 392 393 395 419
          420 421 422 444 652 653
          654 655 656 657 658 659
          660 661 662 663 664 665
          1190 1192 1195 1197 4691 4692
          4695 4696 4698 4699 4700 4701
          4702 4704 4705 4706 4707 4708
          4709 4710 4711 4712 4713 4714
          4715 4716 4717 4718 4719 4720
          4721 4722 4788 4789 4792 4795
          4797 4798 4799 4800 4801 4802
          4803 4804 4805 4806 4807 4808
          4809 4810 4811 4812 4813 4814
          4815 4816 4817 4818 4819 4820
          4821 4822 4823 4824 4825 4826
          4827 4828 4829 4830 4831 4832
          4833 4834 4835 4836 4837 4838
          4839 4840 4841 4842 4843 4844
          4845 4846 4847 4848 4849 4850
          4851 4852 4853 4854 4855 4856
          4857 4858 4859 4860 4861 4862
          4863 4864 4865 4866 4867 4868
          4869 4870 4871 4872 4873 4874
          4875 4876 4877 4878 4879 4880
          4937 4938 4941 4943 4945 4946
          4947 4948 4949 4950 4951 4952
          4953 4954 4955 4956 4957 4958
          4959 4960 5160 5161 5162 5163
          5164 5165 5166 5167 5168 5169
          5170 5171 5172 5173 5184 5185
          5186 5187 5188 5189 5190 5191
          5192 5193 5204 5205 5206 5207
          5208 5209 5210 5211 5212 5213
          5214 5215 5216 5217 5218 5219
          5220 5221 5222 5223 5224 5225
          5226 5227 5228 5229 5230 5231
          5232 5233 5234 5235 5236 5237
          5238 5239 5240 5241 5242 5243
          5244 5245 5246 5247 5248 5249
          5250 5251 5252 5253 5254 5255
          5256 5257 5258 5259 5260 5261
          5262 5263 5264 5265 5266 5267
          5268 5269 5270 5271 5272 5273
          5274 5275 5276 5277 5278 5279
          5280 5281 5282 5283 5284 5285
          5286 5287 5288 5289 5290 5291
          5292 5293 5294 5295 5296 5297
          5298 5299 5300 5301 5302 5303
          5304 5305 5306 5307 5308 5309
          5310 5311 5312 5313 5314 5315
          5316 5317 5318 5319 5320 5321
          5322 5323 5324 5325 5326 5327
          5328 5329 5330 5331 5332 5333
          5334 5335 5336 5337 5338 5339
          5340 20 21 22 23 48
          49 50 51 82 83 96
          97 118 119 132 133 149
          156 172 173 186 187 203
          210 226 227 232 233 234
          235 236 237 240 241 257
          260 261 262 264 280 281
          286 287 311 314 340 341
          335 365 368 434 433 442
          438 437 443 435 1189 1191
          1193 1194 450 1196 1198 4693
          4694 4697 4703 4785 4790 4787
          4791 717 719 718 1200 533
          1202 1207 448 723 447 1210
          712 713 716 394 722 4897
          4898 4784 4900 4935 4936 4939
          4940 4796 4942 4944 5150 5151
          5152 5155 4786 5158 5176 5177
          5179 4793 5182 4794 5196 5197
          5200 5202
        </DataArray>
        <DataArray type="Float64" Name="bounds" format="ascii" RangeMin="0" RangeMax="0">
          0 0 0 0 0 0
          0 0 0 0 0 0
          0 0 0 0 0 0
          0 0 0 0 0 0
          0 0 0 0 0 0
          0 0 0 0 0 0
          0 0 0 0 0 0
          0 0 0 0 0 0
          0 0 0 0 0 0
          0 0 0 0 0 0
          0 0 0 0 0 0
          0 0 0 0 0 0
          0 0 0 0 0 0
          0 0 0 0 0 0
          0 0 0 0 0 0
          0 0 0 0 0 0
          0 0 0 0 0 0
          0 0 0 0 0 0
          0 0 0 0 0 0
          0 0 0 0 0 0
          0 0 0 0 0 0
          0 0 0 0 0 0
          0 0 0 0 0 0
          0 0 0 0 0 0
          0 0 0 0 0 0
          0 0 0 0 0 0
          0 0 0 0 0 0
          0 0 0 0 0 0
          0 0 0 0 0 0
          0 0 0 0 0 0
          0 0 0 0 0 0
          0 0 0 0 0 0
          0 0 0 0 0 0
          0 0 0 0 0 0
          0 0 0 0 0 0
          0 0 0 0 0 0
          0 0 0 0 0 0
          0 0 0 0 0 0
          0 0 0 0 0 0
          0 0 0 0 0 0
          0 0 0 0 0 0
          0 0 0 0 0 0
          0 0 0 0 0 0
          0 0 0 0 0 0
          0 0 0 0 0 0
          0 0 0 0 0 0
          0 0 0 0 0 0
          0 0 0 0 0 0
          0 0 0 0 0 0
          0 0 0 0 0 0
          0 0 0 0 0 0
          0 0 0 0 0 0
          0 0 0 0 0 0
          0 0 0 0 0 0
          0 0 0 0 0 0
          0 0 0 0 0 0
          0 0 0 0 0 0
          0 0 0 0 0 0
          0 0 0 0 0 0
          0 0 0 0 0 0
          0 0 0 0 0 0
          0 0 0 0 0 0
          0 0 0 0 0 0
          0 0 0 0 0 0
          0 0 0 0 0 0
          0 0 0 0 0 0
          0 0 0 0 0 0
          0 0 0 0 0 0
          0 0 0 0 0 0
          0 0 0 0 0 0
          0 0 0 0 0 0
          0 0 0 0 0 0
          0 0 0 0 0 0
          0 0 0 0 0 0
          0 0 0 0 0 0
          0 0 0 0 0 0
          0 0 0 0 0 0
          0 0 0 0 0 0
          0 0 0 0 0 0
          0 0 0 0 0 0
          0 0 0 0 0 0
          0 0 0 0 0 0
          0 0 0 0 0 0
          0 0 0 0 0 0
          0 0 0 0 0 0
          0 0 0 0 0 0
          0 0 0 0 0 0
          0 0 0 0 0 0
          0 0 0 0 0 0
          0 0
        </DataArray>
        <DataArray type="Float64" Name="gradient_error" format="ascii" RangeMin="5.772983417587176e-13" RangeMax="0.0000012573013564938927">
          1.8546629998736507e-10 1.0137397531080249e-10 5.097674747103034e-10 2.751899959175515e-10 2.237516449299811e-10 1.220352007981552e-10
          5.921701050628734e-10 3.202874422015394e-10 1.7170803624842808e-10 9.377674150960029e-11 4.438637631535997e-10 2.408056627060947e-10
          5.973992921597516e-11 3.2787199655080907e-11 1.531951990999581e-10 8.344853588165862e-11 1.801326457695798e-12 1.240059966539111e-12
          6.364526900228784e-12 3.782486648787604e-12 7.340384927097622e-13 6.599940018232604e-13 1.92562980253313e-12 1.370444489876622e-12
          1.7281650634239895e-11 4.0612517124799455e-11 2.0318756666329345e-11 4.8404779340205384e-11 1.584544677077251e-11 3.7747562258589727e-11
          5.834470094186651e-12 1.370187266335915e-11 6.787934753824242e-13 1.2004463973464237e-12 5.859495109367588e-13 8.152591772201136e-13
          2.247001213714978e-9 1.1977020016520177e-9 2.481544428554425e-9 1.3316778047469166e-9 1.8203814962913526e-9 9.814722856274112e-10
          6.365702382848021e-10 3.438641695567241e-10 3.7915586883623115e-11 2.0701216051335945e-11 6.220297142381427e-12 4.0747238248470096e-12
          1.4840278958905747e-10 1.8181118093940767e-10 1.4256307496346986e-10 5.1158100828646224e-11 3.4868452190487702e-12 1.9291505073125933e-12
          9.803841828532989e-9 5.1650019883500975e-9 1.0305885050410439e-8 5.489666670894594e-9 7.414230688604775e-9 3.974034568056532e-9
          2.641269716701724e-9 1.4162306064793127e-9 2.1432008641591365e-10 1.1339249622536748e-10 2.89186040019709e-11 1.778316898919899e-11
          5.261621481672073e-10 6.734482913787469e-10 5.338384475082887e-10 1.9119149625690177e-10 1.2464906034821328e-11 6.647733976427076e-12
          4.263035326759993e-8 2.2209534915361155e-8 4.280520574044937e-8 2.262727655446385e-8 1.607881082963637e-10 9.296074580720887e-11
          1.7887165631223826e-9 2.4493473684783273e-9 2.5133383318054037e-11 5.6410259777320164e-8 2.3877895836607964e-8 1.1132504618820821e-7
          5.708585717776525e-8 5.790201537868756e-9 9.148354861423447e-9 4.364908311084729e-8 4.0836185372450073e-8 9.490890609347937e-8
          2.2980127642569798e-7 9.593293446633218e-8 5.201072457520068e-9 8.484736031813712e-9 4.902693732528393e-7 2.081501935547488e-7
          6.330879309351404e-7 1.5420922816557526e-7 8.400541116682643e-7 9.922116553827605e-8 5.594438143925917e-8 2.6999987217313373e-8
          1.904169842570818e-8 8.818758417300559e-9 2.2397836743090484e-9 4.2106848142128514e-8 4.6965385985525377e-7 3.1192675919725545e-7
          1.8123445845392505e-7 6.310263076488099e-7 7.384191232581577e-7 4.199970666674019e-7 3.909985631646642e-7 8.126161336444064e-8
          6.214390016115225e-8 8.462725768853085e-8 9.925419119337754e-7 8.87531407399084e-7 8.209599008650712e-7 7.470529837052848e-8
          4.591757260470148e-9 5.733276731714358e-9 2.3687002092226667e-9 6.874796202958568e-9 4.353583572985646e-8 2.857297175406086e-8
          3.81236884608512e-8 3.627457791453232e-8 2.9062893256536745e-8 3.675084196155949e-8 3.501965211997461e-8 1.3610107778265256e-8
          3.442546736821344e-8 3.328846227838973e-8 4.0521552380216646e-8 1.2655062226022344e-7 1.429136019290855e-7 1.1047993348800368e-7
          1.4502468233345556e-7 4.241103904678612e-8 2.908050902567027e-8 4.042479745388629e-8 3.620809250437499e-8 2.8936522058583958e-8
          4.4073858450104205e-8 3.770347065717353e-8 1.574997900455442e-8 3.19913875548637e-8 3.133308286424286e-8 4.9768702975772557e-8
          9.785168530806581e-8 1.0386665446143377e-7 4.455753040246164e-7 3.7890042818221405e-7 1.9283992842253286e-7 6.01967481807022e-7
          4.6444452083699125e-7 3.711843993546877e-7 4.82916445116916e-7 3.610220127141019e-7 1.6412268702648148e-7 1.3563252696329966e-7
          5.552521590141902e-7 6.493325243667133e-7 7.015209649812834e-7 1.8166248001478014e-7 5.009217943081871e-7 3.481770827629726e-7
          1.0893663827647891e-7 7.262974160355703e-7 7.587548197768864e-7 1.2637659540297336e-7 5.624065944705691e-9 4.81434264435042e-9
          8.272503666904619e-9 1.3902227925943591e-8 2.924563699787159e-9 3.6428344239895522e-9 5.665225236072491e-9 1.092094138910355e-8
          2.2990113207536763e-8 4.361105148191945e-9 1.527632989473635e-7 1.6645803919142016e-7 2.4407416940601595e-7 2.580569911447812e-7
          3.902292308593005e-8 6.151272325265308e-8 7.453437088721933e-8 3.353850398646683e-7 3.4965594309814224e-7 8.40025234193761e-8
          9.76171819435183e-7 8.541704960603968e-7 5.848456801607291e-7 8.909033336806047e-7 9.433770187664853e-7 9.284433094302701e-7
          8.831476578364505e-7 8.752903387344489e-7 9.998631492974185e-7 9.764361173198813e-7 5.277771625044046e-7 6.907620809739639e-7
          6.730891483226422e-7 7.077993907683162e-7 9.105822180977875e-7 0.0000010027161228001435 9.361598791754965e-7 0.0000010775818959053136
          8.537469994435231e-7 0.0000010390939933741334 8.961589832167808e-7 0.0000010632157084838052 0.0000010289587691035484 5.265000488827753e-7
          7.243460376995679e-7 0.0000010873374235934767 0.0000011617585549903158 9.221920265163605e-7 2.009253160686268e-7 2.1001879533422575e-7
          2.903778810265431e-7 2.9774315219866117e-7 1.906550268764864e-7 2.8142020194633266e-7 7.846547981405499e-8 1.1274120019921347e-7
          1.2469998974433413e-7 1.002507076983772e-7 3.7983044598445934e-7 3.854675090630965e-7 3.72185377016179e-7 1.4701692058437195e-7
          1.791751844579602e-7 2.707066724440862e-7 5.857424420979789e-8 8.742309921232802e-8 3.6223816043021205e-7 1.162719542148581e-7
          1.3041790587259077e-8 5.8371705173186054e-8 1.5123374036358763e-8 1.0370161975911301e-7 7.53942865310376e-9 4.453093830800537e-8
          3.812853065904986e-9 3.188857435242439e-8 2.14901430993842e-9 1.2835132121672833e-8 1.0310705645241955e-8 8.152244796290699e-8
          5.996429563894378e-8 2.3521249933407245e-8 3.2477871484737835e-9 2.1628127937822337e-8 1.7989545107262496e-9 7.882524513187745e-9
          4.00084687271709e-8 1.3966094515649238e-8 5.061868954522204e-8 5.525925724471225e-8 1.4659635197039888e-7 1.3174384369937126e-7
          5.2989433328369654e-8 1.4210194846292734e-7 1.273667632548327e-7 5.989982494420245e-8 1.1689133542834364e-7 1.1263157804673809e-7
          4.360778083665295e-7 4.0272934332503535e-7 4.1011065388275037e-7 3.613521140790189e-7 5.45721387085338e-7 5.74429839061807e-7
          5.731552839699721e-7 6.000726398922738e-7 5.175391785780098e-7 5.330688827743352e-7 4.618611718331929e-7 5.516294216275733e-7
          5.816680652003427e-7 5.799916089937337e-7 2.4987923982193176e-7 3.147221821727864e-7 2.4833230091350077e-7 3.158574857754461e-7
          1.5446389397388945e-7 1.9750429822782906e-7 1.925672018167972e-7 3.795651245236411e-7 3.833826706373915e-7 2.4054470248176864e-7
          4.828924049568776e-8 5.114943081709228e-8 1.370741254520987e-7 1.224930014999902e-7 4.9839153706768724e-8 1.31465643442619e-7
          1.1707928172453237e-7 5.40096211384968e-8 1.0791187754788174e-7 1.0269292000644574e-7 4.5504151294434275e-7 4.1729686211189306e-7
          4.242284791170953e-7 3.6935746025142883e-7 4.9382918187686235e-8 4.919268308462558e-8 1.2522872382549443e-7 1.1108581150774601e-7
          4.9418331795538766e-8 1.1834296774696258e-7 1.0449609395478473e-7 4.9002447981564925e-8 9.694289918999758e-8 9.064922016260686e-8
          4.737467778971921e-7 4.308390645767284e-7 4.3705414578927246e-7 3.7523207352758893e-7 6.027657565334372e-7 6.274779980735933e-7
          6.34770738685761e-7 6.56801834089696e-7 5.490975827096602e-7 5.65615043234575e-7 5.213074975866984e-7 6.141988441062888e-7
          6.494661196874975e-7 6.250660420208103e-7 6.694129460912076e-7 6.882191248954586e-7 7.06956567697669e-7 7.219211090537771e-7
          5.826063056396191e-7 6.000453640625362e-7 5.924068658513338e-7 6.877390605683267e-7 7.293077826430398e-7 6.7480617618707e-7
          2.4621647339546275e-7 3.164537514437211e-7 2.4347161382486506e-7 3.1643237751487636e-7 1.4346498859552581e-7 1.8690257708187157e-7
          1.8046759805423387e-7 3.866910294919794e-7 3.893931412048878e-7 2.3034016556821734e-7 2.400361961318024e-7 3.1570788249085893e-7
          2.358422917191644e-7 3.1418261063223187e-7 1.3023887419336732e-7 1.7322845740218902e-7 1.651601435492766e-7 3.913795688499155e-7
          3.925229295452994e-7 2.162180406110107e-7 5.547709861508401e-8 5.0770340317424e-8 1.1081270207008031e-7 9.732197008751698e-8
          5.358184593187773e-8 1.0273126497473257e-7 8.963915600841117e-8 4.606358201976399e-8 8.383123810495365e-8 7.654704704208976e-8
          4.919495984997715e-7 4.428167725864663e-7 4.48105426730417e-7 3.7806841007217435e-7 6.888979704723266e-8 5.823462457018387e-8
          9.440828859292374e-8 8.167564738110475e-8 6.10612420341376e-8 9.02397986454054e-8 7.766370476075795e-8 4.757945209313509e-8
          6.894300616928573e-8 6.508761087611051e-8 5.101183571011185e-7 4.5304319499612465e-7 3.7682631546251053e-7 7.47679623897967e-7
          7.581174722507858e-7 7.918886623965189e-7 7.97043388145722e-7 6.179014287807523e-7 6.361295427004433e-7 6.776083563214675e-7
          7.74474999186249e-7 8.235723889155546e-7 7.294996895483146e-7 8.400004471241057e-7 8.39004001483901e-7 6.546762258120485e-7
          7.796909601845894e-7 8.770382831675782e-7 7.892662585530492e-7 2.308206173068335e-7 3.11749928702568e-7 2.248941040708922e-7
          3.082882084418182e-7 1.1480389774346646e-7 1.5625232044723656e-7 1.4651544537767448e-7 3.9267924009830266e-7 3.916823128127441e-7
          1.9770074315100668e-7 2.1798388052062106e-7 3.0366437010958815e-7 9.742488043597199e-8 1.359838444387755e-7 3.893448596985554e-7
          1.7454280844157902e-7 1.1700985071855057e-10 6.465762968372208e-11 3.481074421690503e-10 1.879349655623136e-10 5.859419600612348e-13
          5.816201509099762e-13 1.2265979751822268e-12 9.571816503841516e-13 1.2305408648893573e-11 2.7762488955576874e-11 5.772983417587176e-13
          6.877653255860766e-13 1.6903703517719517e-9 8.918732550489758e-10 2.933861875773343e-12 2.1055360249542547e-12 9.337615832599997e-11
          1.2772101741351674e-12 8.028460520637138e-9 4.159315414832446e-9 7.2259484651773226e-12 5.451444950598944e-12 2.901703090277528e-10
          3.676941436020567e-12 3.750878762850519e-8 1.921096271148137e-8 3.022288469680995e-8 1.6098816927610197e-8 1.0969052086255485e-8
          5.837950455448715e-9 1.1411567167275776e-9 5.936689606514538e-10 1.861556243563057e-11 1.5672795757892504e-11 9.131377944575472e-10
          1.974749158410443e-9 7.068488246419457e-10 4.618120457532992e-11 1.2730029080154435e-11 5.235336151679527e-8 2.01756667425177e-8
          9.548160573224995e-8 5.019552276939942e-8 3.0507028089271618e-9 7.70942067416356e-9 2.4201736189861154e-7 6.625608144016015e-8
          1.2602877504602023e-7 3.979349377504573e-9 7.404580099239282e-9 1.5476786745488424e-7 5.828000272153808e-8 2.4353511754771734e-8
          3.695543750734347e-7 2.959338235120874e-7 2.509278032244966e-8 7.007724387786493e-7 2.3597487389172462e-9 5.371323030737637e-9
          1.3630615606401627e-9 2.0077818285502385e-9 4.014711215012385e-8 8.382897322558028e-9 2.6525020964603146e-9 2.789180230724304e-8
          4.057410790294887e-8 3.791781424818007e-8 3.526152059341127e-8 1.577488771907699e-7 1.8718223372125362e-7 3.844812458020011e-7
          2.2093521919609515e-7 5.147317886001439e-7 7.400074830974691e-7 7.519999704561939e-7 1.3842766175322134e-7 5.890127711951025e-7
          2.2983535242223184e-7 4.7931076453949804e-8 9.575209679867757e-7 9.89268152312244e-7 6.930969700754598e-7 3.2124304309124235e-7
          9.153094888867358e-7 0.0000011341754905880333 0.0000010863054226903141 0.0000011984937090636084 0.0000012573013564938927 4.141631840490108e-8
          3.8605067901323754e-8 4.7044435877386383e-8 3.579381739774643e-8 1.9579636050310753e-8 7.264122601158645e-8 4.476066735211855e-9
          1.684005583761075e-8 2.3327707760590196e-7 1.2570281597286214e-7 2.9204044940009642e-8 5.810180972354145e-8 1.5068816058773338e-7
          1.3572181912872914e-7 1.207554776697249e-7 4.2652257877663076e-7 3.9515687452685067e-7 5.202898250608281e-7 5.504170904253028e-7
          5.025077158316882e-7 4.3583057462529796e-7 5.23862260330821e-7 5.590928610054135e-7 2.509070966524117e-7 3.1311463437134894e-7
          2.017581928690988e-7 3.753221720902861e-7
        </DataArray>
        <DataArray type="Float64" Name="gradient_matprop_error" format="ascii" RangeMin="0" RangeMax="0">
          0 0 0 0 0 0
          0 0 0 0 0 0
          0 0 0 0 0 0
          0 0 0 0 0 0
          0 0 0 0 0 0
          0 0 0 0 0 0
          0 0 0 0 0 0
          0 0 0 0 0 0
          0 0 0 0 0 0
          0 0 0 0 0 0
          0 0 0 0 0 0
          0 0 0 0 0 0
          0 0 0 0 0 0
          0 0 0 0 0 0
          0 0 0 0 0 0
          0 0 0 0 0 0
          0 0 0 0 0 0
          0 0 0 0 0 0
          0 0 0 0 0 0
          0 0 0 0 0 0
          0 0 0 0 0 0
          0 0 0 0 0 0
          0 0 0 0 0 0
          0 0 0 0 0 0
          0 0 0 0 0 0
          0 0 0 0 0 0
          0 0 0 0 0 0
          0 0 0 0 0 0
          0 0 0 0 0 0
          0 0 0 0 0 0
          0 0 0 0 0 0
          0 0 0 0 0 0
          0 0 0 0 0 0
          0 0 0 0 0 0
          0 0 0 0 0 0
          0 0 0 0 0 0
          0 0 0 0 0 0
          0 0 0 0 0 0
          0 0 0 0 0 0
          0 0 0 0 0 0
          0 0 0 0 0 0
          0 0 0 0 0 0
          0 0 0 0 0 0
          0 0 0 0 0 0
          0 0 0 0 0 0
          0 0 0 0 0 0
          0 0 0 0 0 0
          0 0 0 0 0 0
          0 0 0 0 0 0
          0 0 0 0 0 0
          0 0 0 0 0 0
          0 0 0 0 0 0
          0 0 0 0 0 0
          0 0 0 0 0 0
          0 0 0 0 0 0
          0 0 0 0 0 0
          0 0 0 0 0 0
          0 0 0 0 0 0
          0 0 0 0 0 0
          0 0 0 0 0 0
          0 0 0 0 0 0
          0 0 0 0 0 0
          0 0 0 0 0 0
          0 0 0 0 0 0
          0 0 0 0 0 0
          0 0 0 0 0 0
          0 0 0 0 0 0
          0 0 0 0 0 0
          0 0 0 0 0 0
          0 0 0 0 0 0
          0 0 0 0 0 0
          0 0 0 0 0 0
          0 0 0 0 0 0
          0 0 0 0 0 0
          0 0 0 0 0 0
          0 0 0 0 0 0
          0 0 0 0 0 0
          0 0 0 0 0 0
          0 0 0 0 0 0
          0 0 0 0 0 0
          0 0 0 0 0 0
          0 0 0 0 0 0
          0 0 0 0 0 0
          0 0 0 0 0 0
          0 0 0 0 0 0
          0 0 0 0 0 0
          0 0 0 0 0 0
          0 0 0 0 0 0
          0 0 0 0 0 0
          0 0
        </DataArray>
        <DataArray type="Float64" Name="initial_marker" format="ascii" RangeMin="0" RangeMax="0">
          0 0 0 0 0 0
          0 0 0 0 0 0
          0 0 0 0 0 0
          0 0 0 0 0 0
          0 0 0 0 0 0
          0 0 0 0 0 0
          0 0 0 0 0 0
          0 0 0 0 0 0
          0 0 0 0 0 0
          0 0 0 0 0 0
          0 0 0 0 0 0
          0 0 0 0 0 0
          0 0 0 0 0 0
          0 0 0 0 0 0
          0 0 0 0 0 0
          0 0 0 0 0 0
          0 0 0 0 0 0
          0 0 0 0 0 0
          0 0 0 0 0 0
          0 0 0 0 0 0
          0 0 0 0 0 0
          0 0 0 0 0 0
          0 0 0 0 0 0
          0 0 0 0 0 0
          0 0 0 0 0 0
          0 0 0 0 0 0
          0 0 0 0 0 0
          0 0 0 0 0 0
          0 0 0 0 0 0
          0 0 0 0 0 0
          0 0 0 0 0 0
          0 0 0 0 0 0
          0 0 0 0 0 0
          0 0 0 0 0 0
          0 0 0 0 0 0
          0 0 0 0 0 0
          0 0 0 0 0 0
          0 0 0 0 0 0
          0 0 0 0 0 0
          0 0 0 0 0 0
          0 0 0 0 0 0
          0 0 0 0 0 0
          0 0 0 0 0 0
          0 0 0 0 0 0
          0 0 0 0 0 0
          0 0 0 0 0 0
          0 0 0 0 0 0
          0 0 0 0 0 0
          0 0 0 0 0 0
          0 0 0 0 0 0
          0 0 0 0 0 0
          0 0 0 0 0 0
          0 0 0 0 0 0
          0 0 0 0 0 0
          0 0 0 0 0 0
          0 0 0 0 0 0
          0 0 0 0 0 0
          0 0 0 0 0 0
          0 0 0 0 0 0
          0 0 0 0 0 0
          0 0 0 0 0 0
          0 0 0 0 0 0
          0 0 0 0 0 0
          0 0 0 0 0 0
          0 0 0 0 0 0
          0 0 0 0 0 0
          0 0 0 0 0 0
          0 0 0 0 0 0
          0 0 0 0 0 0
          0 0 0 0 0 0
          0 0 0 0 0 0
          0 0 0 0 0 0
          0 0 0 0 0 0
          0 0 0 0 0 0
          0 0 0 0 0 0
          0 0 0 0 0 0
          0 0 0 0 0 0
          0 0 0 0 0 0
          0 0 0 0 0 0
          0 0 0 0 0 0
          0 0 0 0 0 0
          0 0 0 0 0 0
          0 0 0 0 0 0
          0 0 0 0 0 0
          0 0 0 0 0 0
          0 0 0 0 0 0
          0 0 0 0 0 0
          0 0 0 0 0 0
          0 0 0 0 0 0
          0 0
        </DataArray>
        <DataArray type="Float64" Name="markers_norefine" format="ascii" RangeMin="0" RangeMax="0">
          0 0 0 0 0 0
          0 0 0 0 0 0
          0 0 0 0 0 0
          0 0 0 0 0 0
          0 0 0 0 0 0
          0 0 0 0 0 0
          0 0 0 0 0 0
          0 0 0 0 0 0
          0 0 0 0 0 0
          0 0 0 0 0 0
          0 0 0 0 0 0
          0 0 0 0 0 0
          0 0 0 0 0 0
          0 0 0 0 0 0
          0 0 0 0 0 0
          0 0 0 0 0 0
          0 0 0 0 0 0
          0 0 0 0 0 0
          0 0 0 0 0 0
          0 0 0 0 0 0
          0 0 0 0 0 0
          0 0 0 0 0 0
          0 0 0 0 0 0
          0 0 0 0 0 0
          0 0 0 0 0 0
          0 0 0 0 0 0
          0 0 0 0 0 0
          0 0 0 0 0 0
          0 0 0 0 0 0
          0 0 0 0 0 0
          0 0 0 0 0 0
          0 0 0 0 0 0
          0 0 0 0 0 0
          0 0 0 0 0 0
          0 0 0 0 0 0
          0 0 0 0 0 0
          0 0 0 0 0 0
          0 0 0 0 0 0
          0 0 0 0 0 0
          0 0 0 0 0 0
          0 0 0 0 0 0
          0 0 0 0 0 0
          0 0 0 0 0 0
          0 0 0 0 0 0
          0 0 0 0 0 0
          0 0 0 0 0 0
          0 0 0 0 0 0
          0 0 0 0 0 0
          0 0 0 0 0 0
          0 0 0 0 0 0
          0 0 0 0 0 0
          0 0 0 0 0 0
          0 0 0 0 0 0
          0 0 0 0 0 0
          0 0 0 0 0 0
          0 0 0 0 0 0
          0 0 0 0 0 0
          0 0 0 0 0 0
          0 0 0 0 0 0
          0 0 0 0 0 0
          0 0 0 0 0 0
          0 0 0 0 0 0
          0 0 0 0 0 0
          0 0 0 0 0 0
          0 0 0 0 0 0
          0 0 0 0 0 0
          0 0 0 0 0 0
          0 0 0 0 0 0
          0 0 0 0 0 0
          0 0 0 0 0 0
          0 0 0 0 0 0
          0 0 0 0 0 0
          0 0 0 0 0 0
          0 0 0 0 0 0
          0 0 0 0 0 0
          0 0 0 0 0 0
          0 0 0 0 0 0
          0 0 0 0 0 0
          0 0 0 0 0 0
          0 0 0 0 0 0
          0 0 0 0 0 0
          0 0 0 0 0 0
          0 0 0 0 0 0
          0 0 0 0 0 0
          0 0 0 0 0 0
          0 0 0 0 0 0
          0 0 0 0 0 0
          0 0 0 0 0 0
          0 0 0 0 0 0
          0 0
        </DataArray>
        <DataArray type="Float64" Name="markers_mustrefine" format="ascii" RangeMin="0" RangeMax="0">
          0 0 0 0 0 0
          0 0 0 0 0 0
          0 0 0 0 0 0
          0 0 0 0 0 0
          0 0 0 0 0 0
          0 0 0 0 0 0
          0 0 0 0 0 0
          0 0 0 0 0 0
          0 0 0 0 0 0
          0 0 0 0 0 0
          0 0 0 0 0 0
          0 0 0 0 0 0
          0 0 0 0 0 0
          0 0 0 0 0 0
          0 0 0 0 0 0
          0 0 0 0 0 0
          0 0 0 0 0 0
          0 0 0 0 0 0
          0 0 0 0 0 0
          0 0 0 0 0 0
          0 0 0 0 0 0
          0 0 0 0 0 0
          0 0 0 0 0 0
          0 0 0 0 0 0
          0 0 0 0 0 0
          0 0 0 0 0 0
          0 0 0 0 0 0
          0 0 0 0 0 0
          0 0 0 0 0 0
          0 0 0 0 0 0
          0 0 0 0 0 0
          0 0 0 0 0 0
          0 0 0 0 0 0
          0 0 0 0 0 0
          0 0 0 0 0 0
          0 0 0 0 0 0
          0 0 0 0 0 0
          0 0 0 0 0 0
          0 0 0 0 0 0
          0 0 0 0 0 0
          0 0 0 0 0 0
          0 0 0 0 0 0
          0 0 0 0 0 0
          0 0 0 0 0 0
          0 0 0 0 0 0
          0 0 0 0 0 0
          0 0 0 0 0 0
          0 0 0 0 0 0
          0 0 0 0 0 0
          0 0 0 0 0 0
          0 0 0 0 0 0
          0 0 0 0 0 0
          0 0 0 0 0 0
          0 0 0 0 0 0
          0 0 0 0 0 0
          0 0 0 0 0 0
          0 0 0 0 0 0
          0 0 0 0 0 0
          0 0 0 0 0 0
          0 0 0 0 0 0
          0 0 0 0 0 0
          0 0 0 0 0 0
          0 0 0 0 0 0
          0 0 0 0 0 0
          0 0 0 0 0 0
          0 0 0 0 0 0
          0 0 0 0 0 0
          0 0 0 0 0 0
          0 0 0 0 0 0
          0 0 0 0 0 0
          0 0 0 0 0 0
          0 0 0 0 0 0
          0 0 0 0 0 0
          0 0 0 0 0 0
          0 0 0 0 0 0
          0 0 0 0 0 0
          0 0 0 0 0 0
          0 0 0 0 0 0
          0 0 0 0 0 0
          0 0 0 0 0 0
          0 0 0 0 0 0
          0 0 0 0 0 0
          0 0 0 0 0 0
          0 0 0 0 0 0
          0 0 0 0 0 0
          0 0 0 0 0 0
          0 0 0 0 0 0
          0 0 0 0 0 0
          0 0 0 0 0 0
          0 0
        </DataArray>
        <DataArray type="Float64" Name="gradient_marker" format="ascii" RangeMin="1" RangeMax="1">
          1 1 1 1 1 1
          1 1 1 1 1 1
          1 1 1 1 1 1
          1 1 1 1 1 1
          1 1 1 1 1 1
          1 1 1 1 1 1
          1 1 1 1 1 1
          1 1 1 1 1 1
          1 1 1 1 1 1
          1 1 1 1 1 1
          1 1 1 1 1 1
          1 1 1 1 1 1
          1 1 1 1 1 1
          1 1 1 1 1 1
          1 1 1 1 1 1
          1 1 1 1 1 1
          1 1 1 1 1 1
          1 1 1 1 1 1
          1 1 1 1 1 1
          1 1 1 1 1 1
          1 1 1 1 1 1
          1 1 1 1 1 1
          1 1 1 1 1 1
          1 1 1 1 1 1
          1 1 1 1 1 1
          1 1 1 1 1 1
          1 1 1 1 1 1
          1 1 1 1 1 1
          1 1 1 1 1 1
          1 1 1 1 1 1
          1 1 1 1 1 1
          1 1 1 1 1 1
          1 1 1 1 1 1
          1 1 1 1 1 1
          1 1 1 1 1 1
          1 1 1 1 1 1
          1 1 1 1 1 1
          1 1 1 1 1 1
          1 1 1 1 1 1
          1 1 1 1 1 1
          1 1 1 1 1 1
          1 1 1 1 1 1
          1 1 1 1 1 1
          1 1 1 1 1 1
          1 1 1 1 1 1
          1 1 1 1 1 1
          1 1 1 1 1 1
          1 1 1 1 1 1
          1 1 1 1 1 1
          1 1 1 1 1 1
          1 1 1 1 1 1
          1 1 1 1 1 1
          1 1 1 1 1 1
          1 1 1 1 1 1
          1 1 1 1 1 1
          1 1 1 1 1 1
          1 1 1 1 1 1
          1 1 1 1 1 1
          1 1 1 1 1 1
          1 1 1 1 1 1
          1 1 1 1 1 1
          1 1 1 1 1 1
          1 1 1 1 1 1
          1 1 1 1 1 1
          1 1 1 1 1 1
          1 1 1 1 1 1
          1 1 1 1 1 1
          1 1 1 1 1 1
          1 1 1 1 1 1
          1 1 1 1 1 1
          1 1 1 1 1 1
          1 1 1 1 1 1
          1 1 1 1 1 1
          1 1 1 1 1 1
          1 1 1 1 1 1
          1 1 1 1 1 1
          1 1 1 1 1 1
          1 1 1 1 1 1
          1 1 1 1 1 1
          1 1 1 1 1 1
          1 1 1 1 1 1
          1 1 1 1 1 1
          1 1 1 1 1 1
          1 1 1 1 1 1
          1 1 1 1 1 1
          1 1 1 1 1 1
          1 1 1 1 1 1
          1 1 1 1 1 1
          1 1 1 1 1 1
          1 1
        </DataArray>
        <DataArray type="Float64" Name="gradient_matprop_marker" format="ascii" RangeMin="0" RangeMax="0">
          0 0 0 0 0 0
          0 0 0 0 0 0
          0 0 0 0 0 0
          0 0 0 0 0 0
          0 0 0 0 0 0
          0 0 0 0 0 0
          0 0 0 0 0 0
          0 0 0 0 0 0
          0 0 0 0 0 0
          0 0 0 0 0 0
          0 0 0 0 0 0
          0 0 0 0 0 0
          0 0 0 0 0 0
          0 0 0 0 0 0
          0 0 0 0 0 0
          0 0 0 0 0 0
          0 0 0 0 0 0
          0 0 0 0 0 0
          0 0 0 0 0 0
          0 0 0 0 0 0
          0 0 0 0 0 0
          0 0 0 0 0 0
          0 0 0 0 0 0
          0 0 0 0 0 0
          0 0 0 0 0 0
          0 0 0 0 0 0
          0 0 0 0 0 0
          0 0 0 0 0 0
          0 0 0 0 0 0
          0 0 0 0 0 0
          0 0 0 0 0 0
          0 0 0 0 0 0
          0 0 0 0 0 0
          0 0 0 0 0 0
          0 0 0 0 0 0
          0 0 0 0 0 0
          0 0 0 0 0 0
          0 0 0 0 0 0
          0 0 0 0 0 0
          0 0 0 0 0 0
          0 0 0 0 0 0
          0 0 0 0 0 0
          0 0 0 0 0 0
          0 0 0 0 0 0
          0 0 0 0 0 0
          0 0 0 0 0 0
          0 0 0 0 0 0