<?xml version="1.0"?>
<VTKFile type="UnstructuredGrid" version="0.1" byte_order="LittleEndian" header_type="UInt32" compressor="vtkZLibDataCompressor">
  <UnstructuredGrid>
    <Piece NumberOfPoints="1741" NumberOfCells="1064">
      <PointData>
        <DataArray type="Int32" Name="libmesh_node_id" format="ascii" RangeMin="748" RangeMax="16913">
          748 749 750 751 752 753
          754 755 756 757 794 795
          796 797 798 824 825 826
          827 828 866 867 868 869
          870 871 872 873 874 875
          876 877 878 879 880 881
          913 914 915 916 917 918
          919 920 943 944 945 946
          947 948 949 950 986 987
          988 989 990 991 992 993
          994 995 996 997 998 999
          1000 1001 1002 1003 1033 1034
          1035 1036 1037 1038 1039 1040
          1041 1063 1064 1065 1066 1067
          1068 1069 1070 1071 1106 1107
          1108 1109 1110 1111 1112 1113
          1114 1115 1116 1117 1118 1119
          1120 1121 1122 1123 1124 1125
          1126 1127 1128 1129 1130 1131
          1132 1133 1134 1135 1136 1137
          1138 1139 1153 1154 1155 1156
          1157 1158 1159 1160 1161 1162
          1163 1164 1165 1166 1167 1168
          1169 1183 1184 1185 1186 1187
          1188 1189 1190 1191 1192 1193
          1194 1195 1196 1197 1198 1199
          1226 1227 1228 1229 1230 1231
          1232 1233 1234 1235 1236 1237
          1238 1239 1240 1241 1242 1243
          1244 1245 1246 1247 1248 1249
          1250 1251 1252 1253 1254 1255
          1256 1257 1258 1259 1273 1274
          1275 1276 1277 1278 1279 1280
          1281 1282 1283 1284 1285 1286
          1287 1288 1289 1303 1304 1305
          1306 1307 1308 1309 1310 1311
          1312 1313 1314 1315 1316 1317
          1318 1319 1346 1347 1348 1349
          1350 1351 1352 1353 1354 1355
          1356 1357 1358 1359 1360 1361
          1362 1363 1364 1365 1366 1367
          1368 1369 1370 1371 1372 1373
          1374 1375 1376 1377 1378 1379
          1393 1394 1395 1396 1397 1398
          1399 1400 1401 1402 1403 1404
          1405 1406 1407 1408 1409 1423
          1424 1425 1426 1427 1428 1429
          1430 1431 1432 1433 1434 1435
          1436 1437 1438 1439 1466 1467
          1468 1469 1470 1471 1472 1473
          1474 1475 1476 1477 1478 1479
          1480 1481 1482 1483 1484 1485
          1486 1487 1488 1489 1490 1491
          1492 1493 1494 1495 1496 1497
          1498 1499 1513 1514 1515 1516
          1517 1518 1519 1520 1521 1522
          1523 1524 1525 1526 1527 1528
          1529 1543 1544 1545 1546 1547
          1548 1549 1550 1551 1552 1553
          1554 1555 1556 1557 1558 1559
          1586 1587 1588 1589 1590 1591
          1592 1593 1594 1595 1596 1597
          1598 1599 1600 1601 1602 1603
          1604 1605 1606 1607 1608 1609
          1610 1611 1612 1613 1614 1615
          1616 1617 1618 1619 1633 1634
          1635 1636 1637 1638 1639 1640
          1641 1642 1643 1644 1645 1646
          1647 1648 1649 1663 1664 1665
          1666 1667 1668 1669 1670 1671
          1672 1673 1674 1675 1676 1677
          1678 1679 1706 1707 1708 1709
          1710 1711 1712 1713 1714 1715
          1716 1717 1718 1719 1720 1721
          1722 1723 1724 1725 1726 1727
          1728 1729 1730 1731 1732 1733
          1734 1735 1736 1737 1738 1739
          1753 1754 1755 1756 1757 1758
          1759 1760 1761 1762 1763 1764
          1765 1766 1767 1768 1769 1783
          1784 1785 1786 1787 1788 1789
          1790 1791 1792 1793 1794 1795
          1796 1797 1798 1799 1830 1831
          1832 1833 1834 1835 1836 1837
          1838 1839 1840 1841 1842 1843
          1844 1845 1846 1847 1848 1849
          1850 1851 1852 1853 1854 1855
          1856 1857 1858 1859 1875 1876
          1877 1878 1879 1880 1881 1882
          1883 1884 1885 1886 1887 1888
          1889 1905 1906 1907 1908 1909
          1910 1911 1912 1913 1914 1915
          1916 1917 1918 1919 1950 1951
          1952 1953 1954 1955 1956 1957
          1958 1959 1960 1961 1966 1967
          1968 1969 1970 1971 1972 1973
          1974 1975 1976 1977 1978 1979
          1995 1996 1997 1998 1999 2000
          2001 2002 2003 2004 2005 2006
          2007 2008 2009 2025 2026 2027
          2028 2029 2030 2031 2032 2033
          2034 2035 2036 2037 2038 2039
          2070 2071 2072 2073 2074 2075
          2076 2077 2078 2079 2081 2086
          2087 2088 2089 2090 2091 2092
          2093 2094 2095 2096 2097 2098
          2099 2115 2116 2117 2118 2119
          2120 2123 2124 2125 2126 2127
          2128 2129 2145 2146 2147 2148
          2149 2150 2151 2152 2153 2154
          2155 2156 2157 2158 2159 2190
          2191 2192 2193 2194 2195 2196
          2197 2198 2199 2206 2207 2208
          2209 2210 2211 2212 2213 2214
          2215 2216 2217 2218 2219 2235
          2236 2237 2238 2239 2243 2244
          2245 2246 2247 2248 2249 2265
          2266 2267 2268 2269 2273 2274
          2275 2276 2277 2278 2279 2310
          2311 2312 2313 2314 2315 2316
          2317 2319 2327 2328 2329 2330
          2331 2332 2333 2334 2335 2336
          2337 2338 2339 2355 2356 2357
          2358 2359 2363 2364 2365 2366
          2367 2368 2369 2385 2386 2387
          2388 2389 2393 2394 2395 2396
          2397 2398 2399 2400 2401 2402
          2403 2404 2405 2406 2407 2408
          2409 2410 2411 2412 2413 2414
          2415 2416 2417 2418 2419 2420
          2421 2422 2423 2425 2426 2427
          2428 2429 2430 2432 2475 2476
          2477 2478 2479 2480 2481 2482
          2483 2484 2485 2486 2487 2488
          2496 2497 2498 2502 2503 2504
          2505 2506 2507 2508 2509 2510
          2511 2512 2513 2514 2515 2516
          2547 2548 2549 2550 2551 2552
          2553 2554 2555 2556 2557 2558
          2559 2560 2561 2562 2563 2564
          2565 2566 2567 2568 2569 2570
          2571 2572 2573 2574 2575 2576
          2577 2578 2579 2580 2581 2582
          2583 2584 2585 2586 2587 2588
          2589 2590 2591 2592 2593 2594
          2595 2596 2597 2601 2602 2605
          2607 2608 2609 2610 2611 2612
          2613 2614 2615 2616 2617 2618
          2619 2620 2621 2622 2623 2624
          2625 2626 2627 2628 2629 2631
          2766 2767 2768 2769 2770 2771
          2772 2773 2774 2775 2776 2777
          2778 2779 2810 2811 2812 2813
          2814 2815 2816 2817 2818 2819
          2820 2821 2822 2823 2824 2825
          2826 2827 2828 2829 2830 2831
          2832 2833 2834 2835 2836 2837
          2838 2839 2840 2841 2842 2843
          2844 2845 2846 2847 2848 2849
          2850 2851 2852 2853 2854 2855
          2856 2857 2858 2859 2860 2861
          2862 2863 2924 2925 2926 2927
          2928 2929 2930 2931 2932 2933
          2934 2935 2936 2937 2952 2953
          2954 2955 2956 2957 2958 2959
          2960 2961 2962 2963 2964 2965
          2966 2967 2968 2969 2970 2971
          2972 2973 2974 2975 2976 2977
          2978 2979 2980 2981 2982 2983
          2984 2985 2986 2987 2988 2989
          2990 2991 2992 2993 2994 2995
          2996 2997 2998 2999 3000 3001
          3002 3003 3004 3005 3006 3007
          3008 3009 3010 3011 3012 3013
          3014 3015 3016 3017 3018 3019
          3020 3021 3022 3023 3024 3025
          3026 3027 3028 3029 3030 3031
          3032 3033 3034 3035 3036 3037
          3038 3039 3040 3041 3042 3043
          3044 3045 3046 3047 3048 3049
          3050 3051 3052 3053 3054 3055
          3056 3057 3058 3059 3060 3061
          3062 3063 3064 3065 3066 3067
          3068 3069 3070 3071 3072 3073
          3074 3075 3076 3077 3078 3079
          3080 3081 3082 3083 3084 3085
          3086 3087 3088 3089 3090 3091
          3092 3093 3094 3095 3096 3097
          3098 3099 3100 3101 3102 3103
          3104 3105 3106 3107 3108 3109
          3110 3111 3112 3113 3114 3115
          3116 3117 3118 3119 3120 3121
          3122 3123 3124 3125 3126 3127
          3128 3129 3130 3131 3132 3147
          3148 3149 3150 3151 3152 3153
          3154 3155 3156 3157 3158 3159
          3170 3171 3173 3174 3175 3177
          3179 3190 3191 3192 3193 3194
          3195 3196 3204 3205 3206 3207
          3208 3209 3210 3211 3212 3213
          3214 3215 3216 3217 3218 3219
          3220 3221 3222 3223 3224 3225
          3226 3227 3763 3764 3765 3766
          3767 3768 3769 3770 3771 3772
          3773 3774 3775 3776 3777 3778
          3779 3780 3781 3782 3783 3784
          3785 3786 3787 3788 3789 3790
          3791 3792 3793 3794 3795 3796
          3797 3798 3799 3800 3801 3802
          3882 3883 3884 3885 3886 3887
          3888 3889 3890 3891 3892 3893
          3894 3895 3896 3897 3898 3899
          3900 3901 3902 3903 3904 3905
          3906 3907 3908 3909 3910 3911
          3912 3913 3914 3915 3916 3917
          3918 3919 3920 3921 3922 3923
          3924 3925 3926 3927 3928 3929
          3930 3931 3932 3933 3934 3935
          3936 3937 3938 3939 3940 3941
          3942 3943 3944 3945 3946 3947
          3948 3949 3950 3951 3952 3953
          3954 3955 3956 3957 3958 3959
          4056 4057 4058 4059 4060 4061
          4062 4063 4064 4065 4066 4067
          4068 4069 4070 4071 4072 4073
          4074 4075 4086 4087 4088 4089
          4090 4091 4092 4093 4094 4095
          4096 4097 4098 4099 6098 6099
          6100 6101 6102 6103 6104 6105
          6106 6107 6108 6109 6110 6111
          6112 6113 6114 6125 6126 6127
          6128 6129 6130 6131 6132 6133
          6134 6135 6136 6137 6138 6155
          6156 6157 6158 6159 6160 6161
          6162 6163 6164 6165 6166 6167
          6168 6169 6170 6171 6206 6207
          6208 6209 6210 6211 6212 6213
          6214 6215 16207 16208 16209 16210
          16211 16212 16213 16214 16215 16216
          16381 16382 16383 16386 16389 16391
          16392 16393 16394 16395 16396 16397
          16398 16399 16534 16535 16536 16537
          16538 16539 16540 16541 16542 16543
          16544 16545 16546 16547 16548 16549
          16550 16551 16552 16553 16554 16555
          16556 16557 16558 16559 16560 16561
          16562 16563 16564 16565 16566 16567
          16568 16569 16570 16571 16572 16573
          16574 16575 16576 16577 16578 16579
          16580 16581 16582 16583 16584 16585
          16586 16587 16588 16589 16590 16591
          16592 16593 16594 16595 16596 16597
          16612 16613 16616 16617 16618 16619
          16621 16622 16623 16624 16625 16626
          16627 16640 16641 16642 16643 16644
          16646 16647 16648 16649 16650 16651
          16652 16653 16805 16806 16807 16808
          16809 16810 16811 16812 16813 16814
          16815 16816 16817 16818 16829 16830
          16831 16832 16833 16834 16835 16836
          16837 16838 16849 16850 16851 16852
          16853 16854 16855 16856 16857 16858
          16859 16860 16861 16862 16863 16864
          16865 16866 16867 16868 16869 16870
          16871 16872 16873 16874 16875 16876
          16877 16878 16879 16880 16881 16882
          16883 16884 16885 16886 16887 16888
          16889 16890 16891 16892 16893 16894
          16895 16896 16897 16898 16899 16900
          16901 16902 16903 16904 16905 16906
          16907 16908 16909 16910 16911 16912
          16913 864 865 984 985 912
          1032 942 1062 1104 1105 1152
          1182 1224 1225 1272 1302 1344
          1345 1392 1422 1464 1465 1512
          1542 1584 1585 1632 1662 1704
          1705 1752 1782 1824 1826 1827
          1825 1828 1829 1873 1872 1874
          1903 1902 1904 1948 1949 1962
          1963 1964 1965 1994 2024 2068
          2069 2084 2085 2114 2083 2121
          2122 2144 2189 2234 2205 2242
          2264 2241 2272 2271 2354 2384
          2362 2392 2539 2470 2540 2543
          2545 16378 16384 16380 16385 16605
          16606 16614 16615 16607 16620 16611
          16377 16638 16639 16630 16631 16634
          16390 16645 16636 16795 16796 16797
          16800 16379 16803 16821 16822 16824
          16387 16827 16388 16841 16842 16845
          16847
        </DataArray>
        <DataArray type="Float64" Name="bounds" format="ascii" RangeMin="0" RangeMax="0">
          0 0 0 0 0 0
          0 0 0 0 0 0
          0 0 0 0 0 0
          0 0 0 0 0 0
          0 0 0 0 0 0
          0 0 0 0 0 0
          0 0 0 0 0 0
          0 0 0 0 0 0
          0 0 0 0 0 0
          0 0 0 0 0 0
          0 0 0 0 0 0
          0 0 0 0 0 0
          0 0 0 0 0 0
          0 0 0 0 0 0
          0 0 0 0 0 0
          0 0 0 0 0 0
          0 0 0 0 0 0
          0 0 0 0 0 0
          0 0 0 0 0 0
          0 0 0 0 0 0
          0 0 0 0 0 0
          0 0 0 0 0 0
          0 0 0 0 0 0
          0 0 0 0 0 0
          0 0 0 0 0 0
          0 0 0 0 0 0
          0 0 0 0 0 0
          0 0 0 0 0 0
          0 0 0 0 0 0
          0 0 0 0 0 0
          0 0 0 0 0 0
          0 0 0 0 0 0
          0 0 0 0 0 0
          0 0 0 0 0 0
          0 0 0 0 0 0
          0 0 0 0 0 0
          0 0 0 0 0 0
          0 0 0 0 0 0
          0 0 0 0 0 0
          0 0 0 0 0 0
          0 0 0 0 0 0
          0 0 0 0 0 0
          0 0 0 0 0 0
          0 0 0 0 0 0
          0 0 0 0 0 0
          0 0 0 0 0 0
          0 0 0 0 0 0
          0 0 0 0 0 0
          0 0 0 0 0 0
          0 0 0 0 0 0
          0 0 0 0 0 0
          0 0 0 0 0 0
          0 0 0 0 0 0
          0 0 0 0 0 0
          0 0 0 0 0 0
          0 0 0 0 0 0
          0 0 0 0 0 0
          0 0 0 0 0 0
          0 0 0 0 0 0
          0 0 0 0 0 0
          0 0 0 0 0 0
          0 0 0 0 0 0
          0 0 0 0 0 0
          0 0 0 0 0 0
          0 0 0 0 0 0
          0 0 0 0 0 0
          0 0 0 0 0 0
          0 0 0 0 0 0
          0 0 0 0 0 0
          0 0 0 0 0 0
          0 0 0 0 0 0
          0 0 0 0 0 0
          0 0 0 0 0 0
          0 0 0 0 0 0
          0 0 0 0 0 0
          0 0 0 0 0 0
          0 0 0 0 0 0
          0 0 0 0 0 0
          0 0 0 0 0 0
          0 0 0 0 0 0
          0 0 0 0 0 0
          0 0 0 0 0 0
          0 0 0 0 0 0
          0 0 0 0 0 0
          0 0 0 0 0 0
          0 0 0 0 0 0
          0 0 0 0 0 0
          0 0 0 0 0 0
          0 0 0 0 0 0
          0 0 0 0 0 0
          0 0 0 0 0 0
          0 0 0 0 0 0
          0 0 0 0 0 0
          0 0 0 0 0 0
          0 0 0 0 0 0
          0 0 0 0 0 0
          0 0 0 0 0 0
          0 0 0 0 0 0
          0 0 0 0 0 0
          0 0 0 0 0 0
          0 0 0 0 0 0
          0 0 0 0 0 0
          0 0 0 0 0 0
          0 0 0 0 0 0
          0 0 0 0 0 0
          0 0 0 0 0 0
          0 0 0 0 0 0
          0 0 0 0 0 0
          0 0 0 0 0 0
          0 0 0 0 0 0
          0 0 0 0 0 0
          0 0 0 0 0 0
          0 0 0 0 0 0
          0 0 0 0 0 0
          0 0 0 0 0 0
          0 0 0 0 0 0
          0 0 0 0 0 0
          0 0 0 0 0 0
          0 0 0 0 0 0
          0 0 0 0 0 0
          0 0 0 0 0 0
          0 0 0 0 0 0
          0 0 0 0 0 0
          0 0 0 0 0 0
          0 0 0 0 0 0
          0 0 0 0 0 0
          0 0 0 0 0 0
          0 0 0 0 0 0
          0 0 0 0 0 0
          0 0 0 0 0 0
          0 0 0 0 0 0
          0 0 0 0 0 0
          0 0 0 0 0 0
          0 0 0 0 0 0
          0 0 0 0 0 0
          0 0 0 0 0 0
          0 0 0 0 0 0
          0 0 0 0 0 0
          0 0 0 0 0 0
          0 0 0 0 0 0
          0 0 0 0 0 0
          0 0 0 0 0 0
          0 0 0 0 0 0
          0 0 0 0 0 0
          0 0 0 0 0 0
          0 0 0 0 0 0
          0 0 0 0 0 0
          0 0 0 0 0 0
          0 0 0 0 0 0
          0 0 0 0 0 0
          0 0 0 0 0 0
          0 0 0 0 0 0
          0 0 0 0 0 0
          0 0 0 0 0 0
          0 0 0 0 0 0
          0 0 0 0 0 0
          0 0 0 0 0 0
          0 0 0 0 0 0
          0 0 0 0 0 0
          0 0 0 0 0 0
          0 0 0 0 0 0
          0 0 0 0 0 0
          0 0 0 0 0 0
          0 0 0 0 0 0
          0 0 0 0 0 0
          0 0 0 0 0 0
          0 0 0 0 0 0
          0 0 0 0 0 0
          0 0 0 0 0 0
          0 0 0 0 0 0
          0 0 0 0 0 0
          0 0 0 0 0 0
          0 0 0 0 0 0
          0 0 0 0 0 0
          0 0 0 0 0 0
          0 0 0 0 0 0
          0 0 0 0 0 0
          0 0 0 0 0 0
          0 0 0 0 0 0
          0 0 0 0 0 0
          0 0 0 0 0 0
          0 0 0 0 0 0
          0 0 0 0 0 0
          0 0 0 0 0 0
          0 0 0 0 0 0
          0 0 0 0 0 0
          0 0 0 0 0 0
          0 0 0 0 0 0
          0 0 0 0 0 0
          0 0 0 0 0 0
          0 0 0 0 0 0
          0 0 0 0 0 0
          0 0 0 0 0 0
          0 0 0 0 0 0
          0 0 0 0 0 0
          0 0 0 0 0 0
          0 0 0 0 0 0
          0 0 0 0 0 0
          0 0 0 0 0 0
          0 0 0 0 0 0
          0 0 0 0 0 0
          0 0 0 0 0 0
          0 0 0 0 0 0
          0 0 0 0 0 0
          0 0 0 0 0 0
          0 0 0 0 0 0
          0 0 0 0 0 0
          0 0 0 0 0 0
          0 0 0 0 0 0
          0 0 0 0 0 0
          0 0 0 0 0 0
          0 0 0 0 0 0
          0 0 0 0 0 0
          0 0 0 0 0 0
          0 0 0 0 0 0
          0 0 0 0 0 0
          0 0 0 0 0 0
          0 0 0 0 0 0
          0 0 0 0 0 0
          0 0 0 0 0 0
          0 0 0 0 0 0
          0 0 0 0 0 0
          0 0 0 0 0 0
          0 0 0 0 0 0
          0 0 0 0 0 0
          0 0 0 0 0 0
          0 0 0 0 0 0
          0 0 0 0 0 0
          0 0 0 0 0 0
          0 0 0 0 0 0
          0 0 0 0 0 0
          0 0 0 0 0 0
          0 0 0 0 0 0
          0 0 0 0 0 0
          0 0 0 0 0 0
          0 0 0 0 0 0
          0 0 0 0 0 0
          0 0 0 0 0 0
          0 0 0 0 0 0
          0 0 0 0 0 0
          0 0 0 0 0 0
          0 0 0 0 0 0
          0 0 0 0 0 0
          0 0 0 0 0 0
          0 0 0 0 0 0
          0 0 0 0 0 0
          0 0 0 0 0 0
          0 0 0 0 0 0
          0 0 0 0 0 0
          0 0 0 0 0 0
          0 0 0 0 0 0
          0 0 0 0 0 0
          0 0 0 0 0 0
          0 0 0 0 0 0
          0 0 0 0 0 0
          0 0 0 0 0 0
          0 0 0 0 0 0
          0 0 0 0 0 0
          0 0 0 0 0 0
          0 0 0 0 0 0
          0 0 0 0 0 0
          0 0 0 0 0 0
          0 0 0 0 0 0
          0 0 0 0 0 0
          0 0 0 0 0 0
          0 0 0 0 0 0
          0 0 0 0 0 0
          0 0 0 0 0 0
          0 0 0 0 0 0
          0 0 0 0 0 0
          0 0 0 0 0 0
          0 0 0 0 0 0
          0 0 0 0 0 0
          0 0 0 0 0 0
          0 0 0 0 0 0
          0 0 0 0 0 0
          0 0 0 0 0 0
          0 0 0 0 0 0
          0 0 0 0 0 0
          0 0 0 0 0 0
          0 0 0 0 0 0
          0 0 0 0 0 0
          0 0 0 0 0 0
          0 0 0 0 0 0
          0 0 0 0 0 0
          0 0 0 0 0 0
          0 0 0 0 0 0
          0 0 0 0 0 0
          0 0 0 0 0 0
          0 0 0 0 0 0
          0
        </DataArray>
        <DataArray type="Float64" Name="gradient_error" format="ascii" RangeMin="8.465904797007724e-17" RangeMax="1.544448663965139e-7">
          5.346892422951619e-15 2.752438527143131e-15 1.816010067411894e-15 9.68520562245908e-16 5.2068340345048e-16 3.2865085921940347e-16
          2.8827304414526383e-16 2.392956582274178e-16 2.5501029875594394e-16 2.3059120407235957e-16 1.4964824346545461e-16 1.2812872099802935e-16
          1.3520003981340654e-16 1.631520266225034e-16 1.7211875142255137e-16 1.4131185559626597e-16 1.3522638491613727e-16 1.337817646384862e-16
          1.35985780935435e-16 1.3806539345632763e-16 3.501962521791112e-14 1.7922251624393002e-14 2.0952791708748793e-14 1.069487522206389e-14
          7.110755866132872e-15 3.674999696709698e-15 2.242955760150571e-15 1.2547625098164605e-15 1.0825667845688194e-15 7.98586507080578e-16
          8.118693273897869e-16 6.990257671400329e-16 5.159113601158537e-16 4.430476225247792e-16 2.090287469771282e-16 2.0104730685768315e-16
          5.708788627632403e-16 3.3705441551125056e-16 1.9618415112482841e-16 2.2514667910570865e-16 3.852410060518258e-16 4.231638510506332e-16
          2.7554278617277597e-16 1.6382309335978037e-16 3.168796946516058e-16 2.37150095643517e-16 1.5312477496313304e-16 1.8372409872906729e-16
          2.5587578251131503e-16 2.601454952109875e-16 1.809016874118472e-16 1.3458031998132263e-16 1.4391816281573776e-13 7.3604043329037e-14
          8.25059920278004e-14 4.207648838116056e-14 2.7804037845885998e-14 1.4188417071923593e-14 9.870904513185172e-15 5.400925979842657e-15
          4.666438901193095e-15 3.377708473167144e-15 3.1885537047587902e-15 2.714486312707782e-15 1.8464183739340115e-15 1.539730229193695e-15
          4.877651614139894e-16 4.597045904444275e-16 1.2875029285953454e-16 1.27816393403648e-16 2.3406408219944857e-15 1.323656393022375e-15
          5.423479836577309e-16 7.741116480683789e-16 1.5184335974343447e-15 1.5745297169866725e-15 8.530543898547176e-16 3.154977321477554e-16
          1.2970435044325046e-16 1.391357801652743e-15 1.0003280515240434e-15 5.118996693542724e-16 6.172758496366167e-16 9.478891497274973e-16
          9.086405133165704e-16 4.730666952560567e-16 1.9935144482064504e-16 1.3252620693873942e-16 5.991023767642334e-13 3.0676377235842457e-13
          3.2803611527074846e-13 1.680180007226575e-13 1.0815831609475195e-13 5.5381819521961613e-14 4.306769345701853e-14 2.3867534651067118e-14
          2.035585612364476e-14 1.478834884587846e-14 1.288606730258792e-14 1.106238175289943e-14 7.065051047765477e-15 5.897114955527828e-15
          1.7103792543617328e-15 1.5523250872164726e-15 2.352793889882607e-16 2.075110136848145e-16 1.450350664830356e-16 1.4668740804030942e-16
          1.2791406043500645e-16 1.290150921928136e-16 1.2971813642182017e-16 1.299038560430831e-16 1.3050318173217616e-16 1.305224899206752e-16
          1.307297540138924e-16 1.3072239950675332e-16 1.3078431040655326e-16 1.307733297417821e-16 1.307957662249589e-16 1.30784398686901e-16
          1.3079751945594598e-16 1.307861123229984e-16 1.081611807297569e-14 6.638709593049157e-15 2.730935889208325e-15 3.8393215856943955e-15
          6.672193229912067e-15 6.4573700196780456e-15 3.2111912790871236e-15 9.254484980917474e-16 1.5195735249724948e-16 1.3881311780622418e-16
          1.3037054213556683e-16 1.304255022616374e-16 1.306497821118929e-16 1.3073428141439805e-16 1.3075730121244009e-16 1.3076244107913658e-16
          1.3076321190679612e-16 7.207068193335658e-15 5.277533011531755e-15 2.856548829245373e-15 3.011267326273083e-15 4.123544891711978e-15
          3.6760438361451544e-15 1.6932036948840695e-15 4.566260761122825e-16 1.2417206661313072e-16 1.292864860148651e-16 1.3062496032051294e-16
          1.3076142885892872e-16 1.3075776611461156e-16 1.3075351782918186e-16 1.3075225334786917e-16 1.3075185100942998e-16 1.3075171862354145e-16
          2.5272756728795e-12 1.2992459644546313e-12 1.3168192540771133e-12 6.815383436965276e-13 4.1727543727868416e-13 2.1810487881499888e-13
          1.8616425181426032e-13 1.0584362134884118e-13 8.893826338276032e-14 6.514236042508645e-14 5.257594772519268e-14 4.556648983931202e-14
          2.7113068592367607e-14 2.2792572287921688e-14 6.192527064906258e-15 5.559148994035216e-15 7.309270745211551e-16 5.766864167975145e-16
          2.6372958878193903e-16 2.452563544350121e-16 1.4191328016324424e-16 1.3609235239294677e-16 1.3417855447809163e-16 1.3329106050825512e-16
          1.3190079705954973e-16 1.31707004696307e-16 1.311163580794564e-16 1.310531567249225e-16 1.3089796019035577e-16 1.3085967937690173e-16
          1.3084507482028434e-16 1.3081130401733321e-16 1.3083572662350178e-16 1.3080262131355832e-16 5.478327569558489e-14 3.6872694049502555e-14
          1.722992179220083e-14 2.016266920335241e-14 2.9753704645666023e-14 2.694320750464323e-14 1.2546386673913239e-14 3.187483058980724e-15
          2.990527886650921e-16 1.846987483440924e-16 1.3106422697292903e-16 1.3160872317226114e-16 1.3111158752473122e-16 1.3084469901196719e-16
          1.3075981002363978e-16 1.3073779510391254e-16 1.307337805881848e-16 3.835029536140716e-14 2.7487954783063223e-14 1.5525523233088003e-14
          1.4802347523282782e-14 1.8160951823919475e-14 1.5329383055855088e-14 6.6206973643507045e-15 1.4491951947972758e-15 1.7565981825631032e-16
          1.4261437660009974e-16 1.3185702932320875e-16 1.308138798061037e-16 1.3070996271639817e-16 1.306994426535458e-16 1.30698221483832e-16
          1.3069805699344304e-16 1.306980451727547e-16 1.0803031719350832e-11 5.606387935815065e-12 5.331203368250374e-12 2.8036188678737957e-12
          1.5895116926122108e-12 8.605602897917237e-13 7.966272049187273e-13 4.676529785171299e-13 3.8889923887596855e-13 2.8827765126845614e-13
          2.1698371031372786e-13 1.900173594627523e-13 1.0449925777897645e-13 8.875047283797077e-14 2.2533035455849587e-14 2.0087246905512228e-14
          3.033540865075374e-15 2.4077143829130758e-15 8.519678827589143e-16 8.178701011211575e-16 1.954527787955387e-16 1.88963963657643e-16
          1.2624000404927724e-16 1.2836956290951309e-16 1.2803513527036565e-16 1.2859272935101243e-16 1.3008567388684829e-16 1.3010483578311063e-16
          1.3078915135131563e-16 1.3068713419522899e-16 1.309858648533019e-16 1.308577026233872e-16 1.310239416671991e-16 1.308913551706484e-16
          3.0596879697108934e-13 2.0835689843271502e-13 1.0649703641806021e-13 1.052258143044811e-13 1.338887775195595e-13 1.137811265250748e-13
          4.971474953152479e-14 1.1228300662890088e-14 1.0500425872130246e-15 4.740529555731861e-16 1.5388707689883546e-16 1.3003634308646317e-16
          1.2975455417449506e-16 1.3031031452448415e-16 1.3055534006276327e-16 1.3063110515850527e-16 1.3064641806745745e-16 2.0219344166288068e-13
          1.4067942936821188e-13 8.138518586488403e-14 7.177287649342991e-14 8.012149137817527e-14 6.45112444383728e-14 2.6427811166084497e-14
          4.8151429706052975e-15 3.181972736752726e-16 1.6433359166297166e-16 1.2529900527792358e-16 1.2957356440317737e-16 1.3035878491733096e-16
          1.304966313695953e-16 1.3052556308638418e-16 1.3053266992353806e-16 1.305340674608172e-16 4.6849516464274574e-11 2.4657428990579002e-11
          2.1797330173011838e-11 1.1712712678602734e-11 5.940589389230039e-12 3.3901208176431136e-12 3.3718560937910174e-12 2.059149260772604e-12
          1.7019767502930596e-12 1.282322707541461e-12 9.078599620517753e-13 8.048301579693341e-13 4.061384530783888e-13 3.5004564115096814e-13
          8.026240258300678e-14 7.049635756421658e-14 1.2404873923268875e-14 9.762839607372521e-15 3.2749728899668902e-15 3.2322119605022766e-15
          5.682744777678214e-16 5.270846496278115e-16 1.6378480137818762e-16 1.5195884808088238e-16 1.372855668690808e-16 1.3405592710273992e-16
          1.3395094787790292e-16 1.3293894609710016e-16 1.3242812885895432e-16 1.3188520952841277e-16 1.3190474948769678e-16 1.314706943469219e-16
          1.3179193783603943e-16 1.3137752683990343e-16 1.7549283919795762e-12 1.167699459125087e-12 6.269150403861296e-13 5.448581360846126e-13
          6.080762515030125e-13 4.872630382207766e-13 2.0006323627519392e-13 3.8263292147551977e-14 4.086141329174047e-15 1.805494300766378e-15
          3.2456708621739406e-16 1.3774644025998104e-16 1.3090373773424444e-16 1.310336372181146e-16 1.3064914566799346e-16 1.3047449758895317e-16
          1.3043365999835985e-16 1.04451526707572e-12 7.073037340565445e-13 4.1417783471607147e-13 3.43273844415034e-13 3.534838382161622e-13
          2.727257225546604e-13 1.0617364332684046e-13 1.5796271749677555e-14 1.0514773668719276e-15 4.215375704950932e-16 1.632393509469863e-16
          1.35359985736385e-16 1.3098118813208983e-16 1.301403301199318e-16 1.2995600113811576e-16 1.299123559717593e-16 1.2990420415295225e-16
          2.064408985054744e-10 1.1059135314304975e-10 9.029116981882436e-11 4.988155795037823e-11 2.164558898668687e-11 1.3362399340019455e-11
          1.412604580055293e-11 9.06039832035759e-12 7.47818883789677e-12 5.7492607154597585e-12 3.8523804429344236e-12 3.462203744051173e-12
          1.5939001377667936e-12 1.3984626801547099e-12 2.7662527028756104e-13 2.3539797420945523e-13 4.94890983756626e-14 3.742153598249573e-14
          1.2839093846756942e-14 1.2903995454491104e-14 2.3657936562470517e-15 2.3582597006446266e-15 4.676524635716399e-16 4.641040416895613e-16
          1.724907176011923e-16 1.7335916125909308e-16 1.3443032714498527e-16 1.3461819558125072e-16 1.319073224744262e-16 1.310298746105444e-16
          1.3213342457686967e-16 1.3093462468640878e-16 1.3225224466253462e-16 1.3099251128251096e-16 1.0011752351775074e-11 6.482708993708577e-12
          3.5673684399915046e-12 2.807313156158408e-12 2.7887019130300874e-12 2.114157635745061e-12 8.159048837597909e-13 1.214887403320955e-13
          1.4374224593326788e-14 7.093117914896227e-15 1.300164385488453e-15 2.932419690294524e-16 1.4929573056658005e-16 1.308961454333185e-16
          1.2891945773255006e-16 1.2879193895774113e-16 1.288049391781157e-16 5.281696922925059e-12 3.4934719054850726e-12 2.05552718663097e-12
          1.619875472154564e-12 1.5570712330374275e-12 1.1562882263221986e-12 4.287845449769556e-13 4.880680253284167e-14 3.3944755973247044e-15
          1.217338767567192e-15 2.4960302593470536e-16 1.2592831825142193e-16 1.243638562161663e-16 1.2698622684912086e-16 1.2768648871843748e-16
          1.2784805311953438e-16 1.2787710045374406e-16 9.257359832584315e-10 5.064425482207187e-10 3.8397832072695493e-10 2.192940529127826e-10
          8.030103830691898e-11 5.505906297887502e-11 5.914028083049944e-11 4.024621410050632e-11 3.300922825817763e-11 2.6013935538365926e-11
          1.6606148183094006e-11 1.5138870834593594e-11 6.355128033365115e-12 5.6736099569562154e-12 9.088909631124876e-13 7.241978272502621e-13
          1.9126276535739497e-13 1.3558237052244696e-13 4.664053363796345e-14 4.661290781703762e-14 9.574293184423398e-15 9.715475575490037e-15
          1.9504465949963146e-15 1.984200844713564e-15 4.0738038940657096e-16 4.1060471751413545e-16 1.5351870376568267e-16 1.4602742611609424e-16
          1.4143694647878807e-16 1.341669692091621e-16 1.4674728258532607e-16 1.4046959425444126e-16 1.4782010124574632e-16 1.4170149750054347e-16