<?xml version="1.0"?>
<VTKFile type="UnstructuredGrid" version="0.1" byte_order="LittleEndian" header_type="UInt32" compressor="vtkZLibDataCompressor">
  <UnstructuredGrid>
    <Piece NumberOfPoints="1700" NumberOfCells="1079">
      <PointData>
        <DataArray type="Int32" Name="libmesh_node_id" format="ascii" RangeMin="2318" RangeMax="7697">
          2318 2424 2431 2435 2436 2438
          2439 2443 2444 2445 2598 2599
          2600 2603 2604 2606 2630 2632
          2633 2634 2635 2636 2637 2638
          2639 2640 2641 2642 2643 2644
          2645 2646 2647 2648 2649 2650
          2651 2652 2653 2654 2655 2656
          2657 2659 2660 2661 2662 2663
          2665 2667 2668 2669 2670 2671
          2677 2866 2867 2869 2870 2872
          2873 2876 2877 2879 2880 2882
          2883 3133 3134 3135 3136 3137
          3138 3139 3140 3141 3142 3143
          3144 3145 3146 3160 3161 3162
          3163 3164 3165 3166 3167 3168
          3169 3172 3176 3178 3180 3181
          3182 3183 3184 3185 3186 3187
          3188 3189 3197 3198 3199 3200
          3201 3202 3203 3228 3229 3230
          3231 3232 3233 3234 3235 3236
          3237 3238 3239 3240 3241 3242
          3243 3244 3245 3246 3247 3248
          3249 3250 3251 3252 3253 3254
          3255 3256 3257 3258 3259 3260
          3261 3262 3263 3264 3265 3266
          3267 3268 3269 3270 3271 3272
          3273 3274 3275 3276 3277 3278
          3279 3280 3281 3282 3283 3284
          3285 3286 3287 3288 3289 3290
          3291 3292 3293 3294 3295 3296
          3297 3298 3299 3300 3301 3302
          3303 3304 3305 3306 3307 3308
          3309 3310 3311 3312 3313 3314
          3315 3316 3317 3318 3319 3320
          3321 3322 3323 3324 3325 3326
          3327 3328 3329 3330 3331 3332
          3333 3334 3335 3336 3337 3338
          3339 3340 3341 3342 3343 3344
          3345 3346 3347 3348 3349 3350
          3351 3352 3353 3354 3355 3356
          3357 3358 3359 3360 3361 3362
          3363 3364 3365 3366 3367 3368
          3369 3370 3371 3372 3373 3374
          3375 3376 3377 3378 3379 3382
          3383 3385 3387 3388 3389 3390
          3391 3392 3393 3394 3395 3396
          3397 3398 3399 3400 3401 3402
          3403 3404 3405 3406 3407 3408
          3409 3410 3411 4114 4115 4116
          4117 4118 4119 4120 4121 4122
          4123 4124 4125 4126 4127 4128
          4129 4130 4131 4132 4133 4134
          4135 4136 4137 4138 4139 4140
          4141 4142 4143 4144 4145 4146
          4147 4148 4149 4150 4151 4152
          4153 4154 4155 4156 4157 4158
          4159 4160 4161 4162 4163 4164
          4165 4166 4167 4168 4169 4170
          4171 4172 4173 4174 4175 4176
          4177 4178 4179 4180 4181 4182
          4183 4184 4185 4186 4187 4188
          4189 4190 4191 4192 4193 4194
          4195 4196 4197 4198 4199 4200
          4201 4202 4203 4204 4205 4206
          4207 4208 4209 4210 4211 4212
          4213 4214 4215 4216 4217 4218
          4219 4220 4221 4222 4223 4224
          4225 4226 4227 4228 4229 4230
          4231 4232 4233 4234 4235 4236
          4237 4238 4239 4240 4241 4242
          4243 4244 4245 4246 4247 4248
          4249 4250 4251 4252 4253 4254
          4255 4256 4257 4258 4259 4260
          4261 4262 4263 4264 4265 4266
          4267 4268 4269 4270 4271 4272
          4273 4274 4275 4276 4277 4278
          4279 4280 4281 4282 4283 4284
          4285 4286 4287 4288 4289 4290
          4291 4292 4293 4294 4295 4296
          4297 4298 4299 4300 4301 4302
          4303 4304 4305 4306 4307 4308
          4309 4310 4311 4312 4313 4314
          4315 4316 4317 4318 4319 4320
          4321 4322 4323 4324 4325 4326
          4327 4328 4329 4330 4331 4332
          4333 4334 4335 4336 4337 4338
          4339 4340 4341 4342 4343 4344
          4345 4346 4347 4348 4349 4350
          4351 4352 4353 4354 4355 4356
          4357 4358 4359 4360 4361 4362
          4363 4364 4365 4366 4367 4368
          4369 4370 4371 4372 4373 4374
          4375 4376 4377 4378 4379 4380
          4381 4382 4383 4384 4385 4386
          4387 4388 4389 4390 4391 4392
          4393 4394 4395 4396 4397 4398
          4399 4400 4401 4402 4403 4404
          4405 4406 4407 4408 4409 4410
          4411 4412 4413 4414 4415 4416
          4417 4418 4419 4420 4421 4422
          4423 4424 4425 4426 4427 4428
          4429 4430 4431 4432 4433 4434
          4435 4436 4437 4438 4439 4440
          4441 4442 4443 4444 4445 4446
          4447 4448 4449 4450 4451 4452
          4453 4454 4455 4456 4457 4458
          4459 4460 4461 4462 4463 4464
          4465 4466 4467 4472 4473 4474
          4475 4476 4477 4478 4479 4480
          4481 4482 4486 4487 4490 4491
          4492 4493 4495 4506 4507 4508
          4509 4510 4511 4512 4520 4521
          4522 4523 4524 4525 4526 4527
          4528 4529 4530 4531 4532 4533
          4534 4535 4536 4537 4538 4539
          4540 4541 4542 4543 4544 4545
          4546 4547 4548 4549 4550 4551
          4552 4553 4554 4555 4556 4557
          4558 4559 6653 6654 6655 6656
          6657 6658 6659 6660 6661 6662
          6663 6664 6665 6666 6667 6668
          6669 6670 6671 6672 6673 6674
          6675 6676 6677 6678 6679 6680
          6681 6682 6683 6684 6685 6686
          6687 6688 6689 6690 6691 6692
          6693 6694 6695 6696 6697 6698
          6699 6700 6701 6702 6703 6704
          6705 6706 6707 6708 6709 6710
          6711 6712 6713 6714 6715 6716
          6717 6718 6719 6720 6721 6722
          6723 6724 6725 6726 6727 6728
          6729 6730 6731 6732 6733 6734
          6735 6736 6737 6738 6739 6740
          6741 6742 6743 6744 6745 6746
          6747 6748 6749 6750 6751 6752
          6753 6754 6755 6756 6757 6758
          6759 6760 6761 6762 6763 6764
          6765 6766 6767 6768 6769 6770
          6771 6772 6773 6774 6775 6776
          6777 6778 6779 6780 6781 6782
          6783 6784 6785 6786 6787 6788
          6789 6790 6791 6792 6793 6794
          6795 6796 6797 6798 6799 6800
          6801 6802 6803 6804 6805 6806
          6807 6808 6809 6810 6811 6812
          6813 6814 6815 6816 6817 6818
          6819 6820 6821 6822 6823 6824
          6825 6826 6827 6828 6829 6830
          6831 6832 6833 6834 6835 6836
          6837 6838 6839 6840 6841 6842
          6843 6844 6845 6846 6847 6848
          6849 6850 6851 6852 6853 6854
          6855 6856 6857 6858 6859 6860
          6861 6862 6863 6864 6865 6866
          6867 6868 6869 6870 6871 6872
          6873 6874 6875 6876 6877 6878
          6879 6880 6881 6882 6883 6884
          6885 6886 6887 6888 6889 6890
          6891 6892 6893 6894 6895 6896
          6897 6898 6899 6900 6901 6902
          6903 6904 6905 6906 6907 6908
          6909 6910 6911 6912 6913 6914
          6915 6916 6917 6918 6919 6920
          6921 6922 6923 6924 6925 6926
          6927 6928 6929 6930 6931 6932
          6933 6934 6935 6936 6937 6938
          6939 6940 6941 6942 6943 6944
          6945 6946 6947 6948 6949 6950
          6951 6952 6953 6954 6955 6956
          6957 6958 6959 6960 6961 6962
          6963 6964 6965 6966 6967 6968
          6969 6970 6971 6972 6973 6974
          6975 6976 6977 6978 6979 6980
          6981 6982 6983 6984 6985 6986
          6987 6988 6989 6990 6991 6992
          6993 6994 6995 6996 6997 6998
          6999 7000 7001 7002 7003 7004
          7005 7006 7007 7008 7009 7010
          7011 7012 7013 7014 7015 7016
          7017 7018 7019 7020 7021 7022
          7023 7024 7025 7026 7027 7028
          7029 7030 7031 7032 7033 7034
          7035 7036 7037 7038 7039 7040
          7041 7042 7043 7044 7045 7046
          7047 7048 7049 7050 7051 7052
          7053 7054 7055 7056 7057 7058
          7059 7060 7061 7062 7063 7064
          7065 7066 7067 7068 7069 7070
          7071 7072 7073 7074 7075 7076
          7077 7078 7079 7080 7081 7082
          7083 7084 7085 7086 7087 7088
          7089 7090 7091 7092 7093 7094
          7095 7096 7097 7098 7099 7100
          7101 7102 7103 7104 7105 7106
          7107 7108 7109 7110 7111 7112
          7113 7114 7115 7116 7117 7118
          7119 7120 7121 7122 7123 7124
          7125 7126 7127 7128 7129 7130
          7131 7132 7133 7134 7135 7136
          7137 7138 7139 7140 7141 7142
          7143 7144 7145 7146 7147 7148
          7149 7150 7151 7152 7153 7154
          7155 7156 7157 7158 7159 7160
          7161 7162 7163 7164 7165 7166
          7167 7168 7169 7170 7171 7172
          7173 7174 7175 7176 7177 7178
          7179 7180 7181 7182 7183 7184
          7185 7186 7187 7188 7189 7190
          7191 7192 7193 7194 7195 7196
          7197 7198 7199 7200 7201 7202
          7203 7204 7205 7206 7207 7208
          7209 7210 7211 7212 7213 7214
          7215 7216 7217 7218 7219 7220
          7221 7222 7223 7224 7225 7226
          7227 7228 7229 7230 7231 7232
          7233 7234 7235 7236 7237 7238
          7239 7240 7241 7242 7243 7244
          7245 7246 7247 7248 7249 7250
          7251 7252 7253 7254 7255 7256
          7257 7258 7259 7260 7261 7262
          7263 7264 7265 7266 7267 7268
          7269 7270 7271 7272 7273 7274
          7275 7276 7277 7278 7279 7280
          7281 7282 7283 7284 7285 7286
          7287 7288 7289 7290 7291 7292
          7293 7294 7295 7296 7297 7298
          7299 7300 7301 7302 7303 7304
          7305 7306 7307 7308 7309 7310
          7311 7312 7313 7314 7315 7316
          7317 7318 7319 7320 7321 7322
          7323 7324 7325 7326 7327 7328
          7329 7330 7331 7332 7333 7334
          7335 7336 7337 7338 7339 7340
          7341 7342 7343 7344 7345 7346
          7347 7348 7349 7350 7351 7352
          7353 7354 7355 7356 7357 7358
          7359 7360 7361 7362 7363 7364
          7365 7366 7367 7368 7369 7370
          7371 7372 7373 7374 7375 7376
          7377 7378 7379 7380 7381 7382
          7383 7384 7385 7386 7387 7388
          7389 7390 7391 7392 7393 7394
          7395 7396 7397 7398 7399 7400
          7401 7402 7403 7404 7405 7406
          7407 7408 7409 7410 7411 7412
          7413 7414 7415 7416 7417 7418
          7419 7420 7421 7422 7423 7424
          7425 7426 7427 7428 7429 7430
          7431 7432 7433 7434 7435 7436
          7437 7438 7439 7440 7441 7442
          7443 7444 7445 7446 7447 7448
          7449 7450 7451 7452 7453 7454
          7455 7456 7457 7458 7459 7460
          7461 7462 7463 7464 7465 7466
          7467 7468 7469 7470 7471 7472
          7473 7474 7475 7476 7477 7478
          7479 7481 7482 7483 7484 7485
          7487 7502 7503 7504 7505 7506
          7507 7514 7515 7516 7517 7518
          7519 7520 7521 7522 7523 7524
          7525 7528 7533 7534 7535 7536
          7537 7538 7539 7540 7541 7543
          7544 7545 7547 7548 7549 7550
          7551 7552 7553 7554 7555 7556
          7557 7562 7567 7568 7569 7570
          7571 7572 7573 7574 7575 7577
          7578 7579 7581 7650 7651 7652
          7653 7654 7655 7656 7657 7658
          7659 7660 7661 7662 7663 7664
          7665 7666 7667 7668 7669 7670
          7671 7672 7673 7674 7675 7676
          7677 7678 7679 7680 7681 7682
          7683 7684 7685 7686 7687 7688
          7689 7690 7691 7692 7693 7694
          7695 7696 7697 2601 2425 2624
          2622 2602 2625 2623 2628 2627
          2629 2319 2631 2856 2859 2860
          2857 2594 2595 2863 2862 3123
          3124 3125 3128 2596 3131 2597
          3151 3152 3156 3158 3129 3130
          3170 3173 3171 3091 3092 2429
          3177 3097 3175 3174 2605 3179
          3191 3193 3195 2607 3220 3221
          3224 3226
        </DataArray>
        <DataArray type="Float64" Name="bounds" format="ascii" RangeMin="0" RangeMax="0">
          0 0 0 0 0 0
          0 0 0 0 0 0
          0 0 0 0 0 0
          0 0 0 0 0 0
          0 0 0 0 0 0
          0 0 0 0 0 0
          0 0 0 0 0 0
          0 0 0 0 0 0
          0 0 0 0 0 0
          0 0 0 0 0 0
          0 0 0 0 0 0
          0 0 0 0 0 0
          0 0 0 0 0 0
          0 0 0 0 0 0
          0 0 0 0 0 0
          0 0 0 0 0 0
          0 0 0 0 0 0
          0 0 0 0 0 0
          0 0 0 0 0 0
          0 0 0 0 0 0
          0 0 0 0 0 0
          0 0 0 0 0 0
          0 0 0 0 0 0
          0 0 0 0 0 0
          0 0 0 0 0 0
          0 0 0 0 0 0
          0 0 0 0 0 0
          0 0 0 0 0 0
          0 0 0 0 0 0
          0 0 0 0 0 0
          0 0 0 0 0 0
          0 0 0 0 0 0
          0 0 0 0 0 0
          0 0 0 0 0 0
          0 0 0 0 0 0
          0 0 0 0 0 0
          0 0 0 0 0 0
          0 0 0 0 0 0
          0 0 0 0 0 0
          0 0 0 0 0 0
          0 0 0 0 0 0
          0 0 0 0 0 0
          0 0 0 0 0 0
          0 0 0 0 0 0
          0 0 0 0 0 0
          0 0 0 0 0 0
          0 0 0 0 0 0
          0 0 0 0 0 0
          0 0 0 0 0 0
          0 0 0 0 0 0
          0 0 0 0 0 0
          0 0 0 0 0 0
          0 0 0 0 0 0
          0 0 0 0 0 0
          0 0 0 0 0 0
          0 0 0 0 0 0
          0 0 0 0 0 0
          0 0 0 0 0 0
          0 0 0 0 0 0
          0 0 0 0 0 0
          0 0 0 0 0 0
          0 0 0 0 0 0
          0 0 0 0 0 0
          0 0 0 0 0 0
          0 0 0 0 0 0
          0 0 0 0 0 0
          0 0 0 0 0 0
          0 0 0 0 0 0
          0 0 0 0 0 0
          0 0 0 0 0 0
          0 0 0 0 0 0
          0 0 0 0 0 0
          0 0 0 0 0 0
          0 0 0 0 0 0
          0 0 0 0 0 0
          0 0 0 0 0 0
          0 0 0 0 0 0
          0 0 0 0 0 0
          0 0 0 0 0 0
          0 0 0 0 0 0
          0 0 0 0 0 0
          0 0 0 0 0 0
          0 0 0 0 0 0
          0 0 0 0 0 0
          0 0 0 0 0 0
          0 0 0 0 0 0
          0 0 0 0 0 0
          0 0 0 0 0 0
          0 0 0 0 0 0
          0 0 0 0 0 0
          0 0 0 0 0 0
          0 0 0 0 0 0
          0 0 0 0 0 0
          0 0 0 0 0 0
          0 0 0 0 0 0
          0 0 0 0 0 0
          0 0 0 0 0 0
          0 0 0 0 0 0
          0 0 0 0 0 0
          0 0 0 0 0 0
          0 0 0 0 0 0
          0 0 0 0 0 0
          0 0 0 0 0 0
          0 0 0 0 0 0
          0 0 0 0 0 0
          0 0 0 0 0 0
          0 0 0 0 0 0
          0 0 0 0 0 0
          0 0 0 0 0 0
          0 0 0 0 0 0
          0 0 0 0 0 0
          0 0 0 0 0 0
          0 0 0 0 0 0
          0 0 0 0 0 0
          0 0 0 0 0 0
          0 0 0 0 0 0
          0 0 0 0 0 0
          0 0 0 0 0 0
          0 0 0 0 0 0
          0 0 0 0 0 0
          0 0 0 0 0 0
          0 0 0 0 0 0
          0 0 0 0 0 0
          0 0 0 0 0 0
          0 0 0 0 0 0
          0 0 0 0 0 0
          0 0 0 0 0 0
          0 0 0 0 0 0
          0 0 0 0 0 0
          0 0 0 0 0 0
          0 0 0 0 0 0
          0 0 0 0 0 0
          0 0 0 0 0 0
          0 0 0 0 0 0
          0 0 0 0 0 0
          0 0 0 0 0 0
          0 0 0 0 0 0
          0 0 0 0 0 0
          0 0 0 0 0 0
          0 0 0 0 0 0
          0 0 0 0 0 0
          0 0 0 0 0 0
          0 0 0 0 0 0
          0 0 0 0 0 0
          0 0 0 0 0 0
          0 0 0 0 0 0
          0 0 0 0 0 0
          0 0 0 0 0 0
          0 0 0 0 0 0
          0 0 0 0 0 0
          0 0 0 0 0 0
          0 0 0 0 0 0
          0 0 0 0 0 0
          0 0 0 0 0 0
          0 0 0 0 0 0
          0 0 0 0 0 0
          0 0 0 0 0 0
          0 0 0 0 0 0
          0 0 0 0 0 0
          0 0 0 0 0 0
          0 0 0 0 0 0
          0 0 0 0 0 0
          0 0 0 0 0 0
          0 0 0 0 0 0
          0 0 0 0 0 0
          0 0 0 0 0 0
          0 0 0 0 0 0
          0 0 0 0 0 0
          0 0 0 0 0 0
          0 0 0 0 0 0
          0 0 0 0 0 0
          0 0 0 0 0 0
          0 0 0 0 0 0
          0 0 0 0 0 0
          0 0 0 0 0 0
          0 0 0 0 0 0
          0 0 0 0 0 0
          0 0 0 0 0 0
          0 0 0 0 0 0
          0 0 0 0 0 0
          0 0 0 0 0 0
          0 0 0 0 0 0
          0 0 0 0 0 0
          0 0 0 0 0 0
          0 0 0 0 0 0
          0 0 0 0 0 0
          0 0 0 0 0 0
          0 0 0 0 0 0
          0 0 0 0 0 0
          0 0 0 0 0 0
          0 0 0 0 0 0
          0 0 0 0 0 0
          0 0 0 0 0 0
          0 0 0 0 0 0
          0 0 0 0 0 0
          0 0 0 0 0 0
          0 0 0 0 0 0
          0 0 0 0 0 0
          0 0 0 0 0 0
          0 0 0 0 0 0
          0 0 0 0 0 0
          0 0 0 0 0 0
          0 0 0 0 0 0
          0 0 0 0 0 0
          0 0 0 0 0 0
          0 0 0 0 0 0
          0 0 0 0 0 0
          0 0 0 0 0 0
          0 0 0 0 0 0
          0 0 0 0 0 0
          0 0 0 0 0 0
          0 0 0 0 0 0
          0 0 0 0 0 0
          0 0 0 0 0 0
          0 0 0 0 0 0
          0 0 0 0 0 0
          0 0 0 0 0 0
          0 0 0 0 0 0
          0 0 0 0 0 0
          0 0 0 0 0 0
          0 0 0 0 0 0
          0 0 0 0 0 0
          0 0 0 0 0 0
          0 0 0 0 0 0
          0 0 0 0 0 0
          0 0 0 0 0 0
          0 0 0 0 0 0
          0 0 0 0 0 0
          0 0 0 0 0 0
          0 0 0 0 0 0
          0 0 0 0 0 0
          0 0 0 0 0 0
          0 0 0 0 0 0
          0 0 0 0 0 0
          0 0 0 0 0 0
          0 0 0 0 0 0
          0 0 0 0 0 0
          0 0 0 0 0 0
          0 0 0 0 0 0
          0 0 0 0 0 0
          0 0 0 0 0 0
          0 0 0 0 0 0
          0 0 0 0 0 0
          0 0 0 0 0 0
          0 0 0 0 0 0
          0 0 0 0 0 0
          0 0 0 0 0 0
          0 0 0 0 0 0
          0 0 0 0 0 0
          0 0 0 0 0 0
          0 0 0 0 0 0
          0 0 0 0 0 0
          0 0 0 0 0 0
          0 0 0 0 0 0
          0 0 0 0 0 0
          0 0 0 0 0 0
          0 0 0 0 0 0
          0 0 0 0 0 0
          0 0 0 0 0 0
          0 0 0 0 0 0
          0 0 0 0 0 0
          0 0 0 0 0 0
          0 0 0 0 0 0
          0 0 0 0 0 0
          0 0 0 0 0 0
          0 0 0 0 0 0
          0 0 0 0 0 0
          0 0 0 0 0 0
          0 0 0 0 0 0
          0 0 0 0 0 0
          0 0 0 0 0 0
          0 0 0 0 0 0
          0 0 0 0 0 0
          0 0 0 0 0 0
          0 0 0 0 0 0
          0 0 0 0 0 0
          0 0 0 0 0 0
          0 0 0 0 0 0
          0 0 0 0 0 0
          0 0 0 0 0 0
          0 0 0 0 0 0
          0 0 0 0 0 0
          0 0 0 0 0 0
          0 0
        </DataArray>
        <DataArray type="Float64" Name="gradient_error" format="ascii" RangeMin="1.375576769805741e-10" RangeMax="6.911287070628128e-8">
          1.436711725015569e-10 3.4293232095167456e-8 3.1997998256397554e-8 1.7610690201544365e-8 1.04430031248256e-8 5.267050231770313e-9
          2.775566864569758e-9 5.915626700279635e-10 5.823818327318545e-8 3.000108783376237e-8 2.5894279750205554e-8 3.650785088616158e-8
          5.736281540616715e-8 2.9089306253290646e-8 2.3514884663987337e-9 3.9941891009651374e-8 8.62863636820118e-9 2.5888725927254038e-8
          1.9037551064194507e-8 3.892133942934386e-8 5.138705572943753e-8 1.262266275340092e-8 3.896053322397715e-8 4.0443891853562714e-8
          1.5265394752185415e-8 3.349389186979603e-8 3.5651193642631395e-8 3.0767414098365756e-10 4.785916503292307e-8 3.141001372608462e-8
          4.71359947089388e-8 1.0470847818243425e-8 7.322630021544151e-9 3.493336056744538e-8 3.536351651577489e-8 3.608672834523794e-9
          2.6473519778373818e-8 2.712312034299769e-8 6.460073142282692e-9 2.6588601266747536e-8 1.4236927491031664e-8 9.170374117468262e-10
          9.752123323396848e-9 4.7859621193191865e-8 1.0170452485184171e-8 2.063717346696381e-8 7.17435321906555e-9 2.43645745986443e-8
          1.394209052788105e-9 2.3743847819991313e-8 3.541180803592596e-8 1.8791384153471783e-9 4.625424863295714e-9 1.766462669905461e-8
          2.654081616403916e-8 1.405563715252098e-8 1.1004282361407005e-8 8.66109991024649e-9 6.749192407901382e-9 4.813998366742032e-9
          2.8286092556286563e-9 4.6604732624285446e-9 3.6339603424500598e-9 2.1770150250467064e-9 1.698593014683074e-9 1.4827772613514885e-9
          6.939143932034364e-10 3.040604079483724e-8 2.809015120977888e-8 4.508160474457796e-8 4.194691817302689e-8 2.662517224828301e-8
          4.5537498481782275e-8 4.2112613419055324e-8 2.1883731673469156e-8 3.341027034247304e-8 3.297478073624813e-8 5.059816023380789e-8
          5.611262195286187e-8 5.086079714623177e-8 5.473979368899331e-8 1.449382301973234e-8 2.2292600510733707e-8 1.3293411763846178e-8
          2.141296234125039e-8 1.0994444317246888e-8 1.6576891937997164e-8 1.556409156633289e-8 3.860036474308205e-8 3.9223447994073956e-8
          2.473303922660726e-8 3.834349635527919e-8 1.9047342534134157e-8 1.8941738405903685e-8 2.5039400196535187e-8 3.2617778076746284e-8
          6.0030647365804264e-9 2.5938460842004528e-8 5.0553231073677474e-8 5.460275156914118e-8 2.2879046783470874e-10 4.481189760715584e-9
          5.025802135488969e-9 3.654492342565584e-8 5.051927634049462e-8 5.326960327974244e-8 2.903979827558258e-8 2.8739716368597534e-8
          5.392920119656018e-8 5.762482348999158e-8 3.205970749062798e-8 1.1895395767963735e-8 1.3511493959276429e-8 1.1025183804053599e-8
          1.2673757251636105e-8 8.507297232660093e-9 9.066767118415636e-9 8.896936303564723e-9 1.5127592150589124e-8 1.432233069921861e-8
          9.626237004171176e-9 2.7016057357923675e-8 2.47312912385119e-8 4.5455183640430846e-8 4.176599506495311e-8 2.240876549346043e-8
          4.470112357219246e-8 4.0811651969175806e-8 1.8764457751318564e-8 3.212358111224288e-8 3.079242539420949e-8 3.792529104767253e-8
          5.3415611822487334e-8 4.5237504683878386e-8 5.986374826745027e-8 2.1741544602307438e-8 1.9710399992036392e-8 4.315624706890173e-8
          3.914389804101846e-8 1.6759873767672215e-8 4.069497744525842e-8 3.666369510967566e-8 1.4587097816190651e-8 2.8914412505453493e-8
          2.6507141249785995e-8 3.934995514166385e-8 3.5695127341648e-8 3.501883596678837e-8 4.149984641947429e-8 1.1948418353251878e-8
          2.026742380116191e-8 1.0494085607756633e-8 1.883265681844427e-8 8.814446322966753e-9 1.4364491867313407e-8 1.3002643214628687e-8
          3.956784249882799e-8 3.946500755593694e-8 2.3006718792224365e-8 8.983637234266744e-9 1.7105312325280405e-8 7.456522589034902e-9
          1.5159762923687548e-8 6.472334217917537e-9 1.1513348652789021e-8 9.937656121896e-9 3.871292908926937e-8 3.716264522104652e-8
          2.6010015053519427e-8 6.768267796982858e-9 2.7286922265659598e-8 7.596697231408577e-9 1.81644036702086e-8 5.895453713021284e-8
          5.3018570463823445e-8 1.5880264322076085e-10 8.881679080128708e-10 7.153921910281232e-10 4.371184475380981e-8 8.57641904601009e-9
          8.392297343750318e-9 9.79104722966853e-9 9.441119200110237e-9 4.638975445859408e-8 3.796790000403607e-8 4.4649632210665097e-10
          7.939844453533918e-10 1.0414797153685913e-9 5.216556275211487e-8 5.609104511031179e-8 5.8703134329542975e-8 2.8077425248378115e-8
          3.259876386554203e-8 6.163283447203955e-8 6.564748157634398e-8 3.1602041014249725e-8 6.065587073426298e-8 5.0638222377327824e-8
          4.1902710295644974e-8 4.058377180564593e-8 6.911287070628128e-8 5.024315466006139e-8 4.833975357191159e-8 1.5244108338221492e-8
          1.3701923698931463e-8 3.7274925759992524e-8 3.336529111834098e-8 1.0716345370899676e-8 3.298702505454793e-8 2.9339817974093016e-8
          9.920093281235977e-9 2.3636201059907155e-8 2.0355472507187964e-8 3.7523632904872944e-8 3.342051497097136e-8 3.0818353341974625e-8
          3.832935504531639e-8 8.943239558688171e-9 7.971190716373258e-9 2.8027673969999813e-8 2.4767483100498065e-8 5.606929876011118e-9
          2.2718138523586497e-8 1.9944045245036978e-8 5.659524853022966e-9 1.681547717031706e-8 1.323269947515729e-8 3.11842573166721e-8
          2.7256290027945843e-8 2.2965643329162298e-8 3.157340132627451e-8 5.953447974795694e-9 1.3077966511307735e-8 4.5608424364668525e-9
          1.0894732281943163e-8 4.226448446760864e-9 8.339187379490609e-9 6.7711304431485045e-9 3.4799398706016236e-8 3.181464676866811e-8
          2.1715071332972863e-8 3.3351701263870187e-9 8.706029042505435e-9 2.3020420291964257e-9 6.640077053702916e-9 2.3504324207864512e-9
          5.288395975373064e-9 3.080756499157571e-9 2.827187373071811e-8 2.4295427756146928e-8 1.631346327132917e-8 1.1160257122431303e-8
          1.0501162705798476e-8 1.2487063644442044e-8 1.1436534291208976e-8 2.8546597918581332e-8 2.8534368866446563e-8 7.495340616655202e-10
          1.34213228174331e-9 1.6468240751931545e-9 9.014314097449775e-9 1.3518783155621006e-8 1.2037337026674848e-8 2.774645660037139e-8
          2.5930931065213004e-8 1.9371594141074282e-9 1.0161119530451239e-8 3.9059334867193006e-8 3.7050885274543255e-8 3.885566000265318e-8
          3.629322552922386e-8 2.9280546360948483e-8 2.836605796349385e-8 4.6733103651581e-8 3.415426240786996e-8 3.036389990721191e-8
          3.282430969161686e-8 2.0537066841487778e-8 2.6650524147541098e-8 2.41758094403446e-8 4.124805237053506e-8 9.984571533825282e-9
          1.1689815254852464e-8 9.415107802653188e-9 1.1157685095969738e-8 7.8901229758864e-9 9.179622503344687e-9 9.460244800973766e-9
          1.3395058975879646e-8 1.2900262389286291e-8 1.0469122030802974e-8 9.84404188311582e-9 1.034395737410003e-8 1.0160324115863827e-8
          1.0741171277196186e-8 9.976690857627626e-9 5.531260687121523e-9 6.232408638004973e-9 6.149250031362025e-9 7.232847828791758e-9
          6.0660914247190755e-9 7.710597606331726e-9 5.123578453802116e-9 5.222944670660953e-9 5.322310887519789e-9 4.914628654200382e-9
          5.2848328864001915e-9 5.563394074445776e-9 4.851741350977023e-9 5.775831724635828e-9 5.841955262491362e-9 7.0477224620852184e-9
          4.337257134795409e-9 4.977538117529529e-9 4.327392736295043e-9 5.617819100263648e-9 7.72746105185361e-9 7.745616991903036e-9
          7.744324497375495e-9 1.0027658877027414e-8 9.850209323117542e-9 9.672759769207669e-9 8.169662325625147e-9 8.07425740647401e-9
          9.056412548123046e-9 8.09334484004767e-9 1.0274778944223494e-8 1.0141187194353471e-8 1.0827520515556244e-8 1.0724717172227812e-8
          1.0007595444483447e-8 1.0621913828899383e-8 7.600710950251039e-9 8.5780665895492e-9 6.975568561020958e-9 9.570467750396706e-9
          8.136077103148503e-9 8.850940239713218e-9 8.064317013524536e-9 9.415564176277082e-9 9.974664413618064e-9 9.242026841638212e-9
          4.462712321738469e-9 5.158945336736723e-9 4.688703872075096e-9 4.745419744359682e-9 6.890819811728209e-9 6.643492734629314e-9
          3.4790014051855545e-10 2.1864631928085125e-9 6.035301684759194e-10 5.689861741490297e-9 2.777754045961793e-9 3.917867474468405e-9
          7.321220951088955e-10 1.9434805711653158e-9 7.079082289727146e-9 6.401149272407203e-9 1.6794010614526585e-10 4.653670398800746e-10
          3.565032218890772e-10 4.796336308732544e-9 8.025530840784666e-9 8.614771029710044e-9 8.117796384959122e-9 8.740672497629593e-9
          7.914984578420827e-9 8.378601819706869e-9 8.171275756393706e-9 9.171990057093916e-9 9.695757661730277e-9 9.232067159936914e-9
          9.724962101197368e-9 8.92841593791075e-9 9.416850909842491e-9 9.222107478235618e-9 1.1422988961523938e-8 1.126922992054685e-8
          1.1799825090010162e-8 1.1115470879569762e-8 1.2493677799378202e-8 1.2329665280545838e-8 1.2840475182910171e-8 1.2165652761713474e-8
          1.1021661848738023e-8 1.3590498619695106e-8 1.3320199479166509e-8 1.3792071929005866e-8 1.248569701747867e-8 1.4639453175569477e-8
          1.4256293508546527e-8 1.4674302170950497e-8 1.3166494455261428e-8 1.1133429979420151e-8 1.1377195429882217e-8 1.0345366262520874e-8
          1.161673738092018e-8 1.1785178673223067e-8 1.0773619692841083e-8 1.1443356090343879e-8 1.1316113435711784e-8 1.2069252667085451e-8
          1.192117153385828e-8 1.118887078107969e-8 1.177309040063111e-8 6.385594424308498e-9 6.343158655184492e-9 6.71921129760841e-9
          7.794636105006983e-9 1.2712537330007501e-8 1.2542077897297516e-8 1.3390484265051963e-8 1.319883883034602e-8 1.237161846458753e-8
          1.2841685846515715e-8 7.168200939132784e-9 7.111174478626359e-9 7.55156795786941e-9 8.741652795036772e-9 1.0556593605784005e-8
          1.1192364516872909e-8 1.0298927446130098e-8 1.1704931730321612e-8 1.0899192712376234e-8 1.19035009492513e-8 1.0638150114865902e-8
          1.1656724859071517e-8 6.459671785716262e-10 8.45762492201148e-10 5.895958611886988e-10 7.793793556612719e-10 4.600235473405875e-9
          3.752476507265021e-9 1.375576769805741e-10 2.8018090280622386e-10 2.531601463608366e-10 3.05943762497923e-9 5.867935812936815e-10
          7.412065178225406e-10 6.464675056158904e-10 7.589479420403559e-10 3.922698780047984e-9 2.63816764906844e-9 2.357471922654856e-10
          3.000934880566397e-10 3.9645915817344885e-10 7.772792481308835e-10 9.170916348091202e-9 8.687598947559367e-9 1.0295468173159112e-8
          1.09935441159662e-8 7.795416362431558e-9 6.186431216639368e-9 1.0292008900188122e-8 9.272915832625659e-9 8.432328000706092e-9
          1.176550921613626e-8 1.2577048145447127e-8 6.640986967214676e-9 7.078264158487891e-9 1.1874293573201004e-8 1.411617726020748e-8
          1.3904917732187953e-8 1.4884817084909599e-8 1.4641683247866726e-8 1.3236056840741155e-8 1.3860059727765929e-8 8.061066414963841e-9
          8.05437585256408e-9 8.587043151453786e-9 7.868656160848505e-9 1.5671951439720046e-8 1.5388538773701524e-8 1.646544605441103e-8
          1.6134975673659035e-8 1.4485147942830176e-8 1.509496635570548e-8 9.157109370357937e-9 9.141651484449e-9 9.737430171203406e-9
          8.911330923078255e-9 1.1954594181958426e-8 1.2432854956593634e-8 1.1130732886602966e-8 1.1544139868479266e-8 1.0149531599578814e-8
          1.0763351057596364e-8 1.2618390873766157e-8 1.2872053722142354e-8 1.3277420535254511e-8 1.187893766630736e-8 1.2169413652005094e-8
          1.1356932037987876e-8 1.1939234817270824e-8 1.409277828362529e-8 7.61478539153765e-10 8.331044208158121e-10 9.15383536972906e-10
          9.55231859821289e-10 1.2504781105630681e-9 1.2857322693703636e-9 3.765341545584093e-10 4.889899056692235e-10 5.81400317872528e-10
          7.239381159753231e-10 1.0844065375368066e-9 1.1143994059644983e-9 1.268205086771398e-9 1.2973736356417654e-9 1.3597942919074388e-9