<?xml version="1.0"?>
<VTKFile type="UnstructuredGrid" version="0.1" byte_order="LittleEndian" header_type="UInt32" compressor="vtkZLibDataCompressor">
  <UnstructuredGrid>
    <Piece NumberOfPoints="1496" NumberOfCells="1079">
      <PointData>
        <DataArray type="Int32" Name="libmesh_node_id" format="ascii" RangeMin="2447" RangeMax="11234">
          2447 2449 2457 2684 2685 2686
          2692 2694 2695 2697 2705 2888
          2889 2890 2894 2895 2896 2897
          3434 3435 3436 3439 3442 3476
          3477 3479 3482 3498 3499 3500
          3501 3502 3503 3504 3505 3506
          3507 3508 3509 3510 3511 3546
          3547 3549 3550 3551 3552 3553
          3555 4599 4600 4601 4604 4607
          4621 4622 4625 4627 4649 4650
          4653 4655 4757 4758 4760 4761
          4762 4763 4764 4773 4775 4776
          4777 4778 4789 4790 4791 4792
          4793 4794 4795 4796 4797 4798
          4806 4807 4808 4809 4810 4811
          4812 4843 4847 4871 4875 4891
          4892 4893 4894 4895 4896 4897
          4898 4899 4900 4901 4902 4903
          4904 4905 4906 4907 4908 4909
          4910 4911 4912 4913 4914 4915
          4916 4918 4919 4920 4921 4922
          4923 4924 4925 4926 4927 4928
          4929 4930 4931 4932 4933 4934
          4935 4936 4937 4938 4987 4988
          4989 4990 4994 4995 4997 4998
          4999 5000 5004 5005 5057 5058
          5059 5060 5061 5062 5063 5064
          5065 5066 5067 5068 5071 5072
          5073 5074 5076 5077 5078 5079
          5080 5081 5082 5083 5084 5085
          5086 5087 5088 5089 5090 5091
          5092 5093 5094 5095 5096 5097
          5098 5099 5100 5101 5102 5105
          5107 5108 5110 5111 5112 5113
          5114 5115 5116 5117 5118 5119
          5120 5121 5122 5123 5124 5193
          5194 5197 5198 5200 5201 5204
          5205 5221 5222 5225 5226 5228
          5232 6224 6225 6226 6229 6230
          6231 6232 6233 6234 6235 6236
          6237 6238 6239 6291 6292 6293
          6296 6306 6307 6310 6311 6312
          6313 6314 6315 6316 6317 6318
          6319 6320 6321 6322 6323 6324
          6325 6326 6327 6328 6329 6330
          6331 6332 6333 6334 6335 6336
          6337 6338 6339 6340 6341 6342
          6343 6344 7821 7822 7823 7826
          7829 7843 7844 7847 7849 7863
          7864 7866 7869 7879 7881 7883
          7945 7946 7949 7951 7965 7966
          7969 7971 7981 7983 7985 7995
          7997 7999 8041 8042 8045 8047
          8061 8062 8067 8413 8414 8416
          8419 8429 8431 8433 8443 8445
          8446 8447 8448 8449 8450 8451
          8452 8453 8454 8460 8462 8463
          8464 8465 8466 8467 8468 8517
          8519 8521 8531 8533 8535 8542
          8544 8545 8546 8547 8548 8549
          8550 8556 8558 8559 8560 8561
          8562 8563 8564 8635 8636 8638
          8641 8643 8644 8645 8646 8647
          8648 8649 8650 8651 8652 8654
          8656 8658 8660 8661 8662 8663
          8664 8665 8666 8669 8670 8672
          8675 8677 8678 8679 8680 8681
          8682 8683 8684 8685 8686 8688
          8690 8692 8694 8695 8696 8697
          8698 8699 8700 8748 8750 8752
          8754 8755 8756 8757 8758 8759
          8760 8762 8764 8766 8768 8769
          8770 8771 8772 8773 8774 8776
          8778 8780 8782 8783 8784 8785
          8786 8787 8788 8790 8792 8794
          8796 8797 8798 8799 8800 8801
          8802 8851 8853 8855 8865 8869
          8878 8879 8881 8882 8883 8893
          8897 9052 9053 9055 9056 9057
          9067 9071 9080 9081 9083 9084
          9085 9095 9099 9197 9198 9199
          9200 9201 9202 9203 9204 9205
          9206 9207 9208 9209 9210 9211
          9212 9213 9214 9215 9216 9217
          9218 9219 9220 9221 9222 9223
          9224 9225 9226 9227 9228 9229
          9230 9231 9232 9233 9234 9235
          9236 9237 9238 9239 9240 9241
          9242 9243 9244 9245 9246 9247
          9248 9249 9250 9251 9252 9253
          9254 9255 9256 9257 9258 9259
          9260 9261 9262 9263 9264 9265
          9266 9267 9268 9269 9270 9271
          9272 9273 9274 9275 9276 9277
          9278 9279 9280 9281 9282 9283
          9284 9285 9286 9287 9288 9289
          9290 9291 9292 9293 9294 9295
          9296 9297 9298 9299 9300 9301
          9302 9303 9304 9305 9306 9307
          9308 9309 9310 9311 9312 9313
          9314 9315 9316 9317 9318 9319
          9320 9321 9322 9323 9324 9325
          9326 9327 9328 9329 9330 9331
          9332 9333 9334 9335 9336 9337
          9338 9341 9343 9344 9346 9347
          9348 9349 9350 9351 9352 9353
          9354 9356 9357 9358 9360 9361
          9362 9363 9364 9365 9366 9367
          9368 9369 9370 9371 9372 9373
          9374 9375 9376 9377 9378 9379
          9380 9381 9382 9383 9384 9385
          9386 9387 9388 9389 9390 9391
          9392 9393 9394 9395 9396 9397
          9398 9399 9400 9401 9402 9403
          9404 9405 9406 9407 9408 9409
          9410 9411 9412 9413 9414 9415
          9416 9417 9418 9419 9420 9421
          9422 9423 9424 9425 9426 9427
          9428 9429 9430 9431 9432 9433
          9434 9435 9436 9437 9438 9439
          9440 9441 9442 9443 9444 9445
          9446 9447 9448 9449 9450 9451
          9452 9453 9454 9455 9456 9457
          9458 9459 9460 9461 9462 9463
          9464 9465 9466 9467 9468 9469
          9470 9471 9472 9473 9474 9475
          9686 9687 9688 9689 9690 9691
          9692 9693 9694 9695 9696 9697
          9698 9699 9700 9701 9702 9703
          9704 9705 9706 9707 9708 9710
          9711 9713 9716 9718 9726 9727
          9728 9729 9730 9731 9732 9733
          9734 9735 9736 9737 9738 9739
          9740 9741 9742 9743 9744 9745
          9746 9748 9756 9758 9896 9897
          9898 9899 9900 9901 9902 9903
          9904 9905 9906 9907 9908 9909
          9910 9911 9912 9913 9914 9915
          9916 9917 9918 9919 9920 9921
          9922 9923 9924 9925 9926 9927
          9928 9929 9930 9931 9932 9933
          9934 9935 9936 9937 9938 9939
          9940 9941 9942 9943 9944 9945
          9946 9947 9948 9949 9950 9951
          9952 9953 9954 9955 9956 9957
          9958 9959 9960 9961 9962 9963
          9964 9965 9966 9967 9968 9969
          9970 9971 9972 9973 9974 9975
          9978 9980 9981 9983 9984 9985
          9986 9987 9988 9989 9990 9991
          9993 9994 9995 9997 9998 9999
          10000 10001 10002 10003 10004 10005
          10006 10007 10008 10009 10012 10014
          10015 10017 10018 10019 10020 10021
          10022 10023 10024 10025 10027 10028
          10029 10031 10032 10033 10034 10035
          10036 10037 10038 10039 10040 10041
          10042 10043 10044 10045 10046 10047
          10048 10049 10050 10051 10052 10053
          10054 10055 10056 10057 10058 10059
          10060 10061 10062 10063 10064 10065
          10066 10067 10068 10069 10070 10071
          10072 10073 10074 10075 10076 10077
          10078 10079 10080 10081 10082 10083
          10084 10085 10086 10087 10088 10089
          10090 10091 10092 10093 10094 10095
          10096 10097 10098 10099 10100 10101
          10102 10103 10104 10105 10106 10107
          10108 10109 10110 10111 10112 10113
          10114 10115 10116 10117 10118 10119
          10120 10121 10122 10123 10124 10125
          10126 10127 10128 10129 10130 10131
          10132 10133 10134 10135 10136 10137
          10138 10139 10140 10141 10142 10143
          10144 10145 10146 10147 10148 10149
          10150 10151 10152 10153 10154 10155
          10156 10157 10158 10159 10160 10161
          10162 10163 10164 10165 10166 10167
          10168 10169 10170 10171 10172 10173
          10174 10175 10176 10177 10178 10179
          10180 10181 10182 10183 10184 10185
          10186 10187 10188 10189 10190 10191
          10192 10193 10194 10195 10196 10197
          10198 10199 10200 10201 10202 10203
          10204 10205 10206 10207 10208 10209
          10210 10211 10212 10213 10214 10215
          10216 10217 10218 10219 10220 10221
          10222 10223 10226 10228 10229 10231
          10232 10233 10234 10235 10236 10237
          10238 10239 10241 10243 10245 10246
          10247 10248 10249 10250 10251 10252
          10253 10254 10255 10256 10257 10260
          10262 10263 10265 10266 10267 10268
          10269 10270 10271 10272 10273 10275
          10277 10279 10280 10281 10282 10283
          10284 10285 10286 10287 10288 10289
          10290 10291 10292 10293 10294 10295
          10296 10297 10298 10299 10300 10301
          10302 10303 10304 10305 10306 10307
          10308 10309 10310 10311 10312 10313
          10314 10315 10316 10317 10318 10319
          10320 10321 10322 10323 10324 10325
          10326 10327 10328 10329 10330 10331
          10332 10333 10334 10335 10336 10337
          10338 10339 10340 10341 10342 10343
          10344 10345 10346 10347 10348 10349
          10350 10351 10352 10353 10354 10355
          10356 10357 10358 10359 10360 10361
          10362 10363 10364 10365 10366 10367
          10368 10369 10370 10371 10372 10373
          10374 10375 10376 10377 10378 10379
          10380 10381 10382 10383 10384 10385
          10386 10387 10388 10389 10390 10391
          10888 10889 10890 10891 10892 10893
          10894 10895 10896 10897 10898 10899
          10900 10901 10902 10906 10916 10917
          10918 10919 10920 10921 10922 10923
          10924 10925 10926 10927 10928 10929
          10930 10934 10944 10945 10946 10947
          10948 10949 10950 10951 10952 10953
          10954 10955 10956 10957 10972 10973
          10974 10975 10976 10977 10978 10979
          10980 10981 10982 10983 10984 10985
          11124 11125 11126 11127 11128 11129
          11130 11131 11132 11133 11134 11135
          11136 11137 11138 11142 11152 11153
          11154 11155 11156 11157 11158 11159
          11160 11161 11162 11163 11164 11165
          11166 11170 11180 11181 11182 11183
          11184 11185 11186 11187 11188 11189
          11191 11192 11193 11208 11209 11210
          11211 11212 11213 11214 11215 11216
          11217 11219 11220 11221 2902 2893
          2701 2450 3526 3456 3527 3457
          3528 3529 4991 4992 4993 5001
          5002 5003 9709 9712 9714 9717
          9719 9720 9721 9722 9723 9724
          9747 9749 9750 9751 9752 9753
          9754 9757 9759 9760 9761 9762
          9763 9764 10903 10907 10909 10910
          10913 10914 10931 10935 10937 10938
          10941 10942 10958 10959 10962 10963
          10965 10966 10969 10970 10986 10987
          10990 10991 10993 10994 10997 10998
          11139 11143 11145 11146 11149 11150
          11167 11171 11173 11174 11177 11178
          11190 5229 11194 11195 11198 11199
          11201 11202 11205 11206 11218 5233
          11222 11223 11226 11227 11229 11230
          11233 11234
        </DataArray>
        <DataArray type="Float64" Name="bounds" format="ascii" RangeMin="0" RangeMax="0">
          0 0 0 0 0 0
          0 0 0 0 0 0
          0 0 0 0 0 0
          0 0 0 0 0 0
          0 0 0 0 0 0
          0 0 0 0 0 0
          0 0 0 0 0 0
          0 0 0 0 0 0
          0 0 0 0 0 0
          0 0 0 0 0 0
          0 0 0 0 0 0
          0 0 0 0 0 0
          0 0 0 0 0 0
          0 0 0 0 0 0
          0 0 0 0 0 0
          0 0 0 0 0 0
          0 0 0 0 0 0
          0 0 0 0 0 0
          0 0 0 0 0 0
          0 0 0 0 0 0
          0 0 0 0 0 0
          0 0 0 0 0 0
          0 0 0 0 0 0
          0 0 0 0 0 0
          0 0 0 0 0 0
          0 0 0 0 0 0
          0 0 0 0 0 0
          0 0 0 0 0 0
          0 0 0 0 0 0
          0 0 0 0 0 0
          0 0 0 0 0 0
          0 0 0 0 0 0
          0 0 0 0 0 0
          0 0 0 0 0 0
          0 0 0 0 0 0
          0 0 0 0 0 0
          0 0 0 0 0 0
          0 0 0 0 0 0
          0 0 0 0 0 0
          0 0 0 0 0 0
          0 0 0 0 0 0
          0 0 0 0 0 0
          0 0 0 0 0 0
          0 0 0 0 0 0
          0 0 0 0 0 0
          0 0 0 0 0 0
          0 0 0 0 0 0
          0 0 0 0 0 0
          0 0 0 0 0 0
          0 0 0 0 0 0
          0 0 0 0 0 0
          0 0 0 0 0 0
          0 0 0 0 0 0
          0 0 0 0 0 0
          0 0 0 0 0 0
          0 0 0 0 0 0
          0 0 0 0 0 0
          0 0 0 0 0 0
          0 0 0 0 0 0
          0 0 0 0 0 0
          0 0 0 0 0 0
          0 0 0 0 0 0
          0 0 0 0 0 0
          0 0 0 0 0 0
          0 0 0 0 0 0
          0 0 0 0 0 0
          0 0 0 0 0 0
          0 0 0 0 0 0
          0 0 0 0 0 0
          0 0 0 0 0 0
          0 0 0 0 0 0
          0 0 0 0 0 0
          0 0 0 0 0 0
          0 0 0 0 0 0
          0 0 0 0 0 0
          0 0 0 0 0 0
          0 0 0 0 0 0
          0 0 0 0 0 0
          0 0 0 0 0 0
          0 0 0 0 0 0
          0 0 0 0 0 0
          0 0 0 0 0 0
          0 0 0 0 0 0
          0 0 0 0 0 0
          0 0 0 0 0 0
          0 0 0 0 0 0
          0 0 0 0 0 0
          0 0 0 0 0 0
          0 0 0 0 0 0
          0 0 0 0 0 0
          0 0 0 0 0 0
          0 0 0 0 0 0
          0 0 0 0 0 0
          0 0 0 0 0 0
          0 0 0 0 0 0
          0 0 0 0 0 0
          0 0 0 0 0 0
          0 0 0 0 0 0
          0 0 0 0 0 0
          0 0 0 0 0 0
          0 0 0 0 0 0
          0 0 0 0 0 0
          0 0 0 0 0 0
          0 0 0 0 0 0
          0 0 0 0 0 0
          0 0 0 0 0 0
          0 0 0 0 0 0
          0 0 0 0 0 0
          0 0 0 0 0 0
          0 0 0 0 0 0
          0 0 0 0 0 0
          0 0 0 0 0 0
          0 0 0 0 0 0
          0 0 0 0 0 0
          0 0 0 0 0 0
          0 0 0 0 0 0
          0 0 0 0 0 0
          0 0 0 0 0 0
          0 0 0 0 0 0
          0 0 0 0 0 0
          0 0 0 0 0 0
          0 0 0 0 0 0
          0 0 0 0 0 0
          0 0 0 0 0 0
          0 0 0 0 0 0
          0 0 0 0 0 0
          0 0 0 0 0 0
          0 0 0 0 0 0
          0 0 0 0 0 0
          0 0 0 0 0 0
          0 0 0 0 0 0
          0 0 0 0 0 0
          0 0 0 0 0 0
          0 0 0 0 0 0
          0 0 0 0 0 0
          0 0 0 0 0 0
          0 0 0 0 0 0
          0 0 0 0 0 0
          0 0 0 0 0 0
          0 0 0 0 0 0
          0 0 0 0 0 0
          0 0 0 0 0 0
          0 0 0 0 0 0
          0 0 0 0 0 0
          0 0 0 0 0 0
          0 0 0 0 0 0
          0 0 0 0 0 0
          0 0 0 0 0 0
          0 0 0 0 0 0
          0 0 0 0 0 0
          0 0 0 0 0 0
          0 0 0 0 0 0
          0 0 0 0 0 0
          0 0 0 0 0 0
          0 0 0 0 0 0
          0 0 0 0 0 0
          0 0 0 0 0 0
          0 0 0 0 0 0
          0 0 0 0 0 0
          0 0 0 0 0 0
          0 0 0 0 0 0
          0 0 0 0 0 0
          0 0 0 0 0 0
          0 0 0 0 0 0
          0 0 0 0 0 0
          0 0 0 0 0 0
          0 0 0 0 0 0
          0 0 0 0 0 0
          0 0 0 0 0 0
          0 0 0 0 0 0
          0 0 0 0 0 0
          0 0 0 0 0 0
          0 0 0 0 0 0
          0 0 0 0 0 0
          0 0 0 0 0 0
          0 0 0 0 0 0
          0 0 0 0 0 0
          0 0 0 0 0 0
          0 0 0 0 0 0
          0 0 0 0 0 0
          0 0 0 0 0 0
          0 0 0 0 0 0
          0 0 0 0 0 0
          0 0 0 0 0 0
          0 0 0 0 0 0
          0 0 0 0 0 0
          0 0 0 0 0 0
          0 0 0 0 0 0
          0 0 0 0 0 0
          0 0 0 0 0 0
          0 0 0 0 0 0
          0 0 0 0 0 0
          0 0 0 0 0 0
          0 0 0 0 0 0
          0 0 0 0 0 0
          0 0 0 0 0 0
          0 0 0 0 0 0
          0 0 0 0 0 0
          0 0 0 0 0 0
          0 0 0 0 0 0
          0 0 0 0 0 0
          0 0 0 0 0 0
          0 0 0 0 0 0
          0 0 0 0 0 0
          0 0 0 0 0 0
          0 0 0 0 0 0
          0 0 0 0 0 0
          0 0 0 0 0 0
          0 0 0 0 0 0
          0 0 0 0 0 0
          0 0 0 0 0 0
          0 0 0 0 0 0
          0 0 0 0 0 0
          0 0 0 0 0 0
          0 0 0 0 0 0
          0 0 0 0 0 0
          0 0 0 0 0 0
          0 0 0 0 0 0
          0 0 0 0 0 0
          0 0 0 0 0 0
          0 0 0 0 0 0
          0 0 0 0 0 0
          0 0 0 0 0 0
          0 0 0 0 0 0
          0 0 0 0 0 0
          0 0 0 0 0 0
          0 0 0 0 0 0
          0 0 0 0 0 0
          0 0 0 0 0 0
          0 0 0 0 0 0
          0 0 0 0 0 0
          0 0 0 0 0 0
          0 0 0 0 0 0
          0 0 0 0 0 0
          0 0 0 0 0 0
          0 0 0 0 0 0
          0 0 0 0 0 0
          0 0 0 0 0 0
          0 0 0 0 0 0
          0 0 0 0 0 0
          0 0 0 0 0 0
          0 0 0 0 0 0
          0 0 0 0 0 0
          0 0 0 0 0 0
          0 0 0 0 0 0
          0 0 0 0 0 0
          0 0 0 0 0 0
          0 0 0 0 0 0
          0 0 0 0 0 0
          0 0
        </DataArray>
        <DataArray type="Float64" Name="gradient_error" format="ascii" RangeMin="4.285947376786276e-12" RangeMax="3.5656831749998286e-9">
          1.6718215601123158e-11 6.963677610007873e-11 1.3109044031542037e-9 1.7592643412507036e-10 3.5967933318213466e-10 1.445078253530176e-10
          1.5920984878250725e-9 1.3491084164132315e-11 4.5889601459598136e-11 3.997445064802693e-11 7.900418269172649e-10 1.5312067023782574e-11
          2.1060355631484783e-11 8.276689218027126e-11 8.27975266717233e-12 7.2407599968789425e-12 5.777949266332553e-12 2.027653561717289e-11
          6.025705725482618e-11 9.820420353037928e-11 8.138911786102015e-11 1.5115220375674745e-10 2.866895161464779e-10 2.347520142616636e-9
          1.8338351980681053e-9 8.92594877238597e-10 2.176265089328217e-9 3.136434457211626e-11 2.7042374466749467e-11 4.777864658723545e-11
          3.905936672787365e-11 2.052090334242031e-11 2.161429006846628e-11 3.166889744734449e-11 6.490157639608804e-11 1.0225830503802446e-10
          5.5460183839799476e-11 2.080338118740004e-10 1.636641060185406e-10 8.417739082074455e-11 7.970661714818298e-11 1.6639468544160717e-9
          1.2939936365778753e-9 8.277050183197486e-10 6.002369991245721e-10 3.5904315780514593e-10 1.706513624861107e-9 1.876784297456916e-9
          1.1724008447923137e-9 9.368617459396632e-11 1.1571910025886343e-10 1.0958815945464803e-10 9.30475314919847e-11 3.398870938735007e-10
          6.22987285218495e-11 7.059994080775425e-11 8.48829042435143e-11 2.157052554597426e-10 1.4540038719664025e-10 9.149357140928562e-11
          5.3373885011182686e-11 8.63733724308572e-11 9.821707789125676e-10 9.279253210371135e-10 7.815887813757433e-10 2.6684106593960845e-9
          2.520933708392069e-9 2.206717411636774e-9 2.111505870184376e-9 5.847767328333439e-10 3.865864143752656e-10 1.5717665835229363e-9
          1.3576924304576724e-9 1.0488186042807826e-9 3.5656831749998286e-9 3.5058605843183855e-9 3.441056009877832e-9 3.378306779629365e-9
          3.2617855645517096e-9 3.061568361864564e-9 1.541814608097397e-9 1.6314773150239344e-9 1.5820328103469004e-9 2.1213594131033615e-9
          2.6240267818889594e-9 2.3302795878545826e-9 1.7388372127638412e-9 1.5271060845684102e-9 2.3979664555098172e-9 2.1943211077432624e-9
          1.8234349084600223e-9 2.2513700666766708e-10 5.122381327986444e-10 8.955639438744494e-10 1.0092419285188833e-9 6.896398645003028e-11
          6.581623471613402e-11 8.51303239847535e-11 8.053424132863663e-11 4.553500286037892e-11 6.126388093009125e-11 5.791240894839843e-11
          5.6865229029417423e-11 6.813188377697243e-11 4.885632977000288e-11 2.7717067546896234e-10 2.6144845610481133e-10 1.9592688106168613e-10
          2.1939049352198752e-10 3.248673865280114e-11 3.0660047591563917e-11 4.307205174502322e-11 4.0682216138633475e-11 1.989599581701915e-11
          2.9576212785295386e-11 2.789990397652618e-11 2.5853662135612776e-11 3.420626358328266e-11 3.042409806979356e-11 1.5197586772743905e-10
          1.4293581423999893e-10 1.189633308513581e-10 6.120788348207583e-11 6.716130208604279e-11 6.033457011867224e-11 6.465111385920971e-11
          8.964764772311214e-11 7.811044460418968e-11 7.30552329836248e-11 1.6373202874536968e-10 1.2126687191302022e-10 1.0856661472043552e-10
          4.122815582864497e-11 4.539897377130488e-11 4.230588240185423e-11 3.8406110516333825e-11 6.089997692150484e-11 5.1295666830479705e-11
          3.472080703581692e-11 8.75737600510644e-11 6.164172416939158e-11 5.7126370769285904e-11 1.0359259667299282e-10 6.54453011602771e-11
          7.328607605712228e-11 4.63206192448995e-11 6.418512264877663e-11 4.6714098983137827e-11 5.091231516068299e-11 3.221502095998532e-11
          3.43012020956679e-11 2.1733198671862266e-11 3.323693690619416e-11 2.3112196251637712e-11 8.023200531684617e-10 7.562407976563863e-10
          6.372695682973348e-10 5.993031094908265e-10 6.324967095517108e-10 4.977968591365924e-10 2.0026380869190827e-9 1.878921110431477e-9
          1.5616188385770018e-9 1.5576215393368794e-9 4.9165647212767e-10 4.612903717706513e-10 3.8051394407525256e-10 2.8214075431735666e-10
          1.354894770585693e-9 1.2715712088911865e-9 1.0496175073825605e-9 4.677032017671649e-10 3.6395670635696245e-10 3.044054238236735e-10
          2.3348105418705444e-10 1.1466925629083996e-9 9.445457598200875e-10 7.418810229150856e-10 2.7519839146952803e-10 2.0202186204169912e-10
          1.7422530209233227e-10 1.2643759319328172e-10 7.568099685548181e-10 5.878288083192473e-10 4.715486883634086e-10 3.313586426746955e-9
          3.1907273078079623e-9 2.960103275165991e-9 2.7901512345495358e-9 2.732390518432776e-9 2.3121223851875233e-9 1.5070592852540023e-9
          1.7861820616259604e-9 1.8117048587666036e-9 2.124868976795896e-9 2.4532174410124642e-9 2.300641727075345e-9 1.9035109297112296e-9
          1.5210456229608903e-9 1.580046194941614e-9 1.5468883413026183e-9 2.0049014887882067e-9 1.6935432940311546e-9 1.3178841618100578e-9
          1.1130300199849994e-9 1.9025308705355974e-9 1.5872429671204352e-9 1.3745571264034806e-9 1.4129935750083072e-9 1.1529655834757519e-9
          9.146649080921277e-10 7.282203245483099e-10 1.3200436182878399e-9 1.0964378350579378e-9 9.772322501457437e-10 1.7419406705797657e-10
          1.3154780658725107e-10 4.1582204995071265e-10 3.2860319991547183e-10 9.684227237147822e-11 6.948629695688002e-11 2.524082361983023e-10
          1.8835222469211432e-10 7.569916465656621e-10 6.22713287175453e-10 8.623493941447335e-10 7.176477460638726e-10 4.973232818974494e-10
          5.800214950566304e-10 2.5214867075722877e-11 5.844119951572479e-11 5.3471195832293295e-11 4.8501192148861805e-11 7.833976363523926e-12
          9.433565090618258e-12 2.464067000580232e-11 2.2517751037071412e-11 4.285947376786276e-12 1.0240547247060014e-11 9.438197689119714e-12
          1.1033153817712588e-11 2.03948320683405e-11 8.635848131179416e-12 4.3744217541458076e-11 9.888558823389837e-11 9.446876100387594e-11
          8.269978865226701e-11 3.710688159788539e-11 6.66572148459322e-11 5.796678616118391e-11 3.127148186839482e-11 2.990421760021205e-11
          6.873883155073616e-11 6.571827116831079e-11 2.0562174131774e-11 4.730559633536047e-11 4.527291844229637e-11 2.655559917150846e-11
          5.725556967229866e-11 3.9257780621865886e-11 1.439112958738022e-11 1.4365468280275099e-11 3.206894387265387e-11 3.060718297300121e-11
          1.0428481224963087e-11 2.1376285207220553e-11 2.02486227795319e-11 1.3698459386838055e-11 2.6331996755494077e-11 1.8878077126152193e-11
          2.5185428835408736e-11 4.5049958034178014e-11 1.744843939679814e-11 3.0500202098246676e-11 2.5796612659829825e-11 3.828648750964412e-11
          2.572508350199386e-11 1.2910410925320642e-11 2.0512393546580076e-11 1.151189891150541e-11 1.6333694230540436e-11 1.2763710050135148e-11
          1.7506215655520562e-11 1.4275077786310802e-11 4.385136107709322e-11 6.336155604010324e-11 6.252850369938442e-11 6.00968715304156e-11
          1.1415543765639244e-10 3.9568808376351374e-11 5.626923026513809e-11 5.128707919554192e-11 1.0237329218938338e-10 2.0670721590871423e-10
          2.0384606918135123e-10 1.9549554149083137e-10 3.546290151871302e-10 1.8232329466643083e-10 1.653722661317502e-10 3.16634479328496e-10
          3.2247242869091194e-11 4.545693995437512e-11 3.933877678492729e-11 8.224182284070768e-11 2.5789679452087968e-11 3.3205023534161345e-11
          3.011238384424507e-11 5.843425551174111e-11 1.4592869083411946e-10 1.2519698136910683e-10 2.5227240341799853e-10 1.0454443329072129e-10
          8.483252531564093e-11 1.7914418319879195e-10 4.897892212193775e-11 6.678847728810872e-11 5.119857889251903e-11 1.1327849266299068e-10
          2.8361387434298584e-11 3.8387545011887885e-11 6.413439312873056e-11 6.056180125999262e-10 5.970866290796168e-10 5.721683798790336e-10
          9.68336324856591e-10 5.328118313599108e-10 4.820126349301038e-10 8.640775872683699e-10 2.6310426858347426e-9 1.663502049019904e-9
          1.6397074773704005e-9 1.537109198599575e-9 1.514958537319257e-9 1.57063561758888e-9 1.4505019928741671e-9 2.5117366962890755e-9
          2.4752571284264037e-9 2.311595451133388e-9 2.3672340284982696e-9 2.34360012033584e-9 1.4624762088425832e-9 1.3492849412488806e-9
          1.3238507061916108e-9 1.219373990490604e-9 2.194693401048218e-9 2.042265964918912e-9 1.973185692844754e-9 4.234613018344636e-10
          3.611271724338743e-10 6.863633475780141e-10 2.988500305101659e-10 2.3995668239785077e-10 4.830282562279069e-10 1.8465741496586979e-9
          1.1646282013406457e-9 1.0700991311251918e-9 9.94880868207354e-10 9.11127940454914e-10 1.723384564333443e-9 1.600104419944088e-9
          1.4646174962267795e-9 1.302692538132617e-9 8.243076044652391e-10 7.518709500019698e-10 6.616733984608757e-10 6.00662911597647e-10
          1.2103927868868977e-9 1.1185974179417157e-9 9.701346957765267e-10 3.5435218173963734e-9 3.502867513245141e-9 3.3812869442269786e-9
          3.55011459848123e-9 3.399287408936594e-9 3.35903423746596e-9 3.2494454264186408e-9 3.2089864677311613e-9 3.2388382680711942e-9
          3.0864710711594347e-9 3.491611255479186e-9 3.481559871816976e-9 3.4278864090262618e-9 3.441662879698059e-9 3.1811594033649674e-9
          2.9049298010010587e-9 3.4203063891666122e-9 3.03849413814315e-9 2.8806168303409288e-9 2.758390014662002e-9 2.5968880557023812e-9
          3.348024645099723e-9 3.2677935440523487e-9 3.1734900877621536e-9 2.3828722735025475e-9 2.397487519000565e-9 2.4438082842116404e-9
          1.564314337794872e-9 2.2977432892258912e-9 2.321046900965894e-9 2.2615694055847334e-9 2.3016170074556556e-9 2.402602461963671e-9
          2.4097968362317883e-9 1.3986045923705583e-9 1.4282979822912994e-9 1.380989792136233e-9 1.5617104483963455e-9 2.5457700223788615e-9
          2.6722296564079534e-9 1.8191198351527116e-9 2.5362567477664683e-9 2.5518962862058537e-9 2.6635984750987237e-9 2.6480105313297494e-9
          1.8282337903286708e-9 1.8805462842829142e-9 2.1460766910297233e-9 2.558106488984945e-9 2.167534078802843e-9 3.0014361212781934e-9
          2.411880719614948e-9 2.2564897867795543e-9 2.033862639278785e-9 1.8971388765126077e-9 2.8840512142302525e-9 2.7383870817754405e-9
          2.4840698919735216e-9 1.7791510326161475e-9 1.4246480448319243e-9 2.1737219532791185e-9 1.6664636559964614e-9 1.553482268184698e-9
          1.331924894135809e-9 1.2390165009185552e-9 2.0429942009884894e-9 1.909093759753574e-9 1.6329358679651925e-9 2.7178652143066156e-9
          2.580701951110256e-9 2.365537936285452e-9 2.667383360084445e-9 2.585043975188565e-9 2.4710536050735557e-9 2.3364797082041565e-9
          2.346290379082229e-9 2.30197425745095e-9 2.310128882348947e-9 2.2495844999848868e-9 1.8411540023569966e-9 2.1800651850232085e-9
          2.118438054923788e-9 1.9784681358691714e-9 1.7267866160323807e-9 1.6134542817255634e-9 2.0549805965384945e-9 1.918456258062228e-9
          1.7071409936888932e-9 1.8697350026870547e-10 1.4146222435821492e-10 2.997126474632421e-10 1.040154775330019e-10 1.6398624209722956e-10
          5.13999025496263e-10 4.6409389818412483e-10 3.4663644001243585e-10 7.522937299362061e-10 6.883678204596384e-10 2.503851628583296e-10
          3.675868029196141e-10 1.0335035390608165e-9 9.568581906891545e-10 7.122206227338979e-10 1.2762581591268434e-9 1.1910600515759212e-9
          5.098323953140427e-10 6.453842903825239e-10 1.3762549560166913e-9 1.2881783359804918e-9 9.912089318449576e-10 1.3800915853601704e-9
          1.2919678583756485e-9 7.269179030986376e-10 7.48532123141305e-10 3.762335682923946e-11 3.714438076949061e-11 5.3968272347567464e-11
          5.3258108466115524e-11 3.13267349947025e-11 4.575663110502993e-11 4.515532387420787e-11 3.570823537913042e-11 5.1163451563418005e-11
          4.3362739649404536e-11 9.950787349045376e-11 9.814922074476997e-11 8.395737619765356e-11 9.41818798529579e-11 2.6621096515418747e-11
          2.6287567492655753e-11 3.8598222280686185e-11 3.808807959396898e-11 2.1945275775332892e-11 3.238496942143132e-11 3.195398432134014e-11
          2.5253765914533307e-11 3.656836858160794e-11 3.0678059863440335e-11 7.242626341439238e-11 7.142102948314702e-11 6.040799640822889e-11
          6.848827583044576e-11 3.340681993719206e-11 4.7842968270882296e-11 2.8084207928362644e-11 4.049750325434885e-11 3.059923011732186e-11
          4.3617026306369923e-11 3.694884315833963e-11 8.792266740214478e-11 7.513845410055534e-11 7.981214687779542e-11 2.3562025097029313e-11
          3.414271483316358e-11 1.97025101230149e-11 2.865225995056616e-11 2.162406689740439e-11 3.1141555121777686e-11 2.6117857310646574e-11
          6.386559283549085e-11 5.3979206967862254e-11 5.7855394849014754e-11 1.7971868768074105e-10 1.7719918974156373e-10 1.5535234030982538e-10
          1.5314957449311975e-10 1.6984926143473588e-10 1.467259030127588e-10 3.167521791628942e-10 3.1223169063021877e-10 2.731555133337827e-10
          2.9904379383611545e-10 1.33474867357148e-10 1.315626009808881e-10 1.1396753421570161e-10 1.1231909357083207e-10 1.259889068096263e-10
          1.075179133414879e-10 2.409351083681857e-10 2.3739631321605876e-10 2.0493901672577537e-10 2.2708451042504431e-10 1.5826215990926106e-10
          1.3660538189530938e-10 1.433571489780616e-10 1.235712684828807e-10 2.7826538635680304e-10 2.4302162241697577e-10 2.515656642610906e-10