<?xml version="1.0"?>
<VTKFile type="UnstructuredGrid" version="0.1" byte_order="LittleEndian" header_type="UInt32" compressor="vtkZLibDataCompressor">
  <UnstructuredGrid>
    <Piece NumberOfPoints="551" NumberOfCells="295">
      <PointData>
        <DataArray type="Int32" Name="libmesh_node_id" format="ascii" RangeMin="0" RangeMax="5022">
          0 1 2 3 4 5
          6 7 8 9 10 11
          12 13 14 15 16 17
          18 19 20 21 22 23
          24 25 26 27 28 29
          30 31 32 33 34 35
          36 37 38 39 40 41
          42 43 44 45 46 47
          48 49 50 51 52 53
          54 55 56 57 58 59
          60 61 62 63 64 65
          66 67 68 69 70 71
          72 73 74 75 76 77
          78 79 80 81 82 83
          84 85 86 87 88 89
          90 91 92 93 94 95
          96 97 98 99 100 101
          102 103 104 105 106 107
          108 109 110 111 112 113
          114 115 116 117 118 119
          120 121 122 123 124 125
          126 127 128 129 130 131
          132 133 134 135 136 137
          138 139 140 141 142 143
          144 145 146 147 148 149
          150 151 152 153 154 155
          157 159 161 162 163 164
          165 166 167 168 169 170
          171 172 173 174 175 176
          177 178 179 180 181 182
          183 184 185 186 187 189
          191 198 199 200 201 202
          203 207 208 209 210 211
          212 216 217 218 219 220
          221 222 223 234 235 236
          237 238 239 243 244 245
          246 247 248 253 254 259
          262 263 264 265 300 301
          302 305 306 307 308 311
          388 389 390 391 392 393
          394 395 396 397 398 399
          400 401 422 423 424 425
          426 427 428 429 430 431
          432 433 434 435 4679 4680
          4681 4682 4683 4684 4685 4686
          4687 4688 4689 4690 4691 4692
          4693 4694 4695 4696 4697 4698
          4699 4700 4701 4702 4703 4704
          4705 4706 4707 4708 4709 4710
          4711 4712 4713 4714 4715 4716
          4717 4718 4719 4720 4721 4722
          4723 4724 4725 4726 4727 4728
          4729 4730 4731 4732 4733 4734
          4735 4736 4737 4738 4739 4740
          4741 4742 4743 4744 4745 4746
          4747 4748 4749 4750 4751 4752
          4753 4754 4755 4756 4757 4758
          4759 4760 4761 4762 4763 4764
          4765 4766 4767 4768 4769 4770
          4773 4774 4777 4783 4787 4799
          4802 4806 4810 4820 4822 4827
          4830 4839 4840 4841 4842 4843
          4844 4845 4846 4847 4848 4849
          4850 4851 4852 4853 4854 4855
          4856 4857 4858 4859 4860 4861
          4862 4863 4864 4865 4866 4867
          4868 4869 4870 4871 4872 4873
          4874 4875 4876 4877 4878 4879
          4880 4881 4882 4883 4884 4885
          4886 4887 4888 4889 4890 4891
          4892 4893 4894 4895 4896 4897
          4898 4899 4900 4901 4902 4903
          4904 4905 4906 4907 4908 4909
          4910 4911 4912 4913 4914 4915
          4916 4917 4918 4919 4920 4921
          4922 4923 4924 4925 4926 4927
          4928 4929 4930 4931 4932 4933
          4934 4935 4936 4937 4938 4939
          4940 4941 4942 4943 4944 4945
          4946 4947 4948 4949 4950 4951
          4952 4953 4954 4955 4956 4957
          4958 4959 4960 4961 4962 4963
          4964 4965 4966 4967 4968 4969
          4970 4971 4972 4973 4974 4975
          4976 4977 4978 4979 4980 4981
          4982 4983 4984 4985 4986 4987
          4988 4989 4990 4991 4992 4993
          4994 4995 4996 4997 4998 4999
          5000 5001 5002 5003 5004 5005
          5006 5007 5008 5009 5010 5011
          5012 5013 5014 5015 5016 5017
          5018 5019 5020 5021 5022
        </DataArray>
        <DataArray type="Float64" Name="bounds" format="ascii" RangeMin="0" RangeMax="0">
          0 0 0 0 0 0
          0 0 0 0 0 0
          0 0 0 0 0 0
          0 0 0 0 0 0
          0 0 0 0 0 0
          0 0 0 0 0 0
          0 0 0 0 0 0
          0 0 0 0 0 0
          0 0 0 0 0 0
          0 0 0 0 0 0
          0 0 0 0 0 0
          0 0 0 0 0 0
          0 0 0 0 0 0
          0 0 0 0 0 0
          0 0 0 0 0 0
          0 0 0 0 0 0
          0 0 0 0 0 0
          0 0 0 0 0 0
          0 0 0 0 0 0
          0 0 0 0 0 0
          0 0 0 0 0 0
          0 0 0 0 0 0
          0 0 0 0 0 0
          0 0 0 0 0 0
          0 0 0 0 0 0
          0 0 0 0 0 0
          0 0 0 0 0 0
          0 0 0 0 0 0
          0 0 0 0 0 0
          0 0 0 0 0 0
          0 0 0 0 0 0
          0 0 0 0 0 0
          0 0 0 0 0 0
          0 0 0 0 0 0
          0 0 0 0 0 0
          0 0 0 0 0 0
          0 0 0 0 0 0
          0 0 0 0 0 0
          0 0 0 0 0 0
          0 0 0 0 0 0
          0 0 0 0 0 0
          0 0 0 0 0 0
          0 0 0 0 0 0
          0 0 0 0 0 0
          0 0 0 0 0 0
          0 0 0 0 0 0
          0 0 0 0 0 0
          0 0 0 0 0 0
          0 0 0 0 0 0
          0 0 0 0 0 0
          0 0 0 0 0 0
          0 0 0 0 0 0
          0 0 0 0 0 0
          0 0 0 0 0 0
          0 0 0 0 0 0
          0 0 0 0 0 0
          0 0 0 0 0 0
          0 0 0 0 0 0
          0 0 0 0 0 0
          0 0 0 0 0 0
          0 0 0 0 0 0
          0 0 0 0 0 0
          0 0 0 0 0 0
          0 0 0 0 0 0
          0 0 0 0 0 0
          0 0 0 0 0 0
          0 0 0 0 0 0
          0 0 0 0 0 0
          0 0 0 0 0 0
          0 0 0 0 0 0
          0 0 0 0 0 0
          0 0 0 0 0 0
          0 0 0 0 0 0
          0 0 0 0 0 0
          0 0 0 0 0 0
          0 0 0 0 0 0
          0 0 0 0 0 0
          0 0 0 0 0 0
          0 0 0 0 0 0
          0 0 0 0 0 0
          0 0 0 0 0 0
          0 0 0 0 0 0
          0 0 0 0 0 0
          0 0 0 0 0 0
          0 0 0 0 0 0
          0 0 0 0 0 0
          0 0 0 0 0 0
          0 0 0 0 0 0
          0 0 0 0 0 0
          0 0 0 0 0 0
          0 0 0 0 0 0
          0 0 0 0 0
        </DataArray>
        <DataArray type="Float64" Name="gradient_error" format="ascii" RangeMin="3.5026956656380775e-9" RangeMax="0.0000019304907969888496">
          5.52675259437116e-9 5.073105714237312e-9 4.469841024226463e-9 4.7139744070678036e-9 7.4177307019678255e-9 6.375639103997052e-9
          4.996019916319257e-9 5.538788124068072e-9 4.08722428166884e-9 3.934972265775046e-9 4.750075946179556e-9 4.148343296346292e-9
          3.587427205676182e-9 3.6488490097756097e-9 3.9820204005248895e-9 3.7650747706467755e-9 3.6384666920084765e-9 3.6578897219551577e-9
          3.72547557842746e-9 3.6618637396844547e-9 3.657782554839821e-9 3.6605293866843283e-9 3.6492670918944676e-9 3.6407209550440644e-9
          3.656114203204604e-9 3.656391493269779e-9 3.650412054353349e-9 3.6501831041046837e-9 3.6542286454955963e-9 3.6544042292829843e-9
          3.655106076987192e-9 3.6555888607323953e-9 3.654725292362822e-9 3.654765930871001e-9 3.6544074869186457e-9 3.6552406011460518e-9
          3.745028575376934e-9 3.760989948461325e-9 3.68340159449538e-9 3.7102168801396614e-9 3.707319704316435e-9 3.6340207770788514e-9
          3.6759286580769544e-9 3.6200025948915355e-9 3.66257195171374e-9 3.636759208806318e-9 3.657577437384653e-9 3.648685262282386e-9
          3.6555830248042755e-9 3.654377724269002e-9 3.6550558936447233e-9 3.656152122476333e-9 3.6552418188363018e-9 3.6559508478432637e-9
          3.6234808165382553e-9 3.6207836771582035e-9 3.750402460349296e-9 3.760588214111004e-9 3.6319191587516178e-9 3.7214309076446724e-9
          3.641586502278871e-9 3.69187604901441e-9 3.6478311515256413e-9 3.6752665166711887e-9 3.6518786562404693e-9 3.665195706371109e-9
          3.6544972662735974e-9 3.658801294681984e-9 3.655531974219075e-9 3.6562326004750675e-9 3.6556770682934237e-9 3.65582798031307e-9
          3.587540719139735e-8 2.8893902833640545e-8 1.9931296175763926e-8 2.4073757985184222e-8 1.4619282431964887e-8 1.1320369088031406e-8
          6.096792737178673e-9 5.812468655244926e-9 4.4062458765006985e-9 4.371293527640257e-9 3.835329195070266e-9 3.852665997315705e-9
          3.683980471295035e-9 3.6924591612147497e-9 3.641337846403231e-9 3.6466764594656442e-9 3.6403004736668418e-9 3.6442130366233566e-9
          7.254578779158285e-9 7.90456039485174e-9 5.784919547214856e-9 4.549710402035487e-9 3.970271862908719e-9 3.750615866919168e-9
          3.676096816634885e-9 3.6562202933553215e-9 3.655113834567863e-9 3.5404680404292615e-9 3.537012010732381e-9 3.5483833503317854e-9
          3.5712762307597915e-9 3.6042025470376235e-9 3.631228934277192e-9 3.6512557821353046e-9 3.6604255141825867e-9 3.6621020695558536e-9
          1.7798712899155607e-7 1.4176798313111897e-7 9.862851299694946e-8 1.2127625131139021e-7 6.551090294524313e-8 5.0309376518253964e-8
          1.952904719612504e-8 1.8445999640743537e-8 9.849282865564825e-9 9.012705894723102e-9 4.948619899708538e-9 4.755969890772664e-9
          3.713606596253218e-9 3.6873543625369266e-9 3.6665327740608293e-9 3.6632912237687272e-9 3.6896521963483813e-9 3.6924226420505796e-9
          2.983008971827967e-8 3.438115813879301e-8 1.9562214391251396e-8 1.0614821868742142e-8 6.008609252148858e-9 4.182405333086232e-9
          3.7007959882279765e-9 3.6852217178770244e-9 3.700679873920676e-9 4.171136573779408e-9 4.1969426463616306e-9 4.016578691237997e-9
          3.86669165212225e-9 3.841089580416337e-9 3.801490784335672e-9 3.7404898476353195e-9 3.7103937622774237e-9 3.7061666600885735e-9
          0.0000010143613892870285 5.887871104560624e-7 4.570631759303288e-7 7.052285760797111e-7 6.712908988364997e-8 1.4143646851953796e-7
          2.632519060305656e-8 6.014854195730385e-8 1.631798251333471e-8 2.542603556592112e-8 6.302747113070346e-9 9.954234477919814e-9
          4.297911679792686e-9 3.5026956656380775e-9 3.772587327766604e-9 1.767093720397277e-7 2.0715627185531813e-7 1.1016568591506328e-7
          5.276981617182117e-8 2.1945219950271e-8 9.211061516592363e-9 4.993072330023667e-9 3.82187388946216e-9 3.660018989172822e-9
          1.65642941307057e-8 1.8216780838242674e-8 1.341892263988587e-8 9.897863350440138e-9 6.428346452818479e-9 4.398710121167055e-9
          3.712044984309346e-9 3.5859711638934535e-9 3.5582685401426333e-9 0.0000018106102937483448 0.0000015199828521317876 9.655458564605725e-7
          0.0000011832189637983932 2.7075128820017366e-7 6.921999025436651e-7 1.932171407223178e-7 5.473490535102299e-7 3.5400480633415543e-7
          1.1304687456546407e-7 2.679273786048594e-7 3.1966220778052557e-7 1.615155897240873e-7 7.366018924824412e-8 2.8207214295786054e-8
          1.0289198944827856e-8 1.2811647693620322e-7 1.570080616963881e-7 7.178941885489575e-8 3.09103655439816e-8 1.2597630961934248e-8
          5.5407470341691405e-9 1.1669987214556206e-7 1.5971979049772499e-7 8.44967128279461e-7 0.0000016903644477570993 2.4743595540888206e-7
          8.841284628109863e-7 4.371083652219715e-7 8.28003635575073e-7 3.157573105958432e-7 3.7733753865314417e-7 1.9456081165479114e-7
          8.394706179441954e-8 2.2706995756630578e-8 7.23011562633491e-9 2.2824302678185567e-7 2.8280281573861317e-7 1.2148832576836992e-7
          4.6358000825557794e-8 1.65150449668057e-8 6.303110282622881e-9 2.3047004630731873e-7 3.453900053897395e-7 1.1189147949828253e-7
          2.931080298844243e-7 3.6597800012398593e-7 5.78140069264519e-7 1.7129664697122393e-7 4.29471670703614e-7 4.920910361437593e-7
          5.850279662319493e-7 7.830526349699163e-7 5.777972079745409e-7 7.55359731181874e-7 8.791486062755123e-7 6.659089356424478e-7
          1.3347152201820169e-8 1.1840909231222489e-8 1.500940175447874e-8 5.939309013083304e-8 4.174418007498572e-8 3.7058947162272674e-8
          4.794130419187505e-8 6.320470118666647e-9 2.0866800414398568e-8 1.933408828191253e-8 1.033466626062481e-8 3.237371424955962e-8
          3.6489518252917066e-8 1.7801376149426494e-8 6.355367523425264e-8 1.1740286029202294e-7 1.3605320962769e-7 2.3870141444161834e-7
          3.0194579653781105e-8 6.225234994641633e-8 1.345251995003846e-8 1.3397417483093765e-8 2.640356072523417e-8 7.58665221969726e-9
          2.0855274402112733e-7 3.5999996859121373e-7 9.431012023905157e-8 1.3342315016149068e-8 2.0052909793037808e-8 1.6432693536691246e-8
          1.9739383011195706e-8 1.0575906801968999e-7 7.740761882328806e-8 5.387972329088483e-8 7.156529602440005e-8 1.281247728034468e-8
          3.0351827758481596e-8 3.7371524029110086e-8 0.0000019304907969888496 0.0000017348899736512701 0.0000017069826763724901 0.000001060801161096448
          0.0000010959798795426654 0.000001221563008859574 0.000001422510731839385 0.0000012794852374486188 0.0000011692436521680015 0.000001052994664367824
          0.0000011574442867763502 0.00000120299118684248 0.0000014235569058439718 9.91757700850822e-7 1.319936752171622e-7 7.02255742025347e-7
          0.0000011256449182063156 2.967416753862136e-7 0.0000012584446424267225 7.392497235450633e-7 8.134660629790144e-7 7.873752288805834e-7
          8.754446165113971e-7 5.761503042951795e-7 4.076612755924869e-7 6.981994649037016e-7 8.310314797130159e-7 9.977439412113962e-7
          9.879608201189354e-7 1.93633237203499e-7 3.532650211337096e-7 4.272998139455216e-7 8.7153401802141e-7 2.395007746395384e-7
          5.431558150258622e-7 4.860085087496735e-7 7.428572003519986e-7 7.50866065556232e-7 9.526592761730427e-7 3.2191376294451785e-7
          5.276681281805422e-7 8.733878629069235e-7 5.215350571845574e-7 5.330047715054203e-7 7.12896974270605e-7 7.201512309571299e-7
          4.906877079867856e-7 6.916938634252756e-7 2.674706911301054e-7 3.6022276300157257e-7 3.761592340646465e-7 3.1872309343610744e-7
          9.042588913566529e-7 9.072976904088394e-7 8.927000188637656e-7 4.5297483487303964e-7 4.485905794415016e-7 6.581994584621314e-7
          3.9727370983269963e-7 6.101925398432311e-7 1.9118942302227726e-7 2.650199264201666e-7 2.0688760504238356e-7 8.678083374827613e-7
          8.231113698537625e-7 3.3885042981805586e-7 3.344451672015754e-7 5.430933268758653e-7 2.6247067438024665e-7 4.559047084679984e-7
          1.0416113520086319e-7 1.4825236293561085e-7 9.506410658682708e-8 7.517414865501552e-7 6.493387425557501e-7 1.9234359067035854e-7
          1.871272634721898e-7 3.512981951593769e-7 4.156828950259214e-8 5.304738299737083e-8 5.15469126846564e-7 6.452647649214953e-8
          2.0288082556522366e-7 3.3939189284317493e-7 3.165216545489166e-7 2.936514162546582e-7 5.613596324219521e-7 5.623529580488113e-7
          6.208228276023634e-7 6.435040865550266e-7 5.490888738934321e-7 4.5782039406224925e-7 5.163137964116071e-7 4.249121168690768e-7
          5.74807198760965e-7 9.393344873059757e-8 8.748805919345256e-8 1.3007473239433784e-7 2.2479663874055745e-7 2.0364661562339778e-7
          1.7213575959695052e-7 1.905974929157415e-7 3.5893409095238516e-8 1.714672673446977e-7 1.3846527590269467e-7 8.104266965630755e-8
          1.4062490357050326e-7 1.5639834709092556e-7 1.0546328446069163e-7 2.070085027345232e-8 2.457115454011995e-8 1.41831017338102e-7
          1.0456097966616248e-7 2.8441458806787576e-8 6.729094199422295e-8 2.427656625668416e-7 2.441345132443978e-7 2.368220796043734e-7
          1.76136116502972e-7 1.8209052332558284e-7 2.0774699498676034e-7 2.0090702287568626e-7 2.628555745461107e-7 1.967313186568218e-7
          2.2372478541937164e-7 2.45503363921954e-7 2.3340346664793784e-7 2.2567792924840056e-7 2.609925986407517e-7 1.214153840843241e-7
          1.7135947672912286e-7 1.6499196614699914e-7 1.8459399629263255e-7 2.2130356937392167e-7 2.859518755359691e-7 2.871909620203274e-7
          2.1555247602874309e-7 2.426357635777911e-7 3.1564619109319877e-7 2.3704038382573692e-7 2.6489690489730053e-7 2.8495579411697395e-7
          2.813403858826574e-7 3.04531637333753e-7 1.4515307652151706e-7 1.9808056513525477e-7 2.141476187014023e-7 2.777249776483409e-7
          2.430766848672372e-7 2.3629299757349424e-7 2.452404089761431e-7 2.887778887919784e-7 2.93457539500997e-7 2.782127863020617e-7
          2.726288299541303e-7 2.251531260262838e-7 3.032030215445074e-7 2.8819935678916227e-7 2.295093102797513e-7 2.629680331031263e-7
          2.5647977111628216e-7 2.7319569203381713e-7 3.724870208849729e-7 3.6538962383446645e-7 3.538417383831546e-7 3.998799147094163e-7
          3.6611603313266226e-7 3.4789220038680804e-7 3.487066032718537e-7 2.6137651061344876e-7 2.915967000102575e-7 2.8572222451364646e-7
          3.196969601578258e-7 3.3997916623348823e-7 3.315352467531014e-7 3.612584789513293e-7 1.7486082084008942e-7 2.344867967486613e-7
          2.586399382069784e-7 3.230913272727146e-7 3.0980588518743695e-7 3.493521563371869e-7 3.409912581729231e-7 3.8563172370750306e-7
          3.9427387614479443e-7 4.3195789252523104e-7 2.1847612273968504e-7 2.8805764003606985e-7 3.227492055482142e-7 3.875870805538462e-7
          3.093039177712112e-7 2.9110209918893996e-7 3.24273299649528e-7 3.037294788716123e-7 3.280646695940575e-7 3.4632863328510734e-7
          2.881705092323453e-7 3.072929951999195e-7 2.9114910904458274e-7 3.238120044695613e-7 3.392426815278449e-7 3.1635685855428464e-7
          3.645925969761572e-7 3.2641548116749367e-7 3.4792078697931705e-7 3.702052032878323e-7 3.688738090259961e-7 3.9598806842778723e-7
          3.1407792812856744e-7 3.407610817730125e-7 3.583325410471956e-7 3.924896195963476e-7 4.231023278295784e-7 3.6744423541745756e-7
          2.2058661849042975e-7 2.2208819308151078e-7 3.137182406743066e-7 2.970827001418631e-7 2.189167215553069e-7 3.240059529659449e-7
          3.053922034951858e-7 2.235897676725918e-7 2.8044715960941963e-7 2.867784540244267e-7 4.448255924412474e-7 4.3436891996442297e-7
          4.720343085000787e-7 4.296688318466113e-7 2.081913302564894e-7 2.127233229114572e-7 3.3282401537584037e-7 3.121073306492011e-7
          2.1725531556642504e-7 2.913906459225619e-7 5.324887654345044e-7 5.142022576923297e-7 5.000150470063663e-7 3.8182219722689084e-7
          4.301973751313481e-7 4.309796196941501e-7 4.828048246246131e-7 4.747258854007905e-7 5.233181639174409e-7 2.808430724294703e-7
          3.637341175360657e-7 4.134087176841333e-7 4.7360079880478764e-7 4.902085913768056e-7 5.454876903252053e-7 5.791623024306841e-7
          3.728963523797939e-7 4.740622036526961e-7 5.91065022491168e-7 3.907806343977169e-7 4.2366820321197426e-7 4.133099816987287e-7
          4.53172222679672e-7 3.4037926823079713e-7 3.76457188658173e-7 3.943381470795382e-7 4.5655577202623163e-7 4.930344636606153e-7
          4.125351090855489e-7 4.359121763550519e-7 4.842366586798573e-7 3.636107115913149e-7 4.1091550177195127e-7 5.325611410046627e-7
          4.5822029195258763e-7 2.688689025759886e-7 2.5575735085277396e-7 2.834764432930687e-7 2.732075391421747e-7 2.562562654227148e-7
          2.739911659476616e-7 2.648737867259373e-7 2.9808398401014886e-7 2.9065772743157546e-7 2.917260664726084e-7
        </DataArray>
        <DataArray type="Float64" Name="gradient_matprop_error" format="ascii" RangeMin="0" RangeMax="0">
          0 0 0 0 0 0
          0 0 0 0 0 0
          0 0 0 0 0 0
          0 0 0 0 0 0
          0 0 0 0 0 0
          0 0 0 0 0 0
          0 0 0 0 0 0
          0 0 0 0 0 0
          0 0 0 0 0 0
          0 0 0 0 0 0
          0 0 0 0 0 0
          0 0 0 0 0 0
          0 0 0 0 0 0
          0 0 0 0 0 0
          0 0 0 0 0 0
          0 0 0 0 0 0
          0 0 0 0 0 0
          0 0 0 0 0 0
          0 0 0 0 0 0
          0 0 0 0 0 0
          0 0 0 0 0 0
          0 0 0 0 0 0
          0 0 0 0 0 0
          0 0 0 0 0 0
          0 0 0 0 0 0
          0 0 0 0 0 0
          0 0 0 0 0 0
          0 0 0 0 0 0
          0 0 0 0 0 0
          0 0 0 0 0 0
          0 0 0 0 0 0
          0 0 0 0 0 0
          0 0 0 0 0 0
          0 0 0 0 0 0
          0 0 0 0 0 0
          0 0 0 0 0 0
          0 0 0 0 0 0
          0 0 0 0 0 0
          0 0 0 0 0 0
          0 0 0 0 0 0
          0 0 0 0 0 0
          0 0 0 0 0 0
          0 0 0 0 0 0
          0 0 0 0 0 0
          0 0 0 0 0 0
          0 0 0 0 0 0
          0 0 0 0 0 0
          0 0 0 0 0 0
          0 0 0 0 0 0
          0 0 0 0 0 0
          0 0 0 0 0 0
          0 0 0 0 0 0
          0 0 0 0 0 0
          0 0 0 0 0 0
          0 0 0 0 0 0
          0 0 0 0 0 0
          0 0 0 0 0 0
          0 0 0 0 0 0
          0 0 0 0 0 0
          0 0 0 0 0 0
          0 0 0 0 0 0
          0 0 0 0 0 0
          0 0 0 0 0 0
          0 0 0 0 0 0
          0 0 0 0 0 0
          0 0 0 0 0 0
          0 0 0 0 0 0
          0 0 0 0 0 0
          0 0 0 0 0 0
          0 0 0 0 0 0
          0 0 0 0 0 0
          0 0 0 0 0 0
          0 0 0 0 0 0
          0 0 0 0 0 0
          0 0 0 0 0 0
          0 0 0 0 0 0
          0 0 0 0 0 0
          0 0 0 0 0 0
          0 0 0 0 0 0
          0 0 0 0 0 0
          0 0 0 0 0 0
          0 0 0 0 0 0
          0 0 0 0 0 0
          0 0 0 0 0 0
          0 0 0 0 0 0
          0 0 0 0 0 0
          0 0 0 0 0 0
          0 0 0 0 0 0
          0 0 0 0 0 0
          0 0 0 0 0 0
          0 0 0 0 0 0
          0 0 0 0 0
        </DataArray>
        <DataArray type="Float64" Name="initial_marker" format="ascii" RangeMin="0" RangeMax="0">
          0 0 0 0 0 0
          0 0 0 0 0 0
          0 0 0 0 0 0
          0 0 0 0 0 0
          0 0 0 0 0 0
          0 0 0 0 0 0
          0 0 0 0 0 0
          0 0 0 0 0 0
          0 0 0 0 0 0
          0 0 0 0 0 0
          0 0 0 0 0 0
          0 0 0 0 0 0
          0 0 0 0 0 0
          0 0 0 0 0 0
          0 0 0 0 0 0
          0 0 0 0 0 0
          0 0 0 0 0 0
          0 0 0 0 0 0
          0 0 0 0 0 0
          0 0 0 0 0 0
          0 0 0 0 0 0
          0 0 0 0 0 0
          0 0 0 0 0 0
          0 0 0 0 0 0
          0 0 0 0 0 0
          0 0 0 0 0 0
          0 0 0 0 0 0
          0 0 0 0 0 0
          0 0 0 0 0 0
          0 0 0 0 0 0
          0 0 0 0 0 0
          0 0 0 0 0 0
          0 0 0 0 0 0
          0 0 0 0 0 0
          0 0 0 0 0 0
          0 0 0 0 0 0
          0 0 0 0 0 0
          0 0 0 0 0 0
          0 0 0 0 0 0
          0 0 0 0 0 0
          0 0 0 0 0 0
          0 0 0 0 0 0
          0 0 0 0 0 0
          0 0 0 0 0 0
          0 0 0 0 0 0
          0 0 0 0 0 0
          0 0 0 0 0 0
          0 0 0 0 0 0
          0 0 0 0 0 0
          0 0 0 0 0 0
          0 0 0 0 0 0
          0 0 0 0 0 0
          0 0 0 0 0 0
          0 0 0 0 0 0
          0 0 0 0 0 0
          0 0 0 0 0 0
          0 0 0 0 0 0
          0 0 0 0 0 0
          0 0 0 0 0 0
          0 0 0 0 0 0
          0 0 0 0 0 0
          0 0 0 0 0 0
          0 0 0 0 0 0
          0 0 0 0 0 0
          0 0 0 0 0 0
          0 0 0 0 0 0
          0 0 0 0 0 0
          0 0 0 0 0 0
          0 0 0 0 0 0
          0 0 0 0 0 0
          0 0 0 0 0 0
          0 0 0 0 0 0
          0 0 0 0 0 0
          0 0 0 0 0 0
          0 0 0 0 0 0
          0 0 0 0 0 0
          0 0 0 0 0 0
          0 0 0 0 0 0
          0 0 0 0 0 0
          0 0 0 0 0 0
          0 0 0 0 0 0
          0 0 0 0 0 0
          0 0 0 0 0 0
          0 0 0 0 0 0
          0 0 0 0 0 0
          0 0 0 0 0 0
          0 0 0 0 0 0
          0 0 0 0 0 0
          0 0 0 0 0 0
          0 0 0 0 0 0
          0 0 0 0 0 0
          0 0 0 0 0
        </DataArray>
        <DataArray type="Float64" Name="markers_norefine" format="ascii" RangeMin="0" RangeMax="0">
          0 0 0 0 0 0
          0 0 0 0 0 0
          0 0 0 0 0 0
          0 0 0 0 0 0
          0 0 0 0 0 0
          0 0 0 0 0 0
          0 0 0 0 0 0
          0 0 0 0 0 0
          0 0 0 0 0 0
          0 0 0 0 0 0
          0 0 0 0 0 0
          0 0 0 0 0 0
          0 0 0 0 0 0
          0 0 0 0 0 0
          0 0 0 0 0 0
          0 0 0 0 0 0
          0 0 0 0 0 0
          0 0 0 0 0 0
          0 0 0 0 0 0
          0 0 0 0 0 0
          0 0 0 0 0 0
          0 0 0 0 0 0
          0 0 0 0 0 0
          0 0 0 0 0 0
          0 0 0 0 0 0
          0 0 0 0 0 0
          0 0 0 0 0 0
          0 0 0 0 0 0
          0 0 0 0 0 0
          0 0 0 0 0 0
          0 0 0 0 0 0
          0 0 0 0 0 0
          0 0 0 0 0 0
          0 0 0 0 0 0
          0 0 0 0 0 0
          0 0 0 0 0 0
          0 0 0 0 0 0
          0 0 0 0 0 0
          0 0 0 0 0 0
          0 0 0 0 0 0
          0 0 0 0 0 0
          0 0 0 0 0 0
          0 0 0 0 0 0
          0 0 0 0 0 0
          0 0 0 0 0 0
          0 0 0 0 0 0
          0 0 0 0 0 0
          0 0 0 0 0 0
          0 0 0 0 0 0
          0 0 0 0 0 0
          0 0 0 0 0 0
          0 0 0 0 0 0
          0 0 0 0 0 0
          0 0 0 0 0 0
          0 0 0 0 0 0
          0 0 0 0 0 0
          0 0 0 0 0 0
          0 0 0 0 0 0
          0 0 0 0 0 0
          0 0 0 0 0 0
          0 0 0 0 0 0
          0 0 0 0 0 0
          0 0 0 0 0 0
          0 0 0 0 0 0
          0 0 0 0 0 0
          0 0 0 0 0 0
          0 0 0 0 0 0
          0 0 0 0 0 0
          0 0 0 0 0 0
          0 0 0 0 0 0
          0 0 0 0 0 0
          0 0 0 0 0 0
          0 0 0 0 0 0
          0 0 0 0 0 0
          0 0 0 0 0 0
          0 0 0 0 0 0
          0 0 0 0 0 0
          0 0 0 0 0 0
          0 0 0 0 0 0
          0 0 0 0 0 0
          0 0 0 0 0 0
          0 0 0 0 0 0
          0 0 0 0 0 0
          0 0 0 0 0 0
          0 0 0 0 0 0
          0 0 0 0 0 0
          0 0 0 0 0 0
          0 0 0 0 0 0
          0 0 0 0 0 0
          0 0 0 0 0 0
          0 0 0 0 0 0
          0 0 0 0 0
        </DataArray>
        <DataArray type="Float64" Name="markers_mustrefine" format="ascii" RangeMin="0" RangeMax="0">
          0 0 0 0 0 0
          0 0 0 0 0 0
          0 0 0 0 0 0
          0 0 0 0 0 0
          0 0 0 0 0 0
          0 0 0 0 0 0
          0 0 0 0 0 0
          0 0 0 0 0 0
          0 0 0 0 0 0
          0 0 0 0 0 0
          0 0 0 0 0 0
          0 0 0 0 0 0
          0 0 0 0 0 0
          0 0 0 0 0 0
          0 0 0 0 0 0
          0 0 0 0 0 0
          0 0 0 0 0 0
          0 0 0 0 0 0
          0 0 0 0 0 0
          0 0 0 0 0 0
          0 0 0 0 0 0
          0 0 0 0 0 0
          0 0 0 0 0 0
          0 0 0 0 0 0
          0 0 0 0 0 0
          0 0 0 0 0 0
          0 0 0 0 0 0
          0 0 0 0 0 0
          0 0 0 0 0 0
          0 0 0 0 0 0
          0 0 0 0 0 0
          0 0 0 0 0 0
          0 0 0 0 0 0
          0 0 0 0 0 0
          0 0 0 0 0 0
          0 0 0 0 0 0
          0 0 0 0 0 0
          0 0 0 0 0 0
          0 0 0 0 0 0
          0 0 0 0 0 0
          0 0 0 0 0 0
          0 0 0 0 0 0
          0 0 0 0 0 0
          0 0 0 0 0 0
          0 0 0 0 0 0
          0 0 0 0 0 0
          0 0 0 0 0 0
          0 0 0 0 0 0
          0 0 0 0 0 0
          0 0 0 0 0 0
          0 0 0 0 0 0
          0 0 0 0 0 0
          0 0 0 0 0 0
          0 0 0 0 0 0
          0 0 0 0 0 0
          0 0 0 0 0 0
          0 0 0 0 0 0
          0 0 0 0 0 0
          0 0 0 0 0 0
          0 0 0 0 0 0
          0 0 0 0 0 0
          0 0 0 0 0 0
          0 0 0 0 0 0
          0 0 0 0 0 0
          0 0 0 0 0 0
          0 0 0 0 0 0
          0 0 0 0 0 0
          0 0 0 0 0 0
          0 0 0 0 0 0
          0 0 0 0 0 0
          0 0 0 0 0 0
          0 0 0 0 0 0
          0 0 0 0 0 0
          0 0 0 0 0 0
          0 0 0 0 0 0
          0 0 0 0 0 0
          0 0 0 0 0 0
          0 0 0 0 0 0
          0 0 0 0 0 0
          0 0 0 0 0 0
          0 0 0 0 0 0
          0 0 0 0 0 0
          0 0 0 0 0 0
          0 0 0 0 0 0
          0 0 0 0 0 0
          0 0 0 0 0 0
          0 0 0 0 0 0
          0 0 0 0 0 0
          0 0 0 0 0 0
          0 0 0 0 0 0
          0 0 0 0 0 0
          0 0 0 0 0
        </DataArray>
        <DataArray type="Float64" Name="gradient_marker" format="ascii" RangeMin="1" RangeMax="1">
          1 1 1 1 1 1
          1 1 1 1 1 1
          1 1 1 1 1 1
          1 1 1 1 1 1
          1 1 1 1 1 1
          1 1 1 1 1 1
          1 1 1 1 1 1
          1 1 1 1 1 1
          1 1 1 1 1 1
          1 1 1 1 1 1
          1 1 1 1 1 1
          1 1 1 1 1 1
          1 1 1 1 1 1
          1 1 1 1 1 1
          1 1 1 1 1 1
          1 1 1 1 1 1
          1 1 1 1 1 1
          1 1 1 1 1 1
          1 1 1 1 1 1
          1 1 1 1 1 1
          1 1 1 1 1 1
          1 1 1 1 1 1
          1 1 1 1 1 1
          1 1 1 1 1 1
          1 1 1 1 1 1
          1 1 1 1 1 1
          1 1 1 1 1 1
          1 1 1 1 1 1
          1 1 1 1 1 1
          1 1 1 1 1 1
          1 1 1 1 1 1
          1 1 1 1 1 1
          1 1 1 1 1 1
          1 1 1 1 1 1
          1 1 1 1 1 1
          1 1 1 1 1 1
          1 1 1 1 1 1
          1 1 1 1 1 1
          1 1 1 1 1 1
          1 1 1 1 1 1
          1 1 1 1 1 1
          1 1 1 1 1 1
          1 1 1 1 1 1
          1 1 1 1 1 1
          1 1 1 1 1 1
          1 1 1 1 1 1
          1 1 1 1 1 1
          1 1 1 1 1 1
          1 1 1 1 1 1
          1 1 1 1 1 1
          1 1 1 1 1 1
          1 1 1 1 1 1
          1 1 1 1 1 1
          1 1 1 1 1 1
          1 1 1 1 1 1
          1 1 1 1 1 1
          1 1 1 1 1 1
          1 1 1 1 1 1
          1 1 1 1 1 1
          1 1 1 1 1 1
          1 1 1 1 1 1
          1 1 1 1 1 1
          1 1 1 1 1 1
          1 1 1 1 1 1
          1 1 1 1 1 1
          1 1 1 1 1 1
          1 1 1 1 1 1
          1 1 1 1 1 1
          1 1 1 1 1 1
          1 1 1 1 1 1
          1 1 1 1 1 1
          1 1 1 1 1 1
          1 1 1 1 1 1
          1 1 1 1 1 1
          1 1 1 1 1 1
          1 1 1 1 1 1
          1 1 1 1 1 1
          1 1 1 1 1 1
          1 1 1 1 1 1
          1 1 1 1 1 1
          1 1 1 1 1 1
          1 1 1 1 1 1
          1 1 1 1 1 1
          1 1 1 1 1 1
          1 1 1 1 1 1
          1 1 1 1 1 1
          1 1 1 1 1 1
          1 1 1 1 1 1
          1 1 1 1 1 1
          1 1 1 1 1 1
          1 1 1 1 1 1
          1 1 1 1 1
        </DataArray>
        <DataArray type="Float64" Name="gradient_matprop_marker" format="ascii" RangeMin="0" RangeMax="0">
          0 0 0 0 0 0
          0 0 0 0 0 0
          0 0 0 0 0 0
          0 0 0 0 0 0
          0 0 0 0 0 0
          0 0 0 0 0 0
          0 0 0 0 0 0
          0 0 0 0 0 0
          0 0 0 0 0 0
          0 0 0 0 0 0
          0 0 0 0 0 0
          0 0 0 0 0 0
          0 0 0 0 0 0
          0 0 0 0 0 0
          0 0 0 0 0 0
          0 0 0 0 0 0
          0 0 0 0 0 0
          0 0 0 0 0 0
          0 0 0 0 0 0
          0 0 0 0 0 0
          0 0 0 0 0 0