<?xml version="1.0"?>
<VTKFile type="UnstructuredGrid" version="0.1" byte_order="LittleEndian" header_type="UInt32" compressor="vtkZLibDataCompressor">
  <UnstructuredGrid>
    <Piece NumberOfPoints="621" NumberOfCells="334">
      <PointData>
        <DataArray type="Int32" Name="libmesh_node_id" format="ascii" RangeMin="455" RangeMax="5297">
          455 456 457 503 504 505
          565 570 575 576 577 578
          579 580 581 582 583 584
          585 586 587 588 696 697
          698 699 700 701 702 703
          704 705 732 733 740 741
          771 776 779 785 850 866
          867 868 869 871 872 873
          874 875 876 877 878 879
          880 881 882 883 884 885
          886 887 888 889 890 891
          892 893 894 895 896 897
          898 899 1230 1231 1237 1239
          1240 1241 1242 1243 1244 1245
          1246 1247 1248 1249 1250 1251
          1252 1259 1261 1313 1314 1317
          1318 1319 1320 1321 1322 1454
          1455 1456 1457 1458 1459 1460
          1461 1462 1463 1464 1465 1466
          1467 1468 1469 1470 1471 1472
          1473 1474 1475 1476 1477 1478
          1479 1480 1481 1482 1483 1484
          1485 1486 1487 2161 2162 2163
          2166 2167 2168 2169 2189 2201
          2202 2203 2204 2206 2207 2208
          2209 2219 2221 2223 2225 2226
          2227 2228 2229 2230 2231 2232
          2233 2234 2235 2236 2237 2238
          2239 2240 2241 2242 2243 2244
          2245 2246 2247 2248 2249 2250
          2251 2252 2253 2254 2255 2256
          2257 2258 2259 2260 2261 2262
          2263 2264 2265 2266 2267 2268
          2269 2270 2271 2272 2317 2319
          2320 2321 2322 2323 2330 2334
          2338 2340 2341 2342 2343 2344
          2346 2347 2399 2400 2401 2402
          2403 2404 2405 2406 2407 2408
          2409 2410 2411 2412 2413 2414
          2415 2425 2426 2429 2431 4801
          4803 4804 4805 4806 4807 4808
          4809 4810 4811 4812 4813 4814
          4815 4816 4825 4827 4828 4829
          4830 4831 4832 4833 4834 4835
          4836 4894 4895 4896 4897 4898
          4899 4900 4901 4902 4903 4974
          4975 4977 4980 4982 4983 4984
          4985 4986 4987 4988 4989 4990
          4991 4993 4997 4999 5000 5001
          5002 5003 5004 5005 5008 5009
          5011 5014 5016 5017 5018 5019
          5020 5021 5022 5023 5024 5025
          5027 5031 5033 5034 5035 5036
          5037 5038 5039 5103 5104 5105
          5106 5107 5108 5109 5120 5121
          5122 5123 5124 5125 5126 5127
          5128 5129 5137 5138 5139 5140
          5141 5142 5143 5151 5152 5153
          5154 5155 5156 5157 5158 5159
          5160 5161 5162 5163 5164 5165
          5166 5167 5168 5169 5170 5171
          5172 5173 5174 5175 5176 5177
          5178 5179 5180 5181 5182 5183
          5184 5185 5186 5187 5188 5189
          5190 5191 5192 5193 5194 5195
          5196 5197 5198 5199 5200 5201
          5202 5203 5204 5205 5206 5207
          5208 5209 5210 5211 5212 5213
          5214 5215 5216 5217 5218 5219
          5220 5221 5222 5223 5224 5225
          5226 5227 5228 5229 5230 5231
          5232 5233 5234 5235 5236 5237
          5238 5239 5240 5241 5242 5243
          5244 5245 5246 5247 5248 5249
          5250 5251 5252 5253 5254 5255
          5256 5257 5258 5259 5260 5261
          5262 5263 5264 5265 5266 5267
          5268 5269 5270 5271 5272 5273
          5274 5275 5276 5277 5278 5279
          5280 5281 5282 5283 5284 5285
          5286 5287 5288 5289 5290 5291
          5292 5293 5294 5295 5296 5297
          567 693 695 685 686 687
          573 1253 1255 1257 1254 1256
          1258 1260 1262 1315 1316 852
          855 692 682 1448 1449 1450
          1453 694 1229 1234 2157 2158
          2159 2160 2164 2165 2183 2181
          2184 2182 2187 2186 2188 2190
          1451 1439 1429 1452 2318 1440
          1443 1232 1217 1219 1211 1220
          2339 2331 1221 1224 2345 2336
          2423 2220 2424 2427 2428 2224
          2430 2432 4791 4794 4795 4792
          4799 4800 4798 4797 4802 4793
          4820 4818 4824 4823 4822 2170
          4826 4819 4886 4887 4890 4892
          4972 4973 4976 4978 4979 4981
          4992 4995 4994 4996 2205 4998
          5006 5007 5010 5012 5013 5015
          5026 5029 5028 5030 2210 5032
          5097 5099 5101 2218 5112 5113
          5116 5118 5131 5133 5135 2222
          5145 5147 5149
        </DataArray>
        <DataArray type="Float64" Name="bounds" format="ascii" RangeMin="0" RangeMax="0">
          0 0 0 0 0 0
          0 0 0 0 0 0
          0 0 0 0 0 0
          0 0 0 0 0 0
          0 0 0 0 0 0
          0 0 0 0 0 0
          0 0 0 0 0 0
          0 0 0 0 0 0
          0 0 0 0 0 0
          0 0 0 0 0 0
          0 0 0 0 0 0
          0 0 0 0 0 0
          0 0 0 0 0 0
          0 0 0 0 0 0
          0 0 0 0 0 0
          0 0 0 0 0 0
          0 0 0 0 0 0
          0 0 0 0 0 0
          0 0 0 0 0 0
          0 0 0 0 0 0
          0 0 0 0 0 0
          0 0 0 0 0 0
          0 0 0 0 0 0
          0 0 0 0 0 0
          0 0 0 0 0 0
          0 0 0 0 0 0
          0 0 0 0 0 0
          0 0 0 0 0 0
          0 0 0 0 0 0
          0 0 0 0 0 0
          0 0 0 0 0 0
          0 0 0 0 0 0
          0 0 0 0 0 0
          0 0 0 0 0 0
          0 0 0 0 0 0
          0 0 0 0 0 0
          0 0 0 0 0 0
          0 0 0 0 0 0
          0 0 0 0 0 0
          0 0 0 0 0 0
          0 0 0 0 0 0
          0 0 0 0 0 0
          0 0 0 0 0 0
          0 0 0 0 0 0
          0 0 0 0 0 0
          0 0 0 0 0 0
          0 0 0 0 0 0
          0 0 0 0 0 0
          0 0 0 0 0 0
          0 0 0 0 0 0
          0 0 0 0 0 0
          0 0 0 0 0 0
          0 0 0 0 0 0
          0 0 0 0 0 0
          0 0 0 0 0 0
          0 0 0 0 0 0
          0 0 0 0 0 0
          0 0 0 0 0 0
          0 0 0 0 0 0
          0 0 0 0 0 0
          0 0 0 0 0 0
          0 0 0 0 0 0
          0 0 0 0 0 0
          0 0 0 0 0 0
          0 0 0 0 0 0
          0 0 0 0 0 0
          0 0 0 0 0 0
          0 0 0 0 0 0
          0 0 0 0 0 0
          0 0 0 0 0 0
          0 0 0 0 0 0
          0 0 0 0 0 0
          0 0 0 0 0 0
          0 0 0 0 0 0
          0 0 0 0 0 0
          0 0 0 0 0 0
          0 0 0 0 0 0
          0 0 0 0 0 0
          0 0 0 0 0 0
          0 0 0 0 0 0
          0 0 0 0 0 0
          0 0 0 0 0 0
          0 0 0 0 0 0
          0 0 0 0 0 0
          0 0 0 0 0 0
          0 0 0 0 0 0
          0 0 0 0 0 0
          0 0 0 0 0 0
          0 0 0 0 0 0
          0 0 0 0 0 0
          0 0 0 0 0 0
          0 0 0 0 0 0
          0 0 0 0 0 0
          0 0 0 0 0 0
          0 0 0 0 0 0
          0 0 0 0 0 0
          0 0 0 0 0 0
          0 0 0 0 0 0
          0 0 0 0 0 0
          0 0 0 0 0 0
          0 0 0 0 0 0
          0 0 0 0 0 0
          0 0 0 0 0 0
          0 0 0
        </DataArray>
        <DataArray type="Float64" Name="gradient_error" format="ascii" RangeMin="8.367100305781852e-14" RangeMax="1.757953873103212e-10">
          1.5026957550967903e-10 2.1311876258506896e-12 3.874293135067869e-12 2.7802139152119756e-11 3.1614694335844067e-13 1.6294628774373832e-12
          1.1250535272006314e-10 1.0235745477260029e-10 3.926290363960528e-12 9.224881030279678e-12 1.8720491876371082e-12 8.330790574490366e-12
          2.0965128019213494e-12 1.4017935871505304e-12 1.7243851062797832e-12 1.11342596422292e-11 8.066846843140345e-12 1.9171291376176602e-12
          5.794095038945544e-13 1.7712545853679468e-12 1.2341168764093968e-12 2.6801313854937552e-12 2.5096348921754184e-12 6.118335260827948e-13
          1.0859745081899042e-12 7.787102717086168e-12 5.714303634310871e-12 2.5224014491473677e-12 1.4249531086089181e-11 2.383919196540693e-12
          4.3467429341598075e-13 4.891687753056501e-12 4.57581115702669e-13 4.012884228984298e-13 3.102774466667924e-13 3.327838832385616e-13
          3.140181028909592e-11 2.7150147695720202e-11 3.4017082228949132e-12 2.7507198268725153e-12 1.5597366008978914e-11 1.6185330374725257e-10
          9.682955335550091e-11 3.9563531114808727e-11 2.4370480539028684e-11 5.273631641296017e-11 1.5652927755026813e-11 2.7749585899388556e-11
          8.876487677564814e-12 4.2045947898762735e-11 4.2697471239461893e-13 5.211643018784034e-13 2.674153652042194e-13 3.995223405769313e-13
          3.955723731104977e-13 2.0970212922519694e-13 3.0892548490988656e-13 6.153538913621879e-13 5.360256646772729e-13 4.081488405945761e-13
          1.4380239745731993e-13 2.8392804493019323e-13 2.2227859670927538e-13 4.566974379923576e-13 7.568987147400345e-12 6.4134339534198404e-12
          4.389286854821459e-12 3.2003599604042683e-12 5.1031671305723675e-12 3.879492827546698e-12 2.2265219955075373e-12 5.2578807594393354e-12
          2.011433065987078e-12 2.6558185245210267e-12 2.9690481112751013e-12 1.4140108990793537e-12 5.9612757029166e-12 9.570926057132771e-13
          7.710013654941389e-13 1.0248530687384752e-12 7.962751752702908e-13 5.174285893424831e-13 6.454060619876775e-13 4.868957471634516e-13
          6.86026696111024e-13 8.846456123973821e-13 4.0155516291666577e-13 8.554036553645549e-13 8.088391098808866e-13 4.2176418005046896e-13
          1.1782530658833839e-12 1.6411645909593205e-12 1.834030526474123e-12 2.092705801313767e-12 3.5364692543122805e-12 2.266783176527508e-12
          2.0537366245379834e-12 3.2193487734157222e-12 4.980232707310794e-12 7.394971137970781e-12 4.384960922293461e-12 4.908026595240773e-13
          4.1589434780309144e-13 8.042438340207031e-13 6.655113009059049e-13 3.064270851155191e-13 3.3884575661959856e-13 3.111272102754705e-13
          3.409860360821055e-13 5.26778767791107e-13 2.834086639313425e-13 6.616069468594619e-13 8.917782264056782e-13 3.383547198737305e-13
          4.385227633066676e-13 4.1762034841518707e-13 4.662113040470749e-13 3.2224095398457646e-13 1.1219495059518945e-12 5.386908067396048e-13
          5.148022596789626e-13 1.9501189476909783e-13 1.5571663317928432e-13 3.033060939739502e-13 2.3287978769470596e-13 8.367100305781852e-14
          1.284100799565777e-13 1.0769185843430255e-13 1.1642137158947083e-13 1.6245348141546171e-13 8.69736369120274e-14 4.1160029317880256e-13
          3.100429422101276e-13 1.3171271381078655e-13 2.0848559124145262e-13 2.045160318146406e-12 1.523549958624184e-12 1.3243732770943634e-12
          1.064262505721639e-12 1.0440846445136738e-11 8.392728077988772e-12 2.392797787122277e-12 1.1398908142304804e-12 3.702472935938088e-11
          2.93813508074253e-11 1.0382404588944916e-11 8.235088486938381e-12 4.069084822769772e-12 4.9635854452373283e-11 4.1008812952704283e-11
          1.1660389487419065e-11 1.7676333933038158e-12 1.7866792932560502e-12 2.465125044537117e-12 6.947839980610132e-13 6.177135021258331e-13
          7.235128818354428e-13 6.286958149067054e-13 2.871428752094729e-13 7.62710977388248e-13 6.652843802914974e-13 4.3766045011774635e-13
          6.184522071965133e-13 4.507301363031197e-13 9.95361467310946e-13 8.166529620363811e-13 7.876648384006784e-13 8.138968414473978e-13
          2.6317220337939833e-12 2.0858304594072877e-12 8.288912550174575e-13 8.272558814603445e-13 1.1681047709994352e-12 7.774670836741903e-13
          3.673925296235723e-12 2.993831588166477e-12 9.915221306208411e-13 1.5143503713549512e-12 7.856499041587849e-13 6.721499001603731e-13
          5.708408992699159e-13 6.79529380717208e-13 3.0571557189225876e-13 4.1709367685769255e-13 3.873510421763873e-13 4.2214995489622876e-13
          5.861300955383447e-13 2.8895328747189007e-13 3.745356049613118e-13 6.999493816722535e-13 4.689865124605159e-13 7.501102361804607e-13
          9.210134451317635e-13 1.2291494905687055e-12 5.894188435129319e-13 6.157203834959996e-13 8.301885014416678e-13 1.686358746656844e-12
          5.152114795655877e-13 1.3856884348842152e-12 5.337273733473323e-13 2.159349604895101e-12 2.6483115769254185e-12 1.8307073294587443e-12
          1.8726474130449786e-12 2.400487911346746e-12 2.88471470020269e-12 1.93602658710186e-12 3.632349611883787e-11 1.750944096437505e-11
          1.1810049755652297e-11 6.978434333435048e-12 5.647894644299841e-12 7.696492491659306e-12 6.805223501900218e-12 4.338545970739076e-12
          4.317354955164634e-12 5.91395451214113e-12 2.8210272937995647e-13 5.215542722497495e-13 1.8562898660554458e-13 2.740056629570788e-13
          2.295275647150731e-13 3.38268339589911e-13 2.1440883650266497e-13 2.193863873163474e-13 2.7641988256818756e-13 1.3287725045515014e-13
          1.6500016116125886e-13 1.531227610021986e-13 1.7221551479044028e-13 1.097021548738197e-13 3.334533778200276e-13 1.971230718673676e-13
          1.9130826857868196e-13 1.253028136687657e-12 1.4807359585570026e-12 7.350227737846338e-13 1.7084437804263481e-12 9.884288867855928e-12
          1.3268091563150789e-12 1.2679629600362636e-12 2.3531455758026223e-12 2.240765911880694e-12 6.863778200902354e-13 1.25154029944591e-12
          1.1920476053191625e-12 1.1113150766749157e-12 1.9375618462559228e-12 1.0335197883625491e-12 5.632385245225977e-12 5.333992699551925e-12
          2.812782901222106e-12 4.532510182653941e-12 6.407494424889649e-12 9.023670364962271e-13 1.5256332146276342e-12 4.974033811052956e-13
          8.108301376181881e-13 6.747254521500541e-13 1.0905079418928046e-12 6.59719010231375e-13 3.468559561840328e-12 1.82810547357098e-12
          2.3936194743091965e-12 4.70508259483012e-13 7.118553324406791e-13 3.489613104713577e-13 5.019287251144877e-13 3.827862980659866e-13
          5.472237657979371e-13 3.99051638942235e-13 1.4907728347646312e-12 9.318490852884001e-13 9.84520976489352e-13 2.203959787854859e-11
          2.0788558798425835e-11 1.7449157945553467e-11 3.49598535817868e-11 1.1822596100169718e-11 1.1153606979297507e-11 6.193486000024571e-12
          5.844339655418998e-12 9.367552299665245e-12 4.9116134583207114e-12 1.9856564419959917e-11 1.8746121966572795e-11 9.800927935112905e-12
          1.5751288603122576e-11 1.3049199160550441e-11 2.1906824585074005e-11 7.0196521835219514e-12 3.6876386855889865e-12 4.7064989523129884e-12
          2.475466209076254e-12 1.1746791107638372e-11 6.145716452124233e-12 7.769940168263533e-12 4.7125840864413704e-11 4.4808781289574515e-11
          3.828272099633185e-11 4.743381789384168e-11 2.5456061310430262e-11 2.418042978508863e-11 1.3390420779375545e-11 1.2709334716442403e-11
          2.061228723134017e-11 1.0814740889108089e-11 2.695889748611833e-11 2.5721413060247953e-11 1.3577644461600871e-11 2.2155890106294722e-11
          2.902214293291214e-11 3.1477333741890255e-11 1.5594420114978974e-11 8.170277958228361e-12 1.0394803123164094e-11 5.442442785577689e-12
          1.6946342650803497e-11 8.892446330375346e-12 1.1381775297444262e-11 2.840308320089578e-12 1.4907290080718692e-12 1.538224901418825e-12
          9.530968228396622e-13 4.597080661112464e-12 2.408357802715861e-12 2.4279171612407084e-12 5.780301846273917e-13 7.668068621287144e-13
          4.339961342814545e-13 5.489314311892321e-13 4.0650870610976215e-13 5.136002831116687e-13 3.941111205418914e-13 1.1627835330610704e-12
          8.057845743926687e-13 7.50698251555852e-13 6.145553854303217e-12 3.220874600257957e-12 3.2099096207371338e-12 1.9877810752685365e-12
          6.7492197624297454e-12 3.536166053174139e-12 3.5194838738614167e-12 1.5058724254100991e-12 1.043170944539364e-12 9.624910986487903e-13
          7.153715054937995e-13 1.6417613243280943e-12 1.1386394683904004e-12 1.0442775542994518e-12 3.8709522423572076e-13 3.703462239919866e-13
          6.442544828139018e-13 6.142778054481771e-13 2.6957965968769285e-13 4.3236977547266524e-13 4.130571002206231e-13 3.251559473355524e-13
          5.337992762069061e-13 3.5872946651375556e-13 1.5295098175882768e-12 1.4495156651511118e-12 8.711981430871456e-13 1.2348758954593632e-12
          2.7175691963286706e-13 4.2030347916158426e-13 1.9865200332651533e-13 2.9007660069071143e-13 2.4679916834288193e-13 3.5730953399180853e-13
          2.5643869332249264e-13 9.405229569288164e-13 5.676723876121352e-13 7.479661260472462e-13 3.1754819153381916e-12 2.997125463873187e-12
          1.5841260984091303e-12 1.4951466816267243e-12 2.519740835662864e-12 1.2574776348705413e-12 5.2926591566003444e-12 4.9962922910771026e-12
          2.4841683049018106e-12 4.196938654920772e-12 5.239241815211281e-13 4.962379682856249e-13 7.612308712654287e-13 7.183225763764638e-13
          3.3015104618442017e-13 4.892203543684581e-13 4.618014720493599e-13 4.211680046436457e-13 6.043790525110769e-13 3.87767415909558e-13
          1.2773164419212186e-12 1.205089864389487e-12 6.473905638465171e-13 1.0087888558743517e-12 1.8929125746749565e-12 9.398667273365866e-13
          1.2634846106580253e-12 7.2595170451321e-13 3.1390861737405516e-12 1.5546026531039001e-12 2.0799422303593357e-12 3.2407326174704574e-13
          4.5168280854184404e-13 2.2187336291132613e-13 2.9767839855105617e-13 2.7436226925692187e-13 3.7002179354903297e-13 2.542045550132578e-13
          7.434292987013049e-13 4.784498536282478e-13 5.44789847024369e-13 6.862324214567879e-12 6.509839719091497e-12 3.428141491861111e-12
          3.2519790615764576e-12 5.5316166446401074e-12 2.760682968556516e-12 7.332688052826983e-12 6.980523840377306e-12 3.497384932348801e-12
          5.9815284649239306e-12 1.6722447377735178e-12 1.5892926036156106e-12 7.896831397554565e-13 7.393686802222611e-13 1.3481914307018276e-12
          7.158957672419458e-13 1.7883941527143275e-12 1.7088126629195498e-12 8.043774636318965e-13 1.46639525003346e-12 4.176721848980954e-12
          2.0807215429610207e-12 2.7819681456322633e-12 1.3761920809768624e-12 4.548900624663385e-12 2.271213251996665e-12 3.0429818126114043e-12
          1.0089406951844398e-12 6.532600108641327e-13 6.600274671510297e-13 4.2870306642637755e-13 1.110315148302912e-12 7.231037486625561e-13
          7.35710822686078e-13 3.206326193801411e-13 2.9595547995452116e-13 3.6191996019944185e-13 3.3534196230829916e-13 2.0525275079800354e-13
          2.305926185107773e-13 2.275451264863464e-13 2.712783405289011e-13 3.0876396441715647e-13 2.2449763446191553e-13 4.032073010187426e-13
          3.747284446620772e-13 2.498375021746893e-13 3.462495883054118e-13 5.46416766812841e-13 7.542419380542534e-13 3.8042523578235527e-13
          5.079245442477565e-13 4.105664267896506e-13 5.466271452248233e-13 3.798848745087001e-13 1.2166296370349224e-12 6.884254433761128e-13
          8.575952765445929e-13 1.6276715819974918e-12 7.987431472190392e-13 1.1389725050272657e-12 5.609959125851667e-13 1.7841509992208043e-12
          8.825600557304881e-13 1.2454423206253414e-12 3.4118963911367345e-13 3.8339054622767584e-13 2.370413007520545e-13 2.556117813037674e-13
          2.522980821775632e-13 2.745651565762198e-13 1.9075859113533962e-13 4.255914533416781e-13 2.7418226185548034e-13 2.968322309748764e-13
          1.0043302512130346e-10 6.146541714065562e-12 2.7724832033139716e-12 1.560298271070822e-10 1.757953873103212e-10 2.4993437063651906e-11
          2.0666824480656815e-11 4.766510996847961e-12 2.5620356484045445e-12 4.318037816307304e-12 5.318219760006512e-12 2.359191166224659e-12
          7.2642921564598625e-12 5.996144349771322e-12 9.261450169363751e-12 6.112688235589885e-12 6.753829686780333e-12 3.423432692144355e-11
          3.69252833580262e-11 5.779457744464936e-12 3.151634478805969e-11 1.2858914929891135e-12 2.7689752659857826e-12 2.3149804005769937e-12
          1.8437464364415025e-12 3.2201739794966127e-12 2.3621793011898726e-12 2.3079074028339653e-12 6.649784173246931e-12 5.8409779107256455e-12
          4.5503375563767e-12 3.9443303022057355e-12 3.986375653229853e-12 2.6005443904085284e-12 8.022125008541956e-13 2.200599441060524e-12
          1.0196241896416753e-12 2.402490447924742e-12 1.0422808534047495e-12 2.988365439182807e-12 2.48883784182698e-12 2.817739338255819e-12
          3.064731842467828e-12 8.533994943899891e-12 1.2083006156054311e-11 3.6650130497978485e-12 3.667419028705112e-12 1.3427004373109728e-11
          9.88177929747892e-12 4.406076411404254e-12 1.511982172635559e-11 4.305431724479335e-11 1.001618225475392e-10 3.3736219022335543e-11
          1.1461176457495637e-11 3.7645538074924395e-11 1.9825801363254683e-11 2.294067429320581e-11 1.1112303159338977e-11 3.896758003101091e-11
          2.129608061647761e-12 2.770114490983165e-12 2.604699695343091e-12 1.0309008504308065e-12 1.0115966607902738e-12 3.5147429237292326e-12
          3.079791329038421e-12 9.922924711497412e-13 7.873552625408084e-12 4.3435097574952e-12 4.135417411102025e-12 7.495722011531478e-12
          1.8911215506186616e-11 1.7898652310447574e-11 3.5704477667238063e-12 6.46360436049412e-12 1.5185882942294707e-11 2.343412205077602e-12
          2.804178742923365e-12 5.05819891700105e-12 1.1576171479595925e-11 2.0072345384638333e-12 3.6085239750788208e-12 4.413787234652886e-12
          7.961999986621496e-12 1.6450699109543318e-12 8.456848025333339e-13 1.3129332990552758e-12 1.006184538290853e-12 2.7489999018249257e-12
          4.009557179978521e-11 3.7815172386741713e-11 3.1725605615223044e-11 6.728141864970656e-11 6.354600445572686e-11 5.343445176534905e-11
          2.3697749331324815e-11 8.722171229901661e-12 1.580896677207179e-11 3.984931758331793e-11 1.4479201317069433e-11 2.6318845464064407e-11
          8.491706490387493e-11 8.08392507456395e-11 6.925723098325494e-11 8.888899739689266e-11 8.510855824793977e-11 7.390298865080074e-11
          5.264552117649248e-11 1.9364105479680754e-11 3.516972184547285e-11 5.697080037811792e-11 2.118633226506066e-11 3.843846282059265e-11
          5.245297953549144e-12 2.8457989246914774e-12 8.524151140525235e-12 4.5068116008032e-12 1.0463260813844702e-12 1.4081150316197455e-12
          9.084878094485237e-13 2.1601122236375372e-12 1.1392910046137928e-11 5.9578910346221045e-12 1.251029571025104e-11 6.533995771368611e-12
          2.803519582511479e-12 1.7194318165889936e-12 3.0567186996029044e-12
        </DataArray>
        <DataArray type="Float64" Name="gradient_matprop_error" format="ascii" RangeMin="0" RangeMax="0">
          0 0 0 0 0 0
          0 0 0 0 0 0
          0 0 0 0 0 0
          0 0 0 0 0 0
          0 0 0 0 0 0
          0 0 0 0 0 0
          0 0 0 0 0 0
          0 0 0 0 0 0
          0 0 0 0 0 0
          0 0 0 0 0 0
          0 0 0 0 0 0
          0 0 0 0 0 0
          0 0 0 0 0 0
          0 0 0 0 0 0
          0 0 0 0 0 0
          0 0 0 0 0 0
          0 0 0 0 0 0
          0 0 0 0 0 0
          0 0 0 0 0 0
          0 0 0 0 0 0
          0 0 0 0 0 0
          0 0 0 0 0 0
          0 0 0 0 0 0
          0 0 0 0 0 0
          0 0 0 0 0 0
          0 0 0 0 0 0
          0 0 0 0 0 0
          0 0 0 0 0 0
          0 0 0 0 0 0
          0 0 0 0 0 0
          0 0 0 0 0 0
          0 0 0 0 0 0
          0 0 0 0 0 0
          0 0 0 0 0 0
          0 0 0 0 0 0
          0 0 0 0 0 0
          0 0 0 0 0 0
          0 0 0 0 0 0
          0 0 0 0 0 0
          0 0 0 0 0 0
          0 0 0 0 0 0
          0 0 0 0 0 0
          0 0 0 0 0 0
          0 0 0 0 0 0
          0 0 0 0 0 0
          0 0 0 0 0 0
          0 0 0 0 0 0
          0 0 0 0 0 0
          0 0 0 0 0 0
          0 0 0 0 0 0
          0 0 0 0 0 0
          0 0 0 0 0 0
          0 0 0 0 0 0
          0 0 0 0 0 0
          0 0 0 0 0 0
          0 0 0 0 0 0
          0 0 0 0 0 0
          0 0 0 0 0 0
          0 0 0 0 0 0
          0 0 0 0 0 0
          0 0 0 0 0 0
          0 0 0 0 0 0
          0 0 0 0 0 0
          0 0 0 0 0 0
          0 0 0 0 0 0
          0 0 0 0 0 0
          0 0 0 0 0 0
          0 0 0 0 0 0
          0 0 0 0 0 0
          0 0 0 0 0 0
          0 0 0 0 0 0
          0 0 0 0 0 0
          0 0 0 0 0 0
          0 0 0 0 0 0
          0 0 0 0 0 0
          0 0 0 0 0 0
          0 0 0 0 0 0
          0 0 0 0 0 0
          0 0 0 0 0 0
          0 0 0 0 0 0
          0 0 0 0 0 0
          0 0 0 0 0 0
          0 0 0 0 0 0
          0 0 0 0 0 0
          0 0 0 0 0 0
          0 0 0 0 0 0
          0 0 0 0 0 0
          0 0 0 0 0 0
          0 0 0 0 0 0
          0 0 0 0 0 0
          0 0 0 0 0 0
          0 0 0 0 0 0
          0 0 0 0 0 0
          0 0 0 0 0 0
          0 0 0 0 0 0
          0 0 0 0 0 0
          0 0 0 0 0 0
          0 0 0 0 0 0
          0 0 0 0 0 0
          0 0 0 0 0 0
          0 0 0 0 0 0
          0 0 0 0 0 0
          0 0 0 0 0 0
          0 0 0
        </DataArray>
        <DataArray type="Float64" Name="initial_marker" format="ascii" RangeMin="0" RangeMax="2">
          0 0 0 0 0 0
          0 0 0 0 0 0
          0 0 0 0 0 0
          0 0 0 0 0 0
          0 0 0 0 2 0
          0 0 0 0 0 0
          0 0 0 0 0 0
          0 0 0 0 0 0
          0 0 0 0 0 0
          0 0 0 0 0 0
          0 0 0 0 0 0
          0 0 0 0 0 0
          0 0 2 1.25 2 0
          0 0 0 0 0 0
          0 0 0 2 0.5 0
          0 0 0 0 0 0
          0 0 0 0 0 0
          0 0 0 0 0 0
          0 0 0 0 0 0
          0 0 0 0 0 0
          0 0 0 0 0 0
          0 0 0 0 0 0
          0 0 0 0 0 0
          0 2 2 2 0 2
          2 2 2 2 2 2
          2 1 0 1.5 0 0
          0 0 0 0 0 0
          0 0 1 0.75 0 0.25
          2 2 1 0.75 1.5 0
          2 2 1.5 2 0 0
          0 0 0 0 0 0
          0 0 0 0 0 0
          0 0 0 0 0 0
          0 0 0 0 0 0
          0 0 0 0 0 0
          0 0 0 0 0 0
          0 0 0 0 0 0
          0 0 0 0 0 0
          0 0 0 0 0 0
          0 0 0 0 0 2
          1 1 1.5 1.5 0 1
          1 0.5 1.25 1 2 2
          2 2 2 0 1 0
          0.75 0 0.75 0.3333333333333333 2 1.75
          1.75 0 0.25 0 0 0
          0 0 1 0.6666666666666666 0.3333333333333333 2
          2 2 2 2 2 2
          2 2 2 2 2 2
          2 2 2 2 2 2
          2 2 2 2 2 2
          2 2 2 2 2 2
          2 2 2 2 2 2
          2 2 2 2 2 2
          2 2 2 1.75 1.25 1
          0.3333333333333333 2 1.75 1.75 0 0.25
          0 0 0 0 0 0.75
          0.5 0 2 2 2 2
          2 2 2 1 1 0
          0 1 1 0 0 0
          0.5 0.5 0 0 0 0
          0.5 0 1.5 1.5 1.3333333333333333 1.5
          0 0.25 0 0 0 0
          0 1.25 0.6666666666666666 1 2 2
          2 2 2 1.75 2 2
          2 2 1 1 1.5 1.5
          0 1 1 0.5 1 0.5
          2 2 1.3333333333333333 1.75 2 1.5
          1.75 1.3333333333333333 2 2 2 0
          0.5 0 0 0 0.5 0
          1.25 0.5 0.6666666666666666 2 2 2
          2 2 2 2 2 2
          2 2 2 1.5 1.5 2
          1.6666666666666667 2 2 2 2 2
          2 2 1.75 2 2 2
          1.75 1.5 1 0.5 2 2
          1.5 0 0 0.5 0.5 0
          0 0 0 0.5 0 1
          1 0 1 0.5 0.75 0
          0.5 0 0 0 1.25 0.6666666666666666
          0.5 1.5 0.75 1 0 1.5
          1 1 0 0.25 0 0
          0 0 0 0.5 0 0
          0 0 0 0 0 0
          0 0 0 0 0 0
          0 0 0 0 0 0
          0 0 0 0 0 0
          0 0 0 0 0 0
          1 0.75 0 0 0 0
          0 0 0 0 0.5 0
          0 0 0 0 0 0
          0 0 0 0 0 0
          0 0 0 0 0 0
          0 0 0 0 0 0.5
          0 0 2 2 2 2
          2 2 1.75 2 2 2
          1.25 1.75 2 1 1.25 2
          2 0.5 0 0.5 0 1.5
          2 2 2 2 2 2
          2 2 2 2 2 2
          2 2 2 2 2 2
          2 2 2 2 2 2
          2 1.5 2 2 0 0.5
          0 1 2 2 2 2
          1.25 0.5 1.5
        </DataArray>
        <DataArray type="Float64" Name="markers_norefine" format="ascii" RangeMin="0" RangeMax="0">
          0 0 0 0 0 0
          0 0 0 0 0 0
          0 0 0 0 0 0
          0 0 0 0 0 0
          0 0 0 0 0 0
          0 0 0 0 0 0
          0 0 0 0 0 0
          0 0 0 0 0 0
          0 0 0 0 0 0
          0 0 0 0 0 0
          0 0 0 0 0 0
          0 0 0 0 0 0
          0 0 0 0 0 0
          0 0 0 0 0 0
          0 0 0 0 0 0
          0 0 0 0 0 0
          0 0 0 0 0 0
          0 0 0 0 0 0
          0 0 0 0 0 0
          0 0 0 0 0 0
          0 0 0 0 0 0
          0 0 0 0 0 0
          0 0 0 0 0 0
          0 0 0 0 0 0
          0 0 0 0 0 0
          0 0 0 0 0 0
          0 0 0 0 0 0
          0 0 0 0 0 0
          0 0 0 0 0 0
          0 0 0 0 0 0
          0 0 0 0 0 0
          0 0 0 0 0 0
          0 0 0 0 0 0
          0 0 0 0 0 0
          0 0 0 0 0 0
          0 0 0 0 0 0
          0 0 0 0 0 0
          0 0 0 0 0 0
          0 0 0 0 0 0
          0 0 0 0 0 0
          0 0 0 0 0 0
          0 0 0 0 0 0
          0 0 0 0 0 0
          0 0 0 0 0 0
          0 0 0 0 0 0
          0 0 0 0 0 0
          0 0 0 0 0 0
          0 0 0 0 0 0
          0 0 0 0 0 0
          0 0 0 0 0 0
          0 0 0 0 0 0
          0 0 0 0 0 0
          0 0 0 0 0 0
          0 0 0 0 0 0
          0 0 0 0 0 0
          0 0 0 0 0 0
          0 0 0 0 0 0
          0 0 0 0 0 0
          0 0 0 0 0 0
          0 0 0 0 0 0
          0 0 0 0 0 0
          0 0 0 0 0 0
          0 0 0 0 0 0
          0 0 0 0 0 0
          0 0 0 0 0 0
          0 0 0 0 0 0
          0 0 0 0 0 0
          0 0 0 0 0 0
          0 0 0 0 0 0
          0 0 0 0 0 0
          0 0 0 0 0 0
          0 0 0 0 0 0
          0 0 0 0 0 0
          0 0 0 0 0 0
          0 0 0 0 0 0
          0 0 0 0 0 0
          0 0 0 0 0 0
          0 0 0 0 0 0
          0 0 0 0 0 0
          0 0 0 0 0 0
          0 0 0 0 0 0
          0 0 0 0 0 0
          0 0 0 0 0 0
          0 0 0 0 0 0
          0 0 0 0 0 0
          0 0 0 0 0 0
          0 0 0 0 0 0
          0 0 0 0 0 0
          0 0 0 0 0 0
          0 0 0 0 0 0
          0 0 0 0 0 0
          0 0 0 0 0 0
          0 0 0 0 0 0
          0 0 0 0 0 0
          0 0 0 0 0 0
          0 0 0 0 0 0
          0 0 0 0 0 0
          0 0 0 0 0 0
          0 0 0 0 0 0
          0 0 0 0 0 0
          0 0 0 0 0 0
          0 0 0 0 0 0
          0 0 0 0 0 0
          0 0 0
        </DataArray>
        <DataArray type="Float64" Name="markers_mustrefine" format="ascii" RangeMin="0" RangeMax="2">
          0 0 0 0 0 0
          0 0 0 0 0 0
          0 0 0 0 0 0
          0 0 0 0 0 0
          0 0 0 0 2 0
          0 0 0 0 0 0
          0 0 0 0 0 0
          0 0 0 0 0 0
          0 0 0 0 0 0
          0 0 0 0 0 0
          0 0 0 0 0 0
          0 0 0 0 0 0
          0 0 2 1.25 2 0
          0 0 0 0 0 0
          0 0 0 2 0.5 0
          0 0 0 0 0 0
          0 0 0 0 0 0