<?xml version="1.0"?>
<VTKFile type="UnstructuredGrid" version="0.1" byte_order="LittleEndian" header_type="UInt32" compressor="vtkZLibDataCompressor">
  <UnstructuredGrid>
    <Piece NumberOfPoints="279" NumberOfCells="157">
      <PointData>
        <DataArray type="Int32" Name="libmesh_node_id" format="ascii" RangeMin="192" RangeMax="1619">
          192 314 432 433 439 455
          457 458 460 461 465 466
          467 827 828 831 834 849
          854 868 869 871 874 884
          888 890 891 892 893 894
          895 896 898 899 900 901
          902 903 906 907 909 910
          912 913 914 915 916 917
          919 921 925 926 929 931
          935 936 938 939 940 941
          942 943 944 945 946 947
          948 949 950 951 952 953
          954 955 956 957 958 959
          962 963 965 966 969 970
          1356 1358 1404 1405 1406 1407
          1408 1409 1410 1411 1412 1413
          1417 1418 1419 1420 1432 1433
          1434 1435 1436 1437 1438 1439
          1440 1441 1449 1450 1452 1453
          1454 1456 1457 1458 1459 1460
          1461 1462 1463 1464 1465 1466
          1467 1468 1469 1470 1471 1472
          1473 1474 1475 1476 1477 1478
          1479 1480 1481 1482 1483 1484
          1485 1486 1487 1488 1489 1490
          1491 1492 1493 1494 1495 1496
          1497 1498 1499 1500 1501 1502
          1503 1504 1505 1506 1507 1508
          1509 1510 1511 1512 1513 1514
          1515 1516 1517 1518 1519 1520
          1521 1522 1523 1524 1525 1526
          1527 1528 1529 1530 1531 1532
          1533 1534 1535 1536 1537 1538
          1539 1540 1541 1542 1543 1544
          1545 1546 1547 1548 1549 1550
          1551 1552 1553 1554 1555 1556
          1557 1558 1559 1560 1561 1562
          1563 1564 1565 1566 1567 1568
          1569 1570 1571 1572 1573 1574
          1575 1576 1577 1578 1579 1580
          1581 1582 1583 1584 1585 1586
          1587 1588 1589 1590 1591 1592
          1593 1594 1595 1596 1597 1598
          1599 1600 1601 1602 1603 1604
          1605 1606 1607 1608 1609 1610
          1611 1612 1613 1614 1615 1616
          1617 1618 1619
        </DataArray>
        <DataArray type="Float64" Name="bounds" format="ascii" RangeMin="0" RangeMax="0">
          0 0 0 0 0 0
          0 0 0 0 0 0
          0 0 0 0 0 0
          0 0 0 0 0 0
          0 0 0 0 0 0
          0 0 0 0 0 0
          0 0 0 0 0 0
          0 0 0 0 0 0
          0 0 0 0 0 0
          0 0 0 0 0 0
          0 0 0 0 0 0
          0 0 0 0 0 0
          0 0 0 0 0 0
          0 0 0 0 0 0
          0 0 0 0 0 0
          0 0 0 0 0 0
          0 0 0 0 0 0
          0 0 0 0 0 0
          0 0 0 0 0 0
          0 0 0 0 0 0
          0 0 0 0 0 0
          0 0 0 0 0 0
          0 0 0 0 0 0
          0 0 0 0 0 0
          0 0 0 0 0 0
          0 0 0 0 0 0
          0 0 0 0 0 0
          0 0 0 0 0 0
          0 0 0 0 0 0
          0 0 0 0 0 0
          0 0 0 0 0 0
          0 0 0 0 0 0
          0 0 0 0 0 0
          0 0 0 0 0 0
          0 0 0 0 0 0
          0 0 0 0 0 0
          0 0 0 0 0 0
          0 0 0 0 0 0
          0 0 0 0 0 0
          0 0 0 0 0 0
          0 0 0 0 0 0
          0 0 0 0 0 0
          0 0 0 0 0 0
          0 0 0 0 0 0
          0 0 0 0 0 0
          0 0 0 0 0 0
          0 0 0
        </DataArray>
        <DataArray type="Float64" Name="gradient_error" format="ascii" RangeMin="8.80051395041317e-9" RangeMax="1.9299706500421715e-7">
          1.0806598608950061e-8 2.225889299859893e-8 9.664438670069636e-8 1.3292782391403532e-7 1.1167521437519431e-7 1.0645797538216196e-7
          1.1290949715547681e-7 1.212381215092183e-7 1.0136283991583887e-7 1.3049567019479132e-7 1.7729480117045528e-8 1.438843891879387e-7
          1.4556791228340361e-7 1.2770779160795078e-7 1.203501522400867e-7 1.000248209025948e-7 1.1112053514812739e-7 7.321548644962607e-8
          1.1672312184793932e-7 1.7523945270553074e-8 4.150829194249318e-8 1.241837016438443e-7 1.5382439487251748e-8 1.5429973917199854e-7
          1.6776246453630252e-7 8.408579252033904e-8 7.8585479909482e-8 1.3234230099805128e-7 1.2342876271840236e-7 6.983109722375598e-8
          1.3101909363854678e-7 1.2087691580483436e-7 9.939683075196032e-8 9.419036463419747e-8 1.0661654269655483e-7 9.952439529562342e-8
          1.037962670459666e-7 1.1972068880583781e-7 1.216394328671567e-7 1.1085121363923963e-7 1.0440425725267655e-7 9.397341351161695e-8
          8.370052710246988e-8 6.914263045582753e-8 1.1195076707263025e-7 1.0104063180208887e-7 1.2024673896204041e-7 1.145021807896407e-7
          6.927062454314287e-8 6.233729548469279e-8 1.1919648834683925e-7 1.1641905175192568e-7 5.2972618557216235e-8 4.242703105740777e-8
          1.0676225285090193e-7 9.126096744658954e-8 2.328171421502644e-8 2.685306409033782e-8 3.055270157749308e-8 3.372338752027469e-8
          1.1836332214452189e-7 1.291839464483083e-7 1.4657441919812865e-8 2.2067853640408523e-8 2.998991841073463e-8 1.2864675223662268e-7
          3.803928320719147e-8 4.094247489579325e-8 4.350074683610622e-8 7.409218554476893e-8 1.3196057943883581e-7 1.528668499547623e-7
          1.930993390286069e-8 3.733421601792446e-8 4.198860807822194e-8 1.5122422441892632e-7 1.6583300413316018e-7 1.7096754381223136e-7
          1.8364927792364512e-7 1.9299706500421715e-7 1.6518004469160058e-7 1.4720763450827022e-7 1.900911380501564e-7 1.7224930998497595e-7
          2.651999549958134e-8 2.495665970049805e-8 2.1880435397172873e-8 2.2363150614138738e-8 2.3764424944925653e-8 2.4290970790573304e-8
          2.284586583110461e-8 2.5523343099817416e-8 1.5462797035732732e-8 1.6726321909604727e-8 1.8638264414436548e-8 1.873333021987266e-8
          2.6040046277823705e-8 2.5145096528637063e-8 2.1872076302392324e-8 2.494574425653608e-8 1.0206908043573344e-8 1.1316829760737596e-8
          1.2614747156355907e-8 1.3759234902277096e-8 1.5104842202794082e-8 1.7091997909019355e-8 8.80051395041317e-9 9.85288536469987e-9
          1.2303887057246359e-8 1.3125412770847332e-8 2.068087358003537e-8 2.258768936618016e-8 2.5895105562519886e-8 1.9489670857678413e-8
          2.131847877513088e-8 2.9597923892414322e-8 2.9202452172177387e-8 3.2147347641311466e-8 2.812476917766453e-8 3.575843716897568e-8
          3.5157482385424e-8 3.7984724856346905e-8 3.335245202181894e-8 2.6137751232408717e-8 2.8331264017374524e-8 2.4832944561428833e-8
          3.019436517900749e-8 3.1720362822440165e-8 2.8240353916249413e-8 4.131774187657558e-8 4.038918484684321e-8 4.205248265317305e-8
          3.747796940227943e-8 4.3769342880956514e-8 4.2769496361223517e-8 4.2263843928409884e-8 3.917861486823532e-8 3.2728840377422837e-8
          3.312812432521158e-8 2.9962369767397645e-8 3.309434787732017e-8 3.299444730176784e-8 2.960111585966022e-8 2.6197659856404336e-8
          2.664664189289758e-8 2.9017913751507613e-8 2.9389111350251477e-8 2.754920860904277e-8 3.003132570394693e-8 2.0206129428759578e-8
          2.1218739174566905e-8 2.4312725853463018e-8 2.4107761430598622e-8 3.210279903044298e-8 3.239651411557034e-8 3.536326095203272e-8
          3.5541555621620336e-8 3.2734573188605876e-8 3.548044441339076e-8 2.676627714336287e-8 2.7844860219245403e-8 3.1670625859746133e-8
          3.013194424361977e-8 2.7207763950761057e-8 2.9542204609294168e-8 2.64127346128274e-8 2.8782066759689825e-8 2.7210257223753328e-8
          2.981301369265926e-8 2.8436340506683647e-8 3.1805643661218326e-8 3.390265887200169e-8 3.0832370145922614e-8 3.2564279208429813e-8
          3.269933382104956e-8 3.573580671095291e-8 3.4058222449987535e-8 1.5194856642132053e-8 1.6623347751368355e-8 1.790965938209831e-8
          1.9765163213153533e-8 1.9846430202246394e-8 2.3244037738557238e-8 1.2774850247139303e-8 1.4900048767220672e-8 1.7535749778572514e-8
          1.8450985583716552e-8 2.0710432449643275e-8 2.31015657064791e-8 2.3416226832789114e-8 2.6465126837926787e-8 2.7056918271160958e-8
          3.107280216526145e-8 1.63354715044711e-8 2.0148956820184084e-8 2.2687388343255087e-8 2.5966642410475202e-8 2.496095558687318e-8
          2.7900203458692822e-8 2.8280889629858227e-8 3.0932998484479925e-8 2.3779173395353094e-8 2.6927524733280957e-8 2.7681622910575124e-8
          3.128293658736988e-8 3.4952840747299255e-8 3.394473559573276e-8 3.727410400714008e-8 3.05841276760698e-8 3.451902299425591e-8
          3.319741266708625e-8 3.856222554625686e-8 3.8615932440585535e-8 4.141166706958395e-8 4.1331069028078825e-8 3.807370672637605e-8
          4.026384941049586e-8 3.4384187589785854e-8 3.55467233524413e-8 3.9183683167558036e-8 3.7436401317540433e-8 4.357560606801521e-8
          4.32839718395318e-8 4.453510986705116e-8 4.3978952155277694e-8 4.161848162487987e-8 4.242586521524463e-8 4.124617250900776e-8
          4.224576619095448e-8 4.437868332763803e-8 4.365958401449638e-8 3.561806591772938e-8 3.674716273206377e-8 3.375835771762086e-8
          3.421709762970952e-8 3.8747686957213904e-8 4.1430652171479144e-8 3.933183039444367e-8 3.7101413316937704e-8 3.7041674988749954e-8
          3.3958200995164064e-8 3.365134321877449e-8 4.326568585205542e-8 4.502049998972242e-8 4.2457563548019284e-8 2.5911469980394755e-8
          2.9653918464568897e-8 2.7844851937158812e-8 3.235991149501399e-8 3.5037227558499413e-8 3.8653966328339635e-8 1.886127399715595e-8
          2.5057070258583045e-8 2.6962112057896508e-8 3.3871096532390625e-8 2.9506942423801787e-8 3.471711074714886e-8 3.165200566009505e-8
          3.7013597366463984e-8 4.168394611613712e-8 4.3934886783204924e-8 1.9903409084661957e-8 2.8741136430228878e-8 3.096388845979741e-8
          4.0107072584805906e-8 3.8710819627663676e-8 4.225435838216133e-8 4.0743551087071576e-8 4.407575516051253e-8 3.843355679893548e-8
          4.201361356028032e-8 4.037778705309986e-8 4.518307905761518e-8 4.692995862054527e-8 4.692554495345207e-8 4.8365332747513594e-8
          4.4943265167674754e-8 4.687361859437295e-8 4.7251248941533485e-8
        </DataArray>
        <DataArray type="Float64" Name="gradient_matprop_error" format="ascii" RangeMin="0" RangeMax="0">
          0 0 0 0 0 0
          0 0 0 0 0 0
          0 0 0 0 0 0
          0 0 0 0 0 0
          0 0 0 0 0 0
          0 0 0 0 0 0
          0 0 0 0 0 0
          0 0 0 0 0 0
          0 0 0 0 0 0
          0 0 0 0 0 0
          0 0 0 0 0 0
          0 0 0 0 0 0
          0 0 0 0 0 0
          0 0 0 0 0 0
          0 0 0 0 0 0
          0 0 0 0 0 0
          0 0 0 0 0 0
          0 0 0 0 0 0
          0 0 0 0 0 0
          0 0 0 0 0 0
          0 0 0 0 0 0
          0 0 0 0 0 0
          0 0 0 0 0 0
          0 0 0 0 0 0
          0 0 0 0 0 0
          0 0 0 0 0 0
          0 0 0 0 0 0
          0 0 0 0 0 0
          0 0 0 0 0 0
          0 0 0 0 0 0
          0 0 0 0 0 0
          0 0 0 0 0 0
          0 0 0 0 0 0
          0 0 0 0 0 0
          0 0 0 0 0 0
          0 0 0 0 0 0
          0 0 0 0 0 0
          0 0 0 0 0 0
          0 0 0 0 0 0
          0 0 0 0 0 0
          0 0 0 0 0 0
          0 0 0 0 0 0
          0 0 0 0 0 0
          0 0 0 0 0 0
          0 0 0 0 0 0
          0 0 0 0 0 0
          0 0 0
        </DataArray>
        <DataArray type="Float64" Name="initial_marker" format="ascii" RangeMin="1" RangeMax="2">
          2 2 2 2 2 1
          2 2 2 2 2 2
          2 2 2 1.5 2 1
          2 2 2 2 2 2
          2 2 2 2 2 2
          2 2 1.5 1.5 2 2
          2 2 2 2 2 2
          1.5 1.5 2 2 2 2
          1 1 2 2 1 1
          2 2 2 2 2 2
          2 2 2 2 2 2
          2 2 2 2 2 2
          2 2 2 2 2 2
          2 2 2 2 2 2
          2 2 2 2 2 2
          2 2 2 2 2 2
          2 2 2 2 2 2
          2 2 2 2 2 2
          2 2 2 2 2 2
          2 2 2 2 2 2
          2 2 2 2 2 2
          2 2 2 2 2 2
          2 2 2 2 2 2
          2 2 2 2 2 2
          2 2 2 2 2 2
          2 2 2 2 2 2
          2 2 2 2 2 2
          2 2 2 2 2 2
          2 2 2 2 2 2
          2 2 2 2 2 2
          2 2 2 2 2 2
          2 2 2 2 2 2
          2 2 2 2 2 2
          2 2 2 2 2 2
          2 2 2 2 2 2
          2 2 2 2 2 2
          2 2 2 2 2 2
          2 2 2 2 2 2
          2 2 2 2 2 2
          2 2 2 2 2 2
          2 2 2 2 2 2
          2 2 2 2 2 2
          2 2 2 2 2 2
          2 2 2 2 2 2
          2 2 2 2 2 2
          2 2 2 2 2 2
          2 2 2
        </DataArray>
        <DataArray type="Float64" Name="markers_norefine" format="ascii" RangeMin="0" RangeMax="2">
          2 2 0 0 1 0
          0 0 0 0 2 1
          1 0 0 0 0 0
          0 2 1.75 0 2 0
          0 0 0 0 0 0
          0 0 0 0 0 0
          0 0 0 0 0 0
          0 0 0 0 0 0
          0 0 0 0 0 0
          0 0 2 2 2 2
          0.5 0.5 2 2 2 1
          2 2 2 1.75 0.5 0
          2 2 2 1 0 0
          0 0 0 0 0 0
          0 0 1 1 1 1
          1 1 2 2 2 2
          0.5 0 1 1 2 2
          2 2 2 2 2 2
          2 2 1.25 1.5 1 1.5
          2 0 0 0 0 0
          0 0 0 0 0 0
          0 0 0 0 0 0
          0 0 0 0 0 0
          0 0 0 0 0 1
          1 1 1 1 1 2
          2 2 2 1 1 1
          1 1 1 2 2 2
          2 0.5 0.5 0 0 1.25
          1.5 0.5 0.5 0.5 0 0
          1.5 1.5 1 2 2 2
          2 2 2 2 2 2
          2 2 2 2 2 2
          2 2 2 2 2 1.75
          2 1.5 2 2 2 2
          2 2 2 2 2 2
          2 1 1 1 1 1
          1 2 2 2 2 1
          1 1 1 1 1 2
          2 2 2 0.5 0.5 0
          0 1.5 1.5 1 0.5 0.5
          0 0 1.25 1 0.5 2
          2 2 2 2 2 2
          2 2 2 2 2 2
          2 2 2 2 2 2
          2 2 2 2 2 2
          2 2 1.75 1.5 1.5 1
          2 2 2
        </DataArray>
        <DataArray type="Float64" Name="markers_mustrefine" format="ascii" RangeMin="1" RangeMax="2">
          2 2 2 2 2 1
          2 2 2 2 2 2
          2 2 2 1.5 2 1
          2 2 2 2 2 2
          2 2 2 2 2 2
          2 2 1.5 1.5 2 2
          2 2 2 2 2 2
          1.5 1.5 2 2 2 2
          1 1 2 2 1 1
          2 2 2 2 2 2
          2 2 2 2 2 2
          2 2 2 2 2 2
          2 2 2 2 2 2
          2 2 2 2 2 2
          2 2 2 2 2 2
          2 2 2 2 2 2
          2 2 2 2 2 2
          2 2 2 2 2 2
          2 2 2 2 2 2
          2 2 2 2 2 2
          2 2 2 2 2 2
          2 2 2 2 2 2
          2 2 2 2 2 2
          2 2 2 2 2 2
          2 2 2 2 2 2
          2 2 2 2 2 2
          2 2 2 2 2 2
          2 2 2 2 2 2
          2 2 2 2 2 2
          2 2 2 2 2 2
          2 2 2 2 2 2
          2 2 2 2 2 2
          2 2 2 2 2 2
          2 2 2 2 2 2
          2 2 2 2 2 2
          2 2 2 2 2 2
          2 2 2 2 2 2
          2 2 2 2 2 2
          2 2 2 2 2 2
          2 2 2 2 2 2
          2 2 2 2 2 2
          2 2 2 2 2 2
          2 2 2 2 2 2
          2 2 2 2 2 2
          2 2 2 2 2 2
          2 2 2 2 2 2
          2 2 2
        </DataArray>
        <DataArray type="Float64" Name="gradient_marker" format="ascii" RangeMin="0" RangeMax="1">
          0 0 0.5 0.875 0.5 0.75
          0.5 0.75 0.5 0.75 0 0.5
          0.5 1 0.875 0.625 0.625 0.25
          0.75 0 0.125 0.625 0 1
          1 1 0.5 1 0.75 0.25
          0.75 0.625 0.5 0.5 0.5 0.5
          0.5 0.75 0.5 0.5 0.5 0.5
          0.5 0.375 0.5 0.5 0.625 0.75
          0.25 0.25 0.75 0.75 0.25 0.125
          0.75 0.5 0 0 0 0
          0.5 0.5 0 0 0 0.5
          0 0 0 0.125 0.5 0.625
          0 0 0 0.5 1 1
          1 1 1 0.875 1 1
          0 0 0 0 0 0
          0 0 0 0 0 0
          0 0 0 0 0 0
          0 0 0 0 0 0
          0 0 0 0 0 0
          0 0 0 0 0 0
          0 0 0 0 0 0
          0 0 0 0 0 0
          0 0 0 0 0 0
          0 0 0 0 0 0
          0 0 0 0 0 0
          0 0 0 0 0 0
          0 0 0 0 0 0
          0 0 0 0 0 0
          0 0 0 0 0 0
          0 0 0 0 0 0
          0 0 0 0 0 0
          0 0 0 0 0 0
          0 0 0 0 0 0
          0 0 0 0 0 0
          0 0 0 0 0 0
          0 0 0 0 0 0
          0 0 0 0 0 0
          0 0 0 0 0 0
          0 0 0 0 0 0
          0 0 0 0 0 0
          0 0 0 0 0 0
          0 0 0 0 0 0
          0 0 0 0 0 0
          0 0 0 0 0 0
          0 0 0 0 0 0
          0 0 0 0 0 0
          0 0 0
        </DataArray>
        <DataArray type="Float64" Name="gradient_matprop_marker" format="ascii" RangeMin="0" RangeMax="0">
          0 0 0 0 0 0
          0 0 0 0 0 0
          0 0 0 0 0 0
          0 0 0 0 0 0
          0 0 0 0 0 0
          0 0 0 0 0 0
          0 0 0 0 0 0
          0 0 0 0 0 0
          0 0 0 0 0 0
          0 0 0 0 0 0
          0 0 0 0 0 0
          0 0 0 0 0 0
          0 0 0 0 0 0
          0 0 0 0 0 0
          0 0 0 0 0 0
          0 0 0 0 0 0
          0 0 0 0 0 0
          0 0 0 0 0 0
          0 0 0 0 0 0
          0 0 0 0 0 0
          0 0 0 0 0 0
          0 0 0 0 0 0
          0 0 0 0 0 0
          0 0 0 0 0 0
          0 0 0 0 0 0
          0 0 0 0 0 0
          0 0 0 0 0 0
          0 0 0 0 0 0
          0 0 0 0 0 0
          0 0 0 0 0 0
          0 0 0 0 0 0
          0 0 0 0 0 0
          0 0 0 0 0 0
          0 0 0 0 0 0
          0 0 0 0 0 0
          0 0 0 0 0 0
          0 0 0 0 0 0
          0 0 0 0 0 0
          0 0 0 0 0 0
          0 0 0 0 0 0
          0 0 0 0 0 0
          0 0 0 0 0 0
          0 0 0 0 0 0
          0 0 0 0 0 0
          0 0 0 0 0 0
          0 0 0 0 0 0
          0 0 0
        </DataArray>
        <DataArray type="Float64" Name="combo" format="ascii" RangeMin="0" RangeMax="2">
          2 2 0.5 0.875 1.5 0.75
          0.5 0.75 0.5 0.75 2 1.5
          1.5 1 0.875 0.625 0.625 0.25
          0.75 2 1.875 0.625 2 1
          1 1 0.5 1 0.75 0.25
          0.75 0.625 0.5 0.5 0.5 0.5
          0.5 0.75 0.5 0.5 0.5 0.5
          0.5 0.375 0.5 0.5 0.625 0.75
          0.25 0.25 0.75 0.75 0.25 0.125
          0.75 0.5 2 2 2 2
          1 1 2 2 2 1.5
          2 2 2 1.875 1 0.625
          2 2 2 1.5 1 1
          1 1 1 0.875 1 1
          0 0 1 1 1 1
          1 1 2 2 2 2
          0.5 0 1 1 2 2
          2 2 2 2 2 2
          2 2 1.25 1.5 1 1.5
          2 0 0 0 0 0
          0 0 0 0 0 0
          0 0 0 0 0 0
          0 0 0 0 0 0
          0 0 0 0 0 1
          1 1 1 1 1 2
          2 2 2 1 1 1
          1 1 1 2 2 2
          2 0.5 0.5 0 0 1.25
          1.5 0.5 0.5 0.5 0 0
          1.5 1.5 1 2 2 2
          2 2 2 2 2 2
          2 2 2 2 2 2
          2 2 2 2 2 1.75
          2 1.5 2 2 2 2
          2 2 2 2 2 2
          2 1 1 1 1 1
          1 2 2 2 2 1
          1 1 1 1 1 2
          2 2 2 0.5 0.5 0
          0 1.5 1.5 1 0.5 0.5
          0 0 1.25 1 0.5 2
          2 2 2 2 2 2
          2 2 2 2 2 2
          2 2 2 2 2 2
          2 2 2 2 2 2
          2 2 1.75 1.5 1.5 1
          2 2 2
        </DataArray>
        <DataArray type="Float64" Name="dHdT" format="ascii" RangeMin="27.736171565243893" RangeMax="69.15382761289689">
          45.88281247706362 46.29205802568937 42.05733408948639 36.74812465458869 51.781860728440435 28.341093116592578
          41.74811014187071 35.07213268878779 38.693974256772776 33.192903972001005 46.27362496888202 49.2802469938257
          44.381660821105434 34.09920902490477 33.657308418592834 32.42250989699618 38.71557469933838 30.479626052556227
          33.76052130731965 60.4634183131531 61.999961944039555 43.549314694751374 59.39052289466923 37.029075746403706
          38.82146661989184 30.914806495337906 30.444342076795422 33.42380936102355 32.99418707452246 29.52118454399551
          32.63206896731556 32.21944525573915 31.764117462731996 30.984776733065715 41.62997673283328 39.22870541754557
          39.15543320244942 35.64194982581274 31.780710074956087 31.356195203708133 30.842124547806492 30.374824846276205
          30.091786207057087 29.110859722869822 40.15659856588395 37.983877830930815 35.99748208210988 34.075285087478115
          29.873285397434945 29.19407352506743 33.25109914382011 32.40324017758182 28.46497672320153 27.736171565243893
          31.22916656086614 30.066224734415194 55.14855625728803 58.41892157837775 53.09473159340305 55.80853611356975
          44.21593876881251 43.850457672018145 46.2016279781733 51.65433585155098 49.98391153134002 50.99315500096111
          51.661504034571074 53.50653167668757 50.9384780883228 50.78089286660261 42.018224198182104 39.41585635290702
          46.29430526086183 49.15762948129481 50.2851029086587 47.047629665129975 36.83270108060205 36.080269555109325
          38.7057320849023 38.00627242153284 34.7212730348177 32.97881316699642 36.63094899660922 34.43488165938373
          44.95918710332354 37.22870682848044 56.19506736435799 53.22322377713196 57.79205058939903 55.28287474198487
          50.25138018990593 50.31931882168485 68.18943612524095 69.00540688365331 63.31493366767123 68.96321600582813
          42.38430119794937 39.35804371998556 57.5886433012446 55.529817924935855 56.75482908556361 61.4131845658082
          49.50641634367359 53.50897242784308 69.15382761289689 63.60268084239708 45.625913446393724 49.76306150437925
          45.994639900989895 65.56277359424686 62.8575444387065 63.225681329466674 56.757529486151746 68.12644557616838
          66.92658355523874 47.5848690733316 46.259250826205545 46.793104736910664 41.33579896621453 47.73198659431351
          46.82568645902349 46.82142388020798 43.51539038231776 37.52836482873294 38.48246269544809 37.3187643041163
          39.2698917552732 39.338279611523035 37.428389069644325 47.231614151542956 46.17310730864475 45.14851565613042
          42.957255047783725 44.65725680252001 43.88214258685565 42.06807047319418 40.32651437752773 39.0561204904709
          38.140513379200634 37.31233135112092 37.154395768411646 36.866327484953416 36.76279115295911 56.864125209167504
          55.32932508949375 55.831372249632835 54.82388020550708 49.886056435660315 50.72181383789077 56.343809610658816
          58.60837317454826 56.10514597920372 60.385651568614236 54.9916872465554 53.95845970619089 54.08390875759892
          53.025806770667074 50.77452813687002 50.072099573650874 54.16529673262247 54.6847934745599 53.589076206705506
          57.102441008496335 42.75250013739549 43.681487490660516 39.52741237329034 39.735735466920815 53.89021260291492
          54.22919139495904 47.88205880703906 44.295614782640875 44.13696165120949 39.96740545736809 40.09742893885246
          54.00350426145665 53.060679834097705 49.00641672241797 46.31201105382934 49.40083180247495 46.08156861622052
          47.74139808599606 58.60860682502658 54.980965047683306 46.07978423134445 45.98431660863532 46.12715988768818
          54.88222441793077 46.166250499122256 47.240825052262174 46.20923679130764 47.09458177014645 53.36571040520917
          52.4249725242969 46.25329543179686 46.20329610876283 46.24120078800805 50.56020468484795 60.96488506560422
          58.93328044044603 57.20220903227584 57.30585834129704 62.12598037143665 58.288690376846944 60.376360892937946
          57.585350277101426 56.18049169558302 56.75467934918659 55.4909650915575 56.4850298412981 55.17526741386658
          58.00294709862911 52.83871604277378 51.91278690033575 51.40384126351869 50.69325953058083 49.15392797953551
          47.83521360739331 52.3120832437125 52.76688068500487 52.08570507542593 54.65690227314217 50.12697916759174
          49.34222409614375 48.94228165790984 47.77795861962083 46.08264200774532 45.29806543309825 50.88303847216626
          51.73145552727785 51.95664654277249 52.52934497967345 43.504102487920335 42.4304007191146 39.68720677466735
          39.17305202108556 51.8519342204693 50.492334905984464 47.61174202095152 41.19904049928353 40.620514894561865
          38.79026600777215 38.57410465249265 48.75405831303047 48.412390299456945 45.029299249103474 46.23230708514281
          47.07128292021173 46.24089869728693 47.10164606591344 51.743577765580284 51.20027684126759 46.28626561686523
          46.26127096244046 46.26988538600628 49.523951896163524 46.23298265361055 47.463773520764285 47.02586785600915
          48.336440129097 51.24771787319612 51.873109463476816 46.296589895552046 46.266941592404734 46.24743393869649
          49.27551542500828 54.872714759488034 53.59771458353679 54.16853274309619 52.75726891907838 53.99364556340724
          52.93104741413322 55.17566364250313 52.319102221729835 51.618781252587134 50.83733308498543 49.138355980405464
          52.37377304755414 52.80632820807401 52.433808534349126
        </DataArray>
        <DataArray type="Float64" Name="dk/dtemperature" format="ascii" RangeMin="0.005012749999999996" RangeMax="0.07268791408708541">
          0.008152374999999986 0.0052099999999999985 0.008506958634976504 0.007997293742778952 0.02629614872473006 0.01314905219572482
          0.008723558404210885 0.008340827108068563 0.008789562497967479 0.009505243682961038 0.005966000000000004 0.00830508098782416
          0.025439110810956796 0.009308866627215587 0.009368318440858581 0.009977569336551006 0.008486895453396783 0.011334316023944227
          0.008836909855579597 0.020354482100795445 0.03851154470647033 0.008273102540888637 0.027221250000000006 0.007907392376848808
          0.008212308001337059 0.011043782632674352 0.011302554456561562 0.009780868197412355 0.009733078188794451 0.011917965876162737
          0.010136152217308039 0.010086637678152563 0.01035277050525783 0.010832999086625387 0.008674095630727373 0.00858835663018224
          0.00865484430638154 0.00798845336199155 0.010181156471604886 0.010514844359066543 0.010811268512238415 0.011345557329430028
          0.01159471932420272 0.012496457989065915 0.00847462675889221 0.008622742638859244 0.008478020673854057 0.008703210486841228
          0.011788642864516623 0.012336061919261055 0.009358242286117702 0.010047942068522749 0.012978714258749562 0.013644262843840661
          0.01080558709926167 0.011618949431706752 0.04093974999999998 0.029782563737904964 0.007917500000000004 0.030618678761456727
          0.01491485933849434 0.021481648170491904 0.007102375000000017 0.008056874999999995 0.007404312500000003 0.02416711578066281
          0.021392875000000016 0.030891899732699343 0.017071320527943804 0.012698400995152775 0.019743011013718278 0.008412063064717047
          0.0051623749999999986 0.007009249999999993 0.0073188749999999955 0.00825669546802016 0.008177659107450514 0.008555300329991827
          0.00821677667210498 0.008213608517576496 0.009171640164613465 0.00993977782758446 0.008672337637548839 0.009431794798911021
          0.008916059932494756 0.00915890007183587 0.03684251045949363 0.030043897946737445 0.02046468570223855 0.027570209549684026
          0.023245285433981258 0.02624269103135292 0.03688599207778348 0.041142640530289605 0.031108617083436645 0.0460113287109409
          0.009232906421006559 0.009089206542213377 0.028034822871406663 0.0263558716510041 0.008801808216510935 0.019944901966510938
          0.008406312499999999 0.01216315625 0.04594556865006333 0.03468053311038119 0.008594875000000009 0.008744000000000009
          0.008333437500000002 0.0416320000000001 0.03521025527662611 0.0397679495642865 0.026094832907810638 0.04238568768184556
          0.04465554803715548 0.008841176884066654 0.00889003198071348 0.008874880909519928 0.009019901541842689 0.008835017921913869
          0.008873124968191669 0.008888598441375004 0.009024311740603582 0.00888709925708675 0.008542566308463237 0.008673282507848427
          0.008532640576440181 0.008457438272299986 0.007927889686142667 0.008863448856380803 0.008935893079399458 0.009028783651293113
          0.009111638469310838 0.009075635353734332 0.00909182947206252 0.008622960710406698 0.00832839341290533 0.008239610656380809
          0.007642507288462855 0.007264281676558053 0.007094748888113697 0.007064274945754845 0.006640734540807446 0.025688259862192444
          0.023717952369804975 0.04143024374965218 0.02768840095396956 0.018817549269126668 0.021876338157573564 0.025407171420159122
          0.023512498879448247 0.027295241749209595 0.028153489367176328 0.025244571460956957 0.027517967824413972 0.008819229285351372
          0.026082048311005614 0.026460931623402087 0.026197310111256145 0.02454193750000002 0.026928186590318128 0.025315874090318116
          0.038460369503100285 0.012352618954386982 0.019136729532794126 0.008817784247938137 0.008467340908728083 0.02231514717516143
          0.03409395745327425 0.009941141954707569 0.01579043526050394 0.008711076690440933 0.008450371462074682 0.008372400495029438
          0.04246356234610316 0.026979457936466725 0.03732082136664199 0.007973437500000005 0.008175906250000005 0.007475812500000006
          0.0077107812500000015 0.018084890868971002 0.01644121874999997 0.0076678750000000045 0.007872687500000001 0.007333000000000004
          0.008477999999999996 0.006974312500000001 0.00725953125 0.00650393750000001 0.006859281250000007 0.02036093749999999
          0.012650714466510931 0.006518875000000007 0.006825500000000009 0.006362312500000007 0.0076986875000000015 0.03479768137108917
          0.03132250781241539 0.04180395600423635 0.03770832812483084 0.040783207043542706 0.024187993475407312 0.07268791408708541
          0.035257826452631494 0.026759614642652967 0.03733852790526302 0.035432425352284073 0.00863675815762437 0.008525028520954358
          0.009008266315248748 0.008789599428190393 0.023909789380017855 0.022556608526116073 0.022270828415964686 0.024048676208191875
          0.022305750008207476 0.007736125000000004 0.022999967840318138 0.021265561590318144 0.02837304019004739 0.03190768073952839
          0.020806446013377854 0.018198177701124644 0.016385919583109067 0.016333735474265094 0.012967080684993129 0.03068686306266124
          0.019792093777346604 0.015727595477905722 0.020380085187971447 0.008610771055100991 0.01527154134619769 0.008154169025663545
          0.00791663098179372 0.02696954190539428 0.0361332375329785 0.03545681411133006 0.015345135271084425 0.008726319522280613
          0.007728010880865973 0.007698719919768815 0.02363507982570321 0.010585312114461799 0.0154073137674955 0.006131187500000012
          0.006537187500000013 0.005891125000000009 0.006344437500000018 0.012453745716510933 0.01650687499999994 0.005505874999999998
          0.005958124999999996 0.0056706249999999995 0.007147124999999996 0.005823375000000012 0.006325281250000014 0.006027500000000007