<?xml version="1.0"?>
<VTKFile type="UnstructuredGrid" version="0.1" byte_order="LittleEndian" header_type="UInt32" compressor="vtkZLibDataCompressor">
  <UnstructuredGrid>
    <Piece NumberOfPoints="1320" NumberOfCells="853">
      <PointData>
        <DataArray type="Int32" Name="libmesh_node_id" format="ascii" RangeMin="2323" RangeMax="13093">
          2323 2439 2458 2629 2646 2647
          2649 2650 2651 2654 2655 2657
          2659 2662 2663 2664 2665 2667
          2668 2669 2685 2687 2691 2692
          2800 3201 3264 3268 3272 3274
          3275 3276 3277 3278 3291 3301
          3313 3314 3315 3319 3322 3323
          3324 3326 3328 3330 3331 3332
          3333 3334 3335 3336 3337 3338
          3339 3369 3372 3373 3375 3377
          3388 3389 3390 3391 3392 3393
          3394 3395 3396 3397 3398 3399
          3400 3401 3402 3403 3404 3405
          3406 3407 3453 3515 3521 3607
          3608 3609 3636 3637 3640 3641
          3642 3643 3644 3645 3646 3647
          3650 3651 3654 3656 3665 3666
          3667 3670 3671 3672 3673 3674
          3675 3676 3677 3678 3679 3680
          3681 3706 3707 3709 3710 3711
          3712 3713 3714 3715 3736 3737
          3740 3741 3743 3745 4805 4839
          4875 4876 4877 4880 4885 4886
          4887 4890 4913 4914 4917 4920
          4921 4924 4937 4938 4939 4940
          4941 4943 4944 4951 4955 4956
          4957 4958 4959 4960 4961 4962
          4963 4964 4973 4974 4975 4977
          4978 4986 4987 4988 4989 4990
          4991 4992 4993 4994 4995 4996
          4997 4998 4999 5000 5001 5002
          5003 5004 5005 5006 5007 5008
          5009 5010 5011 5012 5013 5014
          5015 5016 5017 5018 5019 5020
          5021 5022 5023 5024 5025 5026
          5027 5028 5029 5030 5031 5032
          5033 5034 5035 5036 5037 5038
          5039 5040 5041 5042 5043 5044
          5045 5046 5047 5048 5049 5050
          5051 5052 5053 5054 5055 5056
          5057 5058 5059 5060 5208 5209
          5212 5213 5214 5215 5216 5217
          5228 5229 5230 5231 5232 5233
          5234 5242 5243 5244 5245 5246
          5247 5248 5249 5250 5251 5252
          5253 5256 5257 5259 5261 5274
          5275 5278 5280 5281 5284 5285
          5289 5290 5291 5292 5293 5294
          5295 5296 5297 5298 5299 5300
          5301 5302 5303 5304 5305 5306
          5307 5308 5369 5370 5371 5372
          5373 5374 5375 5376 5377 5378
          5386 5387 5388 5389 5390 5391
          5392 5393 5394 5395 5396 5397
          5398 5399 5400 5401 5402 5490
          5491 5494 5496 5521 5539 5540
          5541 5542 5543 5544 5545 5546
          5547 5548 5549 5550 5551 5552
          5580 5581 5582 5583 5584 5585
          5586 5587 5588 5589 5590 5591
          5592 5593 5594 5595 5596 5597
          5598 5599 5600 5601 5602 5603
          5604 5605 5606 5607 5608 5609
          5610 5611 5612 5613 5666 5667
          5668 5685 5686 5689 5697 5698
          5699 5700 5701 5702 5703 5721
          5722 5723 5724 5725 5726 5727
          5728 5729 5730 10270 10271 10272
          10275 10299 10300 10303 10519 10520
          10523 10547 10548 10551 10740 10741
          10742 10745 10750 10751 10752 10755
          10772 10773 10776 10779 10780 10783
          10813 10823 10840 10841 10844 10847
          10848 10851 11004 11005 11008 11011
          11012 11015 11032 11033 11036 11039
          11040 11043 11060 11061 11064 11067
          11068 11071 11088 11089 11092 11095
          11096 11099 11178 11179 11180 11181
          11182 11183 11184 11185 11186 11187
          11198 11199 11200 11201 11202 11203
          11204 11205 11206 11207 11215 11216
          11217 11218 11219 11220 11221 11225
          11229 11230 11231 11232 11233 11234
          11235 11292 11293 11296 11298 11300
          11301 11302 11303 11304 11305 11306
          11307 11308 11309 11312 11313 11316
          11318 11320 11321 11322 11323 11324
          11325 11326 11327 11328 11329 11393
          11394 11395 11396 11397 11398 11399
          11403 11407 11408 11409 11410 11411
          11412 11413 11421 11422 11423 11424
          11425 11426 11427 11431 11435 11436
          11437 11438 11439 11440 11441 11499
          11501 11503 11505 11506 11507 11508
          11509 11510 11511 11513 11515 11517
          11519 11520 11521 11522 11523 11524
          11525 11527 11529 11531 11533 11534
          11535 11536 11537 11538 11539 11541
          11543 11545 11547 11548 11549 11550
          11551 11552 11553 11554 11555 11556
          11557 11558 11559 11560 11561 11562
          11563 11564 11565 11566 11567 11568
          11569 11570 11571 11572 11573 11574
          11575 11576 11577 11578 11579 11580
          11581 11582 11583 11584 11585 11586
          11587 11588 11589 11590 11591 11592
          11593 11594 11595 11596 11597 11598
          11599 11600 11601 11602 11603 11604
          11605 11606 11607 11608 11609 11610
          11611 11612 11613 11614 11615 11616
          11617 11618 11619 11620 11621 11622
          11623 11624 11625 11626 11627 11628
          11629 11630 11631 11632 11633 11634
          11635 11636 11637 11638 11639 11640
          11641 11642 11643 11644 11645 11646
          11647 11648 11649 11650 11651 11652
          11653 11654 11655 11656 11657 11658
          11659 11660 11661 11662 11663 11664
          11665 11666 11667 11668 11669 11670
          11671 11672 11673 11674 11675 11676
          11677 11678 11679 11680 11681 11682
          11683 11684 11685 11686 11687 11688
          11689 11690 11691 11692 11693 11694
          11695 11696 11697 11698 11699 11700
          11701 11702 11703 11704 11705 11706
          11707 11708 11709 11710 11711 11712
          11713 11714 11715 11716 11717 11718
          11719 11720 11721 11722 11723 11724
          11725 11726 11727 11728 11729 11730
          11731 11732 11733 11734 11735 11736
          11737 11738 11739 11740 11741 11742
          11743 11744 11745 11746 11747 11748
          11749 11750 11751 11752 11753 11754
          11755 11756 11757 11758 11759 11760
          11761 11762 11763 11764 11765 11766
          11767 11768 11769 11770 11771 11772
          11773 11774 11775 11776 11777 11778
          11779 11780 11781 11782 11783 11784
          11785 11786 11787 11788 11789 11790
          11791 11792 11793 11794 11795 11796
          11797 11798 11799 11800 11801 11802
          11803 11804 11805 11806 11807 11808
          11809 11810 11811 11812 11813 11814
          11815 11816 11817 11818 11819 11820
          11821 11822 11823 11824 11825 11826
          11827 11828 11829 11830 11831 11832
          11833 11834 11835 11836 11837 11838
          11839 11840 11841 11842 11843 11844
          11845 11846 11847 11848 11849 11850
          11851 11852 11853 11854 11855 11856
          11857 11858 11859 11860 11861 11862
          11863 11864 11865 11866 11867 11868
          11869 11870 11871 11872 11873 11874
          11875 11876 11877 11878 11879 11880
          11881 11882 11883 11884 11885 11886
          11887 11888 11889 11890 11891 11892
          11893 11894 11895 11896 11897 11898
          11899 11900 11901 11902 11903 11904
          11905 11906 11907 11908 11909 11910
          11911 11912 11913 11914 11915 11916
          11917 11918 11919 11920 11921 11922
          11923 11924 11925 11926 11927 11928
          11929 11930 12075 12076 12080 12283
          12287 12311 12315 12689 12690 12691
          12692 12693 12694 12695 12696 12697
          12698 12699 12700 12701 12702 12703
          12704 12705 12706 12707 12708 12709
          12710 12711 12712 12713 12714 12715
          12716 12717 12718 12719 12720 12721
          12722 12723 12724 12725 12726 12727
          12728 12739 12740 12741 12742 12743
          12744 12745 12746 12747 12748 12749
          12750 12751 12752 12753 12754 12755
          12756 12757 12758 12759 12760 12761
          12762 12763 12764 12765 12766 12767
          12768 12769 12770 12771 12772 12773
          12774 12775 12776 12777 12778 12779
          12780 12781 12782 12783 12784 12785
          12786 12787 12788 12789 12790 12791
          12792 12793 12794 12812 12813 12816
          12817 12819 12821 12846 12848 12850
          12852 12860 12861 12862 12863 12864
          12865 12866 12867 12868 12869 12870
          12871 12872 12873 12874 12875 12876
          12877 12878 12879 12880 12881 12882
          12883 12884 12885 12886 12887 12888
          12889 12890 12891 12892 12893 12894
          12895 12896 12897 12898 12899 12900
          12901 12902 12903 12904 12905 12906
          12907 12908 12909 12910 12911 12912
          12913 12914 12915 12916 12917 12918
          12919 12920 13035 13036 13039 13041
          13043 13044 13045 13046 13047 13048
          13049 13050 13051 13052 13054 13056
          13058 13060 13061 13062 13063 13064
          13065 13066 13067 13068 13069 13070
          13071 13072 13073 13074 13075 13076
          13077 13078 13079 13080 13081 13082
          13083 13084 13085 13086 13087 13088
          13089 13090 13091 13092 13093 2648
          2442 2652 2684 2688 2689 2686
          2455 2690 2460 2693 2805 2808
          2811 2810 2660 2450 2677 2812
          2678 2813 2816 2817 2819 2821
          2801 3455 3470 3472 3517 3522
          3689 3702 3690 3703 3704 3705
          3708 3347 3368 3370 3738 3374
          3739 3742 2683 3744 5093 5094
          5210 5095 5211 5218 5222 5219
          5223 5225 5227 3371 5254 5237
          5238 5255 5258 5241 3376 5260
          5350 5356 5224 12077 5098 12085
          12086 12087 12090 3348 12115 12729
          12116 12730 12733 12734 12120 12736
          12738 12284 5131 12290 12291 12294
          5132 12312 5135 12318 12319 12322
          3353 12339 12795 12797 12343 12799
          12801 12814 12798 12815 12818 5235
          12820 12367 12832 12834 12371 12836
          12838 12835 12847 12849 5239 12851
        </DataArray>
        <DataArray type="Float64" Name="bounds" format="ascii" RangeMin="0" RangeMax="0">
          0 0 0 0 0 0
          0 0 0 0 0 0
          0 0 0 0 0 0
          0 0 0 0 0 0
          0 0 0 0 0 0
          0 0 0 0 0 0
          0 0 0 0 0 0
          0 0 0 0 0 0
          0 0 0 0 0 0
          0 0 0 0 0 0
          0 0 0 0 0 0
          0 0 0 0 0 0
          0 0 0 0 0 0
          0 0 0 0 0 0
          0 0 0 0 0 0
          0 0 0 0 0 0
          0 0 0 0 0 0
          0 0 0 0 0 0
          0 0 0 0 0 0
          0 0 0 0 0 0
          0 0 0 0 0 0
          0 0 0 0 0 0
          0 0 0 0 0 0
          0 0 0 0 0 0
          0 0 0 0 0 0
          0 0 0 0 0 0
          0 0 0 0 0 0
          0 0 0 0 0 0
          0 0 0 0 0 0
          0 0 0 0 0 0
          0 0 0 0 0 0
          0 0 0 0 0 0
          0 0 0 0 0 0
          0 0 0 0 0 0
          0 0 0 0 0 0
          0 0 0 0 0 0
          0 0 0 0 0 0
          0 0 0 0 0 0
          0 0 0 0 0 0
          0 0 0 0 0 0
          0 0 0 0 0 0
          0 0 0 0 0 0
          0 0 0 0 0 0
          0 0 0 0 0 0
          0 0 0 0 0 0
          0 0 0 0 0 0
          0 0 0 0 0 0
          0 0 0 0 0 0
          0 0 0 0 0 0
          0 0 0 0 0 0
          0 0 0 0 0 0
          0 0 0 0 0 0
          0 0 0 0 0 0
          0 0 0 0 0 0
          0 0 0 0 0 0
          0 0 0 0 0 0
          0 0 0 0 0 0
          0 0 0 0 0 0
          0 0 0 0 0 0
          0 0 0 0 0 0
          0 0 0 0 0 0
          0 0 0 0 0 0
          0 0 0 0 0 0
          0 0 0 0 0 0
          0 0 0 0 0 0
          0 0 0 0 0 0
          0 0 0 0 0 0
          0 0 0 0 0 0
          0 0 0 0 0 0
          0 0 0 0 0 0
          0 0 0 0 0 0
          0 0 0 0 0 0
          0 0 0 0 0 0
          0 0 0 0 0 0
          0 0 0 0 0 0
          0 0 0 0 0 0
          0 0 0 0 0 0
          0 0 0 0 0 0
          0 0 0 0 0 0
          0 0 0 0 0 0
          0 0 0 0 0 0
          0 0 0 0 0 0
          0 0 0 0 0 0
          0 0 0 0 0 0
          0 0 0 0 0 0
          0 0 0 0 0 0
          0 0 0 0 0 0
          0 0 0 0 0 0
          0 0 0 0 0 0
          0 0 0 0 0 0
          0 0 0 0 0 0
          0 0 0 0 0 0
          0 0 0 0 0 0
          0 0 0 0 0 0
          0 0 0 0 0 0
          0 0 0 0 0 0
          0 0 0 0 0 0
          0 0 0 0 0 0
          0 0 0 0 0 0
          0 0 0 0 0 0
          0 0 0 0 0 0
          0 0 0 0 0 0
          0 0 0 0 0 0
          0 0 0 0 0 0
          0 0 0 0 0 0
          0 0 0 0 0 0
          0 0 0 0 0 0
          0 0 0 0 0 0
          0 0 0 0 0 0
          0 0 0 0 0 0
          0 0 0 0 0 0
          0 0 0 0 0 0
          0 0 0 0 0 0
          0 0 0 0 0 0
          0 0 0 0 0 0
          0 0 0 0 0 0
          0 0 0 0 0 0
          0 0 0 0 0 0
          0 0 0 0 0 0
          0 0 0 0 0 0
          0 0 0 0 0 0
          0 0 0 0 0 0
          0 0 0 0 0 0
          0 0 0 0 0 0
          0 0 0 0 0 0
          0 0 0 0 0 0
          0 0 0 0 0 0
          0 0 0 0 0 0
          0 0 0 0 0 0
          0 0 0 0 0 0
          0 0 0 0 0 0
          0 0 0 0 0 0
          0 0 0 0 0 0
          0 0 0 0 0 0
          0 0 0 0 0 0
          0 0 0 0 0 0
          0 0 0 0 0 0
          0 0 0 0 0 0
          0 0 0 0 0 0
          0 0 0 0 0 0
          0 0 0 0 0 0
          0 0 0 0 0 0
          0 0 0 0 0 0
          0 0 0 0 0 0
          0 0 0 0 0 0
          0 0 0 0 0 0
          0 0 0 0 0 0
          0 0 0 0 0 0
          0 0 0 0 0 0
          0 0 0 0 0 0
          0 0 0 0 0 0
          0 0 0 0 0 0
          0 0 0 0 0 0
          0 0 0 0 0 0
          0 0 0 0 0 0
          0 0 0 0 0 0
          0 0 0 0 0 0
          0 0 0 0 0 0
          0 0 0 0 0 0
          0 0 0 0 0 0
          0 0 0 0 0 0
          0 0 0 0 0 0
          0 0 0 0 0 0
          0 0 0 0 0 0
          0 0 0 0 0 0
          0 0 0 0 0 0
          0 0 0 0 0 0
          0 0 0 0 0 0
          0 0 0 0 0 0
          0 0 0 0 0 0
          0 0 0 0 0 0
          0 0 0 0 0 0
          0 0 0 0 0 0
          0 0 0 0 0 0
          0 0 0 0 0 0
          0 0 0 0 0 0
          0 0 0 0 0 0
          0 0 0 0 0 0
          0 0 0 0 0 0
          0 0 0 0 0 0
          0 0 0 0 0 0
          0 0 0 0 0 0
          0 0 0 0 0 0
          0 0 0 0 0 0
          0 0 0 0 0 0
          0 0 0 0 0 0
          0 0 0 0 0 0
          0 0 0 0 0 0
          0 0 0 0 0 0
          0 0 0 0 0 0
          0 0 0 0 0 0
          0 0 0 0 0 0
          0 0 0 0 0 0
          0 0 0 0 0 0
          0 0 0 0 0 0
          0 0 0 0 0 0
          0 0 0 0 0 0
          0 0 0 0 0 0
          0 0 0 0 0 0
          0 0 0 0 0 0
          0 0 0 0 0 0
          0 0 0 0 0 0
          0 0 0 0 0 0
          0 0 0 0 0 0
          0 0 0 0 0 0
          0 0 0 0 0 0
          0 0 0 0 0 0
          0 0 0 0 0 0
          0 0 0 0 0 0
          0 0 0 0 0 0
          0 0 0 0 0 0
          0 0 0 0 0 0
          0 0 0 0 0 0
          0 0 0 0 0 0
          0 0 0 0 0 0
          0 0 0 0 0 0
          0 0 0 0 0 0
          0 0 0 0 0 0
          0 0 0 0 0 0
          0 0 0 0 0 0
        </DataArray>
        <DataArray type="Float64" Name="gradient_error" format="ascii" RangeMin="2.244479141647729e-14" RangeMax="6.602759715254118e-11">
          5.806177280259625e-13 1.7206408443250255e-11 1.8899811329805046e-13 6.602759715254118e-11 2.3408015660598607e-11 1.8237602962900622e-11
          3.84041222425389e-12 1.4193757081413464e-11 8.627653648709929e-12 1.0377489502007824e-12 1.6959006631131604e-12 9.574972636207904e-12
          2.771232992712279e-12 9.752666702903909e-13 4.0728199658158124e-12 2.2462894796018253e-12 4.882150703313003e-13 2.6467129115943903e-11
          2.877164881692985e-12 6.832126888391301e-13 8.288040289714376e-13 2.8472223220459894e-13 9.856824995044602e-13 2.97693251285797e-13
          5.882589137247009e-11 2.9685371210542184e-11 2.509258610271533e-11 1.0610346613123527e-11 1.1847137610898281e-11 5.120915760481586e-12
          2.573594072984222e-12 7.2179538390665506e-12 5.1539804199129984e-12 2.248936555108941e-12 2.8755283340380587e-12 9.149761273664178e-12
          1.3723253129877617e-12 3.0686710489019693e-12 9.166684506520983e-13 9.27046333601903e-12 3.0910187347484495e-12 2.076159538890631e-12
          3.4789825935528154e-12 5.144334106004867e-13 5.7422153325326195e-12 1.6564617056352242e-12 6.830827768975939e-13 8.554975555442931e-13
          2.452499571593724e-13 9.565254067545805e-13 5.916746724145506e-13 3.294325474206026e-13 1.958011091353932e-12 5.94900376733876e-13
          3.607172839790566e-13 1.1818786788713648e-13 1.8076740622311546e-13 1.5373322867170306e-13 1.6002016856637858e-13 2.057110812394264e-13
          2.068953426264677e-12 1.6331378009047896e-12 8.208812375600176e-13 8.941405749827791e-13 1.3348068206224924e-12 1.1621420037310332e-12
          9.353706421944613e-13 1.2601946282601506e-12 1.2215402839824044e-12 8.996239966829066e-13 4.396547627462447e-13 4.552723567404409e-13
          3.34115816161397e-13 2.722276609889445e-13 2.7376111652148655e-13 5.095552449828735e-13 1.766103511667333e-13 4.613337787155208e-13
          1.5924541560195202e-13 6.548026943192207e-13 1.7212402848585793e-11 1.258093470292644e-12 1.2434737262003597e-12 1.321754670619926e-11
          1.3677809543606799e-11 6.0293430219302305e-12 1.0894017925204888e-11 2.153291740230461e-11 9.685749102826314e-12 4.967728544477518e-12
          9.949157454301103e-12 2.30901033454678e-12 4.417217065868856e-12 3.233333544326181e-12 4.60690408392865e-12 2.1145364508137668e-12
          3.6198775261146654e-12 3.946084427728777e-12 2.0635413600399425e-12 4.2722913293428886e-12 1.5596732809155866e-12 1.3546626840322201e-12
          8.001497664858221e-13 2.2951412878877088e-12 2.7717045418546743e-12 2.46537112217682e-12 3.3983641443763286e-12 2.3195250222986905e-12
          8.779498226886492e-13 1.3739496123057565e-12 3.4743913974446593e-13 8.282632498985666e-13 4.557027206446534e-13 9.32996908252587e-13
          4.3817613578098525e-13 1.1260127131171382e-13 1.9581099004995323e-13 1.0183164368483743e-12 1.8257286203727284e-12 4.904477368381017e-13
          7.578419117689985e-13 7.238443882266281e-13 9.41736967267282e-13 4.1950863947738194e-13 1.4233673645727372e-13 1.2224709252340013e-13
          6.400064873560669e-14 6.702626593430504e-14 1.0406644611385319e-13 7.005188313300338e-14 2.9192508610362144e-12 2.2055958703779055e-11
          1.567403534698438e-12 1.6886182865188167e-12 1.1742299077388678e-12 5.3757677673043015e-12 9.723398148418854e-13 8.849610736451603e-13
          5.886298479299068e-13 1.7018766043576853e-12 1.3142580574925496e-11 7.599749430737867e-12 1.5903230434799387e-11 4.264717816928856e-12
          2.322483403144508e-12 5.243134286769992e-12 2.0908740356212877e-12 1.9854293029369996e-12 2.8153159740874476e-12 2.228709583954856e-12
          1.7448046548152149e-12 4.6494026451856496e-12 3.4716460917911636e-12 2.107842103084998e-12 3.2942082853612322e-12 2.002311204058719e-12
          1.9577365192857952e-12 1.1858976080523957e-12 1.4736955020480127e-12 1.2833712188925652e-12 7.60673602963518e-13 1.3918680992009172e-12
          8.275499891972366e-13 8.791461488441855e-13 1.0699572823162115e-11 7.386601681340278e-12 4.480796660842638e-12 1.3444335922106427e-11
          9.418673549686723e-12 2.7403442222189405e-12 1.6511507663094268e-12 9.148012267331338e-13 5.450642895924153e-13 3.484564730384979e-12
          2.1082998653538908e-12 1.1419329450224284e-12 1.633182056813855e-12 1.5644992452026154e-12 1.3874494711787822e-12 1.133624979349803e-12
          1.9070773908678425e-12 1.4590698535297443e-12 8.341135577252128e-13 2.7193608753916344e-12 1.5459348824995757e-12 1.2072062494580793e-12
          1.4059193559787728e-12 8.800392707971774e-13 7.639960620099176e-13 4.755743359019325e-13 7.452484728104404e-13 4.576511962731391e-13
          2.970679715429991e-13 8.543381480727084e-13 4.587927432835776e-13 3.760664968686757e-13 1.130645469751458e-12 8.14973022496216e-13
          6.571588082503668e-13 6.016005063661161e-13 5.107344173826116e-13 5.625795488375862e-13 5.432620514065558e-13 5.935383521322177e-13
          4.557236625464743e-13 5.015448624689317e-13 3.6564878073070947e-13 3.3277474186198895e-13 1.9599961790563911e-13 2.2858975196295533e-13
          2.3904881741684824e-13 3.7332937853709955e-13 1.9928298563782786e-13 2.4988824770631783e-13 2.2356476406781935e-13 3.1127745342176494e-13
          6.343637780929521e-12 3.652458094503734e-12 2.641811995422389e-12 1.513484253415294e-12 8.018394746788183e-12 4.643243209129413e-12
          3.4018346620357066e-12 2.0420504684510536e-12 1.1084771652693974e-12 8.427898565206072e-13 4.553642347998932e-13 2.6103840981846007e-12
          1.4246107745251926e-12 1.0948854761297138e-12 9.66957978961709e-13 5.49715347961449e-13 3.915894739262864e-13 3.722679311853415e-13
          1.2410012739572092e-12 7.091921078695693e-13 3.974020263552418e-13 3.0332203437840316e-13 1.998582196891171e-13 2.8155750543200015e-13
          1.9749968688740128e-13 3.933618058436343e-13 2.1192532370049506e-13 3.458213600658828e-13 4.005501944014577e-13 2.495731979369015e-13
          2.0972676604519021e-13 2.0771763562000436e-13 1.3752308466077948e-13 2.393127161365605e-13 1.4649770292970133e-13 1.7547727663321954e-13
          5.841685452504183e-13 2.9870223723178286e-13 2.384720507659035e-13 1.2084407448327068e-13 7.547452641518384e-13 3.882963404326239e-13
          3.133604615550377e-13 2.150995775642731e-13 1.8122268041851068e-13 1.1445044531471985e-13 1.3158470724595908e-13 1.8010192680905704e-13
          1.8422217263392825e-13 1.6629460359288072e-13 1.778587340521194e-13 1.6241298430811113e-13 1.6851084505906475e-13 7.381798712510438e-14
          1.0816435455977907e-13 6.302163249714762e-14 1.0537651396901782e-13 1.333361472389811e-13 1.264498529597647e-13 1.0251882469514111e-12
          1.514145203008905e-12 8.285352898815345e-13 1.557489435176272e-12 1.2242981119710956e-12 8.79066866491972e-13 1.1707844670593066e-12
          9.66489013429832e-13 8.289042588071358e-13 5.650214113948071e-13 4.907424909358884e-13 8.818242153513308e-13 1.2956723679761388e-12
          7.676201269014311e-13 9.61847520731424e-13 5.715597073148291e-13 1.4801011107929143e-12 4.06305372068748e-13 3.6982721236712135e-13
          3.7307153667962245e-13 3.7460133602993865e-13 3.061284033481856e-13 4.326079676890766e-13 2.4433209874732754e-13 3.2427676781407574e-13
          3.3068311627489794e-13 4.956070918107723e-13 1.5629154615921222e-12 1.7784856966054406e-12 7.902662272011723e-13 8.355180832768322e-13
          1.0173480742244043e-12 8.611242140658692e-13 4.164963321455236e-13 1.9940559316187593e-12 8.807699393524919e-13 7.049003539073343e-13
          2.2715486021790368e-13 3.238420433069251e-13 1.596564015199542e-13 1.9207988720800228e-13 1.5117360828023124e-13 1.6719402283833893e-13
          1.0759402892168995e-13 3.5889709155815793e-13 3.5637341081870247e-13 2.4492034186868577e-13 2.1267945465364635e-13 2.458792555468584e-13
          2.0728057573425053e-13 1.5276401087191952e-13 3.5384973007924696e-13 1.8043856743860694e-13 1.6868189592164262e-13 1.0380563760857877e-12
          1.146401305326682e-12 6.655208928076852e-13 1.2547462345675764e-12 2.9647135740196066e-12 1.0472575330555708e-13 1.7530631397702835e-13
          5.839448625987267e-14 9.421427815155857e-14 7.541352554635196e-14 1.067573132000015e-13 6.08273664913753e-14 3.3194220283355826e-14
          4.898141724305184e-14 2.641376294383869e-14 3.499212397416426e-14 2.5184848570245584e-14 3.346246929313494e-14 2.4784797889369702e-14
          6.34191019222171e-13 9.383829520713824e-13 3.83572110052453e-13 5.542964426619118e-13 4.0190406069495363e-13 5.271544331191258e-13
          3.252106673186602e-13 6.286409818555881e-13 7.004889100151159e-13 4.798730478112955e-13 5.267105243538346e-13 4.591650451727193e-13
          4.484547960783616e-13 3.7758156902832385e-13 7.723368381746437e-13 5.735480008963737e-13 4.37744546984004e-13 2.320170304278001e-13
          3.172532740356006e-13 1.7997577402019678e-13 2.299093131704369e-13 1.6913462661145764e-13 2.0589129487022397e-13 1.670993756288371e-13
          2.4467417007396824e-13 2.933368152012396e-13 1.3711771466458903e-13 1.656534423812833e-13 1.4355895125261923e-13 1.4740786400759342e-13
          9.224180747340948e-14 3.41999460328511e-13 1.9418917009797757e-13 1.5125677676256763e-13 9.081444862773629e-13 1.6918898326167565e-12
          1.075974342362861e-12 1.0410780829428123e-12 1.8257880644795043e-12 1.3192116224290436e-12 6.349482293034601e-13 1.0353082640604419e-12
          4.973140591841068e-13 7.550678060390542e-13 5.245623949848929e-13 7.572143932417683e-13 5.797302615425144e-13 7.409229513291563e-14
          8.761172774427948e-14 5.506550602721269e-14 6.128974659557097e-14 5.293464945368149e-14 5.680480350173571e-14 4.459162821320836e-14
          1.011311603556433e-13 6.751398716392924e-14 6.067495754978995e-14 1.4860187397073854e-12 2.1026193395664618e-12 1.6106537798613649e-12
          3.800417055862583e-12 6.7643192105606116e-12 5.2173615447657695e-12 1.1811450234987872e-11 1.9562008045107988e-11 1.5216008275792808e-11
          2.8252164105702746e-11 3.305647316892527e-11 2.5882947115844823e-11 3.375675799550687e-11 8.627948129477664e-13 1.2251577496260006e-12
          9.28514886119682e-13 2.2281123577024878e-12 5.163688513582813e-13 6.993617773875638e-13 5.648430124290227e-13 1.2691438719471756e-12
          3.997318535911477e-12 3.043030326356475e-12 7.038029046047203e-12 2.3057087442578317e-12 1.7326559949316517e-12 4.076363834589045e-12
          7.865390412466039e-13 4.196347235435558e-13 1.286851153160591e-12 9.491496354464163e-13 2.29365106087614e-12 6.970044502770947e-13
          5.081420278688835e-13 1.253607622937513e-12 1.1749294937747723e-11 9.006125033123529e-12 1.708967812047135e-11 6.852972660470106e-12
          5.176397127499851e-12 1.0031562081034681e-11 2.0112545014415074e-11 1.551049754576899e-11 2.0594198614010705e-11 1.1871257334238303e-11
          9.01747086883355e-12 1.2188092606207525e-11 3.881277097051344e-12 2.888827545477966e-12 5.714437352518059e-12 2.134323776383986e-12
          1.5652789696978757e-12 3.159003490097927e-12 6.798183802630821e-12 5.0865472763459634e-12 6.9981925081947446e-12 3.777252458106607e-12
          2.7838886073780397e-12 3.898678602215064e-12 1.1579140991863027e-12 1.6074496963102795e-12 8.941972680347363e-13 1.2247583289397982e-12
          8.855413973293318e-13 1.1865766222063134e-12 9.786044311368108e-13 2.8621978576825357e-12 2.191761932296631e-12 2.079384400251053e-12
          6.674172297231155e-13 8.528779627214419e-13 6.013620288389557e-13 7.391512085411882e-13 5.770696941082337e-13 7.131877758311223e-13
          6.295845628828474e-13 1.4589817774752826e-12 1.2528439995680237e-12 1.1300112853978116e-12 5.010733594045294e-12 3.865920570054018e-12
          3.5953348803495662e-12 2.7721706751152312e-12 8.572749488444836e-12 6.63372554539164e-12 6.016166346683813e-12 2.1675480228882774e-12
          2.4965779524357544e-12 1.9184799127962535e-12 1.6758928771378254e-12 1.2869319121998669e-12 4.0875053833435576e-12 3.154555031391571e-12
          2.6938913487210947e-12 1.0889613530393768e-12 1.4198006790423974e-12 9.101128773858144e-13 2.2272926810811825e-12 8.363953531751817e-13
          1.0945155000547315e-12 6.405510525940202e-13 8.39574653334123e-13 5.427916478113925e-13 6.995449960631267e-13 5.348987737532336e-13
          1.7257793684764041e-12 1.328873472618501e-12 1.0768153829029262e-12 4.4596799260279043e-13 5.647250206130485e-13 4.3256133245663875e-13
          8.484386626851196e-13 3.422122216729687e-13 4.343597813994072e-13 2.6228577554920766e-13 3.3261576292074335e-13 2.7243544001486574e-13
          3.3314197911371086e-13 2.564176274998946e-13 6.551720836628557e-13 5.030979606339124e-13 4.3254576255878353e-13 1.3969730403319911e-11
          1.085363486368151e-11 9.625115822071387e-12 7.468688769896731e-12 2.0088478204974398e-11 1.5660840145197605e-11 1.374425110608986e-11
          5.305824321714002e-12 6.409612317497761e-12 4.9666891157075774e-12 4.134162366340884e-12 3.19900289938311e-12 9.063668737732991e-12
          7.045329688182888e-12 5.773475792466574e-12 2.3846323786164875e-11 1.863729380494578e-11 1.6484267367383472e-11 1.2860991948079993e-11
          2.466370975829088e-11 1.9296362621435715e-11 1.72174442806427e-11 8.91671283866337e-12 1.0937979884804465e-11 8.51928325112855e-12
          6.982744525392345e-12 5.4293458439592814e-12 1.1506367208092066e-11 8.968339314885519e-12 7.380501256047058e-12 3.328058613067606e-12
          2.0319754363839926e-12 4.56483458521746e-12 2.5890202774254187e-12 2.000838316315119e-12 1.5781005045642778e-12 1.2178820187831628e-12
          3.561716170651008e-12 2.7597432572187603e-12 2.1342513238045355e-12 1.2108899491118183e-12 6.985296340678155e-13 1.602048857135015e-12
          9.38520406645741e-13 7.234333416935586e-13 5.397503255223124e-13 4.146813167585036e-13 1.2450581852706823e-12 9.617288552247362e-13
          7.086587251807125e-13 5.502658213740923e-12 3.2876134342206428e-12 5.827819126065192e-12 4.301134955902974e-12 3.338378529788033e-12
          2.5647142872737216e-12 1.98709924405671e-12 4.5579550353362434e-12 3.539798486606007e-12 2.719794514575937e-12 1.9084603940197317e-12
          1.0802545335120122e-12 2.021207695246138e-12 1.4854041901684454e-12 1.1485756784335006e-12 8.379470559052239e-13 6.456454397443826e-13
          1.573895996887143e-12 1.2173101588291e-12 8.861829277617503e-13 6.831292806757584e-13 9.267501155659386e-13 5.211782487177747e-13
          7.006951585962917e-13 6.094158983761779e-13 7.850541958152263e-13 5.933740334035266e-13 1.6625048361036e-12 1.254686293057487e-12
          1.3587689421529472e-12 4.0829606470181765e-13 5.265005737898635e-13 3.670326791283003e-13 4.5230235375334167e-13 3.6040175664232773e-13
          4.4772122958261127e-13 3.8905047444058086e-13 9.395174191936993e-13 7.956769088425656e-13 7.655808623609422e-13 2.9566442192057563e-12