<?xml version="1.0"?>
<VTKFile type="UnstructuredGrid" version="0.1" byte_order="LittleEndian" header_type="UInt32" compressor="vtkZLibDataCompressor">
  <UnstructuredGrid>
    <Piece NumberOfPoints="1359" NumberOfCells="872">
      <PointData>
        <DataArray type="Int32" Name="libmesh_node_id" format="ascii" RangeMin="0" RangeMax="2399">
          0 1 2 3 4 5
          6 7 8 9 10 11
          12 13 14 15 16 17
          18 19 20 21 22 23
          24 25 26 27 28 29
          30 31 32 33 34 35
          36 37 38 39 40 41
          42 43 44 45 46 47
          48 49 50 51 52 53
          54 55 56 57 58 59
          60 61 62 63 64 65
          66 67 68 69 70 71
          72 73 74 75 76 77
          78 79 80 81 82 83
          84 85 86 87 88 89
          90 91 92 93 94 95
          96 97 98 99 100 101
          102 103 104 105 106 107
          108 109 110 111 112 113
          114 115 116 117 118 119
          120 121 122 123 124 125
          126 127 128 129 130 131
          132 133 134 135 136 137
          138 139 140 141 142 143
          144 145 146 147 148 149
          150 151 152 153 154 155
          156 157 158 159 160 161
          162 163 164 165 166 167
          168 169 170 171 172 173
          174 175 176 177 178 179
          180 181 182 183 184 185
          186 187 188 189 190 191
          192 193 194 195 196 197
          198 199 200 201 202 203
          204 205 206 207 208 209
          210 211 212 213 214 215
          216 217 218 219 220 221
          222 223 224 225 226 227
          228 229 230 231 232 233
          234 235 236 237 238 239
          240 241 242 243 244 245
          246 247 248 249 250 251
          252 253 254 255 256 257
          258 259 260 261 262 263
          264 265 266 267 268 269
          270 271 272 273 274 275
          276 277 278 279 280 281
          282 283 284 285 286 287
          288 289 290 291 292 293
          294 295 296 297 298 299
          300 301 302 303 304 305
          306 307 308 309 310 311
          312 313 314 315 316 317
          318 319 320 321 322 323
          324 325 326 327 328 329
          330 331 332 333 334 335
          336 337 338 339 340 341
          342 343 344 345 346 347
          348 349 350 351 352 353
          354 355 356 357 358 359
          360 361 362 363 364 365
          366 367 368 369 370 371
          372 373 374 375 376 377
          378 379 380 381 382 383
          384 385 386 387 388 389
          390 391 392 393 394 395
          396 397 398 399 400 401
          402 403 404 405 406 407
          408 409 410 411 412 413
          414 415 416 417 418 419
          420 421 422 423 424 425
          426 427 428 429 430 431
          432 433 434 435 436 437
          438 439 440 441 442 443
          444 445 446 447 448 449
          450 451 452 453 454 455
          456 457 458 459 460 461
          462 463 464 465 466 467
          468 469 470 471 472 473
          474 475 476 477 478 479
          480 481 482 483 484 485
          486 487 488 489 490 491
          492 493 494 495 496 497
          498 499 500 501 502 503
          504 505 506 507 508 509
          510 511 512 513 514 515
          516 517 518 519 520 521
          522 523 524 525 526 527
          528 529 530 531 532 533
          534 535 536 537 538 539
          540 541 542 543 544 545
          546 547 548 549 550 551
          552 553 554 555 556 557
          558 559 560 561 562 563
          564 565 566 567 568 569
          570 571 572 573 574 575
          576 577 578 579 580 581
          582 583 584 585 586 587
          588 589 590 591 592 593
          594 595 596 597 598 599
          610 611 612 613 614 615
          616 617 618 619 620 621
          622 623 624 625 626 627
          628 629 630 631 632 633
          634 635 636 637 638 639
          640 641 642 643 644 645
          646 647 648 649 650 651
          652 653 654 655 656 657
          658 659 665 666 667 668
          669 670 671 672 673 674
          675 676 677 678 679 680
          681 682 683 684 685 686
          687 688 689 695 696 697
          698 699 700 701 702 703
          704 705 706 707 708 709
          710 711 712 713 714 715
          716 717 718 719 744 745
          746 747 748 749 750 751
          752 753 754 755 756 757
          758 759 760 761 762 763
          764 765 766 767 768 769
          770 771 772 773 774 775
          776 777 778 779 792 793
          794 795 796 797 798 799
          800 801 802 803 804 805
          806 807 808 809 822 823
          824 825 826 827 828 829
          830 831 832 833 834 835
          836 837 838 839 866 867
          868 869 870 871 872 873
          874 875 876 877 878 879
          880 881 882 883 884 885
          886 887 888 889 890 891
          892 893 894 895 896 897
          898 899 913 914 915 916
          917 918 919 920 921 922
          923 924 925 926 927 928
          929 943 944 945 946 947
          948 949 950 951 952 953
          954 955 956 957 958 959
          988 989 990 991 992 993
          994 995 996 997 998 999
          1000 1001 1002 1003 1004 1005
          1006 1007 1008 1009 1010 1011
          1012 1013 1014 1015 1016 1017
          1018 1019 1034 1035 1036 1037
          1038 1039 1040 1041 1042 1043
          1044 1045 1046 1047 1048 1049
          1064 1065 1066 1067 1068 1069
          1070 1071 1072 1073 1074 1075
          1076 1077 1078 1079 1110 1111
          1112 1113 1114 1115 1116 1117
          1118 1119 1120 1121 1122 1123
          1124 1125 1126 1127 1128 1129
          1130 1131 1132 1133 1134 1135
          1136 1137 1138 1139 1155 1156
          1157 1158 1159 1160 1161 1162
          1163 1164 1165 1166 1167 1168
          1169 1185 1186 1187 1188 1189
          1190 1191 1192 1193 1194 1195
          1196 1197 1198 1199 1232 1233
          1234 1235 1236 1237 1238 1239
          1240 1241 1242 1243 1244 1245
          1246 1247 1248 1249 1250 1251
          1252 1253 1254 1255 1256 1257
          1258 1259 1276 1277 1278 1279
          1280 1281 1282 1283 1284 1285
          1286 1287 1288 1289 1306 1307
          1308 1309 1310 1311 1312 1313
          1314 1315 1316 1317 1318 1319
          1354 1355 1356 1357 1358 1359
          1360 1361 1362 1363 1364 1365
          1366 1367 1368 1369 1370 1371
          1372 1373 1374 1375 1376 1377
          1378 1379 1397 1398 1399 1400
          1401 1402 1403 1404 1405 1406
          1407 1408 1409 1427 1428 1429
          1430 1431 1432 1433 1434 1435
          1436 1437 1438 1439 1482 1483
          1484 1485 1486 1487 1488 1489
          1490 1491 1492 1493 1494 1495
          1496 1497 1498 1499 1521 1522
          1523 1524 1525 1526 1527 1528
          1529 1551 1552 1553 1554 1555
          1556 1557 1558 1559 1602 1603
          1604 1605 1606 1607 1608 1609
          1610 1611 1612 1613 1614 1615
          1616 1617 1618 1619 1641 1642
          1643 1644 1645 1646 1647 1648
          1649 1671 1672 1673 1674 1675
          1676 1677 1678 1679 1724 1725
          1726 1727 1728 1729 1730 1731
          1732 1733 1734 1735 1736 1737
          1738 1739 1762 1763 1764 1765
          1766 1767 1768 1769 1792 1793
          1794 1795 1796 1797 1798 1799
          1844 1845 1846 1847 1848 1849
          1850 1851 1852 1853 1854 1855
          1856 1857 1858 1859 1882 1883
          1884 1885 1886 1887 1888 1889
          1912 1913 1914 1915 1916 1917
          1918 1919 1966 1967 1968 1969
          1970 1971 1972 1973 1974 1975
          1976 1977 1978 1979 2002 2003
          2004 2005 2006 2007 2008 2009
          2032 2033 2034 2035 2036 2037
          2038 2039 2090 2091 2092 2093
          2094 2095 2096 2097 2098 2099
          2125 2126 2127 2128 2129 2155
          2156 2157 2158 2159 2210 2211
          2212 2213 2214 2215 2216 2217
          2218 2219 2245 2246 2247 2248
          2249 2275 2276 2277 2278 2279
          2330 2331 2332 2333 2334 2335
          2336 2337 2338 2339 2365 2366
          2367 2368 2369 2395 2396 2397
          2398 2399 1474 1476 1477 1475
          1478 1479 1480 1481 1518 1517
          1519 1520 1548 1547 1549 1550
          1600 1601 1640 1670 1720 1722
          1723 1721 1761 1760 1791 1790
          1842 1843 1881 1911 1962 1964
          1965 1963 2001 2031 2084 2086
          2087 2085 2088 2089 2083 2122
          2121 2123 2124 2152 2151 2153
          2154 2208 2209 2244 2274 2328
          2329 2364 2394
        </DataArray>
        <DataArray type="Float64" Name="bounds" format="ascii" RangeMin="0" RangeMax="0">
          0 0 0 0 0 0
          0 0 0 0 0 0
          0 0 0 0 0 0
          0 0 0 0 0 0
          0 0 0 0 0 0
          0 0 0 0 0 0
          0 0 0 0 0 0
          0 0 0 0 0 0
          0 0 0 0 0 0
          0 0 0 0 0 0
          0 0 0 0 0 0
          0 0 0 0 0 0
          0 0 0 0 0 0
          0 0 0 0 0 0
          0 0 0 0 0 0
          0 0 0 0 0 0
          0 0 0 0 0 0
          0 0 0 0 0 0
          0 0 0 0 0 0
          0 0 0 0 0 0
          0 0 0 0 0 0
          0 0 0 0 0 0
          0 0 0 0 0 0
          0 0 0 0 0 0
          0 0 0 0 0 0
          0 0 0 0 0 0
          0 0 0 0 0 0
          0 0 0 0 0 0
          0 0 0 0 0 0
          0 0 0 0 0 0
          0 0 0 0 0 0
          0 0 0 0 0 0
          0 0 0 0 0 0
          0 0 0 0 0 0
          0 0 0 0 0 0
          0 0 0 0 0 0
          0 0 0 0 0 0
          0 0 0 0 0 0
          0 0 0 0 0 0
          0 0 0 0 0 0
          0 0 0 0 0 0
          0 0 0 0 0 0
          0 0 0 0 0 0
          0 0 0 0 0 0
          0 0 0 0 0 0
          0 0 0 0 0 0
          0 0 0 0 0 0
          0 0 0 0 0 0
          0 0 0 0 0 0
          0 0 0 0 0 0
          0 0 0 0 0 0
          0 0 0 0 0 0
          0 0 0 0 0 0
          0 0 0 0 0 0
          0 0 0 0 0 0
          0 0 0 0 0 0
          0 0 0 0 0 0
          0 0 0 0 0 0
          0 0 0 0 0 0
          0 0 0 0 0 0
          0 0 0 0 0 0
          0 0 0 0 0 0
          0 0 0 0 0 0
          0 0 0 0 0 0
          0 0 0 0 0 0
          0 0 0 0 0 0
          0 0 0 0 0 0
          0 0 0 0 0 0
          0 0 0 0 0 0
          0 0 0 0 0 0
          0 0 0 0 0 0
          0 0 0 0 0 0
          0 0 0 0 0 0
          0 0 0 0 0 0
          0 0 0 0 0 0
          0 0 0 0 0 0
          0 0 0 0 0 0
          0 0 0 0 0 0
          0 0 0 0 0 0
          0 0 0 0 0 0
          0 0 0 0 0 0
          0 0 0 0 0 0
          0 0 0 0 0 0
          0 0 0 0 0 0
          0 0 0 0 0 0
          0 0 0 0 0 0
          0 0 0 0 0 0
          0 0 0 0 0 0
          0 0 0 0 0 0
          0 0 0 0 0 0
          0 0 0 0 0 0
          0 0 0 0 0 0
          0 0 0 0 0 0
          0 0 0 0 0 0
          0 0 0 0 0 0
          0 0 0 0 0 0
          0 0 0 0 0 0
          0 0 0 0 0 0
          0 0 0 0 0 0
          0 0 0 0 0 0
          0 0 0 0 0 0
          0 0 0 0 0 0
          0 0 0 0 0 0
          0 0 0 0 0 0
          0 0 0 0 0 0
          0 0 0 0 0 0
          0 0 0 0 0 0
          0 0 0 0 0 0
          0 0 0 0 0 0
          0 0 0 0 0 0
          0 0 0 0 0 0
          0 0 0 0 0 0
          0 0 0 0 0 0
          0 0 0 0 0 0
          0 0 0 0 0 0
          0 0 0 0 0 0
          0 0 0 0 0 0
          0 0 0 0 0 0
          0 0 0 0 0 0
          0 0 0 0 0 0
          0 0 0 0 0 0
          0 0 0 0 0 0
          0 0 0 0 0 0
          0 0 0 0 0 0
          0 0 0 0 0 0
          0 0 0 0 0 0
          0 0 0 0 0 0
          0 0 0 0 0 0
          0 0 0 0 0 0
          0 0 0 0 0 0
          0 0 0 0 0 0
          0 0 0 0 0 0
          0 0 0 0 0 0
          0 0 0 0 0 0
          0 0 0 0 0 0
          0 0 0 0 0 0
          0 0 0 0 0 0
          0 0 0 0 0 0
          0 0 0 0 0 0
          0 0 0 0 0 0
          0 0 0 0 0 0
          0 0 0 0 0 0
          0 0 0 0 0 0
          0 0 0 0 0 0
          0 0 0 0 0 0
          0 0 0 0 0 0
          0 0 0 0 0 0
          0 0 0 0 0 0
          0 0 0 0 0 0
          0 0 0 0 0 0
          0 0 0 0 0 0
          0 0 0 0 0 0
          0 0 0 0 0 0
          0 0 0 0 0 0
          0 0 0 0 0 0
          0 0 0 0 0 0
          0 0 0 0 0 0
          0 0 0 0 0 0
          0 0 0 0 0 0
          0 0 0 0 0 0
          0 0 0 0 0 0
          0 0 0 0 0 0
          0 0 0 0 0 0
          0 0 0 0 0 0
          0 0 0 0 0 0
          0 0 0 0 0 0
          0 0 0 0 0 0
          0 0 0 0 0 0
          0 0 0 0 0 0
          0 0 0 0 0 0
          0 0 0 0 0 0
          0 0 0 0 0 0
          0 0 0 0 0 0
          0 0 0 0 0 0
          0 0 0 0 0 0
          0 0 0 0 0 0
          0 0 0 0 0 0
          0 0 0 0 0 0
          0 0 0 0 0 0
          0 0 0 0 0 0
          0 0 0 0 0 0
          0 0 0 0 0 0
          0 0 0 0 0 0
          0 0 0 0 0 0
          0 0 0 0 0 0
          0 0 0 0 0 0
          0 0 0 0 0 0
          0 0 0 0 0 0
          0 0 0 0 0 0
          0 0 0 0 0 0
          0 0 0 0 0 0
          0 0 0 0 0 0
          0 0 0 0 0 0
          0 0 0 0 0 0
          0 0 0 0 0 0
          0 0 0 0 0 0
          0 0 0 0 0 0
          0 0 0 0 0 0
          0 0 0 0 0 0
          0 0 0 0 0 0
          0 0 0 0 0 0
          0 0 0 0 0 0
          0 0 0 0 0 0
          0 0 0 0 0 0
          0 0 0 0 0 0
          0 0 0 0 0 0
          0 0 0 0 0 0
          0 0 0 0 0 0
          0 0 0 0 0 0
          0 0 0 0 0 0
          0 0 0 0 0 0
          0 0 0 0 0 0
          0 0 0 0 0 0
          0 0 0 0 0 0
          0 0 0 0 0 0
          0 0 0 0 0 0
          0 0 0 0 0 0
          0 0 0 0 0 0
          0 0 0 0 0 0
          0 0 0 0 0 0
          0 0 0 0 0 0
          0 0 0 0 0 0
          0 0 0 0 0 0
          0 0 0 0 0 0
          0 0 0 0 0 0
          0 0 0 0 0 0
          0 0 0
        </DataArray>
        <DataArray type="Float64" Name="gradient_error" format="ascii" RangeMin="5.331224573720921e-16" RangeMax="1.0738451566446334e-11">
          6.355184025435935e-16 6.355722481169734e-16 6.3527917641389965e-16 6.352395769449521e-16 6.331783688829245e-16 6.331357035740172e-16
          6.338437979649048e-16 6.338842382477495e-16 6.356666395715296e-16 6.3535251975428945e-16 6.331145555707965e-16 6.337977428377187e-16
          6.356538891297088e-16 6.353642614215734e-16 6.333558533068191e-16 6.339055446297208e-16 6.354194075662129e-16 6.352439447380892e-16
          6.34036212362169e-16 6.342774488858527e-16 6.349560782639482e-16 6.349852678137606e-16 6.351152342175169e-16 6.348933459604115e-16
          6.343834907620245e-16 6.346544420371531e-16 6.362974426269188e-16 6.355874406550616e-16 6.339555643409103e-16 6.343937161922616e-16
          6.370440312619239e-16 6.360566500515601e-16 6.340065569380446e-16 6.343907602117249e-16 6.367188881713104e-16 6.359425744271864e-16
          6.34697272026004e-16 6.347408014029012e-16 6.351140809392483e-16 6.351168210014066e-16 6.353210255481366e-16 6.350768119207644e-16
          6.337712476933356e-16 6.343846890934007e-16 6.354786150557549e-16 6.35178645416191e-16 6.335118431429712e-16 6.34202506756667e-16
          6.355822786511881e-16 6.352500226478066e-16 6.334491816689274e-16 6.34131758263745e-16 6.348320967016091e-16 6.348770327714395e-16
          6.351228339937153e-16 6.34967532039689e-16 6.341213008527689e-16 6.345107268861844e-16 6.365931430445566e-16 6.357274275721361e-16
          6.347892164440884e-16 6.348413696247493e-16 6.351314744284173e-16 6.350044274022578e-16 6.351936026866589e-16 6.350404168570534e-16
          6.342383237509998e-16 6.345645278429008e-16 6.349484898580554e-16 6.349165697069235e-16 6.347518436650058e-16 6.348241106207781e-16
          6.348210507267889e-16 6.348548850578861e-16 6.350317158631679e-16 6.349603590321316e-16 6.348599593783589e-16 6.348731033582575e-16
          6.349520589106032e-16 6.349229544311653e-16 6.349124092018611e-16 6.349004485649948e-16 6.348404240590751e-16 6.348646109174106e-16
          6.348869006504731e-16 6.348885413181059e-16 6.348916079089395e-16 6.348884587578148e-16 6.348875395863616e-16 6.34887875923263e-16
          6.34890606582248e-16 6.348898056698665e-16 6.348883951434968e-16 6.348882858336434e-16 6.348885464959345e-16 6.348885669914011e-16
          6.348884098583228e-16 6.34888271118889e-16 6.348884161646533e-16 6.348884229964362e-16 6.348882521999078e-16 6.348882143618526e-16
          6.348884729215695e-16 6.348884681917862e-16 6.348881660132241e-16 6.348881943917499e-16 6.34888432981406e-16 6.348884671407327e-16
          6.348881933407031e-16 6.348883058036923e-16 6.348883278758951e-16 6.348883925158351e-16 6.348882690167364e-16 6.348883888371017e-16
          6.348882900378797e-16 6.348883646628454e-16 6.348883552033272e-16 6.348884119603496e-16 6.34888304752659e-16 6.348883636118038e-16
          6.349234315318853e-16 6.349104534250231e-16 6.347504238628238e-16 6.347709498297075e-16 6.349501883694734e-16 6.347116451749019e-16
          6.349696240609835e-16 6.346937385786501e-16 6.349697064453757e-16 6.347169900077339e-16 6.349480568287412e-16 6.347813733206213e-16
          6.349101628270977e-16 6.348710701353597e-16 6.34869066083321e-16 6.349562509174469e-16 6.348430480649379e-16 6.350014957480949e-16
          6.348454816812617e-16 6.349852141993262e-16 6.348649218377824e-16 6.349358442661954e-16 6.348837721488731e-16 6.348924818987112e-16
          6.348998903877699e-16 6.348598561901832e-16 6.349015520824467e-16 6.348588355160092e-16 6.348926471241974e-16 6.348788226106477e-16
          6.348905291085702e-16 6.348842689471662e-16 6.348882461389143e-16 6.348892562646628e-16 6.348871572039337e-16 6.348914946937599e-16
          6.348888452724424e-16 6.348882657673718e-16 6.348877374784866e-16 6.348905309531446e-16 6.348887116685596e-16 6.348887205746964e-16
          6.348895649940851e-16 6.348873011905744e-16 6.348886410906929e-16 6.348887619627792e-16 6.34888376224422e-16 6.348885238979085e-16
          6.348882669146607e-16 6.348884634620833e-16 6.348883026505564e-16 6.348884834321427e-16 6.348883415396222e-16 6.348884566302333e-16
          6.34888452951559e-16 6.348883988221805e-16 6.348885401891554e-16 6.3488844086437455e-16 6.348885591081368e-16 6.348884886874127e-16
          6.348607583529447e-16 6.348601555037355e-16 6.3494895536985525e-16 6.349517920468403e-16 6.348619768018974e-16 6.349423602451629e-16
          6.348646144085289e-16 6.349322412046777e-16 6.348709309807861e-16 6.349152946059317e-16 6.348816562939095e-16 6.348912889379366e-16
          6.348949323419138e-16 6.348647015875147e-16 6.349062641230293e-16 6.348432329936972e-16 6.349111326444707e-16 6.348367308131279e-16
          6.34906632582725e-16 6.348508673350876e-16 6.348972453821724e-16 6.348735580389248e-16 6.348888685211189e-16 6.348917934270599e-16
          6.348820141311149e-16 6.349053775218036e-16 6.348811353236234e-16 6.349054409463559e-16 6.348851413287947e-16 6.348959331215801e-16
          6.348875354117301e-16 6.348911575182343e-16 6.348892612503807e-16 6.348877805945243e-16 6.348896648520758e-16 6.348866118109698e-16
          6.3488897115590165e-16 6.348875293336486e-16 6.348892276188168e-16 6.348872119545617e-16 6.348889354089907e-16 6.348886433736466e-16
          6.348889480024318e-16 6.348892927744586e-16 6.348890699212215e-16 6.348885191680732e-16 6.348885759250542e-16 6.348884603089493e-16
          6.34888401449866e-16 6.34888497095947e-16 6.348884287773154e-16 6.348885034022826e-16 6.34888460308969e-16 6.348884119604071e-16
          6.348884876364367e-16 6.348883404885859e-16 6.348885717208441e-16 6.348884424409381e-16 6.348886494989018e-16 6.348885549038767e-16
          6.428013978335914e-16 6.425839322410727e-16 6.396611947154821e-16 6.397431754656701e-16 6.417469439758994e-16 6.392640517931664e-16
          6.398107999132912e-16 6.382093958800331e-16 6.364735519213228e-16 6.362996879071873e-16 6.321576200844059e-16 6.337725368022618e-16
          6.281043983516477e-16 6.313345171407862e-16 6.262125090529136e-16 6.300618991647721e-16 6.284837727227897e-16 6.310842753807487e-16
          6.35209234219925e-16 6.346030946267747e-16 6.403325656930097e-16 6.374362444230204e-16 6.408187468856964e-16 6.378894435704114e-16
          6.402376808733863e-16 6.377346812279371e-16 6.338731428394337e-16 6.34537687584055e-16 6.289345111882692e-16 6.319658090313543e-16
          6.343300502073916e-16 6.346311752991363e-16 6.374062821558572e-16 6.361435797807782e-16 6.354685107320935e-16 6.351628517613733e-16
          6.343747378428735e-16 6.346288839647058e-16 6.346501958368967e-16 6.347586469268567e-16 6.350633334129578e-16 6.34975266326257e-16
          6.348812660141867e-16 6.348908536593796e-16 6.348810359027347e-16 6.348838042663764e-16 6.348877918420359e-16 6.348878391392977e-16
          6.348884687177432e-16 6.348883961947746e-16 6.348884140625027e-16 6.348884035519311e-16 6.348883898882021e-16 6.348884056540431e-16
          6.348883037016519e-16 6.348883205185427e-16 6.348882858337066e-16 6.348882847826544e-16 6.348882795273953e-16 6.348882648126344e-16
          6.357070562922077e-16 6.356712954841991e-16 6.357493068626825e-16 6.356907412177192e-16 6.354878221504244e-16 6.351653543146364e-16
          6.347998439468202e-16 6.345037461071237e-16 6.343900095877411e-16 6.345088970390311e-16 6.347322855807883e-16 6.349078632596288e-16
          6.350214432402773e-16 6.350099575743485e-16 6.349269890810865e-16 6.349044810805629e-16 6.348855302768013e-16 6.348762767985016e-16
          6.348876969871155e-16 6.348804458393263e-16 6.348878847457887e-16 6.348931960618476e-16 6.348875175205461e-16 6.348881507751052e-16
          6.348883714948433e-16 6.348883877861122e-16 6.348883310291065e-16 6.348882532509525e-16 6.348882853081566e-16 6.348883163143495e-16
          6.346756553945235e-16 6.346576378706494e-16 6.347174541149312e-16 6.347734905886634e-16 6.34849820407797e-16 6.349432551091554e-16
          6.350350519637159e-16 6.350962029376167e-16 6.350952411367749e-16 6.350208390444377e-16 6.349246480085457e-16 6.348555862641311e-16
          6.348112048980667e-16 6.348176828200208e-16 6.348568712877336e-16 6.348766617702449e-16 6.348901831479035e-16 6.3489536080635e-16
          6.348923638876932e-16 6.348937936618359e-16 6.348885702520212e-16 6.348859508191229e-16 6.348884624110741e-16 6.348884151136508e-16
          6.348884193178807e-16 6.34888382530865e-16 6.348882406383286e-16 6.348881691664712e-16 6.348882868847112e-16 6.348883825308257e-16
          6.015739787019577e-16 6.037790466355941e-16 6.150021523236075e-16 6.138172309643944e-16 6.102612429276613e-16 6.186043035715891e-16
          6.212945019155117e-16 6.249457870596386e-16 6.369048555894631e-16 6.340793488714296e-16 6.546657479317314e-16 6.446253237325492e-16
          6.690245150561073e-16 6.534421744621973e-16 6.724042858479198e-16 6.562416537617116e-16 6.587740267926597e-16 6.495537170473214e-16
          6.309972496194688e-16 6.347257378418928e-16 6.120709909225491e-16 6.239986528025811e-16 6.112443887021377e-16 6.227253862060013e-16
          6.157812784617056e-16 6.245328991255924e-16 6.454716168696494e-16 6.395143753112131e-16 6.682835379327313e-16 6.51357044754838e-16
          6.427679926641724e-16 6.387366984189959e-16 6.25371232866587e-16 6.301422202845702e-16 6.326267600367698e-16 6.338223098495249e-16
          6.371684128359577e-16 6.360470581683266e-16 6.359742603830144e-16 6.354769916903818e-16 6.342334006283197e-16 6.345637995875564e-16
          6.349035411366883e-16 6.348719926871278e-16 6.349164031706544e-16 6.349054961622841e-16 6.348915273535196e-16 6.348911610550108e-16
          6.348880756276246e-16 6.348883772788708e-16 6.348882080558417e-16 6.348883121102178e-16 6.348883762245172e-16 6.348883672905121e-16
          6.348884876363843e-16 6.348884545281084e-16 6.34888550699704e-16 6.348885097085347e-16 6.348885485976353e-16 6.348884960448393e-16
          6.308821358943344e-16 6.3084504254202e-16 6.311390476507225e-16 6.318343798998621e-16 6.330064372061655e-16 6.345000597428953e-16
          6.359883754518643e-16 6.370240195622851e-16 6.372015061628266e-16 6.364439970071252e-16 6.353852758358913e-16 6.346581755346345e-16
          6.342684805405939e-16 6.34374902627928e-16 6.347248837940234e-16 6.348199262380937e-16 6.348960696065361e-16 6.349370763134918e-16
          6.348967323888999e-16 6.349225787523825e-16 6.348910550960454e-16 6.348693574833151e-16 6.348913239805793e-16 6.348893694987523e-16
          6.348884976222864e-16 6.348884540025887e-16 6.348884445430969e-16 6.3488848027898315e-16 6.348885055043162e-16 6.348884876363721e-16
          6.355390137770478e-16 6.356296018572088e-16 6.353307310859281e-16 6.350716875959585e-16 6.347590322589348e-16 6.344152199524238e-16
          6.341169170354413e-16 6.339690174490667e-16 6.340696050236703e-16 6.344337679499336e-16 6.348442369891696e-16 6.351099673594042e-16
          6.352524412917086e-16 6.351926715030791e-16 6.350192160111019e-16 6.349344483023676e-16 6.348789315105187e-16 6.348562929647037e-16
          6.348677612771043e-16 6.348654345070158e-16 6.348879116452978e-16 6.348982707290627e-16 6.348880588072446e-16 6.348879442410027e-16
          6.348883163144557e-16 6.348884918405836e-16 6.348885307296869e-16 6.34888539138134e-16 6.348885422912672e-16 6.348885317807007e-16
          7.698215001661772e-16 7.544298847960252e-16 7.1498223664876e-16 7.240743164516188e-16 7.14416132766194e-16 6.910648316641259e-16
          6.603977043394286e-16 6.582406640159605e-16 6.033406520834757e-16 6.228357210579813e-16 5.587601851637078e-16 5.93828475937479e-16
          5.352862938778897e-16 5.768915751597175e-16 5.331224573720921e-16 5.731952847479871e-16 5.833002865729581e-16 5.989696466754059e-16
          7.057926915995787e-16 6.643435053594352e-16 7.858629074414809e-16 7.094976359377494e-16 7.637761018210991e-16 7.018536648334803e-16
          7.211764037318172e-16 6.821098631410729e-16 6.899260522266428e-16 6.654921735651544e-16 6.9374363023253e-16 6.653484182447864e-16
          7.060632743851246e-16 6.708627981736275e-16 6.806415851540073e-16 6.57728391534425e-16 6.483916014841396e-16 6.413737902022379e-16
          6.301819986640332e-16 6.324360148233367e-16 6.321983589608519e-16 6.333572047216232e-16 6.375235630042743e-16 6.361981760966444e-16
          6.348810066377557e-16 6.349819290526138e-16 6.347852578209355e-16 6.34827616686615e-16 6.348743854776918e-16 6.348768900242221e-16
          6.348889827509719e-16 6.348880951142445e-16 6.348891655704651e-16 6.3488889754979285e-16 6.348886516012037e-16 6.348885937930587e-16
          6.348884329814896e-16 6.348884293027638e-16 6.348884708194389e-16 6.348884519004193e-16 6.348885275764128e-16 6.348884918405079e-16
          6.545443489353093e-16 6.557428545387063e-16 6.51082173150567e-16 6.457958753747351e-16 6.395072036921831e-16 6.333778757299802e-16
          6.286073709115738e-16 6.260693745694145e-16 6.263316481020141e-16 6.295932522301499e-16 6.338715696733281e-16 6.367963978302463e-16
          6.381562612003082e-16 6.373446708005011e-16 6.356568337885269e-16 6.351869343023485e-16 6.348772831769733e-16 6.346963108924258e-16
          6.348406773327557e-16 6.347526021026101e-16 6.348828802842592e-16 6.349664434432665e-16 6.348795616645781e-16 6.348844981650438e-16
          6.348880393747801e-16 6.348886316311002e-16 6.34888501825608e-16 6.348884298282811e-16 6.348884561046293e-16 6.348884834320514e-16
          6.335541093691238e-16 6.331585763403525e-16 6.344508157390763e-16 6.355081270569777e-16 6.366836173518794e-16 6.378589847487102e-16
          6.38717885381602e-16 6.388706370149471e-16 6.380242894261746e-16 6.362921853410079e-16 6.346107749126383e-16 6.336615678146309e-16
          6.332691998502879e-16 6.336310466973362e-16 6.343604613200109e-16 6.347115466425667e-16 6.349393684391039e-16 6.350366428645153e-16
          6.349913236828713e-16 6.349891537228256e-16 6.348929713795038e-16 6.348500354190609e-16 6.348891477768617e-16 6.34889601759335e-16
          6.348888712720436e-16 6.348886337330796e-16 6.348884676663022e-16 6.348884340325242e-16 6.348884792278588e-16 6.348885107594997e-16
          1.3250789962931012e-15 1.023095365803314e-15 1.4350901982706307e-15 1.1021807070130235e-15 1.2986457247365097e-15 1.0398772662193925e-15
          1.008891012311358e-15 8.787123528856601e-16 1.090325215154191e-15 8.89061566102644e-16 1.291134353878932e-15 9.639386744244864e-16
          1.044676025313653e-15 8.296362563087955e-16 7.990119156358856e-16 7.041032143879363e-16 1.2371792978853635e-15 9.267262046357374e-16
          1.6564533853862162e-15 1.142316554417091e-15 1.1693214777382354e-15 9.00671584599078e-16 6.547417778605072e-16 6.451001117475751e-16
          6.397535181599854e-16 6.38583036883643e-16 7.062185317998227e-16 6.712081075734254e-16 6.664039802434761e-16 6.51572214567445e-16
          6.270237961864444e-16 6.310667167660258e-16 6.347528383461375e-16 6.344400301462809e-16 6.352644951415751e-16 6.35101711394016e-16
          6.349504314170282e-16 6.349369109082496e-16 6.348896036043964e-16 6.348923913505055e-16 6.34886490671695e-16 6.348876767708251e-16
          6.348875921382828e-16 6.348879237457324e-16 6.348880220187628e-16 6.34888167589942e-16 6.348881891365169e-16 6.348882500977458e-16
          6.348882585061594e-16 6.348882921399711e-16 6.712611151814958e-16 6.945143337604439e-16 7.008112025300464e-16 6.866089830031904e-16
          6.60052617429929e-16 6.381016185661338e-16 6.286934758736882e-16 6.262519928750228e-16 6.285012547632114e-16 6.326451292534261e-16
          6.337874555900639e-16 6.350605094651722e-16 6.35836530586599e-16 6.353088729622538e-16 6.356056818478279e-16 6.349917328514949e-16
          6.345857393369136e-16 6.349152067655909e-16 6.349042615396697e-16 6.348913025843098e-16 6.348885638413101e-16 6.3488830422719e-16
          6.348883425906538e-16 6.348883841073381e-16 6.348884403388382e-16 6.21410495049464e-16 6.197574517654712e-16 6.205135973578174e-16
          6.246842725464188e-16 6.3230731780876095e-16 6.394602421622267e-16 6.427904644434388e-16 6.433094726100586e-16 6.407293981403114e-16
          6.371105350588868e-16 6.355532197202071e-16 6.346625732957018e-16 6.342605055658971e-16 6.344200625774797e-16 6.344709148042419e-16