<?xml version="1.0"?>
<VTKFile type="UnstructuredGrid" version="0.1" byte_order="LittleEndian" header_type="UInt32" compressor="vtkZLibDataCompressor">
  <UnstructuredGrid>
    <Piece NumberOfPoints="1360" NumberOfCells="886">
      <PointData>
        <DataArray type="Int32" Name="libmesh_node_id" format="ascii" RangeMin="1960" RangeMax="9802">
          2433 2434 2436 2440 2441 2444
          2446 2503 2504 2507 2508 2510
          2512 2609 2612 2615 2616 2617
          2621 2636 2637 2638 2639 2640
          2641 2642 2643 2644 2645 2708
          2709 2710 2711 2715 2716 2782
          2783 2784 2785 2786 2787 2788
          2789 2790 2791 2792 2793 2799
          3081 3082 3083 3084 3113 3114
          3115 3116 3117 3118 3119 3120
          3121 3122 3123 3124 3125 3126
          3127 3128 3129 3130 3131 3132
          3153 3154 3155 3156 3157 3158
          3159 3160 3161 3162 3163 3164
          3165 3166 3195 3196 3199 3200
          3202 3204 3227 3231 3242 3243
          3244 3245 3246 3247 3248 3249
          3250 3251 3252 3253 3254 3255
          3256 3257 3258 3259 3260 3261
          3445 3446 3447 3448 3449 3450
          3451 3452 3456 3457 3504 3505
          3506 3507 3508 3509 3510 3511
          3512 3513 3514 3518 3519 3523
          3610 3611 3612 3613 3614 3615
          3616 3617 3618 3619 3620 3621
          3622 3623 3624 3625 3626 3627
          3628 3629 3630 3631 3632 3633
          3634 3635 3638 3639 3648 3652
          3653 3657 3989 3995 3996 3997
          4000 4005 4006 4007 4010 4142
          4144 4145 4146 4147 4149 4151
          4152 4153 4156 4157 4160 4163
          4164 4167 4168 4169 4170 4171
          4172 4173 4174 4175 4176 4177
          4178 4179 4180 4181 4182 4183
          4184 4185 4186 4187 4190 4191
          4194 4197 4198 4201 4202 4203
          4204 4205 4206 4207 4208 4209
          4210 4211 4212 4213 4214 4215
          4316 4317 4318 4321 4326 4470
          4471 4474 4482 4483 4484 4485
          4486 4487 4488 4489 4490 4491
          4504 4508 4516 4517 4518 4519
          4520 4521 4522 4598 4599 4600
          4601 4602 4603 4604 4605 4606
          4607 4608 4609 4610 4611 4612
          4613 4614 4615 4616 4617 4618
          4619 4620 4621 4622 4623 4624
          4625 4626 4627 4628 4629 4630
          4631 4632 4633 4634 4635 4636
          4637 4638 4639 4640 4641 4642
          4643 4644 4645 4646 4647 4648
          4649 4650 4651 4652 4653 4654
          4655 4656 4657 4658 4659 4660
          4661 4662 4663 4664 4667 4668
          4670 4672 4683 4685 4687 4689
          4697 4698 4701 4702 4704 4706
          5423 5424 5425 5426 5427 5428
          5429 5430 5431 5432 5433 5434
          5435 5436 5437 5438 5439 5440
          5441 5442 5443 5444 5445 5446
          5447 5451 5454 5455 5456 5457
          5458 5459 5460 5461 5462 5463
          5464 5465 5466 5467 5468 5469
          5470 5471 5472 5473 5474 5475
          5476 5477 6666 6671 6672 6673
          6674 6676 6677 6689 6692 6693
          6694 6696 6697 6712 6713 6714
          6715 6716 6717 6718 6719 6720
          6721 6722 6723 6726 6727 6728
          6729 6731 6746 6747 6748 6749
          6750 6751 6752 6753 6755 6756
          6757 6759 6760 6761 6762 6763
          6764 6765 6766 6767 6768 6769
          6770 6771 6772 6773 6774 6775
          6776 6777 6778 6779 6780 6781
          6782 6783 6784 6785 6786 6787
          6788 6789 6790 6791 6792 6793
          6794 6795 6796 6797 6798 6799
          6800 6801 6802 6803 6804 6805
          6806 6807 6808 6809 6810 6811
          6812 6813 6814 6815 6816 6817
          6818 6819 6820 6821 6822 6823
          6824 6825 6826 6827 6828 6829
          6830 6831 6832 6833 6834 6835
          6836 6837 6838 6839 6840 6841
          6842 6843 6844 6845 6846 6847
          6848 6849 6850 6851 6852 6853
          6854 6855 6856 6857 6858 6859
          6860 6861 6862 6863 6864 6865
          6866 6867 6868 6869 6870 6871
          6872 6873 6874 6875 6887 6890
          6891 6892 6894 6895 6907 6910
          6911 6912 6914 6915 6930 6931
          6932 6933 6934 6935 6936 6937
          6939 6940 6941 6943 6958 6959
          6960 6961 6962 6963 6964 6965
          6967 6968 6969 6971 6972 6973
          6974 6975 6976 6977 6978 6979
          6980 6981 6982 6983 6984 6985
          6986 6987 6988 6989 6990 6991
          6992 6993 6994 6995 6996 6997
          6998 6999 7000 7001 7002 7003
          7004 7005 7006 7007 7008 7009
          7010 7011 7012 7013 7014 7015
          7016 7017 7018 7019 7020 7021
          7022 7023 7024 7025 7026 7027
          7028 7029 7030 7031 7032 7033
          7034 7035 7036 7037 7038 7039
          7040 7041 7042 7043 7044 7045
          7046 7047 7048 7049 7050 7051
          7052 7053 7054 7055 7056 7057
          7058 7059 7060 7061 7062 7063
          7064 7065 7066 7067 8446 8447
          8448 8451 8456 8457 8458 8461
          8478 8479 8482 8511 8512 8555
          8556 8557 8558 8559 8560 8561
          8562 8563 8564 8565 8566 8567
          8568 8569 8570 8571 8572 8573
          8574 8575 8576 8577 8578 8579
          8580 8581 8582 8583 8584 8585
          8586 8587 8588 8589 8590 8591
          8592 8593 8594 8595 8596 8597
          8598 8599 8600 8601 8602 8603
          8604 8605 8606 8607 8608 8609
          8610 8611 8612 8613 8614 8615
          8616 8617 8618 8619 8620 8621
          8622 8623 8624 8627 8628 8643
          8644 8647 8648 8707 8708 8711
          8735 8736 8739 8803 8804 8805
          8806 8807 8808 8809 8810 8811
          8812 8813 8814 8815 8816 8817
          8818 8819 8820 8821 8822 8823
          8824 8825 8826 8827 8828 8829
          8830 8831 8832 8833 8834 8835
          8836 8837 8838 8839 8840 8841
          8842 8843 8844 8845 8846 8847
          8848 8849 8850 8851 8852 8853
          8854 8855 8856 8857 8858 9390
          9391 9392 9393 9394 9395 9396
          9397 9398 9399 9400 9401 9402
          9403 9404 9405 9406 9407 9408
          9409 9410 9411 9412 9413 9414
          9415 9416 9417 9418 9419 9420
          9421 9422 9423 9424 9425 9426
          9427 9428 9429 9430 9431 9432
          9433 9434 9435 9436 9437 9438
          9439 9440 9441 9442 9443 9444
          9445 9446 9447 9448 9449 9450
          9451 9452 9453 9454 9455 9456
          9457 9458 9459 9460 9461 9462
          9463 9464 9465 9466 9467 9468
          9469 9470 9471 9472 9473 9474
          9475 9476 9477 9478 9479 9480
          9481 9482 9483 9484 9485 9486
          9487 9488 9489 9490 9491 9492
          9493 9494 9495 9496 9497 9498
          9499 9500 9501 9502 9503 9504
          9505 9506 9507 9508 9509 9510
          9511 9512 9513 9514 9515 9516
          9517 9518 9519 9520 9521 9522
          9523 9524 9525 9526 9527 9528
          9529 9530 9531 9532 9533 9534
          9535 9536 9537 9538 9539 9540
          9541 9542 9543 9544 9545 9546
          9547 9548 9549 9550 9551 9552
          9553 9554 9555 9556 9557 9558
          9559 9560 9561 9562 9563 9564
          9565 9566 9567 9568 9569 9570
          9571 9572 9573 9574 9575 9576
          9577 9578 9579 9580 9581 9582
          9583 9584 9585 9586 9587 9588
          9589 9590 9591 9592 9593 9594
          9595 9596 9597 9598 9599 9600
          9601 9602 9603 9604 9605 9606
          9607 9608 9609 9610 9611 9612
          9613 9614 9615 9616 9617 9618
          9619 9620 9621 9622 9623 9624
          9625 9626 9627 9628 9629 9630
          9631 9632 9633 9634 9635 9636
          9637 9638 9639 9640 9641 9642
          9644 9665 9666 9667 9668 9669
          9670 9671 9672 9673 9674 9676
          9677 9678 9679 9680 9681 9682
          9683 9684 9685 9686 9688 9690
          9692 9693 9694 9695 9696 9697
          9698 9699 9700 9701 9702 9704
          9705 9706 9707 9708 9709 9710
          9711 9712 9713 9714 9716 9718
          9720 9783 9784 9785 9786 9787
          9788 9789 9790 9791 9792 9793
          9794 9797 9798 9800 9802 1960
          1962 1963 1961 2080 2082 2083
          2081 2121 2120 2201 2203 2241
          2240 2151 2150 2271 2270 2360
          2361 2391 2390 2493 2428 2494
          2505 2442 2506 2498 2509 2501
          2511 2425 2600 2579 2601 2604
          2606 2321 2646 2650 2647 2651
          2701 2702 2703 2712 2713 2714
          2707 2717 2200 2423 2202 2437
          2776 2777 2778 2781 2574 2794
          2795 2796 2797 2798 2800 2801
          2623 2629 3011 3012 3016 3019
          3051 3053 3055 2431 3197 3198
          3201 3440 3441 3444 3453 3454
          3455 3458 2648 3494 3495 3499
          3502 3515 3516 2652 3517 3520
          2655 3521 3522 3636 3637 3640
          3262 2630 3264 3266 3267 3649
          3650 3268 3651 3654 3271 3655
          3656 4665 4666 4669 4496 4673
          4497 4674 3263 4699 4686 4700
          4703 4705 4327 5448 5449 4328
          5450 5452 5453 4331 4492 8625
          8513 8626 8629 8516 8630 4477
          8631 8632 4493 8645 8646 8649
          8650 8651 8652 8663 8665 8667
          8669 8677 8679 8681 8683 8859
          8861 8863 8865 8873 8875 8877
          8879 8887 8889 8891 8893 8901
          8903 8905 8907 4671 9643 9645
          9646 9649 9650 9652 9654 9675
          4684 9687 9689 9691 9703 4688
          9715 9717 9719 3269 9721 9723
          9725 9727 9755 9757 9759 9761
          9795 9796 9799 9801
        </DataArray>
        <DataArray type="Float64" Name="bounds" format="ascii" RangeMin="0" RangeMax="0">
          0 0 0 0 0 0
          0 0 0 0 0 0
          0 0 0 0 0 0
          0 0 0 0 0 0
          0 0 0 0 0 0
          0 0 0 0 0 0
          0 0 0 0 0 0
          0 0 0 0 0 0
          0 0 0 0 0 0
          0 0 0 0 0 0
          0 0 0 0 0 0
          0 0 0 0 0 0
          0 0 0 0 0 0
          0 0 0 0 0 0
          0 0 0 0 0 0
          0 0 0 0 0 0
          0 0 0 0 0 0
          0 0 0 0 0 0
          0 0 0 0 0 0
          0 0 0 0 0 0
          0 0 0 0 0 0
          0 0 0 0 0 0
          0 0 0 0 0 0
          0 0 0 0 0 0
          0 0 0 0 0 0
          0 0 0 0 0 0
          0 0 0 0 0 0
          0 0 0 0 0 0
          0 0 0 0 0 0
          0 0 0 0 0 0
          0 0 0 0 0 0
          0 0 0 0 0 0
          0 0 0 0 0 0
          0 0 0 0 0 0
          0 0 0 0 0 0
          0 0 0 0 0 0
          0 0 0 0 0 0
          0 0 0 0 0 0
          0 0 0 0 0 0
          0 0 0 0 0 0
          0 0 0 0 0 0
          0 0 0 0 0 0
          0 0 0 0 0 0
          0 0 0 0 0 0
          0 0 0 0 0 0
          0 0 0 0 0 0
          0 0 0 0 0 0
          0 0 0 0 0 0
          0 0 0 0 0 0
          0 0 0 0 0 0
          0 0 0 0 0 0
          0 0 0 0 0 0
          0 0 0 0 0 0
          0 0 0 0 0 0
          0 0 0 0 0 0
          0 0 0 0 0 0
          0 0 0 0 0 0
          0 0 0 0 0 0
          0 0 0 0 0 0
          0 0 0 0 0 0
          0 0 0 0 0 0
          0 0 0 0 0 0
          0 0 0 0 0 0
          0 0 0 0 0 0
          0 0 0 0 0 0
          0 0 0 0 0 0
          0 0 0 0 0 0
          0 0 0 0 0 0
          0 0 0 0 0 0
          0 0 0 0 0 0
          0 0 0 0 0 0
          0 0 0 0 0 0
          0 0 0 0 0 0
          0 0 0 0 0 0
          0 0 0 0 0 0
          0 0 0 0 0 0
          0 0 0 0 0 0
          0 0 0 0 0 0
          0 0 0 0 0 0
          0 0 0 0 0 0
          0 0 0 0 0 0
          0 0 0 0 0 0
          0 0 0 0 0 0
          0 0 0 0 0 0
          0 0 0 0 0 0
          0 0 0 0 0 0
          0 0 0 0 0 0
          0 0 0 0 0 0
          0 0 0 0 0 0
          0 0 0 0 0 0
          0 0 0 0 0 0
          0 0 0 0 0 0
          0 0 0 0 0 0
          0 0 0 0 0 0
          0 0 0 0 0 0
          0 0 0 0 0 0
          0 0 0 0 0 0
          0 0 0 0 0 0
          0 0 0 0 0 0
          0 0 0 0 0 0
          0 0 0 0 0 0
          0 0 0 0 0 0
          0 0 0 0 0 0
          0 0 0 0 0 0
          0 0 0 0 0 0
          0 0 0 0 0 0
          0 0 0 0 0 0
          0 0 0 0 0 0
          0 0 0 0 0 0
          0 0 0 0 0 0
          0 0 0 0 0 0
          0 0 0 0 0 0
          0 0 0 0 0 0
          0 0 0 0 0 0
          0 0 0 0 0 0
          0 0 0 0 0 0
          0 0 0 0 0 0
          0 0 0 0 0 0
          0 0 0 0 0 0
          0 0 0 0 0 0
          0 0 0 0 0 0
          0 0 0 0 0 0
          0 0 0 0 0 0
          0 0 0 0 0 0
          0 0 0 0 0 0
          0 0 0 0 0 0
          0 0 0 0 0 0
          0 0 0 0 0 0
          0 0 0 0 0 0
          0 0 0 0 0 0
          0 0 0 0 0 0
          0 0 0 0 0 0
          0 0 0 0 0 0
          0 0 0 0 0 0
          0 0 0 0 0 0
          0 0 0 0 0 0
          0 0 0 0 0 0
          0 0 0 0 0 0
          0 0 0 0 0 0
          0 0 0 0 0 0
          0 0 0 0 0 0
          0 0 0 0 0 0
          0 0 0 0 0 0
          0 0 0 0 0 0
          0 0 0 0 0 0
          0 0 0 0 0 0
          0 0 0 0 0 0
          0 0 0 0 0 0
          0 0 0 0 0 0
          0 0 0 0 0 0
          0 0 0 0 0 0
          0 0 0 0 0 0
          0 0 0 0 0 0
          0 0 0 0 0 0
          0 0 0 0 0 0
          0 0 0 0 0 0
          0 0 0 0 0 0
          0 0 0 0 0 0
          0 0 0 0 0 0
          0 0 0 0 0 0
          0 0 0 0 0 0
          0 0 0 0 0 0
          0 0 0 0 0 0
          0 0 0 0 0 0
          0 0 0 0 0 0
          0 0 0 0 0 0
          0 0 0 0 0 0
          0 0 0 0 0 0
          0 0 0 0 0 0
          0 0 0 0 0 0
          0 0 0 0 0 0
          0 0 0 0 0 0
          0 0 0 0 0 0
          0 0 0 0 0 0
          0 0 0 0 0 0
          0 0 0 0 0 0
          0 0 0 0 0 0
          0 0 0 0 0 0
          0 0 0 0 0 0
          0 0 0 0 0 0
          0 0 0 0 0 0
          0 0 0 0 0 0
          0 0 0 0 0 0
          0 0 0 0 0 0
          0 0 0 0 0 0
          0 0 0 0 0 0
          0 0 0 0 0 0
          0 0 0 0 0 0
          0 0 0 0 0 0
          0 0 0 0 0 0
          0 0 0 0 0 0
          0 0 0 0 0 0
          0 0 0 0 0 0
          0 0 0 0 0 0
          0 0 0 0 0 0
          0 0 0 0 0 0
          0 0 0 0 0 0
          0 0 0 0 0 0
          0 0 0 0 0 0
          0 0 0 0 0 0
          0 0 0 0 0 0
          0 0 0 0 0 0
          0 0 0 0 0 0
          0 0 0 0 0 0
          0 0 0 0 0 0
          0 0 0 0 0 0
          0 0 0 0 0 0
          0 0 0 0 0 0
          0 0 0 0 0 0
          0 0 0 0 0 0
          0 0 0 0 0 0
          0 0 0 0 0 0
          0 0 0 0 0 0
          0 0 0 0 0 0
          0 0 0 0 0 0
          0 0 0 0 0 0
          0 0 0 0 0 0
          0 0 0 0 0 0
          0 0 0 0 0 0
          0 0 0 0 0 0
          0 0 0 0 0 0
          0 0 0 0 0 0
          0 0 0 0 0 0
          0 0 0 0 0 0
          0 0 0 0 0 0
          0 0 0 0 0 0
          0 0 0 0
        </DataArray>
        <DataArray type="Float64" Name="gradient_error" format="ascii" RangeMin="3.4786501750268753e-13" RangeMax="4.5860959778890986e-8">
          2.759887795317554e-11 2.1519901582347092e-11 2.1666545085914012e-10 1.0734367180757288e-11 3.932948356815778e-11 6.050794343346657e-11
          2.2232086344183516e-11 9.498168114820731e-12 6.348786609537151e-12 2.999798069142137e-12 3.865214172501555e-12 6.511709318203196e-12
          4.730630275860973e-12 1.7725456459034303e-9 6.315386306477982e-10 1.3760171820439852e-9 3.1591447684928458e-9 9.884588649741461e-11
          6.556347303195018e-9 9.409552322809235e-10 1.0702458800326541e-9 7.35750714696929e-11 4.54815456317441e-11 1.140070805659924e-10
          1.5458831628932523e-10 3.344845041498134e-11 4.5429087533810093e-10 2.2946493087344754e-11 2.1137384932109997e-10 1.3842740665910859e-11
          1.0128364114796105e-11 1.5369223249849728e-11 1.2546999572161593e-11 6.413987563681349e-12 9.724775894473457e-12 3.678155087758011e-11
          5.2785088282952484e-11 1.1846988245164667e-9 9.33968119587278e-10 3.681441507327387e-11 4.5928867042850524e-10 3.608524757857939e-10
          6.502254559261653e-11 4.102041947279337e-10 1.6584795708132248e-10 2.6907562786375743e-11 2.312877743696535e-11 1.4077185512876635e-11
          2.4057789243387634e-9 3.085926539157891e-9 2.321752304708471e-9 3.766074153977018e-9 1.5540985029056508e-9 4.238900115072296e-9
          9.8600045327077e-10 2.059826207054871e-9 1.1302464008909006e-9 2.5905220631309038e-9 9.738647446032775e-10 1.5179228363042956e-8
          7.413549834453176e-9 6.498667199807808e-9 5.744249811884783e-10 3.814666769242886e-10 2.994901008761152e-10 1.9581498775693753e-10
          2.9644593512001877e-10 2.8123738277855367e-10 1.3171781840233763e-10 2.597871780468615e-10 1.3459254088099806e-10 1.9727722031138427e-10
          3.3183361258628156e-8 1.7205252809422324e-8 1.0276150466739548e-8 5.11800812817909e-9 4.293196751840935e-8 2.301087686966592e-8
          1.2829698996452838e-8 2.7209196584133523e-10 1.7687375880578092e-10 6.072286685156035e-11 3.4681217843726934e-11 4.811087512588554e-10
          3.456176083078881e-10 9.775456332326376e-11 1.446143429083756e-10 9.564139953925717e-11 5.976581641499897e-11 6.202558961415721e-11
          7.200413339256757e-11 4.904874924384809e-11 1.9684064833095998e-11 3.6250153066417603e-11 2.0366616452554686e-9 2.5944483649531575e-9
          7.4443689232539e-10 1.1407234026190048e-9 1.319370522381623e-9 1.640084327874495e-9 3.627884674385967e-10 3.152235084650847e-9
          1.3856667477336573e-9 1.960798133367367e-9 1.9278036892846568e-10 2.0686279847521965e-11 8.521366678717778e-11 1.6126504629663364e-11
          9.109999059385413e-11 3.9024297906755107e-11 1.875464025450025e-11 1.469362859512504e-11 7.818855069502035e-12 4.8386776036847834e-11
          3.300365253413558e-11 1.0274146318307669e-10 1.1996277676427956e-11 4.798108245267664e-11 4.7508395713629544e-12 6.831195156837501e-11
          2.668253188579084e-11 5.51839150608788e-12 2.2324040739774464e-12 7.267281691507333e-12 4.3945363289212015e-12 3.147636647149115e-11
          2.5020454527030663e-12 1.1225079500164665e-11 3.1661308877786577e-12 1.1935078030486368e-11 4.980484146595795e-12 5.85581966140611e-11
          1.9948113547626264e-11 2.070402517319408e-11 1.2727132143849277e-12 9.40598031189286e-13 8.397174253492578e-13 7.388368195092298e-13
          2.342563710832356e-10 3.463439810028513e-10 2.390573372343883e-10 1.5748334737474901e-10 2.434177136987854e-10 5.644079426763724e-11
          1.0092588565642324e-10 1.0394342883106975e-10 1.5672598991265612e-10 5.146323119530636e-11 4.3833744447256326e-11 6.08408031727471e-11
          4.774145951096233e-11 7.78478618982379e-11 3.324534667398806e-11 4.4399579461675665e-11 1.6692763724327044e-11 1.989512006277298e-11
          2.4054361780031247e-11 3.272368750882777e-11 1.1961882690910538e-11 5.555381224936328e-11 2.3097476401218915e-11 4.13930132376243e-11
          2.3645736790312e-11 4.5385450664629206e-11 1.558017836197898e-11 2.0823666033388446e-11 7.975080645067044e-12 5.431826939046169e-12
          4.596939845385237e-12 3.762052751724306e-12 5.237945562752853e-10 3.125686336014269e-10 4.46938952698895e-10 3.106849756534626e-10
          7.284687587886314e-10 1.2972334306057396e-10 2.162364836657016e-10 1.5686108280880434e-10 1.8286445679523292e-10 2.058031577468923e-9
          6.441008374814399e-10 1.1360653431778862e-9 5.991253896712416e-10 1.6431389123135593e-9 4.348234422771853e-9 2.18103133125264e-9
          1.14005855464216e-9 2.445940985354459e-9 1.1293959146212577e-9 1.5002578687195056e-10 1.7264047596406164e-9 1.1378711712400445e-10
          8.843467011266497e-11 2.1886999957598116e-10 4.112479836756122e-10 6.221936842338539e-10 1.4348402715327624e-10 7.756734796862603e-11
          2.7571284593822995e-10 3.442261117281123e-10 6.732473899012107e-11 9.082687818242285e-10 1.3419563590289305e-10 4.756351657149261e-10
          9.944160217013204e-11 5.6938810374006635e-11 7.230691788670288e-11 4.3370401513442096e-11 7.691256945338931e-11 4.678985071094606e-11
          3.4606689294476097e-11 1.03966637862585e-10 8.18157500487396e-11 4.521179763518243e-11 2.4183711666619075e-9 4.1837637535123096e-10
          2.759794047715458e-9 3.5179802380410374e-10 2.939374235181067e-10 4.094379206037674e-10 1.2133124906688536e-9 1.9908640268270782e-10
          6.263585964240071e-10 8.59505698842788e-11 1.3646405829655007e-9 2.2966122629731578e-10 7.021022815439819e-10 1.6058503744623073e-10
          1.2998435019535182e-10 6.634159880908954e-11 5.207650021078583e-11 1.8763616794817183e-10 1.5338917250452513e-10 7.639777772048441e-11
          6.581039808023594e-11 1.1439082520519527e-10 8.22712941015477e-11 9.929376299066053e-11 3.251223920213087e-11 6.7833723218641e-11
          5.093323189225072e-11 1.4030413562408033e-10 5.2752694158149537e-11 3.27442670330184e-11 3.8030909393242256e-11 2.425574555265354e-11
          4.079255223085618e-11 2.5519841076599724e-11 1.85173369757519e-11 6.350132965594374e-11 4.826558854578977e-11 2.6375308756509506e-11
          2.4034581245641473e-10 2.853344983809024e-10 1.0342937089358501e-10 8.04833549404583e-11 4.039055489540567e-11 3.0721788097040587e-11
          1.231439154712526e-10 9.662987861344014e-11 4.730117665975774e-11 1.8933884443998013e-10 2.472017199206658e-10 1.3287816983026978e-10
          3.4695067291214845e-10 4.2500414110700353e-10 2.157345446714e-10 4.6117153179106157e-10 6.958785111532333e-11 7.838210141178931e-11
          6.24923727848612e-11 8.360240924188034e-11 1.627568848886377e-10 1.6432741839905694e-10 1.1243916876601262e-10 6.554546667547745e-11
          8.848046862906954e-11 9.327496887683773e-11 4.281767088598682e-11 1.9180685605957027e-10 2.571342757526747e-11 1.0323128092640083e-10
          7.653909940842163e-11 4.4823586804782916e-11 5.5299235154643067e-11 3.2447856543657444e-11 3.625819188381143e-11 2.7668425385172063e-11
          1.917192698759473e-11 1.846863274269517e-11 1.381113422102909e-11 1.732052442642803e-11 2.3624810198879505e-10 3.471892540649188e-11
          1.1767438212571636e-10 1.3408009523863999e-11 2.569543710606749e-10 3.870553160212175e-11 1.2711851855251972e-10 2.57144582544844e-11
          1.9581448237368476e-11 1.291859751202362e-11 1.3139662807176406e-11 2.8969978985078297e-11 2.2225950013488432e-11 1.0509497171870003e-11
          5.041894995827968e-11 4.969241264188041e-11 2.47776094290999e-11 1.58803815213512e-11 4.1692248152358377e-11 4.691231721928978e-11
          2.544448764942303e-11 5.2955179778083843e-11 1.6906131605745912e-11 4.979143323559734e-11 1.9613345054003688e-11 1.4341104100185733e-11
          1.7739017679221898e-11 1.4196431847181592e-11 1.3798995452853453e-11 1.6422358629856982e-11 1.1633776031991868e-11 1.1214353595676411e-11
          7.971905404867057e-12 1.7768357161592045e-11 3.999060805899894e-11 2.3542080362686366e-11 1.7375640618463757e-11 1.3269982987240939e-11
          1.0291317415746555e-11 1.1470941552082772e-11 1.4811120795362524e-11 9.58983119865732e-12 1.6921100405712865e-11 5.804534368150847e-12
          1.281891847940152e-11 1.042449138697057e-11 7.501830594921557e-12 8.723329278380283e-12 5.830261566077184e-12 9.159825852486523e-12
          2.2875513660065423e-10 3.0749113634202985e-10 2.340521583587668e-10 1.8084401699646174e-10 2.588351300183053e-10 1.1232312015234743e-10
          1.7630327038728213e-10 1.326043916563987e-10 1.9080465739026764e-10 1.2261514815559715e-10 7.844580689943447e-11 1.2221466167051287e-10
          5.5441929603059205e-11 8.775929504690034e-11 5.8033728097091803e-11 8.414491875574504e-11 6.041496265243781e-11 3.928528246901166e-11
          6.332922048959136e-11 2.7883463836508302e-11 4.5375652180132214e-11 2.8802956802826128e-11 4.323100215698844e-11 3.0790431886643817e-11
          1.9425235789282554e-11 1.4099792290209475e-11 6.359308835054324e-11 6.480349849974581e-11 5.4269866658737996e-11 5.107767731422103e-11
          5.2789381902726246e-11 2.9225803901662055e-11 3.191566024840096e-11 4.163326480061361e-11 4.049227995117407e-11 2.0735651765547855e-11
          1.6435482442681027e-11 1.9199399321985118e-11 1.0653669317480319e-11 1.2945136697653355e-11 1.1777034417270042e-11 1.2149332612427514e-11
          8.057977949427698e-12 7.046943976262292e-12 8.898025097358615e-12 5.7681726775007116e-12 7.248520252285511e-12 5.05850500494016e-12
          5.887666745254614e-12 5.201432529023308e-12 1.478242621873575e-10 1.415861325165334e-10 1.1111814889920123e-10 1.3178358268974235e-10
          1.0616557423783976e-10 2.0147008126947949e-10 1.8128109662189838e-10 2.6202382152132835e-10 2.7785257613326104e-10 2.4048253392486657e-10
          2.050288955075013e-10 3.722799672988259e-10 3.114313831885076e-10 9.755456603414537e-11 1.2107409167285484e-10 8.470167979784876e-11
          1.0576049939794759e-10 7.288667367325621e-11 9.006431812523195e-11 7.821049466086214e-11 1.7567081390274777e-10 1.5533582545865476e-10
          1.2958815981119888e-10 7.397540153121181e-11 9.287122808686247e-11 5.4742237567707304e-11 6.833749765408707e-11 5.970806158857592e-11
          1.3778071880375375e-10 1.0036728833298465e-10 2.468654844928283e-10 2.2124037912605302e-10 1.8035832555743137e-10 1.60404870295149e-10
          3.3604243629503986e-10 3.0508438468519454e-10 2.430968244625347e-10 1.9841284626066518e-10 1.429454961382685e-10 1.2709858091489716e-10
          2.76673396279637e-10 1.970768354797976e-10 9.388755658655391e-11 1.0971661088924199e-10 8.101624669220226e-11 1.4812794789404374e-10
          8.21801633812534e-11 9.750871900056825e-11 6.408943162960239e-11 7.797735766492184e-11 6.048431808381424e-11 7.140906564749736e-11
          5.622266367792746e-11 1.331563117747822e-10 1.0906831021277602e-10 9.639735388236934e-11 5.020047011092026e-11 5.796677950007026e-11
          5.030664403359834e-11 7.616758661163466e-11 4.360419736240291e-11 5.087995691240403e-11 3.31092320574442e-11 3.948335723740537e-11
          3.770133966427538e-11 4.327712822814029e-11 3.2516735448256725e-11 6.763423761356259e-11 5.3944396300544335e-11 5.119472078112115e-11
          1.9161494878360542e-10 1.3911748241933377e-10 2.4138062254794683e-10 1.7493303868666795e-10 1.4743788811822e-10 1.254624046930019e-10
          1.0360754392918013e-10 2.2368620674864279e-10 1.9344563592961337e-10 1.5853864552500628e-10 9.69760935081182e-11 6.729372885692145e-11
          1.1915244629594002e-10 8.719618502467921e-11 7.132979161110288e-11 5.969199962778127e-11 4.772209158328445e-11 1.0869160133098658e-10
          9.116248028473623e-11 7.436773652269904e-11 5.3584685362219476e-11 6.56786414856672e-11 4.6003684425327905e-11 5.666465032152217e-11
          3.8610365637335677e-11 4.6894033928040044e-11 4.0180863136661544e-11 9.335232303098545e-11 8.140180103031138e-11 6.575357221782846e-11
          3.972754213674953e-11 4.923170561750296e-11 3.437640739246673e-11 4.28209093084144e-11 2.8357452713891622e-11 3.478223763782672e-11
          3.017618914530188e-11 7.140588134570911e-11 6.26225301461e-11 4.967949446778614e-11 2.6803810451200748e-11 3.239840450669244e-11
          2.264088575970618e-11 2.7548407067050836e-11 2.2400057592037203e-11 2.642009679153253e-11 2.2348823432822486e-11 4.524362327311858e-11
          3.891881315602931e-11 3.326390081142364e-11 1.9732910391587e-11 2.3916055350873696e-11 1.7269699416825965e-11 2.0828369786745287e-11
          1.658780319862488e-11 1.9492627788989725e-11 1.7062652899270818e-11 3.379080310590554e-11 2.937973732304916e-11 2.462564461485876e-11
          1.2842666203118263e-10 1.1334875057531103e-10 8.932705027068123e-11 7.823538377659261e-11 1.7106497088374567e-10 1.5273492663079572e-10
          1.1742485517061154e-10 1.003773260008373e-10 8.876333391375948e-11 6.885388738904522e-11 6.056467815274891e-11 1.365531476372313e-10
          1.2178454322387807e-10 9.230304244140403e-11 6.085539081560329e-11 5.2904931734279405e-11 4.031566401404579e-11 3.4802734849008016e-11
          7.883442202847125e-11 6.920978810407002e-11 5.19461639601204e-11 4.6260896603674825e-11 4.0460831704034024e-11 3.02217648572933e-11
          2.6283172921731888e-11 6.102230541518494e-11 5.376731082347892e-11 3.9591597092652255e-11 4.202779775172844e-10 4.787664722483511e-10
          3.9265568309237735e-10 3.472672205854096e-10 5.778089932441192e-10 4.6290614797018084e-10 5.41107913636399e-10 6.391710409335108e-10
          5.13454550765125e-10 4.659432020866422e-10 6.563611783205273e-10 5.343972964838474e-10 4.38641009170175e-10 4.029407614992916e-10
          3.1471213277685547e-10 2.8651405752301527e-10 5.351209681213807e-10 4.959080979691328e-10 3.831655692767204e-10 3.692389044789835e-10
          2.604962388556563e-10 2.3589441177563014e-10 4.580757493579366e-10 3.2228591406926003e-10 5.947498634507467e-10 5.535939258892516e-10
          4.2886994278045056e-10 3.9553432298676493e-10 6.114378949007276e-10 5.697128358012749e-10 4.434216577057745e-10 5.134720533652214e-10
          3.638524052724307e-10 3.3315499770246705e-10 5.289549339695984e-10 3.7706096250909334e-10 2.990961281206649e-10 2.1251397908831614e-10
          3.4614245959862245e-10 2.787634735082254e-10 2.4444526394225506e-10 1.953102233550955e-10 1.6752334665437533e-10 3.271043179921255e-10
          2.929646189602903e-10 2.280638547066304e-10 1.432640373245462e-10 9.892231603363772e-11 1.63394556337254e-10 1.3177914556812972e-10
          1.1237909279031012e-10 8.92337063266116e-11 7.389095800908626e-11 1.5209200799685768e-10 1.3219429637593325e-10 1.0236726112171373e-10
          3.8230426150424497e-10 2.71019163669545e-10 4.0027428192773464e-10 3.626048290917537e-10 3.2692524429467497e-10 2.523897597659569e-10
          2.2166876228356976e-10 3.7754628416207617e-10 3.385249462051821e-10 2.6265888061127683e-10 1.783192615028314e-10 1.2290792831008076e-10
          1.8542269507055455e-10 1.6695006407285519e-10 1.4648184209840884e-10 1.1199211720086396e-10 9.461152677364499e-11 1.731708119109197e-10
          1.5163658949458263e-10 1.1600002824600897e-10 2.1910237297920263e-10 1.9767564588735037e-10 1.4851282393484563e-10 1.327773409971504e-10
          2.652557163113205e-10 2.412502220453564e-10 1.78254617916895e-10 1.783172291511487e-10 1.6033322848636186e-10 1.1884934903612074e-10