<?xml version="1.0"?>
<VTKFile type="UnstructuredGrid" version="0.1" byte_order="LittleEndian" header_type="UInt32" compressor="vtkZLibDataCompressor">
  <UnstructuredGrid>
    <Piece NumberOfPoints="1294" NumberOfCells="876">
      <PointData>
        <DataArray type="Int32" Name="libmesh_node_id" format="ascii" RangeMin="2322" RangeMax="13059">
          2322 2634 3223 3282 3283 3284
          3285 3289 3290 3293 3295 3297
          3300 3303 3305 3320 3321 3325
          3327 3329 3668 3669 4446 4447
          4449 4452 4462 4464 4466 4751
          4752 4753 4754 4755 4758 4759
          4760 4761 4762 4764 4765 4766
          4769 4770 4771 4772 4774 4789
          4790 4791 4792 4793 4794 4795
          4796 4797 4798 4809 4810 4813
          4814 4815 4816 4818 4829 4830
          4831 4832 4833 4834 4835 4925
          4926 4927 4928 4929 4930 4931
          4932 4933 4934 4935 4936 4942
          4945 4946 4947 4948 4952 4953
          4965 4966 4967 4968 4969 4970
          4971 4972 4976 4979 4980 4982
          4983 4984 5283 5287 5498 5499
          5505 5508 5509 5510 5511 5512
          5513 5514 5515 5519 5676 5677
          5678 5679 5680 5681 5682 5683
          5684 5687 5688 5690 5691 5692
          5693 5694 5695 5696 8260 8261
          8263 8266 8276 8278 8280 8294
          8295 8297 8300 8310 8312 8314
          8380 8382 8384 8394 8396 8398
          8408 8410 8412 8422 8424 8426
          9230 9234 9258 9262 9987 9988
          9989 9990 9991 9992 9993 9994
          9995 9996 9997 9998 9999 10000
          10001 10002 10003 10004 10005 10006
          10007 10008 10009 10010 10011 10012
          10013 10014 10015 10016 10017 10018
          10019 10020 10021 10022 10023 10024
          10028 10029 10031 10032 10034 10035
          10036 10037 10038 10039 10040 10041
          10042 10043 10044 10045 10046 10047
          10048 10049 10050 10051 10052 10053
          10054 10055 10056 10057 10058 10059
          10060 10061 10062 10063 10066 10068
          10069 10071 10072 10073 10074 10075
          10076 10077 10078 10079 10080 10081
          10082 10083 10084 10085 10118 10119
          10123 10156 10160 10168 10169 10170
          10171 10172 10173 10174 10175 10176
          10177 10178 10179 10180 10181 10182
          10183 10184 10185 10186 10187 10188
          10189 10190 10191 10192 10193 10194
          10195 10196 10197 10198 10199 10200
          10201 10202 10203 10204 10205 10206
          10207 10208 10209 10210 10211 10212
          10213 10214 10215 10216 10217 10218
          10219 10220 10221 10222 10223 10224
          10225 10226 10227 10228 10229 10230
          10231 10232 10233 10234 10235 10236
          10237 10240 10241 10243 10245 10256
          10257 10260 10261 10263 10265 10276
          10278 10280 10282 10290 10292 10294
          10296 10304 10305 10306 10307 10308
          10309 10310 10311 10312 10313 10314
          10315 10318 10320 10321 10323 10324
          10325 10326 10327 10328 10329 10330
          10331 10332 10333 10334 10335 10336
          10337 10338 10339 10340 10341 10342
          10343 10344 10345 10346 10347 10348
          10349 10352 10354 10355 10357 10358
          10359 10360 10361 10362 10363 10364
          10365 10366 10367 10368 10369 10370
          10371 10394 10398 10428 10432 10440
          10441 10442 10443 10444 10445 10446
          10447 10448 10449 10450 10451 10452
          10453 10454 10455 10456 10457 10458
          10459 10460 10461 10462 10463 10464
          10465 10466 10467 10468 10469 10470
          10471 10472 10473 10474 10475 10476
          10477 10478 10479 10480 10481 10482
          10483 10484 10485 10486 10487 10488
          10489 10490 10491 10492 10493 10494
          10495 10496 10498 10500 10502 10510
          10512 10514 10516 10524 10526 10528
          10530 10538 10540 10542 10544 11100
          11101 11102 11103 11104 11105 11106
          11107 11108 11109 11110 11111 11112
          11113 11114 11115 11116 11117 11118
          11119 11120 11121 11122 11123 11124
          11125 11126 11127 11128 11129 11130
          11131 11132 11133 11134 11135 11136
          11137 11138 11139 11140 11141 11142
          11143 11144 11145 11146 11147 11148
          11149 11150 11151 11152 11153 11154
          11155 11156 11157 11158 11159 11160
          11161 11162 11163 11164 11165 11166
          11167 11168 11169 11170 11171 11172
          11173 11174 11175 11176 11177 11188
          11189 11190 11191 11192 11193 11194
          11195 11196 11197 11208 11209 11210
          11211 11212 11213 11214 11222 11223
          11224 11226 11227 11228 11236 11237
          11238 11239 11240 11241 11242 11244
          11246 11247 11248 11249 11250 11251
          11252 11253 11254 11255 11257 11259
          11261 11263 11264 11265 11266 11267
          11268 11269 11272 11273 11280 11281
          11282 11283 11284 11285 11286 11287
          11288 11289 11290 11291 11294 11295
          11297 11299 11310 11311 11314 11315
          11317 11319 11330 11331 11332 11333
          11334 11335 11336 11337 11338 11339
          11340 11341 11342 11343 11344 11345
          11346 11347 11348 11349 11350 11351
          11352 11353 11354 11355 11356 11357
          11358 11359 11360 11361 11362 11363
          11364 11365 11366 11367 11368 11369
          11370 11371 11372 11373 11374 11375
          11376 11377 11378 11379 11380 11381
          11382 11383 11384 11385 11386 11387
          11388 11389 11390 11391 11392 11400
          11401 11402 11404 11405 11406 11414
          11415 11416 11417 11418 11419 11420
          11428 11429 11430 11432 11433 11434
          11443 11445 11447 11449 11450 11451
          11452 11453 11454 11455 11463 11464
          11465 11466 11467 11468 11469 11471
          11473 11475 11477 11478 11479 11480
          11481 11482 11483 11491 11492 11493
          11494 11495 11496 11497 11498 11500
          11502 11504 11512 11514 11516 11518
          11526 11528 11530 11532 11540 11542
          11544 11546 12982 12983 12984 12985
          12986 12987 12988 12989 12990 12991
          13009 13010 13011 13012 13013 13014
          13015 13023 13024 13025 13026 13027
          13028 13029 13030 13031 13032 13033
          13034 13037 13038 13040 13042 13053
          13055 13057 13059 2797 2804 2805
          2798 2438 2656 2657 2626 2810
          2801 2663 2439 3185 3186 3187
          3286 3287 3288 3190 3291 3605
          3606 3670 3671 3672 3673 3609
          3674 3322 2664 3324 3710 3644
          2631 3388 3274 4282 4283 4284
          4756 4757 4287 3292 4763 4562
          4949 4563 4950 4566 4951 4939
          4955 4940 4956 4959 4960 5274
          5272 5275 5273 5276 5278 5277
          4954 5280 5279 3389 5281 5282
          5285 5284 5289 5293 5290 5294
          5296 5298 3395 5500 5501 5502
          5503 5504 5506 5507 4776 4782
          4304 4305 4308 3193 4310 2628
          5516 5517 5518 5520 5521 4799
          4803 5581 4964 5590 5588 5288
          5595 5594 5623 5624 5627 4542
          3234 5685 5686 5689 2659 4937
          5637 5638 5641 8044 3217 8046
          8045 8258 8259 4418 8047 8262
          8264 8265 8267 8060 8059 8275
          3218 8061 8277 8279 8281 8292
          8293 8296 8298 8299 8301 8309
          8311 8313 8315 8164 8163 8379
          4432 8165 8381 8383 8385 8178
          8177 8393 3220 8179 8395 8397
          8399 8407 8409 8411 8413 8421
          8423 8425 8427 9035 9034 9229
          4548 9036 9232 9231 9233 4578
          9235 9257 9260 9259 9261 4582
          9263 7310 7311 7312 7315 2627
          7318 4290 7332 7333 7336 7338
          8006 8007 8009 4412 8012 4413
          10025 10026 10027 10030 4767 10033
          4768 8022 8024 8026 4415 8040
          8041 8043 10064 10065 10067 3296
          10070 4773 8056 8058 10093 10114
          10094 10115 10116 10117 10120 10099
          10121 10122 4783 10138 10154 10155
          10157 10143 10158 10159 4788 7398
          8126 8128 8130 4428 8144 8145
          8148 8150 4430 8160 8162 8174
          8176 10238 10239 10242 10244 4800
          10258 10259 10262 10264 4804 10277
          10279 10281 4806 10291 10293 10295
          4808 10316 10317 10319 4811 10322
          4812 10350 10351 10353 3302 10356
          4817 10376 10392 10393 10395 10381
          10396 10397 4823 10410 10426 10427
          10429 10415 10430 10431 4828 10497
          10499 10501 4836 10511 10513 10515
          4838 10525 10527 10529 4840 10539
          10541 10543 4842 8995 8996 8999
          9001 4543 9015 9016 9019 9021
          4546 9031 9033 9045 9047 9049
          3235 10270 11178 10271 11179 11182
          11183 10275 11185 11187 11198 11199
          11202 11203 11205 11207 10299 11215
          11217 10303 11219 11221 11225 4944
          11229 11231 11233 11235 9124 9125
          9128 11243 9130 11245 11256 9140
          11258 11260 9144 11262 11270 11271
          11274 11276 11275 11278 11277 11279
          11292 11293 11296 11298 4962 11312
          11313 11316 11318 9244 9246 9248
          4580 9272 9274 9276 3240 10519
          11393 11395 10523 11397 11399 11403
          4974 11407 11409 11411 11413 10547
          11421 11423 10551 11425 11427 11431
          4978 11435 11437 11439 11441 11442
          9342 11444 11446 9346 11448 11457
          11456 11461 11460 11459 4981 11470
          9370 11472 11474 9374 11476 11485
          11484 11489 11488 11487 4985 11499
          11501 11503 4986 11513 11515 11517
          4988 11527 11529 11531 4990 11541
          11543 11545 4992 12973 12976 12978
          12980 13003 13005 13007 5286 13000
          13017 13019 13021 13035 13036 13039
          13041 13054 13056 13058
        </DataArray>
        <DataArray type="Float64" Name="bounds" format="ascii" RangeMin="0" RangeMax="0">
          0 0 0 0 0 0
          0 0 0 0 0 0
          0 0 0 0 0 0
          0 0 0 0 0 0
          0 0 0 0 0 0
          0 0 0 0 0 0
          0 0 0 0 0 0
          0 0 0 0 0 0
          0 0 0 0 0 0
          0 0 0 0 0 0
          0 0 0 0 0 0
          0 0 0 0 0 0
          0 0 0 0 0 0
          0 0 0 0 0 0
          0 0 0 0 0 0
          0 0 0 0 0 0
          0 0 0 0 0 0
          0 0 0 0 0 0
          0 0 0 0 0 0
          0 0 0 0 0 0
          0 0 0 0 0 0
          0 0 0 0 0 0
          0 0 0 0 0 0
          0 0 0 0 0 0
          0 0 0 0 0 0
          0 0 0 0 0 0
          0 0 0 0 0 0
          0 0 0 0 0 0
          0 0 0 0 0 0
          0 0 0 0 0 0
          0 0 0 0 0 0
          0 0 0 0 0 0
          0 0 0 0 0 0
          0 0 0 0 0 0
          0 0 0 0 0 0
          0 0 0 0 0 0
          0 0 0 0 0 0
          0 0 0 0 0 0
          0 0 0 0 0 0
          0 0 0 0 0 0
          0 0 0 0 0 0
          0 0 0 0 0 0
          0 0 0 0 0 0
          0 0 0 0 0 0
          0 0 0 0 0 0
          0 0 0 0 0 0
          0 0 0 0 0 0
          0 0 0 0 0 0
          0 0 0 0 0 0
          0 0 0 0 0 0
          0 0 0 0 0 0
          0 0 0 0 0 0
          0 0 0 0 0 0
          0 0 0 0 0 0
          0 0 0 0 0 0
          0 0 0 0 0 0
          0 0 0 0 0 0
          0 0 0 0 0 0
          0 0 0 0 0 0
          0 0 0 0 0 0
          0 0 0 0 0 0
          0 0 0 0 0 0
          0 0 0 0 0 0
          0 0 0 0 0 0
          0 0 0 0 0 0
          0 0 0 0 0 0
          0 0 0 0 0 0
          0 0 0 0 0 0
          0 0 0 0 0 0
          0 0 0 0 0 0
          0 0 0 0 0 0
          0 0 0 0 0 0
          0 0 0 0 0 0
          0 0 0 0 0 0
          0 0 0 0 0 0
          0 0 0 0 0 0
          0 0 0 0 0 0
          0 0 0 0 0 0
          0 0 0 0 0 0
          0 0 0 0 0 0
          0 0 0 0 0 0
          0 0 0 0 0 0
          0 0 0 0 0 0
          0 0 0 0 0 0
          0 0 0 0 0 0
          0 0 0 0 0 0
          0 0 0 0 0 0
          0 0 0 0 0 0
          0 0 0 0 0 0
          0 0 0 0 0 0
          0 0 0 0 0 0
          0 0 0 0 0 0
          0 0 0 0 0 0
          0 0 0 0 0 0
          0 0 0 0 0 0
          0 0 0 0 0 0
          0 0 0 0 0 0
          0 0 0 0 0 0
          0 0 0 0 0 0
          0 0 0 0 0 0
          0 0 0 0 0 0
          0 0 0 0 0 0
          0 0 0 0 0 0
          0 0 0 0 0 0
          0 0 0 0 0 0
          0 0 0 0 0 0
          0 0 0 0 0 0
          0 0 0 0 0 0
          0 0 0 0 0 0
          0 0 0 0 0 0
          0 0 0 0 0 0
          0 0 0 0 0 0
          0 0 0 0 0 0
          0 0 0 0 0 0
          0 0 0 0 0 0
          0 0 0 0 0 0
          0 0 0 0 0 0
          0 0 0 0 0 0
          0 0 0 0 0 0
          0 0 0 0 0 0
          0 0 0 0 0 0
          0 0 0 0 0 0
          0 0 0 0 0 0
          0 0 0 0 0 0
          0 0 0 0 0 0
          0 0 0 0 0 0
          0 0 0 0 0 0
          0 0 0 0 0 0
          0 0 0 0 0 0
          0 0 0 0 0 0
          0 0 0 0 0 0
          0 0 0 0 0 0
          0 0 0 0 0 0
          0 0 0 0 0 0
          0 0 0 0 0 0
          0 0 0 0 0 0
          0 0 0 0 0 0
          0 0 0 0 0 0
          0 0 0 0 0 0
          0 0 0 0 0 0
          0 0 0 0 0 0
          0 0 0 0 0 0
          0 0 0 0 0 0
          0 0 0 0 0 0
          0 0 0 0 0 0
          0 0 0 0 0 0
          0 0 0 0 0 0
          0 0 0 0 0 0
          0 0 0 0 0 0
          0 0 0 0 0 0
          0 0 0 0 0 0
          0 0 0 0 0 0
          0 0 0 0 0 0
          0 0 0 0 0 0
          0 0 0 0 0 0
          0 0 0 0 0 0
          0 0 0 0 0 0
          0 0 0 0 0 0
          0 0 0 0 0 0
          0 0 0 0 0 0
          0 0 0 0 0 0
          0 0 0 0 0 0
          0 0 0 0 0 0
          0 0 0 0 0 0
          0 0 0 0 0 0
          0 0 0 0 0 0
          0 0 0 0 0 0
          0 0 0 0 0 0
          0 0 0 0 0 0
          0 0 0 0 0 0
          0 0 0 0 0 0
          0 0 0 0 0 0
          0 0 0 0 0 0
          0 0 0 0 0 0
          0 0 0 0 0 0
          0 0 0 0 0 0
          0 0 0 0 0 0
          0 0 0 0 0 0
          0 0 0 0 0 0
          0 0 0 0 0 0
          0 0 0 0 0 0
          0 0 0 0 0 0
          0 0 0 0 0 0
          0 0 0 0 0 0
          0 0 0 0 0 0
          0 0 0 0 0 0
          0 0 0 0 0 0
          0 0 0 0 0 0
          0 0 0 0 0 0
          0 0 0 0 0 0
          0 0 0 0 0 0
          0 0 0 0 0 0
          0 0 0 0 0 0
          0 0 0 0 0 0
          0 0 0 0 0 0
          0 0 0 0 0 0
          0 0 0 0 0 0
          0 0 0 0 0 0
          0 0 0 0 0 0
          0 0 0 0 0 0
          0 0 0 0 0 0
          0 0 0 0 0 0
          0 0 0 0 0 0
          0 0 0 0 0 0
          0 0 0 0 0 0
          0 0 0 0 0 0
          0 0 0 0 0 0
          0 0 0 0 0 0
          0 0 0 0 0 0
          0 0 0 0 0 0
          0 0 0 0 0 0
          0 0 0 0 0 0
          0 0 0 0 0 0
          0 0 0 0 0 0
          0 0 0 0 0 0
          0 0 0 0
        </DataArray>
        <DataArray type="Float64" Name="gradient_error" format="ascii" RangeMin="2.842111056567781e-13" RangeMax="5.047849028473842e-10">
          3.305347782501671e-10 1.4927989640722773e-10 2.9632834772878516e-10 1.798947156588329e-11 1.5844605228974456e-11 1.2853679068157392e-11
          1.1278943000827768e-11 1.0816356396091408e-11 7.522551972744213e-12 1.50227861740286e-11 7.856089044620116e-12 6.065781313073265e-11
          2.436096296162272e-11 1.419952161565319e-10 6.688380510176087e-11 3.9656886521408414e-12 5.64925258503474e-12 1.4425978674127522e-12
          1.5015479985045494e-11 1.858136699119926e-12 5.775463829500358e-12 4.674834580628318e-12 4.263231829083174e-10 3.9700023109591925e-10
          3.194159754807254e-10 3.25479972790782e-10 2.2021014029154476e-10 1.2924968982359612e-10 2.3144975210285487e-10 1.2669123113304962e-11
          1.2034606485854332e-11 1.6340140879586474e-11 1.5515727336813515e-11 7.447759750889463e-12 1.0396111610954355e-11 1.7942926871784567e-11
          1.5003544360445183e-11 1.7884934083816724e-11 1.689472132977463e-11 1.8486022388060963e-11 3.801146212814135e-11 3.5483837381801233e-11
          2.889149290943207e-11 1.814561631360072e-11 1.2762359776007824e-10 1.1824437270986243e-10 9.408561270693327e-11 1.8288021812508096e-11
          2.0567997631613367e-11 1.1485454617925478e-11 1.2899230802800085e-11 1.2654284960737584e-11 1.2876869656251624e-11 8.058077178064366e-12
          6.441403504371883e-11 4.136532875888463e-11 3.811705397898491e-11 2.95766746094888e-10 2.7469354577405714e-10 2.194130138336368e-10
          1.455904726116598e-10 2.393381378671254e-10 2.3369047276973955e-10 2.0887861156374805e-10 1.497572165041508e-10 9.856478137121976e-11
          8.696811775870835e-11 5.674794458077257e-11 1.6002388060284763e-10 1.0695872920746896e-10 1.0150211982936732e-10 7.842526937051884e-12
          7.149647800191664e-12 4.790115337966602e-12 4.455465934191367e-12 4.310075732141554e-12 3.5417712591550998e-12 2.7397285176373143e-12
          1.9660530909567946e-11 1.2496274018460083e-11 8.949857105680411e-12 2.8446953450310803e-12 2.7020580927060793e-12 7.729792669043957e-12
          3.4167965495762955e-12 2.7415887044254287e-12 3.0598527036404292e-12 2.2853537037398926e-12 3.64904709596741e-12 2.283011766669359e-12
          4.310013200354192e-11 2.788717769407492e-11 1.8450713012783714e-11 1.1838455940090237e-11 5.311193354805779e-11 3.460122219633159e-11
          2.327133242598568e-11 1.7527067648391352e-11 2.1887865565327216e-11 6.966112072406018e-12 4.428071616931525e-12 1.4959715676342804e-12
          8.767671504512013e-12 5.603176669817953e-12 1.0231788683437891e-12 9.373965382581196e-13 5.175496946253455e-12 4.963467809529289e-12
          4.365787271702384e-12 8.531419468839276e-12 1.8553312719305377e-11 5.614077003587566e-12 1.1823705224082662e-11 6.618161328444632e-12
          1.3353637434211457e-11 8.361628365304705e-12 3.5143637182258606e-12 2.5714732670974254e-12 4.584442418540772e-12 8.603907717162119e-12
          2.8781230299067308e-12 5.285274644606848e-12 2.8377564863761194e-12 4.912350573421486e-12 3.4555945661629363e-12 1.7451202770513888e-12
          3.1507560085583332e-12 1.395885585760004e-12 2.3017328450271184e-12 1.6516988411988175e-12 2.5781785439120127e-12 1.3451891860043512e-12
          1.9616774686763075e-12 1.2311524640112168e-12 1.7778947004506195e-12 1.4198547281356565e-12 3.16339810223326e-10 3.103687866989339e-10
          2.931035209352793e-10 4.188218132068979e-10 2.6638065180457104e-10 2.3292684903612926e-10 3.628403584323363e-10 3.973645497147401e-10
          3.9305714242702165e-10 3.797899442477801e-10 3.295889353207861e-10 3.5696698083525927e-10 3.246721540608541e-10 3.152788536630283e-10
          1.9592413534389116e-10 1.5852386871433358e-10 2.7052902688885927e-10 1.2340975120664627e-10 9.249753923660611e-11 1.7215868579692905e-10
          2.8436686296660194e-10 2.389337213890264e-10 2.678518528945432e-10 1.9211319327360575e-10 1.4763977512416955e-10 1.9054958320176977e-10
          6.681889407720931e-11 9.323581443663514e-11 1.0845385260445594e-10 1.113216348339914e-10 5.488034311395343e-12 5.395414279595742e-12
          7.197905377572168e-12 7.086773196350962e-12 5.0916449555650764e-12 6.297831064884364e-12 6.202722379473028e-12 5.178268779270371e-12
          6.797212577369032e-12 5.944416811212633e-12 1.3553609134993971e-11 1.335019847009496e-11 1.2050117135806039e-11 1.2740268488177776e-11
          5.095680713580611e-12 6.324077054252334e-12 4.731498502646272e-12 5.563125770849029e-12 5.137618116416623e-12 6.02936996889636e-12
          5.3450316133344835e-12 1.1667191389805585e-11 1.0527991297658234e-11 1.1767435616125306e-11 2.5779686245123856e-11 2.5366339098853504e-11
          2.062735725478894e-11 2.029829720155898e-11 2.414372025133299e-11 1.9314884406470505e-11 4.742854492474558e-11 4.6622283298867156e-11
          3.7362443494616456e-11 4.428979495951077e-11 1.1361294066755289e-11 1.1189084097463036e-11 1.622671202936849e-11 1.596604018853212e-11
          1.0656388884684709e-11 1.5193406385226874e-11 3.0252440277865554e-11 2.973452359509318e-11 2.823462140226828e-11 2.2266257732553863e-11
          1.775830380755918e-11 1.9904203952326574e-11 1.5791552938612826e-11 4.066519526973725e-11 3.256699359533492e-11 3.6093112617786485e-11
          9.792216775553925e-12 1.3972892901195574e-11 7.54674726882551e-12 1.0913668688915952e-11 8.700939456248106e-12 1.2430743963682457e-11
          9.732035906456149e-12 2.590508582802165e-11 2.046812199657986e-11 2.297133587583058e-11 8.708043932848636e-11 8.552157895453264e-11
          7.028924485933361e-11 6.902427762888269e-11 8.10136756971709e-11 6.53672783707612e-11 1.5683172237326141e-10 1.5388911451513923e-10
          1.2521053874640029e-10 1.4539039807276187e-10 5.6328280037253943e-11 5.5309865218358305e-11 5.236632550503499e-11 1.0305118576882729e-10
          1.01089767221521e-10 9.542962347610949e-11 7.403292446587961e-11 5.970682447920724e-11 6.527905475851145e-11 5.2613770069916625e-11
          1.3226346320774295e-10 1.0749399145532352e-10 1.158709244309987e-10 4.781230229539819e-11 3.801998372717984e-11 4.210940304934862e-11
          3.346903523740597e-11 8.670118647629885e-11 6.94069956286062e-11 7.582581481230544e-11 5.240665928103905e-12 7.590726413944103e-12
          1.4242650164930163e-11 2.6418752632858963e-11 4.8167211160911147e-11 1.2258408614730622e-11 1.717644236410857e-11 9.58616357712753e-12
          1.3592353248374052e-11 1.0206071730431985e-11 1.4329352563904867e-11 1.1347138354133876e-11 3.097807752902859e-11 2.4782787355338723e-11
          2.5723636595252033e-11 7.50175978455725e-12 1.0713974605562904e-11 5.861364995524853e-12 8.408195032359608e-12 6.291200150411301e-12
          8.959188206956984e-12 7.042022516606928e-12 1.9695940623701468e-11 1.5553952994481818e-11 1.6339922148943287e-11 8.295438052823458e-12
          1.1617850787444063e-11 6.5461179337899605e-12 9.220323232365129e-12 6.577311275069542e-12 9.16157668545494e-12 7.283607370294936e-12
          2.068420028028921e-11 1.652953755410839e-11 1.6124411682726313e-11 5.158165812947856e-12 7.28531959379507e-12 4.047386601990117e-12
          5.72526367760135e-12 4.1100471457434035e-12 5.752462135875308e-12 4.515517992379442e-12 1.3125888826227631e-11 1.0357160997238984e-11
          1.0218977199742854e-11 5.555930587762068e-11 4.474575944577534e-11 4.566639245825332e-11 3.6746377514372265e-11 9.777905991508744e-11
          7.930906983703193e-11 7.951259793581157e-11 3.5788457492409485e-11 2.842835639701201e-11 2.936785793487885e-11 2.3312131940054038e-11
          6.385544615198413e-11 5.103767843577853e-11 5.180552635706659e-11 3.6274499434813545e-11 2.916107667089482e-11 2.787223730835785e-11
          2.238299933292341e-11 6.234769652616351e-11 5.044074679593912e-11 4.718257980704981e-11 2.3285522788901958e-11 1.8469352254746066e-11
          1.7855804771209428e-11 1.4149944692940895e-11 4.0518110164847565e-11 3.231721687528005e-11 3.057893208887586e-11 4.556328423202877e-12
          6.562102147894194e-12 3.841001533941419e-12 5.497012895914452e-12 1.2205788158118231e-11 1.011901801884081e-11 3.1467427505231622e-12
          4.4671960321716805e-12 2.5004498953697845e-12 3.52119340348546e-12 8.120647299656368e-12 6.313736697110555e-12 2.2427970855750728e-11
          1.8379945210322393e-11 4.049647126645362e-11 3.27925237837195e-11 1.4550992058420256e-11 1.1138739172298228e-11 2.5594259494973804e-11
          1.9272392612342394e-11 2.6205217198455165e-10 2.5704208668977697e-10 2.1521625178229833e-10 2.110548431549197e-10 2.4256653086008417e-10
          1.9903960699393103e-10 3.5673093807454994e-10 3.5033088231112553e-10 2.9036642997248024e-10 3.317357338712857e-10 1.7525821071388144e-10
          1.7183561520240035e-10 1.6195964956099195e-10 2.4300249652119485e-10 2.3849509720857257e-10 2.254270250685672e-10 2.2019512453834786e-10
          1.8049540827174171e-10 1.9224847844769726e-10 1.5737367017023347e-10 3.026941011825857e-10 2.502684130794246e-10 2.658962898548051e-10
          1.4673521398923977e-10 1.1832153697195717e-10 1.2778430328031926e-10 1.0293097570549583e-10 2.0510142453500317e-10 1.666263053852163e-10
          1.7949532585057176e-10 3.3651308997248675e-10 3.3263781391910194e-10 2.8225604705590745e-10 2.788263970388034e-10 3.20790325839014e-10
          2.6840829082201956e-10 2.826689224899445e-10 2.815288122471824e-10 2.3811052981931713e-10 2.771322708871995e-10 2.345011289191838e-10
          2.3151305564837673e-10 2.2248609905798213e-10 2.0065512419684462e-10 1.9942129236749855e-10 1.951720322398972e-10 3.0064464272219106e-10
          2.5087238579718504e-10 2.724892750298029e-10 2.266341242847204e-10 2.672504702131258e-10 2.2441243802425886e-10 2.499307780559959e-10
          2.074262200130723e-10 1.6995417772813307e-10 1.8681508686540034e-10 1.5263534548482513e-10 1.8668564794361042e-10 1.5386914094274188e-10
          1.7299318178383768e-10 8.225862040549694e-11 1.1709887251671921e-10 1.2362287096576004e-10 1.1552380722289511e-10 1.614178150284632e-10
          1.3192480270600485e-10 1.303469526993098e-10 1.0634404290134013e-10 2.2463434304814484e-10 1.8494048631757068e-10 1.8235169612526714e-10
          1.0696870586714224e-10 8.605635298797911e-11 8.609286680937728e-11 6.916568766329563e-11 1.5098174217232976e-10 1.2223595393004346e-10
          1.2198629727143514e-10 1.0126491313184513e-10 8.246526183071484e-11 7.574047811939152e-11 6.156244960513246e-11 1.4215960494900806e-10
          1.164529255376998e-10 1.0643164494873848e-10 6.66511025733795e-11 5.346656736097694e-11 4.967104408867933e-11 3.978319682250194e-11
          9.464247493071959e-11 7.63152832169375e-11 7.052055358666171e-11 2.3775063492229963e-10 1.9703792488496147e-10 1.98985176453368e-10
          1.6431404953868287e-10 2.2476702678573175e-10 1.869508299732212e-10 1.9327381530657847e-10 1.618836155215182e-10 1.3186202477144707e-10
          1.3454649275170933e-10 1.0925765131231896e-10 1.5414148929267772e-10 1.2599332266146313e-10 1.313781197005435e-10 1.5938225333278678e-10
          1.311477461982027e-10 1.2204441318180852e-10 1.0009377319102621e-10 1.5840059181003396e-10 1.3059627815507036e-10 1.2358282643792693e-10
          1.070420095976534e-10 8.666845506725294e-11 8.145195171305719e-11 6.576906221753172e-11 1.0679679545092247e-10 8.663256794025148e-11
          8.271555252133825e-11 6.869681778098122e-11 5.5144453784180134e-11 9.815303609259637e-11 7.900536170551846e-11 4.257045524177625e-11
          3.163106361521224e-11 6.105848122578378e-11 4.531846186771886e-11 1.0649854624305705e-10 8.799611825524279e-11 1.0210395459782706e-10
          8.636025174122054e-11 6.961696766881228e-11 5.26960310865576e-11 6.971770321100986e-11 5.366442230539364e-11 5.1097744437777904e-12
          7.041864404574535e-12 4.049846650099331e-12 5.593898490133334e-12 3.8667695311461505e-12 5.2690968874704655e-12 4.182835810427025e-12
          1.2198582204757721e-11 9.73370807431718e-12 8.967268237017002e-12 3.1792114877228684e-12 4.41128340206477e-12 2.4834889931671224e-12
          3.458157088905464e-12 2.409506699496855e-12 3.2996975786943954e-12 2.587510098183686e-12 7.718223798972347e-12 6.080766534394715e-12
          5.663109955950981e-12 2.849206435402465e-12 3.838075656192368e-12 2.267595175402518e-12 3.0513914670584963e-12 2.0463591360875666e-12
          2.720584567225745e-12 2.1610755136700637e-12 6.410149047299572e-12 5.10724606791249e-12 4.454672066643216e-12 1.8141039040119636e-12
          2.4194859850192635e-12 1.4417595821325218e-12 1.8977607884885182e-12 1.3237018532717065e-12 1.7072484981671658e-12 1.4637575201132494e-12
          4.047534524528804e-12 3.178272767492621e-12 2.7934164204097134e-12 2.0739765397713945e-11 1.6635891244467637e-11 1.4964663976447683e-11
          1.1989071321175118e-11 3.4500706335045246e-11 2.7829866404763174e-11 2.4411663579681507e-11 1.3256546637943374e-11 1.0494388384395329e-11
          9.541930626939206e-12 7.543945806134386e-12 2.229526832260501e-11 1.7739055746866182e-11 1.5727549161046647e-11 1.0484408289601424e-11
          8.390146267275255e-12 7.140460071142835e-12 5.7053855828051115e-12 1.6742691302748186e-11 1.3461816187409409e-11 1.1151350725301373e-11
          6.675960933054806e-12 5.276198018560177e-12 4.536307384987372e-12 3.5776579608459687e-12 1.075126438444986e-11 8.528426360445436e-12
          7.1345730821172394e-12 1.930453184660414e-12 2.695061621953841e-12 1.4979483904113768e-12 2.0892102436719018e-12 1.4636698208416123e-12
          2.012290034296795e-12 1.5541904407245006e-12 4.760018301452371e-12 3.702031671443429e-12 3.4823162878848433e-12 1.109399614375866e-12
          1.46111871507852e-12 8.465813649271251e-13 1.117536154745029e-12 9.672901749523476e-13 1.2168022383604297e-12 9.240982619362482e-13
          2.4690846545915924e-12 1.9057288151455485e-12 1.9106164954827127e-12 8.253380624031794e-12 6.449520003475302e-12 5.9255481235893384e-12
          4.625668614249742e-12 1.4017331006413646e-11 1.100051380426245e-11 9.861575028195902e-12 4.135754983073677e-12 3.2201548369930907e-12
          2.7929204138673372e-12 6.719946488894079e-12 5.2594200861798665e-12 4.443600448994301e-12 1.429923613637806e-12 1.858680708302806e-12
          1.1344154244959906e-12 1.4706236466943208e-12 1.1914393438009983e-12 1.494265443504392e-12 1.1808361454795788e-12 2.381681398087383e-12
          9.122214843988587e-13 1.1536245439786996e-12 8.262491333453359e-13 1.0142891368988348e-12 7.486642468440654e-13 9.330368737219402e-13
          8.323915527459863e-13 1.869611168398723e-12 1.6238240318947903e-12 1.3836102609520441e-12 3.779664727478747e-12 2.4292318939437055e-12
          5.787184010362091e-12 2.9977145728873144e-12 2.355860652456707e-12 1.9235686735664387e-12 1.5118623027705826e-12 4.6039742650928165e-12
          3.638395725485683e-12 2.8961118283212757e-12 1.2221284164089176e-12 1.5334953552916713e-12 9.557221881391834e-13 1.2022041405012488e-12
          7.431155314132495e-13 9.371565792858276e-13 7.574344848835981e-13 9.264722297255898e-13 7.148565015628199e-13 1.7838765123352883e-12