<?xml version="1.0"?>
<VTKFile type="UnstructuredGrid" version="0.1" byte_order="LittleEndian" header_type="UInt32" compressor="vtkZLibDataCompressor">
  <UnstructuredGrid>
    <Piece NumberOfPoints="505" NumberOfCells="241">
      <PointData>
        <DataArray type="Int32" Name="libmesh_node_id" format="ascii" RangeMin="0" RangeMax="4058">
          0 1 2 3 4 5
          6 7 8 9 10 11
          12 13 14 15 16 17
          18 19 20 21 22 23
          24 25 26 27 28 29
          30 31 32 33 34 35
          36 37 38 39 40 41
          42 43 44 45 46 47
          48 49 50 51 52 53
          54 55 56 57 58 59
          60 61 62 63 64 65
          66 67 68 69 70 71
          72 73 74 75 76 77
          78 79 80 81 82 83
          84 85 86 87 88 89
          90 91 92 93 94 95
          96 97 98 107 108 109
          110 111 112 117 118 119
          120 125 126 127 128 129
          130 131 140 141 142 143
          144 145 158 159 160 173
          174 175 176 191 192 193
          206 207 208 209 224 225
          226 231 232 233 234 235
          236 237 238 239 240 241
          242 243 244 245 246 247
          248 249 250 251 253 257
          258 263 306 307 308 309
          310 311 312 313 314 315
          316 317 318 319 320 321
          322 323 324 409 410 411
          412 413 414 415 416 419
          420 421 422 423 424 430
          431 457 458 460 463 464
          465 468 470 481 482 483
          484 485 486 487 488 489
          490 491 492 493 494 497
          498 501 507 573 574 575
          576 577 578 579 580 581
          582 583 584 585 586 587
          588 589 590 591 592 593
          594 595 596 597 598 599
          600 601 602 603 604 605
          898 899 900 901 902 903
          904 905 906 907 908 909
          910 911 912 913 914 915
          916 917 918 919 920 921
          922 923 924 925 926 927
          928 929 930 931 932 933
          934 935 936 937 938 939
          940 941 942 943 944 945
          946 947 948 949 950 951
          952 953 954 955 956 957
          958 959 960 961 962 963
          964 965 966 967 968 969
          970 971 978 979 980 981
          982 983 984 985 986 987
          988 989 990 991 992 993
          994 995 996 997 998 999
          1000 1001 1002 1003 1004 1005
          1753 1754 1755 1756 1757 1758
          1759 1760 1761 1762 1763 1764
          1765 1766 1767 1768 1769 1770
          1771 1772 1821 1822 1823 1824
          1825 1826 1827 1828 1829 1830
          1831 1832 1833 1834 3931 3932
          3938 4026 4027 4028 4029 4030
          4031 4032 4033 4034 4049 4050
          4051 4052 4053 4054 4055 4056
          4057 4058 99 100 101 102
          103 104 105 106 113 114
          115 116 121 122 123 124
          138 139 146 147 148 150
          151 149 152 153 157 161
          162 163 164 172 190 178
          180 194 417 418 254 425
          426 427 428 429 432 265
          271 268 443 444 447 448
          450 451 259 272 459 461
          273 462 466 467 469 227
          3933 3934 3935 3936 3937 3939
          3940 3983 3985 3987 3988 456
          3990 3992 4010 4016 4017 4020
          453 4024 454 4039 4040 4044
          4047
        </DataArray>
        <DataArray type="Float64" Name="bounds" format="ascii" RangeMin="0" RangeMax="0">
          0 0 0 0 0 0
          0 0 0 0 0 0
          0 0 0 0 0 0
          0 0 0 0 0 0
          0 0 0 0 0 0
          0 0 0 0 0 0
          0 0 0 0 0 0
          0 0 0 0 0 0
          0 0 0 0 0 0
          0 0 0 0 0 0
          0 0 0 0 0 0
          0 0 0 0 0 0
          0 0 0 0 0 0
          0 0 0 0 0 0
          0 0 0 0 0 0
          0 0 0 0 0 0
          0 0 0 0 0 0
          0 0 0 0 0 0
          0 0 0 0 0 0
          0 0 0 0 0 0
          0 0 0 0 0 0
          0 0 0 0 0 0
          0 0 0 0 0 0
          0 0 0 0 0 0
          0 0 0 0 0 0
          0 0 0 0 0 0
          0 0 0 0 0 0
          0 0 0 0 0 0
          0 0 0 0 0 0
          0 0 0 0 0 0
          0 0 0 0 0 0
          0 0 0 0 0 0
          0 0 0 0 0 0
          0 0 0 0 0 0
          0 0 0 0 0 0
          0 0 0 0 0 0
          0 0 0 0 0 0
          0 0 0 0 0 0
          0 0 0 0 0 0
          0 0 0 0 0 0
          0 0 0 0 0 0
          0 0 0 0 0 0
          0 0 0 0 0 0
          0 0 0 0 0 0
          0 0 0 0 0 0
          0 0 0 0 0 0
          0 0 0 0 0 0
          0 0 0 0 0 0
          0 0 0 0 0 0
          0 0 0 0 0 0
          0 0 0 0 0 0
          0 0 0 0 0 0
          0 0 0 0 0 0
          0 0 0 0 0 0
          0 0 0 0 0 0
          0 0 0 0 0 0
          0 0 0 0 0 0
          0 0 0 0 0 0
          0 0 0 0 0 0
          0 0 0 0 0 0
          0 0 0 0 0 0
          0 0 0 0 0 0
          0 0 0 0 0 0
          0 0 0 0 0 0
          0 0 0 0 0 0
          0 0 0 0 0 0
          0 0 0 0 0 0
          0 0 0 0 0 0
          0 0 0 0 0 0
          0 0 0 0 0 0
          0 0 0 0 0 0
          0 0 0 0 0 0
          0 0 0 0 0 0
          0 0 0 0 0 0
          0 0 0 0 0 0
          0 0 0 0 0 0
          0 0 0 0 0 0
          0 0 0 0 0 0
          0 0 0 0 0 0
          0 0 0 0 0 0
          0 0 0 0 0 0
          0 0 0 0 0 0
          0 0 0 0 0 0
          0 0 0 0 0 0
          0
        </DataArray>
        <DataArray type="Float64" Name="gradient_error" format="ascii" RangeMin="3.1995914550339404e-11" RangeMax="0.0000020501657585462773">
          3.261466663149043e-10 3.324500625058625e-10 1.975328321874624e-10 1.9368612556174095e-10 8.337782876998605e-10 8.345229195127597e-10
          4.944660262727359e-10 4.909875576221236e-10 3.0847085234947184e-10 1.8673075710296907e-10 7.386493341438641e-10 4.514184018971932e-10
          2.189172524418684e-10 1.4070160635781685e-10 5.332843295095776e-10 3.4281475047613585e-10 1.4033213113645677e-10 9.759923837519654e-11
          4.2799394762353513e-10 2.714803388938575e-10 8.793551466515205e-11 6.899593510181221e-11 3.011582046044177e-10 1.9050289840915235e-10
          5.338788399732657e-11 5.1483192828235714e-11 1.1170816547805018e-10 8.572868423519845e-11 5.114998337638376e-11 5.05414187929231e-11
          5.1765268171210814e-11 5.1793074878938616e-11 5.0480061664603006e-11 5.033767282870447e-11 5.033729673018245e-11 5.038468199736829e-11
          5.048372258820748e-11 5.038161392492183e-11 4.981975627773098e-11 4.993715890680631e-11 5.038454654432764e-11 5.031896489792024e-11
          4.99451805002694e-11 5.0016046218179276e-11 6.26156018690624e-11 6.122558480857761e-11 1.5440913303271225e-10 1.4819682754438684e-10
          6.499066185646632e-11 1.6418746965052248e-10 6.248596027376528e-11 1.5234517144269412e-10 5.4866345613936323e-11 1.1496673016418e-10
          5.005635553847237e-11 7.984759221388694e-11 4.9578501659144874e-11 5.974920299234674e-11 4.993285420946245e-11 5.182088158666642e-11
          5.019528399280593e-11 5.043206726455414e-11 5.027950526163618e-11 5.0054561535881645e-11 5.025338325151285e-11 5.008691193608915e-11
          3.6967229045584047e-9 3.6142376060344296e-9 2.160979848786404e-9 2.1917634380432967e-9 3.042652941236913e-9 1.8874541180606518e-9
          2.1163035115617955e-9 1.3845580899138285e-9 1.7433902273016964e-9 1.0972398557635834e-9 1.2364965401175539e-9 7.433133711595649e-10
          3.596696532080295e-10 2.3806526317172104e-10 5.1911996284594366e-11 5.489951130841768e-11 5.164585791638473e-11 5.093935675752527e-11
          5.3539324779050625e-11 5.1666375436007905e-11 5.353769367039577e-11 5.1673767658187004e-11 7.07722091538379e-10 6.868039715281885e-10
          7.322552948843905e-10 6.528126682658611e-10 4.510894842254697e-10 2.5013020220157574e-10 1.1646087313541263e-10 5.7887026332241e-11
          5.023285559866581e-11 4.9793426092965185e-11 4.980984164597823e-11 7.155128144602911e-9 4.608229627325937e-9 5.23466352709116e-9
          3.180919110810076e-9 1.5890623151467139e-9 1.0392601730645209e-9 5.354133825736425e-11 4.812098244926096e-11 5.1071651822818573e-11
          4.5959829503187253e-11 2.061331110048963e-9 1.127174694528992e-9 4.894580309823278e-10 1.728939050712718e-10 7.445854833269146e-11
          4.2700626641157675e-11 4.084800718355594e-11 2.9304257757340306e-8 1.084313675689984e-8 1.2591950432986295e-8 6.613146618501216e-9
          1.985808383159062e-9 2.05329741361849e-9 1.1853494055599659e-8 7.001214928988888e-9 2.431143473483829e-9 0.000001029359575104705
          1.3674631161366318e-7 5.3222392804755036e-8 4.895610304648254e-8 1.3064357094023041e-8 7.507112347346913e-9 2.282046276846234e-9
          0.0000016223390682866169 7.969028690221976e-7 2.2662723887055606e-7 7.033662929504563e-8 5.165617256747823e-8 2.245767840065735e-8
          1.4837938437089133e-9 5.442506921530713e-7 3.452767626685409e-7 6.358063070053212e-7 0.000001792185430356023 0.0000010281483178310122
          9.286684506730104e-7 0.0000011886998746933978 6.770638810761821e-8 2.6839202743035354e-7 4.1772214386791475e-7 1.1890096011423438e-7
          4.41972829306693e-7 4.956513695152638e-7 7.350001353974417e-8 1.6485094876054667e-7 0.0000012783215561718056 0.0000016467955843327833
          3.703085094096863e-7 7.545148848704636e-7 1.4099462119258432e-8 2.1679941374708487e-8 7.805787754764763e-8 2.4044955027811225e-8
          2.063965251536162e-8 1.3254664701101706e-8 2.726253027658471e-7 4.77795327299218e-7 8.608785599972122e-7 7.103406054957994e-7
          3.336254876225493e-7 5.426587884271617e-7 9.651353426272927e-7 4.5828189067913013e-7 3.7945519555744363e-7 5.587273019784794e-7
          5.421136308101583e-7 5.413402092321314e-7 9.278314236552469e-7 5.233675162917146e-7 1.90590077395409e-7 3.4480294402371227e-7
          7.570771167560886e-7 3.941854838851724e-7 3.6881579421585097e-7 2.4850556911850133e-9 2.0976184649168002e-9 1.0306313872508944e-8
          5.012889375177647e-8 7.06348911727716e-9 6.349281171157123e-9 3.1808519534783766e-8 1.0324459660760706e-9 1.7101812386485872e-9
          5.6350732250370886e-9 1.3488145317791067e-8 2.337651308582703e-9 6.185962474211421e-10 5.222946740762529e-10 4.2599310073136373e-10
          1.3264449434641335e-9 1.093138327602938e-9 1.707215641478535e-9 2.2347208301712765e-9 3.91738371369543e-10 5.032867374082645e-10
          1.0007568352265512e-9 2.7622260188640183e-9 6.148351034469859e-10 0.000001896142743532202 0.0000015877351230952847 0.0000015240781927913545
          0.0000017108057771412447 0.0000014426744086567877 0.000001552180506248124 0.000001647866609726476 0.0000012793275026583676 0.0000016647466306023227
          0.0000011839942816935634 9.682214049482217e-7 0.0000015198050301181264 0.000001771655026661598 0.0000020501657585462773 1.3207341257324066e-8
          1.0375962494659187e-7 7.476892719222043e-8 4.577822943784896e-8 3.1315436282171907e-7 3.071371161005558e-7 2.96291538619564e-7
          2.3532278857996089e-7 2.4785403052829365e-7 2.8904706969472104e-7 2.721037783056676e-7 3.292716670712733e-7 2.63901198633983e-7
          3.0854983164445646e-7 2.9405831784188564e-7 3.172623988787435e-7 3.030855105478416e-7 3.3957686439700983e-7 1.7512859187793454e-7
          2.4767040024864685e-7 2.3494657748278646e-7 2.6413331272130236e-7 3.2442318582258223e-7 3.5552038174188837e-7 3.503097824063831e-7
          2.846045921238829e-7 3.3247624955183336e-7 3.722591698160088e-7 3.090776076616938e-7 3.5958245679147924e-7 3.345309748099931e-7
          3.617011009445661e-7 3.851314341879701e-7 2.0703162503229545e-7 2.853054149930988e-7 3.1045191568954177e-7 3.681466182421878e-7
          3.917976582380853e-8 2.2954594079923596e-8 2.7597905616827285e-8 1.6034507970460215e-7 1.2293130448019218e-7 7.364673009445154e-8
          9.660276006684102e-8 6.729422336038663e-9 2.4362155708710882e-8 3.286044042907992e-8 1.8608744186072237e-8 2.399250367057421e-8
          8.748766968476507e-8 9.549587808244422e-8 1.0030816558561322e-8 3.7341480863690265e-8 5.173145792386252e-9 2.994547754286869e-8
          2.8736724505343204e-8 1.2666600525458767e-8 1.563665951834579e-7 1.6699925249431425e-7 6.46521451688192e-8 5.471780929335112e-8
          4.0288426778654834e-9 5.403157197205565e-9 1.1429824082613275e-9 1.7467722789371939e-9 6.777471716545648e-9 2.3505621496130603e-9
          8.514310566747225e-8 6.86851863602941e-8 1.080712690001894e-7 2.2269999970680807e-7 2.0523963865734655e-7 1.5703301435115376e-7
          1.733794145403628e-7 2.1800767676603155e-8 1.7150176531875723e-7 1.2555346419174844e-7 5.222726705311595e-8 1.0882639004496098e-7
          1.240588293739175e-7 7.96051630647397e-8 1.5604811890125806e-7 1.7590264676736142e-7 2.329399405852695e-7 2.5521732435976995e-7
          1.184676303283339e-7 1.8842039050083176e-7 7.199913079954899e-8 1.0451810563188255e-7 1.6178451018835605e-7 3.016561381082763e-8
          3.09831762269281e-7 3.345320019521785e-7 2.5837315067332967e-7 1.370370804642161e-7 1.6723715186542903e-8 1.4239869683564279e-8
          1.3853330139107188e-7 9.846416701454346e-8 1.1756024180585655e-8 5.839503263801507e-8 8.920919801254914e-8 1.4960354762229098e-7
          6.807599994537138e-8 1.1621508990604748e-7 1.2274149631534526e-8 1.259621447012908e-8 1.2042138512342672e-8 2.099978972320328e-7
          1.6435417986672358e-7 1.2918279308723634e-8 2.169028262821927e-7 2.0704571101945023e-7 2.0975789300330848e-7 2.749765446285074e-7
          2.8288301527524953e-7 2.6400909586082433e-7 2.576674382891223e-7 2.063148897560642e-7 2.920115614943436e-7 2.7106011574733255e-7
          1.9718859575670776e-7 2.451351764463991e-7 2.4035833194973717e-7 2.501086700003215e-7 2.6722441361790503e-7 2.6090010086923083e-7
          2.90506957576232e-7 2.821836715240116e-7 2.739251551577421e-7 2.999105124257812e-7 2.210542689475866e-7 2.379596202431155e-7
          2.3841207890893353e-7 2.396454623968869e-7 3.1378950153455894e-7 3.0346724217879246e-7 3.2589586969382043e-7 2.548649715386444e-7
          2.3414367845148829e-7 2.203045756550856e-7 2.2825015009266144e-7 2.682601399946012e-7 2.699364674581368e-7 2.520775343577009e-7
          2.493014038471279e-7 2.0646547285868291e-7 2.3421860125726508e-7 2.3034266769965464e-7 2.530517075313897e-7 2.481475734873652e-7
          2.7517244595382487e-7 2.718072420565834e-7 2.2616820029590747e-7 2.4606020301131103e-7 2.5212748853239066e-7 2.9729318437625997e-7
          2.954669106258016e-7 2.659522057267146e-7 2.761797664859888e-7 2.737132005504903e-7 2.4982253199182753e-7 2.3495791668440055e-7
          2.3220401138248264e-7 2.529331415462839e-7 2.425093382924151e-7 2.712466346149918e-7 2.7366227171008515e-7 2.500607599004296e-7
          1.8822825627897653e-7 2.3215308254207748e-7 2.351961445930026e-7 2.7607790880517846e-7 3.7188060482806386e-8 2.2221864650738665e-8
          7.255668818670941e-9 0.000001693941288697953 0.0000014504951539686874 0.0000015677997662421522 0.0000015262021107367615 7.675374229219588e-7
          9.495309871410791e-7 0.0000014416582437863512 0.0000016019090675048353 0.0000011315245513601996 2.5107157165601587e-7 3.3087433559313683e-7
          2.406915672988498e-7 3.201886665900945e-7 1.7411731670753623e-7 2.47291152135486e-7 2.58249372722914e-7 4.1067709953025785e-7
          3.9968576588133925e-7 3.204649875634358e-7 1.593288027470003e-8 1.5248761235098772e-8 9.366090948987204e-9 9.68734198144154e-9
          1.2321866513938814e-8 7.895950998235267e-9 8.420775460086123e-9 5.715597295274033e-9 1.8817534906460957e-10 1.8053462706794067e-10
          8.788397264816463e-11 8.117126049042805e-11 3.4834206628756392e-9 3.441803688183051e-9 3.470035482531719e-9 3.010419130461944e-9
          1.616032826637362e-8 1.1401143107820845e-8 2.659187765428258e-10 4.4509356856425143e-10 8.185510364669723e-11 5.195921653748345e-11
          4.4140335143882466e-11 1.3464930638320938e-10 4.567031654405769e-11 3.8833115547198546e-11 1.355300603004284e-8 6.073733915668464e-10
          1.8247268528016999e-10 3.6321453750281485e-11 3.1995914550339404e-11 1.972642148943459e-7 1.3468802247233554e-8 8.079411064084998e-9
          1.7899327807490565e-9 5.802459198706527e-10 3.3833627202882897e-9 2.860507014435496e-9 8.86647825483121e-9 1.67042546690629e-9
          1.4984352051852116e-9 2.238252635784141e-10 6.164997474057138e-10 6.4172350575611e-10 6.669472641065062e-10 4.747767840053182e-9
          4.749533383674992e-9 1.725215586341839e-9 6.840887891749914e-7 4.823360870618963e-7 0.0000013713687171345603 7.974361460598889e-7
          2.1958703016072095e-7 2.354218630391201e-7 8.20238124589203e-9 4.362697823820795e-9 1.2782419405106733e-9 5.704125413243636e-10
          1.6156846656321502e-9 5.32823912050264e-10 1.925848936491974e-10 1.4633455534184088e-9 4.952352827761643e-10 1.557020642488501e-10
          1.195301314834653e-8 9.898532410853639e-8 1.4718991006639902e-7 9.163411151840411e-8 6.699322698896487e-8 3.6078312970409206e-8
          3.500112986939335e-8 2.3040518203554332e-8 6.258683873248372e-8 4.623926478259704e-9 1.523050983482067e-8 2.3494305501400008e-7
          1.0213315926141311e-7 2.583709319138163e-8 0.000001020627585282667 0.0000014395374092756751 0.0000014124968256171506 9.279790882000924e-7
          0.0000012944607678323663 0.0000014522248887735998 0.0000010897402234283842 2.704552626031016e-7 3.5046471176117347e-7 2.30427489080788e-7
          4.304741609192454e-7
        </DataArray>
        <DataArray type="Float64" Name="gradient_matprop_error" format="ascii" RangeMin="0" RangeMax="0">
          0 0 0 0 0 0
          0 0 0 0 0 0
          0 0 0 0 0 0
          0 0 0 0 0 0
          0 0 0 0 0 0
          0 0 0 0 0 0
          0 0 0 0 0 0
          0 0 0 0 0 0
          0 0 0 0 0 0
          0 0 0 0 0 0
          0 0 0 0 0 0
          0 0 0 0 0 0
          0 0 0 0 0 0
          0 0 0 0 0 0
          0 0 0 0 0 0
          0 0 0 0 0 0
          0 0 0 0 0 0
          0 0 0 0 0 0
          0 0 0 0 0 0
          0 0 0 0 0 0
          0 0 0 0 0 0
          0 0 0 0 0 0
          0 0 0 0 0 0
          0 0 0 0 0 0
          0 0 0 0 0 0
          0 0 0 0 0 0
          0 0 0 0 0 0
          0 0 0 0 0 0
          0 0 0 0 0 0
          0 0 0 0 0 0
          0 0 0 0 0 0
          0 0 0 0 0 0
          0 0 0 0 0 0
          0 0 0 0 0 0
          0 0 0 0 0 0
          0 0 0 0 0 0
          0 0 0 0 0 0
          0 0 0 0 0 0
          0 0 0 0 0 0
          0 0 0 0 0 0
          0 0 0 0 0 0
          0 0 0 0 0 0
          0 0 0 0 0 0
          0 0 0 0 0 0
          0 0 0 0 0 0
          0 0 0 0 0 0
          0 0 0 0 0 0
          0 0 0 0 0 0
          0 0 0 0 0 0
          0 0 0 0 0 0
          0 0 0 0 0 0
          0 0 0 0 0 0
          0 0 0 0 0 0
          0 0 0 0 0 0
          0 0 0 0 0 0
          0 0 0 0 0 0
          0 0 0 0 0 0
          0 0 0 0 0 0
          0 0 0 0 0 0
          0 0 0 0 0 0
          0 0 0 0 0 0
          0 0 0 0 0 0
          0 0 0 0 0 0
          0 0 0 0 0 0
          0 0 0 0 0 0
          0 0 0 0 0 0
          0 0 0 0 0 0
          0 0 0 0 0 0
          0 0 0 0 0 0
          0 0 0 0 0 0
          0 0 0 0 0 0
          0 0 0 0 0 0
          0 0 0 0 0 0
          0 0 0 0 0 0
          0 0 0 0 0 0
          0 0 0 0 0 0
          0 0 0 0 0 0
          0 0 0 0 0 0
          0 0 0 0 0 0
          0 0 0 0 0 0
          0 0 0 0 0 0
          0 0 0 0 0 0
          0 0 0 0 0 0
          0 0 0 0 0 0
          0
        </DataArray>
        <DataArray type="Float64" Name="initial_marker" format="ascii" RangeMin="0" RangeMax="2">
          0 0 0 0 0 0
          0 0 0 0 0 0
          0 0 0 0 0 0
          0 0 0 0 0 0
          0 0 0 0 0 0
          0 0 0 0 0 0
          0 0 0 0 0 0
          0 0 0 0 0 0
          0 0 0 0 0 0
          0 0 0 0 0 0
          0 0 0 0 0 0
          0 0 0 0 0 0
          0 0 0 0 0 0
          0 0 0 0 0 0
          0 0 0 0 0 0
          0 0 0 0 0 0
          0 0 0 0 0 0
          0 0 0 0 0 0
          0 0 0 0 0 0
          0 0 0 0 0 0
          0 0 0 0 0 0
          0 0 0 0 0 0
          0 0 2 0 0 0
          0 0 0 0 0 0
          0 0 0 0 0 0
          0 0 0 0 0 0
          0 0 0 0 0 0
          0 0 0 0 0 0
          0.5 0 0 0 1 0
          0 0 0 0 2 0
          0 1 0 0 0 0
          0 0 0 0 0 0
          0 0 0 0 0 0
          0 0 0 0 0 0
          0 0 0 0 0 0
          0 0 0 0 0 0
          0 0 0 0 0 0
          0 0 0 0 0 0
          0 0.5 0.25 0 0.25 1.5
          0.75 0 0 0 0 1
          0.5 0 1 0 1 0.5
          2 1.25 0.5 2 1.5 0
          0.25 0.5 2 1.5 2 0.5
          0 0 0 0 0 0
          0 0 0 0 0 0
          0 0 0 0 0 0
          0 0 0 0 0 0
          0 0 0 0 0 0
          0 0 0 0 0 0
          0 0 0 0 0 0
          0 0 0 0 0 0
          0 0 0 0 0 0
          0 0 0 0 0 0
          0 0 0 0 0 0
          0 0 0 0 0 0
          0 0 0 0 0 0
          0 0 0 0 0 0
          0 0 0 0 0 0
          0 0 0 0 0 0
          0 0 0 0 0 0
          0 0 0 0 0 0
          0 0 0 0 0 0
          0 0 0 0 0 0
          0 0 0 0 0 0
          0 0 0 0 0 0
          0 0 0 0 0 0
          0 0 0 0 0 0
          0 0 0 0 0 0
          0 0 0 0 0 0
          0 0 0 0 0 0
          0 0 0 0 0 0
          0 0 0 0 0 0
          0 0 0 0 0 0
          0 0 0 0 0 0
          0 0 0 0 0 0
          0 0 0 0 0 0
          0 0 0 0 0 0
          0 0 0 0 0 0
          0 0 0 0 0 0
          0 0 0 0 0 0
          0 0 0 0 0 0
          0 0 0 0 0 0
          0 0 0 0 0 0
          0 0 0 0 0 0
          0
        </DataArray>
        <DataArray type="Float64" Name="markers_norefine" format="ascii" RangeMin="0" RangeMax="0">
          0 0 0 0 0 0
          0 0 0 0 0 0
          0 0 0 0 0 0
          0 0 0 0 0 0
          0 0 0 0 0 0
          0 0 0 0 0 0
          0 0 0 0 0 0
          0 0 0 0 0 0
          0 0 0 0 0 0
          0 0 0 0 0 0
          0 0 0 0 0 0
          0 0 0 0 0 0
          0 0 0 0 0 0
          0 0 0 0 0 0
          0 0 0 0 0 0
          0 0 0 0 0 0
          0 0 0 0 0 0
          0 0 0 0 0 0
          0 0 0 0 0 0
          0 0 0 0 0 0
          0 0 0 0 0 0
          0 0 0 0 0 0
          0 0 0 0 0 0
          0 0 0 0 0 0
          0 0 0 0 0 0
          0 0 0 0 0 0
          0 0 0 0 0 0
          0 0 0 0 0 0
          0 0 0 0 0 0
          0 0 0 0 0 0
          0 0 0 0 0 0
          0 0 0 0 0 0
          0 0 0 0 0 0
          0 0 0 0 0 0
          0 0 0 0 0 0
          0 0 0 0 0 0
          0 0 0 0 0 0
          0 0 0 0 0 0
          0 0 0 0 0 0
          0 0 0 0 0 0
          0 0 0 0 0 0
          0 0 0 0 0 0
          0 0 0 0 0 0
          0 0 0 0 0 0
          0 0 0 0 0 0
          0 0 0 0 0 0
          0 0 0 0 0 0
          0 0 0 0 0 0
          0 0 0 0 0 0
          0 0 0 0 0 0
          0 0 0 0 0 0
          0 0 0 0 0 0
          0 0 0 0 0 0
          0 0 0 0 0 0
          0 0 0 0 0 0
          0 0 0 0 0 0
          0 0 0 0 0 0
          0 0 0 0 0 0
          0 0 0 0 0 0
          0 0 0 0 0 0
          0 0 0 0 0 0
          0 0 0 0 0 0
          0 0 0 0 0 0
          0 0 0 0 0 0
          0 0 0 0 0 0
          0 0 0 0 0 0
          0 0 0 0 0 0
          0 0 0 0 0 0
          0 0 0 0 0 0
          0 0 0 0 0 0
          0 0 0 0 0 0
          0 0 0 0 0 0
          0 0 0 0 0 0
          0 0 0 0 0 0
          0 0 0 0 0 0
          0 0 0 0 0 0
          0 0 0 0 0 0
          0 0 0 0 0 0
          0 0 0 0 0 0
          0 0 0 0 0 0
          0 0 0 0 0 0
          0 0 0 0 0 0
          0 0 0 0 0 0
          0 0 0 0 0 0
          0
        </DataArray>
        <DataArray type="Float64" Name="markers_mustrefine" format="ascii" RangeMin="0" RangeMax="2">
          0 0 0 0 0 0
          0 0 0 0 0 0
          0 0 0 0 0 0
          0 0 0 0 0 0
          0 0 0 0 0 0
          0 0 0 0 0 0
          0 0 0 0 0 0
          0 0 0 0 0 0
          0 0 0 0 0 0
          0 0 0 0 0 0
          0 0 0 0 0 0
          0 0 0 0 0 0
          0 0 0 0 0 0
          0 0 0 0 0 0
          0 0 0 0 0 0
          0 0 0 0 0 0
          0 0 0 0 0 0
          0 0 0 0 0 0
          0 0 0 0 0 0
          0 0 0 0 0 0
          0 0 0 0 0 0
          0 0 0 0 0 0
          0 0 2 0 0 0
          0 0 0 0 0 0
          0 0 0 0 0 0
          0 0 0 0 0 0
          0 0 0 0 0 0
          0 0 0 0 0 0
          0.5 0 0 0 1 0
          0 0 0 0 2 0
          0 1 0 0 0 0
          0 0 0 0 0 0
          0 0 0 0 0 0
          0 0 0 0 0 0
          0 0 0 0 0 0
          0 0 0 0 0 0
          0 0 0 0 0 0
          0 0 0 0 0 0
          0 0.5 0.25 0 0.25 1.5
          0.75 0 0 0 0 1
          0.5 0 1 0 1 0.5
          2 1.25 0.5 2 1.5 0
          0.25 0.5 2 1.5 2 0.5
          0 0 0 0 0 0
          0 0 0 0 0 0
          0 0 0 0 0 0
          0 0 0 0 0 0
          0 0 0 0 0 0
          0 0 0 0 0 0
          0 0 0 0 0 0
          0 0 0 0 0 0
          0 0 0 0 0 0
          0 0 0 0 0 0
          0 0 0 0 0 0
          0 0 0 0 0 0
          0 0 0 0 0 0
          0 0 0 0 0 0
          0 0 0 0 0 0
          0 0 0 0 0 0
          0 0 0 0 0 0
          0 0 0 0 0 0
          0 0 0 0 0 0
          0 0 0 0 0 0
          0 0 0 0 0 0
          0 0 0 0 0 0
          0 0 0 0 0 0
          0 0 0 0 0 0
          0 0 0 0 0 0
          0 0 0 0 0 0
          0 0 0 0 0 0
          0 0 0 0 0 0
          0 0 0 0 0 0
          0 0 0 0 0 0
          0 0 0 0 0 0
          0 0 0 0 0 0
          0 0 0 0 0 0
          0 0 0 0 0 0
          0 0 0 0 0 0
          0 0 0 0 0 0
          0 0 0 0 0 0
          0 0 0 0 0 0
          0 0 0 0 0 0
          0 0 0 0 0 0
          0 0 0 0 0 0
          0
        </DataArray>
        <DataArray type="Float64" Name="gradient_marker" format="ascii" RangeMin="0.75" RangeMax="1">
          1 1 1 1 1 1
          1 1 1 1 1 1
          1 1 1 1 1 1
          1 1 1 1 1 1
          1 1 1 1 1 1
          1 1 1 1 1 1
          1 1 1 1 1 1
          1 1 1 1 1 1
          1 1 1 1 1 1
          1 1 1 1 1 1
          1 1 1 1 1 1
          1 1 1 1 1 1
          1 1 1 1 1 1
          1 1 1 1 1 1
          1 1 1 1 1 1
          1 1 1 1 1 1
          1 1 1 1 1 1
          1 1 1 1 1 1
          1 1 1 1 1 1
          1 1 1 1 1 1
          1 1 1 1 1 1
          1 1 1 1 1 1
          1 1 1 1 1 1
          1 1 1 1 1 1
          1 1 1 1 1 1
          1 1 1 1 1 1
          1 1 1 1 0.75 1
          1 1 1 1 1 1
          1 1 1 1 1 1
          1 1 1 1 1 1
          1 1 1 1 1 1
          1 1 1 1 1 1
          1 1 1 1 1 1
          1 1 1 1 1 1
          1 1 1 1 1 1
          1 1 1 1 1 1
          1 1 1 1 1 1
          1 1 1 1 1 1
          1 1 1 1 1 1
          1 1 1 1 1 1
          1 1 1 1 1 1
          1 1 1 1 1 1
          1 1 1 1 1 1
          1 1 1 1 1 1
          1 1 1 1 1 1
          1 1 1 1 1 1
          1 1 1 1 1 1
          1 1 1 1 1 1
          1 1 1 1 1 1
          1 1 1 1 1 1
          1 1 1 1 1 1
          1 1 1 1 1 1
          1 1 1 1 1 1
          1 1 1 1 1 1
          1 1 1 1 1 1
          1 1 1 1 1 1
          1 1 1 1 1 1
          1 1 1 1 1 1
          1 1 1 1 1 1
          1 1 1 1 1 1
          1 1 1 1 1 1
          1 1 1 1 1 1
          1 1 1 1 1 1
          1 1 1 1 1 1
          1 1 1 1 1 1
          1 1 1 1 1 1
          1 1 1 1 1 1
          1 1 1 1 1 1
          1 1 1 1 1 1
          1 1 1 1 1 1
          1 1 1 1 1 1
          1 1 1 1 1 1
          1 1 1 1 1 1
          1 1 1 1 1 1
          1 1 1 1 1 1
          1 1 1 1 1 1
          1 1 1 1 1 1
          1 1 1 1 1 1
          1 1 1 1 1 1
          1 1 1 1 1 1
          1 1 1 1 1 1
          1 1 1 1 1 1
          1 1 1 1 1 1
          1 1 1 1 1 1
          1
        </DataArray>
        <DataArray type="Float64" Name="gradient_matprop_marker" format="ascii" RangeMin="0" RangeMax="0">
          0 0 0 0 0 0
          0 0 0 0 0 0
          0 0 0 0 0 0
          0 0 0 0 0 0
          0 0 0 0 0 0
          0 0 0 0 0 0
          0 0 0 0 0 0
          0 0 0 0 0 0
          0 0 0 0 0 0
          0 0 0 0 0 0
          0 0 0 0 0 0
          0 0 0 0 0 0
          0 0 0 0 0 0
          0 0 0 0 0 0
          0 0 0 0 0 0
          0 0 0 0 0 0
          0 0 0 0 0 0
          0 0 0 0 0 0
          0 0 0 0 0 0
          0 0 0 0 0 0
          0 0 0 0 0 0
          0 0 0 0 0 0
          0 0 0 0 0 0
          0 0 0 0 0 0
          0 0 0 0 0 0
          0 0 0 0 0 0
          0 0 0 0 0 0
          0 0 0 0 0 0
          0 0 0 0 0 0
          0 0 0 0 0 0
          0 0 0 0 0 0
          0 0 0 0 0 0
          0 0 0 0 0 0
          0 0 0 0 0 0
          0 0 0 0 0 0
          0 0 0 0 0 0
          0 0 0 0 0 0
          0 0 0 0 0 0
          0 0 0 0 0 0
          0 0 0 0 0 0
          0 0 0 0 0 0
          0 0 0 0 0 0
          0 0 0 0 0 0
          0 0 0 0 0 0
          0 0 0 0 0 0
          0 0 0 0 0 0
          0 0 0 0 0 0
          0 0 0 0 0 0
          0 0 0 0 0 0
          0 0 0 0 0 0
          0 0 0 0 0 0
          0 0 0 0 0 0
          0 0 0 0 0 0
          0 0 0 0 0 0
          0 0 0 0 0 0
          0 0 0 0 0 0
          0 0 0 0 0 0
          0 0 0 0 0 0
          0 0 0 0 0 0
          0 0 0 0 0 0
          0 0 0 0 0 0
          0 0 0 0 0 0
          0 0 0 0 0 0
          0 0 0 0 0 0
          0 0 0 0 0 0
          0 0 0 0 0 0
          0 0 0 0 0 0
          0 0 0 0 0 0
          0 0 0 0 0 0
          0 0 0 0 0 0
          0 0 0 0 0 0
          0 0 0 0 0 0
          0 0 0 0 0 0
          0 0 0 0 0 0
          0 0 0 0 0 0
          0 0 0 0 0 0
          0 0 0 0 0 0
          0 0 0 0 0 0
          0 0 0 0 0 0
          0 0 0 0 0 0
          0 0 0 0 0 0
          0 0 0 0 0 0
          0 0 0 0 0 0
          0 0 0 0 0 0
          0
        </DataArray>
        <DataArray type="Float64" Name="combo" format="ascii" RangeMin="0.75" RangeMax="1">
          1 1 1 1 1 1
          1 1 1 1 1 1
          1 1 1 1 1 1
          1 1 1 1 1 1
          1 1 1 1 1 1
          1 1 1 1 1 1
          1 1 1 1 1 1
          1 1 1 1 1 1
          1 1 1 1 1 1
          1 1 1 1 1 1
          1 1 1 1 1 1
          1 1 1 1 1 1
          1 1 1 1 1 1
          1 1 1 1 1 1
          1 1 1 1 1 1
          1 1 1 1 1 1
          1 1 1 1 1 1
          1 1 1 1 1 1
          1 1 1 1 1 1
          1 1 1 1 1 1
          1 1 1 1 1 1
          1 1 1 1 1 1
          1 1 1 1 1 1
          1 1 1 1 1 1
          1 1 1 1 1 1
          1 1 1 1 1 1
          1 1 1 1 0.75 1
          1 1 1 1 1 1
          1 1 1 1 1 1
          1 1 1 1 1 1
          1 1 1 1 1 1
          1 1 1 1 1 1