<?xml version="1.0"?>
<VTKFile type="UnstructuredGrid" version="0.1" byte_order="LittleEndian" header_type="UInt32" compressor="vtkZLibDataCompressor">
  <UnstructuredGrid>
    <Piece NumberOfPoints="427" NumberOfCells="240">
      <PointData>
        <DataArray type="Int32" Name="libmesh_node_id" format="ascii" RangeMin="269" RangeMax="3149">
          269 371 381 382 383 384
          772 773 774 775 776 777
          778 826 827 828 829 830
          831 832 833 835 836 837
          838 1081 1311 1312 1315 1318
          1333 1491 1492 1495 1496 1497
          1498 1500 1503 1505 1506 1507
          1508 1509 1510 1511 1512 1513
          1514 1515 1516 1517 1518 1519
          1521 1522 1523 1525 1527 1529
          1530 1531 1532 1533 1534 1535
          1536 1537 1538 1555 1556 1558
          1563 1564 1565 1566 1567 1568
          1581 1836 1837 1841 1842 1849
          1850 1851 1852 1856 1857 1858
          1859 1860 1861 1862 1863 1864
          1865 2221 2222 2223 2224 2714
          2715 2716 2717 2718 2719 2720
          2721 2722 2723 2728 2729 2730
          2731 2732 2733 2734 2735 2736
          2737 2738 2739 2740 2741 2752
          2753 2754 2755 2756 2757 2758
          2759 2760 2761 2772 2773 2774
          2775 2776 2777 2778 2779 2780
          2781 2782 2783 2784 2785 2786
          2787 2788 2789 2790 2791 2792
          2793 2794 2795 2796 2797 2798
          2799 2800 2801 2802 2803 2804
          2805 2806 2807 2808 2809 2810
          2811 2812 2813 2814 2815 2816
          2817 2818 2819 2820 2821 2822
          2823 2824 2825 2826 2827 2828
          2829 2840 2841 2842 2843 2844
          2845 2846 2847 2848 2850 2851
          2852 2853 2854 2855 2856 2857
          2858 2859 2860 2861 2862 2863
          2864 2865 2866 2867 2868 2869
          2918 2919 2920 2921 2922 2923
          2926 2935 2936 2937 2938 2940
          2976 2977 2978 2979 2980 2981
          2982 2983 2984 2985 2986 2987
          2988 2989 2990 2991 2992 2993
          2994 2995 2996 2997 2998 2999
          3000 3001 3002 3003 3004 3005
          3006 3007 3008 3009 3020 3021
          3022 3023 3024 3025 3031 3037
          3038 3040 3051 3052 3056 3106
          3107 3108 3109 3110 3111 3113
          3114 3115 3116 3117 3118 3120
          3121 3122 3123 3124 3125 3126
          3130 3131 3132 3133 3134 3135
          3136 3138 834 781 1079 839
          876 874 1313 1316 1317 1314
          1320 1319 1494 1499 1520 1334
          1524 1337 1526 1528 1890 1885
          1576 1582 1891 1886 1892 1583
          1893 2724 2725 2225 1493 2726
          2727 2744 2745 2747 1501 2750
          1502 2764 2765 2768 2770 1504
          2832 2833 2836 2838 2849 2910
          2911 2913 1553 2924 2925 2916
          2927 1554 2929 2931 2939 2933
          2941 1557 2952 2954 2955 2953
          2957 2956 2970 2969 2972 2971
          3010 3011 3012 3013 3014 3015
          3030 3032 3033 3039 3045 3053
          3047 3054 3055 3049 3057 1573
          1574 3070 3068 3071 3069 3086
          3085 3088 3087 3112 1580 3119
          3074 3127 3076 3128 3129 3137
          3139 3140 3141 3142 3143 3147
          3149
        </DataArray>
        <DataArray type="Float64" Name="bounds" format="ascii" RangeMin="0" RangeMax="0">
          0 0 0 0 0 0
          0 0 0 0 0 0
          0 0 0 0 0 0
          0 0 0 0 0 0
          0 0 0 0 0 0
          0 0 0 0 0 0
          0 0 0 0 0 0
          0 0 0 0 0 0
          0 0 0 0 0 0
          0 0 0 0 0 0
          0 0 0 0 0 0
          0 0 0 0 0 0
          0 0 0 0 0 0
          0 0 0 0 0 0
          0 0 0 0 0 0
          0 0 0 0 0 0
          0 0 0 0 0 0
          0 0 0 0 0 0
          0 0 0 0 0 0
          0 0 0 0 0 0
          0 0 0 0 0 0
          0 0 0 0 0 0
          0 0 0 0 0 0
          0 0 0 0 0 0
          0 0 0 0 0 0
          0 0 0 0 0 0
          0 0 0 0 0 0
          0 0 0 0 0 0
          0 0 0 0 0 0
          0 0 0 0 0 0
          0 0 0 0 0 0
          0 0 0 0 0 0
          0 0 0 0 0 0
          0 0 0 0 0 0
          0 0 0 0 0 0
          0 0 0 0 0 0
          0 0 0 0 0 0
          0 0 0 0 0 0
          0 0 0 0 0 0
          0 0 0 0 0 0
          0 0 0 0 0 0
          0 0 0 0 0 0
          0 0 0 0 0 0
          0 0 0 0 0 0
          0 0 0 0 0 0
          0 0 0 0 0 0
          0 0 0 0 0 0
          0 0 0 0 0 0
          0 0 0 0 0 0
          0 0 0 0 0 0
          0 0 0 0 0 0
          0 0 0 0 0 0
          0 0 0 0 0 0
          0 0 0 0 0 0
          0 0 0 0 0 0
          0 0 0 0 0 0
          0 0 0 0 0 0
          0 0 0 0 0 0
          0 0 0 0 0 0
          0 0 0 0 0 0
          0 0 0 0 0 0
          0 0 0 0 0 0
          0 0 0 0 0 0
          0 0 0 0 0 0
          0 0 0 0 0 0
          0 0 0 0 0 0
          0 0 0 0 0 0
          0 0 0 0 0 0
          0 0 0 0 0 0
          0 0 0 0 0 0
          0 0 0 0 0 0
          0
        </DataArray>
        <DataArray type="Float64" Name="gradient_error" format="ascii" RangeMin="2.1489929953702914e-11" RangeMax="6.837267853347413e-8">
          2.2164529029733196e-9 2.3140080890414746e-9 1.3911612859921744e-10 1.858739430697772e-10 2.8795303765122936e-10 1.6864242118424215e-10
          3.814677034078747e-9 5.253155908979768e-9 6.837267853347413e-8 5.177090518617055e-8 1.4213536471165919e-9 2.661075267486968e-9
          2.5443869283022332e-9 1.3447957722953033e-10 3.0577579363647024e-10 2.796388621964646e-10 5.578978245185288e-10 1.5639847045513202e-10
          1.7484479006306236e-10 1.4440301822861743e-10 4.5804971745403716e-10 2.0190631738048045e-10 1.91465712846945e-9 6.887806562495085e-10
          1.094546558730006e-10 2.059849536168239e-10 1.261447838145119e-8 1.1021246163045563e-8 2.4955966914591916e-9 7.761762707876562e-9
          1.77871417841035e-9 2.709273695603252e-10 6.179711079442546e-10 3.852163569691269e-10 3.5166816935197927e-10 3.9535801244902914e-10
          9.536365783074943e-10 3.4616550189296687e-10 1.463861252249081e-9 3.320198525338479e-10 2.925137837822419e-10 2.419545773348535e-10
          2.0705340641361025e-10 1.1415357377470753e-10 9.295593465974398e-11 7.868380118493137e-11 2.0150690415584272e-10 1.338316926257262e-10
          6.282803121285119e-11 8.090472435351982e-10 6.110359329238393e-10 2.1713945409936336e-10 2.786194558623351e-10 7.737660112230589e-10
          3.2230930493743485e-10 3.5106376639203226e-10 5.813496976523699e-10 4.5631427263384786e-10 3.6701254137340907e-10 1.2117791134249217e-10
          1.3142632658182255e-10 4.5706034900088365e-11 6.270276344602222e-11 9.234972940393473e-11 1.6938416571421192e-10 6.480021474316512e-11
          1.405054639782793e-10 8.051657447604999e-11 1.821708108978971e-10 1.0276317800532144e-8 7.695106764137025e-9 3.141678133061383e-9
          4.788457868081008e-9 3.4818879176335633e-9 1.755008540467141e-9 1.2587697518500853e-9 1.3395965942896316e-9 4.778216761271589e-10
          1.3610878266042226e-10 4.353148173290049e-11 4.585781599742532e-11 3.6717593817774894e-11 3.76920330263566e-11 3.2371081015948694e-10
          4.672141250866801e-10 4.1225705525574894e-10 3.5729998542481766e-10 2.2906149072715121e-10 2.187855774398014e-10 3.168675811527958e-10
          2.9010131497183835e-10 1.1386034472011585e-10 1.665210372189115e-10 1.679455746879278e-10 2.0850966415245158e-10 2.633350487908809e-10
          1.693701121569441e-10 3.6182064664731755e-10 4.657614376366832e-10 4.382632948531569e-10 4.1076515206963073e-10 2.6913694311537754e-10
          2.7579249423093667e-10 3.8424863353300926e-10 3.680058404424269e-10 1.548322088060267e-10 2.439127996319412e-10 2.389162816918436e-10
          2.824480453464959e-10 3.5176304735184457e-10 2.3391976375174593e-10 9.376552995562102e-11 1.0300213248762542e-10 1.4986689175480434e-10
          1.4780286457333503e-10 8.610418917775328e-11 1.1464401367506165e-10 1.1552155179467981e-10 1.1223873501962981e-10 1.4573883739186575e-10
          1.1639908991429799e-10 4.0098053584015644e-10 3.7762210172255966e-10 2.9609414689020667e-10 3.771950713663748e-10 1.0809570364367425e-9
          1.0190172449757122e-9 7.245218002994424e-10 6.811911472116e-10 8.567571011632844e-10 5.681752360576332e-10 2.7803471395743886e-9
          2.6066051326687543e-9 1.7895336774192935e-9 2.1515599365437918e-9 3.663372520961199e-10 6.492813748986916e-10 2.3704295420292005e-10
          4.2533755513761015e-10 2.6066069744404326e-10 4.504842302952124e-10 2.9047499110236606e-10 1.577219441507139e-9 1.0579766701966082e-9
          1.045253500002692e-9 2.488951549931884e-10 2.347838128879706e-10 4.691984499519498e-10 4.408174536516251e-10 1.4363316994503504e-10
          2.935351516678777e-10 2.7576043466614263e-10 1.975430767120013e-10 3.666281481620846e-10 2.2925817102468361e-10 1.2705334500340426e-9
          1.1850710288387722e-9 7.537567572382065e-10 9.63824366350404e-10 9.100511716437393e-11 8.608428802033693e-11 1.7769425614322036e-10
          1.6690872511398042e-10 5.054368149668079e-11 1.0392882575180873e-10 9.758820987687149e-11 7.31512829926004e-11 1.3877992693311069e-10
          8.120767800230076e-11 4.934261485665402e-10 4.594654692712093e-10 2.6816348780082947e-10 3.719182134649048e-10 1.5028746618261434e-10
          2.729544852166318e-10 9.349870711694238e-11 1.7056703836384493e-10 1.0510556313578003e-10 1.8496336379126796e-10 1.1527554048277578e-10
          6.904591700140746e-10 4.3561244842225427e-10 4.4452364375220387e-10 5.6911728641818035e-11 1.0320910578625257e-10 3.435241216880176e-11
          6.016780650409816e-11 4.090335104656372e-11 6.925575966538538e-11 4.578221860884146e-11 2.648748054191536e-10 1.5444484734440435e-10
          1.6883075814207056e-10 1.8021642069233213e-10 2.8910683592002307e-10 1.129992470659927e-10 1.832335668874456e-10 1.4872807179961908e-10
          2.1937121223511752e-10 1.3770228385387038e-10 6.356250053593804e-10 4.1033167417345873e-10 7.120694874629537e-11 1.1577264554931299e-10
          4.502772495544884e-11 7.225201385695545e-11 5.836402094500956e-11 8.670769497648473e-11 5.4556399091089555e-11 2.6190029761021073e-10
          1.6362944046221526e-10 1.6872539117480072e-10 2.7466755457661337e-11 4.286542442053505e-11 2.1489929953702914e-11 3.172518150399058e-11
          2.1811158996930388e-11 3.2200881301323596e-11 2.443940919251484e-11 9.864276506558106e-11 6.81674054314254e-11 6.355578876661868e-11
          6.63442322832592e-9 6.1965458609149526e-9 4.725109794944488e-9 4.396922501859309e-9 5.039205713123447e-9 3.536939123632139e-9
          9.582513636717306e-9 3.5805806753230747e-9 2.4697636927095733e-9 2.265548060739202e-9 1.5292627506642928e-9 5.27446515715057e-9
          3.2148903727154115e-9 2.9831464704547047e-9 2.0803566390649327e-9 1.926273280706357e-9 2.3802717110442854e-9 1.528592784696161e-9
          7.229318805135611e-9 6.7094137507531755e-9 4.429231622920405e-9 5.3216460101468625e-9 1.2779857087764003e-9 1.1820333708047578e-9
          7.460276116683039e-10 6.898194592274935e-10 9.35498564022561e-10 5.45780464757827e-10 2.987285323574747e-9 2.755778664458935e-9
          1.616457182201212e-9 2.1526932006695453e-9 1.6421575895301207e-9 1.0471942104600929e-9 1.0026612410426497e-9 6.345899222451534e-10
          3.586597115101708e-9 2.319093273989747e-9 2.0963452739655253e-9 6.393826214767909e-10 3.7350663609845216e-10 3.8685653640958935e-10
          2.264261032142679e-10 1.4241053203796014e-9 8.311598973752862e-10 8.182541345253239e-10 6.0648394934089895e-9 5.614523632406964e-9
          3.622266015522105e-9 3.3409639333073505e-9 4.392422396207587e-9 2.5926515377569827e-9 4.606804489474468e-9 2.8606321756326816e-9
          1.6765443666182465e-9 9.248640125670934e-10 1.3137201723936769e-9 8.666235673146239e-10 1.6915543980483457e-9 5.601180556725682e-10
          3.5200118767955464e-10 2.9242194822978987e-10 1.821495206020585e-10 1.1079578897348194e-9 7.00802317746047e-10 2.1431316127741954e-10
          1.25191497483847e-10 1.0993590319164784e-10 7.50367522785355e-11 4.2722158709542626e-10 2.5010262553833395e-10 1.0048054045489728e-10
          1.4476213944895605e-10 6.056895052625875e-11 8.856150549953307e-11 7.004795275910597e-11 9.476833686383833e-11 5.703927453939764e-11
          3.763061345340759e-11 5.3511400874265244e-11 3.044872932745165e-11 4.0757012368479906e-11 2.6677836069753314e-11 3.5913392842470247e-11
          2.9592643915536884e-11 6.533663991068353e-11 9.898682064547909e-10 3.099617933198684e-9 9.35672045695547e-10 9.698422921318226e-10
          2.429054982991672e-10 1.1356316059674834e-9 2.0267395696005718e-8 8.517500570705134e-9 7.650061867256066e-9 1.7752478928824867e-8
          5.365383057156598e-9 1.2421671175558601e-8 8.267165127940393e-10 8.423956736228222e-10 8.65315201555325e-10 3.1423144821906735e-9
          1.1237644675818418e-9 2.382056242352138e-9 9.183754087063694e-10 1.2467905387012982e-9 1.9121935311226208e-10 5.275873903287507e-10
          6.593333913227923e-10 2.4699006343109596e-10 2.6605952191423645e-10 7.263179382838209e-10 7.435586649177082e-11 1.0867759506106063e-10
          1.0170986485381507e-10 1.0075015624587801e-9 9.515411498023462e-10 1.2076926066622098e-9 6.102374357714539e-10 5.757846316638424e-10
          9.834344064569017e-10 1.5840778736959116e-9 1.5000342068865478e-9 1.2780539643146889e-9 3.922438472285381e-9 3.693076408927019e-9
          3.0889651580963616e-9 5.668701112920009e-10 9.87649036814347e-10 7.002715240990257e-10 2.3150983373091323e-9 1.5758638849641395e-9
          2.941390680211267e-10 4.6283736881747267e-10 3.6031237451339364e-10 9.874372136355765e-10 4.1901999996618074e-10 8.95209197551327e-9
          8.402378492092416e-9 6.936494540117982e-9 1.790761823518091e-8 1.3826546682157593e-8 1.2960733748341036e-8 1.6851939067393556e-8
          1.0566088517296299e-8 1.393560386761008e-8 5.053907195611315e-9 3.2979540337332404e-9 7.408053768123204e-9 1.0050144446944097e-8
          4.5322923508928565e-9 6.372945890955304e-9 2.4836144813178415e-8 1.895619986685856e-8 1.7843249347594382e-8 2.3450552233033758e-8
          1.457109082007755e-8 1.9359758055020357e-8 1.0024777285396248e-8 1.3618690475921879e-8 5.853226570211379e-9 8.210711507869891e-9
          1.3816932274598447e-8 1.293812627689614e-8 9.482081876296904e-9 8.820872620127888e-9 1.0404685836554301e-8 6.981939981586202e-9
          6.995646207430196e-9 3.981618405179651e-9 2.575503308583419e-9 1.5827237309795857e-9 1.974761015623333e-9 7.106669058953554e-10
          1.103961619011684e-9 4.5903397926123565e-10 2.5083098038811305e-9 3.6508520795321345e-9 1.300113202220083e-9 1.966467147015816e-9
          8.539709340641551e-10 1.6610855694355404e-10 2.543210285701584e-10 2.332820112214215e-10 3.622924277373396e-10 3.0305606979483714e-9
          4.396880063864689e-9 1.4621779238640707e-9 2.1903748614685255e-9 5.499480052975963e-10 3.44391390472689e-10 2.0881329184560045e-10
          1.5760204415003332e-10 2.5961636458022323e-10 4.098592812499748e-10 1.6131321299710073e-10 1.6197285638427436e-10 9.705476106835661e-11
          6.151408834895243e-11 2.012776214511673e-9 1.282780025268949e-9 9.510490858919465e-10 5.989954703164959e-10 7.83647543331393e-10
          3.644915483075364e-10
        </DataArray>
        <DataArray type="Float64" Name="gradient_matprop_error" format="ascii" RangeMin="0" RangeMax="0">
          0 0 0 0 0 0
          0 0 0 0 0 0
          0 0 0 0 0 0
          0 0 0 0 0 0
          0 0 0 0 0 0
          0 0 0 0 0 0
          0 0 0 0 0 0
          0 0 0 0 0 0
          0 0 0 0 0 0
          0 0 0 0 0 0
          0 0 0 0 0 0
          0 0 0 0 0 0
          0 0 0 0 0 0
          0 0 0 0 0 0
          0 0 0 0 0 0
          0 0 0 0 0 0
          0 0 0 0 0 0
          0 0 0 0 0 0
          0 0 0 0 0 0
          0 0 0 0 0 0
          0 0 0 0 0 0
          0 0 0 0 0 0
          0 0 0 0 0 0
          0 0 0 0 0 0
          0 0 0 0 0 0
          0 0 0 0 0 0
          0 0 0 0 0 0
          0 0 0 0 0 0
          0 0 0 0 0 0
          0 0 0 0 0 0
          0 0 0 0 0 0
          0 0 0 0 0 0
          0 0 0 0 0 0
          0 0 0 0 0 0
          0 0 0 0 0 0
          0 0 0 0 0 0
          0 0 0 0 0 0
          0 0 0 0 0 0
          0 0 0 0 0 0
          0 0 0 0 0 0
          0 0 0 0 0 0
          0 0 0 0 0 0
          0 0 0 0 0 0
          0 0 0 0 0 0
          0 0 0 0 0 0
          0 0 0 0 0 0
          0 0 0 0 0 0
          0 0 0 0 0 0
          0 0 0 0 0 0
          0 0 0 0 0 0
          0 0 0 0 0 0
          0 0 0 0 0 0
          0 0 0 0 0 0
          0 0 0 0 0 0
          0 0 0 0 0 0
          0 0 0 0 0 0
          0 0 0 0 0 0
          0 0 0 0 0 0
          0 0 0 0 0 0
          0 0 0 0 0 0
          0 0 0 0 0 0
          0 0 0 0 0 0
          0 0 0 0 0 0
          0 0 0 0 0 0
          0 0 0 0 0 0
          0 0 0 0 0 0
          0 0 0 0 0 0
          0 0 0 0 0 0
          0 0 0 0 0 0
          0 0 0 0 0 0
          0 0 0 0 0 0
          0
        </DataArray>
        <DataArray type="Float64" Name="initial_marker" format="ascii" RangeMin="0" RangeMax="2">
          0 0 0 0 2 0
          0 0 1 0.5 0 0.5
          0 0 0 0 0 0
          0 0 0 0 2 2
          1.5 0 2 1 0.3333333333333333 0
          0 0 0 0 1.5 1
          0 0.5 2 0 0 1
          1 0 0.5 0.25 0 0.25
          0 2 2 2 2 0
          0 0 0 0 1 0
          0 0 0 0 0 0
          0.5 0.25 0 2 2 2
          2 2 2 2 2 2
          1.5 0 0 0 0 0
          0 0 0 0 0 0
          0 0 0 0 0 0
          0 0 1 1 1 0
          0 1 1 0 1 1
          0 1 1 0 0 1
          0.75 0 1 0.5 0 0.5
          0 2 1.75 1.6666666666666667 1.6666666666666667 2
          2 2 2 2 2 2
          2 2 2 2 2 2
          2 1 1.5 1.5 2 2
          2 2 2 2 2 2
          2 2 2 2 2 2
          2 2 2 2 2 2
          2 1 1.5 1.5 1.5 1.75
          1.25 2 2 2 2 2
          2 1.5 1.75 1 1.5 1.25
          2 2 2 0.5 1.25 0
          1 0 0.75 0.6666666666666666 2 2
          1.75 0 1 0 0.75 0
          1 0.5 2 1.75 0 0.5
          0 0.5 0 0 0 1.5
          1.5 0.6666666666666666 0 0.25 0 0
          0 0 0 1.25 1 0.6666666666666666
          2 2 2 2 2 2
          2 2 2 2 2 2
          2 2 2 2 2 2
          2 2 2 2 2 2
          2 2 2 2 2 2
          2 2 2 2 2 2
          2 2 2 2 2 2
          2 2 2 2 2 2
          2 2 2 2 2 2
          2 2 2 2 2 2
          2 1.5 1.5 2 2 2
          1.75 1.25 1 2 2 0
          0.5 0 0.5 0 0 0
          0 0.25 0 0 0 0
          0 0.6666666666666666 0 0 0 0
          0 0 2 2 1.5 1.5
          1 1 1.5 0.75 0 0.25
          0 0 1.5 0 0 0
          0.5 0 0 0 0 0
          0 2 2 2 2 2
          2 2 2 2 2 2
          2 2 2 1.75 2 2
          0.5 1.25 1 2 2 2
          2 2 2 2 2 2
          2 2 2 2 2 2
          2 2 2 2 2 2
          2 2 2 2 2 2
          2 2 2 2 2 2
          2 2 2 2 2 2
          2 1.75 2 2 2 2
          2 0.5 1 0.75 1 2
          2 2 2 2 2 1.75
          0 1.25 1.5 1 0.5 0.75
          0 2 2 2 2 2
          2
        </DataArray>
        <DataArray type="Float64" Name="markers_norefine" format="ascii" RangeMin="0" RangeMax="0">
          0 0 0 0 0 0
          0 0 0 0 0 0
          0 0 0 0 0 0
          0 0 0 0 0 0
          0 0 0 0 0 0
          0 0 0 0 0 0
          0 0 0 0 0 0
          0 0 0 0 0 0
          0 0 0 0 0 0
          0 0 0 0 0 0
          0 0 0 0 0 0
          0 0 0 0 0 0
          0 0 0 0 0 0
          0 0 0 0 0 0
          0 0 0 0 0 0
          0 0 0 0 0 0
          0 0 0 0 0 0
          0 0 0 0 0 0
          0 0 0 0 0 0
          0 0 0 0 0 0
          0 0 0 0 0 0
          0 0 0 0 0 0
          0 0 0 0 0 0
          0 0 0 0 0 0
          0 0 0 0 0 0
          0 0 0 0 0 0
          0 0 0 0 0 0
          0 0 0 0 0 0
          0 0 0 0 0 0
          0 0 0 0 0 0
          0 0 0 0 0 0
          0 0 0 0 0 0
          0 0 0 0 0 0
          0 0 0 0 0 0
          0 0 0 0 0 0
          0 0 0 0 0 0
          0 0 0 0 0 0
          0 0 0 0 0 0
          0 0 0 0 0 0
          0 0 0 0 0 0
          0 0 0 0 0 0
          0 0 0 0 0 0
          0 0 0 0 0 0
          0 0 0 0 0 0
          0 0 0 0 0 0
          0 0 0 0 0 0
          0 0 0 0 0 0
          0 0 0 0 0 0
          0 0 0 0 0 0
          0 0 0 0 0 0
          0 0 0 0 0 0
          0 0 0 0 0 0
          0 0 0 0 0 0
          0 0 0 0 0 0
          0 0 0 0 0 0
          0 0 0 0 0 0
          0 0 0 0 0 0
          0 0 0 0 0 0
          0 0 0 0 0 0
          0 0 0 0 0 0
          0 0 0 0 0 0
          0 0 0 0 0 0
          0 0 0 0 0 0
          0 0 0 0 0 0
          0 0 0 0 0 0
          0 0 0 0 0 0
          0 0 0 0 0 0
          0 0 0 0 0 0
          0 0 0 0 0 0
          0 0 0 0 0 0
          0 0 0 0 0 0
          0
        </DataArray>
        <DataArray type="Float64" Name="markers_mustrefine" format="ascii" RangeMin="0" RangeMax="2">
          0 0 0 0 2 0
          0 0 1 0.5 0 0.5
          0 0 0 0 0 0
          0 0 0 0 2 2
          1.5 0 2 1 0.3333333333333333 0
          0 0 0 0 1.5 1
          0 0.5 2 0 0 1
          1 0 0.5 0.25 0 0.25
          0 2 2 2 2 0
          0 0 0 0 1 0
          0 0 0 0 0 0
          0.5 0.25 0 2 2 2
          2 2 2 2 2 2
          1.5 0 0 0 0 0
          0 0 0 0 0 0
          0 0 0 0 0 0
          0 0 1 1 1 0
          0 1 1 0 1 1
          0 1 1 0 0 1
          0.75 0 1 0.5 0 0.5
          0 2 1.75 1.6666666666666667 1.6666666666666667 2
          2 2 2 2 2 2
          2 2 2 2 2 2
          2 1 1.5 1.5 2 2
          2 2 2 2 2 2
          2 2 2 2 2 2
          2 2 2 2 2 2
          2 1 1.5 1.5 1.5 1.75
          1.25 2 2 2 2 2
          2 1.5 1.75 1 1.5 1.25
          2 2 2 0.5 1.25 0
          1 0 0.75 0.6666666666666666 2 2
          1.75 0 1 0 0.75 0
          1 0.5 2 1.75 0 0.5
          0 0.5 0 0 0 1.5
          1.5 0.6666666666666666 0 0.25 0 0
          0 0 0 1.25 1 0.6666666666666666
          2 2 2 2 2 2
          2 2 2 2 2 2
          2 2 2 2 2 2
          2 2 2 2 2 2
          2 2 2 2 2 2
          2 2 2 2 2 2
          2 2 2 2 2 2
          2 2 2 2 2 2
          2 2 2 2 2 2
          2 2 2 2 2 2
          2 1.5 1.5 2 2 2
          1.75 1.25 1 2 2 0
          0.5 0 0.5 0 0 0
          0 0.25 0 0 0 0
          0 0.6666666666666666 0 0 0 0
          0 0 2 2 1.5 1.5
          1 1 1.5 0.75 0 0.25
          0 0 1.5 0 0 0
          0.5 0 0 0 0 0
          0 2 2 2 2 2
          2 2 2 2 2 2
          2 2 2 1.75 2 2
          0.5 1.25 1 2 2 2
          2 2 2 2 2 2
          2 2 2 2 2 2
          2 2 2 2 2 2
          2 2 2 2 2 2
          2 2 2 2 2 2
          2 2 2 2 2 2
          2 1.75 2 2 2 2
          2 0.5 1 0.75 1 2
          2 2 2 2 2 1.75
          0 1.25 1.5 1 0.5 0.75
          0 2 2 2 2 2
          2
        </DataArray>
        <DataArray type="Float64" Name="gradient_marker" format="ascii" RangeMin="0" RangeMax="1">
          0.75 0.75 1 1 1 1
          0 0 0.25 0.25 0.6666666666666666 0.5
          0.5 1 1 1 1 1
          1 1 1 1 1 1
          1 1 0 0 0.6666666666666666 0
          0.5 1 1 1 1 1
          1 1 1 1 1 1
          1 1 1 1 1 1
          1 1 1 1 1 1
          1 1 1 1 1 1
          1 1 1 1 1 1
          1 1 1 1 1 1
          1 1 1 1 1 1
          1 1 1 1 1 1
          1 1 1 1 1 1
          1 1 1 1 1 1
          1 1 1 1 1 1
          1 1 1 1 1 1
          1 1 1 1 1 1
          1 1 1 1 1 1
          1 1 1 1 1 1
          1 1 1 1 1 1
          1 1 1 1 1 1
          1 1 1 1 1 1
          1 1 1 1 1 1
          1 1 1 1 1 1
          1 1 1 1 1 1
          1 1 1 1 1 1
          1 1 1 1 1 1
          1 1 1 1 1 1
          1 1 1 1 1 1
          1 1 1 1 1 1
          1 1 1 1 1 1
          1 1 1 1 1 1
          1 1 1 1 1 1
          1 1 1 1 1 1
          1 1 1 1 1 1
          1 1 1 1 1 1
          1 1 1 1 1 1
          1 1 1 1 1 1
          1 1 1 1 1 1
          1 1 1 1 1 1
          1 1 1 1 1 1
          1 1 1 1 1 1
          1 1 1 1 1 1
          1 1 1 1 1 1
          1 1 1 1 1 1
          1 1 1 1 1 1
          1 1 1 1 1 1
          1 1 1 1 1 1
          1 1 1 1 1 1
          1 1 1 0.5 1 1
          1 1 0 0.5 0.5 0
          0.5 0 1 1 1 0.5
          1 0.5 1 1 1 1
          1 1 1 1 1 1
          1 1 1 1 1 1
          1 1 1 1 1 1
          1 1 1 1 1 1
          1 1 1 1 1 1
          1 1 1 1 1 1
          1 1 1 1 1 1
          1 1 1 1 1 1
          1 1 1 1 1 1
          1 1 1 1 1 1
          1 1 1 1 1 1
          1 1 1 1 1 1
          1 1 1 1 1 1
          1 1 1 1 1 1
          1 1 1 1 1 1
          1 1 1 1 1 1
          1
        </DataArray>
        <DataArray type="Float64" Name="gradient_matprop_marker" format="ascii" RangeMin="0" RangeMax="0">
          0 0 0 0 0 0
          0 0 0 0 0 0
          0 0 0 0 0 0
          0 0 0 0 0 0
          0 0 0 0 0 0
          0 0 0 0 0 0
          0 0 0 0 0 0
          0 0 0 0 0 0
          0 0 0 0 0 0
          0 0 0 0 0 0
          0 0 0 0 0 0
          0 0 0 0 0 0
          0 0 0 0 0 0
          0 0 0 0 0 0
          0 0 0 0 0 0
          0 0 0 0 0 0
          0 0 0 0 0 0
          0 0 0 0 0 0
          0 0 0 0 0 0
          0 0 0 0 0 0
          0 0 0 0 0 0
          0 0 0 0 0 0
          0 0 0 0 0 0
          0 0 0 0 0 0
          0 0 0 0 0 0
          0 0 0 0 0 0
          0 0 0 0 0 0
          0 0 0 0 0 0
          0 0 0 0 0 0
          0 0 0 0 0 0
          0 0 0 0 0 0
          0 0 0 0 0 0
          0 0 0 0 0 0
          0 0 0 0 0 0
          0 0 0 0 0 0
          0 0 0 0 0 0
          0 0 0 0 0 0
          0 0 0 0 0 0
          0 0 0 0 0 0
          0 0 0 0 0 0
          0 0 0 0 0 0
          0 0 0 0 0 0
          0 0 0 0 0 0
          0 0 0 0 0 0
          0 0 0 0 0 0
          0 0 0 0 0 0
          0 0 0 0 0 0
          0 0 0 0 0 0
          0 0 0 0 0 0
          0 0 0 0 0 0
          0 0 0 0 0 0
          0 0 0 0 0 0
          0 0 0 0 0 0
          0 0 0 0 0 0
          0 0 0 0 0 0
          0 0 0 0 0 0
          0 0 0 0 0 0
          0 0 0 0 0 0
          0 0 0 0 0 0
          0 0 0 0 0 0
          0 0 0 0 0 0
          0 0 0 0 0 0
          0 0 0 0 0 0
          0 0 0 0 0 0
          0 0 0 0 0 0
          0 0 0 0 0 0
          0 0 0 0 0 0
          0 0 0 0 0 0
          0 0 0 0 0 0
          0 0 0 0 0 0
          0 0 0 0 0 0
          0
        </DataArray>
        <DataArray type="Float64" Name="combo" format="ascii" RangeMin="0" RangeMax="1">
          0.75 0.75 1 1 1 1
          0 0 0.25 0.25 0.6666666666666666 0.5
          0.5 1 1 1 1 1
          1 1 1 1 1 1
          1 1 0 0 0.6666666666666666 0
          0.5 1 1 1 1 1
          1 1 1 1 1 1
          1 1 1 1 1 1
          1 1 1 1 1 1
          1 1 1 1 1 1
          1 1 1 1 1 1
          1 1 1 1 1 1
          1 1 1 1 1 1
          1 1 1 1 1 1
          1 1 1 1 1 1
          1 1 1 1 1 1
          1 1 1 1 1 1
          1 1 1 1 1 1
          1 1 1 1 1 1
          1 1 1 1 1 1
          1 1 1 1 1 1
          1 1 1 1 1 1
          1 1 1 1 1 1
          1 1 1 1 1 1
          1 1 1 1 1 1
          1 1 1 1 1 1
          1 1 1 1 1 1
          1 1 1 1 1 1
          1 1 1 1 1 1
          1 1 1 1 1 1
          1 1 1 1 1 1
          1 1 1 1 1 1
          1 1 1 1 1 1
          1 1 1 1 1 1
          1 1 1 1 1 1
          1 1 1 1 1 1
          1 1 1 1 1 1
          1 1 1 1 1 1
          1 1 1 1 1 1
          1 1 1 1 1 1
          1 1 1 1 1 1
          1 1 1 1 1 1
          1 1 1 1 1 1
          1 1 1 1 1 1
          1 1 1 1 1 1
          1 1 1 1 1 1
          1 1 1 1 1 1
          1 1 1 1 1 1
          1 1 1 1 1 1
          1 1 1 1 1 1
          1 1 1 1 1 1
          1 1 1 0.5 1 1
          1 1 0 0.5 0.5 0
          0.5 0 1 1 1 0.5
          1 0.5 1 1 1 1
          1 1 1 1 1 1
          1 1 1 1 1 1
          1 1 1 1 1 1
          1 1 1 1 1 1
          1 1 1 1 1 1
          1 1 1 1 1 1
          1 1 1 1 1 1
          1 1 1 1 1 1
          1 1 1 1 1 1
          1 1 1 1 1 1
          1 1 1 1 1 1
          1 1 1 1 1 1
          1 1 1 1 1 1
          1 1 1 1 1 1
          1 1 1 1 1 1
          1 1 1 1 1 1
          1
        </DataArray>
        <DataArray type="Float64" Name="dHdT" format="ascii" RangeMin="25.811583866823074" RangeMax="32.33553660142534">
          25.81570149477628 25.815903387363594 25.812152454241797 25.81206739226912 25.85823767091792 25.81504192653755
          25.821108691449965 25.829313374521423 26.220351731985918 26.106054422208743 25.81777392674699 25.87423080608419
          25.85721037433011 25.81281431152268 25.813285890140506 25.820874346737384 25.82173235377397 25.812319626053533
          25.814111795277455 25.813384130188386 25.81379283795616 25.813121261381287 26.145050161715147 25.929280556588466
          25.82715258017599 25.812884765883656 26.06859086917093 26.0422408618627 25.88600708863011 25.984468969846006
          25.86392967663709 25.833592130617998 25.837370681793825 25.825072336503066 25.856029487287877 25.84936102601308
          25.84097467288817 25.836034479318265 26.06245784411737 25.820958449647637 25.820035006381637 25.829646132633677
          25.826710340482297 25.815050094124818 25.818386859331504 25.81725081720091 25.81797809779996 25.82111123240931
          25.815214267965132 25.94686278647052 25.912022777704813 25.846317287092578 25.857424696799484 25.836701220549287
          25.822819446473268 25.827948408107474 25.831893325529364 25.827394300180224 25.85525740938159 25.81632319061185
          25.81802953629919 25.813556182975887 25.814231723883942 25.815801748739425 25.817924566812078 25.814122782132777
          25.82812266628884 25.817388963832773 25.821257419434207 27.835131693058848 27.2000693171045 26.341045154323076
          26.67200860133613 26.401318161274027 26.113716657328872 26.017633760225166 26.028056153118552 25.88662373635657
          25.83110468131671 25.81171576998314 25.81162563397436 25.811653233873066 25.811583866823074 25.81839728854738
          25.825916389595676 25.824949717402163 25.82398304520865 25.816507278071597 25.81637402249057 25.821342450394948
          25.820914715093036 25.814350756433754 25.81676851119422 25.816879712783912 25.81624076690954 25.820486979791127
          25.816990914373605 25.87364485495273 25.90811523229172 25.905543196705167 25.902971161118614 25.861387584968156