<?xml version="1.0"?>
<VTKFile type="UnstructuredGrid" version="0.1" byte_order="LittleEndian" header_type="UInt32" compressor="vtkZLibDataCompressor">
  <UnstructuredGrid>
    <Piece NumberOfPoints="419" NumberOfCells="246">
      <PointData>
        <DataArray type="Int32" Name="libmesh_node_id" format="ascii" RangeMin="381" RangeMax="3742">
          391 850 856 864 870 1539
          1540 1541 1542 1549 1550 1551
          1571 1599 1600 1605 1621 1622
          1623 1624 1627 1628 1629 1665
          1666 1667 1668 1671 1672 1673
          2870 2871 2872 2873 2874 2875
          2876 2877 2878 2879 2880 2881
          2882 2883 2884 2885 2886 2887
          2888 2889 2890 2891 2892 2893
          2894 2895 2896 2897 2898 2899
          2900 2901 2902 2903 2904 2905
          2906 3026 3027 3028 3029 3035
          3041 3042 3246 3247 3248 3249
          3250 3251 3252 3253 3254 3255
          3257 3261 3263 3264 3267 3268
          3280 3281 3282 3283 3284 3285
          3286 3287 3288 3289 3291 3295
          3297 3298 3301 3302 3416 3417
          3418 3419 3420 3421 3422 3423
          3424 3425 3426 3427 3428 3429
          3430 3431 3432 3433 3434 3435
          3436 3437 3440 3441 3443 3444
          3445 3446 3450 3451 3453 3454
          3455 3456 3457 3458 3459 3460
          3461 3462 3463 3464 3465 3466
          3467 3468 3469 3470 3471 3472
          3473 3474 3477 3478 3480 3484
          3487 3488 3489 3490 3491 3492
          3493 3494 3495 3496 3497 3498
          3500 3501 3502 3503 3504 3505
          3506 3507 3508 3616 3617 3618
          3619 3620 3621 3622 3623 3624
          3625 3626 3627 3628 3629 3630
          3631 3632 3633 3634 3635 3636
          3637 3640 3641 3650 3651 3652
          3653 3654 3655 3656 3657 3658
          3659 3660 3661 3662 3663 3664
          3665 3666 3667 3668 3669 3670
          3671 3674 3675 381 840 841
          830 831 842 843 832 1509
          1510 1511 1543 1544 1545 1546
          1547 1514 1548 851 1552 1868
          1869 1631 1632 1874 1638 2800
          2801 2802 2805 383 2808 1517
          2822 2823 2826 2828 2907 838
          3012 3020 3021 3013 1569 3018
          3022 3023 3024 3015 1570 3025
          3014 3031 3030 3019 3034 3033
          3032 1572 3036 3037 3038 3039
          3043 3040 857 3238 3239 3241
          1597 3244 1598 3240 3256 3259
          3258 3245 3260 1601 3262 3265
          3266 3269 1602 3272 3273 3275
          1603 3278 1604 3274 3290 3293
          3292 3279 3294 1606 3296 3299
          3300 3303 862 2988 2989 2991
          1565 2994 1566 3004 3438 3006
          3439 3008 3442 1568 1625 3447
          3448 3449 3452 1626 3475 3476
          3479 1630 3481 3482 3483 3485
          3486 865 1633 3499 1634 3509
          3510 1639 3511 3512 3513 3514
          3515 3516 3517 3518 3520 3535
          3536 3537 3538 3539 3638 3639
          3642 1669 3643 3644 3645 3646
          3647 3648 3649 3672 3673 3676
          1674 3677 3678 3679 3681 3682
          3683 3684 3685 3688 3690 3691
          3693 3704 3708 3718 3719 3722
          3724 3725 3727 3738 3742
        </DataArray>
        <DataArray type="Float64" Name="bounds" format="ascii" RangeMin="0" RangeMax="0">
          0 0 0 0 0 0
          0 0 0 0 0 0
          0 0 0 0 0 0
          0 0 0 0 0 0
          0 0 0 0 0 0
          0 0 0 0 0 0
          0 0 0 0 0 0
          0 0 0 0 0 0
          0 0 0 0 0 0
          0 0 0 0 0 0
          0 0 0 0 0 0
          0 0 0 0 0 0
          0 0 0 0 0 0
          0 0 0 0 0 0
          0 0 0 0 0 0
          0 0 0 0 0 0
          0 0 0 0 0 0
          0 0 0 0 0 0
          0 0 0 0 0 0
          0 0 0 0 0 0
          0 0 0 0 0 0
          0 0 0 0 0 0
          0 0 0 0 0 0
          0 0 0 0 0 0
          0 0 0 0 0 0
          0 0 0 0 0 0
          0 0 0 0 0 0
          0 0 0 0 0 0
          0 0 0 0 0 0
          0 0 0 0 0 0
          0 0 0 0 0 0
          0 0 0 0 0 0
          0 0 0 0 0 0
          0 0 0 0 0 0
          0 0 0 0 0 0
          0 0 0 0 0 0
          0 0 0 0 0 0
          0 0 0 0 0 0
          0 0 0 0 0 0
          0 0 0 0 0 0
          0 0 0 0 0 0
          0 0 0 0 0 0
          0 0 0 0 0 0
          0 0 0 0 0 0
          0 0 0 0 0 0
          0 0 0 0 0 0
          0 0 0 0 0 0
          0 0 0 0 0 0
          0 0 0 0 0 0
          0 0 0 0 0 0
          0 0 0 0 0 0
          0 0 0 0 0 0
          0 0 0 0 0 0
          0 0 0 0 0 0
          0 0 0 0 0 0
          0 0 0 0 0 0
          0 0 0 0 0 0
          0 0 0 0 0 0
          0 0 0 0 0 0
          0 0 0 0 0 0
          0 0 0 0 0 0
          0 0 0 0 0 0
          0 0 0 0 0 0
          0 0 0 0 0 0
          0 0 0 0 0 0
          0 0 0 0 0 0
          0 0 0 0 0 0
          0 0 0 0 0 0
          0 0 0 0 0 0
          0 0 0 0 0
        </DataArray>
        <DataArray type="Float64" Name="gradient_error" format="ascii" RangeMin="5.5036435075027335e-12" RangeMax="3.945026033042475e-8">
          1.452131853818831e-8 2.784024614792444e-11 6.40000366469555e-9 4.465853768109199e-10 1.2270739694443996e-9 4.53815995929236e-11
          3.836809366727155e-11 3.1150370180283766e-11 3.6061579726924354e-11 8.614962779868113e-11 7.249438864927876e-11 3.0754578784261464e-11
          4.664567588283226e-9 1.2359097822398264e-8 9.822493276649676e-9 1.2330478113911742e-8 5.113410434142553e-10 3.672924025755295e-10
          1.2133593408424567e-10 8.83634363875725e-11 1.9259893004243685e-9 1.3706459134636199e-9 3.1763410405962236e-10 4.054171703677203e-9
          3.0080018996615063e-9 9.63223531908149e-10 6.951443917904786e-10 5.05035932608528e-9 3.873899476204216e-9 9.002422061363757e-10
          3.033643797610595e-11 2.9126723943889815e-11 5.856908879832484e-11 5.496063422117219e-11 1.6941003806859615e-11 3.188404089707885e-11
          2.978936678685956e-11 2.552734963452704e-11 4.5608768288536674e-11 2.7777332008679995e-11 1.6085114406589642e-10 1.4989544628110409e-10
          7.994406707849322e-11 1.2152909006877407e-10 9.30376379013027e-12 9.809419177814381e-12 1.6491662048372536e-11 1.564044525097575e-11
          7.219603012086628e-12 1.0908194907672924e-11 1.0787874188815794e-11 1.0315074565498494e-11 1.478922845357897e-11 1.0667553469958665e-11
          4.428654081550977e-11 4.088368558154507e-11 2.459673123352043e-11 3.8829264561727554e-11 2.0877135822446616e-11 3.3780137516191896e-11
          1.6125301212356707e-11 2.412901224870631e-11 1.8616582287512834e-11 2.7694918099329986e-11 2.031541382465319e-11 8.622649866486894e-11
          5.594065775667864e-11 1.0435449039475439e-8 9.764441361279347e-9 5.947255608487137e-9 7.775447126071706e-9 8.04679230155676e-9
          5.0752279927297084e-9 3.000965441560965e-9 1.509781083311885e-8 1.4394843421748597e-8 9.607692557741505e-9 9.049501187372224e-9
          1.185521626906438e-8 7.264237821097127e-9 1.8716735080104352e-8 1.8274285339341443e-8 1.185686890190379e-8 1.5691952021431972e-8
          1.2265391080744595e-8 1.6386095262575455e-8 7.876256183989371e-9 4.7125878986965055e-9 1.069325036320825e-8 6.476365521826972e-9
          2.0690946416432323e-8 2.06361910601729e-8 1.4009493159336516e-8 1.3677893811556282e-8 1.8355973831689998e-8 1.1665938640521562e-8
          2.1261757115153038e-8 2.1394974463772203e-8 1.4283499160397821e-8 1.929860956956642e-8 1.9387699760811192e-8 2.0486627879503023e-8
          1.2781219503486187e-8 7.814004236776959e-9 1.3549570488627323e-8 8.313398061004464e-9 4.142190394179003e-10 3.833730462345427e-10
          2.1926720844205486e-10 2.0319821316249516e-10 3.0420046612639024e-10 1.6184918243133588e-10 9.735219974315657e-10 8.96100197828115e-10
          4.707948687215283e-10 6.975505304574894e-10 1.1112507453858784e-10 1.0294227508857509e-10 5.378459192870045e-11 4.984153590691593e-11
          8.20860248312882e-11 3.992842552389471e-11 2.5510954918035844e-10 2.3516039658237076e-10 1.1205394367242966e-10 1.8428666875155134e-10
          2.0892191990409106e-10 1.1179957296889419e-10 4.61740657859077e-10 2.447209920596746e-10 3.4799040957107145e-11 5.7193742761498995e-11
          1.7454178249034246e-11 2.8024557207084425e-11 1.2410966040625958e-10 6.010977525771216e-11 2.0243821138592662e-9 1.8627979372456484e-9
          1.0630965233063914e-9 9.771861370247872e-10 1.439465086063266e-9 7.545745821716479e-10 3.6381957147792964e-9 3.363909277196287e-9
          1.7750490104572581e-9 2.6115846548726423e-9 5.269686037461882e-10 4.844142199157045e-10 2.4780120651555846e-10 2.2803206778934896e-10
          3.7495663311636837e-10 1.7740570400390014e-10 9.552564224894894e-10 8.78952332114597e-10 4.1080645608302176e-10 6.779097102702729e-10
          9.296664485847981e-10 4.892754228738472e-10 1.6680108454646837e-9 8.750131896811592e-10 2.45297231688182e-10 4.351004925365341e-10
          1.5038848690506967e-11 1.4005057468299174e-11 2.463071234249914e-11 2.2907941901344274e-11 9.116303539577786e-12 1.5123214116804797e-11
          1.4126374946927651e-11 1.140970545630738e-11 1.8517813858045512e-11 1.1474782891834579e-11 5.5253459627006365e-11 5.114203745066275e-11
          4.063335124065271e-11 8.392147512557434e-12 1.308333355237993e-11 5.5036435075027335e-12 8.293331436195517e-12 6.936150358591485e-12
          1.0316210848858243e-11 6.766632865772386e-12 2.7879448328787187e-11 5.594555137954e-9 5.224000068913123e-9 3.006556218981561e-9
          2.7900891527930357e-9 4.120057999171006e-9 2.1752602442064546e-9 7.406457141948473e-9 7.007395947190214e-9 3.798660258373271e-9
          5.6510866648098135e-9 1.5020732934375e-9 1.388379671665618e-9 7.028751827611942e-10 6.483100851683275e-10 1.0759383870036896e-9
          5.01779980895749e-10 2.0478926067426383e-9 1.90595492577492e-9 8.926683022517892e-10 1.4922770918205193e-9 2.6347845639095367e-9
          1.3826803436602598e-9 3.64649396155784e-9 1.9182907754271303e-9 8.615157606113275e-9 8.25025201520424e-9 4.790486917113884e-9
          4.528668652843947e-9 6.78935167030191e-9 3.638922754528496e-9 9.025377537858962e-9 8.687038942702125e-9 4.792025632154287e-9
          7.2083387498502526e-9 2.444305449689889e-9 2.2896797547480054e-9 1.156275501231199e-9 1.0765437796050349e-9 1.8112598021496043e-9
          8.441275285725247e-10 2.5875341646749527e-9 2.430400634053078e-9 1.144680508757265e-9 1.930922546845453e-9 4.423982510368334e-9
          2.3333035179718385e-9 4.716450097650516e-9 2.4902231756212605e-9 1.3911612859921744e-10 5.5686238143727734e-11 5.16123536484643e-11
          1.5639847045513202e-10 1.7484479006306236e-10 3.47124368573368e-11 3.5417743124608285e-11 1.4440301822861743e-10 1.1415357377470753e-10
          9.295593465974398e-11 7.868380118493137e-11 1.2224677622436351e-11 1.6578328536504857e-11 2.4142468559785025e-11 2.467025132058254e-11
          4.4692274753958246e-11 6.282803121285119e-11 2.936981684294505e-11 3.361230112996817e-11 5.515882799413604e-11 1.2093815361321153e-11
          1.091167753622666e-11 2.137931727764706e-11 1.7736759864527447e-11 9.729539711132164e-12 1.801411368139109e-11 5.054368149668079e-11
          1.0392882575180873e-10 9.758820987687149e-11 8.120767800230076e-11 2.8795303765122936e-10 2.6816348780082947e-10 2.1713945409936336e-10
          3.435241216880176e-11 6.016780650409816e-11 4.578221860884146e-11 1.5444484734440435e-10 6.486437811293946e-11 1.094546558730006e-10
          9.482081876296904e-9 6.0648394934089895e-9 5.614523632406964e-9 8.820872620127888e-9 1.5716681652050944e-8 1.4838937281147706e-8
          3.622266015522105e-9 3.3409639333073505e-9 4.392422396207587e-9 6.981939981586202e-9 1.20612323039792e-8 2.5926515377569827e-9
          1.0404685836554301e-8 4.606804489474468e-9 6.995646207430196e-9 1.746664375977161e-8 1.1954173861938955e-8 2.575503308583419e-9
          3.981618405179651e-9 4.433130310028688e-9 6.758156230024064e-9 2.8606321756326816e-9 1.6765443666182465e-9 1.5827237309795857e-9
          2.747482717139233e-9 9.248640125670934e-10 1.6104898797278102e-9 2.2023769821492355e-8 2.121464942482457e-8 1.7916699441234644e-8
          2.6959216686305017e-8 2.6585910336903002e-8 2.3342658878953347e-8 2.5502820556646365e-8 1.786385250355123e-8 6.7631939943860515e-9
          1.0160377206731936e-8 3.2857645351684756e-8 2.3603961729164913e-8 9.11848484581093e-9 1.3526483567508736e-8 4.232824203823432e-9
          2.493882716003547e-9 5.760284786833303e-9 3.412880752257254e-9 2.9633358033958305e-8 2.993403511694212e-8 2.7163108151015795e-8
          3.032750684288056e-8 3.0983876588170475e-8 2.85239739630901e-8 3.777925493911497e-8 2.7830343334976793e-8 1.0884277518304833e-8
          1.6017477836741934e-8 3.945026033042475e-8 2.938923702278803e-8 1.153986167492568e-8 1.6938073113338034e-8 6.923075569300933e-9
          4.1190804387504516e-9 7.3588634560314265e-9 4.385103367296042e-9 7.460276116683039e-10 6.898194592274935e-10 5.45780464757827e-10
          1.755008540467141e-9 1.616457182201212e-9 1.2587697518500853e-9 3.7350663609845216e-10 1.2691052202828387e-10 2.264261032142679e-10
          6.834663194497e-11 8.311598973752862e-10 2.6704132050921577e-10 4.778216761271589e-10 1.4293975625829765e-10 2.2381821626938134e-11
          3.5344635483011385e-11 2.04459053094071e-11 7.343838104886161e-11 3.969924460282089e-11 5.148337100354529e-10 2.736276483184094e-10
          8.950412263430092e-10 4.730203103517174e-10 1.1752532913559676e-10 1.3926462744519533e-10 6.782986604736664e-11 2.0601719476510955e-10
          2.383932902436752e-10 1.1498590239874158e-10 3.081066959447191e-11 2.6710340081613717e-11 2.3505930735946127e-11 1.4895252971699658e-11
          1.962463929772643e-11 1.8799171347257044e-11 1.1123447307384492e-10 1.02555503150766e-10 4.755866155446504e-11 4.395593819753605e-11
          8.034805498914825e-11 3.474263053836195e-11 1.9790225217279983e-10 1.822213082757097e-10 1.4165948912161984e-10 5.404004627945794e-11
          2.369472500258656e-11 3.165316279295216e-11 1.6779498864968168e-11 9.337513360195808e-11 1.3868390730663504e-9 7.306478776755343e-10
          1.901597061949352e-9 1.0006000591507726e-9 6.847492881163265e-10 3.2173001570870033e-10 3.660222986710255e-10 1.7503267543467637e-10
          9.487128288449032e-10 4.4376791635230364e-10 4.993514320611774e-10 2.2996453649121807e-9 1.2097540290636223e-9 2.4501881822675456e-9
          1.288964209107836e-9 1.1539666841673707e-9 5.386821424373984e-10 6.025807860214834e-10 1.2317688889342553e-9 5.746801379782749e-10
          6.416766669070644e-10 3.1028296474760524e-10 2.860492711501469e-10 2.2199554499453592e-10 4.2538953036321314e-10 3.933695250416042e-10
          3.0617780639325175e-10 1.4419441782532512e-10 1.9743732287739258e-10 5.118333736126871e-10 4.748185476410331e-10 3.711403590681598e-10
          5.438337145367273e-10 5.05191728682328e-10 3.9565254685242304e-10 2.3881445375027104e-10 2.5448854568603496e-10
        </DataArray>
        <DataArray type="Float64" Name="gradient_matprop_error" format="ascii" RangeMin="0" RangeMax="0">
          0 0 0 0 0 0
          0 0 0 0 0 0
          0 0 0 0 0 0
          0 0 0 0 0 0
          0 0 0 0 0 0
          0 0 0 0 0 0
          0 0 0 0 0 0
          0 0 0 0 0 0
          0 0 0 0 0 0
          0 0 0 0 0 0
          0 0 0 0 0 0
          0 0 0 0 0 0
          0 0 0 0 0 0
          0 0 0 0 0 0
          0 0 0 0 0 0
          0 0 0 0 0 0
          0 0 0 0 0 0
          0 0 0 0 0 0
          0 0 0 0 0 0
          0 0 0 0 0 0
          0 0 0 0 0 0
          0 0 0 0 0 0
          0 0 0 0 0 0
          0 0 0 0 0 0
          0 0 0 0 0 0
          0 0 0 0 0 0
          0 0 0 0 0 0
          0 0 0 0 0 0
          0 0 0 0 0 0
          0 0 0 0 0 0
          0 0 0 0 0 0
          0 0 0 0 0 0
          0 0 0 0 0 0
          0 0 0 0 0 0
          0 0 0 0 0 0
          0 0 0 0 0 0
          0 0 0 0 0 0
          0 0 0 0 0 0
          0 0 0 0 0 0
          0 0 0 0 0 0
          0 0 0 0 0 0
          0 0 0 0 0 0
          0 0 0 0 0 0
          0 0 0 0 0 0
          0 0 0 0 0 0
          0 0 0 0 0 0
          0 0 0 0 0 0
          0 0 0 0 0 0
          0 0 0 0 0 0
          0 0 0 0 0 0
          0 0 0 0 0 0
          0 0 0 0 0 0
          0 0 0 0 0 0
          0 0 0 0 0 0
          0 0 0 0 0 0
          0 0 0 0 0 0
          0 0 0 0 0 0
          0 0 0 0 0 0
          0 0 0 0 0 0
          0 0 0 0 0 0
          0 0 0 0 0 0
          0 0 0 0 0 0
          0 0 0 0 0 0
          0 0 0 0 0 0
          0 0 0 0 0 0
          0 0 0 0 0 0
          0 0 0 0 0 0
          0 0 0 0 0 0
          0 0 0 0 0 0
          0 0 0 0 0
        </DataArray>
        <DataArray type="Float64" Name="initial_marker" format="ascii" RangeMin="0" RangeMax="2">
          2 1 2 2 2 0
          0 0 0 2 1.75 0.75
          2 2 2 2 2 2
          2 2 2 2 2 2
          2 2 2 2 2 2
          0 0 1 1 0 1
          1 0 1 1 2 2
          2 2 0 0 0.5 0.5
          0 0 0 0 0.5 0
          1.5 1.5 1.3333333333333333 1.6666666666666667 0 0.75
          0 0.5 0 0.5 0 1.75
          1.6666666666666667 2 2 2 2 2
          2 2 2 2 2 2
          2 2 2 2 2 2
          2 2 2 2 2 2
          2 2 2 2 2 2
          2 2 2 2 2 2
          2 2 2 2 2 2
          2 2 2 2 2 2
          2 2 2 2 2 2
          2 1.75 2 2 2 2
          2 2 2 2 1.5 1.75
          0.5 1.25 2 2 2 2
          2 2 2 2 2 2
          2 2 2 2 2 2
          2 2 2 2 2 2
          2 2 2 2 2 2
          1 1 1.5 1.5 0 1
          1 0.5 1.25 1 2 2
          2 0 0.75 0 0.5 0
          0.5 0 1.75 2 2 2
          2 2 2 2 2 2
          2 2 2 2 2 2
          2 2 2 2 2 2
          2 2 2 2 2 2
          2 2 2 2 2 2
          2 2 2 2 2 2
          2 2 2 2 2 2
          2 2 2 0 0 0
          0 0 0 0 0 0
          0.5 0.25 0 0 0 0
          0 0 0 0 0.75 0
          0 0 0 0 0 1
          1.5 1.5 1.25 2 2 2
          0 1 0.6666666666666666 2 1.6666666666666667 1.5
          2 2 2 2 2 2
          2 2 2 2 2 2
          2 2 2 2 2 2
          2 2 2 2 2 2
          2 2 2 2 2 2
          2 2 2 2 2 2
          2 2 2 2 2 2
          2 2 2 2 2 2
          2 2 2 2 2 2
          2 2 2 2 2 2
          2 2 2 2 2 2
          2 2 2 2 2 2
          1.75 2 2 2 2 0.5
          1.25 1 2 1.75 2 2
          2 2 2 2 2 2
          2 2 1.5 2 1.5 1.3333333333333333
          1.3333333333333333 0.25 2 2 2 2
          2 2 2 2 2 2
          1.75 1.75 1.3333333333333333 2 2 2
          2 2 2 2 2 2
          2 2 2 2 2 2
          2 2 2 2 2 2
          2 2 2 2 2 2
          2 2 2 2 2 2
          2 2 2 2 2
        </DataArray>
        <DataArray type="Float64" Name="markers_norefine" format="ascii" RangeMin="0" RangeMax="0">
          0 0 0 0 0 0
          0 0 0 0 0 0
          0 0 0 0 0 0
          0 0 0 0 0 0
          0 0 0 0 0 0
          0 0 0 0 0 0
          0 0 0 0 0 0
          0 0 0 0 0 0
          0 0 0 0 0 0
          0 0 0 0 0 0
          0 0 0 0 0 0
          0 0 0 0 0 0
          0 0 0 0 0 0
          0 0 0 0 0 0
          0 0 0 0 0 0
          0 0 0 0 0 0
          0 0 0 0 0 0
          0 0 0 0 0 0
          0 0 0 0 0 0
          0 0 0 0 0 0
          0 0 0 0 0 0
          0 0 0 0 0 0
          0 0 0 0 0 0
          0 0 0 0 0 0
          0 0 0 0 0 0
          0 0 0 0 0 0
          0 0 0 0 0 0
          0 0 0 0 0 0
          0 0 0 0 0 0
          0 0 0 0 0 0
          0 0 0 0 0 0
          0 0 0 0 0 0
          0 0 0 0 0 0
          0 0 0 0 0 0
          0 0 0 0 0 0
          0 0 0 0 0 0
          0 0 0 0 0 0
          0 0 0 0 0 0
          0 0 0 0 0 0
          0 0 0 0 0 0
          0 0 0 0 0 0
          0 0 0 0 0 0
          0 0 0 0 0 0
          0 0 0 0 0 0
          0 0 0 0 0 0
          0 0 0 0 0 0
          0 0 0 0 0 0
          0 0 0 0 0 0
          0 0 0 0 0 0
          0 0 0 0 0 0
          0 0 0 0 0 0
          0 0 0 0 0 0
          0 0 0 0 0 0
          0 0 0 0 0 0
          0 0 0 0 0 0
          0 0 0 0 0 0
          0 0 0 0 0 0
          0 0 0 0 0 0
          0 0 0 0 0 0
          0 0 0 0 0 0
          0 0 0 0 0 0
          0 0 0 0 0 0
          0 0 0 0 0 0
          0 0 0 0 0 0
          0 0 0 0 0 0
          0 0 0 0 0 0
          0 0 0 0 0 0
          0 0 0 0 0 0
          0 0 0 0 0 0
          0 0 0 0 0
        </DataArray>
        <DataArray type="Float64" Name="markers_mustrefine" format="ascii" RangeMin="0" RangeMax="2">
          2 1 2 2 2 0
          0 0 0 2 1.75 0.75
          2 2 2 2 2 2
          2 2 2 2 2 2
          2 2 2 2 2 2
          0 0 1 1 0 1
          1 0 1 1 2 2
          2 2 0 0 0.5 0.5
          0 0 0 0 0.5 0
          1.5 1.5 1.3333333333333333 1.6666666666666667 0 0.75
          0 0.5 0 0.5 0 1.75
          1.6666666666666667 2 2 2 2 2
          2 2 2 2 2 2
          2 2 2 2 2 2
          2 2 2 2 2 2
          2 2 2 2 2 2
          2 2 2 2 2 2
          2 2 2 2 2 2
          2 2 2 2 2 2
          2 2 2 2 2 2
          2 1.75 2 2 2 2
          2 2 2 2 1.5 1.75
          0.5 1.25 2 2 2 2
          2 2 2 2 2 2
          2 2 2 2 2 2
          2 2 2 2 2 2
          2 2 2 2 2 2
          1 1 1.5 1.5 0 1
          1 0.5 1.25 1 2 2
          2 0 0.75 0 0.5 0
          0.5 0 1.75 2 2 2
          2 2 2 2 2 2
          2 2 2 2 2 2
          2 2 2 2 2 2
          2 2 2 2 2 2
          2 2 2 2 2 2
          2 2 2 2 2 2
          2 2 2 2 2 2
          2 2 2 0 0 0
          0 0 0 0 0 0
          0.5 0.25 0 0 0 0
          0 0 0 0 0.75 0
          0 0 0 0 0 1
          1.5 1.5 1.25 2 2 2
          0 1 0.6666666666666666 2 1.6666666666666667 1.5
          2 2 2 2 2 2
          2 2 2 2 2 2
          2 2 2 2 2 2
          2 2 2 2 2 2
          2 2 2 2 2 2
          2 2 2 2 2 2
          2 2 2 2 2 2
          2 2 2 2 2 2
          2 2 2 2 2 2
          2 2 2 2 2 2
          2 2 2 2 2 2
          2 2 2 2 2 2
          1.75 2 2 2 2 0.5
          1.25 1 2 1.75 2 2
          2 2 2 2 2 2
          2 2 1.5 2 1.5 1.3333333333333333
          1.3333333333333333 0.25 2 2 2 2
          2 2 2 2 2 2
          1.75 1.75 1.3333333333333333 2 2 2
          2 2 2 2 2 2
          2 2 2 2 2 2
          2 2 2 2 2 2
          2 2 2 2 2 2
          2 2 2 2 2 2
          2 2 2 2 2
        </DataArray>
        <DataArray type="Float64" Name="gradient_marker" format="ascii" RangeMin="1" RangeMax="1">
          1 1 1 1 1 1
          1 1 1 1 1 1
          1 1 1 1 1 1
          1 1 1 1 1 1
          1 1 1 1 1 1
          1 1 1 1 1 1
          1 1 1 1 1 1
          1 1 1 1 1 1
          1 1 1 1 1 1
          1 1 1 1 1 1
          1 1 1 1 1 1
          1 1 1 1 1 1
          1 1 1 1 1 1
          1 1 1 1 1 1
          1 1 1 1 1 1
          1 1 1 1 1 1
          1 1 1 1 1 1
          1 1 1 1 1 1
          1 1 1 1 1 1
          1 1 1 1 1 1
          1 1 1 1 1 1
          1 1 1 1 1 1
          1 1 1 1 1 1
          1 1 1 1 1 1
          1 1 1 1 1 1
          1 1 1 1 1 1
          1 1 1 1 1 1
          1 1 1 1 1 1
          1 1 1 1 1 1
          1 1 1 1 1 1
          1 1 1 1 1 1
          1 1 1 1 1 1
          1 1 1 1 1 1
          1 1 1 1 1 1
          1 1 1 1 1 1
          1 1 1 1 1 1
          1 1 1 1 1 1
          1 1 1 1 1 1
          1 1 1 1 1 1
          1 1 1 1 1 1
          1 1 1 1 1 1
          1 1 1 1 1 1
          1 1 1 1 1 1
          1 1 1 1 1 1
          1 1 1 1 1 1
          1 1 1 1 1 1
          1 1 1 1 1 1
          1 1 1 1 1 1
          1 1 1 1 1 1
          1 1 1 1 1 1
          1 1 1 1 1 1
          1 1 1 1 1 1
          1 1 1 1 1 1
          1 1 1 1 1 1
          1 1 1 1 1 1
          1 1 1 1 1 1
          1 1 1 1 1 1
          1 1 1 1 1 1
          1 1 1 1 1 1
          1 1 1 1 1 1
          1 1 1 1 1 1
          1 1 1 1 1 1
          1 1 1 1 1 1
          1 1 1 1 1 1
          1 1 1 1 1 1
          1 1 1 1 1 1
          1 1 1 1 1 1
          1 1 1 1 1 1
          1 1 1 1 1 1
          1 1 1 1 1
        </DataArray>
        <DataArray type="Float64" Name="gradient_matprop_marker" format="ascii" RangeMin="0" RangeMax="0">
          0 0 0 0 0 0
          0 0 0 0 0 0
          0 0 0 0 0 0
          0 0 0 0 0 0
          0 0 0 0 0 0
          0 0 0 0 0 0
          0 0 0 0 0 0
          0 0 0 0 0 0
          0 0 0 0 0 0
          0 0 0 0 0 0
          0 0 0 0 0 0
          0 0 0 0 0 0
          0 0 0 0 0 0
          0 0 0 0 0 0
          0 0 0 0 0 0
          0 0 0 0 0 0
          0 0 0 0 0 0
          0 0 0 0 0 0
          0 0 0 0 0 0
          0 0 0 0 0 0
          0 0 0 0 0 0
          0 0 0 0 0 0
          0 0 0 0 0 0
          0 0 0 0 0 0
          0 0 0 0 0 0
          0 0 0 0 0 0
          0 0 0 0 0 0
          0 0 0 0 0 0
          0 0 0 0 0 0
          0 0 0 0 0 0
          0 0 0 0 0 0
          0 0 0 0 0 0
          0 0 0 0 0 0
          0 0 0 0 0 0
          0 0 0 0 0 0
          0 0 0 0 0 0
          0 0 0 0 0 0
          0 0 0 0 0 0
          0 0 0 0 0 0
          0 0 0 0 0 0
          0 0 0 0 0 0
          0 0 0 0 0 0
          0 0 0 0 0 0
          0 0 0 0 0 0
          0 0 0 0 0 0
          0 0 0 0 0 0
          0 0 0 0 0 0
          0 0 0 0 0 0
          0 0 0 0 0 0
          0 0 0 0 0 0
          0 0 0 0 0 0
          0 0 0 0 0 0
          0 0 0 0 0 0
          0 0 0 0 0 0
          0 0 0 0 0 0
          0 0 0 0 0 0
          0 0 0 0 0 0
          0 0 0 0 0 0
          0 0 0 0 0 0
          0 0 0 0 0 0
          0 0 0 0 0 0
          0 0 0 0 0 0
          0 0 0 0 0 0
          0 0 0 0 0 0
          0 0 0 0 0 0
          0 0 0 0 0 0
          0 0 0 0 0 0
          0 0 0 0 0 0
          0 0 0 0 0 0
          0 0 0 0 0
        </DataArray>
        <DataArray type="Float64" Name="combo" format="ascii" RangeMin="1" RangeMax="1">
          1 1 1 1 1 1
          1 1 1 1 1 1
          1 1 1 1 1 1
          1 1 1 1 1 1
          1 1 1 1 1 1
          1 1 1 1 1 1
          1 1 1 1 1 1
          1 1 1 1 1 1
          1 1 1 1 1 1
          1 1 1 1 1 1
          1 1 1 1 1 1
          1 1 1 1 1 1
          1 1 1 1 1 1
          1 1 1 1 1 1
          1 1 1 1 1 1
          1 1 1 1 1 1
          1 1 1 1 1 1
          1 1 1 1 1 1
          1 1 1 1 1 1
          1 1 1 1 1 1
          1 1 1 1 1 1
          1 1 1 1 1 1
          1 1 1 1 1 1
          1 1 1 1 1 1
          1 1 1 1 1 1
          1 1 1 1 1 1
          1 1 1 1 1 1
          1 1 1 1 1 1
          1 1 1 1 1 1
          1 1 1 1 1 1
          1 1 1 1 1 1
          1 1 1 1 1 1
          1 1 1 1 1 1
          1 1 1 1 1 1
          1 1 1 1 1 1
          1 1 1 1 1 1
          1 1 1 1 1 1
          1 1 1 1 1 1
          1 1 1 1 1 1
          1 1 1 1 1 1
          1 1 1 1 1 1
          1 1 1 1 1 1
          1 1 1 1 1 1
          1 1 1 1 1 1
          1 1 1 1 1 1
          1 1 1 1 1 1
          1 1 1 1 1 1
          1 1 1 1 1 1
          1 1 1 1 1 1
          1 1 1 1 1 1
          1 1 1 1 1 1
          1 1 1 1 1 1
          1 1 1 1 1 1
          1 1 1 1 1 1
          1 1 1 1 1 1
          1 1 1 1 1 1
          1 1 1 1 1 1
          1 1 1 1 1 1
          1 1 1 1 1 1
          1 1 1 1 1 1
          1 1 1 1 1 1
          1 1 1 1 1 1
          1 1 1 1 1 1
          1 1 1 1 1 1
          1 1 1 1 1 1
          1 1 1 1 1 1
          1 1 1 1 1 1
          1 1 1 1 1 1
          1 1 1 1 1 1
          1 1 1 1 1
        </DataArray>
        <DataArray type="Float64" Name="dHdT" format="ascii" RangeMin="25.811760227917567" RangeMax="36.978916605614316">
          30.494689249189445 25.814829668762457 27.099176868886268 25.89118124044475 26.07681444224488 25.813013039975672
          25.812834999773717 25.813819099151466 25.813541787749557 25.825262883662763 25.821657181921534 25.81418418527322
          26.641111849928183 29.124078421843492 27.82249976747074 28.563670799922175 25.89636131999871 25.870111957211936
          25.8311398222537 25.82544578222344 26.173913453314235 26.046311967224675 25.864303938424847 26.706512988188283
          26.373557896991194 26.00694683580652 25.93578297342942 27.026255027839614 26.566643589334475 25.9782965857067
          25.81709687836704 25.81683134040105 25.82136125211452 25.82078261779018 25.814519118188258 25.816878044519584
          25.81661052339324 25.816128231997574 25.819290988617908 25.816381289014988 25.83737081088165 25.835501859877837
          25.824305837319805 25.830825726538855 25.813217507630426 25.813203065805528 25.8143421741458 25.81426518678028
          25.812742336182197 25.813448622621802 25.813430563713826 25.813188623980636 25.81418819941476 25.813412504805854
          25.81851928505457 25.8181019457054 25.81545085495414 25.817810302389066 25.81525665317227 25.81749451490129
          25.814321414287598 25.815862165469817 25.814822644784456 25.816611036032604 25.81526646842846 25.82534230683912
          25.820433594401106 28.07089478581232 27.822077298165468 26.962432999869982 27.247890877679684 27.216918930530454
          26.6663253241371 26.307678515545767 29.84506008900825 29.348571192409604 28.018153770372052 27.767491249709344
          28.24626291906132 27.19127857335909 32.025488238931764 31.23634176746399 28.72366823891855 29.460189693372932
          28.132655399264085 29.213515687323895 27.198755949421535 26.613841922868456 27.802276761959916 26.95048060394351
          33.724788214381356 32.77136744459166 30.09634993755506 29.553716265281125 30.50154470647382 28.35271215715284
          34.315628532524855 33.33143234333186 29.89096796944505 30.909307901129914 30.10749181365089 30.448338706632953
          28.30759294635081 27.22265969391768 28.508510452332477 27.328671093144827 25.87881114000422 25.8732313271893
          25.84669494701055 25.843845451237378 25.859556682653377 25.836836518125857 25.976004073171012 25.96077710606532
          25.888673647029307 25.924092750229512 25.829115598745144 25.827753051020547 25.81996906286614 25.819354630242415
          25.82437498352596 25.817816113253052 25.85324998547768 25.84958789000197 25.829485741720646 25.840696344125778
          25.844066180935222 25.828852261526364 25.884085969483955 25.84970562964687 25.81701089420139 25.820448218999907
          25.814358585563593 25.815988055821855 25.830790062833746 25.82087479901797 26.17433147998718 26.138083024216353
          25.99788575511809 25.979437305413416 26.05179050962132 25.935531826592694 26.5150528505049 26.441147199240323