<?xml version="1.0"?>
<VTKFile type="UnstructuredGrid" version="0.1" byte_order="LittleEndian" header_type="UInt32" compressor="vtkZLibDataCompressor">
  <UnstructuredGrid>
    <Piece NumberOfPoints="765" NumberOfCells="494">
      <PointData>
        <DataArray type="Int32" Name="libmesh_node_id" format="ascii" RangeMin="395" RangeMax="6659">
          576 581 1275 1280 1292 1296
          1298 1300 1315 1320 1324 1328
          1330 1332 1334 1627 1628 1633
          1635 1636 1642 2234 2235 2236
          2241 2243 2264 2265 2266 2267
          2268 2269 2270 2271 2273 2275
          2277 2309 2310 2319 2321 2322
          2323 2324 2325 2326 2327 2328
          2329 2331 2333 2335 2426 2427
          2430 2433 2437 2460 2461 2464
          2467 2471 2516 2517 2518 2519
          2520 2521 2522 2523 2525 2527
          2529 2530 2531 2532 2533 2534
          2535 2536 2537 2538 2539 2540
          2541 2542 2543 2544 2545 2546
          2547 2549 2551 2553 2554 2555
          2556 2557 2558 2559 2560 2561
          2562 2565 2566 2568 2570 2861
          2863 2919 2920 2921 2924 2925
          2926 2927 2928 2929 2930 2931
          2932 2934 2935 2937 4801 4807
          4813 4814 4815 4859 4871 4872
          4873 5018 5020 5022 5024 5025
          5026 5027 5028 5030 5032 5034
          5036 5038 5039 5040 5041 5042
          5043 5044 5045 5046 5047 5048
          5049 5051 5054 5055 5058 5059
          5060 5061 5062 5063 5064 5065
          5066 5067 5068 5069 5070 5071
          5072 5073 5074 5075 5076 5079
          5087 5088 5089 5090 5091 5092
          5093 5103 5104 5107 5115 5116
          5117 5118 5119 5120 5121 5212
          5221 5222 5223 5231 5232 5233
          5235 5237 5239 5241 5242 5243
          5244 5245 5246 5247 5251 5254
          5256 5258 5259 5260 5261 5263
          5264 5265 5266 5267 5268 5269
          5270 5271 5272 5273 5274 5275
          5276 5277 5278 5279 5280 5281
          5282 5283 5284 5285 5286 5287
          5288 5289 5290 5291 5292 5293
          5294 5295 5296 5297 5298 5299
          5300 5301 5302 5303 5304 5307
          5308 5310 5312 5313 5314 5315
          5316 5317 5318 5319 5320 5322
          5324 5326 5327 5328 5329 5330
          5331 5332 5333 5334 5335 5336
          5337 5338 5339 5340 5341 5342
          5343 5344 5345 5346 5880 5882
          5886 5894 5895 5896 5897 5898
          5899 5900 5901 5902 5903 5904
          5905 5906 5907 5923 5924 5925
          5927 5929 5930 5931 5932 5933
          5934 5935 5952 5953 5956 5959
          5963 5980 5981 5984 5987 5991
          6143 6145 6147 6149 6150 6151
          6152 6153 6154 6155 6171 6173
          6175 6177 6178 6179 6180 6181
          6182 6183 6200 6201 6204 6207
          6228 6229 6232 6364 6365 6366
          6367 6368 6369 6370 6371 6372
          6373 6374 6375 6376 6377 6378
          6379 6380 6381 6382 6383 6384
          6385 6386 6387 6388 6389 6390
          6391 6392 6393 6394 6395 6397
          6399 6400 6401 6402 6403 6404
          6405 6406 6407 6408 6409 6411
          6413 6414 6415 6416 6417 6418
          6419 6420 6421 6422 6423 6424
          6425 6426 6427 6429 6431 6433
          6434 6435 6436 6437 6438 6439
          6440 6441 6442 6443 6444 6445
          6447 6448 6449 6450 6451 6452
          6453 6454 6455 6457 6459 6461
          6462 6463 6464 6465 6466 6467
          6468 6469 6471 6473 6475 6484
          6487 6489 6491 6493 6494 6495
          6496 6497 6498 6499 6500 6501
          6502 6504 6506 6508 6510 6511
          6512 6513 6514 6515 6516 6518
          6520 6522 6524 6525 6526 6527
          6528 6529 6530 6532 6534 6536
          6538 6539 6540 6541 6542 6543
          6544 6546 6548 6550 6552 6553
          6554 6555 6556 6557 6558 6559
          6560 6561 6562 6563 6564 6565
          6566 6568 6573 6574 6575 6576
          6577 6578 6579 6580 6582 6586
          6587 6588 6589 6590 6591 6592
          6593 6601 6602 6603 6604 6605
          6606 6607 6610 6614 6616 6618
          6620 6622 6623 6624 6625 6626
          6627 6628 6630 6632 6634 6636
          6637 6638 6639 6640 6641 6642
          6643 6644 6645 6646 6647 6648
          6649 6650 6651 6652 6653 6654
          6655 6656 6657 6658 6659 577
          1637 1331 1638 395 1643 2320
          1294 2330 2332 1329 2563 2550
          2564 2567 1333 2569 1297 1299
          2933 2526 2936 2938 5029 5050
          5052 5053 5056 5057 5077 5078
          5080 5082 5084 5086 4866 4878
          5094 4880 5096 5098 5100 5101
          5102 5105 5106 5108 5110 5112
          5114 5122 5124 5126 5128 1276
          5305 5097 5306 5309 2274 5311
          5125 5321 5323 575 5325 2334
          5881 5883 5887 5889 5888 5890
          2424 5893 2425 5911 5917 5918
          2428 5921 2429 5936 5938 5937
          5939 5943 5945 5950 5951 5942
          5954 5955 5957 5127 5958 5960
          5961 5962 2434 5966 5978 5979
          5970 5982 5983 5985 5986 5988
          5989 5990 1316 6131 6137 6138
          2458 6141 2459 6159 6165 6166
          2462 6169 2463 6186 6198 6199
          6190 6202 6203 6205 6206 6208
          6209 6211 6210 2468 6214 6226
          6227 6218 6230 6231 6233 6235
          6237 6239 6428 6430 6432 2524
          6446 6456 6458 6460 2528 6470
          6472 6474 6567 6569 6570 6571
          6572 2548 6581 6583 6584 6585
          6594 6596 6598 6600 6608 6609
          6611 6612 6613
        </DataArray>
        <DataArray type="Float64" Name="bounds" format="ascii" RangeMin="0" RangeMax="0">
          0 0 0 0 0 0
          0 0 0 0 0 0
          0 0 0 0 0 0
          0 0 0 0 0 0
          0 0 0 0 0 0
          0 0 0 0 0 0
          0 0 0 0 0 0
          0 0 0 0 0 0
          0 0 0 0 0 0
          0 0 0 0 0 0
          0 0 0 0 0 0
          0 0 0 0 0 0
          0 0 0 0 0 0
          0 0 0 0 0 0
          0 0 0 0 0 0
          0 0 0 0 0 0
          0 0 0 0 0 0
          0 0 0 0 0 0
          0 0 0 0 0 0
          0 0 0 0 0 0
          0 0 0 0 0 0
          0 0 0 0 0 0
          0 0 0 0 0 0
          0 0 0 0 0 0
          0 0 0 0 0 0
          0 0 0 0 0 0
          0 0 0 0 0 0
          0 0 0 0 0 0
          0 0 0 0 0 0
          0 0 0 0 0 0
          0 0 0 0 0 0
          0 0 0 0 0 0
          0 0 0 0 0 0
          0 0 0 0 0 0
          0 0 0 0 0 0
          0 0 0 0 0 0
          0 0 0 0 0 0
          0 0 0 0 0 0
          0 0 0 0 0 0
          0 0 0 0 0 0
          0 0 0 0 0 0
          0 0 0 0 0 0
          0 0 0 0 0 0
          0 0 0 0 0 0
          0 0 0 0 0 0
          0 0 0 0 0 0
          0 0 0 0 0 0
          0 0 0 0 0 0
          0 0 0 0 0 0
          0 0 0 0 0 0
          0 0 0 0 0 0
          0 0 0 0 0 0
          0 0 0 0 0 0
          0 0 0 0 0 0
          0 0 0 0 0 0
          0 0 0 0 0 0
          0 0 0 0 0 0
          0 0 0 0 0 0
          0 0 0 0 0 0
          0 0 0 0 0 0
          0 0 0 0 0 0
          0 0 0 0 0 0
          0 0 0 0 0 0
          0 0 0 0 0 0
          0 0 0 0 0 0
          0 0 0 0 0 0
          0 0 0 0 0 0
          0 0 0 0 0 0
          0 0 0 0 0 0
          0 0 0 0 0 0
          0 0 0 0 0 0
          0 0 0 0 0 0
          0 0 0 0 0 0
          0 0 0 0 0 0
          0 0 0 0 0 0
          0 0 0 0 0 0
          0 0 0 0 0 0
          0 0 0 0 0 0
          0 0 0 0 0 0
          0 0 0 0 0 0
          0 0 0 0 0 0
          0 0 0 0 0 0
          0 0 0 0 0 0
          0 0 0 0 0 0
          0 0 0 0 0 0
          0 0 0 0 0 0
          0 0 0 0 0 0
          0 0 0 0 0 0
          0 0 0 0 0 0
          0 0 0 0 0 0
          0 0 0 0 0 0
          0 0 0 0 0 0
          0 0 0 0 0 0
          0 0 0 0 0 0
          0 0 0 0 0 0
          0 0 0 0 0 0
          0 0 0 0 0 0
          0 0 0 0 0 0
          0 0 0 0 0 0
          0 0 0 0 0 0
          0 0 0 0 0 0
          0 0 0 0 0 0
          0 0 0 0 0 0
          0 0 0 0 0 0
          0 0 0 0 0 0
          0 0 0 0 0 0
          0 0 0 0 0 0
          0 0 0 0 0 0
          0 0 0 0 0 0
          0 0 0 0 0 0
          0 0 0 0 0 0
          0 0 0 0 0 0
          0 0 0 0 0 0
          0 0 0 0 0 0
          0 0 0 0 0 0
          0 0 0 0 0 0
          0 0 0 0 0 0
          0 0 0 0 0 0
          0 0 0 0 0 0
          0 0 0 0 0 0
          0 0 0 0 0 0
          0 0 0 0 0 0
          0 0 0 0 0 0
          0 0 0 0 0 0
          0 0 0 0 0 0
          0 0 0 0 0 0
          0 0 0 0 0 0
          0 0 0
        </DataArray>
        <DataArray type="Float64" Name="gradient_error" format="ascii" RangeMin="6.46529576709971e-12" RangeMax="1.1947028538541242e-8">
          1.4388287829093373e-9 2.5597604495869594e-9 7.124298640604196e-11 4.0170034012836533e-10 2.0215870706059952e-10 3.2650076152928416e-10
          1.2439717953924926e-10 3.6796437094479367e-10 1.1828095381914647e-9 1.706521722534844e-9 2.209785346503821e-9 1.1385366873038709e-10
          5.567202850731639e-10 1.2944694776382437e-10 6.465830157285937e-10 1.5346963153001403e-9 2.2568716449710996e-9 2.5817954981566265e-9
          4.481680135252281e-10 6.522664986519107e-10 7.418155988546099e-10 4.389871878025839e-10 1.919597611117588e-10 1.7248398833349729e-10
          7.474046171026695e-11 3.171400270274079e-11 1.1963127720665684e-9 5.376388842624292e-10 4.288135346582504e-10 1.8247115970078038e-10
          2.7567784877847604e-9 1.2742920637601338e-9 9.225494206615381e-10 2.1026694877428604e-10 7.069318700796324e-11 5.012698755963407e-10
          1.5651141701683677e-10 1.1997429185801447e-10 6.002999535955706e-11 4.035511987813249e-11 5.0324660904667004e-11 1.4976659966589652e-10
          7.099647917641307e-11 2.0001642897444268e-10 8.947640621272109e-11 3.018649358829368e-10 1.24189395240984e-10 2.2330757164092102e-10
          3.9386417077087274e-11 4.746958619884574e-11 4.777549387679891e-11 4.9992692623729314e-11 1.695267389459437e-9 7.514476941774553e-10
          2.6308038872886486e-9 2.9358511578199987e-10 4.6311509873873386e-10 3.4326900720691147e-9 1.5566045126574067e-9 3.753336478587858e-9
          6.104446788902226e-10 6.695929856895857e-10 5.280112704780792e-10 2.208329806627595e-10 1.981060537968351e-10 1.3677297677678902e-10
          7.929258019385885e-10 3.3539586936148187e-10 2.391935967342215e-10 8.510050842782273e-11 7.620045951292355e-11 1.294570119537425e-10
          7.565044961582227e-11 2.738437824961921e-10 2.3142203849855095e-10 1.4791331017743848e-10 1.545348456686809e-10 2.333125096508999e-10
          3.167182420230998e-10 1.2391998388471027e-10 2.516505725664427e-10 1.2009791797025945e-10 4.1055325986966646e-10 1.015907058767047e-9
          4.320593850633817e-10 2.9983629248192486e-10 1.1973993692186126e-10 1.1044949118018659e-9 4.703842065531316e-10 3.236525436429465e-10
          1.6701978019681652e-10 6.647380409431755e-11 1.8185997967298802e-10 7.143798039597567e-11 2.9788839687188427e-10 1.1486841061775899e-10
          4.827211187093691e-10 1.8860071668716677e-10 3.154549761015445e-10 1.217810736181154e-10 5.097520804326661e-10 8.080050531552848e-11
          6.755012085179709e-11 5.956472441342053e-11 7.057823734804013e-11 7.202834296198223e-11 7.524976764466254e-11 2.557881679111883e-10
          1.1752507396079298e-10 2.5592960678024443e-10 8.531297684145304e-11 1.0185045748786377e-10 7.522498876123782e-11 2.967274231966727e-11
          3.939596714622868e-11 2.055582665825255e-11 2.4600621536563882e-11 2.5221317762740208e-11 3.012985370724458e-11 2.1172257829799745e-11
          6.093878184269036e-11 4.0071188869411244e-11 8.54705753241582e-11 4.916336493124843e-11 2.938311161095731e-10 2.765823311440796e-10
          1.819705985800254e-10 1.177090148115048e-10 1.1145829594101875e-10 1.21732568037394e-10 7.445967294899402e-11 4.5666219208183425e-11
          4.473039673983465e-11 1.181510144115771e-9 7.388153649857492e-10 1.951287454663925e-9 8.114202965766212e-10 5.379877910758054e-10
          4.989190020061088e-10 3.275748379240209e-10 1.3532042009075523e-9 8.148784131231803e-10 4.5408834064346507e-10 2.7674131444144255e-10
          7.191938716641551e-10 3.0148190253439575e-10 1.960213680459131e-10 1.8055234821655001e-10 1.161503349897304e-10 4.815181061645224e-10
          3.144953212931801e-10 2.822665347745418e-10 4.2213146270789224e-9 3.074375266359598e-9 2.62357655404717e-9 1.8573199164205999e-9
          6.227504252681914e-9 3.843084126620856e-9 1.276172288969199e-9 8.462814496766158e-10 1.9111224736659528e-9 1.5906685761233969e-9
          1.0962065098677709e-9 9.54095339282521e-10 6.408890838848711e-10 2.3006739964841e-9 1.6041498326023976e-9 1.3581334942290529e-9
          7.396989926550546e-10 4.852463213392513e-10 4.2519156165184745e-10 2.761051916630451e-10 1.0904338212429518e-9 7.183627948766128e-10
          6.162132537110051e-10 3.43288839319734e-10 2.1057156171397623e-10 2.081993292675624e-10 1.278388181955081e-10 3.424341306426945e-10
          1.2415762824995096e-10 7.630209546578487e-11 7.320147367864695e-11 4.480786817983706e-11 1.9943988096792117e-10 1.225357327846325e-10
          1.1513932387639894e-10 5.402734713801771e-10 3.3180353535833703e-10 8.157500664334241e-10 3.08342923200501e-10 1.894867378011178e-10
          1.7464792323023146e-10 1.073382280590174e-10 4.573482637082567e-10 2.810888724115763e-10 2.5455241971068173e-10 1.0672815392848192e-10
          6.744754888168218e-11 4.238006983185848e-11 4.517302212622798e-11 2.625757603884131e-11 1.8204532313137762e-11 1.940558598098394e-11
          1.6758396900726902e-10 9.950392903336563e-11 2.5437390090536906e-10 1.0759940575922851e-10 6.821519356241352e-11 6.255687355775738e-11
          4.5017578826354596e-11 1.6505490860517834e-10 1.055949726179779e-10 9.537183372438486e-11 5.8010008787890483e-11 4.3087259593278406e-11
          8.743098488576142e-11 2.960671898152997e-11 3.659479255672693e-11 2.554210043193924e-11 2.956475196448e-11 2.839849772780451e-11
          2.469373205273699e-11 5.42617111370681e-11 3.7851570909913866e-11 3.96601611934138e-11 5.693977746370874e-10 3.73181095635164e-10
          3.389200737033801e-10 2.1640288318840748e-10 7.97040496053036e-10 5.282043840848248e-10 4.676924895329189e-10 2.436803869795905e-10
          1.5670461147735956e-10 1.3885500315106726e-10 8.795755110047201e-11 3.4688516793986617e-10 2.238017614690449e-10 1.9471208004829295e-10
          2.0015345331709335e-10 1.2502231798963034e-10 1.4814542302589068e-10 9.156850669744314e-11 2.743803981815554e-10 1.72319969169259e-10
          1.7801337446327272e-10 7.81389438796605e-11 4.864187252525225e-11 5.60724156697411e-11 3.485763053750209e-11 1.0825205957005785e-10
          6.793921292817485e-11 7.67039126046054e-11 4.239080401272071e-11 2.5806905536876125e-11 3.0813966066739636e-11 1.8845461141457522e-11
          6.586749625032641e-11 4.0274963578748634e-11 4.192119992696839e-11 1.1674263495445567e-11 1.529463619978067e-11 8.870595574841753e-12
          1.1203894733689223e-11 2.4067417380472298e-11 1.526200371586563e-11 9.846841467632373e-11 6.039720462888861e-11 5.466770960239934e-11
          3.3455360181119095e-11 1.4114811787571773e-10 8.680063545589829e-11 7.786634714797169e-11 3.619717919866237e-11 2.002557581649943e-11
          5.209272049363549e-11 2.8655089886194724e-11 2.45731193813628e-11 3.011040207462838e-11 1.525408650447808e-11 1.8568692106455206e-11
          1.872454414033989e-11 2.1757994162532663e-11 1.3569426265902135e-11 4.224991158370407e-11 2.5960860355142505e-11 2.928913027277525e-11
          9.096888832010032e-12 1.1060413872495988e-11 7.090793456649539e-12 8.34607428366366e-12 7.064355612828502e-12 8.205431988391714e-12
          6.46529576709971e-12 1.5512164788582215e-11 1.1520450550748667e-11 1.1142803207227142e-11 8.729007873225587e-9 5.372640733931697e-9
          7.164754099982025e-9 3.1907471103013168e-9 2.2489240493778425e-9 1.8612637116392526e-9 1.2766284508164336e-9 4.235340631670259e-9
          3.01600423221213e-9 2.450063717866087e-9 1.5395616868918067e-9 1.0184711600555616e-9 8.578368553048012e-10 5.610938416282007e-10
          2.0787718357539096e-9 1.3808301863904685e-9 1.1453780340558222e-9 3.866302517897548e-9 3.0938282706718533e-9 2.157729448740976e-9
          4.7368778218641815e-9 2.6817465682184895e-9 1.7883195179831395e-9 1.4650507113795843e-9 9.637953450790249e-10 3.3037804844632863e-9
          2.2108540322369987e-9 1.793762044486211e-9 3.560849778498453e-10 2.1895158007634377e-10 4.774946659179554e-10 1.3033798757716713e-10
          1.7459843921249927e-10 6.131268968619002e-10 3.769640355432864e-10 7.532161309696639e-10 2.2401451898975042e-10 2.750431345210003e-10
          5.5475844203592295e-9 3.0715773573146914e-9 6.211650758614088e-9 3.885920354945759e-9 2.6080644510904945e-9 2.1010584486174674e-9
          1.387995914649112e-9 4.363622886952273e-9 2.935086388598667e-9 2.3532886554521056e-9 6.648907109454566e-9 3.67034017049338e-9
          6.801698337318035e-9 4.6780903196298475e-9 3.150737957442409e-9 2.5194175208917686e-9 1.6677088395502644e-9 4.787897564625452e-9
          3.2260902655475715e-9 2.5774447847405518e-9 8.846210593036911e-10 5.439545322920754e-10 9.926872029692713e-10 3.2290170385801997e-10
          1.0639228850337966e-9 6.54277578537422e-10 1.0888112681601964e-9 1.077547305738205e-9 7.207508246870177e-10 6.244977240279879e-10
          4.0665525604873544e-10 1.4036900476162333e-9 9.462805222884649e-10 8.050522907767372e-10 4.760635183437346e-10 3.0816430166481206e-10
          2.638582825915112e-10 1.6879689596562547e-10 6.280382968708033e-10 4.076058237307467e-10 3.4425112200632823e-10 3.64231319443837e-10
          2.3057722218842206e-10 2.098955512082303e-10 1.485895501634675e-10 4.6490444413103334e-10 2.967136125495889e-10 2.6780195873347863e-10
          1.4551149158580242e-10 9.157324491836063e-11 1.0290817279897237e-10 6.390886348644782e-11 1.889324217032792e-10 1.19426058554913e-10
          1.1373242232601414e-10 1.759245028165316e-9 1.1937302396464399e-9 1.0002638742169952e-9 6.598321664486063e-10 1.4456481138476483e-9
          7.954976795266867e-10 5.174285658005337e-10 4.318554428655337e-10 2.7773023214207557e-10 9.665592298557717e-10 6.298117117184194e-10
          5.204854224652404e-10 5.708850691707907e-10 3.662364113200654e-10 3.2613334152205434e-10 2.0132595911481134e-10 4.3584146348172733e-10
          2.356894897278545e-10 1.498254616182515e-10 1.2557620274767603e-10 9.13113535951636e-11 2.8164812221668264e-10 1.7969695722922843e-10
          1.508323214257734e-10 1.946311477978187e-10 1.197116881507048e-10 1.059519317600519e-10 6.50266044059085e-11 2.576896164050604e-10
          1.5843729419723742e-10 1.38740973040131e-10 7.179436003417365e-11 3.894867579613061e-11 9.481800316320676e-11 5.090043143929669e-11
          5.6804001192599696e-11 3.473459725973417e-11 3.915166396404401e-11 2.3947063517187514e-11 7.390165641346213e-11 4.492281969186941e-11
          5.087075713969524e-11 2.0727060047897552e-11 1.5401044922388896e-11 1.4712494169413768e-11 1.1564597413229291e-11 2.6741903459262867e-11
          1.8552566101579183e-11 3.273758616361921e-10 2.0118498871241112e-10 1.7466514646123199e-10 1.0709133784021344e-10 3.987444129832787e-10
          2.4497769286498996e-10 2.1113212643596655e-10 1.200630113201327e-10 6.397157569907114e-11 1.4599019079503231e-10 7.726072551602955e-11
          9.276575084411457e-11 5.635186120581425e-11 6.405221492910968e-11 3.847754574933727e-11 1.1188544158827383e-10 6.813997675263651e-11
          6.478312283204387e-11 3.353463142930911e-11 2.289851858733452e-11 4.040331413156472e-11 2.7445209371687508e-11 1.0037324660028127e-10
          1.1114329976423381e-10 8.156597894722485e-11 1.3094850327552246e-10 6.055078330973546e-11 6.702914592377789e-11 4.7444608502883184e-11
          5.108276775147417e-11 4.779086630705693e-11 5.008429399602803e-11 3.936857079818362e-11 7.955273219997258e-11 5.293262470751645e-11
          5.6031633211556145e-11 1.6795971324036679e-9 9.157911259252133e-10 1.870926039938728e-9 1.1257390283195047e-9 7.344953277141823e-10
          6.023393445371256e-10 3.8868743447702475e-10 1.2559839340714545e-9 8.201824143358828e-10 6.690026082311829e-10 5.00185735402486e-10
          2.727937182203514e-10 5.522373752198241e-10 3.2303046310696137e-10 2.0622599986360587e-10 1.724511165988933e-10 1.0788974392903979e-10
          3.567475846225383e-10 2.2791057672227275e-10 1.8989344664305842e-10 1.996737537936302e-9 1.08159116503373e-9 2.0406544468844794e-9
          1.3416037143601199e-9 8.765076716288399e-10 7.127310450148182e-10 4.604779699985212e-10 1.3714836462298016e-9 8.961604533330933e-10
          7.27980348348474e-10 5.863685381317841e-10 3.175049644647649e-10 5.982603947865594e-10 3.7912085765317955e-10 2.423740050103387e-10
          2.012935528588156e-10 1.2695684790468458e-10 3.8688155953958867e-10 2.4735190238607937e-10 2.0522183151655927e-10 4.652576695849177e-10
          2.8581557633165893e-10 2.4484262593447557e-10 1.5017144998445436e-10 5.196959822781249e-10 3.192293273974269e-10 2.722823739316176e-10
          1.7025999906273379e-10 8.961268097968097e-11 1.2938699791804384e-10 7.911212322794906e-11 6.666119111743751e-11 4.7412082168159874e-11
          1.4350401262019217e-10 8.795291942437239e-11 7.453082456900039e-11 4.672828661085365e-11 3.1754177205673193e-11 3.530280614445092e-11
          5.554687244192544e-10 3.411753852855943e-10 2.9024678575442486e-10 1.7803219620537835e-10 5.679481320588033e-10 3.488292533622638e-10
          2.9649828411218857e-10 1.5264717240611097e-10 9.356988188987913e-11 7.900722884736732e-11 5.6010213796997777e-11 1.5577348507836777e-10
          9.546707242714394e-11 8.054022011658899e-11 3.752124204067833e-11 3.823260272026504e-11 1.4794209240924725e-10 1.0388915171173285e-10
          1.6179424848316365e-10 9.078160218227253e-11 5.579344137199486e-11 6.249426165792331e-11 3.896411092399898e-11 9.95446708587258e-11
          6.162727124974164e-11 6.751406693165718e-11 1.7079913923100455e-10 1.1905452222886222e-10 1.7393763798762601e-10 1.0513969694418671e-10
          6.499930402451106e-11 7.112206967990175e-11 4.3305700711212866e-11 1.0715530067334205e-10 6.629247473228647e-11 7.251898407422254e-11
          3.237287634148031e-11 3.442161822816508e-11 2.5938841204786723e-11 2.67194874384305e-11 2.5438916525490013e-11 2.5306949203054873e-11
          2.0770327422388397e-11 3.781134890779881e-11 2.8683444558473368e-11 2.6142707863349872e-11 3.9907915456188595e-11 3.038336514302459e-11
          2.7629085248587123e-11 2.2682845424375772e-11 4.066349321162939e-11 3.089997484117672e-11 2.814773665109424e-11 9.385803142858781e-11
          1.3550696630105763e-10 1.0788470930209271e-10 1.5491190505037855e-10 1.224515640926178e-10 1.7513226015008012e-10 2.0610002707797023e-11
          4.1645951943831925e-11 1.7188642651237382e-11 2.5033926441726607e-11 3.920667995262553e-11 4.4938256588917974e-11 4.735954332812458e-11
          5.216705062316422e-11 2.972797300681589e-11 5.055204934583311e-11 5.5064679677583055e-11 8.915255804920786e-11 3.2112736821008975e-11
          2.9097808217127718e-11 3.494512578899156e-11 3.496554786367227e-11 2.356316288316361e-11 9.024304138413404e-10 4.606641343852247e-9
          2.154739595839249e-9 1.4466086201029063e-9 3.265761764643758e-9 2.209539336494125e-9 5.773983271538361e-10 3.5423802517430164e-10
          1.2416470347753028e-10 7.579323136857887e-11 2.08481341921143e-10 1.2445163780234395e-10 4.43756796803415e-11 2.7046976569171437e-11
          4.537676654247387e-11 1.834126219597107e-11 2.6596048843353648e-11 7.288831493985874e-11 4.2188483671623316e-11 9.288123719763173e-10
          5.703249406584265e-10 1.4250753343710286e-9 8.765785515860952e-10 3.352191177407852e-10 1.9608396185400873e-10 5.149501087980858e-10
          2.9587698702264264e-10 1.1257183714336661e-10 6.40105355069145e-11 1.667770240802462e-10 9.326052251620995e-11 1.612095555368529e-11
          6.816585911957699e-12 1.5405280320710403e-11 8.913701032728227e-12 6.570393095362997e-12 2.4438579121827893e-11 1.399852590191615e-11
          3.7021305921539886e-11 2.100356160206001e-11 1.3546835475078274e-11 5.3841308599488645e-11 3.021473971671999e-11 2.504078126672304e-11
          6.554808565472687e-9 3.903894923004535e-9 4.7016595235580165e-9 2.7310020059439007e-9 3.2086300001206095e-9 1.8316794550441795e-9
          5.269441834190931e-9 3.7191600124764944e-9 2.5096819312697864e-9 6.780517201436345e-9 4.824306128155286e-9 3.27497669463586e-9
          8.323094872737434e-9 5.96189262332936e-9 4.0690707688441075e-9 2.080961642261979e-9 1.1763543987278648e-9 1.2835215554198969e-9
          7.236092548472041e-10 7.542527609740546e-10 4.268010109440275e-10 6.496815232435232e-10 3.993989198115333e-10 1.617659800516422e-9
          8.82624009833888e-10 5.428412193339833e-10 2.3670437172724416e-10 9.560070562018474e-11 1.3535822429460748e-10 7.511495352764743e-11
          3.2144540182025007e-10 1.834551988125368e-10 1.0046055810809998e-10 2.1191017906112796e-9 1.1454615315915694e-9 7.04931599863148e-10
          2.64294637253424e-9 1.4188984064608719e-9 8.738423813278931e-10 4.172091030356513e-10 2.377694010123856e-10 1.287391450213369e-10
          5.170320125251696e-10 2.9434530305108637e-10 1.5790239815456686e-10 9.752955866044847e-9 7.023773229807425e-9 4.814501819189566e-9
          1.0917528770513737e-8 7.893087394563803e-9 5.427136921113696e-9 1.1680888274532495e-8 8.464265721271528e-9 5.830846329385986e-9
          1.1947028538541242e-8 8.663561587297886e-9 5.9719028750186104e-9 3.137738742647486e-9 1.6766523172857239e-9 1.0333282101873368e-9
          3.5461587476099684e-9 1.8893236982074733e-9 1.165094379470298e-9 6.11323887821499e-10 3.477554908692779e-10 1.852127422534527e-10
          6.892660383114084e-10 3.622505339759306e-10 3.918868572715778e-10 2.07645238244037e-10 3.815794760293024e-9 2.0298073455406458e-9
          1.2522007961987694e-9 3.910041336088793e-9 2.0789409748202302e-9 1.282674209432593e-9 7.40817732103816e-10 3.881801932873226e-10
          7.588588321346797e-10 3.97238180336221e-10 4.162884195633035e-11 2.6269457590297146e-11 5.4937884480508494e-11 3.468828242218419e-11
          1.733667485105077e-11 6.950544748975926e-11 3.6992108922110744e-11 8.444243943070713e-11 4.4887082090303174e-11 1.9472202856118114e-11
          1.3663106421136545e-11 2.34658745954904e-11 9.841812361471602e-11 5.1997567590789285e-11 1.9008293798475468e-10 1.0979997968966152e-10
          9.962903147235881e-11 5.776238013069884e-11 2.6974161455311176e-11 1.819583913932121e-11 5.187635180678508e-11 2.986835452913675e-11
          2.0309501326442892e-10 1.061704519975546e-10 2.0763159503017566e-10 1.0844295532258384e-10 5.517777423971715e-11 3.174229342463572e-11
          2.1346370356975255e-11 5.6291975196147125e-11 3.238511687327867e-11
        </DataArray>
        <DataArray type="Float64" Name="gradient_matprop_error" format="ascii" RangeMin="0" RangeMax="0">
          0 0 0 0 0 0
          0 0 0 0 0 0
          0 0 0 0 0 0
          0 0 0 0 0 0
          0 0 0 0 0 0
          0 0 0 0 0 0
          0 0 0 0 0 0
          0 0 0 0 0 0
          0 0 0 0 0 0
          0 0 0 0 0 0
          0 0 0 0 0 0
          0 0 0 0 0 0
          0 0 0 0 0 0
          0 0 0 0 0 0
          0 0 0 0 0 0
          0 0 0 0 0 0
          0 0 0 0 0 0
          0 0 0 0 0 0
          0 0 0 0 0 0
          0 0 0 0 0 0
          0 0 0 0 0 0
          0 0 0 0 0 0
          0 0 0 0 0 0
          0 0 0 0 0 0
          0 0 0 0 0 0
          0 0 0 0 0 0
          0 0 0 0 0 0
          0 0 0 0 0 0
          0 0 0 0 0 0
          0 0 0 0 0 0
          0 0 0 0 0 0
          0 0 0 0 0 0
          0 0 0 0 0 0
          0 0 0 0 0 0
          0 0 0 0 0 0
          0 0 0 0 0 0
          0 0 0 0 0 0
          0 0 0 0 0 0
          0 0 0 0 0 0
          0 0 0 0 0 0
          0 0 0 0 0 0
          0 0 0 0 0 0
          0 0 0 0 0 0
          0 0 0 0 0 0
          0 0 0 0 0 0
          0 0 0 0 0 0
          0 0 0 0 0 0
          0 0 0 0 0 0
          0 0 0 0 0 0
          0 0 0 0 0 0
          0 0 0 0 0 0
          0 0 0 0 0 0
          0 0 0 0 0 0
          0 0 0 0 0 0
          0 0 0 0 0 0
          0 0 0 0 0 0
          0 0 0 0 0 0
          0 0 0 0 0 0
          0 0 0 0 0 0
          0 0 0 0 0 0
          0 0 0 0 0 0
          0 0 0 0 0 0
          0 0 0 0 0 0
          0 0 0 0 0 0
          0 0 0 0 0 0
          0 0 0 0 0 0
          0 0 0 0 0 0
          0 0 0 0 0 0
          0 0 0 0 0 0
          0 0 0 0 0 0
          0 0 0 0 0 0
          0 0 0 0 0 0
          0 0 0 0 0 0
          0 0 0 0 0 0
          0 0 0 0 0 0
          0 0 0 0 0 0
          0 0 0 0 0 0
          0 0 0 0 0 0
          0 0 0 0 0 0
          0 0 0 0 0 0
          0 0 0 0 0 0
          0 0 0 0 0 0
          0 0 0 0 0 0
          0 0 0 0 0 0
          0 0 0 0 0 0
          0 0 0 0 0 0
          0 0 0 0 0 0
          0 0 0 0 0 0
          0 0 0 0 0 0
          0 0 0 0 0 0
          0 0 0 0 0 0
          0 0 0 0 0 0
          0 0 0 0 0 0
          0 0 0 0 0 0
          0 0 0 0 0 0
          0 0 0 0 0 0
          0 0 0 0 0 0
          0 0 0 0 0 0
          0 0 0 0 0 0
          0 0 0 0 0 0
          0 0 0 0 0 0
          0 0 0 0 0 0
          0 0 0 0 0 0
          0 0 0 0 0 0
          0 0 0 0 0 0
          0 0 0 0 0 0
          0 0 0 0 0 0
          0 0 0 0 0 0
          0 0 0 0 0 0
          0 0 0 0 0 0
          0 0 0 0 0 0
          0 0 0 0 0 0
          0 0 0 0 0 0
          0 0 0 0 0 0
          0 0 0 0 0 0
          0 0 0 0 0 0
          0 0 0 0 0 0
          0 0 0 0 0 0
          0 0 0 0 0 0
          0 0 0 0 0 0
          0 0 0 0 0 0
          0 0 0 0 0 0
          0 0 0 0 0 0
          0 0 0 0 0 0
          0 0 0 0 0 0
          0 0 0 0 0 0
          0 0 0 0 0 0
          0 0 0
        </DataArray>
        <DataArray type="Float64" Name="initial_marker" format="ascii" RangeMin="0" RangeMax="2">
          0 0 2 2 0 0
          0.75 0 2 2 0 1.5
          0 2 0 0 0 0
          0 0 0 2 2 2
          2 1.75 2 2 2 2
          2 2 2 2 2 2
          2 1.25 0.75 0.25 0 2