<?xml version="1.0"?>
<VTKFile type="UnstructuredGrid" version="0.1" byte_order="LittleEndian" header_type="UInt32" compressor="vtkZLibDataCompressor">
  <UnstructuredGrid>
    <Piece NumberOfPoints="773" NumberOfCells="495">
      <PointData>
        <DataArray type="Int32" Name="libmesh_node_id" format="ascii" RangeMin="394" RangeMax="6635">
          578 579 1259 1267 1301 1302
          1303 1304 1305 1306 1307 1308
          1309 1310 1322 1325 1326 2186
          2194 2195 2338 2339 2341 2344
          2346 2347 2348 2349 2350 2351
          2352 2353 2354 2355 2357 2361
          2363 2364 2367 2368 2369 2372
          2373 2375 2378 2380 2381 2382
          2383 2384 2385 2386 2387 2388
          2389 2391 2393 2395 2397 2398
          2399 2400 2401 2402 2403 2474
          2479 2480 2481 2494 2496 2497
          2498 2499 2500 2501 2502 2503
          2504 2505 2506 2507 2508 2509
          2510 2511 2512 2513 2514 2515
          4525 4554 4555 4556 4557 4558
          4559 4560 4561 4562 4565 4567
          4568 4570 4571 4573 4574 4578
          5359 5360 5362 5365 5375 5390
          5392 5395 5405 5407 5409 5411
          5412 5413 5414 5415 5416 5417
          5418 5419 5420 5421 5422 5425
          5427 5428 5429 5430 5431 5432
          5433 5434 5435 5436 5438 5440
          5441 5442 5443 5444 5445 5446
          5447 5448 5449 5450 5451 5452
          5453 5454 5455 5456 5457 5458
          5459 5460 5461 5462 5463 5464
          5465 5466 5467 5468 5469 5470
          5471 5472 5473 5474 5475 5476
          5488 5490 5491 5492 5493 5495
          5496 5497 5498 5499 5500 5502
          5503 5504 5507 5508 5510 5511
          5512 5513 5514 5515 5516 5517
          5518 5519 5520 5521 5522 5523
          5524 5525 5526 5527 5528 5529
          5530 5531 5544 5545 5547 5550
          5560 5562 5564 5578 5579 5581
          5584 5594 5596 5598 5600 5601
          5602 5603 5604 5605 5606 5607
          5608 5609 5610 5611 5612 5613
          5614 5615 5616 5617 5618 5619
          5620 5621 5622 5623 5624 5625
          5626 5627 5628 5629 5630 5631
          5632 5633 5634 5635 5636 5637
          5638 5639 5640 5641 5642 5643
          5644 5645 5646 5647 5648 5649
          5650 5651 5652 5653 5654 5655
          5656 5657 5658 5659 5660 5661
          5662 5663 5664 5665 5666 5667
          5676 5678 5680 5690 5692 5694
          5696 5697 5698 5699 5700 5701
          5702 5703 5704 5705 5706 5707
          5708 5709 5710 5711 5712 5713
          5714 5715 5716 5717 5718 5719
          5720 5721 5722 5723 5724 5725
          5726 5727 5728 5729 5730 5731
          5732 5733 5734 5735 5736 5737
          5738 5739 5740 5741 5742 5743
          5750 5751 5753 5768 5770 5778
          5779 5782 5784 5785 5787 5798
          5800 5802 5804 5884 5908 5910
          5912 5914 5922 5926 5928 5992
          5993 5996 5998 5999 6001 6012
          6014 6016 6018 6026 6027 6030
          6032 6033 6035 6046 6048 6050
          6052 6128 6130 6132 6134 6142
          6144 6146 6148 6156 6158 6160
          6162 6170 6172 6174 6176 6260
          6261 6262 6263 6264 6265 6266
          6267 6268 6269 6270 6271 6272
          6273 6274 6275 6276 6277 6278
          6279 6294 6295 6296 6297 6298
          6299 6300 6301 6302 6303 6304
          6305 6306 6307 6308 6309 6310
          6311 6312 6313 6314 6315 6316
          6317 6318 6319 6320 6321 6322
          6323 6324 6325 6326 6327 6328
          6329 6330 6331 6332 6333 6334
          6335 6336 6337 6338 6339 6340
          6341 6342 6343 6344 6345 6346
          6347 6348 6349 6350 6351 6352
          6353 6354 6355 6356 6357 6358
          6359 6360 6361 6362 6363 6396
          6398 6410 6412 6486 6488 6490
          6492 6503 6505 6507 6509 6517
          6519 6521 6523 6531 6533 6535
          6537 6545 6547 6549 6551 6615
          6617 6619 6621 6629 6631 6633
          6635 1255 1321 1323 1257 1327
          394 1324 1628 1626 581 1633
          1632 2180 2188 2189 2181 2192
          2183 2197 1268 2207 2201 2209
          1270 2365 2359 2475 2472 2477
          2473 2487 2483 2493 2485 2489
          2492 2491 2495 2531 2535 2537
          2539 2554 2556 2558 2560 4540
          4541 4533 2190 4542 4563 4564
          4543 2191 4566 572 4569 2196
          4551 4546 4552 4575 4553 4576
          4572 2193 4577 4579 4580 1269
          5423 5424 5426 5437 5439 4608
          4603 4609 5494 4610 2208 4618
          4613 4619 4620 5505 5501 573
          5506 5509 2366 5744 5745 5746
          5747 2404 5752 5748 5749 2405
          5764 5765 5769 5766 5767 2408
          5780 5781 5783 2410 5786 2411
          5799 5801 5803 2413 5049 5051
          5880 5882 5881 5885 5886 5883
          2424 5063 5894 5065 5896 5898
          5900 5909 5911 5913 2428 5899
          5923 5924 2426 5925 5927 2430
          5994 5995 5997 2438 6000 2439
          6013 6015 6017 2442 6028 6029
          6031 2444 6034 2445 6047 6049
          6051 2447 6129 6131 6133 2458
          6143 6145 6147 2460 6157 6159
          6161 2462 6171 6173 6175 2464
          6247 6242 6248 6249 2476 6257
          6252 6258 6259 2478 6291 6283
          6292 6293 6368 6392 6370 6394
          6393 6397 6395 2520 6382 6406
          6384 6408 6407 6411 6409 2522
          6483 2518 6484 6487 6485 6489
          6491 6504 6506 6508 2540 6518
          6520 6522 2542 6532 6534 6536
          2544 6546 6548 6550 2546 6616
          6618 6620 6630 6632 6634
        </DataArray>
        <DataArray type="Float64" Name="bounds" format="ascii" RangeMin="0" RangeMax="0">
          0 0 0 0 0 0
          0 0 0 0 0 0
          0 0 0 0 0 0
          0 0 0 0 0 0
          0 0 0 0 0 0
          0 0 0 0 0 0
          0 0 0 0 0 0
          0 0 0 0 0 0
          0 0 0 0 0 0
          0 0 0 0 0 0
          0 0 0 0 0 0
          0 0 0 0 0 0
          0 0 0 0 0 0
          0 0 0 0 0 0
          0 0 0 0 0 0
          0 0 0 0 0 0
          0 0 0 0 0 0
          0 0 0 0 0 0
          0 0 0 0 0 0
          0 0 0 0 0 0
          0 0 0 0 0 0
          0 0 0 0 0 0
          0 0 0 0 0 0
          0 0 0 0 0 0
          0 0 0 0 0 0
          0 0 0 0 0 0
          0 0 0 0 0 0
          0 0 0 0 0 0
          0 0 0 0 0 0
          0 0 0 0 0 0
          0 0 0 0 0 0
          0 0 0 0 0 0
          0 0 0 0 0 0
          0 0 0 0 0 0
          0 0 0 0 0 0
          0 0 0 0 0 0
          0 0 0 0 0 0
          0 0 0 0 0 0
          0 0 0 0 0 0
          0 0 0 0 0 0
          0 0 0 0 0 0
          0 0 0 0 0 0
          0 0 0 0 0 0
          0 0 0 0 0 0
          0 0 0 0 0 0
          0 0 0 0 0 0
          0 0 0 0 0 0
          0 0 0 0 0 0
          0 0 0 0 0 0
          0 0 0 0 0 0
          0 0 0 0 0 0
          0 0 0 0 0 0
          0 0 0 0 0 0
          0 0 0 0 0 0
          0 0 0 0 0 0
          0 0 0 0 0 0
          0 0 0 0 0 0
          0 0 0 0 0 0
          0 0 0 0 0 0
          0 0 0 0 0 0
          0 0 0 0 0 0
          0 0 0 0 0 0
          0 0 0 0 0 0
          0 0 0 0 0 0
          0 0 0 0 0 0
          0 0 0 0 0 0
          0 0 0 0 0 0
          0 0 0 0 0 0
          0 0 0 0 0 0
          0 0 0 0 0 0
          0 0 0 0 0 0
          0 0 0 0 0 0
          0 0 0 0 0 0
          0 0 0 0 0 0
          0 0 0 0 0 0
          0 0 0 0 0 0
          0 0 0 0 0 0
          0 0 0 0 0 0
          0 0 0 0 0 0
          0 0 0 0 0 0
          0 0 0 0 0 0
          0 0 0 0 0 0
          0 0 0 0 0 0
          0 0 0 0 0 0
          0 0 0 0 0 0
          0 0 0 0 0 0
          0 0 0 0 0 0
          0 0 0 0 0 0
          0 0 0 0 0 0
          0 0 0 0 0 0
          0 0 0 0 0 0
          0 0 0 0 0 0
          0 0 0 0 0 0
          0 0 0 0 0 0
          0 0 0 0 0 0
          0 0 0 0 0 0
          0 0 0 0 0 0
          0 0 0 0 0 0
          0 0 0 0 0 0
          0 0 0 0 0 0
          0 0 0 0 0 0
          0 0 0 0 0 0
          0 0 0 0 0 0
          0 0 0 0 0 0
          0 0 0 0 0 0
          0 0 0 0 0 0
          0 0 0 0 0 0
          0 0 0 0 0 0
          0 0 0 0 0 0
          0 0 0 0 0 0
          0 0 0 0 0 0
          0 0 0 0 0 0
          0 0 0 0 0 0
          0 0 0 0 0 0
          0 0 0 0 0 0
          0 0 0 0 0 0
          0 0 0 0 0 0
          0 0 0 0 0 0
          0 0 0 0 0 0
          0 0 0 0 0 0
          0 0 0 0 0 0
          0 0 0 0 0 0
          0 0 0 0 0 0
          0 0 0 0 0 0
          0 0 0 0 0 0
          0 0 0 0 0 0
          0 0 0 0 0 0
          0 0 0 0 0 0
          0 0 0 0 0
        </DataArray>
        <DataArray type="Float64" Name="gradient_error" format="ascii" RangeMin="8.156597894722485e-11" RangeMax="2.459899538842088e-7">
          3.875737342057781e-8 7.271704752106861e-9 2.1211143529983312e-7 1.0128821887671555e-7 3.645931681659092e-8 9.9663678693101e-8
          3.406196059585595e-8 3.378711111525606e-8 1.919499293068143e-7 5.217227515317424e-9 8.909506380107517e-9 5.481756260989581e-8
          4.720096188202003e-8 2.459899538842088e-7 6.318656892982262e-10 1.6689661731349844e-7 8.411080514457517e-10 1.5012307467570942e-7
          6.013953609201022e-8 8.311214455598081e-8 3.3670476649748865e-8 9.519154331264912e-8 1.77055772179573e-7 4.7408689018016915e-8
          3.32243896564212e-8 6.510833513776297e-8 3.127144980216625e-8 3.353079091566755e-8 9.664675969526154e-8 2.1689946978846084e-8
          3.801991152707655e-8 4.807898670804068e-8 4.413642187642995e-8 6.775693210323587e-8 1.4930069362326566e-7 1.414031605826193e-7
          7.540428585400082e-8 9.437831588422129e-9 7.336328526150295e-8 1.422942545419584e-8 4.667657831592958e-8 2.3060137312832693e-8
          5.3500807663977724e-8 5.299374999305592e-8 5.11612601243794e-8 3.4312423972051346e-8 5.5903895231931066e-8 3.8695023111627277e-8
          5.0681775724352396e-8 5.29347866454632e-8 4.366402438619844e-8 2.599733277921109e-8 5.7376766469379823e-8 5.3358733689981464e-8
          5.544003405211062e-8 1.0818808709348627e-7 1.362885921525571e-7 1.1695080626909303e-7 5.875113799831621e-8 1.8329544921764152e-8
          5.827119658987487e-8 6.684416400279933e-9 6.376687714723566e-8 2.003869506554487e-8 6.295718856609579e-8 4.015371949848993e-8
          2.1854808101599555e-8 1.812832272680092e-9 1.050205927088455e-8 6.667145003138431e-10 4.883809327188238e-8 2.3688338848742235e-8
          5.2760593827504614e-8 2.6634462347202412e-8 2.2936788981823264e-9 1.2719085876714914e-8 7.807822967773223e-10 2.8779456096436265e-8
          2.4852868251462894e-9 1.369675425033686e-8 6.647484399492284e-9 5.063945272985808e-9 6.9755937616971125e-9 3.981886058777833e-9
          7.750486313813732e-10 3.4262927147278902e-9 1.2376764175400778e-9 4.1822152389481405e-9 8.158609875805037e-10 3.5836832506252476e-9
          3.321201657647882e-8 1.901247074816156e-8 1.8277763348157667e-8 1.7031261863397567e-8 3.139351471504848e-8 3.162856438618341e-8
          2.630504453255595e-8 3.186361405731834e-8 1.7415753257198738e-8 1.6983767894425003e-8 1.5849965265721387e-8 2.3112109659426906e-8
          2.299012513412689e-8 2.200265932552222e-8 1.5053958367185583e-8 2.0828106551963958e-8 1.3683146319251378e-8 1.9150097518699108e-8
          3.28932821259264e-8 3.3913412676234993e-8 3.4933543226543584e-8 3.575817122211715e-8 4.373306502446597e-8 3.866357485964802e-8
          4.337003604468261e-8 4.1086021481700985e-8 4.5770641575820635e-8 4.6384518276536974e-8 4.964093643098688e-8 3.234611353354161e-8
          3.3180291555229574e-8 3.1203366676052924e-8 3.186991529523921e-8 3.401446957691753e-8 3.186771982003754e-8 3.362000559895119e-8
          3.584221792155336e-8 3.547045058179048e-8 4.0112482844130566e-8 2.9402958665463714e-8 2.9997091030983525e-8 2.9641644715002048e-8
          3.2514832714156794e-8 3.465065558022092e-8 3.2808533383814974e-8 3.680315644713501e-8 2.798482293458137e-8 2.1598764437881565e-8
          4.2593264689003083e-8 3.745795999503666e-8 4.097794133392553e-8 2.5963468824689193e-8 1.9820088653158944e-8 3.345555222286804e-8
          2.9148459749809e-8 2.5574374737102664e-8 3.5942065153473e-8 3.891586729692041e-8 3.520904380039869e-8 3.8327061380001743e-8
          4.4003392528280704e-8 4.3769959522309583e-8 3.772825130010553e-8 4.212901039282938e-8 4.191801237288369e-8 4.830122761815533e-8
          3.384606480470801e-8 3.7203992431546906e-8 3.2616359535133285e-8 3.5771927561185974e-8 4.246363693710452e-8 3.9714891491221674e-8
          3.668763595738944e-8 4.028210009666523e-8 3.784672688377769e-8 4.66908889098083e-8 4.5519236760615206e-8 4.40126210915073e-8
          4.4921357905036824e-8 3.730215386286024e-8 5.0512446233822624e-8 4.994247573967838e-8 4.816988321644845e-8 4.112645919933941e-8
          3.6634411625971117e-8 3.215648844290121e-8 2.7654404983835664e-8 4.760416118549174e-8 4.331288477354217e-8 3.9049018832919876e-8
          4.114381024718627e-8 1.582206950857158e-8 1.1010019488549887e-8 2.014008055139832e-8 1.4163576312450662e-8 9.602308411748413e-9
          7.189167542266718e-9 1.8212969006579513e-8 1.4695608729024918e-8 1.2336371196607133e-8 7.1323803485799735e-9 9.011978386532207e-9
          6.148342898264654e-9 4.445235474764236e-9 7.860958306929024e-9 5.815695250239098e-9 2.5047036557652814e-8 1.718468093035238e-8
          3.796171173971672e-8 3.1893260098449445e-8 3.3318187263863744e-8 2.2760164422873512e-8 1.8541572539019343e-8 1.5237007056836634e-8
          1.1836659948624184e-8 2.7354509414375282e-8 2.2554089172520415e-8 1.7843859713233408e-8 1.0910203904760491e-8 7.318029853660205e-9
          1.2762936896681612e-8 9.627871845117444e-9 7.281999045831731e-9 6.192252352322303e-9 4.348386330490626e-9 1.134892058797919e-8
          8.730205106165012e-9 7.338340461452176e-9 3.3425590160375186e-8 4.094371986781101e-8 5.139681689378979e-8 3.60593370690249e-8
          5.2999765832048504e-8 5.013029984364025e-8 5.5746987570270486e-8 1.198882848700843e-8 2.9121452473418654e-8 5.25549612061231e-8
          2.6265243632060484e-8 5.722677069592793e-8 5.4362923615030676e-8 5.748544318061341e-8 3.582240613878021e-8 4.3145112501698855e-8
          3.786959445301456e-8 4.427182470323037e-8 5.2714129249871526e-8 5.243029662584938e-8 2.8668986861237867e-8 4.028102821479303e-8
          4.384020018403296e-8 5.5680221546266166e-8 3.8758875793722037e-8 4.3569064517817914e-8 3.684646695431281e-8 4.074158609217203e-8
          5.0633905049318025e-8 4.766991088214927e-8 3.807722785957541e-8 4.516892450375075e-8 4.338532435570607e-8 5.4117344410431275e-8
          5.430139964622861e-8 5.4221223271638776e-8 5.030938445378604e-8 4.8829424771830096e-8 5.731310036630141e-8 5.748047945218407e-8
          5.3894384615065175e-8 5.2404293224161024e-8 4.8479229897293735e-8 4.5197568840707596e-8 3.933421398146791e-8 5.581852478292086e-8
          5.207892994738294e-8 4.954705859009764e-8 1.9703562007686726e-8 3.495435038813867e-8 2.8872786634362146e-8 4.109304727663768e-8
          5.586342321122119e-8 5.72939049112393e-8 1.6200291431325462e-8 3.2258166039440074e-8 3.928242266565518e-8 5.5112929931966396e-8
          3.575234727001662e-8 4.487765230353851e-8 3.893519781605538e-8 4.472484958628111e-8 5.6209988489828474e-8 5.267809181926167e-8
          3.433996023532759e-8 4.433312781302641e-8 4.504495961322148e-8 5.6839479027024355e-8 5.9077425841533937e-8 5.9425737977263354e-8
          5.5495724912354164e-8 5.4849799161331246e-8 5.955176660750439e-8 6.00157458073576e-8 5.599901191555144e-8 5.7835615255810656e-8
          5.417061092973034e-8 5.189111897647881e-8 4.632972752400696e-8 5.8485210508215267e-8 5.484370254926443e-8 5.26224433012733e-8
          4.345478217393055e-8 3.831671211234484e-8 4.68225777462928e-8 4.84365594025957e-8 4.374496701456858e-8 4.899371741328063e-8
          4.061309824338729e-8 3.654400739174568e-8 3.424978723653416e-8 2.5256906375764848e-8 4.472505987965384e-8 4.072722087930365e-8
          3.6820177737596e-8 3.170035693440695e-8 2.6382565496573478e-8 2.0094569921017917e-8 1.6462222228929276e-8 3.547837501490734e-8
          2.9595705478522013e-8 2.2183683067560116e-8 1.4630105204663905e-8 9.890141399294958e-9 1.6182826567595862e-8 1.2998666649375353e-8
          1.0050666427223579e-8 8.431792308400777e-9 6.023600813035856e-9 1.4371728602074709e-8 1.1141088272283342e-8 9.329448388637959e-9
          4.68778995220423e-8 4.327349195774198e-8 3.939749324859237e-8 2.9343050542461588e-8 4.7570164031834755e-8 4.4141652878822247e-8
          4.033601823119733e-8 3.8020222580985745e-8 3.175143669527641e-8 2.3697773474943446e-8 1.9590438374723408e-8 3.8909898497390673e-8
          3.2509742237564864e-8 2.4234178824342815e-8 1.716957265179136e-8 1.1593599494071743e-8 1.7558918243690084e-8 1.5269140766378183e-8
          1.18700893530077e-8 9.908228119835925e-9 7.119693029961693e-9 1.5605245923481802e-8 1.2125196979916767e-8 1.0123530222227532e-8
          2.8564460068171066e-8 2.929837610949778e-8 2.8717746381528095e-8 2.4208604601410156e-8 1.7659983754382963e-8 3.1532377686341816e-8
          3.370354785542832e-8 3.532595252224169e-8 3.2106850483371365e-8 3.569022785735465e-8 4.030216783594769e-8 3.085123684713128e-8
          2.2558933472855943e-8 3.721447392356723e-8 2.7655073622950423e-8 1.1640384890268705e-8 1.4813380988955793e-8 9.121785164056592e-9
          1.806368985459386e-8 1.1099663374377437e-8 5.377120214431687e-9 6.5338202778637946e-9 3.746193336957608e-9 3.3115558209210846e-8
          3.7223074743812294e-8 4.3774946660774885e-8 3.50604125361727e-8 3.9132877792162895e-8 4.628799370759129e-8 4.244702472970997e-8
          3.237480419101754e-8 4.624479865720643e-8 3.621270519904471e-8 3.6625747942519695e-8 4.070257050504831e-8 4.788806896451224e-8
          3.7178579672805986e-8 4.12979314552877e-8 4.844331235673703e-8 4.852615004967352e-8 3.875649520532102e-8 4.927080360287605e-8
          3.9645436644733476e-8 2.1137548657131944e-8 1.2926001014846651e-8 2.3690882475497267e-8 1.4422312027624698e-8 7.605761486944035e-9
          4.350449289601395e-9 8.48247229587831e-9 4.845302788548722e-9 2.539217237691895e-8 1.541547318274701e-8 2.5994064169344738e-8
          1.5765257556669942e-8 9.059763100028346e-9 5.171594365179195e-9 9.261658625272496e-9 5.285638764823728e-9 4.519489613826719e-9
          3.0222718806381263e-9 5.348175106052982e-9 3.797215727632556e-9 2.5829468546959758e-9 2.432366665575599e-9 1.5236681642747363e-9
          4.508417973931141e-9 3.091136208350974e-9 2.8712883350656108e-9 1.8752922233316585e-9 1.2455534157709447e-9 2.177249536505095e-9
          1.5003405141104048e-9 9.106907214800188e-10 9.617880222511018e-10 5.408110952374935e-10 1.7507182212807654e-9 1.0742024173677511e-9
          1.1142730115656632e-9 7.454291453764463e-10 6.081733364726415e-10 8.536594067389674e-10 5.754230318816633e-10 3.1635484882581417e-10
          4.4979058631306043e-10 2.2580283151789114e-10 6.608016272149767e-10 3.6601641707312296e-10 5.162837283971458e-10 6.10320430778588e-9
          4.039065927860859e-9 6.7081854653156585e-9 5.160634863903287e-9 3.5617358384855674e-9 3.270187068026965e-9 2.0781000038439167e-9
          5.687326112944957e-9 3.94597543840915e-9 3.5937376151214143e-9 2.4472682469564285e-9 1.6096810172307453e-9 2.6689171389019347e-9
          1.9759939977130515e-9 1.223242968341828e-9 1.2500630569116286e-9 7.14066848973891e-10 2.1602295204111762e-9 1.3443170392439489e-9
          1.3610644590721489e-9 7.09592332137529e-9 4.693127807564952e-9 7.248045897629402e-9 6.02855908297859e-9 4.198481431192021e-9
          3.809129642700455e-9 2.4356208717259205e-9 6.156018570383766e-9 4.286576905857104e-9 3.891254938506454e-9 2.826229820335733e-9
          1.8499072069284394e-9 2.8924202935368916e-9 2.2878138314532183e-9 1.4245125564929532e-9 1.4386840747516091e-9 8.252988360147241e-10
          2.338245918303219e-9 1.4527731427319959e-9 1.4694480384478044e-9 9.480400790643077e-10 7.788868305856266e-10 1.0249984436719494e-9
          7.359807538602472e-10 4.1055403231195493e-10 5.749335999878077e-10 2.884650336913143e-10 7.971435203210661e-10 4.466040744320836e-10
          6.226031932451851e-10 1.0803777452159391e-9 8.90505720487167e-10 1.1034557162569935e-9 8.401569865447556e-10 4.706978189198013e-10
          6.561287882852494e-10 3.284180143565161e-10 8.571918377532034e-10 4.792569321430139e-10 6.692491981365513e-10 2.119807679995437e-9
          1.1969447584009496e-9 6.768071605530213e-10 3.8353843947038844e-10 1.8330192734856692e-10 1.3126488379144013e-10 2.1343800496427365e-10
          1.505162982041774e-10 2.4541504317871823e-9 1.378411810522714e-9 2.7273960526295984e-9 1.526222033469424e-9 7.74484368004208e-10
          4.359316888537781e-10 8.535997084250339e-10 4.781467439627164e-10 2.906995444276396e-9 1.6232077927255244e-9 2.9696861341663845e-9
          1.657043802632381e-9 9.054638001093104e-10 5.058277242003531e-10 9.235643965461456e-10 5.154974496310738e-10 2.404853750738813e-10
          1.6841206448226774e-10 2.623669981926095e-10 1.8301042332845426e-10 2.7667221840966793e-10 1.924925770386244e-10 2.816542587738368e-10
          1.9577246127342996e-10 2.3024464683254002e-7 1.3722118459187064e-7 2.1730542371909884e-8 6.7396828597552e-8 2.473865297146981e-8
          1.0207098570198448e-7 2.209785346503821e-9 2.2568716449710996e-9 6.440292579105892e-9 2.5597604495869594e-9 2.5817954981566265e-9
          7.494165416942261e-9 1.2501323091293933e-7 6.583081032701882e-8 5.969662656282772e-8 1.1377123266906962e-7 4.265510689172776e-8
          8.767221585269402e-8 8.222528063543735e-8 2.07717766266127e-7 4.5443436222484214e-8 9.64866992629632e-8 2.191880008148076e-8
          1.5251722142784764e-7 3.341561175290733e-8 7.647368043435338e-8 1.58722162812078e-8 2.9270669987096785e-8 7.68698178147031e-9
          1.4333297371243161e-8 2.791179776651175e-9 4.699908145892153e-9 3.4884354480086878e-9 5.843396355798061e-9 5.208737174468859e-10
          8.515996046612028e-10 2.4222138322383408e-9 3.0162408683151095e-9 2.3142203849855095e-10 3.167182420230998e-10 2.516505725664427e-10
          4.1055325986966646e-10 2.9788839687188427e-10 4.827211187093691e-10 3.154549761015445e-10 5.097520804326661e-10 1.235116214381046e-8
          1.19634734164499e-8 1.3004571825782539e-8 1.01973075537605e-8 9.969949814708138e-9 1.465504584482539e-8 1.4496887773794476e-8
          1.0980961780531142e-8 9.060353582816309e-9 1.347592542582709e-8 2.022514303039087e-8 2.0182536816089253e-8 1.905870962154225e-8
          9.318361161911936e-9 1.0402034483677823e-8 7.3954282161488645e-9 1.1192474947746995e-8 7.061832359776776e-9 1.0455834843981577e-8
          1.1631528650095983e-8 5.442431202216893e-9 8.295227227250511e-9 1.602224966638036e-8 1.4692548064722672e-8 1.197028508528961e-8
          2.669935225883239e-8 2.7019169899951995e-8 2.605205737816265e-8 2.2024686584787708e-8 1.6426730127279702e-8 1.0516345816188602e-8
          1.1853262647304872e-8 8.143108392960354e-9 1.1197540074498491e-8 7.110142101134319e-9 5.230992237248366e-9 4.577886471197541e-9
          5.346646389650337e-9 3.2549499957391155e-9 2.9862125864271616e-9 3.9527150806833814e-9 4.739409531210011e-9 1.9878936470698452e-9
          2.6838611658953283e-9 5.035172151065549e-9 3.48572106605684e-9 2.287647947346171e-8 2.2955048467109654e-8 1.864763354305639e-8
          1.863770249641871e-8 2.403463892196871e-8 2.4276756554510974e-8 2.180554275024456e-8 1.755650428152008e-8 2.3215217763998184e-8
          1.81930071036207e-8 1.445059130032575e-8 1.9269241041304383e-8 1.3272239063546374e-8 1.0292081182566723e-8 1.3831180878367789e-8
          2.8867646494953704e-8 2.9783095392594272e-8 2.9355713406971455e-8 3.1125507532319505e-8 3.330766751753842e-8 3.481558570046695e-8
          2.462949499195632e-8 1.7704546188604786e-8 3.0105403011498985e-8 2.1692844256769982e-8 6.227504252681914e-9 3.843084126620856e-9
          8.729007873225587e-9 5.372640733931697e-9 6.554808565472687e-9 8.858769590879178e-9 7.164754099982025e-9 3.903894923004535e-9
          5.269441834190931e-9 2.3006739964841e-9 3.1907471103013168e-9 1.3581334942290529e-9 1.8612637116392526e-9 4.235340631670259e-9
          2.450063717866087e-9 1.1384267755088563e-8 6.780517201436345e-9 1.3941189393220692e-8 8.323094872737434e-9 3.01600423221213e-9
          3.866302517897548e-9 3.0938282706718533e-9 1.695267389459437e-9 2.157729448740976e-9 4.7368778218641815e-9 2.6308038872886486e-9
          3.133841304264366e-8 3.481623882250179e-8 3.879541328247654e-8 3.137801689665076e-8 3.558022374834103e-8 4.1356695879044244e-8
          3.4968867401652873e-8 2.5443571654937507e-8 3.866312868711446e-8 2.8538933056537924e-8 3.1806588284066345e-8 3.616525893594837e-8
          4.2791344466800975e-8 3.212282123680822e-8 3.644319401923178e-8 4.326292951997728e-8 4.0961816142039776e-8 3.059907961416238e-8
          4.174399580403341e-8 3.1325534793298e-8 1.6312838497367552e-8 9.752955866044847e-9 1.8267166557545284e-8 1.0917528770513737e-8
          5.5475844203592295e-9 3.0715773573146914e-9 6.211650758614088e-9 3.4326900720691147e-9 1.957368265589353e-8 1.1680888274532495e-8
          2.003722569989663e-8 1.1947028538541242e-8 6.648907109454566e-9 3.67034017049338e-9 6.801698337318035e-9 3.753336478587858e-9
          3.0795872742695917e-9 3.672926282310676e-9 2.0798841712250216e-9 1.9861416674107838e-9 1.2354118689227152e-9 1.2390606853968909e-9
          1.5552437099856702e-9 7.449292464433664e-10 8.007768374588656e-10 4.465575166571239e-10 4.836026373441869e-10 6.289768827987536e-10
          2.639482202154635e-10 3.7795263949951406e-10 1.4036900476162333e-9 1.759245028165316e-9 8.050522907767372e-10 1.0002638742169952e-9
          1.1937302396464399e-9 1.4456481138476483e-9 6.598321664486063e-10 7.929258019385885e-10 4.6490444413103334e-10 5.708850691707907e-10
          2.6780195873347863e-10 3.2613334152205434e-10 3.662364113200654e-10 4.3584146348172733e-10 2.0132595911481134e-10 2.391935967342215e-10
          1.5169971969171749e-10 1.981060537968351e-10 1.0037324660028127e-10 1.1114329976423381e-10 1.1073641386193735e-10 8.156597894722485e-11
          1.3094850327552246e-10 1.6795971324036679e-9 9.157911259252133e-10 1.870926039938728e-9 1.015907058767047e-9 5.00185735402486e-10
          2.727937182203514e-10 5.522373752198241e-10 2.9983629248192486e-10 1.996737537936302e-9 1.08159116503373e-9 2.0406544468844794e-9
          1.1044949118018659e-9 5.863685381317841e-10 3.175049644647649e-10 5.982603947865594e-10 3.236525436429465e-10 1.4794209240924725e-10
          1.0388915171173285e-10 1.6179424848316365e-10 1.7079913923100455e-10 1.1905452222886222e-10 1.7393763798762601e-10
        </DataArray>
        <DataArray type="Float64" Name="gradient_matprop_error" format="ascii" RangeMin="0" RangeMax="0">
          0 0 0 0 0 0
          0 0 0 0 0 0
          0 0 0 0 0 0
          0 0 0 0 0 0
          0 0 0 0 0 0
          0 0 0 0 0 0
          0 0 0 0 0 0
          0 0 0 0 0 0
          0 0 0 0 0 0
          0 0 0 0 0 0
          0 0 0 0 0 0
          0 0 0 0 0 0
          0 0 0 0 0 0
          0 0 0 0 0 0
          0 0 0 0 0 0
          0 0 0 0 0 0
          0 0 0 0 0 0
          0 0 0 0 0 0
          0 0 0 0 0 0
          0 0 0 0 0 0
          0 0 0 0 0 0
          0 0 0 0 0 0
          0 0 0 0 0 0
          0 0 0 0 0 0
          0 0 0 0 0 0
          0 0 0 0 0 0
          0 0 0 0 0 0
          0 0 0 0 0 0
          0 0 0 0 0 0
          0 0 0 0 0 0
          0 0 0 0 0 0
          0 0 0 0 0 0
          0 0 0 0 0 0
          0 0 0 0 0 0
          0 0 0 0 0 0
          0 0 0 0 0 0
          0 0 0 0 0 0
          0 0 0 0 0 0
          0 0 0 0 0 0
          0 0 0 0 0 0
          0 0 0 0 0 0
          0 0 0 0 0 0
          0 0 0 0 0 0
          0 0 0 0 0 0
          0 0 0 0 0 0
          0 0 0 0 0 0
          0 0 0 0 0 0
          0 0 0 0 0 0
          0 0 0 0 0 0
          0 0 0 0 0 0
          0 0 0 0 0 0
          0 0 0 0 0 0
          0 0 0 0 0 0
          0 0 0 0 0 0
          0 0 0 0 0 0
          0 0 0 0 0 0
          0 0 0 0 0 0
          0 0 0 0 0 0
          0 0 0 0 0 0
          0 0 0 0 0 0
          0 0 0 0 0 0
          0 0 0 0 0 0
          0 0 0 0 0 0
          0 0 0 0 0 0
          0 0 0 0 0 0
          0 0 0 0 0 0
          0 0 0 0 0 0
          0 0 0 0 0 0
          0 0 0 0 0 0
          0 0 0 0 0 0
          0 0 0 0 0 0
          0 0 0 0 0 0
          0 0 0 0 0 0
          0 0 0 0 0 0
          0 0 0 0 0 0
          0 0 0 0 0 0
          0 0 0 0 0 0
          0 0 0 0 0 0
          0 0 0 0 0 0
          0 0 0 0 0 0
          0 0 0 0 0 0
          0 0 0 0 0 0
          0 0 0 0 0 0
          0 0 0 0 0 0
          0 0 0 0 0 0
          0 0 0 0 0 0
          0 0 0 0 0 0
          0 0 0 0 0 0
          0 0 0 0 0 0
          0 0 0 0 0 0
          0 0 0 0 0 0
          0 0 0 0 0 0
          0 0 0 0 0 0
          0 0 0 0 0 0
          0 0 0 0 0 0
          0 0 0 0 0 0
          0 0 0 0 0 0
          0 0 0 0 0 0
          0 0 0 0 0 0
          0 0 0 0 0 0
          0 0 0 0 0 0
          0 0 0 0 0 0
          0 0 0 0 0 0
          0 0 0 0 0 0
          0 0 0 0 0 0
          0 0 0 0 0 0
          0 0 0 0 0 0
          0 0 0 0 0 0
          0 0 0 0 0 0
          0 0 0 0 0 0
          0 0 0 0 0 0
          0 0 0 0 0 0
          0 0 0 0 0 0
          0 0 0 0 0 0
          0 0 0 0 0 0
          0 0 0 0 0 0
          0 0 0 0 0 0
          0 0 0 0 0 0
          0 0 0 0 0 0
          0 0 0 0 0 0
          0 0 0 0 0 0
          0 0 0 0 0 0
          0 0 0 0 0 0
          0 0 0 0 0 0
          0 0 0 0 0 0
          0 0 0 0 0 0
          0 0 0 0 0 0
          0 0 0 0 0 0
          0 0 0 0 0
        </DataArray>
        <DataArray type="Float64" Name="initial_marker" format="ascii" RangeMin="0" RangeMax="2">
          2 2 2 2 2 2
          2 2 2 2 2 2
          2 2 2 2 2 2
          2 2 2 2 2 2
          2 2 2 2 2 2
          2 2 2 2 2 2
          2 2 2 2 2 2
          2 2 2 2 2 2
          2 2 2 2 2 2
          2 2 2 2 2 2
          2 2 2 2 2 2
          2 2 2 0 2 2
          2 2 2 2 2 2
          2 2 1 0 1 0.5
          0 0 0 0.5 0 0
          2 2 2 2 2 2
          2 2 2 2 2 2
          2 2 2 2 2 2