<?xml version="1.0"?>
<VTKFile type="UnstructuredGrid" version="0.1" byte_order="LittleEndian" header_type="UInt32" compressor="vtkZLibDataCompressor">
  <UnstructuredGrid>
    <Piece NumberOfPoints="405" NumberOfCells="208">
      <PointData>
        <DataArray type="Int32" Name="libmesh_node_id" format="ascii" RangeMin="144" RangeMax="3746">
          144 145 146 147 148 149
          150 151 168 169 170 171
          180 181 182 183 184 185
          186 187 188 189 190 191
          204 205 206 207 208 209
          216 217 218 219 220 221
          222 223 224 225 226 227
          240 241 242 243 244 245
          252 253 254 255 256 257
          258 259 260 261 263 276
          277 278 279 280 281 288
          289 290 291 292 293 294
          295 296 297 312 313 314
          315 316 3327 3328 3331 3334
          3335 3336 3337 3338 3339 3340
          3341 3342 3343 3344 3345 3346
          3347 3348 3349 3350 3351 3352
          3353 3354 3355 3356 3357 3358
          3359 3360 3361 3362 3363 3364
          3365 3366 3367 3368 3369 3370
          3371 3372 3373 3374 3375 3376
          3377 3378 3379 3380 3381 3382
          3383 3384 3385 3386 3387 3388
          3389 3390 3391 3392 3393 3394
          3395 3396 3397 3398 3399 3400
          3401 3402 3403 3404 3405 3406
          3407 3408 3409 3410 3411 3412
          3413 3414 3415 3416 3417 3418
          3419 3420 3421 3422 3423 3424
          3425 3426 3427 3428 3505 3506
          3507 3508 3509 3510 3511 3512
          3513 3514 3515 3516 3517 3518
          3519 3520 3521 3522 3523 3524
          3525 3526 3527 3528 3529 3530
          3531 3532 3533 3534 3535 3536
          3537 3538 3539 3540 3541 3542
          3543 3544 3545 3546 3547 3548
          3549 3550 3551 3552 3553 3554
          3555 3556 3557 3558 3559 3560
          3561 3562 3563 3564 3565 3566
          3567 3568 3569 3570 3571 3572
          3573 3574 3575 3576 3577 3578
          3579 3580 3581 3582 3583 3584
          3585 3586 3587 3588 3589 3590
          3591 3592 3593 3594 3595 3596
          3597 3598 3599 3600 3601 3602
          3603 3604 3605 3606 3607 3608
          3609 3610 3611 3612 3613 3614
          3615 3616 3617 3618 3619 3620
          3621 3622 3623 3624 3625 3626
          3627 3628 3629 3630 3631 3632
          3633 3634 3635 3636 3637 3638
          3639 3640 3641 3642 3643 3644
          3645 3646 3647 3648 3649 3650
          3651 3652 3653 3654 3655 3656
          3657 3658 3659 3660 3661 3662
          3663 3664 3665 3666 3667 3668
          3669 3670 3671 3672 3673 3674
          3675 3676 3677 3678 3679 3680
          3681 3682 3683 3684 3685 3686
          3687 3688 3689 3690 3691 3692
          3693 3694 3695 3696 3697 3698
          3699 3700 3701 3702 3703 3704
          3705 3706 3707 3708 3709 3710
          3711 3721 3722 3723 3724 3725
          3726 3727 3728 3729 3730 3737
          3738 3739 3740 3741 3742 3743
          3744 3745 3746
        </DataArray>
        <DataArray type="Float64" Name="bounds" format="ascii" RangeMin="0" RangeMax="0">
          0 0 0 0 0 0
          0 0 0 0 0 0
          0 0 0 0 0 0
          0 0 0 0 0 0
          0 0 0 0 0 0
          0 0 0 0 0 0
          0 0 0 0 0 0
          0 0 0 0 0 0
          0 0 0 0 0 0
          0 0 0 0 0 0
          0 0 0 0 0 0
          0 0 0 0 0 0
          0 0 0 0 0 0
          0 0 0 0 0 0
          0 0 0 0 0 0
          0 0 0 0 0 0
          0 0 0 0 0 0
          0 0 0 0 0 0
          0 0 0 0 0 0
          0 0 0 0 0 0
          0 0 0 0 0 0
          0 0 0 0 0 0
          0 0 0 0 0 0
          0 0 0 0 0 0
          0 0 0 0 0 0
          0 0 0 0 0 0
          0 0 0 0 0 0
          0 0 0 0 0 0
          0 0 0 0 0 0
          0 0 0 0 0 0
          0 0 0 0 0 0
          0 0 0 0 0 0
          0 0 0 0 0 0
          0 0 0 0 0 0
          0 0 0 0 0 0
          0 0 0 0 0 0
          0 0 0 0 0 0
          0 0 0 0 0 0
          0 0 0 0 0 0
          0 0 0 0 0 0
          0 0 0 0 0 0
          0 0 0 0 0 0
          0 0 0 0 0 0
          0 0 0 0 0 0
          0 0 0 0 0 0
          0 0 0 0 0 0
          0 0 0 0 0 0
          0 0 0 0 0 0
          0 0 0 0 0 0
          0 0 0 0 0 0
          0 0 0 0 0 0
          0 0 0 0 0 0
          0 0 0 0 0 0
          0 0 0 0 0 0
          0 0 0 0 0 0
          0 0 0 0 0 0
          0 0 0 0 0 0
          0 0 0 0 0 0
          0 0 0 0 0 0
          0 0 0 0 0 0
          0 0 0 0 0 0
          0 0 0 0 0 0
          0 0 0 0 0 0
          0 0 0 0 0 0
          0 0 0 0 0 0
          0 0 0 0 0 0
          0 0 0 0 0 0
          0 0 0
        </DataArray>
        <DataArray type="Float64" Name="gradient_error" format="ascii" RangeMin="1.4793100216040565e-9" RangeMax="0.000001324724955369707">
          1.7648527345424942e-8 1.707988877467463e-8 9.924575673349658e-9 1.0349937733526325e-8 1.5107023098854398e-8 8.624703616372539e-9
          1.0140308572191348e-8 5.809809296897702e-9 2.7692625720246913e-9 3.051348121627707e-9 2.14238413389068e-9 1.4793100216040565e-9
          1.0295361633319619e-7 9.674603057364545e-8 5.7737948742450756e-8 6.188775175599784e-8 7.966704392413027e-8 4.684965207194775e-8
          5.0516286209381534e-8 2.98592759995492e-8 1.9356392155023977e-8 1.2392308792523958e-8 5.295804732955637e-9 4.186538842024478e-9
          1.8729866911256057e-8 2.0821887178799496e-8 1.4032260219765203e-8 9.202265789716854e-9 5.428225430023937e-9 3.077272951093319e-9
          5.812861839158983e-7 5.349680348165854e-7 3.250220339214929e-7 3.5533337665063905e-7 4.17092370882385e-7 2.4997912099574303e-7
          1.9620737933881406e-7 1.209576052983967e-7 2.4816970898893307e-8 2.32229557351324e-8 1.049187344411615e-8 1.0228370612905232e-8
          1.150760330264004e-7 1.2938056938537978e-7 8.286587110910113e-8 5.0280099094344276e-8 2.6585058920902596e-8 1.4392580722408548e-8
          0.0000010502620554523618 0.000001038865721354634 5.182865694679167e-7 5.463366051372746e-7 9.844965955197291e-7 4.4616105148892194e-7
          5.497082658094207e-7 3.1137825145523297e-7 1.1133250014612877e-7 1.910428672545913e-7 1.3700456312039354e-7 1.14455121364474e-7
          1.3068631036011343e-7 7.993990192046566e-8 4.772682955266413e-8 2.605129834492956e-8 1.4413828286026235e-8 9.90795858374619e-7
          6.04085229423564e-7 7.808041987594792e-7 7.51526244638607e-7 1.2052663922555542e-7 8.240772158953061e-7 1.6665260032172766e-7
          2.1432920872254044e-7 2.596848423767915e-7 1.6997807009289665e-7 2.8920063970133983e-8 3.986835483812819e-8 1.0781528617581501e-8
          1.476393343351943e-8 2.6141628660795933e-8 8.204003231432628e-9 3.355941988162441e-8 2.2258791295039807e-8 1.09581627084552e-8
          0.000001132636046556832 9.438195279870524e-7 9.31958535355101e-7 0.0000010521983507741682 0.000001082760146206176 0.0000010126018391526208
          9.89654856547336e-7 9.683917573173288e-7 8.941457168225834e-7 9.337446999521453e-7 4.874562527395139e-7 6.242176591617717e-7
          6.197458492884664e-7 6.329101207099483e-7 0.00000103288424585552 0.0000010813841503181892 0.0000010473511777395709 9.010618027968753e-7
          7.609790655840296e-7 0.000001216121042781155 9.94809096489424e-7 7.025163991052006e-7 8.566618566412255e-7 0.0000010237258484083954
          7.445974600605209e-7 8.971850678425976e-7 4.799897891735689e-7 6.408067823857069e-7 6.477885798465969e-7 1.0674443570326425e-7
          7.189405735822474e-7 7.728234813256746e-7 8.016237755978448e-7 0.000001324724955369707 0.0000010478424156135487 7.906664679833079e-7
          7.792374698096392e-7 5.183540859693279e-7 5.416113786536094e-7 4.980933554482969e-7 4.547484309207719e-7 4.891714669397179e-7
          3.134930484946276e-7 1.3933897658445646e-7 5.235831707076723e-7 2.6628924533040113e-7 5.327359804080296e-7 1.2240227988272897e-7
          2.385695107592921e-7 2.934748822303274e-7 3.601743959886964e-7 2.1603924096124003e-7 3.3489830651536127e-7 3.64876979197292e-7
          2.7116456385026706e-7 2.84332609688159e-7 2.5082504863050106e-7 2.0657485805839882e-7 3.046174983296822e-7 3.5108907532473944e-7
          1.9600369085359623e-7 9.017714520864142e-8 1.8565255478888522e-7 3.8186673987084346e-7 3.656773391139843e-7 2.0731916225024666e-7
          2.1279220458491192e-7 3.3740804654674516e-7 4.073085180680934e-7 1.395990095430115e-7 1.2830940140050864e-7 1.322475280594773e-7
          1.7138644156418062e-7 1.758773507824435e-7 1.1838803178678036e-7 1.6021049590519333e-7 3.6709306739262576e-8 3.67810969038835e-8
          3.9374365308457615e-8 3.013416954304994e-8 2.1446348172785264e-7 2.1950717350540968e-7 2.0203296002360634e-7 3.685288706850442e-8
          1.055956438740708e-7 1.456578911303084e-7 9.138843364973111e-8 1.2870553792774095e-7 2.4708859598697212e-8 2.1875395855401897e-8
          1.4625399438286301e-8 1.8572013838654597e-7 1.6602264220575076e-7 1.904193211210658e-8 2.7855818843226953e-8 2.1653036855686124e-8
          3.1033583141205635e-8 7.16772007353169e-8 6.798118339758446e-8 4.8090545262135906e-8 5.3089354711027256e-8 1.282592847826396e-8
          5.523383968542339e-8 3.617651137118124e-8 1.5450254868145294e-8 2.8199907126687344e-8 3.45015086867376e-8 1.7119183056939098e-8
          1.7421244310758845e-8 1.1593897124664863e-8 3.447549088629447e-8 2.269975641096333e-8 5.7665499385708795e-9 1.0924021935632194e-8
          7.610351797549508e-8 1.1305624427264542e-7 6.124549263960382e-8 1.0112840039774892e-7 1.3670049966836859e-8 1.1230790380210782e-8
          1.275179360897027e-8 1.5000897056979573e-7 1.41011308155894e-7 8.791530793584703e-9 4.791331801208495e-8 8.731828654142696e-8
          3.456145119843394e-8 6.908953173795272e-8 9.350369061929649e-9 1.570825194751924e-8 1.717726004299089e-8 1.2672325507076898e-7
          1.0361761227747152e-7 2.2066134833108828e-8 2.153869732972503e-8 4.892606853205806e-8 6.8790791835275074e-9 1.6991334634127785e-8
          7.63134397343911e-8 2.7103590084728068e-8 1.6883151084221045e-7 1.6621071832766963e-7 1.5287232626937187e-7 1.4522481196089202e-7
          1.4400280651865517e-7 1.5476966873022937e-7 1.4882299325419298e-7 1.8754589124029804e-7 1.4782809556625526e-7 1.6721703970341268e-7
          1.635899258131288e-7 1.6553653094180352e-7 1.5242117454749394e-7 1.866059838405701e-7 1.1917410219509987e-7 1.4332861913278906e-7
          1.4477366023901412e-7 1.468881881665273e-7 1.6748313607047828e-7 2.0486079826566757e-7 2.0260109018281159e-7 1.585752192670509e-7
          1.8010149914146476e-7 2.1741670620823136e-7 1.7048107654255543e-7 1.9352908457416877e-7 2.003413820999556e-7 2.0162777901587864e-7
          2.1657709260578217e-7 1.1228964026843424e-7 1.5760190810011797e-7 1.6964146294010624e-7 2.029141759318017e-7 2.3751286874152005e-7
          2.3387298394857746e-7 1.8335890402432715e-7 2.0839854549684655e-7 2.5196944965103816e-7 1.979734785906826e-7 2.236688590093628e-7
          2.3023309915563485e-7 2.3343818696936596e-7 2.3309499335875404e-7 1.2920493930713427e-7 1.8292410704511564e-7 1.9536826836768737e-7
          2.3664327478309705e-7 2.783941184642285e-7 2.721952630298936e-7 2.15071657520498e-7 2.393610008502506e-7 2.606857770647596e-7
          2.3162729123962322e-7 2.5635745958652997e-7 2.2758848119584957e-7 2.3800802806275354e-7 2.5584417203831293e-7 1.5174919657676754e-7
          2.065267386706076e-7 2.2136750903965167e-7 2.484275749296575e-7 1.6493950858886044e-7 1.6075031552707095e-7 1.841261553410597e-7
          1.808091189555041e-7 1.7116002432074685e-7 1.9005396402788312e-7 1.4069846238158044e-7 1.5588659873661548e-7 1.6106173669083212e-7
          1.495072119125771e-7 2.0331280209325895e-7 2.0086792238393733e-7 2.0894790373501942e-7 1.7107473509165053e-7 1.5428865890575148e-7
          1.4099536796140413e-7 1.5076883968902625e-7 1.9481997355870505e-7 1.954620956081776e-7 1.766162110188287e-7 1.750656753082442e-7
          1.279260411550907e-7 1.974214168416908e-7 1.7905758617093516e-7 1.2770207701705684e-7 1.5777032642947978e-7 1.5531137705778342e-7
          1.6069375550017953e-7 2.7298110134508373e-7 2.6014067743954093e-7 2.7970036134635377e-7 2.3630313662617174e-7 1.3171426137775965e-7
          1.2342150516152194e-7 2.0045841126094572e-7 1.809212923826795e-7 1.210394731345521e-7 2.0348557254876619e-7 1.824440317181721e-7
          1.1512874894528428e-7 1.6138417350441328e-7 1.61402490887578e-7 3.1369482337438827e-7 2.972959955864882e-7 3.150649635928659e-7
          2.639097176429736e-7 2.4727984552478736e-7 2.748759022195061e-7 2.67689900324594e-7 2.972752565339886e-7 2.726147070270044e-7
          2.9040781872678115e-7 1.8523302067001094e-7 2.417075036361835e-7 2.6533892156204926e-7 2.846939970357026e-7 2.944475428507577e-7
          3.243208418408815e-7 3.262448390295937e-7 3.553368111120373e-7 3.093732931208299e-7 3.294943668466311e-7 2.3070800009687064e-7
          2.9247077211262364e-7 3.24392285340135e-7 3.267018088089705e-7 1.7493142296094915e-7 1.9534473235294416e-7 1.780919845526643e-7
          2.0048574677443914e-7 1.3555394311137946e-7 1.4793200956610426e-7 1.4701646883869912e-7 2.157580417449392e-7 2.2287950899621396e-7
          1.603100760208291e-7 1.8053417439892114e-7 2.051080739434783e-7 1.8216743475543634e-7 2.0906895903712978e-7 1.3113353146609765e-7
          1.456637024763021e-7 1.4357796757547832e-7 2.2968197348803544e-7 2.3597048331882325e-7 1.6019387348650648e-7 1.2881915880708177e-7
          1.1879523009660116e-7 2.054987193130904e-7 1.8294601551630102e-7 1.1707293168717302e-7 2.0611441892623177e-7 1.820505842862151e-7
          1.0877130138612057e-7 1.6039331171951168e-7 1.5798674964619843e-7 3.576014882577506e-7 3.336960500777692e-7 3.5302118249761176e-7
          2.8691708175687733e-7 3.638789310129737e-7 3.9120036761689014e-7 4.088686206957106e-7 4.3301912720537617e-7 3.5113208014824937e-7
          3.742491315941242e-7 2.947331653295453e-7 3.6210543601424277e-7 4.070241263007861e-7 3.7789619868763404e-7 1.8283594685624753e-7
          2.1215557766130142e-7 1.8222498250130027e-7 2.1402538119648233e-7 1.2450187223743853e-7 1.4056879924691072e-7 1.36722132919758e-7
          2.414752084663554e-7 2.458257798916644e-7 1.566357262563829e-7
        </DataArray>
        <DataArray type="Float64" Name="gradient_matprop_error" format="ascii" RangeMin="0" RangeMax="0">
          0 0 0 0 0 0
          0 0 0 0 0 0
          0 0 0 0 0 0
          0 0 0 0 0 0
          0 0 0 0 0 0
          0 0 0 0 0 0
          0 0 0 0 0 0
          0 0 0 0 0 0
          0 0 0 0 0 0
          0 0 0 0 0 0
          0 0 0 0 0 0
          0 0 0 0 0 0
          0 0 0 0 0 0
          0 0 0 0 0 0
          0 0 0 0 0 0
          0 0 0 0 0 0
          0 0 0 0 0 0
          0 0 0 0 0 0
          0 0 0 0 0 0
          0 0 0 0 0 0
          0 0 0 0 0 0
          0 0 0 0 0 0
          0 0 0 0 0 0
          0 0 0 0 0 0
          0 0 0 0 0 0
          0 0 0 0 0 0
          0 0 0 0 0 0
          0 0 0 0 0 0
          0 0 0 0 0 0
          0 0 0 0 0 0
          0 0 0 0 0 0
          0 0 0 0 0 0
          0 0 0 0 0 0
          0 0 0 0 0 0
          0 0 0 0 0 0
          0 0 0 0 0 0
          0 0 0 0 0 0
          0 0 0 0 0 0
          0 0 0 0 0 0
          0 0 0 0 0 0
          0 0 0 0 0 0
          0 0 0 0 0 0
          0 0 0 0 0 0
          0 0 0 0 0 0
          0 0 0 0 0 0
          0 0 0 0 0 0
          0 0 0 0 0 0
          0 0 0 0 0 0
          0 0 0 0 0 0
          0 0 0 0 0 0
          0 0 0 0 0 0
          0 0 0 0 0 0
          0 0 0 0 0 0
          0 0 0 0 0 0
          0 0 0 0 0 0
          0 0 0 0 0 0
          0 0 0 0 0 0
          0 0 0 0 0 0
          0 0 0 0 0 0
          0 0 0 0 0 0
          0 0 0 0 0 0
          0 0 0 0 0 0
          0 0 0 0 0 0
          0 0 0 0 0 0
          0 0 0 0 0 0
          0 0 0 0 0 0
          0 0 0 0 0 0
          0 0 0
        </DataArray>
        <DataArray type="Float64" Name="initial_marker" format="ascii" RangeMin="0" RangeMax="0">
          0 0 0 0 0 0
          0 0 0 0 0 0
          0 0 0 0 0 0
          0 0 0 0 0 0
          0 0 0 0 0 0
          0 0 0 0 0 0
          0 0 0 0 0 0
          0 0 0 0 0 0
          0 0 0 0 0 0
          0 0 0 0 0 0
          0 0 0 0 0 0
          0 0 0 0 0 0
          0 0 0 0 0 0
          0 0 0 0 0 0
          0 0 0 0 0 0
          0 0 0 0 0 0
          0 0 0 0 0 0
          0 0 0 0 0 0
          0 0 0 0 0 0
          0 0 0 0 0 0
          0 0 0 0 0 0
          0 0 0 0 0 0
          0 0 0 0 0 0
          0 0 0 0 0 0
          0 0 0 0 0 0
          0 0 0 0 0 0
          0 0 0 0 0 0
          0 0 0 0 0 0
          0 0 0 0 0 0
          0 0 0 0 0 0
          0 0 0 0 0 0
          0 0 0 0 0 0
          0 0 0 0 0 0
          0 0 0 0 0 0
          0 0 0 0 0 0
          0 0 0 0 0 0
          0 0 0 0 0 0
          0 0 0 0 0 0
          0 0 0 0 0 0
          0 0 0 0 0 0
          0 0 0 0 0 0
          0 0 0 0 0 0
          0 0 0 0 0 0
          0 0 0 0 0 0
          0 0 0 0 0 0
          0 0 0 0 0 0
          0 0 0 0 0 0
          0 0 0 0 0 0
          0 0 0 0 0 0
          0 0 0 0 0 0
          0 0 0 0 0 0
          0 0 0 0 0 0
          0 0 0 0 0 0
          0 0 0 0 0 0
          0 0 0 0 0 0
          0 0 0 0 0 0
          0 0 0 0 0 0
          0 0 0 0 0 0
          0 0 0 0 0 0
          0 0 0 0 0 0
          0 0 0 0 0 0
          0 0 0 0 0 0
          0 0 0 0 0 0
          0 0 0 0 0 0
          0 0 0 0 0 0
          0 0 0 0 0 0
          0 0 0 0 0 0
          0 0 0
        </DataArray>
        <DataArray type="Float64" Name="markers_norefine" format="ascii" RangeMin="0" RangeMax="0">
          0 0 0 0 0 0
          0 0 0 0 0 0
          0 0 0 0 0 0
          0 0 0 0 0 0
          0 0 0 0 0 0
          0 0 0 0 0 0
          0 0 0 0 0 0
          0 0 0 0 0 0
          0 0 0 0 0 0
          0 0 0 0 0 0
          0 0 0 0 0 0
          0 0 0 0 0 0
          0 0 0 0 0 0
          0 0 0 0 0 0
          0 0 0 0 0 0
          0 0 0 0 0 0
          0 0 0 0 0 0
          0 0 0 0 0 0
          0 0 0 0 0 0
          0 0 0 0 0 0
          0 0 0 0 0 0
          0 0 0 0 0 0
          0 0 0 0 0 0
          0 0 0 0 0 0
          0 0 0 0 0 0
          0 0 0 0 0 0
          0 0 0 0 0 0
          0 0 0 0 0 0
          0 0 0 0 0 0
          0 0 0 0 0 0
          0 0 0 0 0 0
          0 0 0 0 0 0
          0 0 0 0 0 0
          0 0 0 0 0 0
          0 0 0 0 0 0
          0 0 0 0 0 0
          0 0 0 0 0 0
          0 0 0 0 0 0
          0 0 0 0 0 0
          0 0 0 0 0 0
          0 0 0 0 0 0
          0 0 0 0 0 0
          0 0 0 0 0 0
          0 0 0 0 0 0
          0 0 0 0 0 0
          0 0 0 0 0 0
          0 0 0 0 0 0
          0 0 0 0 0 0
          0 0 0 0 0 0
          0 0 0 0 0 0
          0 0 0 0 0 0
          0 0 0 0 0 0
          0 0 0 0 0 0
          0 0 0 0 0 0
          0 0 0 0 0 0
          0 0 0 0 0 0
          0 0 0 0 0 0
          0 0 0 0 0 0
          0 0 0 0 0 0
          0 0 0 0 0 0
          0 0 0 0 0 0
          0 0 0 0 0 0
          0 0 0 0 0 0
          0 0 0 0 0 0
          0 0 0 0 0 0
          0 0 0 0 0 0
          0 0 0 0 0 0
          0 0 0
        </DataArray>
        <DataArray type="Float64" Name="markers_mustrefine" format="ascii" RangeMin="0" RangeMax="0">
          0 0 0 0 0 0
          0 0 0 0 0 0
          0 0 0 0 0 0
          0 0 0 0 0 0
          0 0 0 0 0 0
          0 0 0 0 0 0
          0 0 0 0 0 0
          0 0 0 0 0 0
          0 0 0 0 0 0
          0 0 0 0 0 0
          0 0 0 0 0 0
          0 0 0 0 0 0
          0 0 0 0 0 0
          0 0 0 0 0 0
          0 0 0 0 0 0
          0 0 0 0 0 0
          0 0 0 0 0 0
          0 0 0 0 0 0
          0 0 0 0 0 0
          0 0 0 0 0 0
          0 0 0 0 0 0
          0 0 0 0 0 0
          0 0 0 0 0 0
          0 0 0 0 0 0
          0 0 0 0 0 0
          0 0 0 0 0 0
          0 0 0 0 0 0
          0 0 0 0 0 0
          0 0 0 0 0 0
          0 0 0 0 0 0
          0 0 0 0 0 0
          0 0 0 0 0 0
          0 0 0 0 0 0
          0 0 0 0 0 0
          0 0 0 0 0 0
          0 0 0 0 0 0
          0 0 0 0 0 0
          0 0 0 0 0 0
          0 0 0 0 0 0
          0 0 0 0 0 0
          0 0 0 0 0 0
          0 0 0 0 0 0
          0 0 0 0 0 0
          0 0 0 0 0 0
          0 0 0 0 0 0
          0 0 0 0 0 0
          0 0 0 0 0 0
          0 0 0 0 0 0
          0 0 0 0 0 0
          0 0 0 0 0 0
          0 0 0 0 0 0
          0 0 0 0 0 0
          0 0 0 0 0 0
          0 0 0 0 0 0
          0 0 0 0 0 0
          0 0 0 0 0 0
          0 0 0 0 0 0
          0 0 0 0 0 0
          0 0 0 0 0 0
          0 0 0 0 0 0
          0 0 0 0 0 0
          0 0 0 0 0 0
          0 0 0 0 0 0
          0 0 0 0 0 0
          0 0 0 0 0 0
          0 0 0 0 0 0
          0 0 0 0 0 0
          0 0 0
        </DataArray>
        <DataArray type="Float64" Name="gradient_marker" format="ascii" RangeMin="1" RangeMax="1">
          1 1 1 1 1 1
          1 1 1 1 1 1
          1 1 1 1 1 1
          1 1 1 1 1 1
          1 1 1 1 1 1
          1 1 1 1 1 1
          1 1 1 1 1 1
          1 1 1 1 1 1
          1 1 1 1 1 1
          1 1 1 1 1 1
          1 1 1 1 1 1
          1 1 1 1 1 1
          1 1 1 1 1 1
          1 1 1 1 1 1
          1 1 1 1 1 1
          1 1 1 1 1 1
          1 1 1 1 1 1
          1 1 1 1 1 1
          1 1 1 1 1 1
          1 1 1 1 1 1
          1 1 1 1 1 1
          1 1 1 1 1 1
          1 1 1 1 1 1
          1 1 1 1 1 1
          1 1 1 1 1 1
          1 1 1 1 1 1
          1 1 1 1 1 1
          1 1 1 1 1 1
          1 1 1 1 1 1
          1 1 1 1 1 1
          1 1 1 1 1 1
          1 1 1 1 1 1
          1 1 1 1 1 1
          1 1 1 1 1 1
          1 1 1 1 1 1
          1 1 1 1 1 1
          1 1 1 1 1 1
          1 1 1 1 1 1
          1 1 1 1 1 1
          1 1 1 1 1 1
          1 1 1 1 1 1
          1 1 1 1 1 1
          1 1 1 1 1 1
          1 1 1 1 1 1
          1 1 1 1 1 1
          1 1 1 1 1 1
          1 1 1 1 1 1
          1 1 1 1 1 1
          1 1 1 1 1 1
          1 1 1 1 1 1
          1 1 1 1 1 1
          1 1 1 1 1 1
          1 1 1 1 1 1
          1 1 1 1 1 1
          1 1 1 1 1 1
          1 1 1 1 1 1
          1 1 1 1 1 1
          1 1 1 1 1 1
          1 1 1 1 1 1
          1 1 1 1 1 1
          1 1 1 1 1 1
          1 1 1 1 1 1
          1 1 1 1 1 1
          1 1 1 1 1 1
          1 1 1 1 1 1
          1 1 1 1 1 1
          1 1 1 1 1 1
          1 1 1
        </DataArray>
        <DataArray type="Float64" Name="gradient_matprop_marker" format="ascii" RangeMin="0" RangeMax="0">
          0 0 0 0 0 0
          0 0 0 0 0 0
          0 0 0 0 0 0
          0 0 0 0 0 0
          0 0 0 0 0 0
          0 0 0 0 0 0
          0 0 0 0 0 0
          0 0 0 0 0 0
          0 0 0 0 0 0
          0 0 0 0 0 0
          0 0 0 0 0 0
          0 0 0 0 0 0
          0 0 0 0 0 0
          0 0 0 0 0 0
          0 0 0 0 0 0
          0 0 0 0 0 0
          0 0 0 0 0 0
          0 0 0 0 0 0
          0 0 0 0 0 0
          0 0 0 0 0 0
          0 0 0 0 0 0
          0 0 0 0 0 0
          0 0 0 0 0 0
          0 0 0 0 0 0
          0 0 0 0 0 0
          0 0 0 0 0 0
          0 0 0 0 0 0
          0 0 0 0 0 0
          0 0 0 0 0 0
          0 0 0 0 0 0
          0 0 0 0 0 0
          0 0 0 0 0 0
          0 0 0 0 0 0
          0 0 0 0 0 0
          0 0 0 0 0 0
          0 0 0 0 0 0
          0 0 0 0 0 0
          0 0 0 0 0 0
          0 0 0 0 0 0
          0 0 0 0 0 0
          0 0 0 0 0 0
          0 0 0 0 0 0
          0 0 0 0 0 0
          0 0 0 0 0 0
          0 0 0 0 0 0
          0 0 0 0 0 0
          0 0 0 0 0 0
          0 0 0 0 0 0
          0 0 0 0 0 0
          0 0 0 0 0 0
          0 0 0 0 0 0
          0 0 0 0 0 0
          0 0 0 0 0 0
          0 0 0 0 0 0
          0 0 0 0 0 0
          0 0 0 0 0 0
          0 0 0 0 0 0
          0 0 0 0 0 0
          0 0 0 0 0 0
          0 0 0 0 0 0
          0 0 0 0 0 0
          0 0 0 0 0 0
          0 0 0 0 0 0
          0 0 0 0 0 0
          0 0 0 0 0 0
          0 0 0 0 0 0
          0 0 0 0 0 0
          0 0 0
        </DataArray>
        <DataArray type="Float64" Name="combo" format="ascii" RangeMin="1" RangeMax="1">
          1 1 1 1 1 1
          1 1 1 1 1 1
          1 1 1 1 1 1
          1 1 1 1 1 1
          1 1 1 1 1 1
          1 1 1 1 1 1
          1 1 1 1 1 1
          1 1 1 1 1 1
          1 1 1 1 1 1
          1 1 1 1 1 1
          1 1 1 1 1 1
          1 1 1 1 1 1
          1 1 1 1 1 1
          1 1 1 1 1 1
          1 1 1 1 1 1
          1 1 1 1 1 1
          1 1 1 1 1 1
          1 1 1 1 1 1
          1 1 1 1 1 1
          1 1 1 1 1 1
          1 1 1 1 1 1
          1 1 1 1 1 1
          1 1 1 1 1 1
          1 1 1 1 1 1
          1 1 1 1 1 1
          1 1 1 1 1 1
          1 1 1 1 1 1
          1 1 1 1 1 1
          1 1 1 1 1 1
          1 1 1 1 1 1
          1 1 1 1 1 1
          1 1 1 1 1 1
          1 1 1 1 1 1
          1 1 1 1 1 1
          1 1 1 1 1 1
          1 1 1 1 1 1
          1 1 1 1 1 1
          1 1 1 1 1 1
          1 1 1 1 1 1
          1 1 1 1 1 1
          1 1 1 1 1 1
          1 1 1 1 1 1
          1 1 1 1 1 1
          1 1 1 1 1 1
          1 1 1 1 1 1
          1 1 1 1 1 1
          1 1 1 1 1 1
          1 1 1 1 1 1
          1 1 1 1 1 1
          1 1 1 1 1 1
          1 1 1 1 1 1
          1 1 1 1 1 1
          1 1 1 1 1 1
          1 1 1 1 1 1
          1 1 1 1 1 1
          1 1 1 1 1 1
          1 1 1 1 1 1
          1 1 1 1 1 1
          1 1 1 1 1 1
          1 1 1 1 1 1
          1 1 1 1 1 1
          1 1 1 1 1 1
          1 1 1 1 1 1
          1 1 1 1 1 1
          1 1 1 1 1 1
          1 1 1 1 1 1
          1 1 1 1 1 1
          1 1 1
        </DataArray>
        <DataArray type="Float64" Name="dHdT" format="ascii" RangeMin="25.80079701117844" RangeMax="30.341738671475277">
          25.812562340026563 25.81249703848127 25.812048203124494 25.812086565326954 25.812319662440117 25.811947259731923
          25.811997141359047 25.811774307857597 25.81159936776772 25.81161079062735 25.81157485702373 25.811551474356143
          25.805347661440813 25.805851576376472 25.808346640215564 25.808049628789455 25.807117441782026 25.80907840102286
          25.8089500231656 25.8100901682419 25.810739560740515 25.81105264115785 25.81146933126396 25.81145675009573
          25.810841704054667 25.810751596138097 25.811039360263692 25.811230313318198 25.811365721575186 25.811444168927494
          25.84599179667166 25.842639237578673 25.82935404535118 25.831347627999783 25.834550299463118 25.824609505982686
          25.819637387886356 25.8167557635512 25.805801652049993 25.811065397241457 25.810453257093208 25.811641430627994
          25.816068853123696 25.816703459327904 25.814668712502254 25.81331907678154 25.812413279413764 25.811987455149463
          26.280353915982975 26.278426012299207 25.970642548996786 25.98050071965603 26.26425107052174 25.948635395855103
          26.17227409351267 25.920107077159173 26.018087193895646 25.886915784470844 25.856970678290566 25.819120357918603
          25.82125070126245 25.81546070698028 25.812825815392273 25.811620347259982 25.81159655963822 27.634263410957633
          27.954814104826696 26.399649782737058 26.409317528510662 28.57288731012555 26.371568954100958 29.070999949514785
          26.18558897298908 29.80395713705554 26.102070122253892 25.817242946282157 25.822742297752885 25.809239737957775
          25.803689829295443 25.802861400599916 25.8102799670555 25.80079701117844 25.805380383339866 25.8099637555013
          26.667442840458087 26.46664377489288 26.467716591399522 27.14982414021145 27.164614588840614 26.84193296854925
          26.834971844006514 26.462019303374294 27.186519444890198 26.806608393791034 26.097319678384626 26.252199244857387
          26.255418390391895 26.243058248471396 27.661786337223145 27.217222162205626 27.202227096613505 27.25409171364526
          26.407078811330152 26.665995293882304 26.45210319295172 27.242708498909792 26.775123479965746 26.438803112587664
          27.292073581222883 26.779709066470968 26.071420788012908 26.229222585551728 26.212598606948482 28.372278873941646
          27.326655675974532 27.380780894226437 26.387024383090555 26.649276222779417 26.41983227361712 27.343803506487628
          26.803412883165826 26.145523606229442 27.52724476414766 26.849926763672705 26.032528885267904 26.14137165450703
          26.060014125560322 28.80272933362879 27.5715906128973 27.77879575252555 26.289501148866258 26.05901099036126
          25.994908468227585 27.71762403499477 26.861883101468226 25.96339772951797 27.78032774415511 26.83775344245434
          25.93260513449772 26.028052491138023 25.994434657953406 29.393200201865042 27.861024253174623 27.94851332994228
          26.147638764815774 25.976152752118324 25.931445353234416 27.83675425041036 26.796454266755248 25.890999872234755
          25.95907175308221 30.341738671475277 28.031411032880364 26.051346574614463 25.8734129075508 25.875925091080106
          25.902365918429737 25.90575918866626 25.867175397261416 25.893938769074385 25.818031167660024 25.819584695402582
          25.820801144350305 25.816658598988184 25.931318929308667 25.935593286252413 25.920702140887357 25.821138223145137
          25.859256106701107 25.883358457671825 25.850894392796157 25.872075473612504 25.813881729397536 25.813370198937907
          25.810622251560403 25.907460808642547 25.89325655442885 25.812858668478285 25.806035932689852 25.80873748010984
          25.812185705831794 25.84470171466167 25.835705746207886 25.829505934564054 25.836300513554075 25.8058537045394
          25.821005220834543 25.81862854446507 25.81143902752983 25.82330612292022 25.82789931244648 25.816251868095595
          25.804549259397398 25.80743586541349 25.810441306151173 25.811369698318092 25.81032247142958 25.812298090485015
          25.842675142622408 25.86113642822821 25.835011319801062 25.85106879612885 25.810680839163826 25.808457666889467
          25.80677869236922 25.879597713834016 25.867126272456648 25.806234494615104 25.828216588536222 25.84116430749308
          25.822249642923452 25.831383923071076 25.809492368322022 25.8060008068968 25.806218766088755 25.854112026449943