<?xml version="1.0"?>
<VTKFile type="UnstructuredGrid" version="0.1" byte_order="LittleEndian" header_type="UInt32" compressor="vtkZLibDataCompressor">
  <UnstructuredGrid>
    <Piece NumberOfPoints="423" NumberOfCells="209">
      <PointData>
        <DataArray type="Int32" Name="libmesh_node_id" format="ascii" RangeMin="0" RangeMax="3752">
          0 1 2 3 4 5
          6 7 8 9 10 11
          12 13 14 15 16 17
          18 19 20 21 22 23
          24 25 26 27 28 29
          30 31 32 33 34 35
          36 37 38 39 40 41
          42 43 44 45 46 47
          48 49 50 51 52 53
          54 55 56 57 58 59
          60 61 62 63 64 65
          66 67 68 69 70 71
          72 73 74 75 76 77
          78 79 80 81 82 83
          84 85 86 87 88 89
          90 91 92 93 94 95
          96 97 98 99 100 101
          102 103 104 105 106 107
          108 109 110 111 112 113
          114 115 116 117 118 119
          120 121 122 123 124 125
          132 133 134 135 136 137
          138 139 140 152 153 154
          155 156 157 158 159 160
          161 172 173 174 175 176
          192 193 194 195 210 211
          228 229 230 231 246 247
          262 264 265 267 282 283
          298 299 300 301 317 318
          324 325 326 327 330 331
          334 335 336 340 342 432
          433 434 435 436 437 438
          439 440 441 442 443 444
          445 476 477 480 483 486
          687 688 689 690 691 692
          693 694 695 696 697 698
          699 700 701 702 703 704
          708 709 721 722 723 724
          725 726 727 728 729 730
          3325 3326 3329 3330 3332 3333
          3429 3430 3431 3432 3433 3434
          3435 3436 3437 3438 3439 3440
          3441 3442 3443 3444 3445 3446
          3447 3448 3449 3450 3451 3452
          3453 3454 3455 3456 3457 3458
          3459 3460 3461 3462 3463 3464
          3465 3466 3467 3468 3469 3470
          3471 3472 3473 3474 3475 3476
          3477 3478 3479 3480 3481 3482
          3483 3484 3485 3486 3487 3488
          3489 3490 3491 3492 3493 3494
          3495 3496 3497 3498 3499 3500
          3501 3502 3503 3504 3712 3713
          3714 3715 3716 3717 3718 3719
          3720 3731 3732 3733 3734 3735
          3736 3747 3748 3749 3750 3751
          3752 126 127 128 129 130
          131 141 142 143 144 145
          146 147 148 149 150 151
          162 163 168 169 170 171
          177 186 188 189 187 190
          191 196 197 198 199 208
          207 209 212 213 226 227
          232 233 245 248 263 281
          705 706 707 710 3327 3328
          3331 3334 3397 3400 3399 3401
          3521 3522 3396 3524 3545 3546
          3547 3548 3404 3549 3550 3702
          3703 3704 3707 3398 3710 3723
          3724 3726 3402 3729 3403 3739
          3740 3743 3745
        </DataArray>
        <DataArray type="Float64" Name="bounds" format="ascii" RangeMin="0" RangeMax="0">
          0 0 0 0 0 0
          0 0 0 0 0 0
          0 0 0 0 0 0
          0 0 0 0 0 0
          0 0 0 0 0 0
          0 0 0 0 0 0
          0 0 0 0 0 0
          0 0 0 0 0 0
          0 0 0 0 0 0
          0 0 0 0 0 0
          0 0 0 0 0 0
          0 0 0 0 0 0
          0 0 0 0 0 0
          0 0 0 0 0 0
          0 0 0 0 0 0
          0 0 0 0 0 0
          0 0 0 0 0 0
          0 0 0 0 0 0
          0 0 0 0 0 0
          0 0 0 0 0 0
          0 0 0 0 0 0
          0 0 0 0 0 0
          0 0 0 0 0 0
          0 0 0 0 0 0
          0 0 0 0 0 0
          0 0 0 0 0 0
          0 0 0 0 0 0
          0 0 0 0 0 0
          0 0 0 0 0 0
          0 0 0 0 0 0
          0 0 0 0 0 0
          0 0 0 0 0 0
          0 0 0 0 0 0
          0 0 0 0 0 0
          0 0 0 0 0 0
          0 0 0 0 0 0
          0 0 0 0 0 0
          0 0 0 0 0 0
          0 0 0 0 0 0
          0 0 0 0 0 0
          0 0 0 0 0 0
          0 0 0 0 0 0
          0 0 0 0 0 0
          0 0 0 0 0 0
          0 0 0 0 0 0
          0 0 0 0 0 0
          0 0 0 0 0 0
          0 0 0 0 0 0
          0 0 0 0 0 0
          0 0 0 0 0 0
          0 0 0 0 0 0
          0 0 0 0 0 0
          0 0 0 0 0 0
          0 0 0 0 0 0
          0 0 0 0 0 0
          0 0 0 0 0 0
          0 0 0 0 0 0
          0 0 0 0 0 0
          0 0 0 0 0 0
          0 0 0 0 0 0
          0 0 0 0 0 0
          0 0 0 0 0 0
          0 0 0 0 0 0
          0 0 0 0 0 0
          0 0 0 0 0 0
          0 0 0 0 0 0
          0 0 0 0 0 0
          0 0 0 0 0 0
          0 0 0 0 0 0
          0 0 0 0 0 0
          0 0 0
        </DataArray>
        <DataArray type="Float64" Name="gradient_error" format="ascii" RangeMin="5.0030192850372445e-11" RangeMax="9.843799492240134e-7">
          6.432147481109185e-11 6.986103266229377e-11 6.116289488655414e-11 5.834446996756411e-11 8.068397028678379e-11 9.332836882374143e-11
          7.44901212384185e-11 6.822568009721007e-11 8.09407396082707e-11 6.689094830863897e-11 1.1682403613733082e-10 8.60017054584086e-11
          7.78483766991768e-11 6.558810880683446e-11 1.1063718995899751e-10 8.256739626877016e-11 5.821375446141686e-11 5.5924168343058097e-11
          8.4492600037129e-11 6.922995100102552e-11 5.0030192850372445e-11 5.1922219379076584e-11 6.740783336535419e-11 6.050589204933769e-11
          5.404805780116527e-11 5.394925697063449e-11 5.5154662012205684e-11 5.432047557375353e-11 5.449443050873696e-11 5.412720520181591e-11
          5.222519077842805e-11 5.2921653512778097e-11 5.3685574142538356e-11 5.3692026431175136e-11 5.372339443860982e-11 5.373420893313241e-11
          5.3667428897641417e-11 5.368239329262802e-11 5.380542063269298e-11 5.377819882364489e-11 5.371088156537937e-11 5.371229147107337e-11
          5.3722120017264176e-11 5.3719241011952e-11 5.371656673219019e-11 5.3716209882906e-11 5.3709588453434507e-11 5.371032026785547e-11
          5.2464757110814497e-11 5.2367465124036366e-11 5.565187365309559e-11 5.576738990763635e-11 5.284115700900723e-11 5.5179374779486365e-11
          5.3327840914492116e-11 5.44976025785428e-11 5.3634582224699324e-11 5.396730196492204e-11 5.381424590778072e-11 5.3603950733321204e-11
          5.3850456140103695e-11 5.348628913530136e-11 5.3759979894894856e-11 5.361811624712814e-11 5.3698478719811916e-11 5.374502342765498e-11
          5.369735768761463e-11 5.375097701459681e-11 5.371370137676737e-11 5.3716362006639834e-11 5.371585303362181e-11 5.371105208227644e-11
          4.800995319813186e-10 5.184624252308733e-10 2.9694174172193144e-10 2.788577816873609e-10 5.741521189753417e-10 3.2299713560592725e-10
          4.605573338243688e-10 2.6429839871571433e-10 2.39130201665078e-10 1.510970823150981e-10 1.201692401943601e-10 8.995740532465775e-11
          7.986911751698572e-11 6.858977240607265e-11 6.14378303237322e-11 5.811555895711942e-11 5.40289740583439e-11 5.387546993448348e-11
          5.3412238351330405e-11 5.3501355799258326e-11 5.366256530226916e-11 5.368564243678119e-11 5.370735116802603e-11 5.3719066046723736e-11
          7.542105821298964e-11 7.761603139340322e-11 7.184215223651275e-11 6.803946360705977e-11 6.306396296511819e-11 5.974557045495541e-11
          5.7310427295159596e-11 5.479328759050664e-11 5.372196581062304e-11 5.3590473247186235e-11 5.370871957129321e-11 5.373078092542145e-11
          2.951037361723936e-9 2.985845121427786e-9 1.6831457826105313e-9 1.681488796629906e-9 2.9132561207652633e-9 1.613533854491644e-9
          2.104119477542443e-9 1.1722329624030498e-9 9.614755098617936e-10 5.651406343938299e-10 3.9109090352144623e-10 2.5528600708882703e-10
          1.8328445547515525e-10 1.3409327403950727e-10 7.712437016783364e-11 6.897458593033293e-11 5.216461486916856e-11 5.3535984925336124e-11
          3.8044644379327687e-10 4.119402315358761e-10 3.138115882180251e-10 2.4034644726365707e-10 1.6880575892586616e-10 1.1948111065620777e-10
          8.490209260385929e-11 6.082480169283224e-11 5.490735498150369e-11 4.208175701031338e-9 2.5645433246513166e-9 1.4331037751801741e-9
          9.956389093109116e-10 7.285892101494892e-10 5.260779601890215e-10 2.7030791466937605e-10 2.1069648745904517e-10 8.147237973807554e-11
          7.654143609308409e-11 9.209109482712956e-10 5.581740434416489e-10 3.235667102285538e-10 1.5108506024871425e-10 7.161049244809264e-11
          3.0339080533631784e-9 2.3521636286337844e-9 1.2097523696342926e-9 9.594542436185734e-10 1.6704192039043904e-9 7.091561176028542e-10
          1.0526092143483231e-8 6.191185970635418e-9 3.415050291972903e-9 2.730462132283198e-9 8.710924659737257e-9 3.956047431137761e-9
          9.620569070981702e-8 5.53597082751369e-7 8.431150039274012e-8 2.1946860009558856e-8 8.386727906413724e-9 3.76702463162908e-9
          4.538829653491121e-7 1.0774631528901891e-7 9.308963654423152e-7 3.923994929805833e-7 2.296524921328396e-8 1.826149243380067e-8
          2.6693873590784303e-7 1.7655478157392547e-7 3.541983599550842e-7 9.843799492240134e-7 6.536152240254363e-7 2.8431151488746792e-8
          6.513141027751059e-8 2.2352077144903972e-7 2.611972080895956e-7 8.743137287341854e-7 3.6982763112924363e-7 3.754424160013978e-7
          2.848881528918864e-7 1.654151122451292e-7 4.348734119957016e-7 7.326817727693962e-7 4.6186008606249724e-7 3.5775908661824365e-7
          1.43284335902112e-7 1.417364082068233e-7 1.7063139762205014e-7 6.30872896978608e-7 5.499849685097908e-7 4.741633934179229e-7
          1.0697351329408283e-7 8.1955727205463e-7 9.539569439711473e-7 9.004392922325392e-7 6.363650466951316e-7 9.813213124104485e-7
          1.2360616922899528e-8 7.186952096442136e-9 9.323809796449847e-9 6.581512210654502e-8 4.584184780728105e-8 2.7516486139716836e-8
          3.939241125668866e-8 2.9597091847353823e-9 1.611367974734259e-8 1.0181814511319107e-8 2.0132872699847437e-9 9.191124472152625e-9
          1.2969700406832292e-8 4.249949275295624e-9 7.694399803781266e-10 5.899387186281921e-10 1.2075008766128455e-9 1.1902687171825078e-9
          4.1043745687825773e-10 1.17303655775217e-9 5.741025013322054e-9 7.590252653719686e-9 3.273737181210475e-8 3.5139827023070964e-8
          1.395170854518655e-9 9.753592626600353e-9 1.0207554683626588e-8 5.973371861088745e-8 6.268940139242224e-8 1.811201439868205e-8
          1.3285080861595274e-8 7.942023173145459e-9 5.721646880422621e-8 3.5239465763930116e-8 2.598965484695646e-9 1.3262462723634014e-8
          7.519004762154202e-9 1.1451646228018646e-8 2.3277097459913637e-8 2.842604093772025e-8 3.4175052425022693e-9 9.894182510528913e-9
          1.410940344589202e-8 3.903519015767307e-8 4.5400435647421864e-8 1.637085977855556e-8 1.5262473413182386e-7 1.2711514129184017e-7
          1.1915158220373125e-7 2.0115454079175193e-7 1.9493368345607185e-7 1.6603080221836788e-7 1.7407279896164652e-7 1.3274694605246274e-7
          1.9113363034841597e-7 1.6121714692975125e-7 1.0160554845185652e-7 1.3712792098066387e-7 1.469910571315411e-7 1.3130066351108654e-7
          4.638410761868356e-7 4.1137920969609216e-7 3.9229347923231636e-7 5.211103811686564e-7 3.174514793802591e-7 5.296224827927718e-7
          6.114866184848302e-7 6.114921614521441e-7 5.408453059530649e-7 7.088387534126442e-7 6.948125556369222e-7 4.505463669573157e-7
          4.24276385485094e-7 4.7620326127326274e-7 5.32533717376309e-7 6.051723666569994e-7 5.260976691610591e-7 7.028032134243798e-7
          5.112406615989785e-7 8.814994185832865e-7 7.542168537801256e-7 8.198585962917841e-7 7.905067946813808e-7 4.0852643554602894e-7
          4.992082484727967e-7 7.582177740002818e-7 8.26796735582636e-7 5.898900613995645e-7 1.6874836295595788e-7 1.7567035989781531e-7
          2.0732685782600265e-7 2.122530355387371e-7 1.586614933839796e-7 1.987017249921911e-7 1.0297697418183605e-7 1.2505868615683186e-7
          1.2802142922064454e-7 1.2578328529905706e-7 2.459053526960474e-7 2.4883571117965887e-7 2.3874195660040266e-7 1.4714039813182768e-7
          1.4482543347437097e-7 1.8552624873341638e-7 1.3688625620266087e-7 1.776636654021667e-7 9.953228483364867e-8 1.3379099359221683e-7
          1.40075471706801e-7 2.262270639924618e-7 2.184410746016725e-7 1.6804970235078496e-7 1.3107740957734732e-7 1.166206765399241e-7
          2.0479984142371565e-7 1.792520911197895e-7 1.0216394350250089e-7 1.5370434081586343e-7 4.0764850812561955e-7 3.7272426528435974e-7
          3.07107998871317e-7 4.6322880088103644e-7 4.822534658948047e-7 3.9872846824675724e-7 3.8968285878091755e-7 4.609419069205449e-7
          4.394173072511518e-7 1.7997971604150147e-7 2.1423755788749536e-7 1.1423548035525196e-7 1.3229631019004955e-7 2.4849539973348926e-7
          1.503571400248471e-7 5.453168641351991e-11 5.4396917895472817e-11 5.388854005688152e-11 5.386602445728395e-11 5.375272563440198e-11
          5.375582938868001e-11 5.426214937742573e-11 5.384350885768638e-11 5.3758933142958034e-11 1.7648527345424942e-8 1.707988877467463e-8
          9.924575673349658e-9 1.0349937733526325e-8 1.5107023098854398e-8 8.624703616372539e-9 1.0140308572191348e-8 5.809809296897702e-9
          5.177424098655625e-11 5.24913625340284e-11 2.7692625720246913e-9 3.051348121627707e-9 2.14238413389068e-9 1.4793100216040565e-9
          5.320848408150055e-11 5.0516286209381534e-8 1.9356392155023977e-8 1.2392308792523958e-8 2.98592759995492e-8 5.295804732955637e-9
          4.186538842024478e-9 2.6007397300710166e-10 2.34966731610168e-10 5.27532604312578e-11 5.872850309962948e-11 5.428225430023937e-9
          9.202265789716854e-9 3.077272951093319e-9 2.0985949021323433e-10 6.470374576800116e-11 1.049187344411615e-8 1.0228370612905232e-8
          2.8700121640507057e-10 6.025335580683972e-10 1.4392580722408548e-8 9.223762565070887e-10 1.3700456312039354e-7 1.4413828286026235e-8
          1.6245639314039355e-10 2.0825855756984542e-10 2.2636231368708617e-10 2.4446606980432686e-10 8.204003231432628e-9 3.355941988162441e-8
          2.2258791295039807e-8 1.09581627084552e-8 1.8565255478888522e-7 2.0731916225024666e-7 3.656773391139843e-7 2.1279220458491192e-7
          3.447549088629447e-8 2.269975641096333e-8 9.017714520864142e-8 1.0924021935632194e-8 2.153869732972503e-8 4.892606853205806e-8
          6.8790791835275074e-9 1.6991334634127785e-8 1.395990095430115e-7 7.63134397343911e-8 2.7103590084728068e-8 1.1707293168717302e-7
          2.0611441892623177e-7 1.820505842862151e-7 1.5798674964619843e-7 3.8186673987084346e-7 3.5302118249761176e-7 4.088686206957106e-7
          4.3301912720537617e-7 3.742491315941242e-7 3.3740804654674516e-7 4.070241263007861e-7 4.073085180680934e-7 1.8222498250130027e-7
          2.1402538119648233e-7 1.36722132919758e-7 2.458257798916644e-7
        </DataArray>
        <DataArray type="Float64" Name="gradient_matprop_error" format="ascii" RangeMin="0" RangeMax="0">
          0 0 0 0 0 0
          0 0 0 0 0 0
          0 0 0 0 0 0
          0 0 0 0 0 0
          0 0 0 0 0 0
          0 0 0 0 0 0
          0 0 0 0 0 0
          0 0 0 0 0 0
          0 0 0 0 0 0
          0 0 0 0 0 0
          0 0 0 0 0 0
          0 0 0 0 0 0
          0 0 0 0 0 0
          0 0 0 0 0 0
          0 0 0 0 0 0
          0 0 0 0 0 0
          0 0 0 0 0 0
          0 0 0 0 0 0
          0 0 0 0 0 0
          0 0 0 0 0 0
          0 0 0 0 0 0
          0 0 0 0 0 0
          0 0 0 0 0 0
          0 0 0 0 0 0
          0 0 0 0 0 0
          0 0 0 0 0 0
          0 0 0 0 0 0
          0 0 0 0 0 0
          0 0 0 0 0 0
          0 0 0 0 0 0
          0 0 0 0 0 0
          0 0 0 0 0 0
          0 0 0 0 0 0
          0 0 0 0 0 0
          0 0 0 0 0 0
          0 0 0 0 0 0
          0 0 0 0 0 0
          0 0 0 0 0 0
          0 0 0 0 0 0
          0 0 0 0 0 0
          0 0 0 0 0 0
          0 0 0 0 0 0
          0 0 0 0 0 0
          0 0 0 0 0 0
          0 0 0 0 0 0
          0 0 0 0 0 0
          0 0 0 0 0 0
          0 0 0 0 0 0
          0 0 0 0 0 0
          0 0 0 0 0 0
          0 0 0 0 0 0
          0 0 0 0 0 0
          0 0 0 0 0 0
          0 0 0 0 0 0
          0 0 0 0 0 0
          0 0 0 0 0 0
          0 0 0 0 0 0
          0 0 0 0 0 0
          0 0 0 0 0 0
          0 0 0 0 0 0
          0 0 0 0 0 0
          0 0 0 0 0 0
          0 0 0 0 0 0
          0 0 0 0 0 0
          0 0 0 0 0 0
          0 0 0 0 0 0
          0 0 0 0 0 0
          0 0 0 0 0 0
          0 0 0 0 0 0
          0 0 0 0 0 0
          0 0 0
        </DataArray>
        <DataArray type="Float64" Name="initial_marker" format="ascii" RangeMin="0" RangeMax="0">
          0 0 0 0 0 0
          0 0 0 0 0 0
          0 0 0 0 0 0
          0 0 0 0 0 0
          0 0 0 0 0 0
          0 0 0 0 0 0
          0 0 0 0 0 0
          0 0 0 0 0 0
          0 0 0 0 0 0
          0 0 0 0 0 0
          0 0 0 0 0 0
          0 0 0 0 0 0
          0 0 0 0 0 0
          0 0 0 0 0 0
          0 0 0 0 0 0
          0 0 0 0 0 0
          0 0 0 0 0 0
          0 0 0 0 0 0
          0 0 0 0 0 0
          0 0 0 0 0 0
          0 0 0 0 0 0
          0 0 0 0 0 0
          0 0 0 0 0 0
          0 0 0 0 0 0
          0 0 0 0 0 0
          0 0 0 0 0 0
          0 0 0 0 0 0
          0 0 0 0 0 0
          0 0 0 0 0 0
          0 0 0 0 0 0
          0 0 0 0 0 0
          0 0 0 0 0 0
          0 0 0 0 0 0
          0 0 0 0 0 0
          0 0 0 0 0 0
          0 0 0 0 0 0
          0 0 0 0 0 0
          0 0 0 0 0 0
          0 0 0 0 0 0
          0 0 0 0 0 0
          0 0 0 0 0 0
          0 0 0 0 0 0
          0 0 0 0 0 0
          0 0 0 0 0 0
          0 0 0 0 0 0
          0 0 0 0 0 0
          0 0 0 0 0 0
          0 0 0 0 0 0
          0 0 0 0 0 0
          0 0 0 0 0 0
          0 0 0 0 0 0
          0 0 0 0 0 0
          0 0 0 0 0 0
          0 0 0 0 0 0
          0 0 0 0 0 0
          0 0 0 0 0 0
          0 0 0 0 0 0
          0 0 0 0 0 0
          0 0 0 0 0 0
          0 0 0 0 0 0
          0 0 0 0 0 0
          0 0 0 0 0 0
          0 0 0 0 0 0
          0 0 0 0 0 0
          0 0 0 0 0 0
          0 0 0 0 0 0
          0 0 0 0 0 0
          0 0 0 0 0 0
          0 0 0 0 0 0
          0 0 0 0 0 0
          0 0 0
        </DataArray>
        <DataArray type="Float64" Name="markers_norefine" format="ascii" RangeMin="0" RangeMax="0">
          0 0 0 0 0 0
          0 0 0 0 0 0
          0 0 0 0 0 0
          0 0 0 0 0 0
          0 0 0 0 0 0
          0 0 0 0 0 0
          0 0 0 0 0 0
          0 0 0 0 0 0
          0 0 0 0 0 0
          0 0 0 0 0 0
          0 0 0 0 0 0
          0 0 0 0 0 0
          0 0 0 0 0 0
          0 0 0 0 0 0
          0 0 0 0 0 0
          0 0 0 0 0 0
          0 0 0 0 0 0
          0 0 0 0 0 0
          0 0 0 0 0 0
          0 0 0 0 0 0
          0 0 0 0 0 0
          0 0 0 0 0 0
          0 0 0 0 0 0
          0 0 0 0 0 0
          0 0 0 0 0 0
          0 0 0 0 0 0
          0 0 0 0 0 0
          0 0 0 0 0 0
          0 0 0 0 0 0
          0 0 0 0 0 0
          0 0 0 0 0 0
          0 0 0 0 0 0
          0 0 0 0 0 0
          0 0 0 0 0 0
          0 0 0 0 0 0
          0 0 0 0 0 0
          0 0 0 0 0 0
          0 0 0 0 0 0
          0 0 0 0 0 0
          0 0 0 0 0 0
          0 0 0 0 0 0
          0 0 0 0 0 0
          0 0 0 0 0 0
          0 0 0 0 0 0
          0 0 0 0 0 0
          0 0 0 0 0 0
          0 0 0 0 0 0
          0 0 0 0 0 0
          0 0 0 0 0 0
          0 0 0 0 0 0
          0 0 0 0 0 0
          0 0 0 0 0 0
          0 0 0 0 0 0
          0 0 0 0 0 0
          0 0 0 0 0 0
          0 0 0 0 0 0
          0 0 0 0 0 0
          0 0 0 0 0 0
          0 0 0 0 0 0
          0 0 0 0 0 0
          0 0 0 0 0 0
          0 0 0 0 0 0
          0 0 0 0 0 0
          0 0 0 0 0 0
          0 0 0 0 0 0
          0 0 0 0 0 0
          0 0 0 0 0 0
          0 0 0 0 0 0
          0 0 0 0 0 0
          0 0 0 0 0 0
          0 0 0
        </DataArray>
        <DataArray type="Float64" Name="markers_mustrefine" format="ascii" RangeMin="0" RangeMax="0">
          0 0 0 0 0 0
          0 0 0 0 0 0
          0 0 0 0 0 0
          0 0 0 0 0 0
          0 0 0 0 0 0
          0 0 0 0 0 0
          0 0 0 0 0 0
          0 0 0 0 0 0
          0 0 0 0 0 0
          0 0 0 0 0 0
          0 0 0 0 0 0
          0 0 0 0 0 0
          0 0 0 0 0 0
          0 0 0 0 0 0
          0 0 0 0 0 0
          0 0 0 0 0 0
          0 0 0 0 0 0
          0 0 0 0 0 0
          0 0 0 0 0 0
          0 0 0 0 0 0
          0 0 0 0 0 0
          0 0 0 0 0 0
          0 0 0 0 0 0
          0 0 0 0 0 0
          0 0 0 0 0 0
          0 0 0 0 0 0
          0 0 0 0 0 0
          0 0 0 0 0 0
          0 0 0 0 0 0
          0 0 0 0 0 0
          0 0 0 0 0 0
          0 0 0 0 0 0
          0 0 0 0 0 0
          0 0 0 0 0 0
          0 0 0 0 0 0
          0 0 0 0 0 0
          0 0 0 0 0 0
          0 0 0 0 0 0
          0 0 0 0 0 0
          0 0 0 0 0 0
          0 0 0 0 0 0
          0 0 0 0 0 0
          0 0 0 0 0 0
          0 0 0 0 0 0
          0 0 0 0 0 0
          0 0 0 0 0 0
          0 0 0 0 0 0
          0 0 0 0 0 0
          0 0 0 0 0 0
          0 0 0 0 0 0
          0 0 0 0 0 0
          0 0 0 0 0 0
          0 0 0 0 0 0
          0 0 0 0 0 0
          0 0 0 0 0 0
          0 0 0 0 0 0
          0 0 0 0 0 0
          0 0 0 0 0 0
          0 0 0 0 0 0
          0 0 0 0 0 0
          0 0 0 0 0 0
          0 0 0 0 0 0
          0 0 0 0 0 0
          0 0 0 0 0 0
          0 0 0 0 0 0
          0 0 0 0 0 0
          0 0 0 0 0 0
          0 0 0 0 0 0
          0 0 0 0 0 0
          0 0 0 0 0 0
          0 0 0
        </DataArray>
        <DataArray type="Float64" Name="gradient_marker" format="ascii" RangeMin="1" RangeMax="1">
          1 1 1 1 1 1
          1 1 1 1 1 1
          1 1 1 1 1 1
          1 1 1 1 1 1
          1 1 1 1 1 1
          1 1 1 1 1 1
          1 1 1 1 1 1
          1 1 1 1 1 1
          1 1 1 1 1 1
          1 1 1 1 1 1
          1 1 1 1 1 1
          1 1 1 1 1 1
          1 1 1 1 1 1
          1 1 1 1 1 1
          1 1 1 1 1 1
          1 1 1 1 1 1
          1 1 1 1 1 1
          1 1 1 1 1 1
          1 1 1 1 1 1
          1 1 1 1 1 1
          1 1 1 1 1 1
          1 1 1 1 1 1
          1 1 1 1 1 1
          1 1 1 1 1 1
          1 1 1 1 1 1
          1 1 1 1 1 1
          1 1 1 1 1 1
          1 1 1 1 1 1
          1 1 1 1 1 1
          1 1 1 1 1 1
          1 1 1 1 1 1
          1 1 1 1 1 1
          1 1 1 1 1 1
          1 1 1 1 1 1
          1 1 1 1 1 1
          1 1 1 1 1 1
          1 1 1 1 1 1
          1 1 1 1 1 1
          1 1 1 1 1 1
          1 1 1 1 1 1
          1 1 1 1 1 1
          1 1 1 1 1 1
          1 1 1 1 1 1
          1 1 1 1 1 1
          1 1 1 1 1 1
          1 1 1 1 1 1
          1 1 1 1 1 1
          1 1 1 1 1 1
          1 1 1 1 1 1
          1 1 1 1 1 1
          1 1 1 1 1 1
          1 1 1 1 1 1
          1 1 1 1 1 1
          1 1 1 1 1 1
          1 1 1 1 1 1
          1 1 1 1 1 1
          1 1 1 1 1 1
          1 1 1 1 1 1
          1 1 1 1 1 1
          1 1 1 1 1 1
          1 1 1 1 1 1
          1 1 1 1 1 1
          1 1 1 1 1 1
          1 1 1 1 1 1
          1 1 1 1 1 1
          1 1 1 1 1 1
          1 1 1 1 1 1
          1 1 1 1 1 1
          1 1 1 1 1 1
          1 1 1 1 1 1
          1 1 1
        </DataArray>
        <DataArray type="Float64" Name="gradient_matprop_marker" format="ascii" RangeMin="0" RangeMax="0">
          0 0 0 0 0 0
          0 0 0 0 0 0
          0 0 0 0 0 0
          0 0 0 0 0 0
          0 0 0 0 0 0
          0 0 0 0 0 0
          0 0 0 0 0 0
          0 0 0 0 0 0
          0 0 0 0 0 0
          0 0 0 0 0 0
          0 0 0 0 0 0
          0 0 0 0 0 0
          0 0 0 0 0 0
          0 0 0 0 0 0
          0 0 0 0 0 0
          0 0 0 0 0 0
          0 0 0 0 0 0
          0 0 0 0 0 0
          0 0 0 0 0 0
          0 0 0 0 0 0
          0 0 0 0 0 0
          0 0 0 0 0 0
          0 0 0 0 0 0
          0 0 0 0 0 0
          0 0 0 0 0 0
          0 0 0 0 0 0
          0 0 0 0 0 0
          0 0 0 0 0 0
          0 0 0 0 0 0
          0 0 0 0 0 0
          0 0 0 0 0 0
          0 0 0 0 0 0
          0 0 0 0 0 0
          0 0 0 0 0 0
          0 0 0 0 0 0
          0 0 0 0 0 0
          0 0 0 0 0 0
          0 0 0 0 0 0
          0 0 0 0 0 0
          0 0 0 0 0 0
          0 0 0 0 0 0
          0 0 0 0 0 0
          0 0 0 0 0 0
          0 0 0 0 0 0
          0 0 0 0 0 0
          0 0 0 0 0 0
          0 0 0 0 0 0
          0 0 0 0 0 0
          0 0 0 0 0 0
          0 0 0 0 0 0
          0 0 0 0 0 0
          0 0 0 0 0 0
          0 0 0 0 0 0
          0 0 0 0 0 0
          0 0 0 0 0 0
          0 0 0 0 0 0
          0 0 0 0 0 0
          0 0 0 0 0 0
          0 0 0 0 0 0
          0 0 0 0 0 0
          0 0 0 0 0 0
          0 0 0 0 0 0
          0 0 0 0 0 0
          0 0 0 0 0 0
          0 0 0 0 0 0
          0 0 0 0 0 0
          0 0 0 0 0 0
          0 0 0 0 0 0
          0 0 0 0 0 0
          0 0 0 0 0 0
          0 0 0
        </DataArray>
        <DataArray type="Float64" Name="combo" format="ascii" RangeMin="1" RangeMax="1">
          1 1 1 1 1 1
          1 1 1 1 1 1
          1 1 1 1 1 1
          1 1 1 1 1 1
          1 1 1 1 1 1
          1 1 1 1 1 1
          1 1 1 1 1 1
          1 1 1 1 1 1
          1 1 1 1 1 1
          1 1 1 1 1 1
          1 1 1 1 1 1
          1 1 1 1 1 1
          1 1 1 1 1 1
          1 1 1 1 1 1
          1 1 1 1 1 1
          1 1 1 1 1 1
          1 1 1 1 1 1
          1 1 1 1 1 1
          1 1 1 1 1 1
          1 1 1 1 1 1
          1 1 1 1 1 1
          1 1 1 1 1 1
          1 1 1 1 1 1
          1 1 1 1 1 1
          1 1 1 1 1 1
          1 1 1 1 1 1
          1 1 1 1 1 1
          1 1 1 1 1 1
          1 1 1 1 1 1
          1 1 1 1 1 1
          1 1 1 1 1 1
          1 1 1 1 1 1
          1 1 1 1 1 1
          1 1 1 1 1 1
          1 1 1 1 1 1
          1 1 1 1 1 1
          1 1 1 1 1 1
          1 1 1 1 1 1
          1 1 1 1 1 1
          1 1 1 1 1 1
          1 1 1 1 1 1
          1 1 1 1 1 1
          1 1 1 1 1 1
          1 1 1 1 1 1
          1 1 1 1 1 1
          1 1 1 1 1 1
          1 1 1 1 1 1
          1 1 1 1 1 1
          1 1 1 1 1 1
          1 1 1 1 1 1
          1 1 1 1 1 1
          1 1 1 1 1 1
          1 1 1 1 1 1
          1 1 1 1 1 1
          1 1 1 1 1 1
          1 1 1 1 1 1
          1 1 1 1 1 1
          1 1 1 1 1 1
          1 1 1 1 1 1
          1 1 1 1 1 1
          1 1 1 1 1 1
          1 1 1 1 1 1
          1 1 1 1 1 1
          1 1 1 1 1 1
          1 1 1 1 1 1
          1 1 1 1 1 1
          1 1 1 1 1 1
          1 1 1 1 1 1
          1 1 1 1 1 1
          1 1 1 1 1 1
          1 1 1
        </DataArray>
        <DataArray type="Float64" Name="dHdT" format="ascii" RangeMin="25.793909402356956" RangeMax="33.83370308334314">
          25.81146109130707 25.811461692558684 25.811460663764404 25.811460355886375 25.811463242620665 25.81146285768522
          25.811465186252605 25.811465380532514 25.81146292058692 25.811461304487555 25.81146226672125 25.811464876788655
          25.811462336382668 25.811461046435042 25.811463795728578 25.81146562119705 25.81145990307328 25.811459851471945
          25.811467059286255 25.81146724205894 25.811459152297694 25.811459488926012 25.81146812720972 25.81146776907797
          25.811459824683688 25.81145982810817 25.811467434559077 25.811467423124494 25.811459921386884 25.811459870529934
          25.8114673124972 25.81146737088926 25.81145980934629 25.811459810260082 25.811467436544703 25.81146743896433
          25.811459806801185 25.811459808924457 25.811467445940323 25.81146744419006 25.811459812974043 25.811459813174224
          25.811467440307535 25.811467440099015 25.811459813781283 25.811459813730618 25.81146743933622 25.811467439389464
          25.811459634970127 25.811459620465676 25.811467514819988 25.811467518444367 25.811459688388187 25.811467486856053
          25.811459756487416 25.811467446665525 25.81145979987061 25.811467424831612 25.81145982555433 25.811467410946218
          25.81145983153265 25.81146741168991 25.811459819672983 25.811467429281322 25.81145981117387 25.811467441383947
          25.811459811047733 25.811467442439795 25.811459813374412 25.8114674398905 25.811459813679953 25.81146743944271
          25.811510828482014 25.81151126178586 25.81149725517987 25.81149708513204 25.811510809573036 25.811496963442806
          25.811501260120327 25.81149214774565 25.811485505789253 25.811484228118797 25.811480112178643 25.811481510478533
          25.81148277012502 25.81148281257548 25.811483267666926 25.811483011383583 25.811482728766677 25.811482710001403
          25.81148266818961 25.811482675110874 25.81148268651022 25.81148268916793 25.811482690127708 25.81148269194787
          25.81148324857388 25.811483341782065 25.81148311731258 25.81148303537097 25.811482950448337 25.811482908778427
          25.811482855025936 25.811482755100233 25.81148269123613 25.811482682032135 25.811482691825645 25.811482693768035
          25.811323125521955 25.811328798347112 25.811408817175657 25.81140535356053 25.811348315751005 25.81141983763258
          25.81140444699791 25.811449057047888 25.81147883687858 25.811487113976497 25.81150573919161 25.81150104551754
          25.811496972750525 25.811496972234238 25.811495317280652 25.81149644343916 25.811497622826252 25.811497770635235
          25.811488836004212 25.811487581599103 25.811491359514154 25.81149366709786 25.81149539107441 25.811496351843477
          25.811496971717947 25.811497569597677 25.81149791844422 25.811637268289587 25.81158597872229 25.81149916126568
          25.81151213240335 25.811522294777347 25.81152097695565 25.81152578125969 25.81152080707382 25.811515312036214
          25.811514546125892 25.81153468915499 25.811525103541022 25.811519659133943 25.811515832887956 25.811513780215563
          25.811450827337787 25.811468881850523 25.811460790423457 25.811486607491553 25.811486936363263 25.811512424559652
          25.814357008769587 25.811779427534095 25.811845203046193 25.811606509261768 25.81180966343367 25.811666373587265
          25.937985481561117 25.98335883108701 25.83234538359959 25.81614525673809 25.81188494541498 25.81169764468252
          31.09693181070726 25.997825743609447 33.83370308334314 25.964998256437752 25.806862877503047 25.814978644250523