<?xml version="1.0"?>
<VTKFile type="UnstructuredGrid" version="0.1" byte_order="LittleEndian" header_type="UInt32" compressor="vtkZLibDataCompressor">
  <UnstructuredGrid>
    <Piece NumberOfPoints="405" NumberOfCells="232">
      <PointData>
        <DataArray type="Int32" Name="libmesh_node_id" format="ascii" RangeMin="245" RangeMax="3409">
          245 350 351 352 751 752
          753 756 759 1009 1327 1328
          1329 1330 1331 1332 1333 1334
          1335 1336 1337 1338 1339 1340
          1351 1352 1353 1354 1355 1356
          1357 1358 1359 1439 1440 1441
          1442 1443 1444 1521 1522 1523
          1524 1528 1529 1531 1532 1534
          1549 1550 1553 1554 1556 1558
          1559 1560 1563 1579 1690 1691
          1694 1733 1734 1735 1736 1737
          1738 1739 1740 1741 1742 1762
          1763 2305 2306 2307 2308 2309
          2310 2311 2312 2313 2314 2315
          2316 2317 2318 2319 2320 2321
          2322 2323 2324 2325 2326 2327
          2328 2329 2330 2331 2332 2333
          2334 2335 2336 2337 2338 2339
          2340 2341 2342 2343 2344 2345
          2346 2347 2348 2349 2350 2351
          2352 2353 2354 2355 2356 2357
          2358 2361 2363 2364 2365 2366
          2367 2368 2369 2370 2371 2372
          2373 2374 2375 2376 2378 2380
          2381 2382 2383 2384 2385 2386
          2401 2402 2403 2404 2405 2406
          2407 2409 2411 2412 2413 2414
          2415 2416 2417 2418 2419 2420
          2686 2687 2689 2692 2694 2695
          2696 2697 2698 2699 2700 2701
          2702 2703 2705 2707 2709 2711
          2712 2713 2714 2715 2716 2717
          2730 2731 2733 2746 2748 2797
          2799 2803 2804 2805 2806 2812
          2813 2816 2820 2821 2822 2823
          2824 2825 2826 3148 3149 3150
          3151 3152 3153 3154 3155 3156
          3157 3158 3159 3160 3161 3162
          3163 3164 3165 3166 3167 3168
          3169 3170 3171 3186 3187 3188
          3189 3190 3191 3192 3193 3194
          3195 3230 3231 3232 3233 3234
          3235 3236 3237 3238 3239 3240
          3241 3242 3243 3244 3245 3246
          3247 3248 3249 3260 3261 3262
          3263 3264 3265 3266 3383 3384
          3385 3386 3387 3388 3389 3400
          3401 3402 3403 3404 3405 3406
          748 754 750 755 1007 760
          793 791 1343 1322 1344 1347
          1349 1360 1687 1688 747 1693
          1727 1728 1729 1732 749 1317
          1755 1753 1458 1459 1756 1754
          1798 1581 1799 2257 2258 2259
          2262 1318 2265 1319 2273 2274
          2277 2279 2287 2288 2290 757
          2359 2360 2293 2362 1325 2299
          2301 2377 2303 2379 758 2393
          2394 2397 2408 2399 2410 2684
          2685 2688 2690 2691 2693 2704
          2706 2708 2710 2718 2720 2721
          2719 2723 2722 2728 2729 2732
          2739 2738 2741 2740 2745 2747
          2796 2798 2801 2800 1456 2802
          2807 2808 2809 1457 2810 2811
          2814 2815 2818 2817 2819 2827
          2828 2829 2831 2830 2837 2838
          3407 3408 3409
        </DataArray>
        <DataArray type="Float64" Name="bounds" format="ascii" RangeMin="0" RangeMax="0">
          0 0 0 0 0 0
          0 0 0 0 0 0
          0 0 0 0 0 0
          0 0 0 0 0 0
          0 0 0 0 0 0
          0 0 0 0 0 0
          0 0 0 0 0 0
          0 0 0 0 0 0
          0 0 0 0 0 0
          0 0 0 0 0 0
          0 0 0 0 0 0
          0 0 0 0 0 0
          0 0 0 0 0 0
          0 0 0 0 0 0
          0 0 0 0 0 0
          0 0 0 0 0 0
          0 0 0 0 0 0
          0 0 0 0 0 0
          0 0 0 0 0 0
          0 0 0 0 0 0
          0 0 0 0 0 0
          0 0 0 0 0 0
          0 0 0 0 0 0
          0 0 0 0 0 0
          0 0 0 0 0 0
          0 0 0 0 0 0
          0 0 0 0 0 0
          0 0 0 0 0 0
          0 0 0 0 0 0
          0 0 0 0 0 0
          0 0 0 0 0 0
          0 0 0 0 0 0
          0 0 0 0 0 0
          0 0 0 0 0 0
          0 0 0 0 0 0
          0 0 0 0 0 0
          0 0 0 0 0 0
          0 0 0 0 0 0
          0 0 0 0 0 0
          0 0 0 0 0 0
          0 0 0 0 0 0
          0 0 0 0 0 0
          0 0 0 0 0 0
          0 0 0 0 0 0
          0 0 0 0 0 0
          0 0 0 0 0 0
          0 0 0 0 0 0
          0 0 0 0 0 0
          0 0 0 0 0 0
          0 0 0 0 0 0
          0 0 0 0 0 0
          0 0 0 0 0 0
          0 0 0 0 0 0
          0 0 0 0 0 0
          0 0 0 0 0 0
          0 0 0 0 0 0
          0 0 0 0 0 0
          0 0 0 0 0 0
          0 0 0 0 0 0
          0 0 0 0 0 0
          0 0 0 0 0 0
          0 0 0 0 0 0
          0 0 0 0 0 0
          0 0 0 0 0 0
          0 0 0 0 0 0
          0 0 0 0 0 0
          0 0 0 0 0 0
          0 0 0
        </DataArray>
        <DataArray type="Float64" Name="gradient_error" format="ascii" RangeMin="1.9437190105574224e-11" RangeMax="2.4820276801549067e-8">
          6.364188513810776e-11 5.533011912818337e-10 1.0430483224847927e-9 5.187992694015143e-10 2.768821939580323e-10 6.968973080228689e-11
          3.3008876868238234e-10 7.614954904316104e-10 3.4180507946248815e-10 7.39253514958834e-10 1.9931237973735928e-10 1.8638255921241483e-10
          3.9919921640364397e-10 3.207909703184765e-10 9.314990868413475e-11 1.6087247976049825e-10 1.459291957440972e-10 3.007200804070541e-10
          2.8969817801408075e-10 1.3319197841685118e-10 2.4264696492871e-9 1.8299330283662163e-9 7.760229119972098e-10 8.326311781513107e-10
          4.612853122032153e-10 4.676155527343495e-10 1.8807836361612445e-10 1.8861298111954762e-10 3.6476566077447626e-10 5.921420112329434e-10
          2.4608974202033964e-10 4.415680407240049e-10 1.758522304023379e-10 1.09973711034189e-8 8.182359394574124e-9 5.170005990126478e-9
          3.7273421973591034e-9 3.2506586688964853e-9 1.3965033666321848e-9 4.809436197016846e-11 6.665570704873552e-11 7.774532199045947e-11
          8.4455163786285e-11 8.28471953436351e-11 8.995311621637314e-11 3.759482447739185e-10 2.7950646135740995e-10 1.376341333840008e-10
          7.029917321356134e-11 8.793883623345837e-11 6.148910135516623e-11 8.881003629339383e-11 9.973209295081461e-11 1.0813546754037967e-10
          1.9124655170772582e-9 1.3591547596601292e-9 5.046037756225154e-10 1.4464014975897575e-10 8.215900836864245e-11 7.853305720464653e-11
          7.49071060406506e-11 5.4156126213996655e-11 9.189798848141983e-11 1.8061001859209522e-10 1.9304399403080558e-10 4.4944859907017535e-11
          6.89548516961691e-11 7.686904578722316e-11 1.29639850748843e-10 2.05477969469516e-10 8.478323987827722e-11 2.6017449374890227e-11
          2.606017147560822e-11 1.5096453649581198e-10 1.4597129083589004e-10 2.5631077530803235e-10 2.4549182912938417e-10 8.907127928123417e-11
          1.5963900548559285e-10 1.5270634451778833e-10 1.2924854394116443e-10 2.1492507830454982e-10 1.3243461646715775e-10 6.134089460316688e-10
          5.820683062873567e-10 3.777602811873978e-10 4.985107965701221e-10 5.606808092731704e-11 5.5073512295067514e-11 9.981469492322341e-11
          9.499562697412143e-11 3.546878093565863e-11 6.191556410528864e-11 5.844536315909818e-11 4.989125079143881e-11 8.169981275919512e-11
          5.503583808276884e-11 2.5629008567550016e-10 2.4204491993925705e-10 1.5099035239663893e-10 2.043858300245399e-10 1.098074210454592e-10
          1.7095329982769503e-10 6.680385851517598e-11 1.0450004301996139e-10 1.0209579938455766e-10 1.467293259970264e-10 8.99045366555911e-11
          3.852157231601582e-10 2.449059821976168e-10 3.174400766097114e-10 4.429635582904211e-11 6.486577277827373e-11 3.789381007155006e-11
          5.0992164860960444e-11 4.2889153738024594e-11 5.650847906317665e-11 4.6827139899429796e-11 1.5455241918090076e-10 1.1500722497344236e-10
          1.2509870844886024e-10 1.4813762226679377e-9 1.393564784355827e-9 9.983441555138457e-10 9.370118251583776e-10 1.163753564385376e-9
          7.768079220347302e-10 2.26033316552006e-9 6.553114545273602e-10 6.144809254488867e-10 4.1630626795758696e-10 3.9015910857172305e-10
          5.07645120669859e-10 3.216378267962882e-10 1.6254476122939415e-9 1.510729329066793e-9 9.681168074930987e-10 1.2153397419418546e-9
          8.733332174878182e-10 5.755226804671084e-10 5.98216386860232e-10 3.8742599848297634e-10 1.3013625802748513e-9 3.729634224697134e-10
          2.350270529545621e-10 2.476149553278838e-10 1.5457338261112108e-10 8.560644848782259e-10 5.439554936071959e-10 5.412393915481576e-10
          2.533311233332599e-10 3.7836806302622874e-10 1.6012911690253082e-10 2.4166771410485653e-10 2.0261705628361984e-10 2.8521600458059395e-10
          1.8159244291142613e-10 4.918591249535223e-10 9.716341191839775e-11 1.5047502890446715e-10 5.982338131369642e-11 9.311785340704209e-11
          7.529656352168599e-11 1.1000714712328918e-10 6.787934309424899e-11 3.1440745086213056e-10 1.9671797208530728e-10 1.9844477105302609e-10
          5.481613001074301e-9 5.089843340711779e-9 4.06120642740758e-9 1.0246792046720712e-8 3.7603348346416915e-9 3.4803760486935467e-9
          2.447844067070277e-9 2.2604094444806492e-9 2.752482124853982e-9 1.7774552274949251e-9 7.77163328155447e-9 7.204833846696489e-9
          4.774371859993618e-9 5.679333016774465e-9 2.7950663025719167e-9 1.7038248653184307e-9 5.5369289346346634e-9 1.8705627012056826e-9
          1.1995371428433213e-9 1.1238481386133996e-9 7.156052957888756e-10 3.777592719403788e-9 2.4504705926582384e-9 2.1764364778162196e-9
          9.517234760057269e-9 8.848106540924422e-9 6.9643921591350796e-9 4.5366228705632154e-9 2.5034861898342406e-9 9.564252582363454e-10
          5.040457580544965e-10 6.210140192255276e-10 3.9228745416242445e-10 3.2205697002548354e-10 2.0189685419060485e-10 1.7828631014901417e-10
          2.4973148251486357e-10 1.6236566543449314e-10 1.149973565841284e-10 1.591240915745146e-10 7.506809582867114e-11 1.0109368731410634e-10
          8.225370068984324e-11 1.0504441977112021e-10 6.889663558191486e-11 2.2566490965236833e-11 2.3785349386818428e-11 3.723061833261623e-11
          3.555529748460376e-11 1.9437190105574224e-11 2.7446316349444846e-11 2.697105068281855e-11 2.500420780840002e-11 3.387997663659126e-11
          2.6495785016192256e-11 9.800410994397214e-11 9.142842685326274e-11 6.493331705542005e-11 8.960378625079944e-11 2.556855298226878e-10
          2.391185403065798e-10 1.5092985272255297e-10 1.4091092049473806e-10 1.9621747442020206e-10 1.154396234734143e-10 6.402304031869636e-10
          5.939416154200947e-10 3.4883345225899353e-10 4.754844703597226e-10 8.478204492848312e-11 1.428269929112986e-10 5.029959515454978e-11
          8.369254880700919e-11 5.7995021717244634e-11 9.344635854395357e-11 6.243018945682696e-11 3.331373416978788e-10 1.9575940144201395e-10
          2.0880833542782676e-10 3.766396212555954e-11 5.669376318234598e-11 3.047979241413129e-11 4.321112553898269e-11 2.979609944630438e-11
          4.2265397049449825e-11 3.3927360575710346e-11 1.2008837434108974e-10 8.348502072649652e-11 7.595451621756741e-11 1.5120494642545615e-9
          1.3944519761786673e-9 8.87625684752041e-10 8.18239430518275e-10 1.0934135477061328e-9 6.413988574470525e-10 3.238609604556321e-9
          2.9821139362494704e-9 1.7578951420560767e-9 2.312967724696562e-9 7.365776155199441e-10 4.329855319611414e-10 4.3921894868201403e-10
          2.5899374624707537e-10 1.511118457501741e-9 8.870552349500122e-10 8.577174814958651e-10 2.409158936351047e-10 1.4223928473176878e-10
          1.2303444133529367e-10 8.504536345687809e-11 4.4548830069105187e-10 2.631890662135383e-10 2.1823071395963365e-10 4.403491083314596e-11
          6.015069222547732e-11 3.332482787824056e-11 4.4714362149357506e-11 3.1243569325718334e-11 4.0809015416944394e-11 3.132783849222808e-11
          9.416147801109311e-10 1.8934933866580917e-9 1.3857184077866593e-9 2.8313436382834145e-9 2.784392482120234e-9 2.3180294725364758e-9
          7.367676627311767e-10 2.774563973167137e-9 1.3382645062421895e-9 8.294650423668209e-10 1.315662529420696e-9 1.5802903033532163e-9
          1.1514662732030064e-9 5.610376834427971e-10 3.039811986715431e-10 2.3259122912239665e-10 2.271223863540424e-10 1.612012595732502e-10
          1.5093861520074813e-10 4.651198926071042e-10 4.410816616855773e-10 4.1704343076405026e-10 5.575968950238333e-10 4.792444923459322e-10
          2.335698491589574e-10 5.422879013603836e-10 6.777583225802145e-10 2.651780540853857e-10 2.93802761039769e-10 7.31226348622284e-10
          8.479066352486587e-11 1.177956270998626e-10 1.1129849651557408e-10 2.5557611008136676e-10 4.3175238270533693e-10 4.1376047289913565e-10
          3.644573771631749e-10 9.430456534932057e-10 8.988048460390292e-10 7.791002257086839e-10 2.0097381347089945e-10 3.0207370535859255e-10
          2.7100121948376966e-10 6.175468529528617e-10 2.16117621833951e-9 2.040180064586364e-9 1.7234668022819676e-9 4.8740166093530005e-9
          3.4833219077276757e-9 3.255445072705372e-9 4.568902794435463e-9 2.6610388847826335e-9 3.776879509679177e-9 1.318239215700216e-9
          9.249189989827948e-10 1.9215611309463955e-9 2.789222699409053e-9 1.2541425259369286e-9 1.874414059613746e-9 4.166621383236658e-10
          6.042480241599344e-10 4.673867880239937e-10 7.559607470350438e-10 1.1649636124713003e-9 4.936242347054585e-10 7.598437394128384e-9
          7.0859779778897445e-9 5.7243144775966046e-9 1.4683864946994383e-8 1.3760084559333069e-8 1.1166259403376494e-8 4.016207122040489e-9
          2.507031253452055e-9 7.73704354775605e-9 4.670980836153138e-9 2.4820276801549067e-8 1.8978754968657967e-8 1.787804316359706e-8
          2.3464769784577308e-8 1.454783182304559e-8 1.9320822137769486e-8 1.3862531410717815e-8 1.2975742690663269e-8 1.037980809286356e-8
          9.880026759928008e-9 1.3425967359849439e-8 5.679941877805146e-9 7.971992301331158e-9 6.887715028757011e-9 3.864133501793794e-9
          1.4423396892695617e-9 7.794102222854163e-10 1.7357493694143435e-9 2.5680298840907722e-9 8.770623969054871e-10 1.3343616313281871e-9
          1.1410144630127343e-9 7.255159003613778e-10 5.666995298394022e-10 3.569057492539963e-10 2.8723773677037514e-10 3.9639923560060426e-10
          1.9810111383802036e-10 2.6189874880426215e-10 4.2450437664305783e-10 6.608776477673628e-10 4.250025891844889e-10 2.694669908841092e-10
          1.6843480483758863e-10 1.6924470957959615e-10 2.919054568313093e-9 4.237439439199973e-9 1.941111694198819e-9 1.241381084588056e-9
          1.0220145996425742e-10 6.906336435317975e-11 6.540286395259923e-11
        </DataArray>
        <DataArray type="Float64" Name="gradient_matprop_error" format="ascii" RangeMin="0" RangeMax="0">
          0 0 0 0 0 0
          0 0 0 0 0 0
          0 0 0 0 0 0
          0 0 0 0 0 0
          0 0 0 0 0 0
          0 0 0 0 0 0
          0 0 0 0 0 0
          0 0 0 0 0 0
          0 0 0 0 0 0
          0 0 0 0 0 0
          0 0 0 0 0 0
          0 0 0 0 0 0
          0 0 0 0 0 0
          0 0 0 0 0 0
          0 0 0 0 0 0
          0 0 0 0 0 0
          0 0 0 0 0 0
          0 0 0 0 0 0
          0 0 0 0 0 0
          0 0 0 0 0 0
          0 0 0 0 0 0
          0 0 0 0 0 0
          0 0 0 0 0 0
          0 0 0 0 0 0
          0 0 0 0 0 0
          0 0 0 0 0 0
          0 0 0 0 0 0
          0 0 0 0 0 0
          0 0 0 0 0 0
          0 0 0 0 0 0
          0 0 0 0 0 0
          0 0 0 0 0 0
          0 0 0 0 0 0
          0 0 0 0 0 0
          0 0 0 0 0 0
          0 0 0 0 0 0
          0 0 0 0 0 0
          0 0 0 0 0 0
          0 0 0 0 0 0
          0 0 0 0 0 0
          0 0 0 0 0 0
          0 0 0 0 0 0
          0 0 0 0 0 0
          0 0 0 0 0 0
          0 0 0 0 0 0
          0 0 0 0 0 0
          0 0 0 0 0 0
          0 0 0 0 0 0
          0 0 0 0 0 0
          0 0 0 0 0 0
          0 0 0 0 0 0
          0 0 0 0 0 0
          0 0 0 0 0 0
          0 0 0 0 0 0
          0 0 0 0 0 0
          0 0 0 0 0 0
          0 0 0 0 0 0
          0 0 0 0 0 0
          0 0 0 0 0 0
          0 0 0 0 0 0
          0 0 0 0 0 0
          0 0 0 0 0 0
          0 0 0 0 0 0
          0 0 0 0 0 0
          0 0 0 0 0 0
          0 0 0 0 0 0
          0 0 0 0 0 0
          0 0 0
        </DataArray>
        <DataArray type="Float64" Name="initial_marker" format="ascii" RangeMin="0" RangeMax="2">
          0 0 2 0 0 0
          0 0 2 0 0 0
          2 2 0 2 1.25 0
          1 0.5 2 2 2 2
          0 0 0 0 0 0
          0 1.5 0.75 2 2 2
          2 2 2 0 0 1
          1 0 0 2 2 1.75
          0 0 0 0 0.25 0
          2 2 2 1.75 0 0
          0 0 0 0 0 0
          0 0 0 0 0 0
          0 0 0 1 1 0
          1 1 0 1 1 2
          2 2 2 0 0 1
          1 0 1 0.75 0 0.75
          0.3333333333333333 2 2 1.75 1.75 0
          0.75 0 0.5 0 0.5 0
          1.75 1.5 1.6666666666666667 0 0.25 0
          0 0 0 0 1.25 1.3333333333333333
          1 2 2 2 2 2
          2 2 2 2 2 2
          2 2 2 2 2 2
          2 2 2 2 2 2
          2 1.75 1.5 2 2 2
          1 1.5 1 1.5 0 1
          1 2 0.5 1.25 0 0.75
          0 1 0.5 2 1.75 1.6666666666666667
          2 2 2 2 2 2
          2 2 2 2 2 2
          2 2 2 2 2 2
          2 2 2 2 2 2
          2 2 2 2 2 2
          2 2 2 1.75 1.5 1
          1 0 0.5 0.75 0 0.5
          0 0 0 0 0 0.5
          0.25 0 0 0 0 0
          0 1.5 1.25 1.3333333333333333 1.3333333333333333 2
          2 2 2 2 2 2
          2 2 2 1.5 1.75 1
          1.5 0.5 1.25 1 2 2
          2 0 0.5 0 0.5 0
          0 0 1.5 1.3333333333333333 0.6666666666666666 2
          2 2 2 2 2 2
          2 2 2 2 2 2
          2 2 2 2 2 1.75
          1.5 1.3333333333333333 2 2 2 0
          0.5 0 0.5 0 0 0
          0 0 0 0 0 0
          0 0 0 1.5 0 0
          1.5 0 0 0 0 0
          0 0 0 0 0 0
          0 0 0.5 0.25 0 0
          0 0 0 0 1 1
          1 2 2 2 0 1
          1 2 2 2 2 2
          2 2 2 2 2 2
          2 2 2 2 2 1
          1.5 1 2 2 2 2
          2 2 2 2 2 2
          2 2 2 2 2 2
          2 2 2 2 2 2
          2 2 2 2 2 2
          2 2 2 2 2 2
          2 2 2 2 1 1
          0 0 1.5 1.5 1 1.5
          1.25 1 2 2 2 2
          1 1 0
        </DataArray>
        <DataArray type="Float64" Name="markers_norefine" format="ascii" RangeMin="0" RangeMax="0">
          0 0 0 0 0 0
          0 0 0 0 0 0
          0 0 0 0 0 0
          0 0 0 0 0 0
          0 0 0 0 0 0
          0 0 0 0 0 0
          0 0 0 0 0 0
          0 0 0 0 0 0
          0 0 0 0 0 0
          0 0 0 0 0 0
          0 0 0 0 0 0
          0 0 0 0 0 0
          0 0 0 0 0 0
          0 0 0 0 0 0
          0 0 0 0 0 0
          0 0 0 0 0 0
          0 0 0 0 0 0
          0 0 0 0 0 0
          0 0 0 0 0 0
          0 0 0 0 0 0
          0 0 0 0 0 0
          0 0 0 0 0 0
          0 0 0 0 0 0
          0 0 0 0 0 0
          0 0 0 0 0 0
          0 0 0 0 0 0
          0 0 0 0 0 0
          0 0 0 0 0 0
          0 0 0 0 0 0
          0 0 0 0 0 0
          0 0 0 0 0 0
          0 0 0 0 0 0
          0 0 0 0 0 0
          0 0 0 0 0 0
          0 0 0 0 0 0
          0 0 0 0 0 0
          0 0 0 0 0 0
          0 0 0 0 0 0
          0 0 0 0 0 0
          0 0 0 0 0 0
          0 0 0 0 0 0
          0 0 0 0 0 0
          0 0 0 0 0 0
          0 0 0 0 0 0
          0 0 0 0 0 0
          0 0 0 0 0 0
          0 0 0 0 0 0
          0 0 0 0 0 0
          0 0 0 0 0 0
          0 0 0 0 0 0
          0 0 0 0 0 0
          0 0 0 0 0 0
          0 0 0 0 0 0
          0 0 0 0 0 0
          0 0 0 0 0 0
          0 0 0 0 0 0
          0 0 0 0 0 0
          0 0 0 0 0 0
          0 0 0 0 0 0
          0 0 0 0 0 0
          0 0 0 0 0 0
          0 0 0 0 0 0
          0 0 0 0 0 0
          0 0 0 0 0 0
          0 0 0 0 0 0
          0 0 0 0 0 0
          0 0 0 0 0 0
          0 0 0
        </DataArray>
        <DataArray type="Float64" Name="markers_mustrefine" format="ascii" RangeMin="0" RangeMax="2">
          0 0 2 0 0 0
          0 0 2 0 0 0
          2 2 0 2 1.25 0
          1 0.5 2 2 2 2
          0 0 0 0 0 0
          0 1.5 0.75 2 2 2
          2 2 2 0 0 1
          1 0 0 2 2 1.75
          0 0 0 0 0.25 0
          2 2 2 1.75 0 0
          0 0 0 0 0 0
          0 0 0 0 0 0
          0 0 0 1 1 0
          1 1 0 1 1 2
          2 2 2 0 0 1
          1 0 1 0.75 0 0.75
          0.3333333333333333 2 2 1.75 1.75 0
          0.75 0 0.5 0 0.5 0
          1.75 1.5 1.6666666666666667 0 0.25 0
          0 0 0 0 1.25 1.3333333333333333
          1 2 2 2 2 2
          2 2 2 2 2 2
          2 2 2 2 2 2
          2 2 2 2 2 2
          2 1.75 1.5 2 2 2
          1 1.5 1 1.5 0 1
          1 2 0.5 1.25 0 0.75
          0 1 0.5 2 1.75 1.6666666666666667
          2 2 2 2 2 2
          2 2 2 2 2 2
          2 2 2 2 2 2
          2 2 2 2 2 2
          2 2 2 2 2 2
          2 2 2 1.75 1.5 1
          1 0 0.5 0.75 0 0.5
          0 0 0 0 0 0.5
          0.25 0 0 0 0 0
          0 1.5 1.25 1.3333333333333333 1.3333333333333333 2
          2 2 2 2 2 2
          2 2 2 1.5 1.75 1
          1.5 0.5 1.25 1 2 2
          2 0 0.5 0 0.5 0
          0 0 1.5 1.3333333333333333 0.6666666666666666 2
          2 2 2 2 2 2
          2 2 2 2 2 2
          2 2 2 2 2 1.75
          1.5 1.3333333333333333 2 2 2 0
          0.5 0 0.5 0 0 0
          0 0 0 0 0 0
          0 0 0 1.5 0 0
          1.5 0 0 0 0 0
          0 0 0 0 0 0
          0 0 0.5 0.25 0 0
          0 0 0 0 1 1
          1 2 2 2 0 1
          1 2 2 2 2 2
          2 2 2 2 2 2
          2 2 2 2 2 1
          1.5 1 2 2 2 2
          2 2 2 2 2 2
          2 2 2 2 2 2
          2 2 2 2 2 2
          2 2 2 2 2 2
          2 2 2 2 2 2
          2 2 2 2 1 1
          0 0 1.5 1.5 1 1.5
          1.25 1 2 2 2 2
          1 1 0
        </DataArray>
        <DataArray type="Float64" Name="gradient_marker" format="ascii" RangeMin="1" RangeMax="1">
          1 1 1 1 1 1
          1 1 1 1 1 1
          1 1 1 1 1 1
          1 1 1 1 1 1
          1 1 1 1 1 1
          1 1 1 1 1 1
          1 1 1 1 1 1
          1 1 1 1 1 1
          1 1 1 1 1 1
          1 1 1 1 1 1
          1 1 1 1 1 1
          1 1 1 1 1 1
          1 1 1 1 1 1
          1 1 1 1 1 1
          1 1 1 1 1 1
          1 1 1 1 1 1
          1 1 1 1 1 1
          1 1 1 1 1 1
          1 1 1 1 1 1
          1 1 1 1 1 1
          1 1 1 1 1 1
          1 1 1 1 1 1
          1 1 1 1 1 1
          1 1 1 1 1 1
          1 1 1 1 1 1
          1 1 1 1 1 1
          1 1 1 1 1 1
          1 1 1 1 1 1
          1 1 1 1 1 1
          1 1 1 1 1 1
          1 1 1 1 1 1
          1 1 1 1 1 1
          1 1 1 1 1 1
          1 1 1 1 1 1
          1 1 1 1 1 1
          1 1 1 1 1 1
          1 1 1 1 1 1
          1 1 1 1 1 1
          1 1 1 1 1 1
          1 1 1 1 1 1
          1 1 1 1 1 1
          1 1 1 1 1 1
          1 1 1 1 1 1
          1 1 1 1 1 1
          1 1 1 1 1 1
          1 1 1 1 1 1
          1 1 1 1 1 1
          1 1 1 1 1 1
          1 1 1 1 1 1
          1 1 1 1 1 1
          1 1 1 1 1 1
          1 1 1 1 1 1
          1 1 1 1 1 1
          1 1 1 1 1 1
          1 1 1 1 1 1
          1 1 1 1 1 1
          1 1 1 1 1 1
          1 1 1 1 1 1
          1 1 1 1 1 1
          1 1 1 1 1 1
          1 1 1 1 1 1
          1 1 1 1 1 1
          1 1 1 1 1 1
          1 1 1 1 1 1
          1 1 1 1 1 1
          1 1 1 1 1 1
          1 1 1 1 1 1
          1 1 1
        </DataArray>
        <DataArray type="Float64" Name="gradient_matprop_marker" format="ascii" RangeMin="0" RangeMax="0">
          0 0 0 0 0 0
          0 0 0 0 0 0
          0 0 0 0 0 0
          0 0 0 0 0 0
          0 0 0 0 0 0
          0 0 0 0 0 0
          0 0 0 0 0 0
          0 0 0 0 0 0
          0 0 0 0 0 0
          0 0 0 0 0 0
          0 0 0 0 0 0
          0 0 0 0 0 0
          0 0 0 0 0 0
          0 0 0 0 0 0
          0 0 0 0 0 0
          0 0 0 0 0 0
          0 0 0 0 0 0
          0 0 0 0 0 0
          0 0 0 0 0 0
          0 0 0 0 0 0
          0 0 0 0 0 0
          0 0 0 0 0 0
          0 0 0 0 0 0
          0 0 0 0 0 0
          0 0 0 0 0 0
          0 0 0 0 0 0
          0 0 0 0 0 0
          0 0 0 0 0 0
          0 0 0 0 0 0
          0 0 0 0 0 0
          0 0 0 0 0 0
          0 0 0 0 0 0
          0 0 0 0 0 0
          0 0 0 0 0 0
          0 0 0 0 0 0
          0 0 0 0 0 0
          0 0 0 0 0 0
          0 0 0 0 0 0
          0 0 0 0 0 0
          0 0 0 0 0 0
          0 0 0 0 0 0
          0 0 0 0 0 0
          0 0 0 0 0 0
          0 0 0 0 0 0
          0 0 0 0 0 0
          0 0 0 0 0 0
          0 0 0 0 0 0
          0 0 0 0 0 0
          0 0 0 0 0 0
          0 0 0 0 0 0
          0 0 0 0 0 0
          0 0 0 0 0 0
          0 0 0 0 0 0
          0 0 0 0 0 0
          0 0 0 0 0 0
          0 0 0 0 0 0
          0 0 0 0 0 0
          0 0 0 0 0 0
          0 0 0 0 0 0
          0 0 0 0 0 0
          0 0 0 0 0 0
          0 0 0 0 0 0
          0 0 0 0 0 0
          0 0 0 0 0 0
          0 0 0 0 0 0
          0 0 0 0 0 0
          0 0 0 0 0 0
          0 0 0
        </DataArray>
        <DataArray type="Float64" Name="combo" format="ascii" RangeMin="1" RangeMax="1">
          1 1 1 1 1 1
          1 1 1 1 1 1
          1 1 1 1 1 1
          1 1 1 1 1 1
          1 1 1 1 1 1
          1 1 1 1 1 1
          1 1 1 1 1 1
          1 1 1 1 1 1
          1 1 1 1 1 1
          1 1 1 1 1 1
          1 1 1 1 1 1
          1 1 1 1 1 1
          1 1 1 1 1 1
          1 1 1 1 1 1
          1 1 1 1 1 1
          1 1 1 1 1 1
          1 1 1 1 1 1
          1 1 1 1 1 1
          1 1 1 1 1 1
          1 1 1 1 1 1
          1 1 1 1 1 1
          1 1 1 1 1 1
          1 1 1 1 1 1
          1 1 1 1 1 1
          1 1 1 1 1 1
          1 1 1 1 1 1
          1 1 1 1 1 1
          1 1 1 1 1 1
          1 1 1 1 1 1
          1 1 1 1 1 1
          1 1 1 1 1 1
          1 1 1 1 1 1
          1 1 1 1 1 1
          1 1 1 1 1 1
          1 1 1 1 1 1
          1 1 1 1 1 1
          1 1 1 1 1 1
          1 1 1 1 1 1
          1 1 1 1 1 1
          1 1 1 1 1 1
          1 1 1 1 1 1
          1 1 1 1 1 1
          1 1 1 1 1 1
          1 1 1 1 1 1
          1 1 1 1 1 1
          1 1 1 1 1 1
          1 1 1 1 1 1
          1 1 1 1 1 1
          1 1 1 1 1 1
          1 1 1 1 1 1
          1 1 1 1 1 1
          1 1 1 1 1 1
          1 1 1 1 1 1
          1 1 1 1 1 1
          1 1 1 1 1 1
          1 1 1 1 1 1
          1 1 1 1 1 1
          1 1 1 1 1 1
          1 1 1 1 1 1
          1 1 1 1 1 1
          1 1 1 1 1 1
          1 1 1 1 1 1
          1 1 1 1 1 1
          1 1 1 1 1 1
          1 1 1 1 1 1
          1 1 1 1 1 1
          1 1 1 1 1 1
          1 1 1
        </DataArray>
        <DataArray type="Float64" Name="dHdT" format="ascii" RangeMin="25.811970228149754" RangeMax="32.661676012662646">
          25.812572658956704 25.813985832433147 25.99105131370379 25.823220729170465 25.81347582377538 25.816829040215453
          25.8173894492996 25.81773213957507 25.869591891133652 25.816206793858047 25.825341761775952 25.8246961128398
          25.883645930093813 25.870155121111292 25.81683514367871 25.839529948955214 25.833606284350406 25.827390473985275
          25.846764620708772 25.82484468136505 26.248487514815782 26.134712661196165 25.942563064003167 25.95881908078685
          25.83024221004794 25.835774087775455 25.819417943536482 25.8214719929929 25.82829559627654 25.835077649326013
          25.821452796894892 25.866054043489108 25.832836714340914 28.07884824701054 27.335232644078594 26.772850755943445
          26.460288549407245 26.376037899254992 26.04416085628977 25.813768982477896 25.81405133714905 25.821049946384754
          25.819475159076074 25.814461198995645 25.816784339029944 25.874091015554445 25.85748073478996 25.831724876585284
          25.814781395525962 25.815598051828257 25.814805601277627 25.815541018225524 25.819196658443666 25.81664171685678
          26.15136376655782 26.04019635133437 25.89339788422852 25.83315888171796 25.81197598178902 25.81197310496939
          25.811970228149754 25.814014366074197 25.814529113169232 25.817082171236876 25.817605187839767 25.81311172246942
          25.81393359472232 25.814162855783387 25.81504386026427 25.818128204442658 25.814392116844452 25.81255290932158
          25.812632784619357 25.84278590882394 25.84178567080302 25.861164783213766 25.85923284646472 25.82990751931993
          25.842083208231333 25.840859299787784 25.83962150071457 25.8544609760641 25.83790614461178 25.925386706379317
          25.9196662540119 25.879872592051942 25.904888851499393 25.823147827762895 25.822809654370822 25.83041128307678
          25.829664538009713 25.818587476492198 25.82314180764889 25.822776531025642 25.822162484453784 25.827844778253514
          25.82267173338629 25.856870560631528 25.854409033528988 25.83801479759542 25.84811005909524 25.838236624133465
          25.849378467113667 25.82845524218326 25.835075915213185 25.83801567961988 25.847135891814794 25.833974932547044
          25.88645660808129 25.858253651583034 25.87611487437341 25.821997995451085 25.826047335399252 25.819459824308893
          25.822560505707486 25.82214250297335 25.82532290723411 25.821928320060895 25.84051219253145 25.83239880821399
          25.836363160116047 26.084073405312775 26.067335550217066 25.989893267680124 25.978434057794708 26.024583892259294
          25.94934464978901 26.2158672972357 25.925633361249588 25.918104101249412 25.882511467499377 25.877779562739367
          25.899100628226662 25.865859367945404 26.097279196944847 26.075363296558674 25.97707963553434 26.02106276762129
          25.971988678908478 25.91410295608533 25.924101071394947 25.882591136731737 26.039886305822332 25.87628737634623
          25.851635317762035 25.856104244632807 25.839138187508805 25.95813283955396 25.902855048668794 25.905076504183015
          25.866674318443675 25.888735291145792 25.84551462886954 25.85965153418576 25.859166643383666 25.87467570792141
          25.85061225540997 25.901665742072204 25.832672432971947 25.841586532856788 25.8248919173366 25.83030214924069
          25.829758932193503 25.835912913936326 25.82692748107639 25.868263236789172 25.846695041613682 25.850704323642503
          26.830981886774993 26.744441594138287 26.534446471034617 27.856112498324496 26.49073260990941 26.432162590904866