<?xml version="1.0"?>
<VTKFile type="UnstructuredGrid" version="0.1" byte_order="LittleEndian" header_type="UInt32" compressor="vtkZLibDataCompressor">
  <UnstructuredGrid>
    <Piece NumberOfPoints="413" NumberOfCells="229">
      <PointData>
        <DataArray type="Int32" Name="libmesh_node_id" format="ascii" RangeMin="254" RangeMax="3662">
          254 349 354 355 357 358
          359 368 373 501 503 507
          508 742 755 760 766 775
          776 780 783 784 787 789
          791 792 793 794 795 796
          797 798 799 800 890 896
          1004 1007 1030 1032 1033 1035
          1037 1039 1311 1348 1349 1350
          1360 1389 1391 1393 1423 1425
          1427 1449 1450 1451 1452 1453
          1454 1455 1456 1457 1458 1459
          1460 1461 1462 1483 1484 1485
          1486 1487 1488 1489 1490 1491
          1492 1493 1494 1495 1496 1497
          1498 1499 1500 1501 1502 1503
          1504 1505 1506 1507 1508 1509
          1510 1511 1512 1513 1514 1515
          1516 1517 1518 1519 1520 1581
          1585 1618 1622 1743 1744 1745
          1746 1747 1748 1749 1750 1751
          1752 1753 1754 1755 1756 1757
          1758 1759 1798 1799 1800 1801
          1802 1803 1804 1805 1806 1807
          1818 1819 1820 1821 1822 1823
          1824 2399 2400 2408 2410 2753
          2756 2757 2758 2760 2761 2762
          2763 2764 2765 2766 2767 2768
          2769 2770 2771 2772 2773 2774
          2775 2776 2777 2778 2779 2780
          2781 2782 2783 2784 2785 2786
          2787 2788 2789 2790 2791 2792
          2793 2794 2795 2796 2798 2800
          2801 2802 2807 2808 2809 2810
          2811 2814 2815 2817 2818 2819
          2827 2828 2829 2830 2831 2832
          2833 2834 2835 2836 2837 2838
          2839 2840 2841 2842 2843 2844
          2845 2846 2847 2848 2849 2850
          2851 2852 2853 2854 2855 2856
          2857 2994 2995 2996 2997 2998
          2999 3000 3001 3002 3003 3004
          3005 3006 3007 3008 3009 3010
          3011 3012 3013 3014 3015 3016
          3017 3018 3019 3020 3021 3022
          3023 3024 3025 3026 3027 3028
          3029 3030 3031 3032 3033 3034
          3035 3036 3037 3038 3039 3040
          3041 3042 3043 3044 3045 3046
          3047 3048 3049 3050 3051 3052
          3053 3054 3055 3056 3057 3058
          3059 3060 3061 3062 3063 3064
          3065 3066 3067 3068 3069 3070
          3071 3072 3073 3074 3075 3076
          3077 3078 3079 3080 3081 3082
          3083 3084 3085 3086 3087 3088
          3089 3090 3091 3092 3093 3094
          3095 3096 3097 3098 3099 3100
          3101 3102 3103 3104 3105 3106
          3107 3108 3109 3110 3111 3112
          3113 3114 3115 3116 3117 3118
          3119 3120 3121 3122 3123 3124
          3125 3126 3127 3128 3129 3130
          3131 3132 3133 3134 3135 3136
          3137 3138 3139 3140 3141 3142
          3143 3144 3145 3146 3147 3407
          3408 3409 3424 3425 3426 3427
          3428 3429 3430 3628 3629 3630
          3631 3632 3633 3634 3656 3657
          3658 3659 3660 3661 3662
        </DataArray>
        <DataArray type="Float64" Name="bounds" format="ascii" RangeMin="0" RangeMax="0">
          0 0 0 0 0 0
          0 0 0 0 0 0
          0 0 0 0 0 0
          0 0 0 0 0 0
          0 0 0 0 0 0
          0 0 0 0 0 0
          0 0 0 0 0 0
          0 0 0 0 0 0
          0 0 0 0 0 0
          0 0 0 0 0 0
          0 0 0 0 0 0
          0 0 0 0 0 0
          0 0 0 0 0 0
          0 0 0 0 0 0
          0 0 0 0 0 0
          0 0 0 0 0 0
          0 0 0 0 0 0
          0 0 0 0 0 0
          0 0 0 0 0 0
          0 0 0 0 0 0
          0 0 0 0 0 0
          0 0 0 0 0 0
          0 0 0 0 0 0
          0 0 0 0 0 0
          0 0 0 0 0 0
          0 0 0 0 0 0
          0 0 0 0 0 0
          0 0 0 0 0 0
          0 0 0 0 0 0
          0 0 0 0 0 0
          0 0 0 0 0 0
          0 0 0 0 0 0
          0 0 0 0 0 0
          0 0 0 0 0 0
          0 0 0 0 0 0
          0 0 0 0 0 0
          0 0 0 0 0 0
          0 0 0 0 0 0
          0 0 0 0 0 0
          0 0 0 0 0 0
          0 0 0 0 0 0
          0 0 0 0 0 0
          0 0 0 0 0 0
          0 0 0 0 0 0
          0 0 0 0 0 0
          0 0 0 0 0 0
          0 0 0 0 0 0
          0 0 0 0 0 0
          0 0 0 0 0 0
          0 0 0 0 0 0
          0 0 0 0 0 0
          0 0 0 0 0 0
          0 0 0 0 0 0
          0 0 0 0 0 0
          0 0 0 0 0 0
          0 0 0 0 0 0
          0 0 0 0 0 0
          0 0 0 0 0 0
          0 0 0 0 0 0
          0 0 0 0 0 0
          0 0 0 0 0 0
          0 0 0 0 0 0
          0 0 0 0 0 0
          0 0 0 0 0 0
          0 0 0 0 0 0
          0 0 0 0 0 0
          0 0 0 0 0 0
          0 0 0 0 0 0
          0 0 0 0 0
        </DataArray>
        <DataArray type="Float64" Name="gradient_error" format="ascii" RangeMin="3.1024752351017443e-11" RangeMax="1.8260405595904874e-7">
          1.1025933792447702e-9 4.549061567478769e-8 1.8943860919275354e-8 7.901540660131162e-10 8.251584814241772e-8 4.311871578679799e-10
          5.245694259805727e-9 1.6071911657932124e-10 1.5526922224556198e-10 2.5577780405129816e-9 5.307669027138021e-10 3.1215879021890048e-9
          6.1617071502514e-10 2.3561546722732242e-8 2.8313436382834145e-9 2.3180294725364758e-9 5.7351968250373555e-8 1.779648471103312e-9
          3.277617075894655e-10 1.8859140915597135e-9 1.8126631001451737e-8 3.3924800275679615e-8 6.215415146710107e-9 4.347137484102611e-8
          2.774563973167137e-9 2.061929655316313e-9 7.367676627311767e-10 5.682676868557408e-10 2.7132897746091143e-9 2.729953838414349e-9
          9.506465976390662e-10 2.3182055643141974e-9 6.571705420015732e-10 2.57472082154394e-9 1.6336301656123626e-10 1.597152756311585e-10
          4.35245631007919e-9 2.784392482120234e-9 1.5146323940443944e-10 1.6323539034740054e-10 1.1682881882224498e-10 1.9747147099515096e-10
          1.3227236341818147e-10 2.188166692540375e-10 2.596238575774121e-8 1.0768608889552705e-8 1.1514662732030064e-9 5.796465461184856e-9
          5.610376834427971e-10 5.535031626418495e-8 2.145696041496387e-8 1.0748971020345115e-7 1.6024299312877364e-7 5.255064902753803e-8
          1.8260405595904874e-7 2.5445195140652004e-8 2.0208167591130776e-9 8.950927234058659e-9 1.6626304357982217e-9 5.032010572796067e-8
          4.5522370356265535e-9 1.4844442576731579e-8 8.770623969054871e-10 3.569057492539963e-10 6.777583225802145e-10 2.651780540853857e-10
          2.108188303206969e-9 8.789483970830616e-10 7.251778863148265e-10 7.640178646643729e-8 7.54887874995292e-9 2.0187414217488537e-8
          1.6336962607782321e-9 8.780385921466215e-8 8.94929727945473e-9 2.260089287332365e-8 3.628684909244957e-9 1.5383288703976312e-9
          6.817845804893642e-10 3.728407643809002e-10 4.358193168685519e-9 1.8591544533009847e-9 7.952737155649805e-10 8.529300843179354e-9
          1.1359253075357567e-8 8.800010724122466e-9 1.2731907679508165e-8 5.524536458154417e-9 6.678763972269865e-9 1.6883494453695797e-9
          1.1622055017867325e-9 4.277067591515096e-9 5.832144573963033e-9 1.8668002935447465e-9 7.480555655954368e-9 1.2900572433378226e-9
          6.544881475626065e-9 6.397458703290798e-10 3.9008027553824937e-10 2.962006358647894e-10 2.644829660740001e-10 4.819762461714347e-10
          6.021227769360239e-10 2.1473973815895818e-10 4.2767509619698554e-10 2.916698303760781e-10 6.531767354797551e-10 1.177956270998626e-10
          1.7483663372913366e-10 2.549388789344587e-10 2.9079577516585154e-10 3.8370583169456405e-9 5.45453076604869e-9 3.9101792481965726e-9
          2.799790777446376e-9 3.999313678607658e-9 1.2479285579153225e-9 1.7874512147803622e-9 1.8237835918821436e-9 2.629255551306167e-9
          9.305124598055577e-10 5.422879013603836e-10 7.31226348622284e-10 2.335698491589574e-10 2.93802761039769e-10 3.418232915266323e-10
          3.773534827386044e-10 1.6332711299336397e-10 8.479066352486587e-11 1.1129849651557408e-10 3.5630852031494745e-11 4.500835784333866e-11
          6.104964663147172e-11 6.558392431746865e-11 3.1024752351017443e-11 1.695517002730745e-10 6.895969187571596e-11 7.244120443561632e-11
          2.2671097419548055e-10 9.398746480628196e-11 7.725225681091281e-11 4.289102517558349e-11 2.521248773510945e-10 1.0444140951631459e-10
          7.974030675405858e-11 1.1649636124713003e-9 1.299421157054251e-9 7.559607470350438e-10 4.936242347054585e-10 2.374177060208155e-9
          2.1582733528490847e-9 1.925437461745126e-9 1.210787998541616e-9 3.735104053715819e-9 3.133881789242709e-9 1.0418873339449037e-9
          1.285281043529378e-9 1.0303943143706341e-9 1.984741475866616e-9 8.295680319799092e-10 1.04393749290185e-9 4.848775492783013e-10
          6.437886396341086e-10 6.466657121883109e-10 7.942091374706887e-10 4.398379440151764e-10 1.627987037000649e-9 1.0369905547207478e-9
          1.2084841337807859e-9 9.842761156418864e-9 5.796585050100471e-9 1.377941324850445e-8 8.418659883202099e-9 5.992338684271914e-9
          4.772784343550282e-9 3.142676100548339e-9 1.1997654580241297e-8 8.859757889777922e-9 6.736120984634781e-9 2.941068764780155e-9
          2.341799273289795e-9 3.996026897119919e-9 2.427854035839716e-9 1.5726327565902104e-9 1.798735270170432e-9 1.0185217911462716e-9
          3.3450616006306774e-9 2.2284856825983888e-9 2.0088438583186686e-9 1.4423396892695617e-9 7.794102222854163e-10 2.5680298840907722e-9
          1.7357493694143435e-9 1.3343616313281871e-9 1.1410144630127343e-9 7.255159003613778e-10 5.666995298394022e-10 2.8723773677037514e-10
          3.9639923560060426e-10 1.9810111383802036e-10 2.6189874880426215e-10 6.608776477673628e-10 4.2450437664305783e-10 4.250025891844889e-10
          2.694669908841092e-10 1.6843480483758863e-10 1.6924470957959615e-10 4.237439439199973e-9 2.919054568313093e-9 2.120494160372456e-9
          1.4140486424028201e-9 6.423643632517688e-9 4.500264661847963e-9 3.1229224829983644e-9 1.941111694198819e-9 1.241381084588056e-9
          9.215908995942157e-10 5.832158704185072e-10 3.0258423517927443e-9 1.9470523433954832e-9 1.384047369993116e-9 1.0186208082566468e-9
          6.625032908052445e-10 6.467007832714665e-10 4.1685591012172767e-10 1.4625380533574452e-9 9.582213123129685e-10 7.622677256434687e-10
          4.235816053314032e-10 2.6532728023677475e-10 2.6270563868004575e-10 1.634523537920132e-10 6.175218441929645e-10 3.8814373893865125e-10
          3.0982189188304313e-10 1.849636232615865e-8 1.0749597474407169e-8 2.254827357525508e-8 1.612656672923019e-8 1.2038072084936485e-8
          8.97521663676994e-9 6.109998244881109e-9 1.9811039259056544e-8 1.5013635178783946e-8 1.0977197227974403e-8 5.126772143092679e-9
          2.7855151647495545e-9 6.069843547963869e-9 4.327397958972756e-9 2.935512562473194e-9 2.216428481829592e-9 1.3506959944301273e-9
          5.175901320784128e-9 3.5769037046144654e-9 2.6534300846424502e-9 2.5473038593133536e-8 1.4763090374265971e-8 2.6785837188935235e-8
          2.2475250020980984e-8 1.7164690435468488e-8 1.239896662989034e-8 8.574473494415963e-9 2.3570798236422657e-8 1.7951661555550165e-8
          1.2973342231876276e-8 6.697098565205758e-9 3.67049293426228e-9 6.957329857370224e-9 5.75602191235369e-9 4.030217491206425e-9
          2.934832998424936e-9 1.819583581400652e-9 5.982954851325203e-9 4.194665466662372e-9 3.043524421512332e-9 8.895635295393716e-9
          6.320918401151088e-9 4.2400832753151235e-9 2.8902126251416535e-9 1.1222276724240592e-8 8.059494632667832e-9 5.287502002034212e-9
          4.290814243048829e-9 2.7782560813609104e-9 1.909241687153718e-9 1.2162787798695377e-9 5.513731710985969e-9 3.5883821777342114e-9
          2.408451268137321e-9 1.9477614440189353e-9 1.2832309940906025e-9 8.688751108158248e-10 5.581868450760308e-10 2.392544285348852e-9
          1.5836837511681705e-9 1.0601567446252432e-9 8.317187231309808e-10 5.242350215254e-10 3.5246387678584627e-10 2.609125914611338e-10
          1.0299630821041784e-9 6.505744936468498e-10 4.3177832706219396e-10 1.289812588568597e-8 9.319380496965385e-9 6.040768776295848e-9
          4.162710703156532e-9 1.3510663646049447e-8 9.780028182871683e-9 6.31541176019676e-9 6.410364859288444e-9 4.185813334035714e-9
          2.770693568996884e-9 1.7729671345047704e-9 6.74040432410662e-9 4.406551446641838e-9 2.9034616243838306e-9 2.7076204819403877e-9
          1.7976324939953823e-9 1.1868398768781671e-9 7.653594719660359e-10 2.8216462299154527e-9 1.8750913324147775e-9 1.2322612836445238e-9
          1.1711841177812851e-9 7.405102274875499e-10 4.851188296919507e-10 3.5942048434196436e-10 1.2223158846897346e-9 7.729582624528115e-10
          5.042544195332896e-10 1.036184371289888e-9 1.1818724795270025e-9 9.715236622505758e-10 1.401135411354221e-9 8.822267194492173e-10
          9.890254492774059e-10 5.788036339065775e-10 6.388266744066333e-10 7.061431209478798e-10 7.532780215478374e-10 4.284605245866089e-10
          1.1635046875848441e-9 7.47991263731721e-10 8.507390205992699e-10 1.5281424440340796e-9 1.2395470627799316e-9 1.5815746531238345e-9
          1.274897724308301e-9 8.251750368020398e-10 9.324603339458417e-10 5.021321543289422e-10 1.3186102525525087e-9 8.532172610473265e-10
          9.638555488409384e-10 3.587827020050211e-10 3.9644497368290653e-10 2.2766435176541636e-10 2.499104896622378e-10 2.6502967777804593e-10
          2.6527512208098507e-10 1.6712659349134855e-10 4.651160984523249e-10 2.9240340701674943e-10 2.824634152717802e-10 1.3782514634608452e-10
          1.526335657469614e-10 1.0854879296677005e-10 1.1686116974980308e-10 1.0322150886666769e-10 1.0553015133720772e-10 8.546869152556964e-11
          1.7980184753194954e-10 1.3492051428707495e-10 1.1556404301068584e-10 5.140723763267035e-10 3.2406311557622243e-10 3.0978882520575896e-10
          1.95790444684063e-10 5.320198011095494e-10 3.3547604467800534e-10 3.201713862518817e-10 1.9936885246055746e-10 1.5005915740051987e-10
          1.2774679739002256e-10 1.0459965227730438e-10 2.0657599500505412e-10 1.5545083275972598e-10 1.322043025664212e-10 1.0220145996425742e-10
          6.906336435317975e-11 6.540286395259923e-11 1.6178042215592782e-10 9.572007422848185e-11 9.944885713587497e-11 5.982675104664844e-11
          2.3598980830050647e-10 1.3935708685477749e-10 1.4192742431991115e-10 3.1812785937874486e-10 1.8704416935808856e-10 1.8878467735610996e-10
          1.0925207664916617e-10 3.9471798417003523e-10 2.3166811492100073e-10 2.3199420530899056e-10 4.4945923370677944e-10 2.6361052405846177e-10
          2.6236839341402415e-10 1.5100036318061582e-10 4.691829992311146e-10 2.751560334189755e-10 2.729293301571867e-10
        </DataArray>
        <DataArray type="Float64" Name="gradient_matprop_error" format="ascii" RangeMin="0" RangeMax="0">
          0 0 0 0 0 0
          0 0 0 0 0 0
          0 0 0 0 0 0
          0 0 0 0 0 0
          0 0 0 0 0 0
          0 0 0 0 0 0
          0 0 0 0 0 0
          0 0 0 0 0 0
          0 0 0 0 0 0
          0 0 0 0 0 0
          0 0 0 0 0 0
          0 0 0 0 0 0
          0 0 0 0 0 0
          0 0 0 0 0 0
          0 0 0 0 0 0
          0 0 0 0 0 0
          0 0 0 0 0 0
          0 0 0 0 0 0
          0 0 0 0 0 0
          0 0 0 0 0 0
          0 0 0 0 0 0
          0 0 0 0 0 0
          0 0 0 0 0 0
          0 0 0 0 0 0
          0 0 0 0 0 0
          0 0 0 0 0 0
          0 0 0 0 0 0
          0 0 0 0 0 0
          0 0 0 0 0 0
          0 0 0 0 0 0
          0 0 0 0 0 0
          0 0 0 0 0 0
          0 0 0 0 0 0
          0 0 0 0 0 0
          0 0 0 0 0 0
          0 0 0 0 0 0
          0 0 0 0 0 0
          0 0 0 0 0 0
          0 0 0 0 0 0
          0 0 0 0 0 0
          0 0 0 0 0 0
          0 0 0 0 0 0
          0 0 0 0 0 0
          0 0 0 0 0 0
          0 0 0 0 0 0
          0 0 0 0 0 0
          0 0 0 0 0 0
          0 0 0 0 0 0
          0 0 0 0 0 0
          0 0 0 0 0 0
          0 0 0 0 0 0
          0 0 0 0 0 0
          0 0 0 0 0 0
          0 0 0 0 0 0
          0 0 0 0 0 0
          0 0 0 0 0 0
          0 0 0 0 0 0
          0 0 0 0 0 0
          0 0 0 0 0 0
          0 0 0 0 0 0
          0 0 0 0 0 0
          0 0 0 0 0 0
          0 0 0 0 0 0
          0 0 0 0 0 0
          0 0 0 0 0 0
          0 0 0 0 0 0
          0 0 0 0 0 0
          0 0 0 0 0 0
          0 0 0 0 0
        </DataArray>
        <DataArray type="Float64" Name="initial_marker" format="ascii" RangeMin="0" RangeMax="2">
          0 0.75 0 0 2 1.5
          0 0 0 0 0 0
          0 0.3333333333333333 0 0 1.5 1.5
          1 2 0 0.25 0 0.5
          0 0 0 0 0 0
          0 0 0 0 0 0
          0 0 0 0 0 0
          0 0 1.6666666666666667 1.5 1.5 0.3333333333333333
          0 2 1.3333333333333333 2 2 2
          2 2 2 1 0.75 2
          2 1.5 2 2 0.5 0.25
          2 2 1.25 2 2 2
          2 2 2 2 2 2
          2 1.25 2 2 2 0.5
          1 0 1 0.25 0.5 0
          0 0 0 0 0.5 0
          0 0 0 0 0 0
          0 0 0 0 0 0
          0.75 1 1 0 0 0
          0 0 0 0 0 0
          0 0 0 0 0 0
          0 0 0 0 0 0
          0 0 0 0 0 0
          0 0 0 0 0 0
          0 2 2 2 2 2
          2 2 2 2 2 1
          1.5 1 2 1 1.5 1
          1.25 0 1 0.5 2 1.75
          2 2 2 2 2 2
          2 2 2 2 2 2
          2 2 2 2 2 2
          2 2 2 2 2 2
          2 2 2 2 2 1
          1 0 0 1.5 1.5 1
          1.5 1.25 1 2 2 2
          2 2 2 2 2 2
          2 2 2 2 2 2
          2 2 2 2 2 2
          2 1.75 2 1.5 2 2
          1.3333333333333333 2 2 2 2 2
          2 2 2 2 2 2
          2 2 2 2 2 2
          2 2 2 2 2 2
          2 2 2 2 2 2
          2 2 2 2 2 2
          2 2 2 2 2 2
          2 2 2 2 2 2
          2 2 2 2 2 2
          2 2 2 2 1.75 2
          2 2 2 2 1.25 1.3333333333333333
          2 2 1.75 2 2 2
          2 2 2 2 2 2
          2 2 2 2 2 2
          2 2 2 2 2 2
          2 2 2 2 2 2
          2 1 1 0 1 1
          1 1 1 0 0 0
          1 1 0 1 0 1
          1 1 0 0 1 1
          0 1 1 0.5 0.75 0
          0 0 1 1 0 0
          0.25 0 0 0 0 0
          0.75 0.5 0 1 1 0
          0 1 1 0 1 1
          0 0 1 1 0 1
          1 0 1.5 1.25 1 0.5
          2 1.75 2 2 2 2
          2 2 2 2 2 2
          2 2 2 2 2
        </DataArray>
        <DataArray type="Float64" Name="markers_norefine" format="ascii" RangeMin="0" RangeMax="0">
          0 0 0 0 0 0
          0 0 0 0 0 0
          0 0 0 0 0 0
          0 0 0 0 0 0
          0 0 0 0 0 0
          0 0 0 0 0 0
          0 0 0 0 0 0
          0 0 0 0 0 0
          0 0 0 0 0 0
          0 0 0 0 0 0
          0 0 0 0 0 0
          0 0 0 0 0 0
          0 0 0 0 0 0
          0 0 0 0 0 0
          0 0 0 0 0 0
          0 0 0 0 0 0
          0 0 0 0 0 0
          0 0 0 0 0 0
          0 0 0 0 0 0
          0 0 0 0 0 0
          0 0 0 0 0 0
          0 0 0 0 0 0
          0 0 0 0 0 0
          0 0 0 0 0 0
          0 0 0 0 0 0
          0 0 0 0 0 0
          0 0 0 0 0 0
          0 0 0 0 0 0
          0 0 0 0 0 0
          0 0 0 0 0 0
          0 0 0 0 0 0
          0 0 0 0 0 0
          0 0 0 0 0 0
          0 0 0 0 0 0
          0 0 0 0 0 0
          0 0 0 0 0 0
          0 0 0 0 0 0
          0 0 0 0 0 0
          0 0 0 0 0 0
          0 0 0 0 0 0
          0 0 0 0 0 0
          0 0 0 0 0 0
          0 0 0 0 0 0
          0 0 0 0 0 0
          0 0 0 0 0 0
          0 0 0 0 0 0
          0 0 0 0 0 0
          0 0 0 0 0 0
          0 0 0 0 0 0
          0 0 0 0 0 0
          0 0 0 0 0 0
          0 0 0 0 0 0
          0 0 0 0 0 0
          0 0 0 0 0 0
          0 0 0 0 0 0
          0 0 0 0 0 0
          0 0 0 0 0 0
          0 0 0 0 0 0
          0 0 0 0 0 0
          0 0 0 0 0 0
          0 0 0 0 0 0
          0 0 0 0 0 0
          0 0 0 0 0 0
          0 0 0 0 0 0
          0 0 0 0 0 0
          0 0 0 0 0 0
          0 0 0 0 0 0
          0 0 0 0 0 0
          0 0 0 0 0
        </DataArray>
        <DataArray type="Float64" Name="markers_mustrefine" format="ascii" RangeMin="0" RangeMax="2">
          0 0.75 0 0 2 1.5
          0 0 0 0 0 0
          0 0.3333333333333333 0 0 1.5 1.5
          1 2 0 0.25 0 0.5
          0 0 0 0 0 0
          0 0 0 0 0 0
          0 0 0 0 0 0
          0 0 1.6666666666666667 1.5 1.5 0.3333333333333333
          0 2 1.3333333333333333 2 2 2
          2 2 2 1 0.75 2
          2 1.5 2 2 0.5 0.25
          2 2 1.25 2 2 2
          2 2 2 2 2 2
          2 1.25 2 2 2 0.5
          1 0 1 0.25 0.5 0
          0 0 0 0 0.5 0
          0 0 0 0 0 0
          0 0 0 0 0 0
          0.75 1 1 0 0 0
          0 0 0 0 0 0
          0 0 0 0 0 0
          0 0 0 0 0 0
          0 0 0 0 0 0
          0 0 0 0 0 0
          0 2 2 2 2 2
          2 2 2 2 2 1
          1.5 1 2 1 1.5 1
          1.25 0 1 0.5 2 1.75
          2 2 2 2 2 2
          2 2 2 2 2 2
          2 2 2 2 2 2
          2 2 2 2 2 2
          2 2 2 2 2 1
          1 0 0 1.5 1.5 1
          1.5 1.25 1 2 2 2
          2 2 2 2 2 2
          2 2 2 2 2 2
          2 2 2 2 2 2
          2 1.75 2 1.5 2 2
          1.3333333333333333 2 2 2 2 2
          2 2 2 2 2 2
          2 2 2 2 2 2
          2 2 2 2 2 2
          2 2 2 2 2 2
          2 2 2 2 2 2
          2 2 2 2 2 2
          2 2 2 2 2 2
          2 2 2 2 2 2
          2 2 2 2 1.75 2
          2 2 2 2 1.25 1.3333333333333333
          2 2 1.75 2 2 2
          2 2 2 2 2 2
          2 2 2 2 2 2
          2 2 2 2 2 2
          2 2 2 2 2 2
          2 1 1 0 1 1
          1 1 1 0 0 0
          1 1 0 1 0 1
          1 1 0 0 1 1
          0 1 1 0.5 0.75 0
          0 0 1 1 0 0
          0.25 0 0 0 0 0
          0.75 0.5 0 1 1 0
          0 1 1 0 1 1
          0 0 1 1 0 1
          1 0 1.5 1.25 1 0.5
          2 1.75 2 2 2 2
          2 2 2 2 2 2
          2 2 2 2 2
        </DataArray>
        <DataArray type="Float64" Name="gradient_marker" format="ascii" RangeMin="0" RangeMax="1">
          1 0.25 0.875 1 0.25 1
          0.75 1 1 1 1 1
          1 0.5 1 1 0.125 1
          1 1 0.5 0.375 0.5 0.5
          1 1 1 1 1 1
          1 1 1 1 1 1
          1 1 1 1 1 1
          1 1 0 0.5 1 0.5
          1 0.125 0 0.375 0.5 0
          0.5 0.5 1 0.5 1 0.625
          1 0.5 1 1 1 1
          1 1 1 0.75 1 0.5
          1 0.75 1 0.5 1 1
          1 1 1 1 1 0
          0 0 0 0.5 0.5 1
          1 0.5 0.5 1 0.5 1
          0.5 1 1 1 1 1
          1 1 1 1 1 1
          1 1 1 0 0 0
          0.5 0.5 1 1 0.5 0.5
          1 1 1 1 1 1
          1 1 1 1 1 1
          1 1 1 1 1 1
          1 1 1 1 1 1
          1 1 1 1 1 1
          1 1 1 1 1 1
          1 1 1 1 1 1
          1 1 1 1 1 1
          1 1 1 1 1 1
          1 1 1 1 1 1
          1 1 1 1 1 1
          1 1 1 1 1 1
          1 1 1 1 1 1
          1 1 1 1 1 1
          1 1 1 1 1 1
          1 1 1 1 1 1
          1 1 1 1 1 1
          1 1 1 1 1 1
          1 1 1 1 1 1
          1 1 1 1 1 1
          1 1 1 1 1 1
          1 1 1 1 1 1
          1 1 1 1 1 1
          1 1 1 1 1 1
          1 1 1 1 1 1
          1 1 1 1 1 1
          1 1 1 1 1 1
          1 1 1 1 1 1
          1 1 1 1 1 1
          1 1 1 1 1 1
          1 1 1 1 1 1
          1 1 1 1 1 1
          1 1 1 1 1 1
          1 1 1 1 1 1
          1 1 1 1 1 1
          1 1 1 1 1 1
          1 1 1 1 1 1
          1 1 1 1 1 1
          1 1 1 1 1 1
          1 1 1 1 1 1
          1 1 1 1 1 1
          1 1 1 1 1 1
          1 1 1 1 1 1
          1 1 1 1 1 1
          1 1 1 1 1 1
          1 1 1 1 1 1
          1 1 1 1 1 1
          1 1 1 1 1 1
          1 1 1 1 1
        </DataArray>
        <DataArray type="Float64" Name="gradient_matprop_marker" format="ascii" RangeMin="0" RangeMax="0">
          0 0 0 0 0 0
          0 0 0 0 0 0
          0 0 0 0 0 0
          0 0 0 0 0 0
          0 0 0 0 0 0
          0 0 0 0 0 0
          0 0 0 0 0 0
          0 0 0 0 0 0
          0 0 0 0 0 0
          0 0 0 0 0 0
          0 0 0 0 0 0
          0 0 0 0 0 0
          0 0 0 0 0 0
          0 0 0 0 0 0
          0 0 0 0 0 0
          0 0 0 0 0 0
          0 0 0 0 0 0
          0 0 0 0 0 0
          0 0 0 0 0 0
          0 0 0 0 0 0
          0 0 0 0 0 0
          0 0 0 0 0 0
          0 0 0 0 0 0
          0 0 0 0 0 0
          0 0 0 0 0 0
          0 0 0 0 0 0
          0 0 0 0 0 0
          0 0 0 0 0 0
          0 0 0 0 0 0
          0 0 0 0 0 0
          0 0 0 0 0 0
          0 0 0 0 0 0
          0 0 0 0 0 0
          0 0 0 0 0 0
          0 0 0 0 0 0
          0 0 0 0 0 0
          0 0 0 0 0 0
          0 0 0 0 0 0
          0 0 0 0 0 0
          0 0 0 0 0 0
          0 0 0 0 0 0
          0 0 0 0 0 0
          0 0 0 0 0 0
          0 0 0 0 0 0
          0 0 0 0 0 0
          0 0 0 0 0 0
          0 0 0 0 0 0
          0 0 0 0 0 0
          0 0 0 0 0 0
          0 0 0 0 0 0
          0 0 0 0 0 0
          0 0 0 0 0 0
          0 0 0 0 0 0
          0 0 0 0 0 0
          0 0 0 0 0 0
          0 0 0 0 0 0
          0 0 0 0 0 0
          0 0 0 0 0 0
          0 0 0 0 0 0
          0 0 0 0 0 0
          0 0 0 0 0 0
          0 0 0 0 0 0
          0 0 0 0 0 0
          0 0 0 0 0 0
          0 0 0 0 0 0
          0 0 0 0 0 0
          0 0 0 0 0 0
          0 0 0 0 0 0
          0 0 0 0 0
        </DataArray>
        <DataArray type="Float64" Name="combo" format="ascii" RangeMin="0" RangeMax="1">
          1 0.25 0.875 1 0.25 1
          0.75 1 1 1 1 1
          1 0.5 1 1 0.125 1
          1 1 0.5 0.375 0.5 0.5
          1 1 1 1 1 1
          1 1 1 1 1 1
          1 1 1 1 1 1
          1 1 0 0.5 1 0.5
          1 0.125 0 0.375 0.5 0
          0.5 0.5 1 0.5 1 0.625
          1 0.5 1 1 1 1
          1 1 1 0.75 1 0.5
          1 0.75 1 0.5 1 1
          1 1 1 1 1 0
          0 0 0 0.5 0.5 1
          1 0.5 0.5 1 0.5 1
          0.5 1 1 1 1 1
          1 1 1 1 1 1
          1 1 1 0 0 0
          0.5 0.5 1 1 0.5 0.5
          1 1 1 1 1 1
          1 1 1 1 1 1
          1 1 1 1 1 1
          1 1 1 1 1 1
          1 1 1 1 1 1
          1 1 1 1 1 1
          1 1 1 1 1 1
          1 1 1 1 1 1
          1 1 1 1 1 1
          1 1 1 1 1 1
          1 1 1 1 1 1
          1 1 1 1 1 1
          1 1 1 1 1 1
          1 1 1 1 1 1
          1 1 1 1 1 1
          1 1 1 1 1 1
          1 1 1 1 1 1
          1 1 1 1 1 1
          1 1 1 1 1 1
          1 1 1 1 1 1
          1 1 1 1 1 1
          1 1 1 1 1 1
          1 1 1 1 1 1
          1 1 1 1 1 1
          1 1 1 1 1 1
          1 1 1 1 1 1
          1 1 1 1 1 1
          1 1 1 1 1 1
          1 1 1 1 1 1
          1 1 1 1 1 1
          1 1 1 1 1 1
          1 1 1 1 1 1
          1 1 1 1 1 1
          1 1 1 1 1 1
          1 1 1 1 1 1
          1 1 1 1 1 1
          1 1 1 1 1 1
          1 1 1 1 1 1
          1 1 1 1 1 1
          1 1 1 1 1 1
          1 1 1 1 1 1
          1 1 1 1 1 1
          1 1 1 1 1 1
          1 1 1 1 1 1
          1 1 1 1 1 1
          1 1 1 1 1 1
          1 1 1 1 1 1
          1 1 1 1 1 1
          1 1 1 1 1
        </DataArray>
        <DataArray type="Float64" Name="dHdT" format="ascii" RangeMin="25.811674305572478" RangeMax="32.68719728786343">
          25.815026090907605 26.13971868962775 25.834114941596162 25.81403861915807 27.50252869477043 25.865028501925664
          25.82845875552281 25.811880153899217 25.811890346492163 25.812333606580246 25.81196675687298 25.812823339973946
          25.81202154169038 25.937951430614117 25.835980402130005 25.875163758178957 26.856492629452504 26.01786797538547
          25.84276152294184 26.171170216041148 25.915483850599443 26.00993122853123 25.84468783130157 26.070549940195576
          25.83473388281969 25.841713462508668 25.81768813527615 25.818493331983355 25.824562317336305 25.826421373896657
          25.81682874708975 25.849547803889056 25.81970403621131 25.827031487528295 25.811679543394828 25.811674305572478
          25.836099653020945 25.82744283805365 25.81306031264797 25.812849482647277 25.813123077221395 25.81297193423705
          25.813352577388528 25.813042895163527 26.63124948552071 26.243216307321415 25.949420367345233 26.013528880607435
          25.843360715169922 27.622575958583738 26.490453252274268 29.35884141771843 31.21973367211681 27.56338355037157
          32.10464943499527 26.891907269806662 26.190115432599143 26.15197532701486 25.927056195760912 28.081102439107024
          26.658468056629754 26.425849103928552 25.969125742386325 25.873385361564807 25.85863762254754 25.83010174519837
          26.18442086589948 25.961225069652293 25.893902192551565 29.336648953846616 27.234655051033815 26.71843310014001
          26.124084408739943 29.873826956320144 27.51938545534361 26.84450155385521 26.45287021979141 26.073656722917917
          25.936776618177756 25.857735575733578 26.583097026595432 26.12880891085873 25.956599848196905 26.09365054753247
          26.186885706274758 26.007019690719087 26.23023376985647 26.01038426428335 26.075116881751267 25.883508282032363
          25.891405920959745 25.919881174064535 25.948527906438702 25.867374135160482 26.105608507673715 25.8997089925481
          25.962000055694375 25.840989390116015 25.842820449421925 25.823958213676306 25.825087126997403 25.83145615497255
          25.83504919317157 25.82130120595275 25.845776836653105 25.826321712793742 25.83677536298323 25.818620076159817
          25.823693994030037 25.829412720441326 25.832055252989626 25.94674797554093 25.995255713956407 25.923444181424024
          25.912030587628603 25.94555965441722 25.85971685891915 25.87216328271725 25.87969341600182 25.89220000347393
          25.847744805209388 25.833717380281588 25.83788553618997 25.821186587368985 25.82262421970056 25.82727612444264
          25.828432705513915 25.819282675339544 25.815520448879546 25.816105678200024 25.813273181108283 25.813467794876786
          25.81486122892899 25.814983154437666 25.81310486712876 25.81754482109295 25.814045472307008 25.815314058913426
          25.81911798161505 25.814737173218333 25.815769971243533 25.813533848626406 25.819837228564694 25.815045810467936
          25.816016904606563 26.036019439862056 26.07210582891761 25.953593532081314 25.91098829065297 26.268980179651642
          26.213914083430453 26.183056345307065 26.044630731156502 26.502713513528995 26.399280126963244 26.025680226893087