<?xml version="1.0"?>
<VTKFile type="UnstructuredGrid" version="0.1" byte_order="LittleEndian" header_type="UInt32" compressor="vtkZLibDataCompressor">
  <UnstructuredGrid>
    <Piece NumberOfPoints="750" NumberOfCells="433">
      <PointData>
        <DataArray type="Int32" Name="libmesh_node_id" format="ascii" RangeMin="322" RangeMax="6671">
          322 382 383 481 482 483
          484 485 486 487 489 490
          491 492 493 494 626 628
          629 630 631 632 635 636
          637 638 639 686 687 694
          695 874 875 876 879 880
          881 882 883 884 885 886
          887 888 889 890 891 892
          893 896 897 900 901 902
          903 1437 1438 1439 1445 1447
          1448 1449 1450 1451 1452 1453
          1454 1455 1456 1457 1458 1459
          1460 1469 1473 1474 1476 1479
          1481 1482 1483 1484 1485 1486
          1487 1488 1489 1490 1492 1494
          1496 1599 1600 1601 1602 1603
          1604 1605 1606 1607 1608 2465
          2466 2469 2470 2471 2472 2474
          2477 2486 2488 2489 2490 2492
          2494 2496 2497 2498 2499 2500
          2501 2502 2503 2504 2505 2506
          2507 2508 2509 2530 2531 2532
          2533 2534 2535 2536 2537 2538
          2539 2547 2548 2550 2551 2552
          2564 2565 2566 2567 2568 2569
          2570 2571 2572 2573 2581 2582
          2584 2585 2586 2588 2589 2590
          2591 2592 2593 2594 2595 2596
          2597 2598 2599 2600 2601 2602
          2603 2604 2605 2606 2607 2608
          2609 2610 2611 2612 2613 2614
          2615 2616 2617 2618 2619 2620
          2621 2622 2623 2624 2634 2635
          2638 2640 2650 2652 2654 2694
          2695 2696 2697 2698 2699 2700
          2768 2769 2770 2771 2772 2773
          2774 2775 2776 2777 2778 2779
          2780 2781 2826 2827 2828 2829
          2830 2831 2832 2833 2834 2835
          2836 2837 2838 2839 2840 2841
          2842 2843 2844 2845 2846 2847
          2848 2849 2864 2865 2866 2867
          2868 2869 2870 2871 2872 2873
          2874 2875 2876 2877 2878 2879
          2880 2881 2882 2883 2884 2885
          2886 2887 2888 2889 2890 2891
          2892 2893 2894 2895 2896 2897
          2925 2926 2927 2928 2929 2930
          2931 2932 2933 2934 2935 2936
          2937 2938 2939 2940 2941 5757
          5758 5759 5760 5761 5762 5763
          5764 5765 5766 5767 5768 5769
          5770 5781 5782 5783 5784 5785
          5786 5787 5788 5789 5790 5801
          5802 5803 5804 5805 5806 5807
          5808 5809 5810 5818 5819 5820
          5821 5822 5823 5824 5904 5905
          5906 5907 5908 5909 5910 5911
          5912 5913 5924 5925 5926 5927
          5928 5929 5930 5931 5932 5933
          5934 5935 5936 5937 5938 5939
          5940 5941 5942 5943 5944 5945
          5946 5947 6045 6046 6048 6051
          6053 6054 6055 6056 6057 6058
          6059 6060 6061 6062 6064 6066
          6068 6070 6071 6072 6073 6074
          6075 6076 6079 6080 6082 6085
          6087 6088 6089 6090 6091 6092
          6093 6094 6095 6096 6098 6100
          6102 6104 6105 6106 6107 6108
          6109 6110 6168 6172 6174 6175
          6176 6177 6178 6179 6180 6196
          6199 6201 6203 6205 6206 6207
          6208 6209 6210 6211 6220 6222
          6224 6296 6297 6299 6302 6304
          6305 6306 6307 6308 6309 6310
          6311 6312 6313 6315 6317 6319
          6321 6322 6323 6324 6325 6326
          6327 6330 6331 6333 6336 6338
          6339 6340 6341 6342 6343 6344
          6345 6346 6347 6349 6351 6353
          6355 6356 6357 6358 6359 6360
          6361 6419 6421 6423 6425 6426
          6427 6428 6429 6430 6431 6440
          6442 6444 6447 6449 6451 6453
          6454 6455 6456 6457 6458 6459
          6468 6470 6472 6474 6475 6476
          6477 6478 6479 6480 6481 6482
          6483 6484 6485 6486 6487 6488
          6489 6490 6491 6492 6493 6494
          6495 6496 6497 6498 6499 6500
          6501 6502 6503 6504 6505 6506
          6507 6508 6509 6510 6511 6512
          6513 6514 6515 6516 6517 6518
          6519 6520 6521 6522 6523 6524
          6525 6526 6527 6528 6529 6530
          6531 6532 6533 6534 6535 6536
          6537 6538 6539 6540 6541 6542
          6543 6544 6545 6546 6547 6548
          6549 6550 6551 6552 6553 6554
          6555 6556 6557 6558 6559 6560
          6561 6562 6563 6564 6565 6566
          6567 6568 6569 6570 6571 6572
          6573 6574 6575 6576 6577 6578
          6579 6580 6581 6582 6583 6584
          6585 6586 6587 6588 6589 6590
          6591 6592 6593 6594 6595 6596
          6597 6598 6599 6600 6601 6602
          6603 6604 6605 6606 6607 6608
          6609 6610 6611 6612 6613 6614
          6615 6616 6617 6618 6619 6620
          6621 6622 6623 6624 6625 6626
          6627 6628 6629 6630 6631 6632
          6633 6634 6635 6636 6637 6638
          6639 6640 6641 6642 6643 6644
          6645 6646 6647 6648 6649 6650
          6651 6652 6653 6654 6655 6656
          6657 6658 6659 6660 6661 6662
          6663 6664 6665 6666 6667 6668
          6669 6670 6671 870 871 872
          873 877 878 627 633 894
          634 895 898 899 1442 1673
          1676 1677 1674 1433 1434 1680
          1679 1440 1463 1464 1467 2435
          2436 2437 2440 2447 2448 2451
        </DataArray>
        <DataArray type="Float64" Name="bounds" format="ascii" RangeMin="0" RangeMax="0">
          0 0 0 0 0 0
          0 0 0 0 0 0
          0 0 0 0 0 0
          0 0 0 0 0 0
          0 0 0 0 0 0
          0 0 0 0 0 0
          0 0 0 0 0 0
          0 0 0 0 0 0
          0 0 0 0 0 0
          0 0 0 0 0 0
          0 0 0 0 0 0
          0 0 0 0 0 0
          0 0 0 0 0 0
          0 0 0 0 0 0
          0 0 0 0 0 0
          0 0 0 0 0 0
          0 0 0 0 0 0
          0 0 0 0 0 0
          0 0 0 0 0 0
          0 0 0 0 0 0
          0 0 0 0 0 0
          0 0 0 0 0 0
          0 0 0 0 0 0
          0 0 0 0 0 0
          0 0 0 0 0 0
          0 0 0 0 0 0
          0 0 0 0 0 0
          0 0 0 0 0 0
          0 0 0 0 0 0
          0 0 0 0 0 0
          0 0 0 0 0 0
          0 0 0 0 0 0
          0 0 0 0 0 0
          0 0 0 0 0 0
          0 0 0 0 0 0
          0 0 0 0 0 0
          0 0 0 0 0 0
          0 0 0 0 0 0
          0 0 0 0 0 0
          0 0 0 0 0 0
          0 0 0 0 0 0
          0 0 0 0 0 0
          0 0 0 0 0 0
          0 0 0 0 0 0
          0 0 0 0 0 0
          0 0 0 0 0 0
          0 0 0 0 0 0
          0 0 0 0 0 0
          0 0 0 0 0 0
          0 0 0 0 0 0
          0 0 0 0 0 0
          0 0 0 0 0 0
          0 0 0 0 0 0
          0 0 0 0 0 0
          0 0 0 0 0 0
          0 0 0 0 0 0
          0 0 0 0 0 0
          0 0 0 0 0 0
          0 0 0 0 0 0
          0 0 0 0 0 0
          0 0 0 0 0 0
          0 0 0 0 0 0
          0 0 0 0 0 0
          0 0 0 0 0 0
          0 0 0 0 0 0
          0 0 0 0 0 0
          0 0 0 0 0 0
          0 0 0 0 0 0
          0 0 0 0 0 0
          0 0 0 0 0 0
          0 0 0 0 0 0
          0 0 0 0 0 0
          0 0 0 0 0 0
          0 0 0 0 0 0
          0 0 0 0 0 0
          0 0 0 0 0 0
          0 0 0 0 0 0
          0 0 0 0 0 0
          0 0 0 0 0 0
          0 0 0 0 0 0
          0 0 0 0 0 0
          0 0 0 0 0 0
          0 0 0 0 0 0
          0 0 0 0 0 0
          0 0 0 0 0 0
          0 0 0 0 0 0
          0 0 0 0 0 0
          0 0 0 0 0 0
          0 0 0 0 0 0
          0 0 0 0 0 0
          0 0 0 0 0 0
          0 0 0 0 0 0
          0 0 0 0 0 0
          0 0 0 0 0 0
          0 0 0 0 0 0
          0 0 0 0 0 0
          0 0 0 0 0 0
          0 0 0 0 0 0
          0 0 0 0 0 0
          0 0 0 0 0 0
          0 0 0 0 0 0
          0 0 0 0 0 0
          0 0 0 0 0 0
          0 0 0 0 0 0
          0 0 0 0 0 0
          0 0 0 0 0 0
          0 0 0 0 0 0
          0 0 0 0 0 0
          0 0 0 0 0 0
          0 0 0 0 0 0
          0 0 0 0 0 0
          0 0 0 0 0 0
          0 0 0 0 0 0
          0 0 0 0 0 0
          0 0 0 0 0 0
          0 0 0 0 0 0
          0 0 0 0 0 0
          0 0 0 0 0 0
          0 0 0 0 0 0
          0 0 0 0 0 0
          0 0 0 0 0 0
          0 0 0 0 0 0
          0 0 0 0 0 0
          0 0 0 0 0 0
          0 0 0 0 0 0
        </DataArray>
        <DataArray type="Float64" Name="gradient_error" format="ascii" RangeMin="4.9705761066013e-13" RangeMax="9.839435798042812e-10">
          6.260338309983195e-12 3.2832280391776778e-12 2.6508916594752006e-11 8.195853419961466e-12 7.714502091646899e-12 5.034526296812534e-12
          1.829643947611542e-11 6.217899369247695e-12 5.162171738904006e-12 1.0895826875816978e-11 3.2743223051759244e-11 1.8058594307534636e-11
          2.601898470529698e-12 2.832735092721354e-11 1.429755488259303e-11 4.9049370924649934e-11 4.218539517707127e-12 1.5849506048428625e-11
          9.639740000146066e-12 4.921077118915927e-12 2.920245936676128e-12 4.692804022451757e-12 2.0703704219428485e-11 1.9502848516815049e-10
          1.3067139524795223e-11 4.589088136939355e-12 3.2207946829124294e-11 2.471974872073968e-12 3.2876202029002643e-12 3.375909867422167e-12
          4.288735604717477e-12 3.2190217363043193e-12 3.4927038378190676e-12 5.982691973024195e-12 9.357850629339719e-12 2.3284340970945664e-12
          3.4988203543445376e-12 1.521041002660785e-12 3.937139340400037e-12 2.1819865186618522e-12 9.71385241515374e-13 2.769785919891608e-12
          4.669206611594509e-12 6.359830743717381e-12 4.568186598267842e-12 7.475691743136155e-13 4.399451438320477e-12 3.357585321121364e-12
          8.050454875840253e-12 2.7813138692617398e-11 5.030119353621304e-11 5.098977361245039e-11 1.7009527005293903e-10 6.03658537432177e-11
          2.804787551395081e-10 3.707594479503076e-12 5.107536551092113e-12 4.775963514611835e-12 8.232664510695265e-12 3.366102951666923e-12
          2.931497588354098e-12 3.52715548704279e-12 2.8741373559357037e-12 9.819451891378234e-13 3.3347158114895837e-12 2.674398078764901e-12
          2.5619033958210995e-12 3.3135352711774996e-12 1.7984469361266448e-12 6.553474743880519e-12 5.0344622517427436e-12 3.462410324713596e-12
          4.1742466069470715e-12 1.7700549702680942e-11 1.042323771482097e-10 4.574075745407269e-11 7.826606717811024e-12 8.508838079340291e-11
          4.707053596108717e-12 4.92462525380032e-12 1.8554772521243215e-12 2.454469182509121e-12 4.785602023223359e-12 3.4777031550204974e-12
          7.844137163697181e-12 4.429715806284574e-12 1.882276049351224e-12 5.7112304486088865e-12 1.5099353771383897e-11 3.093743489629416e-11
          1.1484116642107708e-11 5.3015422670815896e-12 5.5527394164964865e-12 3.3854142583563484e-12 4.8387381816244265e-12 6.390000339066797e-12
          7.973325092850047e-12 5.306363206653661e-12 6.428637250997229e-12 5.739953432569476e-12 8.740471267561478e-12 9.502060030559394e-12
          8.24727801890368e-12 4.240499958724861e-12 5.141915158834766e-12 4.342713629794336e-12 6.782748302285576e-12 5.133563610952314e-12
          1.303086367821273e-11 7.192068176111077e-12 4.553765999536971e-12 7.285329354920967e-12 7.003381070167046e-12 6.810962525148321e-12
          7.929536195386034e-12 4.022458901930238e-12 3.5407727298230955e-12 3.311578211438584e-12 2.9166721948235906e-12 1.545801966341287e-12
          2.7642451079392485e-12 2.4922560988407123e-12 2.5204647147461062e-12 3.2704681944881576e-12 1.906139751142445e-12 6.471921607613432e-12
          5.570967533120218e-12 5.98732113400192e-12 4.6909401804776824e-12 2.3879740159831073e-10 1.947280600815517e-10 4.751106371390306e-11
          3.885421448238623e-11 1.0273967631699181e-10 2.1228704753001678e-11 5.282280251669284e-10 4.3446609007036785e-10 8.535026675220766e-11
          2.2631708406678537e-10 3.8492277571638805e-11 9.538727795597274e-12 7.34223580850961e-12 8.054400293532711e-11 1.748652696734452e-11
          8.436719719318303e-10 7.016535915872982e-10 1.668566362400155e-10 1.3717308921368169e-10 3.650511887290922e-10 7.279464440935362e-11
          9.839435798042812e-10 8.224948662705922e-10 1.6068277152461155e-10 4.283511272865456e-10 1.2622360981086992e-10 2.704392579959838e-11
          1.1496385687948937e-11 1.4675546753091736e-10 3.129750099346127e-11 1.0517373358158353e-11 8.83718193379318e-12 5.8572356520445765e-12
          5.075196672050601e-12 6.5812662746972226e-12 5.822222251037952e-12 1.7025330148697587e-11 1.4034941480396015e-11 4.035655931342828e-12
          8.995687095760112e-12 4.925310524662907e-12 5.647879891199894e-12 2.9136293390199638e-12 6.315569923555541e-12 4.394699750287469e-12
          4.6985885347952976e-12 2.8808805411853873e-12 5.897391245892292e-12 5.326739955391158e-12 5.733420915859677e-12 2.7001266086460496e-11
          2.2256301343188085e-11 6.893592050100563e-12 5.968800099726762e-12 1.2335519337368906e-11 3.83675007732995e-12 3.1479193722523256e-11
          2.595867734004675e-11 6.8234990325427765e-12 1.432785053000182e-11 6.866301550082906e-12 4.185871773208985e-12 8.168802397196003e-12
          5.1292546624254876e-12 7.846180620242098e-12 4.743965600926451e-12 9.177089869889956e-12 6.688170296384418e-12 6.9829408568225916e-12
          5.825038713680583e-12 8.18450849463878e-12 1.1394908898709578e-11 1.0566729880460751e-11 1.2796417527551244e-11 3.231582383864786e-12
          4.5530671140225706e-12 2.183058986500335e-12 2.5081822862668276e-12 3.836250201128646e-12 4.705035980561811e-12 3.433551046320584e-12
          9.68786402307325e-13 8.348774312216692e-13 1.288941952628436e-12 1.0802062638880282e-12 4.9705761066013e-13 5.441650079029265e-13
          5.380113555683769e-13 7.009684601360132e-13 8.714705751476205e-13 5.318577032338273e-13 1.6090975029495468e-12 1.3255350965543873e-12
          5.789651004766238e-13 1.0419726901592275e-12 2.1232893415434434e-12 1.9835716459537175e-12 8.134448256323291e-12 7.189730845655518e-12
          1.5215490961758843e-12 4.135434782390743e-12 3.6584871984780225e-12 1.7007950839580728e-12 4.986286342917032e-12 2.5651563021940794e-12
          1.5211338410110515e-12 2.983355968581258e-12 1.1153455389426356e-12 1.7509095061016035e-12 1.4845314644699494e-12 2.239152686316194e-12
          1.55304602238035e-12 1.744919548159414e-12 3.133445462396025e-12 9.97310731030097e-13 1.4496140621822837e-12 1.5079962245425694e-12
          2.2482459249953737e-12 1.307215711821853e-12 1.7191388648052896e-12 1.5642439715498915e-12 2.3182319852391456e-12 2.086066080469215e-12
          9.025855040005338e-13 1.1121189228474871e-12 1.1052654775047031e-12 1.4093490782944933e-12 1.8539001756992848e-12 1.0984120321619195e-12
          3.782841389102721e-12 3.3673290994081824e-12 1.5921890417497003e-12 2.688385263020005e-12 5.28045069346375e-12 4.724832682706962e-12
          2.307277593865221e-12 2.1000833704198686e-12 3.3111651924626272e-12 1.601982001539394e-12 5.912543714395059e-12 5.322895355986096e-12
          2.323734108349209e-12 3.7389781269472846e-12 1.7405535745271182e-12 1.9295286994174013e-12 1.1060166600049933e-12 1.1021155388712421e-12
          1.3195849794215097e-12 1.405941685859721e-12 8.931562216382121e-13 2.1185038243076843e-12 1.0982144177374905e-12 1.4922983922979324e-12
          2.3377082548394783e-12 3.1398664004318404e-12 1.5955560949895024e-12 1.780756527816893e-12 1.7898975196835988e-12 2.087833535795765e-12
          1.5175665411849773e-12 4.9849503999445594e-12 2.35041204863871e-12 2.8376375757933428e-12 6.810837624921633e-12 3.028637663132447e-12
          3.6696970705389155e-12 2.3722043221705096e-12 7.593798995978348e-12 3.322408189631757e-12 4.049888541399076e-12 2.3822419927977906e-12
          2.280381238986792e-12 3.908655873797602e-12 3.7367847280285886e-12 1.5669777939936582e-12 2.4818480859158486e-12 2.375236701353711e-12
          2.024007971633893e-12 3.2846219305071154e-12 2.093021883649169e-12 8.82611873990594e-12 8.418443608627705e-12 4.517076102555339e-12
          7.319964366858297e-12 1.73999302439152e-12 2.6587218386397746e-12 1.2233583140009275e-12 1.768516879852479e-12 1.6104905906910476e-12
          2.313113398524893e-12 1.6196153091981935e-12 5.78326339613159e-12 3.1842291341382176e-12 4.854400416896128e-12 1.847530407510282e-11
          1.759413645045567e-11 8.194533809916798e-12 7.813283618561746e-12 1.5195639558569825e-11 6.779462781549038e-12 3.592489694266455e-11
          3.417738797216656e-11 1.5094666518828332e-11 2.939789242106317e-11 1.1949131733331113e-11 5.340534352944232e-12 8.586119104032717e-12
          4.4964507764150495e-12 2.2935196122021803e-11 1.0202810945331565e-11 1.634119832003569e-11 3.9232951084613356e-12 5.6925580939410735e-12
          2.6040807296988002e-12 3.667748160493943e-12 3.1581220380264074e-12 4.432831155147812e-12 2.9544971317368933e-12 1.0720862816129647e-11
          5.784455204555735e-12 7.60582611714548e-12 2.2425784809526476e-12 2.1464485365907382e-12 3.4397641414770737e-12 3.286784500023169e-12
          1.2952053358116933e-12 2.006652885546778e-12 1.9225440534964827e-12 1.8898988997052733e-12 2.872384735759262e-12 1.685170929500479e-12
          6.734256701156437e-12 6.420673417466327e-12 3.76562723074744e-12 5.57003936123497e-12 1.5693829618620352e-12 2.2930925736842094e-12
          9.987112627464584e-13 1.4217097712664392e-12 1.4092867165423526e-12 1.9752205344191594e-12 1.3115129049781082e-12 4.368239691814347e-12
          2.634585856782704e-12 3.564109824005454e-12 1.4200396870899632e-10 1.3501864601136693e-10 1.1566459913512054e-10 2.2722813779190322e-10
          6.507661701341695e-11 6.18851944162477e-11 2.8508852458691712e-11 2.7129440252322138e-11 5.310803167876234e-11 2.335364760761805e-11
          1.0905786543058959e-10 1.0373540002396486e-10 4.520472932781049e-11 8.895299894331618e-11 8.896266138490203e-11 6.186283852019435e-11
          1.492116593526467e-10 4.110817996623362e-11 1.8212390748324235e-11 2.8916862654011644e-11 1.294642130258034e-11 6.848233920261041e-11
          3.0130372407980185e-11 4.763707040921038e-11 3.7006940935112686e-10 3.5264401423217035e-10 3.0282834606770974e-10 5.04302225134964e-10
          1.687441671556124e-10 1.606382947210485e-10 7.320025084153025e-11 6.967057993010262e-11 1.3783889141619768e-10 5.986456889792374e-11
          2.4089601213516934e-10 2.2959893388710833e-10 9.927435451217154e-11 1.9735062579790166e-10 2.317298934742643e-10 1.5843074772649475e-10
          3.3258927720456554e-10 1.0584133306260459e-10 4.626955767966371e-11 7.306708979134351e-11 3.2353885668330305e-11 1.5136942432151153e-10
          6.581779892693068e-11 1.0390363922663936e-10 3.968383198590314e-11 6.483042233431096e-11 1.8831560636412236e-11 8.513700481763325e-12
          1.1503530824162758e-11 6.216392753556208e-12 3.057850868541302e-11 1.3826852935856467e-11 1.8481553742414868e-11 5.7619496381299274e-12
          9.87244436875682e-11 5.768648449235419e-11 1.396557000875152e-10 4.624862845158945e-11 2.083560352214216e-11 2.7519651495862173e-11
          1.2593046659142544e-11 6.507409978574301e-11 2.916929334894833e-11 3.8223105258109006e-11 7.324316313622795e-12 4.885743811876638e-12
          1.00976637157111e-11 6.94889275845122e-10 6.647674718409044e-10 5.74853793395379e-10 8.085887965780153e-10 3.173291522847079e-10
          3.02860300283311e-10 1.3719914539867887e-10 1.3078383593202315e-10 2.609078901376004e-10 1.1255892700260942e-10 3.8593398462707854e-10
          3.688040770683969e-10 1.5918564510827674e-10 3.1842521399275896e-10 4.406879333374185e-10 2.990189040824733e-10 5.388331771955047e-10
          2.0010796325140264e-10 8.667923988175946e-11 1.3682261072767616e-10 5.994954180045497e-11 2.44351196040442e-10 1.055823564195631e-10
          1.6666965903684802e-10 9.46951603338061e-10 9.087439785922431e-10 7.90503685332427e-10 9.44681211941286e-10 4.337692328329986e-10
          4.148890755041772e-10 1.8757792772131187e-10 1.790614455560744e-10 3.58799465291068e-10 1.5445306318425977e-10 4.5094626072765896e-10
          4.3145870584702183e-10 1.8621451329451782e-10 3.733516810099802e-10 6.079012588469695e-10 4.1155646654262e-10 6.328300507957519e-10
          2.7549626974507525e-10 1.188828042202368e-10 1.8767515900344355e-10 8.182902416776515e-11 2.8674036800474775e-10 1.2368287038789058e-10
          1.9525881605338334e-10 1.8322112366509284e-10 1.0461909884452066e-10 2.2262099576839019e-10 8.505923446590771e-11 3.79543397189854e-11
          4.94816293111806e-11 2.2545453154559603e-11 1.030764166185159e-10 4.58381788386888e-11 5.953979041369901e-11 1.2889497439990364e-11
          8.382341275517768e-12 1.5354251732948425e-11 2.502992595857203e-10 1.413227201363232e-10 2.602834320930571e-10 1.1571491039808317e-10
          5.136145887534916e-11 6.655612069201366e-11 3.017368167059922e-11 1.202707131718028e-10 5.3350579938303823e-11 6.907799677840902e-11
          1.7055654224243332e-11 1.0980665350142269e-11 1.7660178742795323e-11 1.1995072842698998e-11 1.1423787283638918e-11 6.977010296753131e-12
          6.646531318669918e-12 9.872392348349264e-12 5.758604789869155e-12 1.9862854394824773e-11 1.8911154836426882e-11 8.870009916554377e-12
          1.630535795797542e-11 7.757641613888706e-12 4.568629347866312e-12 5.562269192707296e-12 3.3211882515655796e-12 1.2777391371756021e-11
          6.081472651910339e-12 9.137997226027948e-12 3.0382054989068136e-11 2.8931468334129606e-11 1.198512381102201e-11 1.1424286065979627e-11
          2.4925931737560047e-11 9.891470957336108e-12 4.300111591988468e-11 4.096163753858536e-11 1.6230470480097943e-11 3.5288760464571157e-11
          3.5808553691747933e-12 3.411568680648988e-12 4.54706671830039e-12 4.3354346753744496e-12 2.1287750854390683e-12 2.5960548792792e-12
          2.472466572082296e-12 2.9949839768888513e-12 3.787866244078397e-12 2.163581659082478e-12 6.511722450713003e-12 6.210389153455492e-12
          3.3614058053300125e-12 5.400120071777477e-12 1.9474780541608395e-11 7.773162950893064e-12 1.3833483071219714e-11 6.596727310626218e-12
          2.747911772584038e-11 1.0983825722403569e-11 1.9405126654967446e-11 2.42161938713303e-12 3.009676062318436e-12 1.5776561839095682e-12
          1.8288853444398842e-12 2.09555281261154e-12 2.5674222689285873e-12 1.6794856356002053e-12 4.2446903352098826e-12 2.4144918437619584e-12
          3.351480736493267e-12 2.7289127116291576e-12 3.678079766957632e-12 1.7591021435365562e-12 2.2731342467914816e-12 2.1724775411118917e-12
          2.8546214041583983e-12 1.8399934470328237e-12 5.992309287684137e-12 3.6033549687682245e-12 4.176492845017931e-12 9.047744078001032e-12
          5.4047020095437035e-12 5.558389108961655e-12 3.4060210683880084e-12 1.2638811127215072e-11 6.0821711785056056e-12 7.743795018872236e-12
          2.671779389010339e-12 3.2497174762683273e-12 1.7713978150519316e-12 2.0336511220428157e-12 2.0383727007720203e-12 2.3897580354637566e-12
          1.5281468106206762e-12 4.4563210908373236e-12 2.6924047178684115e-12 3.1952947682499054e-12 5.649729646025447e-11 5.3840012158837036e-11
          2.22868385076521e-11 2.124766878684749e-11 4.6396074021271245e-11 1.836498949508591e-11 6.861358199784732e-11 6.541790341045467e-11
          2.574830858750219e-11 5.640417016968478e-11 8.479738824718703e-12 8.088548852656037e-12 4.604879983791168e-12 4.392153165362055e-12
          7.0190290857493475e-12 3.819562710870858e-12 1.0237040213245219e-11 9.76790187631276e-12 5.28195887508089e-12 8.469925172919354e-12
          3.5988634481360984e-11 1.4358493865544678e-11 2.5250410014573337e-11 1.01891772229565e-11 4.367572500391965e-11 1.7381264141406162e-11
          3.051711684739636e-11 5.538710139099842e-12 3.0672028195386593e-12 3.994321891866922e-12 2.3002077329590437e-12 6.687464074450797e-12
          3.654754065093047e-12 4.826358082173084e-12 7.708457243255727e-11 7.352143293532002e-11 3.029485112845401e-11 2.8894531944234125e-11
          6.342195257980332e-11 2.4978637996872834e-11 8.013132522373283e-11 7.643778348144029e-11 3.0026246057603775e-11 6.595091603884836e-11
          1.1466278078648622e-11 1.0941257817416621e-11 6.191630220256231e-12 5.909865670022629e-12 9.48599653638535e-12 5.131038565740691e-12
          1.1907786546244194e-11 1.1362331950708721e-11 6.13346636867309e-12 9.850709266143676e-12 4.9092839666177234e-11 1.9492741950006427e-11
          3.424115753822786e-11 1.3798558139703537e-11 5.1043647204916216e-11 2.0252806458380184e-11 3.557857061681269e-11 7.477142113334526e-12
          4.0806504414563926e-12 5.3769383563831324e-12 2.9626041048935798e-12 7.76512842305122e-12 4.2373292092502905e-12 5.58222909003686e-12
          1.6362827154425782e-11 6.718697727409173e-12 9.942759510266488e-12 4.9521060473163835e-12 1.9676989694207274e-11 8.095747852733128e-12
          1.1880669251307826e-11 2.3802868137974368e-12 2.6651013481331576e-12 1.5730469271332405e-12 1.6138034336083321e-12 1.9025241842406562e-12
          2.078279899826828e-12 1.301897965567122e-12 3.1695174788176156e-12 1.79405595903298e-12 2.4201601357322493e-12 5.678060393152711e-12
          3.4410548872930196e-12 4.063284823076402e-12 2.5348892643684115e-12 6.741160016062054e-12 4.06853016644414e-12 4.806061714662071e-12
          2.200336972096541e-11 9.020512504775333e-12 1.3226657976191752e-11 6.545436046534414e-12 2.2838908510857584e-11 9.35859820694303e-12
          1.3710328016555227e-11 3.5189494230823002e-12 2.003062932700179e-12 2.682550843481307e-12 1.6082425268336295e-12 3.648779770998248e-12
          2.0725738874178217e-12 2.7788170309111154e-12 7.46979058916111e-12 4.4967476700208256e-12 5.310757202244436e-12 3.289845993288457e-12
          7.728395314355202e-12 4.649639775036286e-12 5.486514454973216e-12 9.81967135958194e-12 9.025798392619521e-12 6.331607153790117e-12
          7.187181575319352e-12 6.140594139416346e-12 1.586519540274625e-11 5.916002739402386e-12 6.491301007131654e-11 9.677639087328727e-11
          7.614798307724904e-11 1.636105174893902e-10 7.711941806679662e-11 2.0518149019160344e-10 5.513018154841134e-12 7.41609444321628e-12
          3.738695241559516e-12 3.401523028132667e-12 7.365746362654034e-12 9.178979729047534e-12 8.187679720040154e-12 3.0383472834739297e-12
          7.354465180788493e-12 8.904969272697394e-12 1.008066437651872e-11 1.4200019071574683e-11 2.1051428231144524e-11 6.52961661617852e-12
          1.0106189762501818e-11 8.927774263823309e-12 6.227030525049352e-12 3.5693444603745715e-12 5.534655357429118e-12 6.036954063983824e-12
        </DataArray>
        <DataArray type="Float64" Name="gradient_matprop_error" format="ascii" RangeMin="0" RangeMax="0">
          0 0 0 0 0 0
          0 0 0 0 0 0
          0 0 0 0 0 0
          0 0 0 0 0 0
          0 0 0 0 0 0
          0 0 0 0 0 0
          0 0 0 0 0 0
          0 0 0 0 0 0
          0 0 0 0 0 0
          0 0 0 0 0 0
          0 0 0 0 0 0
          0 0 0 0 0 0
          0 0 0 0 0 0
          0 0 0 0 0 0
          0 0 0 0 0 0
          0 0 0 0 0 0
          0 0 0 0 0 0
          0 0 0 0 0 0
          0 0 0 0 0 0
          0 0 0 0 0 0
          0 0 0 0 0 0
          0 0 0 0 0 0
          0 0 0 0 0 0
          0 0 0 0 0 0
          0 0 0 0 0 0
          0 0 0 0 0 0
          0 0 0 0 0 0
          0 0 0 0 0 0
          0 0 0 0 0 0
          0 0 0 0 0 0
          0 0 0 0 0 0
          0 0 0 0 0 0
          0 0 0 0 0 0
          0 0 0 0 0 0
          0 0 0 0 0 0
          0 0 0 0 0 0
          0 0 0 0 0 0
          0 0 0 0 0 0
          0 0 0 0 0 0
          0 0 0 0 0 0
          0 0 0 0 0 0
          0 0 0 0 0 0
          0 0 0 0 0 0
          0 0 0 0 0 0
          0 0 0 0 0 0
          0 0 0 0 0 0
          0 0 0 0 0 0
          0 0 0 0 0 0
          0 0 0 0 0 0
          0 0 0 0 0 0
          0 0 0 0 0 0
          0 0 0 0 0 0
          0 0 0 0 0 0
          0 0 0 0 0 0
          0 0 0 0 0 0
          0 0 0 0 0 0
          0 0 0 0 0 0
          0 0 0 0 0 0
          0 0 0 0 0 0
          0 0 0 0 0 0
          0 0 0 0 0 0
          0 0 0 0 0 0
          0 0 0 0 0 0
          0 0 0 0 0 0
          0 0 0 0 0 0
          0 0 0 0 0 0
          0 0 0 0 0 0
          0 0 0 0 0 0
          0 0 0 0 0 0
          0 0 0 0 0 0
          0 0 0 0 0 0
          0 0 0 0 0 0
          0 0 0 0 0 0
          0 0 0 0 0 0
          0 0 0 0 0 0
          0 0 0 0 0 0
          0 0 0 0 0 0
          0 0 0 0 0 0
          0 0 0 0 0 0
          0 0 0 0 0 0
          0 0 0 0 0 0
          0 0 0 0 0 0
          0 0 0 0 0 0
          0 0 0 0 0 0
          0 0 0 0 0 0
          0 0 0 0 0 0
          0 0 0 0 0 0
          0 0 0 0 0 0
          0 0 0 0 0 0
          0 0 0 0 0 0
          0 0 0 0 0 0
          0 0 0 0 0 0
          0 0 0 0 0 0
          0 0 0 0 0 0
          0 0 0 0 0 0
          0 0 0 0 0 0
          0 0 0 0 0 0
          0 0 0 0 0 0
          0 0 0 0 0 0
          0 0 0 0 0 0
          0 0 0 0 0 0
          0 0 0 0 0 0
          0 0 0 0 0 0
          0 0 0 0 0 0
          0 0 0 0 0 0
          0 0 0 0 0 0
          0 0 0 0 0 0
          0 0 0 0 0 0
          0 0 0 0 0 0
          0 0 0 0 0 0
          0 0 0 0 0 0
          0 0 0 0 0 0
          0 0 0 0 0 0
          0 0 0 0 0 0
          0 0 0 0 0 0
          0 0 0 0 0 0
          0 0 0 0 0 0
          0 0 0 0 0 0
          0 0 0 0 0 0
          0 0 0 0 0 0
          0 0 0 0 0 0
          0 0 0 0 0 0
          0 0 0 0 0 0
          0 0 0 0 0 0
          0 0 0 0 0 0
        </DataArray>
        <DataArray type="Float64" Name="initial_marker" format="ascii" RangeMin="0" RangeMax="2">
          0 0 0 0 0 0
          0 0 0 0 0 0
          0 0 0 0 0 2
          0 0 0 0 0 2
          1.5 0 0 0 0 0
          0 0 0 0 0 0
          0 0 0 0 0 0
          0 0 0 0 0 0
          0 0 0 0 0 0
          0 0 0 0 1.5 0
          0 0 0 0 0 0
          0 0 0 0 0 0
          0 0 2 2 0.5 2
          0 0 0 0 0 0
          1 0 0 0 0 0
          0 0 0 0 0 0
          0 0 0 0 0 0.5
          0.5 0 0.5 0.5 0 0
          2 0 0 0 0 0
          0.25 0 0 0 0 0
          0 0 0 0 0 0.5
          0.25 0 0 2 2 2
          2 2 2 2 2 2
          2 2 1.75 0.25 2 2
          2 2 2 2 2 2
          2 2 2 2 2 2
          1.5 2 2 1.5 1.5 0
          0 0.75 0 2 2 0
          1.75 0 0 0 0 0