<?xml version="1.0"?>
<VTKFile type="UnstructuredGrid" version="0.1" byte_order="LittleEndian" header_type="UInt32" compressor="vtkZLibDataCompressor">
  <UnstructuredGrid>
    <Piece NumberOfPoints="371" NumberOfCells="184">
      <PointData>
        <DataArray type="Int32" Name="libmesh_node_id" format="ascii" RangeMin="232" RangeMax="2301">
          240 308 310 313 315 566
          567 568 572 578 587 590
          592 603 604 605 606 607
          608 609 610 611 612 974
          975 976 979 1009 1010 1013
          1023 1034 1035 1036 1037 1038
          1039 1040 1041 1042 1043 1044
          1045 1048 1049 1050 1051 1053
          1058 1059 1063 1074 1075 1076
          1077 1078 1079 1080 1081 1083
          1085 1087 1088 1089 1090 1091
          1092 1093 1094 1095 1096 1097
          1098 1099 1100 1101 1102 1103
          1104 1106 1107 1109 1111 1265
          1266 1267 1268 1269 1270 1271
          1272 1273 1274 1311 1312 1314
          1316 1318 1319 1321 1325 1327
          1328 1329 1330 1331 1332 1333
          1334 1335 1336 1337 1338 1339
          1340 1341 1342 1343 1919 1925
          1926 1927 1930 1931 1932 1933
          1934 1935 1936 1937 1938 1939
          1940 1941 1942 1943 1944 1946
          1947 1950 1951 1952 1953 1954
          1955 1956 1957 1958 1959 1960
          1961 1962 1963 1964 1974 1987
          1988 1989 1990 1991 1999 2000
          2001 2002 2003 2004 2005 2006
          2007 2008 2033 2038 2040 2042
          2044 2046 2047 2048 2049 2050
          2051 2052 2067 2072 2074 2076
          2078 2080 2081 2082 2083 2084
          2085 2086 2155 2156 2157 2158
          2159 2160 2161 2162 2163 2164
          2165 2166 2167 2168 2169 2170
          2171 2172 2173 2174 2175 2176
          2177 2178 2179 2180 2181 2182
          2183 2184 2185 2186 2187 2188
          2189 2190 2191 2192 2193 2194
          2195 2196 2197 2198 2199 2200
          2201 2209 2210 2211 2212 2213
          2214 2215 2223 2224 2225 2226
          2227 2228 2229 2237 2238 2239
          2240 2241 2242 2243 2251 2252
          2253 2254 2255 2256 2257 2258
          2259 2260 2261 2262 2263 2264
          2265 2266 2267 2268 2269 2270
          2271 2272 2273 2274 2275 2276
          2277 2278 2279 2280 2281 2282
          2283 2284 2295 2296 2297 2298
          2299 2300 2301 411 414 417
          416 305 232 311 420 418
          312 421 419 317 426 425
          548 551 554 553 556 557
          307 558 595 593 577 596
          594 582 601 600 599 962
          970 963 971 966 972 973
          968 977 978 1001 1007 1003
          1008 1005 1011 1012 576 995
          581 2023 2024 2039 2028 1055
          2043 2041 2045 2057 2058 2073
          2075 2062 1061 2077 2079
        </DataArray>
        <DataArray type="Float64" Name="bounds" format="ascii" RangeMin="0" RangeMax="0">
          0 0 0 0 0 0
          0 0 0 0 0 0
          0 0 0 0 0 0
          0 0 0 0 0 0
          0 0 0 0 0 0
          0 0 0 0 0 0
          0 0 0 0 0 0
          0 0 0 0 0 0
          0 0 0 0 0 0
          0 0 0 0 0 0
          0 0 0 0 0 0
          0 0 0 0 0 0
          0 0 0 0 0 0
          0 0 0 0 0 0
          0 0 0 0 0 0
          0 0 0 0 0 0
          0 0 0 0 0 0
          0 0 0 0 0 0
          0 0 0 0 0 0
          0 0 0 0 0 0
          0 0 0 0 0 0
          0 0 0 0 0 0
          0 0 0 0 0 0
          0 0 0 0 0 0
          0 0 0 0 0 0
          0 0 0 0 0 0
          0 0 0 0 0 0
          0 0 0 0 0 0
          0 0 0 0 0 0
          0 0 0 0 0 0
          0 0 0 0 0 0
          0 0 0 0 0 0
          0 0 0 0 0 0
          0 0 0 0 0 0
          0 0 0 0 0 0
          0 0 0 0 0 0
          0 0 0 0 0 0
          0 0 0 0 0 0
          0 0 0 0 0 0
          0 0 0 0 0 0
          0 0 0 0 0 0
          0 0 0 0 0 0
          0 0 0 0 0 0
          0 0 0 0 0 0
          0 0 0 0 0 0
          0 0 0 0 0 0
          0 0 0 0 0 0
          0 0 0 0 0 0
          0 0 0 0 0 0
          0 0 0 0 0 0
          0 0 0 0 0 0
          0 0 0 0 0 0
          0 0 0 0 0 0
          0 0 0 0 0 0
          0 0 0 0 0 0
          0 0 0 0 0 0
          0 0 0 0 0 0
          0 0 0 0 0 0
          0 0 0 0 0 0
          0 0 0 0 0 0
          0 0 0 0 0 0
          0 0 0 0 0
        </DataArray>
        <DataArray type="Float64" Name="gradient_error" format="ascii" RangeMin="5.521992681809058e-10" RangeMax="2.1918018141334647e-7">
          6.985723719021347e-9 2.4133290111330103e-9 2.069013721401977e-9 4.5566499430369425e-9 1.1915170051818792e-7 6.951643857171727e-9
          7.168346273997013e-9 2.164328558161712e-9 6.082030552979948e-9 8.539898479968839e-8 3.859088751341511e-9 2.999892547632348e-8
          3.696691306754654e-9 8.046135869363975e-9 7.894623045577957e-9 2.4672607647591432e-9 2.439610022748533e-9 8.531123650245111e-9
          1.1626465678950803e-8 4.01163206258069e-9 9.546610103952396e-9 2.9529949754712817e-9 1.3045248543079702e-8 3.2552010742839374e-8
          4.519431284192066e-8 2.8480992046996474e-8 7.494286982406087e-8 1.0276364625475664e-7 6.579486915904312e-8 1.1347816780239349e-7
          6.330244981603379e-8 1.2737280337919298e-8 2.566813032677505e-8 3.922410012134011e-9 3.2162191542623583e-9 8.752921692144157e-9
          1.4080589305999061e-8 4.488868732674121e-9 4.883367161165934e-8 5.7215000745760176e-9 2.17451159255828e-8 2.583879146050581e-9
          2.2315362519771577e-9 2.8041288410501626e-9 2.8376181199571374e-9 1.3464853600818753e-9 3.0787478800114383e-9 1.850113239333442e-9
          7.250744172590248e-8 2.438063427585317e-8 8.493626429788423e-8 7.304506924796344e-8 9.391280826292771e-9 2.8441014388408653e-8
          3.212050474964961e-9 8.357474589825824e-8 1.1126920628225244e-8 3.1727259016329766e-8 5.329669875425663e-9 1.6151844599610958e-9
          6.43094008373261e-9 1.884563435879695e-9 1.73216792843674e-8 2.280741767803994e-8 1.8130842168332024e-8 2.5478473929706275e-8
          1.1788857876949365e-8 1.398701533205208e-8 4.477940228514254e-9 3.408887101295319e-9 9.61771049434385e-9 1.2935400664089919e-8
          5.508258150007518e-9 1.560181348810419e-8 3.764251524245836e-9 1.443851414732963e-8 2.0725716677093617e-9 1.5143906729089213e-9
          1.1378300481594524e-9 1.889902924433811e-9 2.4121422741268705e-9 1.6638269286172892e-9 2.6271400509429947e-9 7.66049027238216e-9
          1.1345810054452964e-8 7.85039072948359e-9 4.926580813609467e-9 7.4116939739210265e-9 1.40731539256969e-9 2.210727865460965e-9
          3.316214050540001e-9 5.085389268104161e-9 1.501409664922644e-9 9.202559197672003e-9 6.859069910643612e-9 7.125217724322668e-9
          3.715497445854119e-9 5.309008988238065e-9 2.7594678928438553e-9 1.7934993240128665e-9 1.3861370747739762e-9 8.256783993433881e-9
          1.1381890567897541e-8 8.46407761397588e-9 6.306405346260877e-9 8.78674409552449e-9 3.198938993579007e-9 4.5530079920692044e-9
          4.421718396872539e-9 6.1124261023550185e-9 2.7701312916945473e-9 1.5887485398445995e-9 2.1857778768643522e-9 8.100292753515797e-10
          1.0466249333120246e-9 1.1345091650655087e-9 1.3585852583111922e-9 6.690268605009807e-10 2.8408577958332123e-9 1.909258348123538e-9
          2.3860035603849285e-9 1.8062196402183919e-9 3.743227529352494e-9 1.6156654861537206e-9 1.9566677566389013e-9 1.6396310777867833e-9
          2.944962793209605e-9 1.3379727895051356e-9 1.6325408148428823e-9 1.0602800928565501e-9 1.3084138730468639e-9 1.1266294312261048e-9
          1.3614458376302673e-9 1.0832605974737511e-9 2.4797432313770697e-9 1.893806629043802e-9 2.0248968775582394e-9 6.431499624962184e-9
          1.2748388393904044e-8 5.543317576005068e-9 4.01537306090105e-9 1.1418115710892909e-8 8.97557811060024e-9 7.642478655901237e-9
          4.237854233508745e-9 3.53184749910453e-9 5.622435886905877e-9 3.6105500987534936e-9 2.5247363278505216e-9 2.916138731082447e-9
          1.9308761185721576e-9 4.8615101423713625e-9 3.5225753225813324e-9 3.392814342024176e-9 2.0796193924331297e-9 2.902328398661635e-9
          2.0659230395063218e-9 6.905059489441474e-9 5.13927741407181e-9 4.245606218819012e-9 1.4173110960707069e-9 1.7693180187004167e-9
          9.849492394627581e-10 1.2385221792561373e-9 1.1091173696140775e-9 1.3396597975039528e-9 9.310587487400827e-10 2.526849035408611e-9
          1.7911533731175278e-9 1.6302646070809162e-9 3.9826567506931624e-8 4.619417136616739e-8 3.557755536914552e-8 2.6741415942925078e-8
          4.389189012456602e-8 3.1960936547416976e-8 2.7486674806061363e-8 2.2451615192604203e-8 1.893857997618031e-8 4.038153346781967e-8
          3.545753141795811e-8 2.842145141854367e-8 4.711185359765913e-8 4.676798443222789e-8 4.796670621350061e-8 3.888344568524842e-8
          4.8939089059031054e-8 4.5226043150727575e-8 4.0658817329569646e-8 3.291091784938458e-8 2.8474897732808773e-8 4.66179650673171e-8
          4.234619515749942e-8 3.46598402940821e-8 1.7148415917747178e-8 1.1489652526891707e-8 2.0900274322466436e-8 1.537587979860388e-8
          1.2230678101054967e-8 1.0072626243177306e-8 7.621758856505586e-9 1.894116661653259e-8 1.5356976064028827e-8 1.2235536829378442e-8
          7.136024410889856e-9 4.5471977889632685e-9 8.363621023658986e-9 6.218875290346514e-9 4.590363994324422e-9 3.839791744961942e-9
          2.6726481810788173e-9 7.376343255600431e-9 5.5628682377957476e-9 4.559558470391068e-9 2.381528384224788e-8 1.5626958959214793e-8
          2.5235217217637255e-8 2.16562137408933e-8 1.766640411772687e-8 1.3809208323232759e-8 1.0662532976456078e-8 2.2830904083132072e-8
          1.8520162964706366e-8 1.4470567028212246e-8 9.165132687422393e-9 5.901146904803889e-9 9.513653283217133e-9 8.163032130886412e-9
          6.2526628828888474e-9 5.019354477051452e-9 3.569565253885957e-9 8.47683062145574e-9 6.502203172426308e-9 5.199326965749812e-9
          9.613175513721457e-9 7.27677723917033e-9 5.750100208969232e-9 4.2282854015583105e-9 1.2229604019519509e-8 9.37411369751234e-9
          7.17576458986441e-9 3.34299183829399e-9 2.3948862293867777e-9 1.891667757003788e-9 1.325004928885655e-9 4.0958855675429455e-9
          2.9568039557268203e-9 2.2972516465460935e-9 1.4147589739403113e-8 1.0924107030770237e-8 8.209218811278017e-9 6.13465149422443e-9
          1.4855015629967903e-8 1.1496214312906476e-8 8.587633481118518e-9 4.632580379613994e-9 3.3607558736779836e-9 2.5691415249872785e-9
          1.813397932755e-9 4.8270001712429825e-9 3.5074646674903424e-9 2.666819472965485e-9 2.3124383388603887e-9 2.618213541760825e-9
          2.228820262783241e-9 3.080376021176727e-9 2.0122173254426432e-9 2.24617200575001e-9 1.4166685966174827e-9 1.56704493084521e-9
          1.6883473716729649e-9 1.823901103669105e-9 1.1792064719666663e-9 2.6293698234458214e-9 1.8364050546763452e-9 2.0801231303862745e-9
          3.351864435046407e-9 2.8345448279993498e-9 3.466965572400621e-9 2.8748034947364052e-9 2.0223807640728577e-9 2.276010408133246e-9
          1.4351064213238773e-9 2.9709940286385433e-9 2.089372683865962e-9 2.351229391159188e-9 9.682267702871652e-10 1.0762312446075954e-9
          6.682643444705063e-10 7.414547816050651e-10 7.683477349345518e-10 8.046107573231824e-10 5.521992681809058e-10 1.2687399766227328e-9
          8.752561774129968e-10 8.960174775840304e-10 1.4015633268617893e-9 9.699403862095457e-10 9.831978579021979e-10 6.784605795351032e-10
          1.4498824194061387e-9 1.0040136363327219e-9 1.0152345403481477e-9 5.222009757896975e-9 1.719927865641947e-9 1.2016054052744555e-9
          2.687993832306271e-9 3.550246292637309e-8 3.5245182302138733e-9 3.916630981341552e-8 2.4298105324142643e-9 5.461655752578701e-9
          4.2366713336258636e-8 3.814542343412392e-9 1.0753254068469616e-8 2.8482206737121855e-8 5.199274154410519e-9 1.6044852384360528e-8
          1.0688379748292677e-7 4.7897577861972985e-8 2.985124743025391e-8 8.46135438169767e-8 1.3323328478694537e-7 7.010222611523364e-8
          6.827032493561181e-8 1.1847855106355276e-7 3.6688722716933884e-8 1.0666008313442306e-7 1.6436605165313049e-7 6.53857332956368e-8
          1.4306719790562854e-7 2.1918018141334647e-7 8.309618831435844e-8 1.79474312676834e-7 2.4923551333544897e-8 5.289681596044538e-8
          4.36716961419039e-8 7.546568427835203e-8 6.522200355602114e-8 5.473899162113067e-8 2.6772151322647146e-8 5.31908101573936e-8
          1.2622366569750726e-7 1.1570440524317162e-7 9.877936154236294e-8 1.7281275091045556e-7 1.645509933302906e-7 1.1697094353995984e-7
          1.4483162188938778e-7 1.9121272302215524e-7 1.844654871443764e-7 1.6417997619502706e-7 1.1960890562714187e-7 1.2463755919599728e-7
          1.4251362884349045e-7 4.4828883365796985e-8 4.302159298888392e-8 3.8377361769520234e-8 4.811602960041752e-8 4.801667836842795e-8
          4.587362400214887e-8 3.359114293637946e-8 4.2259373537499564e-8 4.7618873462764116e-8 4.800918626648448e-8 4.909873496031141e-8
          4.836158817916599e-8 4.714190981815753e-8 4.7571771908926625e-8 4.974665973269522e-8 5.0214107596858755e-8
        </DataArray>
        <DataArray type="Float64" Name="gradient_matprop_error" format="ascii" RangeMin="0" RangeMax="0">
          0 0 0 0 0 0
          0 0 0 0 0 0
          0 0 0 0 0 0
          0 0 0 0 0 0
          0 0 0 0 0 0
          0 0 0 0 0 0
          0 0 0 0 0 0
          0 0 0 0 0 0
          0 0 0 0 0 0
          0 0 0 0 0 0
          0 0 0 0 0 0
          0 0 0 0 0 0
          0 0 0 0 0 0
          0 0 0 0 0 0
          0 0 0 0 0 0
          0 0 0 0 0 0
          0 0 0 0 0 0
          0 0 0 0 0 0
          0 0 0 0 0 0
          0 0 0 0 0 0
          0 0 0 0 0 0
          0 0 0 0 0 0
          0 0 0 0 0 0
          0 0 0 0 0 0
          0 0 0 0 0 0
          0 0 0 0 0 0
          0 0 0 0 0 0
          0 0 0 0 0 0
          0 0 0 0 0 0
          0 0 0 0 0 0
          0 0 0 0 0 0
          0 0 0 0 0 0
          0 0 0 0 0 0
          0 0 0 0 0 0
          0 0 0 0 0 0
          0 0 0 0 0 0
          0 0 0 0 0 0
          0 0 0 0 0 0
          0 0 0 0 0 0
          0 0 0 0 0 0
          0 0 0 0 0 0
          0 0 0 0 0 0
          0 0 0 0 0 0
          0 0 0 0 0 0
          0 0 0 0 0 0
          0 0 0 0 0 0
          0 0 0 0 0 0
          0 0 0 0 0 0
          0 0 0 0 0 0
          0 0 0 0 0 0
          0 0 0 0 0 0
          0 0 0 0 0 0
          0 0 0 0 0 0
          0 0 0 0 0 0
          0 0 0 0 0 0
          0 0 0 0 0 0
          0 0 0 0 0 0
          0 0 0 0 0 0
          0 0 0 0 0 0
          0 0 0 0 0 0
          0 0 0 0 0 0
          0 0 0 0 0
        </DataArray>
        <DataArray type="Float64" Name="initial_marker" format="ascii" RangeMin="0" RangeMax="2">
          0 0 0 0 2 0
          0 0 0 1.5 1 2
          2 0 0 0 0 0
          0 0 0 0 0 1
          1.5 1.3333333333333333 2 2 2 2
          2 0.5 2 0 1.75 0.3333333333333333
          0.5 0 2 2 1.25 0
          1.5 0 0 0 2 1
          2 2 2 2 2 2
          2 2 2 2 2 2
          2 2 0.5 1 0 1
          0.25 0.5 0 0 0 0
          0 0.5 0 0 0 0
          0 0 0 0 0 0
          0 0 0 0 0 0
          0 0 0 0 0 0
          0 0 0 0 0 0
          0 0 0 0 0 0
          0 0 0 0 0 0
          0 0 0 0 1 0
          1 1 2 0 0.5 0
          1 0 0.5 0 0.5 0
          0 0 1 1 0 2
          2 2 2 2 2 2
          1.5 1 2 1.5 1.5 1
          1 2 2 1.3333333333333333 2 2
          2 2 2 2 1 1.5
          1 1.5 0 1 1 2
          2 1.3333333333333333 2 2 2 2
          2 2 2 2 2 2
          2 2 2 2 2 2
          2 2 2 2 2 2
          2 2 2 2 2 2
          2 2 2 2 2 2
          2 1.5 2 2 2 1.5
          1.5 2 2 2 2 2
          2 2 2 2 2 2
          2 2 2 2 2 2
          2 2 2 2 2 2
          2 2 2 2 2 2
          2 2 2 1.5 1.5 2
          2 2 2 2 2 2
          2 2 2 2 2 2
          2 2 2 2 0 0.5
          0 1 0 0.5 0 0.5
          0 0 0 1 1 0
          1 0 1 1 1 0
          0 1 1 0 0 0.5
          0 0.5 0 0 0 1
          1 0 1 1 0 0
          1 1 0 0 0 0
          0 0 0 0 0 0
          0 0 0 0 0 0
          0.5 0.25 0 0 1.5 1.5
          0.5 0 0 0 1.5 0.25
          0.5 2 0.5 1 0 1
          1.5 1.5 1.75 1 1.3333333333333333 2
          2 2 2 2 2 2
          2 2 2 2 2 2
          2 2 2 2 2 2
          2 2 2 2 2 2
          2 2 2 2 2
        </DataArray>
        <DataArray type="Float64" Name="markers_norefine" format="ascii" RangeMin="0" RangeMax="2">
          0 0 0 0 0 0
          0 0 0 0 0 0
          0 0 0 0 0 0
          0 0 0 0 0 0
          0 0 0 0 0 0
          0 0 0 0 0 0
          0 0 0 0 0 0
          0 0 0 0 0 0
          0 0 0 0 0 0
          0 0 0 0 0 0
          0 0 0 0 0 0
          0 0 0 0 0 0
          0 0 0 0 0 0
          0 0 0 0 0 0
          0 0 0 0 0 0
          0 0 0 0 0 0
          0 0 0 0 0 0
          0 0 0 0 0 0
          0 0 0 0 0 0
          0 0 0 0 0 0
          0 0 0 0 0 0
          0 0 0 0 0 0
          0 0 0 0 0 0
          0 0 0 0 0 0
          0 0 0 0 0 0
          0 0 0 0 0 0
          0 0 0 0 0 0
          0 0 0 0 0 0
          0 0 0.25 1 0 0
          0.5 0 0 0 0 0.25
          0 0 1.5 1.5 1 0
          1 0.5 0 0 0 0.5
          0 0 0 0 0 0
          0 0 0 0 0 0
          0 0 0 0 0 0
          0 0 0 0 0 0
          0 0 0 0 0 0
          0 0 0 0 0 0
          0 0 0 0 0 0
          0 0 0 0 0 0
          0 0 0 0 0 0
          0 0 0 0 0 0
          0 0 0 0 0 0
          0 0 0 0 0 0
          0 0 0 0 0 0
          0 0 0 0 0 0
          0 0 0 0 0 0
          0 0 0 0 0 0
          0 0 0 0 0 0
          0 0 0 0 0 0
          0 0 0 0 0 0
          0 0 0 0 0 0
          0 0 0 0 0 0
          0 0 0 0 0 0
          0 0 0 0 0 0
          0 0 0 0 0 0
          0 0 0 0 0 0
          0 0 0 0 0 0
          0 0 0 0 0 0
          0.5 0.75 0.5 0.25 1.75 1.5
          0.75 0 0 2 2 1
          0 2 2 1 0
        </DataArray>
        <DataArray type="Float64" Name="markers_mustrefine" format="ascii" RangeMin="0" RangeMax="2">
          0 0 0 0 2 0
          0 0 0 1.5 1 2
          2 0 0 0 0 0
          0 0 0 0 0 1
          1.5 1.3333333333333333 2 2 2 2
          2 0.5 2 0 1.75 0.3333333333333333
          0.5 0 2 2 1.25 0
          1.5 0 0 0 2 1
          2 2 2 2 2 2
          2 2 2 2 2 2
          2 2 0.5 1 0 1
          0.25 0.5 0 0 0 0
          0 0.5 0 0 0 0
          0 0 0 0 0 0
          0 0 0 0 0 0
          0 0 0 0 0 0
          0 0 0 0 0 0
          0 0 0 0 0 0
          0 0 0 0 0 0
          0 0 0 0 1 0
          1 1 2 0 0.5 0
          1 0 0.5 0 0.5 0
          0 0 1 1 0 2
          2 2 2 2 2 2
          1.5 1 2 1.5 1.5 1
          1 2 2 1.3333333333333333 2 2
          2 2 2 2 1 1.5
          1 1.5 0 1 1 2
          2 1.3333333333333333 2 2 2 2
          2 2 2 2 2 2
          2 2 2 2 2 2
          2 2 2 2 2 2
          2 2 2 2 2 2
          2 2 2 2 2 2
          2 1.5 2 2 2 1.5
          1.5 2 2 2 2 2
          2 2 2 2 2 2
          2 2 2 2 2 2
          2 2 2 2 2 2
          2 2 2 2 2 2
          2 2 2 1.5 1.5 2
          2 2 2 2 2 2
          2 2 2 2 2 2
          2 2 2 2 0 0.5
          0 1 0 0.5 0 0.5
          0 0 0 1 1 0
          1 0 1 1 1 0
          0 1 1 0 0 0.5
          0 0.5 0 0 0 1
          1 0 1 1 0 0
          1 1 0 0 0 0
          0 0 0 0 0 0
          0 0 0 0 0 0
          0.5 0.25 0 0 1.5 1.5
          0.5 0 0 0 1.5 0.25
          0.5 2 0.5 1 0 1
          1.5 1.5 1.75 1 1.3333333333333333 2
          2 2 2 2 2 2
          2 2 2 2 2 2
          2 2 2 2 2 2
          2 2 2 2 2 2
          2 2 2 2 2
        </DataArray>
        <DataArray type="Float64" Name="gradient_marker" format="ascii" RangeMin="0" RangeMax="1">
          1 1 1 1 0.5 1
          1 1 1 0.25 1 1
          1 1 1 1 1 1
          1 1 1 1 1 0
          0 0 0.25 0.75 0.16666666666666666 1
          0.75 0.5 0.5 1 1 0.5
          0.5 1 0.625 1 0.5 1
          1 1 1 1 1 1
          0.75 1 0.75 0.75 1 0.5
          1 0.75 1 0.5 1 1
          1 1 0 0 0 0
          0.5 0.5 1 1 0.5 0.5
          1 0.5 1 0.5 1 1
          1 1 1 1 1 1
          1 1 1 1 1 1
          1 1 1 0 0 0.5
          1 0.5 1 1 1 0
          0 0 0.5 0.5 1 1
          0.5 0.5 1 1 1 1
          1 1 1 1 1 1
          1 1 1 1 1 1
          1 1 1 1 1 1
          1 1 1 1 1 1
          1 1 1 1 1 1
          1 1 1 1 1 1
          1 1 1 1 1 1
          1 1 1 1 1 1
          1 1 1 1 1 1
          1 1 1 1 0.5 0.6666666666666666
          0.5 1 1 1 1 1
          1 1 1 1 0.5 0.6666666666666666
          0.5 1 1 1 1 1
          1 1 1 1 1 1
          1 1 1 1 1 1
          1 1 1 1 1 1
          1 1 1 1 1 1
          1 1 1 1 1 1
          1 1 1 1 1 1
          1 1 1 1 1 1
          1 1 1 1 1 1
          1 1 1 1 1 1
          1 1 1 1 1 1
          1 1 1 1 1 1
          1 1 1 1 1 1
          1 1 1 1 1 1
          1 1 1 1 1 1
          1 1 1 1 1 1
          1 1 1 1 1 1
          1 1 1 1 1 1
          1 1 1 1 1 1
          1 1 1 1 1 1
          1 0.875 1 1 1 1
          0.875 1 1 0.75 1 1
          0.5 0.5 0.6666666666666666 0.5 0.625 0.25
          0.5 0.6666666666666666 0.6666666666666666 0.5 0.75 0.5
          0.5 1 0.5 0.5 0.5 0
          0 0.25 0.25 0 0 0.125
          0.75 0.625 0.375 1 0.875 1
          0.625 1 1 0.75 0.625 0.5
          0.5 0 0.5 0 0 0.5
          0 0 0 0 0.5 0
          0 0 0.5 0 0
        </DataArray>
        <DataArray type="Float64" Name="gradient_matprop_marker" format="ascii" RangeMin="0" RangeMax="0">
          0 0 0 0 0 0
          0 0 0 0 0 0
          0 0 0 0 0 0
          0 0 0 0 0 0
          0 0 0 0 0 0
          0 0 0 0 0 0
          0 0 0 0 0 0
          0 0 0 0 0 0
          0 0 0 0 0 0
          0 0 0 0 0 0
          0 0 0 0 0 0
          0 0 0 0 0 0
          0 0 0 0 0 0
          0 0 0 0 0 0
          0 0 0 0 0 0
          0 0 0 0 0 0
          0 0 0 0 0 0
          0 0 0 0 0 0
          0 0 0 0 0 0
          0 0 0 0 0 0
          0 0 0 0 0 0
          0 0 0 0 0 0
          0 0 0 0 0 0
          0 0 0 0 0 0
          0 0 0 0 0 0
          0 0 0 0 0 0
          0 0 0 0 0 0
          0 0 0 0 0 0
          0 0 0 0 0 0
          0 0 0 0 0 0
          0 0 0 0 0 0
          0 0 0 0 0 0
          0 0 0 0 0 0
          0 0 0 0 0 0
          0 0 0 0 0 0
          0 0 0 0 0 0
          0 0 0 0 0 0
          0 0 0 0 0 0
          0 0 0 0 0 0
          0 0 0 0 0 0
          0 0 0 0 0 0
          0 0 0 0 0 0
          0 0 0 0 0 0
          0 0 0 0 0 0
          0 0 0 0 0 0
          0 0 0 0 0 0
          0 0 0 0 0 0
          0 0 0 0 0 0
          0 0 0 0 0 0
          0 0 0 0 0 0
          0 0 0 0 0 0
          0 0 0 0 0 0
          0 0 0 0 0 0
          0 0 0 0 0 0
          0 0 0 0 0 0
          0 0 0 0 0 0
          0 0 0 0 0 0
          0 0 0 0 0 0
          0 0 0 0 0 0
          0 0 0 0 0 0
          0 0 0 0 0 0
          0 0 0 0 0
        </DataArray>
        <DataArray type="Float64" Name="combo" format="ascii" RangeMin="0" RangeMax="2">
          1 1 1 1 0.5 1
          1 1 1 0.25 1 1
          1 1 1 1 1 1
          1 1 1 1 1 0
          0 0 0.25 0.75 0.16666666666666666 1
          0.75 0.5 0.5 1 1 0.5
          0.5 1 0.625 1 0.5 1
          1 1 1 1 1 1
          0.75 1 0.75 0.75 1 0.5
          1 0.75 1 0.5 1 1
          1 1 0 0 0 0
          0.5 0.5 1 1 0.5 0.5
          1 0.5 1 0.5 1 1
          1 1 1 1 1 1
          1 1 1 1 1 1
          1 1 1 0 0 0.5
          1 0.5 1 1 1 0
          0 0 0.5 0.5 1 1
          0.5 0.5 1 1 1 1
          1 1 1 1 1 1
          1 1 1 1 1 1
          1 1 1 1 1 1
          1 1 1 1 1 1
          1 1 1 1 1 1
          1 1 1 1 1 1
          1 1 1 1 1 1
          1 1 1 1 1 1
          1 1 1 1 1 1
          1 1 1.125 1.5 0.5 0.6666666666666666
          0.875 1 1 1 1 1.125
          1 1 1.75 1.75 1.25 0.6666666666666666
          1.25 1.25 1 1 1 1.25
          1 1 1 1 1 1
          1 1 1 1 1 1
          1 1 1 1 1 1
          1 1 1 1 1 1
          1 1 1 1 1 1
          1 1 1 1 1 1
          1 1 1 1 1 1
          1 1 1 1 1 1
          1 1 1 1 1 1
          1 1 1 1 1 1
          1 1 1 1 1 1
          1 1 1 1 1 1
          1 1 1 1 1 1
          1 1 1 1 1 1
          1 1 1 1 1 1
          1 1 1 1 1 1
          1 1 1 1 1 1
          1 1 1 1 1 1
          1 1 1 1 1 1
          1 0.875 1 1 1 1
          0.875 1 1 0.75 1 1
          0.5 0.5 0.6666666666666666 0.5 0.625 0.25
          0.5 0.6666666666666666 0.6666666666666666 0.5 0.75 0.5
          0.5 1 0.5 0.5 0.5 0
          0 0.25 0.25 0 0 0.125
          0.75 0.625 0.375 1 0.875 1
          0.625 1 1 0.75 0.625 0.5
          1 0.75 0.875 0.25 1.75 1.625
          0.75 0 0 2 2 1
          0 2 2 1 0
        </DataArray>
        <DataArray type="Float64" Name="dHdT" format="ascii" RangeMin="25.8147850007647" RangeMax="52.81709269317382">
          25.837660654385715 25.82234773507915 25.866300472570614 25.828400780785948 29.019557880453615 25.853786240453385
          25.88421590557123 25.83523039136253 25.99584515433626 27.768266978048036 26.37635434561114 35.15740411223312
          26.78712586598226 25.89732553027814 25.947078584480195 25.840173639348816 25.85245877608771 25.87067021008415
          25.8959010903405 25.844682971307535 25.98625069973856 25.861771534633608 25.908742334391242 27.230802479087075
          27.918978402317947 27.054642905579573 29.605434117283558 31.446799369933785 29.03008091381741 32.289884830849275
          32.508079034392466 26.477861090139697 27.389560552822154 26.102780681778604 26.48830292410228 26.248096483602666
          26.543770801875418 26.134574975629597 29.00245742214727 27.297240650520205 27.097708204819256 25.963491468152334
          26.143522730917784 25.93688732060536 25.977508562123273 25.890847417217312 26.561847042279517 26.082642873256013
          36.4611806327141 33.68324001890583 39.259331881663506 30.796013498242516 28.33843827414529 27.71497015689257
          26.66266742647804 31.61579126066023 28.892529003930704 27.98588369968443 27.101098160754898 26.223117025318054
          27.37714412509036 26.286715463534946 26.551900978521562 26.7830422670376 26.400757403984706 26.889290191982056
          26.368864916225192 26.546189322753918 26.069794096419443 26.123959060298347 26.168618078866366 26.259624790696158
          26.04378591379301 26.625908948658815 26.156030491648345 26.301129691310045 25.938558857229115 25.961476770154444
          25.874137651689338 25.908117959295623 25.929238929700205 25.97635762866639 25.93872880900128 25.853906513455684
          25.889519367639686 25.859781926880686 25.841174757209075 25.864381125079092 25.824039387786563 25.830712227095034
          25.832939691767812 25.845610132823168 25.82608946585855 26.22458921616503 26.144649448565932 26.12883768058137
          25.97897813161694 26.069866446015872 25.951713389797966 25.897154435745882 25.885514159253397 26.188783458042636
          26.307895536496307 26.154590297320066 26.103759551673676 26.19327698871377 25.969976238902166 26.013633636672317
          26.029705549416143 26.074410908533302 25.951883341832094 25.89542243494776 25.91475730530937 25.8550126657627
          25.86316019853565 25.87673809808912 25.886612483140617 25.85095270049841 26.584226295376126 26.329621430611677
          26.46522442603142 26.31369291079723 26.801748097429986 26.2633850106404 26.368381981134817 26.27727408276919
          26.61984613500064 26.19545565809384 26.283520691500044 26.127526305547285 26.198659401865264 26.137363655097495
          26.207228686314565 26.13718328985994 26.495334165179536 26.33905167905021 26.370968182840066 27.53048398255523
          29.682519047970025 27.276807150371983 26.849148536709748 29.13500157526176 28.20632411593992 27.888639904548658
          26.954026204670544 26.72485469957494 27.34853953564766 26.780177631534933 26.488433860228753 26.583109325853833
          26.34662234450517 27.121941153918527 26.736528314842154 26.73331881734423 26.357948892335916 26.54892035893875
          26.328985608482316 27.541638284224092 27.04389171263844 26.874920109511596 26.206924217536574 26.287123863284634
          26.08738578789489 26.14230695306111 26.12939948440613 26.18553299196131 26.070290577064632 26.463414330789167
          26.265186154340668 26.25943253217888 40.16177233728079 46.98663231801832 38.383157060247 35.201184805507516
          42.82619365053225 36.4004963667596 34.675091338999415 33.534965366720414 31.79560372534527 39.78839390042151
          37.346727016610046 35.369096294346605 51.77249304445052 52.81709269317382 46.59663565925906 39.61743783606022
          47.97174695810469 43.25496482277751 39.82099747165343 36.671331435735866 34.80151120241604 44.592219432702734
          40.84283274292142 37.27445163297818 31.484247721581625 29.097521243821024 33.238395970309845 30.66175266398742
          29.271998197210614 28.620391289515805 27.81754341047832 32.24091989615604 30.46496386882357 29.36945540311024
          27.77877920385765 27.031976620255406 28.176543024501203 27.49350287525563 27.0070669276164 26.847910091226126
          26.5360993004318 27.83868023345602 27.260503918119632 27.025992827130278 34.27405323800292 30.691654208235033
          34.58712014146671 33.2942170247706 31.41807859466988 29.955396818389296 28.739512231261727 33.63715459473958
          31.773677184535014 30.186331127827543 28.45886048345293 27.387165437637286 28.566853345292483 28.086440870680676
          27.444790632047866 27.152033709382575 26.753882990596708 28.179917374740555 27.51283710437878 27.198611722720095
          28.294355208132323 27.5768089469152 27.252879647307243 26.833763221329352 29.120033597350506 28.14173117083318
          27.627170507576377 26.65928536753666 26.404358926699736 26.317033343904086 26.15961357960219 26.84365913229232
          26.536083940028732 26.407484311212915 29.809288753328673 28.59542496913671 27.911069049549468 27.301909293991052
          30.08512278959968 28.772285381263156 28.01813023908854 26.977482217958887 26.63192256133148 26.473188185883586
          26.26962260750469 27.026711753860795 26.667250905550954 26.497158888639426 26.519616240832196 26.581477848208294
          26.419046460703516 26.69344314969343 26.41350611226345 26.46353899175695 26.230472424518396 26.262916304617697