<?xml version="1.0"?>
<VTKFile type="UnstructuredGrid" version="0.1" byte_order="LittleEndian" header_type="UInt32" compressor="vtkZLibDataCompressor">
  <UnstructuredGrid>
    <Piece NumberOfPoints="314" NumberOfCells="175">
      <PointData>
        <DataArray type="Int32" Name="libmesh_node_id" format="ascii" RangeMin="239" RangeMax="2600">
          239 585 589 1026 1027 1030
          1032 1056 1057 1062 1064 1065
          1066 1067 1068 1070 1071 1072
          1073 1858 1859 1861 1862 1863
          1864 1865 1891 1893 1894 1895
          1896 1897 1898 1899 1900 1901
          1902 2035 2036 2037 2063 2064
          2065 2066 2068 2069 2070 2071
          2087 2088 2089 2090 2091 2092
          2093 2094 2095 2096 2097 2098
          2099 2100 2101 2102 2103 2104
          2105 2106 2107 2108 2109 2110
          2111 2112 2113 2114 2115 2118
          2119 2120 2121 2122 2123 2124
          2125 2126 2127 2128 2129 2130
          2131 2132 2133 2134 2135 2136
          2137 2138 2139 2140 2141 2142
          2143 2144 2145 2146 2147 2148
          2149 2150 2152 2153 2154 2309
          2310 2311 2312 2316 2317 2319
          2320 2322 2357 2358 2361 2363
          2364 2366 2540 2541 2544 2546
          2547 2549 2560 2564 2574 2575
          2578 2580 2581 2583 2594 2598
          931 1367 1368 932 309 1112
          1113 938 1373 935 1119 571
          1615 1617 1616 1856 1857 1618
          1860 1848 1849 1024 1854 1851
          1025 1875 1873 1876 1874 1867
          1880 1871 1881 1883 1885 1886
          1884 1889 1890 1888 1887 1031
          1892 1910 1904 1911 1914 1908
          1915 2021 2029 2030 2022 1054
          2027 2031 2032 2033 2024 2038
          1055 2034 2047 2046 2051 2050
          2055 2056 2067 2058 1060 2061
          2072 1061 2081 2080 2085 2084
          583 1832 1022 1907 1844 1909
          584 2049 1033 1059 1916 2116
          586 2117 1069 2083 590 2151
          591 1989 1953 2195 2159 1990
          2196 2199 2163 2200 1996 2202
          2206 2203 2207 2223 2179 2224
          2227 2183 2228 2230 2231 2234
          2235 2313 2314 2315 2318 1114
          2321 1115 2337 2338 2339 2340
          2344 2345 2359 2360 2362 1122
          2365 1123 2377 2378 2381 2382
          2542 2543 2545 1160 2548 1161
          2561 2383 2562 1125 2563 2565
          2566 1164 2576 2577 2579 1166
          2582 1167 2595 2596 2597 2599
          2600 1169
        </DataArray>
        <DataArray type="Float64" Name="bounds" format="ascii" RangeMin="0" RangeMax="0">
          0 0 0 0 0 0
          0 0 0 0 0 0
          0 0 0 0 0 0
          0 0 0 0 0 0
          0 0 0 0 0 0
          0 0 0 0 0 0
          0 0 0 0 0 0
          0 0 0 0 0 0
          0 0 0 0 0 0
          0 0 0 0 0 0
          0 0 0 0 0 0
          0 0 0 0 0 0
          0 0 0 0 0 0
          0 0 0 0 0 0
          0 0 0 0 0 0
          0 0 0 0 0 0
          0 0 0 0 0 0
          0 0 0 0 0 0
          0 0 0 0 0 0
          0 0 0 0 0 0
          0 0 0 0 0 0
          0 0 0 0 0 0
          0 0 0 0 0 0
          0 0 0 0 0 0
          0 0 0 0 0 0
          0 0 0 0 0 0
          0 0 0 0 0 0
          0 0 0 0 0 0
          0 0 0 0 0 0
          0 0 0 0 0 0
          0 0 0 0 0 0
          0 0 0 0 0 0
          0 0 0 0 0 0
          0 0 0 0 0 0
          0 0 0 0 0 0
          0 0 0 0 0 0
          0 0 0 0 0 0
          0 0 0 0 0 0
          0 0 0 0 0 0
          0 0 0 0 0 0
          0 0 0 0 0 0
          0 0 0 0 0 0
          0 0 0 0 0 0
          0 0 0 0 0 0
          0 0 0 0 0 0
          0 0 0 0 0 0
          0 0 0 0 0 0
          0 0 0 0 0 0
          0 0 0 0 0 0
          0 0 0 0 0 0
          0 0 0 0 0 0
          0 0 0 0 0 0
          0 0
        </DataArray>
        <DataArray type="Float64" Name="gradient_error" format="ascii" RangeMin="2.7973558385488827e-10" RangeMax="4.801667836842795e-8">
          2.2489600650005695e-8 1.0970054911439798e-8 2.959699486801519e-8 3.212293454945511e-9 2.590592630451399e-9 1.9737298506849923e-8
          8.647966276770158e-9 3.9626548895652754e-8 4.251171018653165e-8 4.4724628052022526e-8 3.3552682262203165e-8 3.062621104439357e-8
          2.034475574779864e-8 1.7497169617870273e-8 1.5601424495141783e-8 3.108580840528423e-8 3.611472715278609e-8 2.1329542449964266e-8
          1.937142520348996e-8 1.5561631165397256e-9 1.48194946547336e-9 1.2842888398402935e-9 4.647855400569748e-9 4.408729352179859e-9
          3.042393553106407e-9 3.7693826417962966e-9 1.8770383897956824e-8 8.896099895908438e-9 8.40742491161012e-9 6.2902942428265134e-9
          5.929093651024317e-9 7.086320173341902e-9 4.9630275064514695e-9 1.506615283302733e-8 1.429032013174133e-8 1.0358385847838382e-8
          1.2068605119431719e-8 4.095591229411931e-8 4.360032263333485e-8 4.1749927463301465e-8 3.413195054075208e-8 3.9135222204526896e-8
          3.303595573151545e-8 3.803708507441984e-8 4.469482312910758e-8 3.073560984078921e-8 3.6744444535702775e-8 3.562799461066873e-8
          3.459744612767795e-8 3.3599706243631394e-8 2.831956756796293e-8 2.726036241588034e-8 2.957078290075907e-8 2.3617899904915534e-8
          3.753472593294061e-8 3.8594450922974294e-8 3.348392275717499e-8 3.7225606636119836e-8 2.1895529271150548e-8 2.099328249633298e-8
          1.6272107162819267e-8 1.5539603744401096e-8 1.8057397069626977e-8 1.321407680554495e-8 2.7116046859522234e-8 2.657304778140136e-8
          1.9839301953633317e-8 2.3660355464985432e-8 2.260660120167472e-8 1.7844099251692908e-8 1.53251267326965e-8 1.1910506264304005e-8
          2.9618122074100176e-8 2.356705395404203e-8 1.9892807982967e-8 1.3498363007340311e-8 9.707499420812987e-9 1.796264200021099e-8
          1.3097535775119602e-8 1.1719615018267964e-8 3.273862069049705e-8 3.693526004831506e-8 3.28406962782887e-8 3.490766546174868e-8
          4.073175476166613e-8 3.4884410931910534e-8 2.9261055861385207e-8 3.4941260588756023e-8 3.437666044653203e-8 4.137653566343222e-8
          2.897726738256976e-8 2.938555334896424e-8 2.2160277868807822e-8 2.216003067677193e-8 2.745399040927318e-8 2.0360073281677235e-8
          2.895383866723516e-8 2.995908998616817e-8 2.277468087248488e-8 2.8738988637651504e-8 3.458164568729975e-8 2.777971575450364e-8
          2.3327614809362657e-8 1.835014571910822e-8 3.630419584967135e-8 2.9310463918414685e-8 2.4608220840661494e-8 2.123346569778613e-8
          1.5584850364573058e-8 1.3868812246526285e-8 2.2433361782503435e-8 1.6490417368883942e-8 1.466346828835878e-8 6.449689751147267e-10
          6.16267829028703e-10 1.0104972561625428e-9 9.626934628813722e-10 5.399490556292597e-10 8.352636991095894e-10 2.1205851557383592e-9
          2.0067671062601802e-9 1.705450144430406e-9 4.215002934385714e-9 3.965554169032366e-9 3.3040517074931977e-9 7.526464011630904e-9
          7.0783078657556345e-9 5.853281602789104e-9 1.1513222046111628e-8 1.091989536083681e-8 9.137269556611569e-9 1.4797848551456991e-8
          1.4295545696963546e-8 1.2345175294166403e-8 6.59430557684265e-9 9.026388714435254e-9 1.6408382853741888e-8 1.621684387083423e-8
          1.4550505890059718e-8 1.6759445768036313e-8 1.675246456018214e-8 1.5306418568147064e-8 1.085360149089551e-8 1.152718492163667e-8
          8.786326381588108e-10 7.943490080505967e-10 7.375800856606773e-10 1.1686091026143133e-9 1.0682478721512252e-9 8.264805898685303e-10
          7.406865662046792e-10 1.261999937810214e-9 5.870036042249259e-10 1.2472124384841247e-9 5.419060447900491e-10 1.2024283919810523e-9
          1.083335130434779e-9 8.08641661194949e-10 1.0297633988549397e-9 2.2853289221884347e-9 2.181873349462338e-9 1.035559334367522e-9
          1.901569885358128e-9 3.225915346417303e-9 3.091322304148005e-9 6.42884024997765e-9 6.11054200382049e-9 2.7185978625589615e-9
          5.254928952049933e-9 6.79442721519785e-10 1.026086679542791e-9 1.0227788427409989e-9 1.5215993181820887e-9 2.195478157348583e-9
          2.926691804006859e-9 4.116409570015859e-9 2.0004420933380545e-9 1.5287772659491843e-8 1.1934756108314064e-8 1.1317747644001207e-8
          1.4540875619399952e-8 2.4874366364742948e-8 2.3697420715628814e-8 9.62661796098823e-9 1.2484399026244256e-8 1.598995949190905e-8
          2.0293719935191994e-8 5.345507008074026e-9 7.353559665260347e-9 3.709813630023774e-9 8.979876996141595e-9 1.2077157155994946e-8
          6.3420343444913006e-9 4.4654133592035866e-8 4.280426322712175e-8 4.270281921095312e-8 4.495146966137452e-8 4.160961507946062e-8
          4.430915961848342e-8 3.957524955611859e-8 3.894878540310045e-8 3.9826567506931624e-8 4.302159298888392e-8 4.619417136616739e-8
          4.801667836842795e-8 3.521333220757908e-8 2.7486674806061363e-8 3.1960936547416976e-8 3.545753141795811e-8 4.038153346781967e-8
          3.403589335269234e-8 3.952955964991721e-8 4.711185359765913e-8 4.800918626648448e-8 2.9197763794604213e-8 3.6737124117133956e-8
          4.676798443222789e-8 4.7571771908926625e-8 4.0658817329569646e-8 4.5226043150727575e-8 4.234619515749942e-8 4.66179650673171e-8
          3.002865774393793e-8 2.8702907264899343e-8 2.4750741898533928e-8 1.5505586547793876e-8 1.9108235670759204e-8 1.072773444798956e-8
          1.350398994426601e-8 1.893857997618031e-8 8.188490481310686e-9 2.438063427585317e-8 5.9758485530565024e-9 8.838389382539512e-9
          4.160080978737794e-9 6.2339258404320284e-9 8.363139751431887e-9 2.8474897732808773e-8 2.999892547632348e-8 9.977478100194678e-9
          1.0579892463134499e-8 6.905059489441474e-9 8.97557811060024e-9 9.613175513721457e-9 1.2230678101054967e-8 5.13927741407181e-9
          7.27677723917033e-9 1.2229604019519509e-8 1.5356976064028827e-8 9.37411369751234e-9 3.680072505919178e-9 5.277902291375657e-9
          6.869360982659973e-9 3.659420186481191e-9 4.799106784707543e-9 1.4147589739403113e-8 1.766640411772687e-8 1.0924107030770237e-8
          1.4855015629967903e-8 1.8520162964706366e-8 1.1496214312906476e-8 8.060592153483994e-9 5.660535390019052e-9 8.50370340456707e-9
          5.982723908145293e-9 3.8209598171125986e-10 6.325860319178514e-10 6.035095609106388e-10 5.257693704240124e-10 1.3383385197330181e-9
          1.2664190295647064e-9 1.076494776151894e-9 4.393326688206431e-10 6.666405816808446e-10 2.7973558385488827e-10 4.224346108382691e-10
          1.3142630704045134e-9 8.306267071824716e-10 2.6781793382417105e-9 2.5169871714987036e-9 2.0925469395259666e-9 4.8549713639054275e-9
          4.553164839398855e-9 3.741345912728493e-9 2.456422652834587e-9 1.5536220090297224e-9 4.247059722185166e-9 2.6983242238964186e-9
          7.617689141847473e-9 7.181243737484818e-9 5.929452901155044e-9 1.0133585223317679e-8 9.678601722166266e-9 8.1625439136253e-9
          4.225534376537116e-9 2.76095607679099e-9 4.172849940963143e-9 1.7486412651391204e-9 2.6524730679109656e-9 5.843347516658101e-9
          5.646214677926717e-9 3.606443342799364e-9 1.1618581229974264e-8 1.1282356843719092e-8 9.780097105065112e-9 1.2041969345073033e-8
          1.1789727463255592e-8 1.0356601967008143e-8 7.086503834461234e-9 6.77988584221003e-9 4.347934914039617e-9 7.551857182403812e-9
          7.206778021391004e-9 4.628789026527468e-9
        </DataArray>
        <DataArray type="Float64" Name="gradient_matprop_error" format="ascii" RangeMin="0" RangeMax="0">
          0 0 0 0 0 0
          0 0 0 0 0 0
          0 0 0 0 0 0
          0 0 0 0 0 0
          0 0 0 0 0 0
          0 0 0 0 0 0
          0 0 0 0 0 0
          0 0 0 0 0 0
          0 0 0 0 0 0
          0 0 0 0 0 0
          0 0 0 0 0 0
          0 0 0 0 0 0
          0 0 0 0 0 0
          0 0 0 0 0 0
          0 0 0 0 0 0
          0 0 0 0 0 0
          0 0 0 0 0 0
          0 0 0 0 0 0
          0 0 0 0 0 0
          0 0 0 0 0 0
          0 0 0 0 0 0
          0 0 0 0 0 0
          0 0 0 0 0 0
          0 0 0 0 0 0
          0 0 0 0 0 0
          0 0 0 0 0 0
          0 0 0 0 0 0
          0 0 0 0 0 0
          0 0 0 0 0 0
          0 0 0 0 0 0
          0 0 0 0 0 0
          0 0 0 0 0 0
          0 0 0 0 0 0
          0 0 0 0 0 0
          0 0 0 0 0 0
          0 0 0 0 0 0
          0 0 0 0 0 0
          0 0 0 0 0 0
          0 0 0 0 0 0
          0 0 0 0 0 0
          0 0 0 0 0 0
          0 0 0 0 0 0
          0 0 0 0 0 0
          0 0 0 0 0 0
          0 0 0 0 0 0
          0 0 0 0 0 0
          0 0 0 0 0 0
          0 0 0 0 0 0
          0 0 0 0 0 0
          0 0 0 0 0 0
          0 0 0 0 0 0
          0 0 0 0 0 0
          0 0
        </DataArray>
        <DataArray type="Float64" Name="initial_marker" format="ascii" RangeMin="0" RangeMax="2">
          2 2 2 2 2 2
          2 2 2 2 2 2
          2 2 2 2 2 2
          2 2 2 2 2 2
          2 2 2 2 2 2
          2 2 2 2 2 2
          2 2 2 2 2 2
          2 2 2 2 2 2
          2 2 2 2 2 2
          2 2 2 2 2 2
          2 2 2 2 2 2
          2 2 2 2 2 2
          2 2 2 2 2 2
          2 2 2 2 2 2
          2 2 2 2 2 2
          2 2 2 2 2 2
          2 2 2 2 2 2
          2 2 2 2 2 2
          2 2 2 2 2 2
          2 2 2 2 2 2
          2 2 2 2 2 2
          2 2 2 2 2 2
          2 2 2 2 2 2
          2 2 2 2 2 2
          0 0 0 0 1.5 1
          1 1.25 0 0 0.25 0.75
          2 2 2 2 2 2
          2 2 2 2 2 2
          2 2 2 2 2 2
          2 2 2 2 2 2
          2 2 2 2 2 2
          2 2 2 2 2 2
          2 2 2 2 2 2
          2 2 2 2 2 2
          2 2 2 2 2 2
          2 2 2 2 2 2
          2 2 2 2 2 2
          2 2 2 2 2 2
          2 2 2 2 2 2
          2 2 2 2 2 2
          2 2 2 2 2 2
          2 2 2 2 2 2
          2 2 2 2 2 2
          2 2 2 2 2 2
          2 2 2 2 2 2
          2 2 2 2 1.5 1.75
          2 2 2 2 2 2
          2 2 2 2 2 2
          2 2 2 2 2 2
          2 2 2 2 2 2
          2 2 2 2 2 2
          2 2 2 2 2 2
          2 2
        </DataArray>
        <DataArray type="Float64" Name="markers_norefine" format="ascii" RangeMin="0" RangeMax="2">
          0 0 2 0 0 0
          0 1.5 0.25 1 0 0
          0 0 0 1 0 0
          0 0 0 0 0 0
          0 0 0 0 0 0
          0 0 0 0 0 0
          0 2 1.75 1 2 2
          2 1.75 0.75 2 2 2
          0 0 0 0 0 0
          0.5 0.25 0 0 0 0
          0 0 0 0 0 0
          0 0 0 0 0 0
          0 0 0 0 0 0
          0 0 1.5 1 0.5 0.25
          0.25 0 2 1.5 0.5 0.5
          0 0 0 0 0 0
          0 0 0 0 0 0
          0 0 0 0 0 0
          0 0 0 0 0 0
          0 0 0 0 0 0
          0 0 0 0 0 0
          0 0 0 0 0 0
          0 0 0 0 0 0
          0 0 0 0 0 0
          0 0 0 0 0 0
          0 0 0 0 0 0
          0 0 0 0 0 0
          0 0 0 0 0 0
          0 0 0 0 0 0
          0 0 0 0 0 0
          0 0 0 0 0 0
          0 0 0 0 0 0
          0 1 1 0.75 1 2
          2 0.5 0.25 0.25 0.5 1
          1.5 0 0 0 0 0.25
          2 2 1.5 2 2 2
          1.5 2 0 0.5 0 0.5
          0 0 0 0 0 0
          0 0 0 0 0 0
          0 0 0 0 0 0
          0 0 0 0 0 0
          0 0 0 0 0 0
          0 0 0 0 0 0
          0 0 0 0 0 0
          0 0 0 0 0 0
          0 0 0 0 0 0
          0 0 0 0 0 0
          0 0 0 0 0 0
          0 0 0 0 0 0
          0 0 0 0 0 0
          0 0 0 0 0 0
          0 0 0 0 0 0
          0 0
        </DataArray>
        <DataArray type="Float64" Name="markers_mustrefine" format="ascii" RangeMin="0" RangeMax="2">
          2 2 2 2 2 2
          2 2 2 2 2 2
          2 2 2 2 2 2
          2 2 2 2 2 2
          2 2 2 2 2 2
          2 2 2 2 2 2
          2 2 2 2 2 2
          2 2 2 2 2 2
          2 2 2 2 2 2
          2 2 2 2 2 2
          2 2 2 2 2 2
          2 2 2 2 2 2
          2 2 2 2 2 2
          2 2 2 2 2 2
          2 2 2 2 2 2
          2 2 2 2 2 2
          2 2 2 2 2 2
          2 2 2 2 2 2
          2 2 2 2 2 2
          2 2 2 2 2 2
          2 2 2 2 2 2
          2 2 2 2 2 2
          2 2 2 2 2 2
          2 2 2 2 2 2
          0 0 0 0 1.5 1
          1 1.25 0 0 0.25 0.75
          2 2 2 2 2 2
          2 2 2 2 2 2
          2 2 2 2 2 2
          2 2 2 2 2 2
          2 2 2 2 2 2
          2 2 2 2 2 2
          2 2 2 2 2 2
          2 2 2 2 2 2
          2 2 2 2 2 2
          2 2 2 2 2 2
          2 2 2 2 2 2
          2 2 2 2 2 2
          2 2 2 2 2 2
          2 2 2 2 2 2
          2 2 2 2 2 2
          2 2 2 2 2 2
          2 2 2 2 2 2
          2 2 2 2 2 2
          2 2 2 2 2 2
          2 2 2 2 1.5 1.75
          2 2 2 2 2 2
          2 2 2 2 2 2
          2 2 2 2 2 2
          2 2 2 2 2 2
          2 2 2 2 2 2
          2 2 2 2 2 2
          2 2
        </DataArray>
        <DataArray type="Float64" Name="gradient_marker" format="ascii" RangeMin="0.5" RangeMax="1">
          1 1 1 1 1 1
          1 1 1 1 1 1
          1 1 1 1 1 1
          1 1 1 1 1 1
          1 1 1 1 1 1
          1 1 1 1 1 1
          1 1 1 1 1 1
          1 1 1 1 1 1
          1 1 1 1 1 1
          1 1 1 1 1 1
          1 1 1 1 1 1
          1 1 1 1 1 1
          1 1 1 1 1 1
          1 1 1 1 1 1
          1 1 1 1 1 1
          1 1 1 1 1 1
          1 1 1 1 1 1
          1 1 1 1 1 1
          1 1 1 1 1 1
          1 1 1 1 1 1
          1 1 1 1 1 1
          1 1 1 1 1 1
          1 1 1 1 1 1
          1 1 1 1 1 1
          1 1 1 1 1 1
          1 1 1 1 1 1
          1 1 1 1 1 1
          1 1 1 1 1 1
          1 1 1 1 1 1
          1 1 1 1 1 1
          1 1 1 1 1 1
          1 1 1 1 1 1
          1 0.5 1 1 0.5 0.5
          0.5 1 1 1 0.5 1
          0.5 1 1 1 1 1
          0.5 0.5 1 0.5 0.5 0.5
          1 0.5 1 1 1 1
          1 1 1 1 1 1
          1 1 1 1 1 1
          1 1 1 1 1 1
          1 1 1 1 1 1
          1 1 1 1 1 1
          1 1 1 1 1 1
          1 1 1 1 1 1
          1 1 1 1 1 1
          1 1 1 1 1 1
          1 1 1 1 1 1
          1 1 1 1 1 1
          1 1 1 1 1 1
          1 1 1 1 1 1
          1 1 1 1 1 1
          1 1 1 1 1 1
          1 1
        </DataArray>
        <DataArray type="Float64" Name="gradient_matprop_marker" format="ascii" RangeMin="0" RangeMax="0">
          0 0 0 0 0 0
          0 0 0 0 0 0
          0 0 0 0 0 0
          0 0 0 0 0 0
          0 0 0 0 0 0
          0 0 0 0 0 0
          0 0 0 0 0 0
          0 0 0 0 0 0
          0 0 0 0 0 0
          0 0 0 0 0 0
          0 0 0 0 0 0
          0 0 0 0 0 0
          0 0 0 0 0 0
          0 0 0 0 0 0
          0 0 0 0 0 0
          0 0 0 0 0 0
          0 0 0 0 0 0
          0 0 0 0 0 0
          0 0 0 0 0 0
          0 0 0 0 0 0
          0 0 0 0 0 0
          0 0 0 0 0 0
          0 0 0 0 0 0
          0 0 0 0 0 0
          0 0 0 0 0 0
          0 0 0 0 0 0
          0 0 0 0 0 0
          0 0 0 0 0 0
          0 0 0 0 0 0
          0 0 0 0 0 0
          0 0 0 0 0 0
          0 0 0 0 0 0
          0 0 0 0 0 0
          0 0 0 0 0 0
          0 0 0 0 0 0
          0 0 0 0 0 0
          0 0 0 0 0 0
          0 0 0 0 0 0
          0 0 0 0 0 0
          0 0 0 0 0 0
          0 0 0 0 0 0
          0 0 0 0 0 0
          0 0 0 0 0 0
          0 0 0 0 0 0
          0 0 0 0 0 0
          0 0 0 0 0 0
          0 0 0 0 0 0
          0 0 0 0 0 0
          0 0 0 0 0 0
          0 0 0 0 0 0
          0 0 0 0 0 0
          0 0 0 0 0 0
          0 0
        </DataArray>
        <DataArray type="Float64" Name="combo" format="ascii" RangeMin="0.875" RangeMax="2">
          1 1 2 1 1 1
          1 1.75 1.125 1.5 1 1
          1 1 1 1.5 1 1
          1 1 1 1 1 1
          1 1 1 1 1 1
          1 1 1 1 1 1
          1 2 1.875 1.5 2 2
          2 1.875 1.375 2 2 2
          1 1 1 1 1 1
          1.25 1.125 1 1 1 1
          1 1 1 1 1 1
          1 1 1 1 1 1
          1 1 1 1 1 1
          1 1 1.75 1.5 1.25 1.125
          1.125 1 2 1.75 1.25 1.25
          1 1 1 1 1 1
          1 1 1 1 1 1
          1 1 1 1 1 1
          1 1 1 1 1 1
          1 1 1 1 1 1
          1 1 1 1 1 1
          1 1 1 1 1 1
          1 1 1 1 1 1
          1 1 1 1 1 1
          1 1 1 1 1 1
          1 1 1 1 1 1
          1 1 1 1 1 1
          1 1 1 1 1 1
          1 1 1 1 1 1
          1 1 1 1 1 1
          1 1 1 1 1 1
          1 1 1 1 1 1
          1 1.25 1.5 1.375 1.25 2
          2 1.25 1.125 1.125 0.875 1.5
          1.625 1 1 1 1 1.125
          2 2 1.75 2 2 2
          1.75 2 1 1.25 1 1.25
          1 1 1 1 1 1
          1 1 1 1 1 1
          1 1 1 1 1 1
          1 1 1 1 1 1
          1 1 1 1 1 1
          1 1 1 1 1 1
          1 1 1 1 1 1
          1 1 1 1 1 1
          1 1 1 1 1 1
          1 1 1 1 1 1
          1 1 1 1 1 1
          1 1 1 1 1 1
          1 1 1 1 1 1
          1 1 1 1 1 1
          1 1 1 1 1 1
          1 1
        </DataArray>
        <DataArray type="Float64" Name="dHdT" format="ascii" RangeMin="25.838617758313642" RangeMax="59.64032520340286">
          36.665319972019844 28.66600447501483 56.63844904282713 26.54391835266336 26.401426801357673 32.236028314889296
          27.876266548380887 52.31260164995132 42.86927506028739 50.31328973847182 39.10943193821581 36.014160605294734
          34.032012597797596 31.346666736064055 30.181973637000436 47.0714523271682 38.65822373290004 33.59563219063802
          31.64694434944226 26.170046189408676 26.154456265532584 26.112724194473792 26.89764033724885 26.838935061521482
          26.504379675858225 26.687023181109275 31.738058921197858 27.999780901248993 27.852239702103066 27.276507505356914
          27.180718810667067 27.484406539343883 26.93839855009204 30.253494002860386 29.86715275081359 28.434412702251823
          28.949609513782953 54.10872292193365 52.57558498753834 49.414519163071795 51.853881301056084 53.43714189247026
          57.175129940086016 55.2657468542493 48.321224911372006 48.09693807057978 51.6942730429349 56.07489495725991
          38.14495839674549 37.348435639562595 35.66203939399972 35.1245716277183 35.46031625041382 33.47119353231974
          45.47569950873811 43.21519625104678 38.12712462832515 38.84210331406773 33.63106459915525 32.99355896117789
          31.110135879324233 30.596967383917754 31.31901764787443 29.39049390599935 36.34991446966049 35.75868080121434
          33.273432739150884 33.868320118390116 32.909630545360514 31.046394948808814 30.205545886728135 28.892513994538827
          35.23398242365452 33.21413878642443 31.92369204943192 29.37897937204334 28.143715673902015 31.09922356088046
          29.24385475071705 28.759312002881455 55.214122637641594 50.91498030887246 44.16288657778934 41.815814338688256
          42.552367821284626 37.827011248089676 59.64032520340286 54.43160171169669 43.93283086579339 44.26608547752111
          37.5231067343494 37.08403119526192 36.04060518504219 35.2413524770918 35.46732353911038 32.9875329587425
          37.835981775756665 37.42679505737565 35.885588404247244 35.939232702703364 36.81871840416234 34.6112012549427
          33.12396348829995 31.245623226485407 37.43023556676263 35.05551702728998 33.52725286460252 32.47633639911688
          30.226184178256513 29.48527746293352 32.976906121248895 30.624638235384147 29.781526579989457 25.964859943022418
          25.959435885389844 26.04487708749786 26.034755977260474 25.94470984923389 26.0077175523594 26.287593217200897
          26.261845409239005 26.19475742873447 26.761739380656444 26.700305645418347 26.54414727325472 27.620777455899365
          27.48165767079837 27.139668061718197 29.029079716453303 28.735109933607294 28.043071863616188 30.98314971181412
          30.43793823822735 29.196763160828862 27.305282684748327 27.958735241272237 32.83199753045127 32.052920906122054
          30.265855016440014 33.58748671726656 32.72386640289703 30.7144962595437 28.522866769472362 28.750703415613664
          25.86870523202185 25.846369281530194 25.84412273882718 25.871091561040423 25.98090884480027 25.88555696463535
          25.87706372508304 25.960198916582105 25.838617758313642 25.86675119533393 25.85869190041919 25.917778043941176
          26.07784152540582 26.008998139796677 26.06921874125651 26.34753833828438 26.323904489098183 26.07071895709798
          26.260905445284045 26.589458572741368 26.555239205084312 27.371568535609985 27.287303632019736 26.464273130518883
          27.070394172869904 25.98209527120654 26.06479992585579 26.056930950615914 26.177508152485565 26.344366859753457
          26.4942132330412 26.796270625693936 26.270347386322214 30.403763214586572 29.003880725757824 28.778361778367096
          30.064472732506786 34.103282434448644 33.618329882595404 28.226473795455195 29.237741018517035 30.44788256523025
          32.21257014371817 27.04902011915304 27.589667641675636 26.646495200652417 27.967554225324825 28.96231952397769
          27.25575711309226 49.95878070320191 46.29354301379871 44.45418372786992 48.05703953988885 52.29673107232853
          52.86759711489469 41.93286383728123 40.53660887675263 40.16177233728079 43.31265948401394 46.98663231801832
          50.39611656117184 37.55691832093541 34.675091338999415 36.4004963667596 37.346727016610046 39.78839390042151
          47.737022452347745 50.55923324789661 51.77249304445052 52.64829172983579 46.24276370968174 48.867720061664
          52.81709269317382 52.27916128498445 39.82099747165343 43.25496482277751 40.84283274292142 44.592219432702734
          35.62137236191888 35.20947763386909 33.93524646670133 30.289885402530338 31.872851165235932 28.62030211907029
          29.72116507831733 31.79560372534527 27.804788461054308 33.68324001890583 27.197053839985145 27.92177333799825
          26.7462770902924 27.22645818028912 27.760429592563852 34.80151120241604 35.15740411223312 28.20323495161038
          28.3786448182598 27.541638284224092 28.20632411593992 28.294355208132323 29.271998197210614 27.04389171263844
          27.5768089469152 29.120033597350506 30.46496386882357 28.14173117083318 26.668167019059933 27.03935692828602
          27.425966640679746 26.64019966456809 26.900137598277244 29.809288753328673 31.41807859466988 28.59542496913671
          30.08512278959968 31.773677184535014 28.772285381263156 27.729953549350167 27.10225582985463 27.846807156063853
          27.17952446408854 25.907356720597292 25.959254216462025 25.95288091138755 25.93589222632069 26.108904595666473
          26.092940619043247 26.051205265997467 25.924101227637507 25.971538247283817 25.88428932280815 25.913181092547262
          26.109321962771872 25.998015061932634 26.403950479533307 26.365835663718872 26.268910829793228 26.927377560860137
          26.843821743530953 26.636836030041223 26.354897669319787 26.15119631763179 26.749125845154595 26.397238842048523
          27.739671890779896 27.5746404757192 27.177194320929654 28.776560237571196 28.49298688776323 27.829259314378778
          26.738815795165728 26.420756259400783 26.73129691357124 26.19299434029679 26.387088989409754 27.129813252897875
          27.070239180446464 26.5970030859151 29.731541956780855 29.32889166721892 28.402162884531208 30.132218709141327
          29.677642214816913 28.635997978881775 27.45699065250563 27.344841546001895 26.765194648929356 27.5859440791346
          27.45144281239186 26.82990587169706
        </DataArray>
        <DataArray type="Float64" Name="dk/dtemperature" format="ascii" RangeMin="0.006237874999999988" RangeMax="0.030430619957718622">
          0.007445264663737711 0.012616031680718546 0.02851812499999983 0.014929511410617165 0.015145196530721501 0.010035488714597397
          0.013362592766129526 0.02218254772612409 0.013557041149206521 0.01753562085147129 0.007972198836323767 0.007727067922429029
          0.00878298953571382 0.010678958446756238 0.011473135594684644 0.010434020586179153 0.007735471007982709 0.009152242737197235
          0.010529383999774553 0.015512219766594589 0.015533102665362349 0.0156061928110495 0.014484677112696433 0.014553552938451536
          0.014994047115845234 0.014737222655643938 0.010427043292610832 0.013199998042645858 0.013384923220251753 0.01400701055650847
          0.014136206919047472 0.013770249594183256 0.014416176991702034 0.011428224782274463 0.011713099069912181 0.012828319336246133
          0.012375437194294752 0.02449949515682308 0.02470501540422417 0.020938150270519578 0.010753812499999935 0.018382405998215744
          0.024203975179012616 0.026235420111718342 0.018451026199624045 0.007297749999999992 0.009246296420158997 0.027261702308376635
          0.007888830281923014 0.007869975577124495 0.008098591468617355 0.008332712218624432 0.00817817080983976 0.009295878291255123
          0.011348521878650746 0.009797626253618422 0.007666884170291006 0.0076072608012232555 0.009182962296657833 0.009596834147021453
          0.01083646155511234 0.011189520387626896 0.010689274632860186 0.012044898139189063 0.007450628931105158 0.007737062269783944
          0.009369108735354924 0.008977976817883086 0.009580641898509658 0.010864264335116492 0.011469487377430036 0.01240820824928873
          0.008048252887952422 0.009322296149105874 0.010274194806269206 0.012045213177991575 0.013096146257435997 0.010849167189088007
          0.01214327335595637 0.012518785275257613 0.022255130103849448 0.019119228576427852 0.009442938696283532 0.00870257099518052
          0.011686915467905165 0.007475871220049463 0.030430619957718622 0.026863891041134732 0.009523542061262217 0.015703000747425953
          0.007478097202723086 0.007348046338058681 0.0075559974578390705 0.008066161998279017 0.007931127166702972 0.009587449895553008
          0.007983439520972292 0.00765905763090231 0.00772510191269896 0.007704152088307686 0.007685327507853854 0.008332996481263672
          0.00940465897326551 0.010784128281479987 0.007855729873683097 0.008101550739393398 0.009106447079708015 0.009875911197172078
          0.011466468700465419 0.011991684176312698 0.009480080162362129 0.011221283878151793 0.011818081900767708 0.015804580349343192
          0.015804580349343192 0.01572104875427216 0.015731490203656037 0.015804580349343192 0.015762814551807676 0.0153547174216715
          0.015383651558518393 0.015483285629747693 0.014661554446271688 0.014730430272026794 0.014937498899886681 0.013600795344224323
          0.013777547725716727 0.014207851206404404 0.012244918228484135 0.012522749691023934 0.01321276425750061 0.010901878486899481