<?xml version="1.0"?>
<VTKFile type="UnstructuredGrid" version="0.1" byte_order="LittleEndian" header_type="UInt32" compressor="vtkZLibDataCompressor">
  <UnstructuredGrid>
    <Piece NumberOfPoints="330" NumberOfCells="180">
      <PointData>
        <DataArray type="Int32" Name="libmesh_node_id" format="ascii" RangeMin="231" RangeMax="2774">
          231 318 563 564 565 613
          614 615 616 623 624 721
          722 723 724 725 726 727
          930 931 932 935 1112 1113
          1114 1115 1116 1117 1118 1119
          1120 1121 1122 1123 1124 1125
          1126 1127 1128 1129 1133 1134
          1136 1137 1139 1140 1141 1142
          1143 1148 1150 1151 1157 1160
          1161 1162 1163 1164 1165 1166
          1167 1168 1169 1181 1185 1365
          1366 1367 1368 1369 1370 1371
          1372 1373 1374 1375 1376 1377
          1378 1379 1380 1381 1382 1383
          1384 1386 1388 2313 2314 2315
          2318 2321 2323 2324 2325 2326
          2327 2328 2329 2330 2331 2332
          2333 2334 2335 2336 2339 2340
          2343 2345 2347 2348 2349 2350
          2351 2352 2353 2354 2355 2356
          2359 2360 2362 2365 2367 2368
          2369 2370 2371 2372 2373 2374
          2375 2376 2378 2380 2382 2384
          2385 2386 2387 2388 2389 2390
          2391 2392 2393 2394 2395 2396
          2397 2398 2399 2400 2401 2402
          2403 2404 2419 2420 2421 2422
          2423 2424 2425 2426 2427 2428
          2429 2430 2431 2432 2433 2434
          2435 2436 2437 2438 2449 2450
          2451 2452 2453 2454 2455 2468
          2469 2472 2474 2476 2477 2478
          2479 2480 2481 2482 2483 2484
          2485 2487 2489 2493 2494 2495
          2496 2497 2498 2499 2517 2518
          2520 2521 2522 2523 2524 2525
          2526 2527 2528 2529 2542 2543
          2545 2548 2550 2551 2552 2553
          2554 2555 2556 2557 2558 2559
          2561 2563 2565 2567 2568 2569
          2570 2571 2572 2573 2576 2577
          2579 2582 2584 2585 2586 2587
          2588 2589 2590 2591 2592 2593
          2595 2597 2599 2601 2602 2603
          2604 2605 2606 2607 2608 2609
          2610 2611 2612 2613 2614 2615
          2617 2628 2629 2630 2631 2632
          2634 2642 2643 2646 2648 2649
          2651 2662 2664 2666 2668 2683
          2684 2685 2686 2687 2688 2689
          2697 2698 2701 2702 2711 2712
          2713 2714 2715 2716 2717 2725
          2726 2729 2730 2732 2733 2734
          2735 2736 2738 2746 2747 2753
          2756 2758 2760 2762 2770 2774
        </DataArray>
        <DataArray type="Float64" Name="bounds" format="ascii" RangeMin="0" RangeMax="0">
          0 0 0 0 0 0
          0 0 0 0 0 0
          0 0 0 0 0 0
          0 0 0 0 0 0
          0 0 0 0 0 0
          0 0 0 0 0 0
          0 0 0 0 0 0
          0 0 0 0 0 0
          0 0 0 0 0 0
          0 0 0 0 0 0
          0 0 0 0 0 0
          0 0 0 0 0 0
          0 0 0 0 0 0
          0 0 0 0 0 0
          0 0 0 0 0 0
          0 0 0 0 0 0
          0 0 0 0 0 0
          0 0 0 0 0 0
          0 0 0 0 0 0
          0 0 0 0 0 0
          0 0 0 0 0 0
          0 0 0 0 0 0
          0 0 0 0 0 0
          0 0 0 0 0 0
          0 0 0 0 0 0
          0 0 0 0 0 0
          0 0 0 0 0 0
          0 0 0 0 0 0
          0 0 0 0 0 0
          0 0 0 0 0 0
          0 0 0 0 0 0
          0 0 0 0 0 0
          0 0 0 0 0 0
          0 0 0 0 0 0
          0 0 0 0 0 0
          0 0 0 0 0 0
          0 0 0 0 0 0
          0 0 0 0 0 0
          0 0 0 0 0 0
          0 0 0 0 0 0
          0 0 0 0 0 0
          0 0 0 0 0 0
          0 0 0 0 0 0
          0 0 0 0 0 0
          0 0 0 0 0 0
          0 0 0 0 0 0
          0 0 0 0 0 0
          0 0 0 0 0 0
          0 0 0 0 0 0
          0 0 0 0 0 0
          0 0 0 0 0 0
          0 0 0 0 0 0
          0 0 0 0 0 0
          0 0 0 0 0 0
          0 0 0 0 0 0
        </DataArray>
        <DataArray type="Float64" Name="gradient_error" format="ascii" RangeMin="4.5569752813640005e-11" RangeMax="1.2041969345073033e-8">
          3.461817979275536e-9 6.237477764974109e-10 2.601085083657209e-9 1.8133282010554296e-9 1.6024512138407847e-9 3.431910678041359e-10
          3.1333274901582205e-10 1.6963440814479517e-9 6.148225684567742e-10 4.7578860707849175e-9 1.616924814135563e-9 7.472386921207103e-10
          6.751612287392368e-10 4.67109868373622e-10 4.790172613931323e-10 1.8416166827937177e-10 1.4951669261245574e-10 2.1037999342647994e-10
          6.934459907212447e-10 8.786326381588108e-10 1.1686091026143133e-9 1.2472124384841247e-9 8.264805898685303e-10 7.406865662046792e-10
          1.3383385197330181e-9 1.076494776151894e-9 3.0271637422353466e-10 4.706578306903185e-10 3.811891777860227e-10 5.419060447900491e-10
          5.910719588145981e-10 2.4698971961223193e-10 4.8549713639054275e-9 3.741345912728493e-9 1.3000606860492747e-9 1.7486412651391204e-9
          1.2533762949052728e-10 1.3451266239484172e-10 1.429676785404896e-10 1.3691590775498416e-10 1.8055809118995948e-10 1.434642374191162e-10
          4.836644272918626e-10 3.743163130113462e-10 1.84783201022618e-10 5.523174137954705e-10 4.4986959769270934e-10 3.113727762153302e-10
          2.5140900286581795e-10 2.5803855690711473e-10 1.965792442127994e-10 1.787499966415815e-10 1.5323345781736955e-10 1.0133585223317679e-8
          8.1625439136253e-9 3.772929216356235e-9 2.9139153415396178e-9 3.606443342799364e-9 1.2584435467364556e-9 1.2041969345073033e-8
          1.0356601967008143e-8 3.792303682975252e-9 4.628789026527468e-9 3.917028174603677e-10 4.768377018710771e-10 3.3404876134144785e-10
          3.321484992327479e-10 7.943490080505967e-10 7.375800856606773e-10 1.783405508756909e-10 3.6348882831895404e-10 3.290622014717154e-10
          3.071274008912398e-10 5.870036042249259e-10 2.9636165735426834e-10 8.62082307310298e-11 8.306009690941621e-11 1.4414186063158227e-10
          1.3050794125052097e-10 5.6514661865731407e-11 7.833072875529587e-11 7.701209726149282e-11 7.991196308780262e-11 1.168740218694597e-10
          7.569346576768979e-11 4.0892285828639806e-10 2.649944974515627e-10 3.8209598171125986e-10 6.325860319178514e-10 6.035095609106388e-10
          5.257693704240124e-10 1.2664190295647064e-9 2.4320769630897837e-10 2.332335262981411e-10 3.847301766081574e-10 3.6726204052511123e-10
          1.404556417761325e-10 2.2742583763806883e-10 2.1728347032775145e-10 2.0757935926613732e-10 3.2093435085564906e-10 1.905336174560441e-10
          8.095985158617741e-10 7.665903380409903e-10 4.462154258093965e-10 6.527453033099575e-10 2.7973558385488827e-10 4.224346108382691e-10
          3.160657724737724e-10 8.306267071824716e-10 1.7438820598538697e-10 2.597927837637087e-10 1.0662352733783746e-10 1.5383318616349488e-10
          1.3706244745367707e-10 1.954034204021169e-10 1.302737610778502e-10 5.060355003913398e-10 2.956999148971295e-10 3.621242885198062e-10
          2.6781793382417105e-9 2.5169871714987036e-9 2.0925469395259666e-9 4.553164839398855e-9 1.6171257900692663e-9 1.5195950693495955e-9
          9.313070911354897e-10 8.758313217930554e-10 1.2637648089333451e-9 7.303891223131708e-10 2.951022001759326e-9 2.7627782038528275e-9
          1.5872440321226161e-9 2.2629016433941028e-9 1.5536220090297224e-9 1.0525434666032049e-9 2.6983242238964186e-9 9.41013969441052e-10
          5.467981730990566e-10 6.409173904867668e-10 3.74592488532173e-10 1.6300659490712597e-9 9.395926187981551e-10 1.0587585540527442e-9
          8.445362945686982e-11 8.176770762956165e-11 1.297954490619846e-10 1.242733268575425e-10 4.778373517250997e-11 7.257297576179482e-11
          6.89841120040653e-11 7.332929695567192e-11 1.0886026705478115e-10 6.716466939086577e-11 2.6367947429303877e-10 2.505650603909049e-10
          1.3505063263035667e-10 2.1526432722532075e-10 6.111924441537832e-11 8.685060530593249e-11 4.5569752813640005e-11 6.312638318307974e-11
          5.4661680721666264e-11 7.473188115540305e-11 5.5549254686233644e-11 1.6696399787200652e-10 1.0685905064009888e-10 1.3532234785438102e-10
          5.13455625840466e-10 4.838970649120607e-10 2.7226486920528657e-10 2.5695873509323376e-10 4.060099621120512e-10 2.1657744129400846e-10
          9.267097947287321e-10 8.674915026086048e-10 4.5336840275984124e-10 7.124746159540841e-10 3.0606069248390783e-10 1.6466034732980384e-10
          2.107108781758363e-10 1.1475380714371449e-10 5.186731574997958e-10 2.754259892183421e-10 3.4328611500599657e-10 1.622297695306236e-10
          2.2305051848748387e-10 1.8173306275936263e-10 3.9370945715456477e-10 1.0193818834616042e-10 1.3772577838516986e-10 8.2175041899071e-11
          1.0634763783466802e-10 8.662853151076986e-11 1.1215548622429026e-10 8.935447330045679e-11 2.4191503549445356e-10 1.64678785830712e-10
          1.7428931815759205e-10 6.682849154110928e-10 4.0467574946976397e-10 4.097390937891283e-10 2.400769730483556e-10 2.4881172291551946e-10
          1.6874600751678289e-10 6.443447476386787e-10 3.773280841309219e-10 3.7610889663332597e-10 2.137163590599291e-10 1.4335022165609427e-10
          1.0264319003568115e-10 1.355004006790466e-10 5.761849482431512e-11 7.50811740458979e-11 8.101931207250438e-11 1.0401900973378935e-10
          5.847314685713857e-11 2.1277219136460946e-10 1.1621417482111112e-10 1.4077238390909133e-10 7.617689141847473e-9 7.181243737484818e-9
          5.929452901155044e-9 9.678601722166266e-9 4.707095938093856e-9 4.418248688608359e-9 2.7271654596694994e-9 2.5527452143371e-9
          3.6154756886003476e-9 2.078996535977731e-9 6.4120302902747585e-9 6.073573376018427e-9 3.5526950254804344e-9 5.0374183403591074e-9
          4.225534376537116e-9 2.6524730679109656e-9 5.843347516658101e-9 2.5591121172935107e-9 1.4703469611598893e-9 1.6046887821590344e-9
          9.27119830663848e-10 3.5581084968086948e-9 2.04528979145831e-9 2.1838431854277845e-9 1.1618581229974264e-8 1.1282356843719092e-8
          9.780097105065112e-9 1.1789727463255592e-8 7.532477985057183e-9 7.218556523238574e-9 4.506168537242355e-9 4.278181531790646e-9
          6.102829456129832e-9 3.55422221930526e-9 7.894350467556231e-9 7.60820728132065e-9 4.53531846789608e-9 6.4922986756458775e-9
          7.086503834461234e-9 4.347934914039617e-9 7.551857182403812e-9 4.3376608382559055e-9 2.4981672754344942e-9 2.6368104374347996e-9
          1.5180093575496981e-9 4.632351318980379e-9 2.6705030140688425e-9 2.809125557511088e-9 1.4897751123253978e-9 1.3927463815007054e-9
          7.721968550323589e-10 7.219773467318328e-10 1.1334103247185673e-9 5.891851151157774e-10 2.0777332411285295e-9 1.9490127454470074e-9
          1.5890649457195904e-9 8.052877569936947e-10 4.225379735724449e-10 5.133400837099622e-10 2.735301690945281e-10 1.1158152699696195e-9
          6.929415354741625e-10 2.508073241391084e-9 2.365752353362413e-9 1.9437681697641643e-9 2.661500207480394e-9 2.517431928742848e-9
          2.0771603725454656e-9 1.3614279042597887e-9 8.334927409986411e-10 1.4552298229884255e-9 8.870496238215598e-10 9.336572266106334e-10
          5.450438235256e-10 5.227025355960646e-10 3.0708956003777375e-10 1.229438319161869e-9 7.15178954249122e-10 6.657428263401557e-10
          2.8572317642630743e-10 1.70239754527467e-10 3.5207771555080695e-10 2.105242180370916e-10 1.4568044619237638e-9 8.455762832091609e-10
          7.731402486727748e-10 4.538646177095917e-10 1.5425187284812278e-9 8.946220209452094e-10 8.130128116542717e-10 4.014768696060992e-10
          2.3934067349238044e-10 4.199204525107867e-10 2.5018052172415004e-10 3.069523070459785e-10 1.6616184454344658e-10 1.7460885158688844e-10
          1.1182157051289565e-10 4.0097079107950215e-10 2.233187664817226e-10 8.257804744952216e-11 9.640600006071971e-11 1.211980474904898e-10
          4.716444935498896e-10 2.5761512497401157e-10 4.980652476259251e-10 2.70161197992255e-10 1.3808125196629402e-10 1.4400036162352566e-10
        </DataArray>
        <DataArray type="Float64" Name="gradient_matprop_error" format="ascii" RangeMin="0" RangeMax="0">
          0 0 0 0 0 0
          0 0 0 0 0 0
          0 0 0 0 0 0
          0 0 0 0 0 0
          0 0 0 0 0 0
          0 0 0 0 0 0
          0 0 0 0 0 0
          0 0 0 0 0 0
          0 0 0 0 0 0
          0 0 0 0 0 0
          0 0 0 0 0 0
          0 0 0 0 0 0
          0 0 0 0 0 0
          0 0 0 0 0 0
          0 0 0 0 0 0
          0 0 0 0 0 0
          0 0 0 0 0 0
          0 0 0 0 0 0
          0 0 0 0 0 0
          0 0 0 0 0 0
          0 0 0 0 0 0
          0 0 0 0 0 0
          0 0 0 0 0 0
          0 0 0 0 0 0
          0 0 0 0 0 0
          0 0 0 0 0 0
          0 0 0 0 0 0
          0 0 0 0 0 0
          0 0 0 0 0 0
          0 0 0 0 0 0
          0 0 0 0 0 0
          0 0 0 0 0 0
          0 0 0 0 0 0
          0 0 0 0 0 0
          0 0 0 0 0 0
          0 0 0 0 0 0
          0 0 0 0 0 0
          0 0 0 0 0 0
          0 0 0 0 0 0
          0 0 0 0 0 0
          0 0 0 0 0 0
          0 0 0 0 0 0
          0 0 0 0 0 0
          0 0 0 0 0 0
          0 0 0 0 0 0
          0 0 0 0 0 0
          0 0 0 0 0 0
          0 0 0 0 0 0
          0 0 0 0 0 0
          0 0 0 0 0 0
          0 0 0 0 0 0
          0 0 0 0 0 0
          0 0 0 0 0 0
          0 0 0 0 0 0
          0 0 0 0 0 0
        </DataArray>
        <DataArray type="Float64" Name="initial_marker" format="ascii" RangeMin="0" RangeMax="2">
          0 0 0 0 0 0.5
          0 2 2 2 2 0
          0 0 0 0 0 0
          0 0 0 0 1 1
          2 2 0.25 2 2 0.25
          2 1.75 2 2 2 2
          0 0 2 1.75 0 0.75
          2 2 2 0 0.5 0
          0.25 1.75 0 0 0.75 2
          2 2 2 2 2 2
          2 2 2 2 2 0
          0 0 0 0 0 0
          0 0 0 0 0 0
          0 0 0 0 0 0
          0 0 0 2 2 2
          2 2 2 2 2 2
          1 1.5 1.5 1.5 1.75 1.25
          2 2 2 2 1.5 1.75
          1.25 2 0.5 1.25 0 1
          0 1 1 2 2 2
          2 2 2 2 2 2
          2 2 2 2 2 2
          2 2 2 2 2 2
          2 2 2 2 2 2
          0 0 1 1 0 1
          1 0 1 1 2 2
          2 2 0 0.75 0 0.5
          0 0.5 0 1.75 1.6666666666666667 1.6666666666666667
          2 2 2 2 2 2
          2 2 2 2 2 2
          2 1.75 2 2 2 0
          0.5 0 1.5 0 0.5 0
          0.5 0 0 0 1.5 1.3333333333333333
          0.6666666666666666 2 1.5 2 1.75 1.5
          1.3333333333333333 2 2 2 1 1
          1 1.5 0.5 1 0 1
          0.5 2 1.75 1.6666666666666667 2 2
          2 2 2 2 2 2
          2 2 2 2 2 2
          2 2 2 2 2 2
          2 2 2 2 2 2
          2 2 2 2 2 2
          2 2 2 2 2 2
          2 2 2 2 2 2
          2 2 2 2 2 2
          2 2 2 2 2 2
          2 2 2 2 2 2
          2 2 2 2 2 2
          2 2 2 2 2 2
          2 2 2 2 2 2
          1.5 1.25 2 1.5 2 2
          2 2 2 2 2 2
          1.5 2 1.5 2 2 1.75
          1.6666666666666667 2 2 0.5 0.75 1
          2 2 2 2 1 1
        </DataArray>
        <DataArray type="Float64" Name="markers_norefine" format="ascii" RangeMin="0" RangeMax="0">
          0 0 0 0 0 0
          0 0 0 0 0 0
          0 0 0 0 0 0
          0 0 0 0 0 0
          0 0 0 0 0 0
          0 0 0 0 0 0
          0 0 0 0 0 0
          0 0 0 0 0 0
          0 0 0 0 0 0
          0 0 0 0 0 0
          0 0 0 0 0 0
          0 0 0 0 0 0
          0 0 0 0 0 0
          0 0 0 0 0 0
          0 0 0 0 0 0
          0 0 0 0 0 0
          0 0 0 0 0 0
          0 0 0 0 0 0
          0 0 0 0 0 0
          0 0 0 0 0 0
          0 0 0 0 0 0
          0 0 0 0 0 0
          0 0 0 0 0 0
          0 0 0 0 0 0
          0 0 0 0 0 0
          0 0 0 0 0 0
          0 0 0 0 0 0
          0 0 0 0 0 0
          0 0 0 0 0 0
          0 0 0 0 0 0
          0 0 0 0 0 0
          0 0 0 0 0 0
          0 0 0 0 0 0
          0 0 0 0 0 0
          0 0 0 0 0 0
          0 0 0 0 0 0
          0 0 0 0 0 0
          0 0 0 0 0 0
          0 0 0 0 0 0
          0 0 0 0 0 0
          0 0 0 0 0 0
          0 0 0 0 0 0
          0 0 0 0 0 0
          0 0 0 0 0 0
          0 0 0 0 0 0
          0 0 0 0 0 0
          0 0 0 0 0 0
          0 0 0 0 0 0
          0 0 0 0 0 0
          0 0 0 0 0 0
          0 0 0 0 0 0
          0 0 0 0 0 0
          0 0 0 0 0 0
          0 0 0 0 0 0
          0 0 0 0 0 0
        </DataArray>
        <DataArray type="Float64" Name="markers_mustrefine" format="ascii" RangeMin="0" RangeMax="2">
          0 0 0 0 0 0.5
          0 2 2 2 2 0
          0 0 0 0 0 0
          0 0 0 0 1 1
          2 2 0.25 2 2 0.25
          2 1.75 2 2 2 2
          0 0 2 1.75 0 0.75
          2 2 2 0 0.5 0
          0.25 1.75 0 0 0.75 2
          2 2 2 2 2 2
          2 2 2 2 2 0
          0 0 0 0 0 0
          0 0 0 0 0 0
          0 0 0 0 0 0
          0 0 0 2 2 2
          2 2 2 2 2 2
          1 1.5 1.5 1.5 1.75 1.25
          2 2 2 2 1.5 1.75
          1.25 2 0.5 1.25 0 1
          0 1 1 2 2 2
          2 2 2 2 2 2
          2 2 2 2 2 2
          2 2 2 2 2 2
          2 2 2 2 2 2
          0 0 1 1 0 1
          1 0 1 1 2 2
          2 2 0 0.75 0 0.5
          0 0.5 0 1.75 1.6666666666666667 1.6666666666666667
          2 2 2 2 2 2
          2 2 2 2 2 2
          2 1.75 2 2 2 0
          0.5 0 1.5 0 0.5 0
          0.5 0 0 0 1.5 1.3333333333333333
          0.6666666666666666 2 1.5 2 1.75 1.5
          1.3333333333333333 2 2 2 1 1
          1 1.5 0.5 1 0 1
          0.5 2 1.75 1.6666666666666667 2 2
          2 2 2 2 2 2
          2 2 2 2 2 2
          2 2 2 2 2 2
          2 2 2 2 2 2
          2 2 2 2 2 2
          2 2 2 2 2 2
          2 2 2 2 2 2
          2 2 2 2 2 2
          2 2 2 2 2 2
          2 2 2 2 2 2
          2 2 2 2 2 2
          2 2 2 2 2 2
          2 2 2 2 2 2
          1.5 1.25 2 1.5 2 2
          2 2 2 2 2 2
          1.5 2 1.5 2 2 1.75
          1.6666666666666667 2 2 0.5 0.75 1
          2 2 2 2 1 1
        </DataArray>
        <DataArray type="Float64" Name="gradient_marker" format="ascii" RangeMin="1" RangeMax="1">
          1 1 1 1 1 1
          1 1 1 1 1 1
          1 1 1 1 1 1
          1 1 1 1 1 1
          1 1 1 1 1 1
          1 1 1 1 1 1
          1 1 1 1 1 1
          1 1 1 1 1 1
          1 1 1 1 1 1
          1 1 1 1 1 1
          1 1 1 1 1 1
          1 1 1 1 1 1
          1 1 1 1 1 1
          1 1 1 1 1 1
          1 1 1 1 1 1
          1 1 1 1 1 1
          1 1 1 1 1 1
          1 1 1 1 1 1
          1 1 1 1 1 1
          1 1 1 1 1 1
          1 1 1 1 1 1
          1 1 1 1 1 1
          1 1 1 1 1 1
          1 1 1 1 1 1
          1 1 1 1 1 1
          1 1 1 1 1 1
          1 1 1 1 1 1
          1 1 1 1 1 1
          1 1 1 1 1 1
          1 1 1 1 1 1
          1 1 1 1 1 1
          1 1 1 1 1 1
          1 1 1 1 1 1
          1 1 1 1 1 1
          1 1 1 1 1 1
          1 1 1 1 1 1
          1 1 1 1 1 1
          1 1 1 1 1 1
          1 1 1 1 1 1
          1 1 1 1 1 1
          1 1 1 1 1 1
          1 1 1 1 1 1
          1 1 1 1 1 1
          1 1 1 1 1 1
          1 1 1 1 1 1
          1 1 1 1 1 1
          1 1 1 1 1 1
          1 1 1 1 1 1
          1 1 1 1 1 1
          1 1 1 1 1 1
          1 1 1 1 1 1
          1 1 1 1 1 1
          1 1 1 1 1 1
          1 1 1 1 1 1
          1 1 1 1 1 1
        </DataArray>
        <DataArray type="Float64" Name="gradient_matprop_marker" format="ascii" RangeMin="0" RangeMax="0">
          0 0 0 0 0 0
          0 0 0 0 0 0
          0 0 0 0 0 0
          0 0 0 0 0 0
          0 0 0 0 0 0
          0 0 0 0 0 0
          0 0 0 0 0 0
          0 0 0 0 0 0
          0 0 0 0 0 0
          0 0 0 0 0 0
          0 0 0 0 0 0
          0 0 0 0 0 0
          0 0 0 0 0 0
          0 0 0 0 0 0
          0 0 0 0 0 0
          0 0 0 0 0 0
          0 0 0 0 0 0
          0 0 0 0 0 0
          0 0 0 0 0 0
          0 0 0 0 0 0
          0 0 0 0 0 0
          0 0 0 0 0 0
          0 0 0 0 0 0
          0 0 0 0 0 0
          0 0 0 0 0 0
          0 0 0 0 0 0
          0 0 0 0 0 0
          0 0 0 0 0 0
          0 0 0 0 0 0
          0 0 0 0 0 0
          0 0 0 0 0 0
          0 0 0 0 0 0
          0 0 0 0 0 0
          0 0 0 0 0 0
          0 0 0 0 0 0
          0 0 0 0 0 0
          0 0 0 0 0 0
          0 0 0 0 0 0
          0 0 0 0 0 0
          0 0 0 0 0 0
          0 0 0 0 0 0
          0 0 0 0 0 0
          0 0 0 0 0 0
          0 0 0 0 0 0
          0 0 0 0 0 0
          0 0 0 0 0 0
          0 0 0 0 0 0
          0 0 0 0 0 0
          0 0 0 0 0 0
          0 0 0 0 0 0
          0 0 0 0 0 0
          0 0 0 0 0 0
          0 0 0 0 0 0
          0 0 0 0 0 0
          0 0 0 0 0 0
        </DataArray>
        <DataArray type="Float64" Name="combo" format="ascii" RangeMin="1" RangeMax="1">
          1 1 1 1 1 1
          1 1 1 1 1 1
          1 1 1 1 1 1
          1 1 1 1 1 1
          1 1 1 1 1 1
          1 1 1 1 1 1
          1 1 1 1 1 1
          1 1 1 1 1 1
          1 1 1 1 1 1
          1 1 1 1 1 1
          1 1 1 1 1 1
          1 1 1 1 1 1
          1 1 1 1 1 1
          1 1 1 1 1 1
          1 1 1 1 1 1
          1 1 1 1 1 1
          1 1 1 1 1 1
          1 1 1 1 1 1
          1 1 1 1 1 1
          1 1 1 1 1 1
          1 1 1 1 1 1
          1 1 1 1 1 1
          1 1 1 1 1 1
          1 1 1 1 1 1
          1 1 1 1 1 1
          1 1 1 1 1 1
          1 1 1 1 1 1
          1 1 1 1 1 1
          1 1 1 1 1 1
          1 1 1 1 1 1
          1 1 1 1 1 1
          1 1 1 1 1 1
          1 1 1 1 1 1
          1 1 1 1 1 1
          1 1 1 1 1 1
          1 1 1 1 1 1
          1 1 1 1 1 1
          1 1 1 1 1 1
          1 1 1 1 1 1
          1 1 1 1 1 1
          1 1 1 1 1 1
          1 1 1 1 1 1
          1 1 1 1 1 1
          1 1 1 1 1 1
          1 1 1 1 1 1
          1 1 1 1 1 1
          1 1 1 1 1 1
          1 1 1 1 1 1
          1 1 1 1 1 1
          1 1 1 1 1 1
          1 1 1 1 1 1
          1 1 1 1 1 1
          1 1 1 1 1 1
          1 1 1 1 1 1
          1 1 1 1 1 1
        </DataArray>
        <DataArray type="Float64" Name="dHdT" format="ascii" RangeMin="25.81479596932171" RangeMax="30.132218709141327">
          25.825878091209372 25.81479596932171 25.8317953519117 25.84310414380434 25.839110500850637 25.841984988852165
          25.83109589971225 26.185820772756077 25.94416219925056 27.131578493804753 26.15868830483926 25.81963005731761
          25.8192142674399 25.82126735050389 25.82033269569449 25.81513166220132 25.815224926957985 25.815455221065296
          25.850413925432246 25.86870523202185 25.871091561040423 25.86675119533393 25.88555696463535 25.87706372508304
          26.108904595666473 26.051205265997467 25.83867177846617 25.915272170444823 25.896112584249035 25.85869190041919
          25.947081889631853 25.860138169162745 26.927377560860137 26.636836030041223 26.09124716573389 26.19299434029679
          25.82350959239752 25.82263783843385 25.844067822714962 25.838178918788756 25.822386765233933 25.82882894929078
          25.91611859627496 25.891682734835946 25.852627452784965 25.844971203905978 25.875861756249286 25.829284827547724
          25.836661995431875 25.862551160944914 25.821926132941318 25.823524685136025 25.829810047250927 28.776560237571196
          27.829259314378778 26.7571357526751 26.475456133944654 26.5970030859151 26.08054345713761 30.132218709141327
          28.635997978881775 26.719126324774663 26.82990587169706 25.89994040252455 25.91848313491713 25.832558223564916
          25.831839350921125 25.846369281530194 25.84412273882718 25.82251567210313 25.828361091500398 25.82727005265904
          25.829946039542868 25.838617758313642 25.826451448417355 25.817693560605782 25.817649489324282 25.819475029817216
          25.819238005044 25.81612102026912 25.81676826638418 25.816812460462753 25.817605418042778 25.819000980270772
          25.816856654541326 25.833071838225457 25.825878969843153 25.907356720597292 25.959254216462025 25.95288091138755
          25.93589222632069 26.092940619043247 25.874271816824816 25.87205600805472 25.902405389184775 25.898585069827323
          25.848872414712716 25.866011531554374 25.863821116420834 25.866022221794612 25.88836302417115 25.857945153570867
          25.99026467093233 25.980797715790345 25.90995604977564 25.95610607703666 25.88428932280815 25.913181092547262
          25.89015832837694 25.998015061932634 25.85749592797514 25.874553218213286 25.84029473829883 25.85002643024496
          25.848593512815057 25.860542209072886 25.845195140139207 25.92457823974607 25.87836880615007 25.894314231785422
          26.403950479533307 26.365835663718872 26.268910829793228 26.843821743530953 26.164788248568883 26.142319857194686
          26.01298561405651 26.000485564939055 26.085080985429407 25.968557434630263 26.473137123637457 26.424489496753964
          26.15878969573887 26.30328978604928 26.15119631763179 26.0446374468532 26.397238842048523 26.01534745678133
          25.929540829569483 25.952253524716355 25.894137058312342 26.16185896448145 26.012108441264637 26.040658341631072
          25.834970893186394 25.834227866837956 25.843603772688923 25.84236944668977 25.82538714624421 25.830273756947562
          25.829673840156612 25.83228366411607 25.839127254980447 25.82961328929117 25.87018434497184 25.867287046549407
          25.842609147144035 25.859754728421834 25.829823892694293 25.835064782275804 25.82601287649191 25.829475312409336
          25.82856529764597 25.833010175281323 25.82825860367651 25.85032291836425 25.837033014407556 25.844457972190117
          25.922127096626326 25.915507126782206 25.8705408599818 25.86722234221346 25.898623337300968 25.858714227147303
          26.0133781586172 25.99925386216257 25.909157809671868 25.963843460745068 25.87796266599799 25.848240388651845
          25.85910870266298 25.838637928121578 25.922164270711093 25.870901512191367 25.886109655002183 25.85804195608578
          25.87100298459012 25.862774651192566 25.90627368969258 25.84129238432984 25.849055785944703 25.834805510319136
          25.840493947332057 25.838185354675247 25.844172292297785 25.836988983517422 25.87010276668162 25.852109961274895
          25.857095268396108 25.963604042092914 25.90903349783207 25.904284851295408 25.867042615196947 25.87187064735285
          25.85320991134952 25.95371793663686 25.895188325732875 25.89817422123371 25.865469208045177 25.84870163968539
          25.838143659352827 25.844621189356104 25.827905434519003 25.831250222751287 25.83396565815891 25.838590787718367
          25.82818073671362 25.859839947363547 25.83912236762088 25.846080095601113 27.739671890779896 27.5746404757192
          27.177194320929654 28.49298688776323 26.93986680091754 26.84674597922071 26.44538088320831 26.394244411857603
          26.619661328437328 26.2688037486501 27.510522518165928 27.357323501536854 26.674684177346844 26.99138585541403
          26.738815795165728 26.387088989409754 27.129813252897875 26.3645947010363 26.12653329766065 26.156637742501246
          26.009702770823043 26.593404648307928 26.25527287417558 26.2816675098044 29.731541956780855 29.32889166721892
          28.402162884531208 29.677642214816913 28.0109508281385 27.802562156596597 27.024716133156037 26.91457292616792
          27.308756741366444 26.649732271322385 28.21390209132315 27.98314868946158 27.0105157783354 27.436138500014117
          27.45699065250563 26.765194648929356 27.5859440791346 26.7822931462806 26.361012782362742 26.381435717967577
          26.13699666703208 26.856397411577007 26.402431698196256 26.419864709259283 26.150399308241507 26.12366768555831
          25.98400487451892 25.970835233480464 26.057902835478504 25.93850696416713 26.314272437735195 26.271392542757717
          26.167282121712148 25.98300559602138 25.90156487983831 25.92124587594507 25.870671358348844 26.051459996406777
          25.95908638357602 26.45438254498589 26.397113250312 26.259090232123683 26.510384669250428 26.447220248907225
          26.295443033893054 26.107665441505368 25.989258662205998 26.129678707942553 26.00087497264484 26.015466334691936
          25.930210189402096 25.92991036370004 25.88190114571311 26.079312178425777 25.96646317424139 25.961437588738452
          25.881825051131646 25.854602740833535 25.897560059139163 25.86379381848899 26.128538057059757 25.994441375231705
          25.985030201015 25.9134305615725 26.14713191016525 26.00501160997312 25.993835516557454 25.90889096886246
          25.870431983719108 25.91306477835068 25.872872528482382 25.87874012772332 25.848914650578635 25.85258656128014
          25.838510718118272 25.898295692534088 25.86236214132491 25.835405044719785 25.83788520104654 25.84270929601287
          25.913438349105842 25.86989584639602 25.919184393222437 25.87272834793974 25.8464733356013 25.84789343655015
        </DataArray>
        <DataArray type="Float64" Name="dk/dtemperature" format="ascii" RangeMin="0.011387721459367391" RangeMax="0.015804580349343195">
          0.015804580349343192 0.015804580349343192 0.01580458034934319 0.015804580349343192 0.015804580349343192 0.015804580349343192
          0.015804580349343192 0.015517000189204072 0.015794138899959315 0.014224766295357334 0.015553985564130103 0.015804580349343192
          0.015804580349343192 0.015804580349343192 0.015804580349343192 0.015804580349343192 0.015804580349343192 0.015804580349343192
          0.015804580349343192 0.015804580349343192 0.015804580349343192 0.015804580349343192 0.015804580349343192 0.015804580349343192
          0.015637517159201135 0.015700165855504405 0.015804580349343192 0.015804580349343192 0.015804580349343192 0.015804580349343192
          0.015794138899959315 0.015804580349343192 0.014417370400330155 0.014829247487900807 0.015647958608585012 0.015433468594133047
          0.015804580349343192 0.015804580349343192 0.015804580349343192 0.015804580349343192 0.015804580349343192 0.015804580349343192
          0.015804580349343192 0.015804580349343192 0.015804580349343192 0.015804580349343192 0.015804580349343192 0.015804580349343192
          0.015804580349343192 0.015804580349343192 0.015804580349343192 0.015804580349343192 0.015804580349343192 0.012462553257810774
          0.01341397976364513 0.014634883023110303 0.015018515331570108 0.01488233449047298 0.01565840005796889 0.011387721459367391