<?xml version="1.0"?>
<VTKFile type="UnstructuredGrid" version="0.1" byte_order="LittleEndian" header_type="UInt32" compressor="vtkZLibDataCompressor">
  <UnstructuredGrid>
    <Piece NumberOfPoints="423" NumberOfCells="184">
      <PointData>
        <DataArray type="Int32" Name="libmesh_node_id" format="ascii" RangeMin="164" RangeMax="2902">
          196 198 234 235 241 257
          258 259 260 261 262 263
          264 265 266 267 268 269
          270 319 321 322 324 325
          326 327 329 330 331 442
          443 444 445 446 447 448
          449 450 451 452 453 454
          455 620 621 622 626 634
          635 636 640 661 662 663
          664 665 666 667 668 669
          670 671 672 673 674 675
          676 677 678 679 680 728
          729 730 731 732 735 736
          737 738 739 740 741 742
          743 744 745 746 747 748
          749 750 751 752 753 754
          755 756 757 758 759 760
          1105 1108 1110 1144 1145 1146
          1149 1152 1153 1154 1155 1156
          1158 1159 1183 1187 1188 1189
          1190 1191 1192 1193 1218 1219
          1220 1221 1222 1223 1224 1225
          1226 1227 1275 1276 1277 1278
          1279 1280 1281 1296 1297 1300
          1301 1302 1303 1304 1305 1308
          1309 1322 1323 1326 1344 1345
          1346 1347 1348 1349 1350 1385
          1387 1389 1390 1391 1392 1393
          1394 1395 1396 1397 1398 1399
          1400 1401 1402 1403 1404 1405
          1406 1407 1408 1409 1410 1411
          1412 1413 1414 1415 1416 1417
          1418 2510 2511 2512 2513 2514
          2515 2516 2519 2530 2531 2532
          2533 2534 2535 2536 2537 2538
          2539 2700 2728 2740 2741 2742
          2744 2745 2748 2749 2750 2751
          2752 2754 2755 2759 2764 2765
          2766 2768 2769 2771 2772 2773
          2775 2776 2777 2778 2779 2780
          2781 2782 2783 2784 2785 2786
          2886 2887 2888 2889 2890 2891
          2892 2893 2894 2895 2896 2897
          2898 2899 2900 2901 2902 166
          168 169 167 199 197 230
          233 165 236 232 238 237
          164 195 348 351 352 349
          229 373 371 242 378 377
          323 628 631 630 633 638
          639 412 413 414 417 231
          318 308 420 313 421 424
          240 426 563 722 565 724
          568 725 727 614 617 726
          733 734 627 605 606 609
          611 1140 1142 1141 1143 1133
          1150 1134 1135 1151 1148 1157
          1207 1212 1213 1217 1270 1271
          1274 310 632 1298 1299 1306
          1307 1201 1202 1203 619 1372
          935 1373 1386 1374 1388 1339
          1050 1340 1343 1104 2485 2495
          2496 2499 2518 2517 2460 2522
          2452 2461 2523 2462 2526 1139
          2465 2528 2732 2733 2735 2734
          2736 2737 2738 2631 2637 2739
          2638 2641 1175 2743 2529 2746
          2747 2698 2753 2702 2756 2757
          2758 2760 2761 2762 2671 2672
          2763 2675 625 2767 2770 2726
          2774 2730 2810 2837 2838 2841
          2874 2875 2878
        </DataArray>
        <DataArray type="Float64" Name="bounds" format="ascii" RangeMin="0" RangeMax="0">
          0 0 0 0 0 0
          0 0 0 0 0 0
          0 0 0 0 0 0
          0 0 0 0 0 0
          0 0 0 0 0 0
          0 0 0 0 0 0
          0 0 0 0 0 0
          0 0 0 0 0 0
          0 0 0 0 0 0
          0 0 0 0 0 0
          0 0 0 0 0 0
          0 0 0 0 0 0
          0 0 0 0 0 0
          0 0 0 0 0 0
          0 0 0 0 0 0
          0 0 0 0 0 0
          0 0 0 0 0 0
          0 0 0 0 0 0
          0 0 0 0 0 0
          0 0 0 0 0 0
          0 0 0 0 0 0
          0 0 0 0 0 0
          0 0 0 0 0 0
          0 0 0 0 0 0
          0 0 0 0 0 0
          0 0 0 0 0 0
          0 0 0 0 0 0
          0 0 0 0 0 0
          0 0 0 0 0 0
          0 0 0 0 0 0
          0 0 0 0 0 0
          0 0 0 0 0 0
          0 0 0 0 0 0
          0 0 0 0 0 0
          0 0 0 0 0 0
          0 0 0 0 0 0
          0 0 0 0 0 0
          0 0 0 0 0 0
          0 0 0 0 0 0
          0 0 0 0 0 0
          0 0 0 0 0 0
          0 0 0 0 0 0
          0 0 0 0 0 0
          0 0 0 0 0 0
          0 0 0 0 0 0
          0 0 0 0 0 0
          0 0 0 0 0 0
          0 0 0 0 0 0
          0 0 0 0 0 0
          0 0 0 0 0 0
          0 0 0 0 0 0
          0 0 0 0 0 0
          0 0 0 0 0 0
          0 0 0 0 0 0
          0 0 0 0 0 0
          0 0 0 0 0 0
          0 0 0 0 0 0
          0 0 0 0 0 0
          0 0 0 0 0 0
          0 0 0 0 0 0
          0 0 0 0 0 0
          0 0 0 0 0 0
          0 0 0 0 0 0
          0 0 0 0 0 0
          0 0 0 0 0 0
          0 0 0 0 0 0
          0 0 0 0 0 0
          0 0 0 0 0 0
          0 0 0 0 0 0
          0 0 0 0 0 0
          0 0 0
        </DataArray>
        <DataArray type="Float64" Name="gradient_error" format="ascii" RangeMin="6.255150011683924e-12" RangeMax="6.985723719021347e-9">
          4.224856100377502e-10 7.451702986540479e-10 2.3703509850330507e-10 7.040551477946815e-10 3.7468736255327484e-10 3.0492613449788e-10
          2.646906441832825e-10 1.8598030930873178e-10 2.360020098920141e-10 1.340168855340726e-10 1.24117943223286e-10 1.206074421362825e-10
          2.24455153868685e-10 2.7952363709616174e-10 1.17096941049279e-10 5.5939523680796475e-11 2.1128505202095245e-10 1.071979987384924e-10
          3.3459212032363836e-10 6.226963847714657e-10 3.315038324473585e-10 2.6302190064808683e-10 1.3550595571570055e-10 8.356796518642047e-10
          1.0791549564291352e-9 3.471010229433353e-10 1.1083404805187488e-10 6.573669429216119e-11 1.337967036412488e-9 5.327581951398074e-11
          6.403002413723337e-11 3.156245930963847e-11 6.094107956020911e-11 4.726819357598405e-11 2.3173086378927613e-11 4.5692389776797295e-11
          7.4784228760486e-11 8.953398584140007e-11 6.821169317466697e-11 8.484176846528216e-12 5.7608589466792594e-11 4.4116585977610527e-11
          1.0428374292231414e-10 5.824028578655853e-10 3.6976731892092005e-10 2.113263818396504e-10 4.3164646188475135e-10 8.368898018078603e-11
          8.166557010248755e-11 4.6018080769416067e-11 8.620508583114847e-11 1.907979317528941e-10 2.543451552686671e-10 6.225542822832411e-10
          6.025996936051704e-10 1.6893788522650291e-10 2.4491723842174686e-10 2.8195188983027126e-10 3.1789237878444013e-10 5.826451049270996e-10
          3.189865412387956e-10 8.43543904787229e-10 1.1386833125733352e-9 3.8457038401046276e-10 4.5197218428379994e-10 4.2087473094597284e-10
          4.908182151428699e-10 3.0141311758707046e-10 1.4338227203594419e-9 5.193739845571371e-10 5.607616993397669e-10 5.468771194881561e-10
          6.248623724715958e-10 2.8138617075500615e-10 6.728960599709649e-11 6.456365913155887e-11 4.876608374646755e-11 4.3597523681697406e-11
          5.007653470560431e-11 6.183771226602125e-11 8.045249147115704e-11 5.655554572951122e-11 7.404133395129911e-10 7.061391469230911e-10
          3.54258096878532e-10 3.058798580831007e-10 7.432202920407939e-10 1.0563799492697189e-9 3.274689274229115e-10 7.474200793358175e-10
          2.5433011999263164e-10 1.2211587043783197e-9 1.0437869831551427e-10 1.164156944506034e-10 7.317019313138477e-11 7.443177833434211e-11
          9.660623375161821e-11 1.1329553441600886e-10 8.831955400696677e-11 1.2845269058569252e-10 7.569336353729947e-11 1.299848350803995e-10
          1.1088117406875888e-9 1.0603052264720338e-9 1.2245395809160016e-9 6.113708040517669e-10 5.906647305162143e-10 3.317688635759631e-10
          6.333680456952533e-10 7.685801226299087e-11 7.712230317230602e-11 1.3552504091072588e-10 2.0568299406667158e-10 8.057037243713111e-11
          8.607942593436927e-11 2.0432013084072508e-10 3.773096754780747e-10 1.4492652688402685e-10 7.60883913522279e-11 1.6442276888838612e-10
          1.121398944077717e-10 1.484538942988193e-10 5.696726032652446e-11 1.5814859830958312e-10 4.2405413771042566e-11 4.205040228904077e-11
          2.9314166840600327e-11 3.748269063711811e-11 4.232488918301222e-11 5.3205516095261667e-11 2.7899297761195578e-11 4.6372830467811785e-11
          4.10115563501374e-11 5.736298814931798e-11 4.251675266644542e-10 6.15778380437944e-10 2.2837562302630285e-10 2.876789233430475e-10
          3.596645797103592e-10 4.772519848154145e-10 2.7207244651027273e-10 1.0911968539463158e-11 1.1828776370953796e-11 9.191500209211282e-12
          6.255150011683924e-12 8.265493563435028e-12 1.2745584202444435e-11 1.2883375302939071e-11 1.0275837115186131e-11 7.339486917658773e-12
          1.3021166403433708e-11 5.312255210254739e-10 8.783656132060303e-10 7.157053001954456e-10 2.7754243523061454e-11 3.7500809537579544e-11
          1.9965370834131666e-11 2.2319939795616748e-11 2.2506318886051957e-11 2.9054026605435517e-11 2.0990753924647703e-11 2.5768306208303674e-10
          1.8498158577747496e-10 2.3135955950764193e-10 3.2464967139370223e-10 2.301751720892738e-10 3.709078305463326e-10 4.736381746020756e-10
          2.5740290200856297e-10 3.1116387532183595e-10 2.753641178877378e-10 3.15706858070278e-10 2.3104251910604173e-10 7.088949827786965e-10
          3.741580736350065e-10 3.961002369221839e-10 9.45187079024337e-10 4.308235424532166e-10 4.639236232725627e-10 2.533510845710816e-10
          1.0489527111490995e-9 4.828723987714778e-10 4.916963709535757e-10 1.485671771915265e-10 1.6960978928578208e-10 9.491705220731889e-11
          9.933277542873963e-11 1.053718994382624e-10 1.138857168865208e-10 7.603346631845075e-11 1.9065240138003768e-10 1.0374849865016037e-10
          1.223995343347792e-10 1.182299903130347e-10 1.4766924999024008e-10 9.401227595351753e-11 1.1409957221953853e-10 9.308012281782461e-11
          1.1192113039950326e-10 9.024636799824428e-11 1.552503293257172e-10 3.040026472914228e-11 3.955930285695705e-11 2.2497509124272006e-11
          2.79373887727779e-11 2.462168866721273e-11 3.085293126457772e-11 2.2819630820881785e-11 6.097893745209461e-11 3.5659748544527866e-11
          4.590099362251641e-11 1.231741940719082e-10 1.641706014819087e-10 4.3732590667719955e-11 6.392994870522316e-11 3.3096698844872805e-11
          5.652263587696527e-11 7.123896126807575e-11 6.111610318583332e-11 7.011401971236118e-11 6.212383576602306e-11 7.029125884596322e-11
          5.221714037099268e-11 7.540170325437563e-11 8.560997149375682e-11 1.405674777768883e-10 6.597181793096089e-11 7.48708472995754e-11
          4.5348027784949645e-11 6.956255683728127e-11 7.945429471071529e-11 7.746290568493938e-11 9.59866934120521e-11 5.6264357811451556e-11
          8.137922460775986e-11 9.921212576249397e-11 4.09452486870208e-11 4.2675929021863085e-11 3.179566058206381e-11 3.1517372943929595e-11
          3.217684230287798e-11 3.210041913476646e-11 2.4818756886977412e-11 4.4406609356705385e-11 3.123908530579539e-11 3.202399596665495e-11
          1.84784104835097e-11 2.1786620999918588e-11 1.3882300280909405e-11 1.5311525341731522e-11 1.476565871931365e-11 1.6883994118327598e-11
          1.2650344561249152e-11 2.7752832310924663e-11 1.847857163349629e-11 2.0840389361386622e-11 3.1957614879900185e-11 2.11004315554361e-11
          2.370462345627177e-11 1.6469598103384487e-11 3.350439665427852e-11 2.198447024643325e-11 2.473079770711184e-11 9.967954677884232e-10
          1.1319701561296518e-9 1.0843216349925568e-9 1.0534920486399131e-9 7.133790445213695e-10 6.082835417938214e-10 2.5760102007817805e-9
          7.594123144709627e-10 1.3694645557910697e-9 3.08345289796266e-9 3.5245182302138733e-9 7.597766144562682e-10 2.4878141947254105e-9
          6.256765916088215e-10 5.310185404725265e-10 5.870394219065599e-10 2.524625604435943e-10 3.266421903096441e-10 6.575418204028343e-10
          6.236019178238839e-10 2.558260613481317e-10 5.71378476813101e-10 9.891526429752717e-10 2.495346031137934e-10 6.976098040222975e-10
          4.53246813905952e-11 6.95855264384885e-11 4.176252648083274e-11 3.814632986960215e-11 3.1352685124527504e-11 3.597007062048094e-11
          2.6026588238851847e-11 6.327983951828469e-10 2.238250326009438e-9 1.719927865641947e-9 1.2016054052744555e-9 3.461817979275536e-9
          6.237477764974109e-10 2.4133290111330103e-9 2.4298105324142643e-9 4.5566499430369425e-9 3.814542343412392e-9 1.099268911589866e-9
          6.985723719021347e-9 5.199274154410519e-9 2.601085083657209e-9 6.751612287392368e-10 1.6024512138407847e-9 4.790172613931323e-10
          2.164328558161712e-9 1.8416166827937177e-10 2.1037999342647994e-10 3.1333274901582205e-10 1.8103034736653574e-10 1.4951669261245574e-10
          8.216566510212316e-11 8.13090782866401e-11 6.892554952647288e-11 2.4672607647591432e-9 2.439610022748533e-9 4.01163206258069e-9
          2.9529949754712817e-9 5.523174137954705e-10 3.113727762153302e-10 4.4986959769270934e-10 2.5140900286581795e-10 1.8055809118995948e-10
          1.965792442127994e-10 1.434642374191162e-10 7.98393510885008e-11 1.787499966415815e-10 2.5803855690711473e-10 1.5323345781736955e-10
          3.2582209969374505e-11 2.959006075573048e-11 2.3407808330065134e-11 3.534354583842873e-11 1.40731539256969e-9 2.210727865460965e-9
          1.501409664922644e-9 2.069013721401977e-9 2.4146871889922106e-11 1.0768327334611737e-11 1.1825851318775404e-11 1.0624686129760316e-11
          1.1822926266597013e-11 3.83947991300533e-11 4.020392806474543e-11 2.7601319695113207e-11 5.704867483830262e-11 3.071274008912398e-10
          1.2472124384841247e-9 5.870036042249259e-10 4.0892285828639806e-10 2.9636165735426834e-10 2.649944974515627e-10 8.100292753515797e-10
          1.3464853600818753e-9 1.0466249333120246e-9 6.690268605009807e-10 1.1378300481594524e-9 1.7428931815759205e-10 2.4881172291551946e-10
          1.6874600751678289e-10 3.7610889663332597e-10 1.4335022165609427e-10 2.137163590599291e-10 4.449783830250546e-11 5.761849482431512e-11
          1.1475380714371449e-10 6.014753424910399e-11 7.50811740458979e-11 3.5063684680233677e-11 5.847314685713857e-11 1.84783201022618e-10
          9.666110604393077e-11 1.1621417482111112e-10 3.069523070459785e-10 1.6616184454344658e-10 1.1182157051289565e-10 1.7460885158688844e-10
          4.0097079107950215e-10 2.1587014425400972e-10 2.233187664817226e-10 2.735301690945281e-10 1.4098618959162774e-10 8.637588485399104e-11
          7.001437724336552e-11 1.8657610060292366e-10 9.206582184676681e-11 1.11783558699279e-10 1.4077238390909133e-10 8.257804744952216e-11
          9.640600006071971e-11 1.70239754527467e-10 1.211980474904898e-10 2.105242180370916e-10 4.716444935498896e-10 2.5331166331621953e-10
          2.5761512497401157e-10 4.980652476259251e-10 2.6732223083657136e-10 2.70161197992255e-10 2.2219926294895067e-10 1.0894108030463502e-10
          1.3158241863652697e-10 2.3569372198315044e-10 1.1531197280755114e-10 1.3910995566306067e-10 1.3808125196629402e-10 2.3934067349238044e-10
          1.4400036162352566e-10 2.5018052172415004e-10 2.6149016621799233e-11 3.394124084705491e-11 1.8555253937427996e-11 4.4413789749912813e-11
          5.21166864219816e-11 2.7762183767466366e-11 5.499995974688288e-11
        </DataArray>
        <DataArray type="Float64" Name="gradient_matprop_error" format="ascii" RangeMin="0" RangeMax="0">
          0 0 0 0 0 0
          0 0 0 0 0 0
          0 0 0 0 0 0
          0 0 0 0 0 0
          0 0 0 0 0 0
          0 0 0 0 0 0
          0 0 0 0 0 0
          0 0 0 0 0 0
          0 0 0 0 0 0
          0 0 0 0 0 0
          0 0 0 0 0 0
          0 0 0 0 0 0
          0 0 0 0 0 0
          0 0 0 0 0 0
          0 0 0 0 0 0
          0 0 0 0 0 0
          0 0 0 0 0 0
          0 0 0 0 0 0
          0 0 0 0 0 0
          0 0 0 0 0 0
          0 0 0 0 0 0
          0 0 0 0 0 0
          0 0 0 0 0 0
          0 0 0 0 0 0
          0 0 0 0 0 0
          0 0 0 0 0 0
          0 0 0 0 0 0
          0 0 0 0 0 0
          0 0 0 0 0 0
          0 0 0 0 0 0
          0 0 0 0 0 0
          0 0 0 0 0 0
          0 0 0 0 0 0
          0 0 0 0 0 0
          0 0 0 0 0 0
          0 0 0 0 0 0
          0 0 0 0 0 0
          0 0 0 0 0 0
          0 0 0 0 0 0
          0 0 0 0 0 0
          0 0 0 0 0 0
          0 0 0 0 0 0
          0 0 0 0 0 0
          0 0 0 0 0 0
          0 0 0 0 0 0
          0 0 0 0 0 0
          0 0 0 0 0 0
          0 0 0 0 0 0
          0 0 0 0 0 0
          0 0 0 0 0 0
          0 0 0 0 0 0
          0 0 0 0 0 0
          0 0 0 0 0 0
          0 0 0 0 0 0
          0 0 0 0 0 0
          0 0 0 0 0 0
          0 0 0 0 0 0
          0 0 0 0 0 0
          0 0 0 0 0 0
          0 0 0 0 0 0
          0 0 0 0 0 0
          0 0 0 0 0 0
          0 0 0 0 0 0
          0 0 0 0 0 0
          0 0 0 0 0 0
          0 0 0 0 0 0
          0 0 0 0 0 0
          0 0 0 0 0 0
          0 0 0 0 0 0
          0 0 0 0 0 0
          0 0 0
        </DataArray>
        <DataArray type="Float64" Name="initial_marker" format="ascii" RangeMin="0" RangeMax="2">
          0 0 0 0 0 0
          0 0 0 0 0 0
          0 0 0 0 0 0
          0 0 0 0 0 0
          0 0 0 0 0 0
          0 0 0 0 0 0
          0 0 0 0 0 0
          0 0 0 0 0.5 0
          0 0 0 0 0 0
          0 0 0 0 0 0
          0 0 0 0 0 0
          0 0 0 0 0 0
          0 0 0 0 0 0
          0 0 0 0 0 0
          0 0 0 0 0 0
          0 0 0 0 0 0
          0 0 0 0 0 0
          0 0 0 0 0 0
          0.25 0 0 0 0 0
          0 0 0.5 1.75 0.75 0
          0 2 1 0 0 0
          0 0 0 0 0 0
          0 0 0 0 0 0
          0 0 0 0 0 0
          0 0 0 0 0 0
          0 0 0 0 0 0
          0 0 0 0 0 0
          0 0 0 0 0 0
          0 0 0 0 0 0
          0 0 0 0 0 0
          0 0 0 0 0 0
          0 0 0 0 0 0
          0 0 0.5 0 0.5 0
          0 0 0 0 0.5 0
          0.5 0 0 0 1.25 1
          0.5 0.5 1 1.25 1.5 0.5
          1.75 1.6666666666666667 0 0.5 0 0
          0 1 0 2 2 1.5
          1.3333333333333333 2 1.5 1 0 0
          1 0 0.5 0.5 0 0
          0 0 0 0.5 0 0
          0.5 0.75 0 0.5 0 0
          0 1.25 1 0.5 1.5 1
          1 0 1.5 1 1 0
          0 0 0 0 0 0
          0 0 0 0 0 0
          0 0 0 0 0 0
          0 0 0 0 0 0
          0 0 0 0 0 0
          0 0 0 0 0 0
          0 0 0 0 0 0
          0 0 0 0 0 0
          0 0 0 0 0 0
          0 0 0 0 0 0
          0 0 0 0.5 0.25 0
          0 0.75 0 0 1.75 0.75
          0.25 1.5 0 1.5 0 0
          0 0 0 0 0 0
          0 0 0 0 1.75 0
          0 0 0 0 0 0
          0 0 0 0 0.6666666666666666 1.5
          1.3333333333333333 2 1 1 0.5 0.5
          1.75 1.25 1 1 0.5 2
          2 1.75 2 2 1.6666666666666667 1.75
          2 2 2 2 2 1.75
          2 2 2 2 1.6666666666666667 0.5
          0.75 1.25 1 1.5 2 2
          2 2 2 2 2 2
          2 2 2 2 1 1.5
          1 1.5 1.3333333333333333 1.75 1.3333333333333333 2
          2 2 2
        </DataArray>
        <DataArray type="Float64" Name="markers_norefine" format="ascii" RangeMin="0" RangeMax="0">
          0 0 0 0 0 0
          0 0 0 0 0 0
          0 0 0 0 0 0
          0 0 0 0 0 0
          0 0 0 0 0 0
          0 0 0 0 0 0
          0 0 0 0 0 0
          0 0 0 0 0 0
          0 0 0 0 0 0
          0 0 0 0 0 0
          0 0 0 0 0 0
          0 0 0 0 0 0
          0 0 0 0 0 0
          0 0 0 0 0 0
          0 0 0 0 0 0
          0 0 0 0 0 0
          0 0 0 0 0 0
          0 0 0 0 0 0
          0 0 0 0 0 0
          0 0 0 0 0 0
          0 0 0 0 0 0
          0 0 0 0 0 0
          0 0 0 0 0 0
          0 0 0 0 0 0
          0 0 0 0 0 0
          0 0 0 0 0 0
          0 0 0 0 0 0
          0 0 0 0 0 0
          0 0 0 0 0 0
          0 0 0 0 0 0
          0 0 0 0 0 0
          0 0 0 0 0 0
          0 0 0 0 0 0
          0 0 0 0 0 0
          0 0 0 0 0 0
          0 0 0 0 0 0
          0 0 0 0 0 0
          0 0 0 0 0 0
          0 0 0 0 0 0
          0 0 0 0 0 0
          0 0 0 0 0 0
          0 0 0 0 0 0
          0 0 0 0 0 0
          0 0 0 0 0 0
          0 0 0 0 0 0
          0 0 0 0 0 0
          0 0 0 0 0 0
          0 0 0 0 0 0
          0 0 0 0 0 0
          0 0 0 0 0 0
          0 0 0 0 0 0
          0 0 0 0 0 0
          0 0 0 0 0 0
          0 0 0 0 0 0
          0 0 0 0 0 0
          0 0 0 0 0 0
          0 0 0 0 0 0
          0 0 0 0 0 0
          0 0 0 0 0 0
          0 0 0 0 0 0
          0 0 0 0 0 0
          0 0 0 0 0 0
          0 0 0 0 0 0
          0 0 0 0 0 0
          0 0 0 0 0 0
          0 0 0 0 0 0
          0 0 0 0 0 0
          0 0 0 0 0 0
          0 0 0 0 0 0
          0 0 0 0 0 0
          0 0 0
        </DataArray>
        <DataArray type="Float64" Name="markers_mustrefine" format="ascii" RangeMin="0" RangeMax="2">
          0 0 0 0 0 0
          0 0 0 0 0 0
          0 0 0 0 0 0
          0 0 0 0 0 0
          0 0 0 0 0 0
          0 0 0 0 0 0
          0 0 0 0 0 0
          0 0 0 0 0.5 0
          0 0 0 0 0 0
          0 0 0 0 0 0
          0 0 0 0 0 0
          0 0 0 0 0 0
          0 0 0 0 0 0
          0 0 0 0 0 0
          0 0 0 0 0 0
          0 0 0 0 0 0
          0 0 0 0 0 0
          0 0 0 0 0 0
          0.25 0 0 0 0 0
          0 0 0.5 1.75 0.75 0
          0 2 1 0 0 0
          0 0 0 0 0 0
          0 0 0 0 0 0
          0 0 0 0 0 0
          0 0 0 0 0 0
          0 0 0 0 0 0
          0 0 0 0 0 0
          0 0 0 0 0 0
          0 0 0 0 0 0
          0 0 0 0 0 0
          0 0 0 0 0 0
          0 0 0 0 0 0
          0 0 0.5 0 0.5 0
          0 0 0 0 0.5 0
          0.5 0 0 0 1.25 1
          0.5 0.5 1 1.25 1.5 0.5
          1.75 1.6666666666666667 0 0.5 0 0
          0 1 0 2 2 1.5
          1.3333333333333333 2 1.5 1 0 0
          1 0 0.5 0.5 0 0
          0 0 0 0.5 0 0
          0.5 0.75 0 0.5 0 0
          0 1.25 1 0.5 1.5 1
          1 0 1.5 1 1 0
          0 0 0 0 0 0
          0 0 0 0 0 0
          0 0 0 0 0 0
          0 0 0 0 0 0
          0 0 0 0 0 0
          0 0 0 0 0 0
          0 0 0 0 0 0
          0 0 0 0 0 0
          0 0 0 0 0 0
          0 0 0 0 0 0
          0 0 0 0.5 0.25 0
          0 0.75 0 0 1.75 0.75
          0.25 1.5 0 1.5 0 0
          0 0 0 0 0 0
          0 0 0 0 1.75 0
          0 0 0 0 0 0
          0 0 0 0 0.6666666666666666 1.5
          1.3333333333333333 2 1 1 0.5 0.5
          1.75 1.25 1 1 0.5 2
          2 1.75 2 2 1.6666666666666667 1.75
          2 2 2 2 2 1.75
          2 2 2 2 1.6666666666666667 0.5
          0.75 1.25 1 1.5 2 2
          2 2 2 2 2 2
          2 2 2 2 1 1.5
          1 1.5 1.3333333333333333 1.75 1.3333333333333333 2
          2 2 2
        </DataArray>
        <DataArray type="Float64" Name="gradient_marker" format="ascii" RangeMin="1" RangeMax="1">
          1 1 1 1 1 1
          1 1 1 1 1 1
          1 1 1 1 1 1
          1 1 1 1 1 1
          1 1 1 1 1 1
          1 1 1 1 1 1
          1 1 1 1 1 1
          1 1 1 1 1 1
          1 1 1 1 1 1
          1 1 1 1 1 1
          1 1 1 1 1 1
          1 1 1 1 1 1
          1 1 1 1 1 1
          1 1 1 1 1 1
          1 1 1 1 1 1
          1 1 1 1 1 1
          1 1 1 1 1 1
          1 1 1 1 1 1
          1 1 1 1 1 1
          1 1 1 1 1 1
          1 1 1 1 1 1
          1 1 1 1 1 1
          1 1 1 1 1 1
          1 1 1 1 1 1
          1 1 1 1 1 1
          1 1 1 1 1 1
          1 1 1 1 1 1
          1 1 1 1 1 1
          1 1 1 1 1 1
          1 1 1 1 1 1
          1 1 1 1 1 1
          1 1 1 1 1 1
          1 1 1 1 1 1
          1 1 1 1 1 1
          1 1 1 1 1 1
          1 1 1 1 1 1
          1 1 1 1 1 1
          1 1 1 1 1 1
          1 1 1 1 1 1
          1 1 1 1 1 1
          1 1 1 1 1 1
          1 1 1 1 1 1
          1 1 1 1 1 1
          1 1 1 1 1 1
          1 1 1 1 1 1
          1 1 1 1 1 1
          1 1 1 1 1 1
          1 1 1 1 1 1
          1 1 1 1 1 1
          1 1 1 1 1 1
          1 1 1 1 1 1
          1 1 1 1 1 1
          1 1 1 1 1 1
          1 1 1 1 1 1
          1 1 1 1 1 1
          1 1 1 1 1 1
          1 1 1 1 1 1
          1 1 1 1 1 1
          1 1 1 1 1 1
          1 1 1 1 1 1
          1 1 1 1 1 1
          1 1 1 1 1 1
          1 1 1 1 1 1
          1 1 1 1 1 1
          1 1 1 1 1 1
          1 1 1 1 1 1
          1 1 1 1 1 1
          1 1 1 1 1 1
          1 1 1 1 1 1
          1 1 1 1 1 1
          1 1 1
        </DataArray>
        <DataArray type="Float64" Name="gradient_matprop_marker" format="ascii" RangeMin="0" RangeMax="0">
          0 0 0 0 0 0
          0 0 0 0 0 0
          0 0 0 0 0 0
          0 0 0 0 0 0
          0 0 0 0 0 0
          0 0 0 0 0 0
          0 0 0 0 0 0
          0 0 0 0 0 0
          0 0 0 0 0 0
          0 0 0 0 0 0
          0 0 0 0 0 0
          0 0 0 0 0 0
          0 0 0 0 0 0
          0 0 0 0 0 0
          0 0 0 0 0 0
          0 0 0 0 0 0
          0 0 0 0 0 0
          0 0 0 0 0 0
          0 0 0 0 0 0
          0 0 0 0 0 0
          0 0 0 0 0 0
          0 0 0 0 0 0
          0 0 0 0 0 0
          0 0 0 0 0 0
          0 0 0 0 0 0
          0 0 0 0 0 0
          0 0 0 0 0 0
          0 0 0 0 0 0
          0 0 0 0 0 0
          0 0 0 0 0 0
          0 0 0 0 0 0
          0 0 0 0 0 0
          0 0 0 0 0 0
          0 0 0 0 0 0
          0 0 0 0 0 0
          0 0 0 0 0 0
          0 0 0 0 0 0
          0 0 0 0 0 0
          0 0 0 0 0 0
          0 0 0 0 0 0
          0 0 0 0 0 0
          0 0 0 0 0 0
          0 0 0 0 0 0
          0 0 0 0 0 0
          0 0 0 0 0 0
          0 0 0 0 0 0
          0 0 0 0 0 0
          0 0 0 0 0 0
          0 0 0 0 0 0
          0 0 0 0 0 0
          0 0 0 0 0 0
          0 0 0 0 0 0
          0 0 0 0 0 0
          0 0 0 0 0 0
          0 0 0 0 0 0
          0 0 0 0 0 0
          0 0 0 0 0 0
          0 0 0 0 0 0
          0 0 0 0 0 0
          0 0 0 0 0 0
          0 0 0 0 0 0
          0 0 0 0 0 0
          0 0 0 0 0 0
          0 0 0 0 0 0
          0 0 0 0 0 0
          0 0 0 0 0 0
          0 0 0 0 0 0
          0 0 0 0 0 0
          0 0 0 0 0 0
          0 0 0 0 0 0
          0 0 0
        </DataArray>
        <DataArray type="Float64" Name="combo" format="ascii" RangeMin="1" RangeMax="1">
          1 1 1 1 1 1
          1 1 1 1 1 1
          1 1 1 1 1 1
          1 1 1 1 1 1
          1 1 1 1 1 1
          1 1 1 1 1 1
          1 1 1 1 1 1
          1 1 1 1 1 1
          1 1 1 1 1 1
          1 1 1 1 1 1
          1 1 1 1 1 1
          1 1 1 1 1 1
          1 1 1 1 1 1
          1 1 1 1 1 1
          1 1 1 1 1 1
          1 1 1 1 1 1
          1 1 1 1 1 1
          1 1 1 1 1 1
          1 1 1 1 1 1
          1 1 1 1 1 1
          1 1 1 1 1 1
          1 1 1 1 1 1
          1 1 1 1 1 1
          1 1 1 1 1 1
          1 1 1 1 1 1
          1 1 1 1 1 1
          1 1 1 1 1 1
          1 1 1 1 1 1
          1 1 1 1 1 1
          1 1 1 1 1 1
          1 1 1 1 1 1
          1 1 1 1 1 1
          1 1 1 1 1 1
          1 1 1 1 1 1
          1 1 1 1 1 1
          1 1 1 1 1 1
          1 1 1 1 1 1
          1 1 1 1 1 1
          1 1 1 1 1 1
          1 1 1 1 1 1
          1 1 1 1 1 1
          1 1 1 1 1 1
          1 1 1 1 1 1
          1 1 1 1 1 1
          1 1 1 1 1 1
          1 1 1 1 1 1
          1 1 1 1 1 1
          1 1 1 1 1 1
          1 1 1 1 1 1
          1 1 1 1 1 1
          1 1 1 1 1 1
          1 1 1 1 1 1
          1 1 1 1 1 1
          1 1 1 1 1 1
          1 1 1 1 1 1
          1 1 1 1 1 1
          1 1 1 1 1 1
          1 1 1 1 1 1
          1 1 1 1 1 1
          1 1 1 1 1 1
          1 1 1 1 1 1
          1 1 1 1 1 1
          1 1 1 1 1 1
          1 1 1 1 1 1
          1 1 1 1 1 1
          1 1 1 1 1 1
          1 1 1 1 1 1
          1 1 1 1 1 1
          1 1 1 1 1 1
          1 1 1 1 1 1
          1 1 1
        </DataArray>
        <DataArray type="Float64" Name="dHdT" format="ascii" RangeMin="25.812502316892044" RangeMax="25.919184393222437">
          25.812892366292346 25.812861777281103 25.81322592880516 25.8133702041074 25.813581957511573 25.812882323302972
          25.812879930871784 25.812912596121542 25.81292812596003 25.81284272661138 25.812882157161006 25.81288147514884
          25.812877538440592 25.81293230051259 25.81288079313667 25.812934418954203 25.812981571532752 25.812920223686298
          25.812987062584583 25.814671579876826 25.816332442057668 25.813469907338092 25.8134294505706 25.814773463825713
          25.815767909441792 25.813707194560507 25.8175370039989 25.813381369780757 25.81673210335844 25.813030187517207
          25.813062622439173 25.812999657394982 25.813057905298937 25.812985493148496 25.812954332590724 25.812986518640017
          25.81309505736114 25.813111269128775 25.813018704689306 25.812964265356356 25.813052764867674 25.812987544131538
          25.813127480896412 25.82423306289819 25.83426664511228 25.81774044718057 25.848835442267372 25.814090817993076
          25.814124254528366 25.81344053670449 25.81418315598203 25.8130031986547 25.813035468201633 25.81368623801348
          25.813689235651697 25.812964421751687 25.813188067431312 25.813237019066957 25.81306773774857 25.813692233289913
          25.8132859707026 25.81423780642078 25.814604994209787 25.813540388381487 25.813636320912828 25.813462979202257
          25.813554245067934 25.813281862966164 25.814972181998797 25.813732253444172 25.813645510933615 25.818466440757582
          25.81977800159013 25.815892714560192 25.81380072805353 25.813790477246727 25.813451405330028 25.813409767506606
          25.813453276451927 25.813780226439917 25.813903904200515 25.81349678539724 25.821420378053674 25.824082579476446
          25.816708437339937 25.816686242846313 25.8209715205566 25.823654282515392 25.816753044657887 25.82643552446485
          25.816738001041468 25.825064511440033 25.814281277468606 25.814348912187427 25.81372726643751 25.813737148895054
          25.814300304648363 25.814421129029157 25.813851723913118 25.81441654690625 25.813747031352598 25.81454195340995
          25.884777777988955 25.86933265598968 25.89173420308176 25.84061628025948 25.847574126749578 25.83054807759021
          25.86597414096533 25.81705309464346 25.81746111552088 25.820326621688572 25.822378065532106 25.817250453724583
          25.819093033891935 25.823867455567342 25.84443789191603 25.839844823476945 25.82117739317179 25.82484148739769
          25.81873056377944 25.84588224501779 25.82196963448008 25.826170678348877 25.8153672736775 25.8156764189821