<?xml version="1.0"?>
<VTKFile type="UnstructuredGrid" version="0.1" byte_order="LittleEndian" header_type="UInt32" compressor="vtkZLibDataCompressor">
  <UnstructuredGrid>
    <Piece NumberOfPoints="830" NumberOfCells="533">
      <PointData>
        <DataArray type="Int32" Name="libmesh_node_id" format="ascii" RangeMin="620" RangeMax="8398">
          620 1067 1072 2010 2014 2025
          2026 2027 2028 2029 2030 2031
          2032 2033 2034 2048 2051 2053
          3478 3487 3488 3489 3511 3513
          3515 3517 3518 3519 3520 3521
          3522 3523 3594 3595 3597 3600
          3602 3603 3604 3605 3606 3607
          3608 3609 3610 3611 3613 3615
          3617 3619 3620 3621 3622 3623
          3624 3625 3628 3629 3631 3634
          3636 3637 3638 3639 3640 3641
          3642 3643 3644 3645 3647 3649
          3651 3653 3654 3655 3656 3657
          3658 3659 3692 3695 3697 3699
          3701 3702 3703 3704 3705 3706
          3707 3708 3709 3710 3818 3822
          4007 4008 4009 4010 4011 4012
          4013 4072 4073 4074 4075 4076
          4077 4078 4103 4104 4105 4106
          4107 4108 4109 4110 4111 4112
          4113 4114 4115 4116 4117 4118
          4119 6639 6666 6822 6823 6826
          6834 6835 6836 6837 6838 6839
          6840 6841 6842 6843 6851 6852
          6853 6854 6855 6856 6857 6865
          6866 6867 6868 6869 6870 6871
          6874 6875 6878 6885 6886 6887
          6888 6889 6890 6891 6892 6893
          6894 6895 6896 6897 6898 6899
          6900 6901 6902 6903 6904 6905
          6906 6907 6908 6909 6910 6911
          6912 6913 6914 6915 6916 6917
          6918 6919 6920 6921 6922 6923
          6924 6925 6926 7287 7297 7299
          7301 7315 7316 7318 7321 7331
          7333 7335 7343 7344 7345 7346
          7353 7354 7355 7356 7357 7358
          7359 7360 7361 7362 7363 7364
          7365 7366 7367 7368 7369 7370
          7371 7372 7373 7374 7375 7376
          7377 7378 7379 7380 7381 7382
          7383 7384 7385 7386 7387 7388
          7389 7390 7391 7392 7393 7394
          7395 7396 7397 7398 7399 7400
          7401 7402 7403 7404 7413 7414
          7415 7417 7418 7426 7427 7428
          7429 7430 7431 7432 7441 7442
          7443 7445 7446 7454 7455 7456
          7457 7458 7459 7460 7461 7462
          7463 7464 7465 7466 7467 7468
          7469 7470 7471 7472 7473 7474
          7475 7476 7477 7478 7479 7480
          7481 7482 7483 7484 7485 7486
          7487 7488 7489 7490 7491 7492
          7493 7494 7495 7496 7497 7498
          7499 7500 7501 7502 7503 7504
          7505 7506 7507 7508 7509 7510
          7511 7512 7513 7514 7515 7516
          7529 7530 7532 7535 7545 7547
          7549 7563 7564 7566 7569 7579
          7581 7583 7585 7586 7587 7588
          7589 7590 7591 7592 7593 7594
          7595 7596 7597 7598 7599 7600
          7601 7602 7603 7604 7605 7606
          7607 7608 7609 7610 7611 7612
          7613 7614 7615 7616 7617 7618
          7619 7620 7621 7622 7623 7624
          7625 7626 7627 7628 7629 7630
          7631 7632 7633 7634 7635 7636
          7637 7638 7639 7640 7641 7642
          7643 7644 7645 7646 7647 7648
          7649 7650 7651 7652 7661 7662
          7663 7665 7666 7674 7675 7676
          7677 7678 7679 7680 7689 7690
          7691 7693 7694 7702 7703 7704
          7705 7706 7707 7708 7709 7710
          7711 7712 7713 7714 7715 7716
          7717 7718 7719 7720 7721 7722
          7723 7724 7725 7726 7727 7728
          7729 7730 7731 7732 7733 7734
          7735 7736 7737 7738 7739 7740
          7741 7742 7743 7744 7745 7746
          7747 7748 7749 7750 7751 7752
          7753 7754 7755 7756 7757 7758
          7759 7760 7761 7762 7763 7764
          7819 7820 7821 7822 7823 7824
          7825 7826 7827 7828 7836 7837
          7838 7839 7840 7841 7842 7850
          7851 7852 7853 7854 7855 7856
          7857 7858 7859 7860 7861 7862
          7863 7864 7865 7866 8020 8022
          8024 8026 8153 8155 8157 8159
          8167 8168 8169 8170 8171 8172
          8173 8174 8175 8176 8177 8179
          8181 8183 8191 8192 8193 8194
          8195 8196 8197 8347 8349 8351
          8353 8361 8362 8363 8364 8365
          8366 8367 8368 8370 8372 8374
          8382 8383 8384 8385 8386 8387
          8388 8389 8390 8391 8392 8393
          8394 8395 8396 8397 8398 2045
          2047 1069 2049 2046 2050 2052
          773 2054 2516 2518 2521 2520
          2063 2537 2068 2543 2545 2556
          2558 2560 2562 3516 3686 3684
          3614 3687 3685 3690 3689 3691
          3693 3694 3696 3698 3700 3750
          3754 3756 3758 3783 3784 2073
          3785 3816 3817 3819 3479 2009
          4066 4065 3512 4069 4068 4071
          3781 3782 2078 3477 6648 6816
          6828 6830 3510 6832 6845 6847
          6849 3514 6859 6861 6863 7296
          7298 7300 7302 7285 7286 7313
          7314 7288 7317 7319 7320 7322
          7330 7332 7334 7336 7406 7412
          7408 7416 7410 3612 7420 7422
          7424 7440 7434 7436 7444 7438
          3616 7448 7450 7452 3618 7527
          7528 7531 7533 7534 7536 7544
          7546 7548 7550 7561 7562 7565
          7567 7568 7570 7578 7580 7582
          7584 7660 7654 7656 7664 7658
          3646 7668 7670 7672 3648 7688
          7682 7684 7692 7686 3650 7696
          7698 7700 3652 7811 7812 7815
          7817 7830 7832 7834 7844 7846
          7848 8021 8023 8025 8057 8059
          8061 8063 8043 8044 8071 8072
          8046 8075 8077 8078 8080 8091
          8093 8095 8097 8154 8156 8060
          3763 8158 3779 8094 8178 8180
          3768 8182 8208 8209 8212 8214
          8215 8217 8228 8230 8232 8234
          8242 8243 8246 8248 8249 8251
          8262 8264 8266 8268 8231 8348
          8350 3800 8352 8265 8369 8371
          3805 8373 3820 8360 8377 8378
          8381 3821
        </DataArray>
        <DataArray type="Float64" Name="bounds" format="ascii" RangeMin="0" RangeMax="0">
          0 0 0 0 0 0
          0 0 0 0 0 0
          0 0 0 0 0 0
          0 0 0 0 0 0
          0 0 0 0 0 0
          0 0 0 0 0 0
          0 0 0 0 0 0
          0 0 0 0 0 0
          0 0 0 0 0 0
          0 0 0 0 0 0
          0 0 0 0 0 0
          0 0 0 0 0 0
          0 0 0 0 0 0
          0 0 0 0 0 0
          0 0 0 0 0 0
          0 0 0 0 0 0
          0 0 0 0 0 0
          0 0 0 0 0 0
          0 0 0 0 0 0
          0 0 0 0 0 0
          0 0 0 0 0 0
          0 0 0 0 0 0
          0 0 0 0 0 0
          0 0 0 0 0 0
          0 0 0 0 0 0
          0 0 0 0 0 0
          0 0 0 0 0 0
          0 0 0 0 0 0
          0 0 0 0 0 0
          0 0 0 0 0 0
          0 0 0 0 0 0
          0 0 0 0 0 0
          0 0 0 0 0 0
          0 0 0 0 0 0
          0 0 0 0 0 0
          0 0 0 0 0 0
          0 0 0 0 0 0
          0 0 0 0 0 0
          0 0 0 0 0 0
          0 0 0 0 0 0
          0 0 0 0 0 0
          0 0 0 0 0 0
          0 0 0 0 0 0
          0 0 0 0 0 0
          0 0 0 0 0 0
          0 0 0 0 0 0
          0 0 0 0 0 0
          0 0 0 0 0 0
          0 0 0 0 0 0
          0 0 0 0 0 0
          0 0 0 0 0 0
          0 0 0 0 0 0
          0 0 0 0 0 0
          0 0 0 0 0 0
          0 0 0 0 0 0
          0 0 0 0 0 0
          0 0 0 0 0 0
          0 0 0 0 0 0
          0 0 0 0 0 0
          0 0 0 0 0 0
          0 0 0 0 0 0
          0 0 0 0 0 0
          0 0 0 0 0 0
          0 0 0 0 0 0
          0 0 0 0 0 0
          0 0 0 0 0 0
          0 0 0 0 0 0
          0 0 0 0 0 0
          0 0 0 0 0 0
          0 0 0 0 0 0
          0 0 0 0 0 0
          0 0 0 0 0 0
          0 0 0 0 0 0
          0 0 0 0 0 0
          0 0 0 0 0 0
          0 0 0 0 0 0
          0 0 0 0 0 0
          0 0 0 0 0 0
          0 0 0 0 0 0
          0 0 0 0 0 0
          0 0 0 0 0 0
          0 0 0 0 0 0
          0 0 0 0 0 0
          0 0 0 0 0 0
          0 0 0 0 0 0
          0 0 0 0 0 0
          0 0 0 0 0 0
          0 0 0 0 0 0
          0 0 0 0 0 0
          0 0 0 0 0 0
          0 0 0 0 0 0
          0 0 0 0 0 0
          0 0 0 0 0 0
          0 0 0 0 0 0
          0 0 0 0 0 0
          0 0 0 0 0 0
          0 0 0 0 0 0
          0 0 0 0 0 0
          0 0 0 0 0 0
          0 0 0 0 0 0
          0 0 0 0 0 0
          0 0 0 0 0 0
          0 0 0 0 0 0
          0 0 0 0 0 0
          0 0 0 0 0 0
          0 0 0 0 0 0
          0 0 0 0 0 0
          0 0 0 0 0 0
          0 0 0 0 0 0
          0 0 0 0 0 0
          0 0 0 0 0 0
          0 0 0 0 0 0
          0 0 0 0 0 0
          0 0 0 0 0 0
          0 0 0 0 0 0
          0 0 0 0 0 0
          0 0 0 0 0 0
          0 0 0 0 0 0
          0 0 0 0 0 0
          0 0 0 0 0 0
          0 0 0 0 0 0
          0 0 0 0 0 0
          0 0 0 0 0 0
          0 0 0 0 0 0
          0 0 0 0 0 0
          0 0 0 0 0 0
          0 0 0 0 0 0
          0 0 0 0 0 0
          0 0 0 0 0 0
          0 0 0 0 0 0
          0 0 0 0 0 0
          0 0 0 0 0 0
          0 0 0 0 0 0
          0 0 0 0 0 0
          0 0 0 0 0 0
          0 0 0 0 0 0
          0 0 0 0 0 0
          0 0 0 0 0 0
          0 0
        </DataArray>
        <DataArray type="Float64" Name="gradient_error" format="ascii" RangeMin="7.98047178009791e-13" RangeMax="5.216811192896437e-8">
          6.6826826463269756e-9 6.945593618464279e-12 2.022719571292619e-11 6.1945559755356494e-12 4.259634101611561e-11 2.8567926165441798e-8
          7.01592009993629e-9 4.197048869837731e-9 6.852091174271271e-10 7.487972016297915e-11 1.4498787188944624e-11 3.881814308044633e-8
          1.1382147757682472e-8 1.1428526154928754e-9 9.273622832977507e-11 1.1344628454599025e-11 1.9887297021492248e-11 1.3690216289069154e-11
          2.288356417435049e-11 9.689566263318854e-12 6.054522761905554e-12 8.389480579264994e-12 5.997978829716659e-11 1.9551970311601518e-11
          1.7192324948024234e-10 2.1728185139572574e-11 9.884893684019879e-12 8.430426968594467e-12 8.162311788480695e-12 5.818941502737591e-11
          1.8292734927850804e-11 1.4369923983831643e-11 1.7880686851156627e-8 1.4417974555607957e-8 3.764607879051967e-9 2.4860520495502948e-8
          7.61539905768434e-9 5.518187866409238e-9 2.292029629922814e-9 1.562178325340599e-9 1.304438006624613e-9 3.615386289698209e-10
          1.3074967319314966e-8 1.0104103082507926e-8 2.9542350807827717e-9 2.469803983574949e-9 3.9484701564569716e-10 5.725688256898478e-11
          7.212869009154711e-10 1.3347688983115014e-10 3.8803079380299425e-11 2.6921292428122592e-11 9.087287143103972e-12 2.428481249531142e-10
          7.008308117528342e-11 4.3087650729678647e-11 3.6716740886057986e-8 3.420162573447557e-8 1.0101964842057344e-8 3.788383250723205e-8
          1.7421264363457436e-8 1.4259803631122591e-8 5.960036351495749e-9 4.305485543492143e-9 3.613086593929493e-9 1.0057363863419008e-9
          1.9070919999325378e-8 1.5936799059160544e-8 4.876187475655918e-9 4.09902576655233e-9 1.039100503984374e-9 9.119267624147912e-11
          1.174130560432762e-9 3.4865592531277013e-10 1.0021381141954352e-10 4.46984109148568e-11 1.8756800829380353e-11 3.934997694110579e-10
          1.130492532241306e-10 3.7983285806602004e-11 3.236563703368235e-11 2.916549653901291e-11 2.2500610854212338e-11 1.836401958732622e-11
          3.026947611606658e-11 2.562794578047678e-11 1.1303394548001655e-11 1.3783101177719331e-11 4.45772061582348e-12 6.192096195721923e-12
          2.786269760168266e-12 1.5315897392539004e-11 1.459951248645219e-11 7.65791674110507e-12 8.815462594986018e-12 6.133753941003703e-12
          1.2074555767861455e-11 2.031847281328051e-11 5.142164377649225e-12 7.632472462446723e-12 3.661371674861249e-12 4.149012059453342e-12
          2.423053486000178e-12 3.2034953755778398e-12 5.879804863527398e-12 1.650580601635013e-12 2.913691169414729e-12 1.8478086219156313e-12
          2.5308467170198142e-12 1.7173393256850918e-12 1.7063605426414997e-12 2.2835455074067155e-12 7.98047178009791e-13 9.32567708636602e-13
          1.0221820021115457e-12 1.233326150728868e-12 9.29580959682758e-13 3.354809731261453e-12 1.2248901543985706e-12 1.512867540208567e-12
          4.386003017151425e-12 1.8112610774037722e-12 1.4308089446533172e-12 1.1175034731731504e-12 4.923117043951875e-12 2.2398300852738165e-12
          1.280353108235691e-12 3.364032773632123e-11 1.1868684397253447e-11 5.391502848306798e-11 3.247938228196114e-11 9.880580749799121e-11
          1.3154091849704454e-11 1.8731476112540616e-11 7.770260576620045e-12 1.1024534331865265e-11 7.908649657798214e-12 1.016549543530031e-11
          6.043613214085436e-12 3.3035681286794573e-11 1.9576806941307e-11 1.647929270807632e-11 5.171894882697887e-10 3.2096547330678686e-10
          1.7115406609873913e-10 1.0439320869140046e-10 8.712296902703325e-10 5.420442366905737e-10 2.810771811669703e-10 5.504647073134335e-11
          3.291274980551169e-11 2.6362245528616107e-11 1.5568393910226567e-11 8.777347373183062e-11 5.2732931166463494e-11 4.099367981912361e-11
          1.9029660656229756e-11 1.3226770536930147e-11 3.5350790631029707e-11 1.3475519358297554e-11 4.5370860659011564e-12 6.357093197345051e-12
          3.393245789837715e-12 4.6149367695761604e-12 2.921946273558109e-12 3.760826853370589e-12 2.9990469784739834e-12 1.1357274276798227e-11
          7.441434391672214e-12 5.93830932410022e-12 1.9134429908438973e-10 1.0935473248952038e-10 6.177323795123802e-11 3.525113177299028e-11
          3.2321602613166096e-10 1.8449695604450421e-10 1.0180778884431003e-10 5.987528802321275e-11 3.136472777823212e-11 1.9309646477975084e-11
          1.2547481063660627e-11 1.0086402935909122e-10 5.277348690239969e-11 3.202293396017345e-11 1.9297871976234988e-11 1.1010737093475282e-11
          9.226787052157659e-12 5.557766187179773e-12 3.098258327074497e-11 1.771712219869215e-11 1.4210882922317647e-11 4.598788172216645e-12
          6.089081125163752e-12 3.3340202403088276e-12 4.292918638772539e-12 2.917575915900516e-12 3.4915843265127474e-12 2.7702916773460798e-12
          9.794458283640837e-12 6.030757788564299e-12 4.916352171248692e-12 1.7477894667853773e-8 5.80554757431816e-9 2.498451660310657e-9
          8.657158065469734e-9 2.3100277106973386e-8 2.2939309925800454e-8 1.950759636931518e-8 2.8680532425857e-8 1.2032918743563963e-8
          5.310026385118858e-9 1.5629458484005867e-8 1.221403551130486e-8 1.1695367575052697e-8 7.172696113155202e-9 9.27819378359997e-9
          4.351107538499939e-9 4.046917999543982e-9 2.1115672815128383e-9 3.0428619644718484e-9 3.5704037916254245e-9 2.0572628506605e-9
          1.5073217705614953e-9 8.604519356223981e-10 5.379757460089028e-9 3.1209555961410794e-9 2.2808430238676575e-9 1.1128474509214035e-9
          5.66641565301564e-10 4.653155609928909e-10 2.387703255127435e-10 1.694165496674016e-9 8.63472026334167e-10 7.054701938566858e-10
          1.608502598339732e-8 1.565957327818686e-8 1.0333834831071237e-8 9.844269497785787e-9 1.2787083766829656e-8 7.724598975949242e-9
          1.9814325475638748e-8 1.959952997284464e-8 1.2609812257893302e-8 1.6459524267450402e-8 6.014062722680895e-9 5.6400451360475714e-9
          3.2058113712862533e-9 2.971385526579133e-9 4.301378255950649e-9 2.220592152895872e-9 7.773417648961896e-9 7.350496803916492e-9
          3.913499280919392e-9 5.686457223593907e-9 7.567106982180007e-9 4.425099913427267e-9 3.2329579642438026e-9 1.8539791240855717e-9
          9.949765545468678e-9 5.86904747022073e-9 4.293068739641291e-9 2.4134664479048574e-9 1.2323940734291968e-9 1.0033621530858798e-9
          5.138321572933889e-10 3.218106937119913e-9 1.6474157130067658e-9 1.3382914673264508e-9 8.6269596320403e-10 4.372831002781301e-10
          2.679729509873462e-10 1.292484082686782e-9 6.43769647437382e-10 1.3373648095136765e-10 8.057532063108887e-11 6.186992947134948e-11
          3.6829213162717614e-11 1.9386804123367782e-10 1.1694882917067932e-10 6.853784214250582e-11 1.8209404690383131e-9 8.956976917851293e-10
          5.494137036555547e-10 2.4105778379249145e-9 1.1756981558315048e-9 2.6623660017734525e-10 1.606799306374579e-10 7.725098857561085e-11
          5.638171117119873e-11 3.455963057437591e-10 2.0850741327045586e-10 9.975051212274412e-11 5.147261524270114e-10 2.9356202801835713e-10
          1.5875103495752394e-10 9.071243734665496e-11 7.716391491308122e-10 4.397930308434386e-10 2.3385333226546957e-10 1.6008695714037083e-10
          8.351920426929637e-11 4.9936530779854415e-11 2.6410263040546868e-11 2.393920737776152e-10 1.2459337687932126e-10 7.335456819607095e-11
          4.733631362995656e-11 2.700727583490574e-11 2.1446405448547925e-11 1.2196047841584211e-11 6.860339508349556e-11 3.903487721202003e-11
          3.091936794101155e-11 1.4968740087191526e-11 8.032229863944712e-12 6.923898050292241e-12 3.998257066875475e-12 2.1576879487945613e-11
          1.1568505349456882e-11 9.623907417968151e-12 1.0880826811476525e-9 6.19879544074934e-10 3.25189350494968e-10 1.85386462566732e-10
          1.4421648667887135e-9 8.214022972688492e-10 4.2646779739716365e-10 3.3702728887148767e-10 1.7509779450327876e-10 1.017162508448758e-10
          5.3691939906718874e-11 4.461774589985723e-10 2.3145277503974486e-10 1.3302819420229863e-10 9.403561931877944e-11 5.3340903156052907e-11
          4.210897513242e-11 2.3415760613750944e-11 1.2190547310858833e-10 6.902386023211536e-11 5.428463180477621e-11 2.94051133380809e-11
          1.572530755474695e-11 1.2911929880290625e-11 7.161532654497256e-12 3.7986750139584235e-11 2.0280317922940545e-11 1.6564481141912e-11
          3.343099406220141e-8 3.401638414819898e-8 2.998532145695943e-8 3.799807786895835e-8 1.9069876574255878e-8 8.689496063916283e-9
          2.19682273064366e-8 3.836170950466596e-8 4.029326271792346e-8 3.694325838498146e-8 4.101764699239168e-8 2.3916905570346612e-8
          1.1048098397726496e-8 2.4601071884379304e-8 2.3204482447620456e-8 2.3207257777990947e-8 1.551289575423171e-8 1.5139111548723683e-8
          1.9899499145051125e-8 1.2379086185990453e-8 2.612047818864125e-8 2.622391734952027e-8 1.7160291660139038e-8 2.271962500171031e-8
          9.434132480158845e-9 8.987584974652987e-9 5.156321468364772e-9 4.8339386315542925e-9 7.042973265167765e-9 3.682297630289512e-9
          1.0795496676801294e-8 1.0346811852839195e-8 5.611470267758774e-9 8.191204998615493e-9 1.2255241528861371e-8 7.291635158054113e-9
          5.345397061372347e-9 3.084392237376176e-9 1.4182494327101401e-8 8.49880459853559e-9 6.2467851297569124e-9 4.018885196963507e-9
          2.063121158657228e-9 1.6739298374248895e-9 8.571513627269619e-10 4.705215750256019e-9 2.4217149243394233e-9 1.963619342974533e-9
          2.81433676724505e-8 2.82920418566723e-8 1.8646035954077148e-8 1.8471165444742716e-8 2.4606753580216746e-8 1.550203552538253e-8
          2.8849628699307798e-8 2.9033590235793672e-8 1.8926927274601373e-8 2.5284486575425387e-8 1.1684302583318188e-8 1.1245434446538432e-8
          6.495023770843954e-9 6.132250774013989e-9 8.962609010002364e-9 4.727026420733971e-9 1.1991987766459125e-8 1.1559320143726801e-8
          6.3155371897831025e-9 9.234812866342932e-9 1.5462485445153145e-8 9.309337733471563e-9 6.856230516547001e-9 3.971915004461896e-9
          1.59104463237996e-8 9.59521807135122e-9 7.071631908550133e-9 5.169748488042806e-9 2.6656521390088703e-9 2.1606832599677227e-9
          1.1069231082074954e-9 5.334191656176443e-9 2.7522366041002985e-9 2.2306113931020532e-9 2.9985859086355146e-9 1.4541081934017394e-9
          8.922890932218722e-10 3.505590887089367e-9 1.6936039476413928e-9 4.2373734932942185e-10 2.5542138267971713e-10 1.209812906912558e-10
          8.822455644090753e-11 4.899967431916052e-10 2.94990936659281e-10 1.3925315867496693e-10 3.850321376041878e-9 1.8563453548711683e-9
          1.1387547831206588e-9 3.972445786644946e-9 1.914032010105456e-9 5.343658978774838e-10 3.213032719148998e-10 1.520059852896507e-10
          8.955964603611316e-11 5.50013968133966e-10 3.3055028500808795e-10 1.5663279738302082e-10 1.795550484895859e-9 1.0228686022552444e-9
          5.271336049643459e-10 2.9981460119135876e-10 2.099450722654886e-9 1.1965802342705244e-9 6.137280622345127e-10 5.551926350103936e-10
          2.876749400804835e-10 1.6403978644469532e-10 8.629867123261352e-11 6.491306327277159e-10 3.3603586095901043e-10 1.9062621875666566e-10
          1.4935806590927496e-10 8.45934776676293e-11 6.627364491881372e-11 3.6935770053651876e-11 1.7265685016804805e-10 9.800564752968661e-11
          5.710426765615906e-11 4.649732551378705e-11 2.475260673680337e-11 2.0302006047806136e-11 1.1157877194666697e-11 5.3825514824208506e-11
          2.8599698475999313e-11 2.3569703799600765e-11 2.3058248428220833e-9 1.314714187094119e-9 6.725536173443697e-10 3.81766930322989e-10
          2.3790597269373287e-9 1.3566392976419932e-9 6.934054030229597e-10 7.129965748339076e-10 3.6884861641397355e-10 2.0865865543761723e-10
          1.0968222007593217e-10 7.356547530814519e-10 3.8047919560297237e-10 2.1505216628270466e-10 1.8835302666746662e-10 1.0720129559192378e-10
          5.1659058076320225e-11 3.628759675802302e-11 1.9392774351686377e-10 1.105005266300947e-10 5.3664188944727055e-11 5.884130242587624e-11
          3.122857038903498e-11 2.583718954844768e-11 1.367293077298543e-11 6.06371313372239e-11 3.216015742803822e-11 2.6666750729339132e-11
          2.0638873891744865e-11 2.3238367900418586e-11 1.5579934275118178e-11 1.713675003109067e-11 1.4572787198790734e-11 1.4448049860117184e-11
          1.1824596404200342e-11 2.873256419285098e-11 2.0863304693412024e-11 1.5860262285080505e-11 3.4371162634145356e-11 2.501414109266384e-11
          1.879405990595356e-11 1.6012087149796704e-11 3.9484579113619476e-11 2.5338959702017497e-11 2.037128987656067e-11 4.310517113790645e-11
          2.5234190773301627e-11 1.9970991218469867e-11 1.3002325604897866e-11 4.4356242840255014e-11 2.59575612863604e-11 1.939031044700814e-11
          1.4589425397862716e-11 1.4704667942837772e-11 1.1028333560825005e-11 1.0808714448243389e-11 1.043389351624293e-11 9.058461696296516e-12
          7.487533399740048e-12 1.4819910487812832e-11 1.0589095335661771e-11 7.6830298763501e-12 1.5688159720371636e-11 8.066254609137092e-12
          2.6380501715063074e-11 1.0424245325301288e-11 4.172466774678557e-11 1.3408571398224208e-11 6.214154141754483e-11 1.9741300930420258e-11
          3.3568035457495296e-12 4.162839258896217e-12 2.3340113904022497e-12 2.8099902981255627e-12 2.14816069234231e-12 2.3696416549145956e-12
          1.7886468504656024e-12 5.966240626121103e-12 3.9747872400403556e-12 3.095224351342244e-12 8.713962411958029e-11 2.7238514935362676e-11
          1.1496412862175567e-10 3.546028650479841e-11 8.103854033519748e-12 5.412585386211591e-12 4.190537797637285e-12 3.249522514147118e-12
          1.0417975819709345e-11 6.930066030871308e-12 5.381951291364899e-12 1.426764369549132e-10 4.359678413198898e-11 1.663815421812776e-10
          5.062132613394921e-11 1.2678135532751298e-11 8.41391043186653e-12 6.500554916642781e-12 5.031919636842241e-12 1.4676339443248093e-11
          8.249926254608478e-12 7.194814811401788e-12 1.8234109163351946e-10 5.546761134763195e-11 1.8797819974394074e-10 5.72107246779005e-11
          1.6076344259417476e-11 8.05299773945972e-12 7.29111772246508e-12 4.0733349315859914e-12 1.6564430845262868e-11 8.29573324709762e-12
          7.211562582759311e-12 3.987865616875499e-12 3.9830595557475214e-12 2.7994095054719017e-12 2.649380531909353e-12 2.744787844937933e-12
          2.3577367914581693e-12 1.7211283327099897e-12 3.978253494619544e-12 2.499351558346804e-12 1.9706857379784056e-12 4.5223203416775036e-11
          6.899747897918453e-12 2.5939087558773098e-11 8.00471996049682e-11 6.414482634757684e-11 1.1109980170971178e-10 7.438899148658284e-11
          3.721183612239284e-11 1.2355777541881625e-10 2.408345901543376e-11 5.008982482200563e-12 5.1348671803366174e-12 4.1867264948929906e-11
          2.103323850558978e-12 1.8851247285415256e-12 3.4419338769237792e-12 2.1679558957016053e-12 1.5794245716095894e-12 2.342565474498626e-12
          2.379191452744146e-12 2.621507408865402e-12 2.967752166377483e-12 1.2228775926248178e-10 3.565486275677487e-11 1.0085847473211513e-10
          1.4135931337254636e-10 3.601163181353515e-11 8.052023381552649e-11 1.2912372980391133e-11 3.863413433381467e-11 4.4083254322933724e-11
          6.445711571143323e-11 5.8152663394245815e-11 8.516234748563985e-11 6.24743271200417e-11 9.190322522365945e-11 5.551950679841962e-12
          6.618703573244893e-12 7.207766886125163e-12 5.784313143342908e-12 2.1539108105416646e-11 9.77728664036351e-12 8.273571071791045e-12
          9.197440606049424e-12 2.7026475063914504e-11 9.61249889520215e-12 8.065559796581033e-12 3.071601673637083e-11 1.5223200728745847e-11
          9.133892077224129e-12 2.5377687116137996e-11 6.169189659844888e-11 1.8381807533612816e-11 5.740466779003737e-11 7.385029529419307e-12
          5.5880506950939354e-12 5.966090474701264e-12 3.976532501907523e-12 5.001525577221005e-11 2.017755549341051e-11 8.81951794234193e-11
          3.214739614151814e-11 1.7681717493912455e-11 1.5952733321512362e-10 5.562063263848439e-11 8.037843964399089e-10 2.7409357312419253e-10
          1.346514162083333e-9 4.4729086362843274e-10 9.143726352675301e-11 4.5150892450118006e-11 1.4435951031454824e-10 8.837225644264662e-9
          3.916663966460089e-9 1.2994896761155584e-8 5.861215639755246e-9 2.4609114946366743e-8 2.4414549487544107e-8 3.178261508781406e-8
          3.2004223991358886e-8 2.0815584031478774e-8 2.7941518928971336e-8 3.8134708000380136e-8 3.9357494067371795e-8 3.543364364558167e-8
          1.7820186323875352e-8 8.205025791912263e-9 2.296696269831064e-8 1.0752269102570024e-8 2.125264336198728e-9 1.38305726264938e-9
          6.928324971678719e-10 2.066539643382108e-9 3.1585875081306738e-9 1.0172697693428538e-9 2.1853341124011875e-10 1.0367476006069921e-10
          3.1564757873978425e-10 2.904139686769431e-9 4.4200943862432274e-9 1.412929217401805e-9 3.837859911819509e-9 5.817676413270201e-9
          1.8531093290934402e-9 4.3270320941039827e-10 1.2937717642840374e-10 5.615168239630773e-10 1.6702883928203752e-10 4.206076041346668e-8
          4.4957106864986086e-8 4.2292695585213044e-8 4.369983348381453e-8 4.8457462505746085e-8 4.768899222917021e-8 2.7950183922993007e-8
          1.3224648469873675e-8 3.214100890429937e-8 1.5308755419291883e-8 4.422919004541339e-8 5.026551995429824e-8 5.106134054234832e-8
          4.4381454908415054e-8 5.079622228208296e-8 5.216811192896437e-8 3.4952903200733204e-8 1.670351294342147e-8 3.59492845881621e-8
          1.71937808188946e-8 4.766811475923371e-9 7.194644516497466e-9 2.2920682284882068e-9 5.562754409273319e-9 8.3664595437179e-9
          2.6702671326204478e-9 6.887049358132785e-10 2.025976038904865e-10 7.971845219924383e-10 2.329031964322999e-10 6.101891120199708e-9
          9.158017774006273e-9 2.9273421349133392e-9 6.293103083559205e-9 9.438184088259351e-9 3.0185481619910843e-9 8.705136379519171e-10
          2.535085312141139e-10 8.964888434985659e-10 2.608399698505652e-10 3.5121812647988815e-11 3.979305775238491e-11 2.2446583898684356e-11
          4.940144672749698e-11 5.8982211301582e-11 2.7908735183966936e-11 6.726671257003891e-11 7.286394645292467e-11 3.269494954664075e-11
          7.482029977072259e-11 7.506066282244341e-12 4.015282716331949e-12 1.2632123437377657e-11 2.724142238349374e-10 1.1647906856764326e-10
          4.1473608828156476e-10 1.759618885526392e-10 1.1200369115128698e-9 1.0247102950295283e-9 1.5775657768013103e-9 1.4497875498013036e-9
          7.502849079395937e-10 1.0690841238396115e-9 2.0811005909309774e-9 1.920965050692415e-9 1.4266201518634103e-9 5.918209590045186e-10
          2.4965119088447444e-10 7.914742538832708e-10 3.324996995377712e-10 1.9938536141322857e-11 8.153576306369004e-12 5.4128188002375823e-11
          8.153488313815586e-11 2.965889773599446e-11 1.2291415908972415e-11 1.1541223624767559e-10 4.150388141240005e-11 1.642129464424677e-11
          1.5341375651309063e-10 5.463925436569289e-11 2.5753357531622745e-9 2.3865777818077737e-9 1.783860505787228e-9 2.9945134049406498e-9
          2.7837652810536555e-9 2.091464501724565e-9 9.92043334805923e-10 4.15600245142686e-10 1.16554905553699e-9 4.874322804806311e-10
          3.2760897245564955e-9 3.051730164329046e-9 2.3004162658594287e-9 3.375320384201302e-9 3.1463973130353413e-9 2.3745107103500016e-9
          1.283806571091233e-9 5.36379872966675e-10 1.325814959595511e-9 5.537674948001231e-10 1.914843931086853e-10 6.771372080850461e-11
          2.61920448780192e-11 2.2436844064193584e-10 7.885152615689681e-11 2.467723534828047e-10 8.63063900552779e-11 2.6924134587179293e-11
          2.547301231644134e-10 8.893598125384146e-11 2.7916385648342386e-11 1.3629022192448201e-11 1.2611957833106125e-11 7.124914482114951e-12
          1.3126706750577871e-11 7.356588884881807e-12
        </DataArray>
        <DataArray type="Float64" Name="gradient_matprop_error" format="ascii" RangeMin="0" RangeMax="0">
          0 0 0 0 0 0
          0 0 0 0 0 0
          0 0 0 0 0 0
          0 0 0 0 0 0
          0 0 0 0 0 0
          0 0 0 0 0 0
          0 0 0 0 0 0
          0 0 0 0 0 0
          0 0 0 0 0 0
          0 0 0 0 0 0
          0 0 0 0 0 0
          0 0 0 0 0 0
          0 0 0 0 0 0
          0 0 0 0 0 0
          0 0 0 0 0 0
          0 0 0 0 0 0
          0 0 0 0 0 0
          0 0 0 0 0 0
          0 0 0 0 0 0
          0 0 0 0 0 0
          0 0 0 0 0 0
          0 0 0 0 0 0
          0 0 0 0 0 0
          0 0 0 0 0 0
          0 0 0 0 0 0
          0 0 0 0 0 0
          0 0 0 0 0 0
          0 0 0 0 0 0
          0 0 0 0 0 0
          0 0 0 0 0 0
          0 0 0 0 0 0
          0 0 0 0 0 0
          0 0 0 0 0 0
          0 0 0 0 0 0
          0 0 0 0 0 0
          0 0 0 0 0 0
          0 0 0 0 0 0
          0 0 0 0 0 0
          0 0 0 0 0 0
          0 0 0 0 0 0
          0 0 0 0 0 0
          0 0 0 0 0 0
          0 0 0 0 0 0
          0 0 0 0 0 0
          0 0 0 0 0 0
          0 0 0 0 0 0