<?xml version="1.0"?>
<VTKFile type="UnstructuredGrid" version="0.1" byte_order="LittleEndian" header_type="UInt32" compressor="vtkZLibDataCompressor">
  <UnstructuredGrid>
    <Piece NumberOfPoints="1277" NumberOfCells="799">
      <PointData>
        <DataArray type="Int32" Name="libmesh_node_id" format="ascii" RangeMin="1408" RangeMax="5534">
          1408 1496 1497 1503 1507 1515
          1632 1633 1634 1637 1640 1642
          1643 1644 1645 1646 1647 1648
          1649 1650 1652 1653 1654 1655
          1656 1657 1658 1659 1666 1667
          1670 1671 1672 1673 1676 1677
          1678 1680 1681 1683 1842 1843
          1847 1870 1871 1876 1999 2000
          2003 2004 2006 2007 2008 2009
          2010 2012 2013 2014 2016 2017
          2031 2032 2033 2034 2035 2036
          2037 2038 2039 2040 2051 2052
          2053 2054 2057 2058 2059 2061
          2062 2063 2064 2065 2066 2067
          2068 2069 2070 2071 2072 2073
          2074 2075 2076 2077 2078 2079
          2080 2081 2082 2083 2084 2085
          2086 2087 2088 2089 2090 2091
          2092 2093 2094 2095 2096 2097
          2098 2099 2100 2101 2102 2103
          2104 2105 2106 2107 2108 2109
          2110 2111 2112 2113 2114 2115
          2116 2117 2118 2119 2120 2121
          2122 2123 2124 2125 2126 2127
          2128 2129 2130 2131 2132 2133
          2134 2135 2136 2137 2138 2139
          2140 2141 2143 2144 2145 2146
          2147 2148 2149 2150 2151 2152
          2153 2154 2155 2156 2157 2158
          2159 2160 2161 2162 2163 2167
          2168 2170 2171 2173 2174 2175
          2176 2177 2178 2179 2180 2181
          2182 2184 2185 2188 2189 2191
          2194 2195 2196 2197 2198 2199
          2200 2201 2202 2203 2204 2205
          2208 2210 2211 2213 2214 2215
          2218 2219 2221 2225 2228 2229
          2230 2231 2232 2233 2234 2235
          2236 2237 2238 2239 2240 2241
          2242 2243 2246 2247 2249 2251
          2687 2688 2796 2797 2798 2799
          2800 2801 2802 2803 2804 2805
          2806 2807 2808 2809 2810 2811
          2812 2813 2814 2815 2816 2817
          2818 2819 2820 2821 2822 2823
          2824 2825 2826 2827 2828 2829
          2830 2831 2832 2833 2834 2835
          2836 2837 2838 2839 2840 2841
          2842 2843 2844 2845 2846 2847
          2848 2849 2850 2851 2852 2853
          2854 2855 2856 2857 2858 2859
          2860 2861 2862 2863 2864 2865
          2866 2867 2868 2869 2870 2871
          2872 2873 2874 2875 2876 2877
          2878 2879 2880 2881 2882 2883
          2884 2885 2886 2887 2888 2889
          2890 2891 2892 2893 2894 2895
          2896 2897 2898 2899 2900 2901
          2902 2903 2904 2905 2906 2907
          2908 2909 2910 2911 2916 2917
          2918 2919 2921 2922 2923 2924
          2925 2926 2927 2928 2929 2930
          2931 2932 2933 2934 2935 2936
          2937 2938 2939 2940 2941 2942
          2943 2944 2945 2946 2947 2948
          2949 2950 2951 2952 2953 2954
          2955 2956 2957 2958 2959 2960
          2961 2962 2963 2964 2965 2966
          2967 2968 2969 2970 2971 2972
          2973 2974 2975 2976 2977 2978
          2979 2980 2981 2982 2983 2984
          2985 2986 2987 2988 2989 2990
          2991 2992 2993 2994 2995 2996
          2997 2998 2999 3010 3011 3012
          3013 3014 3015 3016 3017 3019
          3021 3023 3024 3025 3026 3027
          3028 3029 3030 3031 3032 3033
          3044 3045 3046 3047 3048 3049
          3050 3051 3053 3055 3057 3058
          3059 3060 3061 3062 3063 3064
          3065 3066 3067 3068 3069 3070
          3071 3072 3073 3074 3075 3077
          3078 3079 3080 3081 3082 3083
          3084 3085 3087 3089 3091 4803
          4804 4805 4806 4807 4808 4809
          4810 4811 4812 4813 4814 4815
          4816 4817 4818 4819 4820 4821
          4822 4823 4824 4825 4826 4827
          4828 4829 4830 4831 4832 4833
          4834 4835 4836 4837 4838 4839
          4840 4841 4842 4843 4844 4845
          4846 4847 4848 4849 4850 4851
          4852 4853 4854 4855 4856 4857
          4858 4859 4860 4861 4862 4863
          4864 4865 4866 4867 4868 4869
          4870 4871 4872 4873 4874 4875
          4876 4877 4878 4879 4880 4881
          4882 4883 4884 4885 4886 4887
          4888 4889 4890 4891 4892 4893
          4894 4895 4896 4897 4898 4899
          4900 4901 4902 4903 4904 4905
          4906 4907 4908 4909 4910 4911
          4912 4913 4914 4915 4916 4917
          4918 4919 4920 4921 4922 4923
          4924 4925 4926 4927 4928 4929
          4930 4931 4932 4933 4934 4935
          4936 4937 4938 4939 4940 4941
          4942 4943 4944 4945 4946 4947
          4948 4949 4950 4951 4952 4953
          4954 4955 4956 4957 4958 4959
          4960 4961 4962 4963 4964 4965
          4966 4967 4968 4969 4970 4971
          4972 4973 4974 4975 4976 4977
          4978 4979 4980 4981 4982 4983
          4984 4985 4986 4987 4988 4989
          4990 4991 4992 4993 4994 4995
          4996 4997 4998 4999 5000 5001
          5002 5003 5004 5005 5006 5007
          5008 5009 5010 5011 5012 5013
          5014 5015 5016 5017 5018 5019
          5020 5021 5022 5023 5024 5025
          5026 5027 5028 5029 5030 5031
          5032 5033 5034 5035 5036 5037
          5038 5039 5040 5041 5042 5043
          5044 5045 5046 5047 5048 5049
          5050 5051 5052 5053 5054 5055
          5056 5057 5058 5059 5060 5061
          5062 5063 5064 5065 5066 5067
          5068 5069 5070 5071 5072 5073
          5074 5075 5076 5077 5078 5079
          5080 5081 5082 5083 5084 5085
          5086 5087 5088 5089 5090 5091
          5092 5093 5094 5095 5096 5097
          5098 5099 5100 5101 5102 5103
          5104 5105 5106 5107 5108 5109
          5110 5111 5112 5113 5114 5115
          5116 5117 5118 5119 5120 5121
          5122 5123 5124 5125 5126 5127
          5128 5129 5130 5131 5132 5133
          5134 5135 5136 5137 5138 5139
          5140 5141 5142 5143 5144 5145
          5146 5147 5148 5149 5150 5151
          5152 5153 5154 5155 5156 5157
          5158 5159 5160 5161 5162 5163
          5164 5165 5166 5167 5168 5169
          5170 5171 5172 5173 5174 5175
          5176 5177 5178 5179 5180 5181
          5182 5183 5184 5185 5186 5187
          5188 5189 5190 5191 5192 5193
          5194 5195 5196 5197 5198 5199
          5200 5201 5202 5203 5204 5205
          5206 5207 5208 5209 5210 5211
          5212 5213 5214 5215 5216 5217
          5218 5219 5220 5221 5222 5223
          5224 5225 5226 5227 5228 5229
          5230 5231 5232 5233 5234 5235
          5236 5237 5238 5239 5240 5241
          5242 5243 5244 5245 5246 5247
          5248 5249 5250 5251 5252 5253
          5254 5255 5256 5257 5258 5260
          5265 5266 5269 5271 5272 5274
          5285 5287 5291 5292 5293 5294
          5295 5296 5297 5298 5299 5300
          5302 5303 5304 5305 5306 5307
          5308 5309 5310 5311 5312 5313
          5314 5315 5316 5317 5318 5319
          5320 5321 5322 5323 5324 5325
          5326 5327 5328 5329 5330 5331
          5332 5333 5334 5335 5336 5337
          5338 5339 5340 5341 5342 5343
          5344 5345 5346 5347 5348 5349
          5350 5351 5352 5353 5354 5355
          5356 5357 5358 5359 5360 5361
          5362 5363 5364 5365 5366 5367
          5368 5369 5370 5371 5372 5375
          5377 5378 5380 5391 5393 5395
          5397 5405 5406 5409 5411 5412
          5414 5425 5427 5429 5431 5439
          5440 5441 5442 5443 5444 5445
          5446 5447 5448 5449 5450 5451
          5452 5453 5454 5455 5456 5457
          5458 5459 5460 5461 5462 5463
          5464 5465 5466 5467 5468 5469
          5470 5471 5472 5473 5474 5475
          5476 5477 5478 5479 5480 5481
          5482 5483 5484 5485 5486 5487
          5488 5489 5490 5491 5492 5493
          5494 5496 5498 5500 5501 5502
          5503 5504 5506 5507 5508 5509
          5510 5511 5512 5513 5514 5516
          5518 5520 5521 5522 5523 5524
          5525 5526 5527 5528 5530 5532
          5534 1508 1674 1651 1675 1500
          1513 1679 1409 1682 1518 1873
          1874 1877 1880 1881 1883 1884
          1510 1660 1886 1663 1887 1511
          2142 1516 2164 2165 2166 2169
          1661 2172 1662 2183 1664 2186
          2187 2190 2192 2193 1665 2216
          2217 2220 1669 2209 2222 2223
          2224 2227 2226 1517 2244 2245
          2248 2250 2912 2913 3000 3001
          2915 3004 3007 3009 2920 3005
          3018 3020 2207 3022 3052 3054
          3076 3086 3088 1668 3090 5259
          5267 5268 5270 3006 5273 5373
          5374 5376 3034 5379 3035 5286
          5392 5394 5396 3038 5407 5408
          5410 3040 5413 3041 5426 5428
          5430 3043 5290 5400 5301 5401
          5495 5497 5404 3039 5499 5434
          5435 5515 5517 5438 2212 5519
          3056 5505 5529 5531 5533
        </DataArray>
        <DataArray type="Float64" Name="bounds" format="ascii" RangeMin="0" RangeMax="0">
          0 0 0 0 0 0
          0 0 0 0 0 0
          0 0 0 0 0 0
          0 0 0 0 0 0
          0 0 0 0 0 0
          0 0 0 0 0 0
          0 0 0 0 0 0
          0 0 0 0 0 0
          0 0 0 0 0 0
          0 0 0 0 0 0
          0 0 0 0 0 0
          0 0 0 0 0 0
          0 0 0 0 0 0
          0 0 0 0 0 0
          0 0 0 0 0 0
          0 0 0 0 0 0
          0 0 0 0 0 0
          0 0 0 0 0 0
          0 0 0 0 0 0
          0 0 0 0 0 0
          0 0 0 0 0 0
          0 0 0 0 0 0
          0 0 0 0 0 0
          0 0 0 0 0 0
          0 0 0 0 0 0
          0 0 0 0 0 0
          0 0 0 0 0 0
          0 0 0 0 0 0
          0 0 0 0 0 0
          0 0 0 0 0 0
          0 0 0 0 0 0
          0 0 0 0 0 0
          0 0 0 0 0 0
          0 0 0 0 0 0
          0 0 0 0 0 0
          0 0 0 0 0 0
          0 0 0 0 0 0
          0 0 0 0 0 0
          0 0 0 0 0 0
          0 0 0 0 0 0
          0 0 0 0 0 0
          0 0 0 0 0 0
          0 0 0 0 0 0
          0 0 0 0 0 0
          0 0 0 0 0 0
          0 0 0 0 0 0
          0 0 0 0 0 0
          0 0 0 0 0 0
          0 0 0 0 0 0
          0 0 0 0 0 0
          0 0 0 0 0 0
          0 0 0 0 0 0
          0 0 0 0 0 0
          0 0 0 0 0 0
          0 0 0 0 0 0
          0 0 0 0 0 0
          0 0 0 0 0 0
          0 0 0 0 0 0
          0 0 0 0 0 0
          0 0 0 0 0 0
          0 0 0 0 0 0
          0 0 0 0 0 0
          0 0 0 0 0 0
          0 0 0 0 0 0
          0 0 0 0 0 0
          0 0 0 0 0 0
          0 0 0 0 0 0
          0 0 0 0 0 0
          0 0 0 0 0 0
          0 0 0 0 0 0
          0 0 0 0 0 0
          0 0 0 0 0 0
          0 0 0 0 0 0
          0 0 0 0 0 0
          0 0 0 0 0 0
          0 0 0 0 0 0
          0 0 0 0 0 0
          0 0 0 0 0 0
          0 0 0 0 0 0
          0 0 0 0 0 0
          0 0 0 0 0 0
          0 0 0 0 0 0
          0 0 0 0 0 0
          0 0 0 0 0 0
          0 0 0 0 0 0
          0 0 0 0 0 0
          0 0 0 0 0 0
          0 0 0 0 0 0
          0 0 0 0 0 0
          0 0 0 0 0 0
          0 0 0 0 0 0
          0 0 0 0 0 0
          0 0 0 0 0 0
          0 0 0 0 0 0
          0 0 0 0 0 0
          0 0 0 0 0 0
          0 0 0 0 0 0
          0 0 0 0 0 0
          0 0 0 0 0 0
          0 0 0 0 0 0
          0 0 0 0 0 0
          0 0 0 0 0 0
          0 0 0 0 0 0
          0 0 0 0 0 0
          0 0 0 0 0 0
          0 0 0 0 0 0
          0 0 0 0 0 0
          0 0 0 0 0 0
          0 0 0 0 0 0
          0 0 0 0 0 0
          0 0 0 0 0 0
          0 0 0 0 0 0
          0 0 0 0 0 0
          0 0 0 0 0 0
          0 0 0 0 0 0
          0 0 0 0 0 0
          0 0 0 0 0 0
          0 0 0 0 0 0
          0 0 0 0 0 0
          0 0 0 0 0 0
          0 0 0 0 0 0
          0 0 0 0 0 0
          0 0 0 0 0 0
          0 0 0 0 0 0
          0 0 0 0 0 0
          0 0 0 0 0 0
          0 0 0 0 0 0
          0 0 0 0 0 0
          0 0 0 0 0 0
          0 0 0 0 0 0
          0 0 0 0 0 0
          0 0 0 0 0 0
          0 0 0 0 0 0
          0 0 0 0 0 0
          0 0 0 0 0 0
          0 0 0 0 0 0
          0 0 0 0 0 0
          0 0 0 0 0 0
          0 0 0 0 0 0
          0 0 0 0 0 0
          0 0 0 0 0 0
          0 0 0 0 0 0
          0 0 0 0 0 0
          0 0 0 0 0 0
          0 0 0 0 0 0
          0 0 0 0 0 0
          0 0 0 0 0 0
          0 0 0 0 0 0
          0 0 0 0 0 0
          0 0 0 0 0 0
          0 0 0 0 0 0
          0 0 0 0 0 0
          0 0 0 0 0 0
          0 0 0 0 0 0
          0 0 0 0 0 0
          0 0 0 0 0 0
          0 0 0 0 0 0
          0 0 0 0 0 0
          0 0 0 0 0 0
          0 0 0 0 0 0
          0 0 0 0 0 0
          0 0 0 0 0 0
          0 0 0 0 0 0
          0 0 0 0 0 0
          0 0 0 0 0 0
          0 0 0 0 0 0
          0 0 0 0 0 0
          0 0 0 0 0 0
          0 0 0 0 0 0
          0 0 0 0 0 0
          0 0 0 0 0 0
          0 0 0 0 0 0
          0 0 0 0 0 0
          0 0 0 0 0 0
          0 0 0 0 0 0
          0 0 0 0 0 0
          0 0 0 0 0 0
          0 0 0 0 0 0
          0 0 0 0 0 0
          0 0 0 0 0 0
          0 0 0 0 0 0
          0 0 0 0 0 0
          0 0 0 0 0 0
          0 0 0 0 0 0
          0 0 0 0 0 0
          0 0 0 0 0 0
          0 0 0 0 0 0
          0 0 0 0 0 0
          0 0 0 0 0 0
          0 0 0 0 0 0
          0 0 0 0 0 0
          0 0 0 0 0 0
          0 0 0 0 0 0
          0 0 0 0 0 0
          0 0 0 0 0 0
          0 0 0 0 0 0
          0 0 0 0 0 0
          0 0 0 0 0 0
          0 0 0 0 0 0
          0 0 0 0 0 0
          0 0 0 0 0 0
          0 0 0 0 0 0
          0 0 0 0 0 0
          0 0 0 0 0 0
          0 0 0 0 0 0
          0 0 0 0 0 0
          0 0 0 0 0 0
          0 0 0 0 0 0
          0 0 0 0 0 0
          0 0 0 0 0 0
          0 0 0 0 0 0
          0 0 0 0 0 0
          0 0 0 0 0
        </DataArray>
        <DataArray type="Float64" Name="gradient_error" format="ascii" RangeMin="2.1471974066278662e-10" RangeMax="1.0293623440430103e-7">
          4.811142295753857e-8 6.349621844695951e-8 6.229615423654511e-8 5.44618872353754e-8 3.867753111968741e-8 3.336496714663661e-10
          5.1267664837733616e-8 7.906849860552405e-8 7.060979591003139e-8 6.126216368885761e-8 7.539866141263582e-8 5.201792120396313e-8
          4.139775499965167e-8 7.08404411237733e-8 8.139705111331985e-8 3.018486018765326e-8 5.4497133351975986e-8 7.659549919764302e-8
          4.185810064259178e-8 5.7286172239394675e-8 4.821256525985366e-10 7.478647715733936e-8 7.135659838995844e-8 5.864750933886626e-8
          2.505703408104033e-8 1.909445064244513e-8 5.5985336819646396e-8 6.266946758485304e-8 9.439552080077252e-10 1.2966083278701226e-8
          3.2775896766555e-8 5.002095541466584e-8 4.203510491160744e-8 5.2341235137088124e-8 1.0970572831424379e-8 2.6248390189864774e-8
          3.6608473540450895e-8 2.815582107878836e-8 3.593526478902574e-8 3.611646420663505e-8 4.2621599250794025e-8 3.650417258216685e-8
          2.3634449094739867e-8 3.185547371756208e-8 2.679942167223707e-8 1.483496191852192e-8 4.39294230453283e-8 4.160432332394674e-8
          5.670804678011109e-8 5.424981908212354e-8 4.132218643857351e-8 5.902192702137563e-8 5.6212597162549066e-8 3.544097610901448e-8
          4.7224777426253786e-8 4.824531847770461e-8 7.165749497224073e-8 7.065630752475181e-8 7.745795586749929e-8 6.559762335611626e-8
          5.6957614170466746e-8 6.272487088547054e-8 6.600666491654571e-8 7.178896969991913e-8 6.951028665548438e-8 7.743012404966231e-8
          4.008690891134593e-8 5.103244156173777e-8 5.97650355513643e-8 6.683390534222934e-8 5.431722246258692e-8 6.457102445347401e-8
          5.685251016093464e-8 6.956728094092933e-8 5.012540474511689e-8 6.659049545165166e-8 7.240033111478884e-8 4.306646044548652e-8
          4.0458758621850225e-8 6.103703351234132e-8 5.7844205085692604e-8 3.882498891695045e-8 6.263240437642892e-8 5.900456611772771e-8
          3.3514291932620705e-8 4.88791157976983e-8 4.898206030024392e-8 8.72387109630793e-8 8.492473868183907e-8 8.01800617493762e-8
          7.594714101762798e-8 3.897520205688899e-8 3.629318300685326e-8 6.353451915194875e-8 5.9447354366053325e-8 3.284281700113305e-8
          6.329805117402725e-8 5.879871869069463e-8 2.920184570621196e-8 4.8376320608490654e-8 4.6818415680652396e-8 5.1958441512609496e-8
          7.422901256056255e-8 6.410994528231761e-8 8.675258024004991e-8 2.4900478147311416e-8 2.6506386138829782e-8 3.6189949753249686e-8
          3.673858784681463e-8 2.2909438801333486e-8 3.517876004090749e-8 2.062342922759536e-8 2.9273044570146666e-8 3.038980604194255e-8
          2.777012734035367e-8 5.928702561693117e-8 6.149063227106153e-8 4.380303001015618e-8 2.062994688027772e-8 3.3658432416509024e-8
          1.805210875455826e-8 3.148910403781222e-8 1.646736630494906e-8 2.5924413196194652e-8 2.3640762921681683e-8 6.325197133009961e-8
          6.420040409364552e-8 4.3301420887441706e-8 6.326216221932857e-8 7.579352721119785e-8 3.5047647138378225e-8 5.642205897962453e-8
          8.660177095871179e-8 8.557080588515398e-8 3.0264996699140385e-8 5.6929309109579384e-8 2.861659575414245e-8 8.555319954494352e-8
          8.808001086784654e-9 3.874095705558141e-8 1.0276940606191921e-8 2.710550703224831e-8 8.439691947708539e-8 7.863591777776681e-8
          2.2418070774425893e-10 7.501900162136676e-9 1.131437111414317e-9 6.290336712448952e-8 7.494089055468885e-8 8.07701147595074e-8
          5.1707062803855556e-8 5.297180408533522e-8 7.87871512347033e-8 8.600704625737323e-8 5.667091054882582e-8 8.702844341934286e-8
          9.320547163526294e-8 5.370774914847839e-8 9.423986213122685e-8 1.0293623440430103e-7 6.015409700951436e-8 3.096202585206614e-8
          2.8554132924859272e-8 6.152995419750181e-8 5.6734632274477155e-8 2.3650490325787507e-8 5.788586536429223e-8 5.2974248483864303e-8
          2.2387544003348892e-8 4.413578280853159e-8 4.0240144747457654e-8 5.601537649032178e-8 5.1670556102752797e-8 5.109970741274906e-8
          6.381483053371735e-8 2.0224437651251754e-8 1.8499858193578866e-8 5.2161653248862534e-8 4.738201281648546e-8 1.4202400579097946e-8
          3.511030753678594e-8 5.3785605499712824e-8 4.848213160612577e-8 5.950975369135786e-8 1.5219875696818993e-8 2.8623516965774053e-8
          1.226271001814458e-8 2.5127521657602216e-8 1.1810903384592611e-8 2.091477866593743e-8 1.7837385423725515e-8 6.377316791810173e-8
          6.16016026015444e-8 9.374260580955641e-9 2.1087705799768898e-8 7.118998739621368e-9 1.4557168910074302e-8 5.76505499537619e-8
          1.1920289437832882e-8 1.1843948377165421e-8 1.408487423790427e-8 1.3829763672439405e-8 5.551596997965592e-8 4.3969400553984154e-8
          6.438836191403354e-10 1.1012703089474435e-9 1.6098890397380664e-9 4.8469793005543626e-8 3.436084931022626e-9 1.5955174299059308e-8
          4.585765497177938e-8 1.254469930680577e-9 2.2544473734149385e-9 1.4965739785292636e-8 8.220740423873397e-8 6.813859850738973e-8
          7.939784994555271e-8 5.1808869140679995e-8 6.655858335163714e-8 5.16317904973564e-8 2.6259291743320103e-8 2.7191166514850784e-8
          2.9525715175811337e-8 3.024613476713579e-8 2.4984859116713318e-8 2.8425004016693722e-8 1.969056465458216e-8 2.0749864794165224e-8
          2.2087048309864425e-8 1.911707668294102e-8 3.279213860830257e-8 3.33011030194208e-8 3.186514891667413e-8 2.1809164933748292e-8
          2.3353724352314027e-8 2.6904742863498555e-8 1.6159431462395578e-8 1.7201819999884545e-8 3.045576137468309e-8 1.8244208537373512e-8
          2.765939363497759e-8 3.6871142552427535e-8 1.4069461396878018e-8 1.4794579242007104e-8 1.4615734696821823e-8 1.5643289856779162e-8
          1.443689015163654e-8 1.6821689647214537e-8 1.6620368621422642e-8 1.7604978227365988e-8 1.641904759563075e-8 1.5813866843069613e-8
          9.141725568231659e-9 1.4208915972185377e-8 1.4064809285923324e-8 1.3920702599661273e-8 1.0540258834017072e-8 1.0340701840410366e-8
          1.2771206824007273e-8 1.014114484680366e-8 1.2792089536144302e-8 8.571070486142229e-9 8.70904987328138e-9 8.84702926042053e-9
          8.2763741783311e-9 7.49409029549725e-9 8.670398348404365e-9 6.6723525376835404e-9 7.835315590712097e-9 9.873018026548907e-9
          1.0382019266111177e-8 4.397391698753309e-9 7.0087488094955796e-9 3.387507286987013e-9 9.604891206294154e-9 1.2973134510103331e-8
          1.2838905134420207e-8 1.3154179484062356e-8 1.471387357722037e-8 1.4600309510805978e-8 1.5802791846807606e-8 1.568722895120957e-8
          1.4486745444391581e-8 1.5571666055611536e-8 1.0931566257114785e-8 1.2372853980999255e-8 1.0245209662411668e-8 1.385330751061081e-8
          1.6980462642051132e-8 1.681226571388359e-8 1.8187088482705023e-8 1.7992137314702608e-8 1.6644068785716052e-8 1.7735109937827055e-8
          9.545022016532499e-9 9.498220073334462e-9 1.0245641159463004e-8 1.1793265043727254e-8 1.3654851635457841e-8 1.50943820152636e-8
          1.3401324481777085e-8 1.6694818680179034e-8 1.577867984027729e-8 1.628192400076553e-8 1.7551642265719906e-8 1.60450603540638e-8
          4.060899148987404e-9 5.69119351212023e-9 1.0668135188953213e-9 2.8332663069580615e-9 1.0451531534145421e-8 9.550026997763408e-9
          2.8924805602329534e-10 7.457185068437585e-10 5.264434221270724e-10 7.339450544148299e-9 8.985324377784327e-10 1.1822893519612482e-9
          8.299492586416805e-10 1.0659736221167835e-9 6.942745117192159e-9 5.66614031499673e-9 2.2052817296285286e-10 4.032167811383268e-10
          4.326835366602918e-10 4.48569310687836e-9 1.3588009835518368e-8 1.4708633422528502e-8 1.3596719709277182e-8 1.490399665391216e-8
          1.3521168035578894e-8 1.4322884829793403e-8 1.3792114936777281e-8 1.4186742839435158e-8 1.3729488902659778e-8 1.6143581804912015e-8
          1.7630077864204933e-8 1.2102386875584948e-8 9.906402276467901e-9 1.6242103255760226e-8 1.888380580822232e-8 1.8565213003633347e-8
          1.953240860570948e-8 1.765009440150351e-8 2.096916166804966e-8 2.0503832330527478e-8 2.1411374817779724e-8 1.9211756649956976e-8
          1.6136113414545845e-8 1.6753739993755735e-8 1.5218658225129045e-8 1.7280503487352792e-8 1.7695810447136627e-8 1.6175996667796928e-8
          2.282756874886701e-8 2.2175614639347637e-8 2.269380843873519e-8 2.0423054806970695e-8 1.798590527588709e-8 1.8085208476932303e-8
          1.6649361467661063e-8 1.793889975844294e-8 1.6502876021334847e-8 1.9455762741559514e-8 1.9241505945033196e-8 2.0833114129401887e-8
          2.0577286909649687e-8 1.8572352603368345e-8 1.97530165492003e-8 1.105609610337813e-8 1.1074113663155043e-8 1.1976089406495872e-8
          1.2902897818317553e-8 2.2310486106690604e-8 2.1996647248400854e-8 2.3857384624810753e-8 2.3470170247397124e-8 2.099220015137021e-8
          2.2237092971453265e-8 1.2927003871075539e-8 1.296035204597938e-8 1.4069954555750594e-8 1.280815696114083e-8 1.7184362372571895e-8
          1.8161124241666295e-8 1.6251268686913975e-8 1.7137675074829475e-8 1.645879045609302e-8 1.5640703098367073e-8 1.8201100050355934e-8
          1.9117872741866996e-8 2.0015633431340594e-8 1.7934153571104685e-8 1.864003678975816e-8 1.681300287289159e-8 1.805547705723673e-8
          2.0403160722315828e-8 9.182943573459905e-10 1.0764302182641724e-9 1.1443340332903562e-9 1.2321624898486542e-9 3.775389464046016e-9
          1.7630646241771426e-9 4.977666606479563e-10 6.216180617380878e-10 8.115743010847667e-10 1.021019779533034e-9 1.4416463789443464e-9
          1.5000549898233396e-9 1.778137448667416e-9 1.8384938761616324e-9 1.86737804056639e-9 2.081329876605944e-9 7.924395503789528e-10
          1.006200606552426e-9 1.2148830349460085e-9 1.324004858344009e-9 1.275111896441735e-8 1.1637686966903183e-8 1.9278136248040697e-8
          2.0225812870399947e-8 1.0764708688559406e-8 1.1479452634489112e-8 1.9437951544068435e-8 9.967667942068457e-9 8.237892613751684e-9
          1.8653144989719043e-8 1.775955926292844e-8 7.061731033814535e-9 2.3580051295015457e-9 1.6570736947729963e-8 1.902308809964993e-8
          2.1731453893402873e-8 1.3597426755320911e-8 1.9651602625847543e-8 2.3423795303455168e-8 2.4475978950094913e-8 8.943719184492127e-9
          1.2076532393312461e-8 9.908968123764316e-9 1.4889344527557664e-8 2.0796390251380722e-8 2.1410958925312098e-8 1.9189077245644818e-8
          1.9552813213071852e-8 1.9311446892916957e-8 2.0502872569862923e-8 2.3401601084792692e-8 2.1800963752272945e-8 1.9701188556430775e-8
          2.1572098295759796e-8 2.585510839990425e-8 2.1835649695674018e-9 2.2306653096960935e-9 2.63448368229791e-9 2.6727878514522367e-9
          2.3888289294219988e-9 2.7682959175472698e-9 1.0988733559034877e-9 1.4374456603190276e-9 1.6710367811773102e-9 1.9264569312512932e-9
          8.917387018433759e-9 9.629540144668165e-9 1.9109953498096248e-8 2.0404645785027964e-8 2.4932002522886017e-9 2.72995356704622e-9
          1.4001087939152431e-8 1.0373928257153265e-8 2.1596603912036883e-8 3.016467951631563e-9 1.5862184803582188e-8 1.7120077525202202e-8
          1.7837280029498077e-8 1.900668372841095e-8 1.666500813389508e-8 1.8124486873934998e-8 1.7269740801999923e-8 1.9128896222667795e-8
          1.8746111888631702e-8 1.9919794841905195e-8 1.7510877899180055e-8 1.8077285342258395e-8 1.9654943747765323e-8 2.0832905955399432e-8
          1.8356747664465033e-8 1.9842819420705005e-8 2.0538271134122236e-8 1.7820558475024093e-8 2.1046984363728317e-8 1.8299295493347215e-8
          2.0964964307036206e-8 2.1878274630311826e-8 1.8691448690740558e-8 1.9178207948296935e-8 2.208710919336741e-8 2.321827812650142e-8
          1.9562338906457022e-8 2.261017774789415e-8 1.9455054729790288e-8 2.4173371132059984e-8 2.0610813966233354e-8 1.0616621698920486e-9
          1.1326327391258277e-9 1.1015317803115322e-9 1.1154394640493511e-9 1.0704308214972367e-9 1.5482636790434043e-9 1.0637553621427831e-9
          1.0450510938772047e-9 1.0263468256116265e-9 1.0284400178623613e-9 9.604244234960972e-10 1.0066234374121613e-9 7.954319413712615e-10
          9.089817800234318e-10 1.0528224513282255e-9 1.1414071634183874e-9 7.882161078663665e-10 9.117150945127904e-10 7.025240959975127e-10
          1.0352140811592144e-9 1.4438250419921013e-9 1.5084918310802446e-9 1.3393864049407983e-9 1.6846699695569259e-9 1.7536682884602474e-9
          1.7338781273052366e-9 1.821535484405095e-9 1.7140879661502258e-9 1.8404849782369626e-9 1.8985405612077506e-9 1.8964255787461116e-9
          1.958351914856032e-9 1.9074603820617555e-9 1.9886536812507095e-9 2.002687029329087e-9 2.0407196106626536e-9 2.055889796533472e-9
          1.9026206290377014e-9 2.0052883775135613e-9 1.884631090236363e-9 2.084936160722353e-9 2.1621861702791863e-9 2.0748131057852263e-9
          1.6594641323210512e-9 1.6531978093796877e-9 1.6469314864383245e-9 1.0364713461987575e-9 1.072211282346827e-9 1.2102323032908235e-9
          1.2841275381453668e-9 1.6569078622069805e-9 1.6656030573813589e-9 1.649981165462959e-9 1.679550421203336e-9 1.6742982525557368e-9
          1.7456154741061338e-9 1.1778808757991668e-9 1.238513553869702e-9 1.1447991021785463e-9 1.3048738255959448e-9 1.5245140466024084e-9
          1.4607583687214393e-9 1.5887242354089798e-9 1.8196939367291886e-9 1.8207808050274016e-9 1.4037718013025257e-9 1.502249640799304e-9
          1.491214589697692e-9 6.981142513954431e-10 8.002487464302106e-10 6.147739611822182e-10 7.03579275921051e-10 1.1068407606075037e-9
          9.872604844859744e-10 3.5975715659212876e-10 5.282862105135943e-10 4.0267292150709195e-10 9.295539830696407e-10 5.20870796866671e-10
          6.059561784688462e-10 4.456553363867867e-10 5.203049699689457e-10 8.807053855863496e-10 7.783234162149922e-10 2.461272780887224e-10
          3.322132366557687e-10 2.8857709358237604e-10 6.213543022594057e-10 1.4088167835961109e-9 1.3313839795138994e-9 1.506335287442192e-9
          1.4806315807157336e-9 1.293119520589813e-9 1.2020095903063597e-9 1.4239463394754044e-9 1.2567350868990835e-9 1.1834199625645123e-9
          1.4431009626964887e-9 1.405147696250145e-9 1.1096983724956411e-9 1.0129169115407762e-9 1.3949873356952856e-9 1.6358341919625828e-9
          1.674455275290372e-9 1.6127008227067804e-9 1.6577176568564356e-9 1.7697071461916776e-9 1.7753160388354593e-9 9.76449234659303e-10
          1.0541067440472026e-9 9.707295256302648e-10 1.2721847608354788e-9 1.5883234858402288e-9 1.637198071949522e-9 1.5712150521194704e-9
          1.6206567156225595e-9 1.7766129808282617e-9 1.7722692546272683e-9 8.461512442579428e-10 9.108228814382134e-10 8.850462376239187e-10
          1.1141474694700738e-9 1.849040158221767e-9 1.9015098251034728e-9 1.8717423826783408e-9 1.955122063542118e-9 1.5379768049878136e-9
          1.4961461486518193e-9 1.6633483417397727e-9 1.9431126835179097e-9 1.975940549177686e-9 2.019072063438111e-9 2.0774409682264844e-9
          1.449972664207668e-9 1.4022877586658196e-9 1.7080428215683224e-9 3.972451936319889e-10 4.6011092648241386e-10 3.7149989964171507e-10
          4.226924357438859e-10 6.824763682895798e-10 6.047203738571449e-10 2.1471974066278662e-10 2.6449333670505504e-10 2.6100921908408214e-10
          4.525371252298019e-10 3.804190372035552e-10 4.190793529919194e-10 4.3647447418728597e-10 4.6433557970204223e-10 5.614755927727691e-10
          5.660390942630504e-10 2.565288763209729e-10 2.882220576773685e-10 3.591725047387125e-10 3.919924117284417e-10 1.0974787743644215e-9
          9.997312393660622e-10 1.3529814714825225e-9 1.4357370251284602e-9 9.14463626159049e-10 8.049014541218699e-10 1.2381199346058177e-9
          8.962084863352642e-10 8.237198589225885e-10 1.429261958336024e-9 1.3314242925390638e-9 6.937608505686593e-10 6.325591285897237e-10
          1.2781251948650622e-9 1.8538911675226165e-9 1.8923933679978166e-9 1.9415438409511887e-9 1.95494808747801e-9 1.8425234625074933e-9
          1.905649255357387e-9 1.83115575749237e-9 1.8466505597390694e-9 1.8466138117014037e-9 1.961982658711365e-9 2.037937252860554e-9
          1.8009077514803227e-9 1.7516837824516188e-9 1.9690172299447197e-9 2.056304427676866e-9 2.0816430015329766e-9 2.1190233164429558e-9