<?xml version="1.0"?>
<VTKFile type="UnstructuredGrid" version="0.1" byte_order="LittleEndian" header_type="UInt32" compressor="vtkZLibDataCompressor">
  <UnstructuredGrid>
    <Piece NumberOfPoints="1344" NumberOfCells="797">
      <PointData>
        <DataArray type="Int32" Name="libmesh_node_id" format="ascii" RangeMin="1134" RangeMax="11789">
          1134 1135 1136 1137 1138 1139
          1165 1166 1167 1188 1189 1190
          1226 1227 1228 1229 1230 1231
          1232 1233 1257 1258 1259 1260
          1280 1281 1282 1283 1319 1320
          1321 1322 1323 1324 1325 1326
          1327 1349 1350 1351 1352 1372
          1373 1374 1375 1413 1414 1415
          1416 1417 1418 1419 1441 1442
          1443 1444 1464 1465 1466 1467
          1519 1520 1522 1523 1525 1526
          1527 1528 1532 1533 1534 1535
          1536 1537 1538 1539 1540 1541
          1542 1543 1544 1545 1546 1547
          1548 1549 1550 1551 1552 1553
          1554 1555 1556 1557 1558 1559
          1560 1565 1566 1570 1575 1576
          1577 1578 1579 1580 1581 1582
          1583 1584 1585 1586 1587 1588
          1589 1590 1591 1592 1593 1594
          1709 1712 1715 1724 1725 1728
          1732 1733 1734 1735 1736 1737
          1738 1740 1741 1742 1743 1746
          1747 1748 1749 1750 1751 1754
          1756 1757 1758 1759 1760 1761
          1762 1763 1764 1765 1766 1767
          1768 1769 1770 1771 1772 1773
          1774 1775 1776 1777 1778 1779
          1798 1799 1800 1803 1804 1805
          1806 1807 1808 1809 1810 1811
          1812 1813 1814 1815 1816 1817
          1818 1819 1820 1821 1822 1823
          1892 1894 1897 1898 1899 1900
          1901 1902 1903 1904 1905 1906
          1907 1908 1909 1910 1911 1912
          1913 1914 1915 1916 1917 1918
          1919 1920 1921 1922 1923 1924
          1925 1926 1927 2316 2386 2387
          2388 2396 2397 2398 2448 2452
          2456 2458 2460 2461 2462 2466
          2468 2470 2471 2472 2475 2480
          2481 2482 2490 2491 2492 2493
          2494 2495 2496 2499 2510 2511
          2512 2513 2514 2515 2516 2519
          2520 2521 2522 2533 2534 2537
          2539 2541 2542 2543 2544 2545
          2546 2547 2548 2549 2550 2551
          2552 2553 2554 2555 2556 2557
          2558 2559 2560 2561 2562 2563
          2564 2565 2566 2567 2568 2569
          2570 2571 2604 2605 2608 2609
          2610 2611 2612 2613 2614 2615
          2616 2617 2618 2619 2620 2621
          2622 2623 2624 2625 2626 2627
          2628 2629 2630 2631 2632 2633
          2634 2635 2636 2637 2638 2639
          2696 2697 2700 2701 2702 2703
          2704 2705 2706 2707 2708 2709
          2710 2711 2712 2713 2714 2715
          2716 2717 2718 2719 2720 2721
          2722 2723 2724 2725 2726 2727
          2728 2729 2730 2731 2732 2733
          2734 2735 2736 2737 2738 2739
          2740 2741 2742 2743 2744 2745
          2746 2747 2748 2749 2750 2751
          2752 2753 2754 2755 2756 2757
          2758 2759 2760 2761 2762 2763
          2764 2765 4067 4068 4071 4072
          4073 4074 4076 4079 4081 4082
          4083 4084 4085 4086 4087 4088
          4089 4090 4091 4092 4093 4094
          4097 4098 4103 4105 4106 4107
          4108 4109 4110 4111 4112 4113
          4114 4117 4118 4120 4123 4125
          4126 4127 4128 4129 4130 4131
          4132 4133 4134 4136 4140 4142
          4143 4144 4145 4146 4147 4148
          4224 4225 4226 4227 4230 4231
          4232 4251 4252 4254 4255 4256
          4275 4276 4277 4278 4279 4280
          4281 4282 4283 4284 4285 4286
          4287 4288 4289 4290 4291 4292
          4293 4294 4295 4296 4297 4298
          4299 4300 4301 4302 4303 4304
          4305 4306 4307 4308 4309 4310
          4311 4312 4313 4314 4315 4316
          4317 4318 4319 4320 4321 4322
          4323 4324 4325 4326 4327 4328
          4329 4330 4331 4332 4333 4334
          4335 4336 4337 4338 4339 4340
          4341 4342 4343 4344 4345 4346
          4347 4348 4349 4400 4401 4402
          4403 4404 4405 4406 4423 4424
          4427 4429 4431 4432 4433 4434
          4435 4436 4437 4438 4439 4440
          4474 4475 4478 4480 4482 4483
          4484 4485 4486 4487 4488 4489
          4490 4491 4492 4493 4494 4495
          4496 4497 4498 4499 4500 4501
          4502 4503 4504 4505 4506 4507
          4508 4509 4510 4511 4512 4513
          4514 4515 4516 4517 4518 4519
          4520 4521 4522 4523 4524 4525
          4687 4688 4689 4690 4691 4692
          4693 4694 4695 4696 4697 4698
          4699 4700 4701 4702 4703 4704
          4705 4706 4707 4708 4709 4710
          4711 4712 4713 4714 4715 4716
          4717 4718 4719 4720 4738 4739
          4740 4741 4742 4743 4744 4745
          4746 4747 4748 4749 4750 4751
          4752 4753 4754 4755 4756 4757
          4760 4761 4765 4766 4767 4768
          4769 4770 4771 4779 4780 4781
          4782 4783 4784 4785 4786 4787
          4788 4789 4790 4791 4792 10290
          10291 10292 10293 10294 10295 10296
          10297 10298 10299 10300 10301 10302
          10303 10314 10315 10316 10317 10318
          10319 10320 10321 10322 10323 10334
          10335 10336 10337 10338 10339 10340
          10341 10342 10343 10351 10352 10353
          10354 10355 10356 10357 10358 10359
          10360 10361 10362 10363 10364 10365
          10366 10367 10368 10369 10370 10371
          10372 10373 10374 10375 10376 10377
          10378 10379 10380 10381 10382 10383
          10384 10385 10386 10387 10388 10389
          10390 10391 10392 10393 10394 10395
          10396 10397 10398 10399 10400 10401
          10402 10403 10404 10405 10406 10407
          10408 10409 10410 10411 10412 10413
          10414 10415 10416 10417 10418 10419
          10420 10421 10422 10423 10424 10425
          10426 10427 10428 10429 10430 10431
          10432 10433 10434 10435 10436 10437
          10438 10439 10450 10451 10452 10453
          10456 10457 10458 10487 10488 10490
          10491 10492 10508 10509 10510 10511
          10512 10513 10514 10515 10516 10517
          10518 10519 10520 10521 10522 10523
          10524 10525 10526 10527 10528 10529
          10530 10531 10532 10533 10534 10537
          10538 10541 10543 10545 10546 10547
          10548 10549 10550 10551 10552 10553
          10554 10565 10566 10567 10568 10569
          10570 10573 10582 10583 10584 10585
          10587 10601 10602 10604 10607 10617
          10619 10621 10623 10624 10625 10626
          10627 10628 10629 10630 10631 10632
          10633 10634 10635 10636 10637 10638
          10639 10640 10641 10642 10643 10644
          10645 10646 10647 10648 10649 10650
          10651 10652 10653 10654 10655 10656
          10657 10658 10659 10660 10661 10662
          10663 10664 10665 10666 10667 10668
          10669 10670 10671 10672 10673 10674
          10675 10676 10677 10678 10679 10680
          10681 10682 10683 10684 10685 10686
          10687 10688 10689 10690 10698 10699
          10701 10703 10727 10729 10731 10747
          10748 10749 10750 10751 10752 10753
          10754 10755 10756 10757 10758 10759
          10760 10762 10764 10766 10768 10769
          10770 10771 10772 10773 10774 10775
          10776 10777 10778 10779 10780 10781
          10782 10783 10784 10785 10786 10787
          10788 10790 10792 10794 10796 10797
          10798 10799 10800 10801 10802 11289
          11290 11293 11295 11297 11298 11299
          11300 11301 11302 11303 11304 11305
          11306 11384 11386 11388 11390 11391
          11392 11393 11394 11395 11396 11415
          11417 11419 11421 11422 11423 11424
          11425 11426 11427 11493 11494 11495
          11496 11497 11498 11499 11500 11501
          11502 11503 11504 11505 11506 11507
          11508 11509 11510 11511 11512 11513
          11514 11515 11516 11517 11518 11519
          11520 11521 11522 11523 11524 11525
          11526 11527 11528 11529 11530 11531
          11532 11533 11534 11535 11536 11537
          11538 11539 11540 11541 11542 11543
          11544 11545 11546 11547 11548 11549
          11550 11551 11552 11553 11554 11555
          11556 11557 11558 11559 11560 11561
          11562 11563 11564 11565 11566 11567
          11568 11569 11570 11571 11572 11573
          11574 11575 11576 11577 11578 11579
          11580 11581 11582 11583 11584 11585
          11586 11587 11588 11589 11590 11591
          11592 11593 11594 11595 11596 11597
          11598 11599 11600 11601 11602 11603
          11604 11605 11606 11607 11608 11609
          11610 11611 11612 11613 11614 11615
          11616 11617 11618 11619 11620 11621
          11622 11623 11624 11625 11626 11627
          11628 11629 11630 11631 11632 11633
          11634 11635 11636 11637 11638 11639
          11640 11641 11642 11643 11644 11645
          11646 11647 11648 11649 11650 11651
          11652 11653 11654 11655 11656 11657
          11658 11659 11660 11661 11662 11663
          11664 11665 11666 11667 11668 11669
          11670 11671 11672 11673 11674 11675
          11676 11677 11678 11679 11680 11681
          11682 11683 11684 11685 11686 11687
          11688 11689 11690 11691 11692 11693
          11694 11695 11696 11697 11698 11699
          11700 11701 11702 11703 11704 11705
          11706 11707 11708 11709 11710 11711
          11712 11713 11714 11715 11716 11717
          11718 11719 11720 11721 11722 11723
          11724 11725 11726 11727 11728 11729
          11730 11731 11732 11733 11734 11735
          11736 11737 11738 11739 11740 11741
          11742 11743 11744 11745 11746 11747
          11748 11749 11750 11751 11752 11753
          11754 11755 11756 11757 11758 11759
          11760 11761 11762 11763 11764 11765
          11766 11767 11768 11769 11770 11771
          11772 11773 11774 11775 11776 11777
          11778 11779 11780 11781 11782 11783
          11784 11785 11786 11787 11788 11789
        </DataArray>
        <DataArray type="Float64" Name="bounds" format="ascii" RangeMin="0" RangeMax="0">
          0 0 0 0 0 0
          0 0 0 0 0 0
          0 0 0 0 0 0
          0 0 0 0 0 0
          0 0 0 0 0 0
          0 0 0 0 0 0
          0 0 0 0 0 0
          0 0 0 0 0 0
          0 0 0 0 0 0
          0 0 0 0 0 0
          0 0 0 0 0 0
          0 0 0 0 0 0
          0 0 0 0 0 0
          0 0 0 0 0 0
          0 0 0 0 0 0
          0 0 0 0 0 0
          0 0 0 0 0 0
          0 0 0 0 0 0
          0 0 0 0 0 0
          0 0 0 0 0 0
          0 0 0 0 0 0
          0 0 0 0 0 0
          0 0 0 0 0 0
          0 0 0 0 0 0
          0 0 0 0 0 0
          0 0 0 0 0 0
          0 0 0 0 0 0
          0 0 0 0 0 0
          0 0 0 0 0 0
          0 0 0 0 0 0
          0 0 0 0 0 0
          0 0 0 0 0 0
          0 0 0 0 0 0
          0 0 0 0 0 0
          0 0 0 0 0 0
          0 0 0 0 0 0
          0 0 0 0 0 0
          0 0 0 0 0 0
          0 0 0 0 0 0
          0 0 0 0 0 0
          0 0 0 0 0 0
          0 0 0 0 0 0
          0 0 0 0 0 0
          0 0 0 0 0 0
          0 0 0 0 0 0
          0 0 0 0 0 0
          0 0 0 0 0 0
          0 0 0 0 0 0
          0 0 0 0 0 0
          0 0 0 0 0 0
          0 0 0 0 0 0
          0 0 0 0 0 0
          0 0 0 0 0 0
          0 0 0 0 0 0
          0 0 0 0 0 0
          0 0 0 0 0 0
          0 0 0 0 0 0
          0 0 0 0 0 0
          0 0 0 0 0 0
          0 0 0 0 0 0
          0 0 0 0 0 0
          0 0 0 0 0 0
          0 0 0 0 0 0
          0 0 0 0 0 0
          0 0 0 0 0 0
          0 0 0 0 0 0
          0 0 0 0 0 0
          0 0 0 0 0 0
          0 0 0 0 0 0
          0 0 0 0 0 0
          0 0 0 0 0 0
          0 0 0 0 0 0
          0 0 0 0 0 0
          0 0 0 0 0 0
          0 0 0 0 0 0
          0 0 0 0 0 0
          0 0 0 0 0 0
          0 0 0 0 0 0
          0 0 0 0 0 0
          0 0 0 0 0 0
          0 0 0 0 0 0
          0 0 0 0 0 0
          0 0 0 0 0 0
          0 0 0 0 0 0
          0 0 0 0 0 0
          0 0 0 0 0 0
          0 0 0 0 0 0
          0 0 0 0 0 0
          0 0 0 0 0 0
          0 0 0 0 0 0
          0 0 0 0 0 0
          0 0 0 0 0 0
          0 0 0 0 0 0
          0 0 0 0 0 0
          0 0 0 0 0 0
          0 0 0 0 0 0
          0 0 0 0 0 0
          0 0 0 0 0 0
          0 0 0 0 0 0
          0 0 0 0 0 0
          0 0 0 0 0 0
          0 0 0 0 0 0
          0 0 0 0 0 0
          0 0 0 0 0 0
          0 0 0 0 0 0
          0 0 0 0 0 0
          0 0 0 0 0 0
          0 0 0 0 0 0
          0 0 0 0 0 0
          0 0 0 0 0 0
          0 0 0 0 0 0
          0 0 0 0 0 0
          0 0 0 0 0 0
          0 0 0 0 0 0
          0 0 0 0 0 0
          0 0 0 0 0 0
          0 0 0 0 0 0
          0 0 0 0 0 0
          0 0 0 0 0 0
          0 0 0 0 0 0
          0 0 0 0 0 0
          0 0 0 0 0 0
          0 0 0 0 0 0
          0 0 0 0 0 0
          0 0 0 0 0 0
          0 0 0 0 0 0
          0 0 0 0 0 0
          0 0 0 0 0 0
          0 0 0 0 0 0
          0 0 0 0 0 0
          0 0 0 0 0 0
          0 0 0 0 0 0
          0 0 0 0 0 0
          0 0 0 0 0 0
          0 0 0 0 0 0
          0 0 0 0 0 0
          0 0 0 0 0 0
          0 0 0 0 0 0
          0 0 0 0 0 0
          0 0 0 0 0 0
          0 0 0 0 0 0
          0 0 0 0 0 0
          0 0 0 0 0 0
          0 0 0 0 0 0
          0 0 0 0 0 0
          0 0 0 0 0 0
          0 0 0 0 0 0
          0 0 0 0 0 0
          0 0 0 0 0 0
          0 0 0 0 0 0
          0 0 0 0 0 0
          0 0 0 0 0 0
          0 0 0 0 0 0
          0 0 0 0 0 0
          0 0 0 0 0 0
          0 0 0 0 0 0
          0 0 0 0 0 0
          0 0 0 0 0 0
          0 0 0 0 0 0
          0 0 0 0 0 0
          0 0 0 0 0 0
          0 0 0 0 0 0
          0 0 0 0 0 0
          0 0 0 0 0 0
          0 0 0 0 0 0
          0 0 0 0 0 0
          0 0 0 0 0 0
          0 0 0 0 0 0
          0 0 0 0 0 0
          0 0 0 0 0 0
          0 0 0 0 0 0
          0 0 0 0 0 0
          0 0 0 0 0 0
          0 0 0 0 0 0
          0 0 0 0 0 0
          0 0 0 0 0 0
          0 0 0 0 0 0
          0 0 0 0 0 0
          0 0 0 0 0 0
          0 0 0 0 0 0
          0 0 0 0 0 0
          0 0 0 0 0 0
          0 0 0 0 0 0
          0 0 0 0 0 0
          0 0 0 0 0 0
          0 0 0 0 0 0
          0 0 0 0 0 0
          0 0 0 0 0 0
          0 0 0 0 0 0
          0 0 0 0 0 0
          0 0 0 0 0 0
          0 0 0 0 0 0
          0 0 0 0 0 0
          0 0 0 0 0 0
          0 0 0 0 0 0
          0 0 0 0 0 0
          0 0 0 0 0 0
          0 0 0 0 0 0
          0 0 0 0 0 0
          0 0 0 0 0 0
          0 0 0 0 0 0
          0 0 0 0 0 0
          0 0 0 0 0 0
          0 0 0 0 0 0
          0 0 0 0 0 0
          0 0 0 0 0 0
          0 0 0 0 0 0
          0 0 0 0 0 0
          0 0 0 0 0 0
          0 0 0 0 0 0
          0 0 0 0 0 0
          0 0 0 0 0 0
          0 0 0 0 0 0
          0 0 0 0 0 0
          0 0 0 0 0 0
          0 0 0 0 0 0
          0 0 0 0 0 0
          0 0 0 0 0 0
          0 0 0 0 0 0
          0 0 0 0 0 0
          0 0 0 0 0 0
          0 0 0 0 0 0
          0 0 0 0 0 0
          0 0 0 0 0 0
        </DataArray>
        <DataArray type="Float64" Name="gradient_error" format="ascii" RangeMin="1.3531944287468374e-14" RangeMax="4.3836316742261634e-10">
          1.2548873026568796e-10 1.1499372061957295e-10 1.4246568869459312e-11 9.051186543322651e-12 1.5050504638271002e-12 1.2021617296438208e-12
          6.621099078965439e-11 3.1926958412771934e-12 6.218135711516788e-13 2.7923270605850833e-11 2.529587465368396e-12 3.4435414684281595e-13
          1.298271329254102e-10 2.1252667216019545e-10 1.3001092722116187e-11 1.674530772416818e-11 1.3694043315633672e-12 1.6301290255592142e-12
          2.6110119485807886e-13 2.7873489084642627e-13 1.877176536067294e-10 1.620740420848947e-11 1.5156394232176401e-12 2.3734236375766943e-13
          7.697911895927306e-11 1.1328543995466187e-11 1.0965385917217118e-12 1.7831614068056518e-13 3.400973441516959e-10 5.248791288595948e-12
          1.804193480037675e-11 2.233746745721881e-13 1.0565963617943964e-12 1.5444998093749327e-13 2.6680477612326933e-13 5.5907918628538294e-14
          6.160795191266389e-14 1.881543325886382e-10 2.085497005492507e-11 1.5443510898026057e-12 3.0103285406887867e-13 1.3935573714146702e-10
          2.1637555536500285e-11 1.5804969542019437e-12 2.3332975804788745e-13 6.3899127357630194e-12 9.36952354422042e-14 5.446952870728936e-13
          5.004078512266664e-14 2.2443967278781629e-13 5.343239894980591e-14 4.9818584899306e-14 1.2302699930829414e-10 1.4391763492918615e-11
          1.0518024159248266e-12 2.9333160633575783e-13 1.6931585972625417e-10 2.473851294369745e-11 1.5999840549453887e-12 2.327045504288669e-13
          3.948648046312713e-11 4.0365770876723296e-11 4.3836316742261634e-10 6.437019281225612e-12 1.756573127193154e-11 5.09238274563113e-11
          1.826127692394647e-10 1.486025296512519e-11 6.1986888018809e-11 1.1032811968082576e-12 1.1219286595413806e-12 1.146385956425002e-12
          9.874443179318464e-13 3.564605174257073e-13 7.854713388564837e-14 2.5234416417302514e-13 1.8143788775947728e-12 2.393311545655404e-12
          5.879096630231904e-13 2.284359043371426e-12 7.397890361050102e-13 1.0101714668759436e-13 2.6983920811997104e-12 6.768335924550519e-14
          7.931153711300824e-14 4.064596878718325e-14 7.899688350500048e-14 4.204433099019402e-14 1.7698446816987468e-14 5.056201714132155e-14
          9.093971498051127e-14 1.1709050186687886e-13 8.342558746565565e-14 1.5703602193469412e-14 7.851148085551278e-14 5.907970329244909e-14
          1.4324128875324647e-13 3.8287047088590673e-10 2.2756940610446283e-10 6.267240901227402e-11 6.455492285025574e-11 4.03230716159796e-11
          1.4177060707847381e-11 9.513203011578159e-12 1.1534001520108131e-11 1.590966175563206e-11 3.2598934126182457e-12 1.3154352030474219e-11
          4.510112645688975e-12 2.028532199115599e-11 1.9222720343838337e-12 2.23177332119139e-12 5.509866607577284e-13 6.692681250683452e-13
          4.5075873141628185e-13 5.007851196471279e-13 3.8313109361628414e-13 2.5412746079989463e-12 7.87549589378962e-13 5.50811507877974e-13
          1.4506896237775729e-10 3.094214991462325e-11 9.712290878724143e-11 2.3250391811254942e-10 3.124169477706972e-10 1.4638832818247717e-10
          6.966655622893708e-11 6.246412915373365e-11 1.2540231112491457e-11 9.404682473597537e-12 5.3164795184283726e-11 4.13036582451318e-11
          1.0152793404507031e-11 1.1363108242140766e-11 1.6422655344004934e-11 7.107835901300293e-12 5.7527655304736534e-12 9.49242783838861e-13
          2.552478195931916e-13 3.0574152601022743e-13 3.5098998428318553e-12 2.4997410150652092e-12 5.957343761182103e-13 6.206600908810452e-13
          1.9604832331640569e-13 1.8570641000658715e-13 9.482307538268945e-14 9.483987355831659e-14 8.108482029136253e-14 5.868981833951036e-14
          5.499526976098104e-14 1.9376139577400675e-13 2.0876418758907616e-13 8.467331728406226e-14 9.158721278570373e-14 2.200346508828412e-13
          6.779779615202144e-14 3.0375056576904874e-13 2.5500695932974533e-12 2.445467989584153e-12 9.76577367896743e-13 8.118129247228963e-13
          2.443047361128744e-12 3.608824563677027e-12 7.384309498996417e-13 2.9940951559426404e-12 6.662708524956719e-13 4.3060451426539405e-12
          5.123175823772878e-11 1.2442897072431994e-10 1.107003145346775e-10 9.697165834503507e-11 1.934386199988511e-11 1.5573613848622687e-11
          2.8252420299744857e-11 2.173830890044193e-11 4.1073806516928285e-12 5.126836690662438e-12 4.747944857711782e-12 1.1803365697360265e-11
          1.5224197501139005e-11 4.369053024761126e-12 1.1063909729601927e-12 8.543691094090511e-13 1.2731281330724085e-12 1.0773800784166403e-12
          4.271362554239594e-13 3.855320815682902e-13 3.7596163430505263e-13 6.023472458579097e-13 8.81632023760872e-13 3.6639118704181504e-13
          4.797045680062593e-11 2.6024865290751373e-10 3.063892773944315e-10 2.3082867817323735e-11 2.0419705310229937e-11 2.9966161237328795e-11
          6.508717835227765e-11 6.357484651624658e-12 2.2252867164593424e-11 2.1817359381342585e-11 1.5630827898501425e-11 8.109570755704929e-11
          1.806313538699999e-11 1.7482886594008996e-12 2.203689011062686e-12 6.318544263880829e-12 5.746593606403366e-12 7.887033929818197e-13
          1.3760085403014724e-12 1.2288089604663608e-12 2.5026375631746128e-12 4.125555100039102e-12 1.0747137280040327e-12 2.0869213414554577e-13
          2.686767675488069e-13 1.501843410208505e-13 1.541673724322596e-13 1.8692764176098408e-13 2.007974738464299e-13 1.5539326474296924e-13
          3.286614009520681e-13 1.581504038436687e-13 2.1466730593187572e-13 3.5835126096148495e-10 1.2186209762527947e-10 1.4028873177293288e-10
          5.537304200281636e-11 1.765058876063283e-11 2.0242301106958482e-11 7.019016906931612e-12 3.877206190582357e-10 2.109809840157033e-10
          1.5072344560407477e-10 6.01589779824276e-11 1.097903893677044e-10 8.377556342834069e-11 3.315153438064304e-11 2.225801834254522e-11
          7.617063220630367e-12 1.6589335607021974e-11 1.496024601688079e-11 1.058584755095382e-11 1.1698233882445462e-11 2.986997910154393e-12
          2.198665039071609e-12 1.9311153819367282e-12 4.258586120709417e-12 3.276751722201472e-12 1.3655993882619e-12 1.6028423907548366e-12
          2.145878315316468e-12 2.8032844395736496e-12 1.7998816358405304e-12 3.5471286945282993e-12 6.452875263103849e-13 5.151776564156412e-13
          4.283754837859164e-12 3.0411795293706453e-12 2.873383097279119e-13 6.924597563025573e-13 4.903972360038368e-13 2.096308543410972e-13
          1.3237074248412253e-11 1.0030990946525168e-11 1.69370324199225e-12 2.7289633138912374e-13 4.0316318218685585e-13 5.230111732564879e-13
          6.845861129710654e-13 1.6577518582178774e-13 1.4475441771925482e-13 1.2885806316304088e-13 1.3334344542478284e-13 8.419182454525902e-14
          1.400866524459782e-13 1.5617017014810457e-13 1.298582915142463e-13 1.8724510925680416e-13 1.5124966275596057e-13 3.1641064418713944e-13
          2.310983868896063e-13 2.886146709547995e-13 2.209898008994181e-13 1.4509350783386131e-13 3.040243845376741e-13 8.960965094312348e-14
          1.2244633059998462e-13 1.5780219124656988e-13 4.632690323599563e-13 1.213407379175672e-13 4.430532706397337e-13 1.3547496122895958e-13
          6.813145931496199e-13 3.142223202825435e-12 3.793489586573649e-12 2.0845896625655273e-12 1.8331881140272156e-12 2.4591971899466664e-12
          4.747814439879842e-12 1.3402024821925807e-12 3.4039376605690713e-11 1.1972768038388066e-10 8.59768788831255e-11 1.1134633449477264e-11
          4.177402987083583e-11 5.297524174614003e-12 1.028936600930371e-11 8.76415390508782e-12 1.9495030926417727e-11 5.834312842699192e-12
          2.5000932820752745e-13 2.2582270278672045e-13 2.84207516254496e-13 2.5899786057180315e-13 9.425978616316912e-14 9.642970615380396e-14
          1.0615816007634404e-13 2.0163607736591345e-13 2.3378820488911046e-13 1.1588661399888412e-13 1.764633639724831e-14 1.709457971279663e-14
          3.569071150651398e-14 2.897865361473756e-14 1.3531944287468374e-14 1.5112375440198758e-14 1.4408707178292464e-14 1.6542823028344947e-14
          2.2266595722961144e-14 1.3705038916386172e-14 5.373508661577965e-14 4.0862727516678495e-14 1.5285470069116558e-14 2.799036841757734e-14
          1.5177323682180153e-10 3.067104768187465e-10 1.6978764448012215e-10 5.561857947131265e-11 1.18539615677732e-10 2.2754777293181722e-11
          4.747106434103881e-11 4.211635862618543e-11 6.489325608721741e-11 2.6314244465180606e-11 8.798092969131399e-12 1.765567160656536e-11
          3.531709779002489e-12 6.215952071641014e-12 6.663880550218506e-12 1.0027207176652173e-11 3.683505194635167e-12 9.295416324284998e-13
          8.532129525444038e-13 6.061281026392855e-13 5.496115473216963e-13 2.8593528069807726e-13 2.628480978859475e-13 2.440559809095799e-13
          6.583799608761258e-13 5.013344719537261e-13 2.8443537395683564e-13 4.425084293908702e-13 5.637645709928066e-13 1.7215359377545098e-13
          2.726851461076317e-13 3.451412096897963e-13 6.224521159141783e-13 2.0235033257179227e-13 8.636395527592883e-14 8.042412184726171e-14
          1.597377875464186e-13 1.4690063141444637e-13 6.125424494489238e-14 8.987641867162395e-14 8.069119312761334e-14 6.931208995522882e-14
          1.1375408644563907e-13 5.859842609462585e-14 9.332570301334941e-14 8.08546801857942e-14 8.068080161242591e-14 1.2306430379882779e-13
          3.6935046867427325e-14 6.815061491742168e-14 6.371445098170688e-14 5.465804903929303e-14 1.194570962670367e-13 4.874938726745877e-14
          7.91718233627945e-14 1.716847290975776e-13 9.049385509598643e-14 1.8425614349478038e-13 7.545299817153728e-13 6.288029440744965e-13
          3.527161244224292e-13 4.449980464409889e-13 3.7892007000074187e-13 4.2378645433901157e-13 2.1024027440526196e-13 5.071867713061713e-13
          5.372799684595485e-13 4.686528386772813e-13 1.4101787121898376e-12 1.3356466634086706e-12 6.10441539185981e-13 9.954591595106347e-13
          9.244084956820621e-13 1.141093813256309e-12 7.407828967319905e-13 3.93056021395594e-12 2.6976659748167925e-13 2.5407615052434195e-13
          4.098312787814036e-13 3.801661256149429e-13 2.088559049311265e-13 2.317412479656616e-13 2.1621540422095083e-13 2.860883756209696e-13
          3.652802872615058e-13 2.465499047736303e-13 1.7668005741315206e-12 1.6208031868525902e-12 6.349196679633887e-13 1.252872812811877e-12
          5.013143283060389e-13 6.14198613340792e-13 1.9924531360377606e-12 4.0250059247048113e-13 4.3420873186189843e-13 3.0399580289755074e-13
          2.4777229540382725e-13 4.74664690049918e-13 3.922204904704539e-13 2.0006328489979446e-13 8.196371172308308e-13 3.201483854881365e-13
          4.574521614650224e-13 1.174109377382939e-11 1.0761765740717644e-11 8.272787091467125e-12 1.2403606484930992e-11 4.887925837200291e-12
          4.4768629113459466e-12 1.9308025890824935e-12 1.7673257424975709e-12 3.434845837078446e-12 1.3539486967128727e-12 5.652075479804861e-12
          5.276831450333893e-12 2.1262092438806597e-12 4.232662423621731e-12 5.319035251298074e-12 6.7913113405050725e-12 2.2030501781422427e-12
          8.666104903463389e-13 1.183895018263616e-12 4.634615656264244e-13 2.8417766119617862e-12 1.1288851910509845e-12 1.5757932844379662e-12
          3.724738293739605e-13 2.7782590728959856e-13 1.5531239227857816e-13 2.0015790896245754e-13 1.837298876022312e-13 2.600365312776972e-13
          2.301150196010502e-13 5.370093102175524e-13 3.3013030354347806e-13 4.4090201212538055e-13 7.252069673271065e-13 4.354673998633549e-13
          2.5721477042145757e-13 2.4084720907254324e-13 1.6843775168565414e-13 1.5742001472768757e-13 9.198936807244677e-14 1.0819157235085442e-13
          1.0121527659707775e-13 1.9979464005890938e-13 1.7192527217202252e-13 1.2662113523571386e-13 2.5744358246150245e-13 2.357150723789407e-13
          1.189457363022121e-13 2.1553990510516573e-13 1.5079799898906011e-13 1.6271314816114094e-13 6.106139700379353e-14 1.3145836713294856e-13
          1.041458742457851e-13 1.425938327779954e-13 9.931053530676035e-14 1.767387183117511e-13 1.5724716412995974e-13 1.7751525452783778e-13
          7.237853155543476e-13 6.620180548245481e-13 2.5684590039054175e-13 2.3441288758397545e-13 5.058070111020396e-13 1.7764598605191342e-13
          8.742198240372081e-13 8.11983828326656e-13 2.948516747502518e-13 6.430298508628267e-13 1.4187240702773088e-13 1.3220197341092004e-13
          1.3492055442739553e-13 1.5849240938792784e-13 1.2877573525711716e-13 1.3089769264942035e-13 1.6173905124754857e-13 1.068261886325541e-13
          1.567232843176883e-13 1.9479640217133942e-13 1.0781284442936779e-13 1.7034514405056348e-13 1.6387389234260582e-13 1.9908221169460016e-13
          3.223479458733084e-13 1.832270117621766e-13 2.056316016780764e-13 2.129172353942989e-13 4.267072363552895e-13 2.4200908492756424e-13
          2.30401015932427e-13 1.07443367240538e-13 1.8827880023622564e-13 8.653600338627142e-14 1.6949737762648755e-13 1.162353519048487e-13
          1.9177915656143848e-13 1.1337966735129903e-13 2.3753410907897637e-13 2.094466329359746e-13 2.3983640010187116e-13 2.225926624550645e-13
          3.013695563454187e-13 1.6312329589766722e-13 1.8238415353661374e-13 2.1885187509091307e-13 4.3124203481710986e-13 1.6855950131610964e-13
          3.3147819458900195e-13 1.709458511595565e-13 5.401987050900469e-13 1.7457015989522908e-12 2.31816066853545e-12 7.989818589121613e-13
          9.097945577534875e-13 1.1452174342798287e-12 1.5598540859186015e-12 7.586666927573751e-13 3.2001066736850804e-11 3.7397894511100535e-11
          8.96025042102169e-12 4.2794722285350273e-11 9.424724451459195e-12 1.1933244984235258e-11 6.241113481025927e-12 5.794767638839735e-12
          5.924528186224709e-12 4.507146548725494e-12 2.7668077253120098e-12 1.4441765517011324e-11 5.348421796653544e-12 3.089764911226278e-12
          7.89864198571203e-11 9.139531016737592e-11 4.646143993544663e-11 1.038042004776316e-10 3.7515896987925057e-11 3.985809466420337e-11
          1.564997449901613e-11 1.5760956823037e-11 2.4159034714610568e-11 1.9944483706824005e-11 8.601966908920402e-12 4.2200292340481694e-11
          1.587193914705787e-11 1.5729932699037443e-11 5.285073271707523e-12 5.539012340069729e-12 3.321934923849652e-12 3.0235226600293363e-12
          3.5716696934307122e-12 3.3365074842889435e-12 2.1957330240773286e-12 5.7929514084319345e-12 2.725110396209021e-12 3.1013452751471743e-12
          5.764427861520535e-14 7.710474296975074e-14 4.6722105585748926e-14 4.432656120610084e-14 5.114866573854767e-14 6.076478833069747e-14
          4.2962237806552716e-14 3.3270146776918086e-14 5.282279674858351e-14 1.822831688853619e-14 2.871515796150266e-14 2.5607852833489126e-14
          3.17156936203682e-14 1.920982843407984e-14 7.237544672024893e-14 3.920199903446912e-14 3.7823534407247276e-14 1.2423624445478666e-12