<?xml version="1.0"?>
<VTKFile type="UnstructuredGrid" version="0.1" byte_order="LittleEndian" header_type="UInt32" compressor="vtkZLibDataCompressor">
  <UnstructuredGrid>
    <Piece NumberOfPoints="1305" NumberOfCells="873">
      <PointData>
        <DataArray type="Int32" Name="libmesh_node_id" format="ascii" RangeMin="1637" RangeMax="12370">
          1935 1940 1943 1945 1957 1961
          1963 1965 2667 2668 2673 2674
          2675 2676 2677 2678 2679 2680
          2681 2682 2683 2688 2689 2693
          2708 2709 2710 2711 2712 2713
          2714 2715 2716 2719 2720 2722
          2724 2745 2747 2748 2749 2751
          2753 2959 2960 2963 2964 2980
          2981 2984 2985 2987 2989 4150
          4151 4152 4155 4160 4161 4164
          4165 4166 4167 4168 4169 4170
          4171 4172 4173 4174 4175 4198
          4199 4202 4204 4205 4206 4209
          4232 4233 4236 4239 4240 4243
          4326 4327 4328 4329 4330 4331
          4332 4333 4334 4335 4336 4337
          4338 4339 4340 4341 4342 4343
          4344 4345 4346 4347 4349 4350
          4351 4353 4354 4355 4356 4357
          4358 4359 4360 4361 4362 4363
          4364 4365 4366 4367 4368 4369
          4370 4371 4372 4373 4374 4375
          4376 4377 4378 4380 4381 4382
          4384 4385 4386 4387 4388 4389
          4390 4391 4392 4393 4394 4395
          4396 4397 4398 4399 4400 4411
          4412 4413 4414 4415 4416 4417
          4418 4419 4420 4421 4422 4423
          4424 4425 4426 4427 4435 4436
          4437 4438 4439 4440 4441 4442
          4443 4446 4447 4449 4451 4522
          4523 4526 4528 4530 4531 4532
          4533 4534 4535 4536 4537 4538
          4539 4724 4725 4726 4727 4728
          4729 4730 4963 4964 4965 4966
          4967 4968 4969 4970 4971 4972
          4973 4974 4975 4976 4977 4978
          4979 4980 4981 4982 4983 5031
          5033 5034 5035 5036 5037 5038
          5039 5040 5041 5042 5043 5044
          5140 5141 5142 5143 5144 5145
          5146 5154 5155 5156 5157 5158
          5159 5160 5161 5162 5163 9128
          9152 9156 10209 10210 10211 10214
          10224 10235 10236 10237 10238 10239
          10240 10241 10242 10243 10244 10397
          10398 10401 10404 10405 10408 10425
          10426 10429 10432 10433 10436 10450
          10458 10459 10460 10463 10466 10467
          10468 10469 10470 10472 10473 10484
          10490 10491 10494 10496 10497 10498
          10501 10654 10655 10656 10657 10658
          10661 10662 10665 10680 10681 10682
          10683 10684 10685 10686 10689 10690
          10693 10710 10711 10714 10717 10718
          10721 10738 10739 10742 10745 10746
          10749 10918 10919 10923 10934 10935
          10938 10939 10941 10943 11284 11285
          11286 11287 11288 11289 11290 11291
          11292 11293 11294 11295 11296 11297
          11298 11299 11300 11301 11302 11303
          11304 11305 11306 11307 11308 11309
          11310 11311 11312 11313 11314 11315
          11316 11317 11318 11319 11320 11321
          11322 11323 11324 11325 11326 11327
          11328 11329 11330 11331 11332 11333
          11334 11335 11336 11337 11338 11339
          11340 11341 11342 11343 11344 11345
          11346 11347 11348 11349 11350 11351
          11352 11353 11354 11355 11356 11357
          11358 11359 11360 11361 11362 11363
          11364 11365 11366 11367 11368 11369
          11370 11371 11372 11373 11374 11375
          11376 11377 11378 11379 11380 11381
          11382 11383 11384 11385 11386 11387
          11388 11389 11390 11391 11392 11393
          11394 11395 11396 11397 11398 11399
          11400 11401 11402 11403 11404 11405
          11406 11407 11408 11409 11410 11411
          11412 11413 11414 11415 11416 11417
          11418 11419 11420 11421 11422 11423
          11424 11425 11426 11427 11428 11429
          11430 11431 11432 11433 11434 11435
          11436 11437 11438 11439 11440 11441
          11442 11443 11444 11445 11446 11447
          11448 11449 11450 11451 11452 11453
          11454 11455 11456 11457 11458 11459
          11461 11462 11463 11464 11465 11466
          11467 11468 11469 11470 11471 11472
          11473 11474 11475 11476 11477 11478
          11479 11480 11481 11482 11483 11484
          11485 11486 11487 11488 11489 11490
          11491 11492 11493 11494 11495 11496
          11497 11498 11499 11500 11501 11502
          11503 11504 11505 11506 11507 11508
          11509 11510 11511 11512 11513 11514
          11515 11516 11517 11518 11519 11520
          11521 11522 11523 11524 11525 11526
          11527 11528 11529 11530 11531 11532
          11533 11534 11535 11536 11537 11538
          11539 11540 11541 11542 11543 11544
          11545 11546 11547 11548 11549 11550
          11551 11552 11553 11554 11555 11556
          11557 11558 11559 11560 11561 11562
          11563 11564 11565 11566 11567 11568
          11569 11570 11571 11572 11573 11574
          11575 11576 11577 11578 11579 11580
          11581 11582 11583 11584 11585 11586
          11587 11588 11589 11590 11591 11592
          11593 11594 11595 11596 11597 11598
          11599 11600 11601 11602 11603 11604
          11605 11606 11607 11608 11609 11610
          11611 11612 11613 11614 11615 11616
          11617 11618 11619 11620 11621 11622
          11623 11624 11625 11626 11627 11628
          11631 11632 11634 11635 11636 11637
          11638 11639 11640 11641 11642 11643
          11644 11645 11646 11647 11648 11649
          11650 11651 11652 11653 11654 11655
          11656 11659 11660 11662 11663 11664
          11665 11666 11667 11668 11669 11670
          11671 11672 11673 11674 11675 11676
          11677 11678 11679 11680 11681 11682
          11683 11684 11685 11686 11687 11688
          11689 11690 11691 11692 11693 11694
          11695 11696 11697 11698 11699 11700
          11701 11702 11703 11704 11705 11706
          11707 11708 11709 11710 11711 11712
          11713 11714 11715 11716 11717 11718
          11719 11720 11721 11722 11723 11724
          11725 11726 11727 11728 11729 11730
          11731 11732 11733 11734 11735 11736
          11737 11738 11739 11740 11741 11742
          11743 11744 11745 11746 11747 11748
          11749 11750 11751 11752 11753 11754
          11755 11756 11757 11758 11759 11760
          11761 11762 11763 11764 11765 11766
          11767 11768 11769 11770 11771 11772
          11773 11774 11775 11776 11777 11778
          11779 11780 11781 11782 11783 11786
          11787 11789 11791 11802 11803 11804
          11805 11806 11807 11808 11809 11811
          11812 11813 11814 11815 11816 11817
          11818 11819 11820 11821 11822 11823
          11824 11825 11826 11827 11828 11829
          11830 11831 11832 11833 11834 11835
          11836 11837 11838 11839 11840 11841
          11842 11843 11844 11845 11846 11847
          11848 11849 11850 11851 11852 11853
          11854 11855 11856 11857 11858 11859
          11860 11861 11862 11863 11864 11865
          11866 11867 11868 11869 11870 11871
          11872 11873 11874 11875 11876 11877
          11878 11880 11882 11884 11892 11894
          11896 11898 11909 11911 11913 11915
          11923 11925 11927 11929 11937 11938
          11939 11940 11941 11942 11943 11944
          11945 11946 11947 11948 11949 11950
          11951 11952 11953 11954 11955 11956
          11957 11958 11959 11960 11961 11962
          11963 11964 11965 11966 11967 11968
          11969 11970 11971 11972 11973 11974
          11975 11976 11977 11978 11979 11980
          11981 11982 11983 11984 11985 11986
          11987 11988 11989 11990 11991 11992
          11993 11994 11995 11996 11997 11998
          11999 12000 12001 12337 12338 12339
          12340 12341 12342 12343 12344 12345
          12346 12354 12355 12356 12357 12358
          12359 12360 12361 12362 12363 12364
          12365 12366 12367 12368 12369 12370
          1755 1756 1802 1800 1760 1637
          1807 1806 1939 1753 1958 1956
          1941 1959 1948 1960 1949 1952
          1962 1954 1964 2132 2139 2144
          2135 1922 1933 1750 2142 2145
          1936 2618 2601 2619 2669 2622
          2737 2738 2746 2750 2741 2752
          2754 2956 2957 2961 2958 2962
          2965 2701 1938 2717 2982 2721
          2983 2986 1759 2988 3856 3800
          3857 3860 3862 2624 4082 1927
          4083 4348 4086 4286 4401 4278
          4287 4402 4405 4406 4410 2718
          4444 4430 4431 4445 4448 4434
          2723 4450 4520 4524 4521 4525
          4527 4529 4623 2850 2975 2976
          2979 4162 4958 4959 4962 4407
          4498 5032 4499 4502 4352 4504
          4159 5127 5131 4272 4276 5130
          5132 8148 7982 8149 8152 1924
          8154 3996 9154 1930 10936 10920
          10937 10940 4273 10942 4277 10956
          10968 10957 10969 10970 10971 8878
          9685 9687 3962 9689 4064 9700
          9701 9704 9706 4066 8906 9716
          9718 2641 9720 4068 9730 9732
          9734 2654 9816 9817 9820 9822
          9842 9844 9846 4088 9857 9858
          9861 9863 11460 2656 9126 9929
          9931 9933 4098 9943 9945 9947
          4100 9957 9959 9961 4102 9971
          9973 9975 2658 10041 10043 10045
          4112 10055 11629 10057 11630 10059
          11633 4114 4379 10069 10071 10073
          4116 10083 11657 10085 11658 10087
          11661 1758 4383 10948 10949 10950
          10953 10974 4281 10977 10978 10981
          2702 11001 11021 11784 11022 11785
          11788 11025 4291 11790 4408 11810
          11188 11189 11192 4314 11195 11196
          11199 4315 11216 11217 11220 4318
          11223 11224 11227 2707 11244 11245
          11879 11881 11248 4321 11883 4428
          11893 11895 11897 11272 11273 11910
          11912 11276 4325 11914 4432 11924
          11926 11928 12329 12330 12333 12335
          12348 12350 12352
        </DataArray>
        <DataArray type="Float64" Name="bounds" format="ascii" RangeMin="0" RangeMax="0">
          0 0 0 0 0 0
          0 0 0 0 0 0
          0 0 0 0 0 0
          0 0 0 0 0 0
          0 0 0 0 0 0
          0 0 0 0 0 0
          0 0 0 0 0 0
          0 0 0 0 0 0
          0 0 0 0 0 0
          0 0 0 0 0 0
          0 0 0 0 0 0
          0 0 0 0 0 0
          0 0 0 0 0 0
          0 0 0 0 0 0
          0 0 0 0 0 0
          0 0 0 0 0 0
          0 0 0 0 0 0
          0 0 0 0 0 0
          0 0 0 0 0 0
          0 0 0 0 0 0
          0 0 0 0 0 0
          0 0 0 0 0 0
          0 0 0 0 0 0
          0 0 0 0 0 0
          0 0 0 0 0 0
          0 0 0 0 0 0
          0 0 0 0 0 0
          0 0 0 0 0 0
          0 0 0 0 0 0
          0 0 0 0 0 0
          0 0 0 0 0 0
          0 0 0 0 0 0
          0 0 0 0 0 0
          0 0 0 0 0 0
          0 0 0 0 0 0
          0 0 0 0 0 0
          0 0 0 0 0 0
          0 0 0 0 0 0
          0 0 0 0 0 0
          0 0 0 0 0 0
          0 0 0 0 0 0
          0 0 0 0 0 0
          0 0 0 0 0 0
          0 0 0 0 0 0
          0 0 0 0 0 0
          0 0 0 0 0 0
          0 0 0 0 0 0
          0 0 0 0 0 0
          0 0 0 0 0 0
          0 0 0 0 0 0
          0 0 0 0 0 0
          0 0 0 0 0 0
          0 0 0 0 0 0
          0 0 0 0 0 0
          0 0 0 0 0 0
          0 0 0 0 0 0
          0 0 0 0 0 0
          0 0 0 0 0 0
          0 0 0 0 0 0
          0 0 0 0 0 0
          0 0 0 0 0 0
          0 0 0 0 0 0
          0 0 0 0 0 0
          0 0 0 0 0 0
          0 0 0 0 0 0
          0 0 0 0 0 0
          0 0 0 0 0 0
          0 0 0 0 0 0
          0 0 0 0 0 0
          0 0 0 0 0 0
          0 0 0 0 0 0
          0 0 0 0 0 0
          0 0 0 0 0 0
          0 0 0 0 0 0
          0 0 0 0 0 0
          0 0 0 0 0 0
          0 0 0 0 0 0
          0 0 0 0 0 0
          0 0 0 0 0 0
          0 0 0 0 0 0
          0 0 0 0 0 0
          0 0 0 0 0 0
          0 0 0 0 0 0
          0 0 0 0 0 0
          0 0 0 0 0 0
          0 0 0 0 0 0
          0 0 0 0 0 0
          0 0 0 0 0 0
          0 0 0 0 0 0
          0 0 0 0 0 0
          0 0 0 0 0 0
          0 0 0 0 0 0
          0 0 0 0 0 0
          0 0 0 0 0 0
          0 0 0 0 0 0
          0 0 0 0 0 0
          0 0 0 0 0 0
          0 0 0 0 0 0
          0 0 0 0 0 0
          0 0 0 0 0 0
          0 0 0 0 0 0
          0 0 0 0 0 0
          0 0 0 0 0 0
          0 0 0 0 0 0
          0 0 0 0 0 0
          0 0 0 0 0 0
          0 0 0 0 0 0
          0 0 0 0 0 0
          0 0 0 0 0 0
          0 0 0 0 0 0
          0 0 0 0 0 0
          0 0 0 0 0 0
          0 0 0 0 0 0
          0 0 0 0 0 0
          0 0 0 0 0 0
          0 0 0 0 0 0
          0 0 0 0 0 0
          0 0 0 0 0 0
          0 0 0 0 0 0
          0 0 0 0 0 0
          0 0 0 0 0 0
          0 0 0 0 0 0
          0 0 0 0 0 0
          0 0 0 0 0 0
          0 0 0 0 0 0
          0 0 0 0 0 0
          0 0 0 0 0 0
          0 0 0 0 0 0
          0 0 0 0 0 0
          0 0 0 0 0 0
          0 0 0 0 0 0
          0 0 0 0 0 0
          0 0 0 0 0 0
          0 0 0 0 0 0
          0 0 0 0 0 0
          0 0 0 0 0 0
          0 0 0 0 0 0
          0 0 0 0 0 0
          0 0 0 0 0 0
          0 0 0 0 0 0
          0 0 0 0 0 0
          0 0 0 0 0 0
          0 0 0 0 0 0
          0 0 0 0 0 0
          0 0 0 0 0 0
          0 0 0 0 0 0
          0 0 0 0 0 0
          0 0 0 0 0 0
          0 0 0 0 0 0
          0 0 0 0 0 0
          0 0 0 0 0 0
          0 0 0 0 0 0
          0 0 0 0 0 0
          0 0 0 0 0 0
          0 0 0 0 0 0
          0 0 0 0 0 0
          0 0 0 0 0 0
          0 0 0 0 0 0
          0 0 0 0 0 0
          0 0 0 0 0 0
          0 0 0 0 0 0
          0 0 0 0 0 0
          0 0 0 0 0 0
          0 0 0 0 0 0
          0 0 0 0 0 0
          0 0 0 0 0 0
          0 0 0 0 0 0
          0 0 0 0 0 0
          0 0 0 0 0 0
          0 0 0 0 0 0
          0 0 0 0 0 0
          0 0 0 0 0 0
          0 0 0 0 0 0
          0 0 0 0 0 0
          0 0 0 0 0 0
          0 0 0 0 0 0
          0 0 0 0 0 0
          0 0 0 0 0 0
          0 0 0 0 0 0
          0 0 0 0 0 0
          0 0 0 0 0 0
          0 0 0 0 0 0
          0 0 0 0 0 0
          0 0 0 0 0 0
          0 0 0 0 0 0
          0 0 0 0 0 0
          0 0 0 0 0 0
          0 0 0 0 0 0
          0 0 0 0 0 0
          0 0 0 0 0 0
          0 0 0 0 0 0
          0 0 0 0 0 0
          0 0 0 0 0 0
          0 0 0 0 0 0
          0 0 0 0 0 0
          0 0 0 0 0 0
          0 0 0 0 0 0
          0 0 0 0 0 0
          0 0 0 0 0 0
          0 0 0 0 0 0
          0 0 0 0 0 0
          0 0 0 0 0 0
          0 0 0 0 0 0
          0 0 0 0 0 0
          0 0 0 0 0 0
          0 0 0 0 0 0
          0 0 0 0 0 0
          0 0 0 0 0 0
          0 0 0 0 0 0
          0 0 0 0 0 0
          0 0 0 0 0 0
          0 0 0 0 0 0
          0 0 0 0 0 0
          0 0 0 0 0 0
          0 0 0 0 0 0
          0 0 0 0 0 0
          0 0 0 0 0 0
          0 0 0
        </DataArray>
        <DataArray type="Float64" Name="gradient_error" format="ascii" RangeMin="7.387101296442687e-14" RangeMax="1.825813506886053e-10">
          1.1559943728422395e-12 1.6894178838569923e-12 1.2082274393950023e-11 9.48572599983913e-13 2.195127512451741e-12 3.133234127899127e-12
          2.5192499915161794e-12 3.4170270734465225e-12 7.29586336524282e-12 4.69185338391875e-12 3.1908722687601346e-12 4.1565101549283616e-12
          3.1741927426259068e-12 1.3472787523969085e-12 1.5770268809208934e-12 2.1852558837053844e-12 2.76007692168086e-12 1.8263096503880005e-12
          2.4892755889111543e-12 1.5653804389781522e-12 2.6620708754212105e-12 1.5255690596216997e-11 3.933094606979785e-12 4.5092273247709054e-11
          3.698272535934991e-12 9.369254241564332e-13 1.3807090867895952e-12 9.63899055499729e-13 9.86431318924619e-12 2.5715143658926222e-12
          1.2948351225809997e-12 5.783220584945197e-13 3.511820241301284e-13 6.963321028205515e-13 6.497825847337157e-13 5.653161391240969e-13
          8.297252343482637e-13 2.267904144046445e-12 1.0442097013082133e-12 1.0055630546572748e-12 2.3309891938894963e-12 1.3071030010215176e-12
          1.0605135981437608e-12 4.57201874011887e-13 5.75957248158514e-13 3.596277193288108e-13 6.418703983672936e-13 6.605407292011101e-13
          5.826537667863322e-13 3.1650235602884153e-13 3.799663043972374e-13 5.11936638259544e-13 4.434302527656332e-13 4.08552770828241e-12
          3.4150810164063182e-12 3.2239863043462563e-12 3.533900261375706e-12 1.097111900634295e-12 2.339985880772593e-12 1.612686400510021e-12
          2.2691969648707266e-12 2.7864169829359026e-12 4.047740451930566e-12 1.5203628760986108e-12 2.9853894964428683e-12 1.9082383671542923e-12
          3.5115658592216992e-12 2.1812511817526183e-12 3.822293262947824e-12 2.7970504904862658e-12 3.162099640397034e-12 9.258524620607197e-12
          4.914179903598407e-12 2.8289596442436423e-11 1.9506209752443856e-12 2.5120387173866433e-12 1.2366776819873814e-12 7.903766541818918e-12
          6.560243396723779e-11 3.592947455812578e-11 8.154986862442408e-11 1.8846379807954895e-11 9.470594162481129e-12 2.3856218557848715e-11
          5.279057091540274e-12 2.791090158377597e-12 2.713809043234966e-12 1.7596355589262843e-12 1.4807390774256115e-11 7.949953067733084e-12
          6.9245602645902336e-12 1.4568864386992257e-12 1.4211304880669292e-12 9.08140385555865e-13 8.52361035470691e-13 1.571608395291482e-12
          1.2512781955000228e-12 7.895897337124643e-13 4.104416822464446e-12 2.0361685058641985e-12 1.8989807767742027e-12 2.8053297874087403e-12
          2.2596837806942314e-12 2.1303721044218203e-12 1.548024709358765e-12 2.953159768528626e-12 1.6088161763775997e-12 2.9446368475687555e-12
          1.5609997628011765e-12 1.94606196360559e-12 1.3899361654402765e-12 9.885278550498536e-13 9.152078384180793e-13 9.494118782836879e-13
          1.0405480039317961e-12 9.016613000857824e-13 9.830797228966693e-13 6.831790627445488e-13 1.2184282327240456e-12 3.260116332883526e-11
          1.7728796173838752e-11 1.4157186621539147e-11 7.645866813786662e-12 4.175914101438975e-11 2.2852386802363984e-11 1.817863119284043e-11
          9.248664800173437e-12 4.627852052496572e-12 3.96664321974749e-12 1.9766762114997333e-12 1.1988928035864316e-11 6.029600120609479e-12
          5.139350985591079e-12 5.523545246024695e-12 2.9615572369225857e-12 1.3194635509035984e-12 6.96110336772471e-12 3.748791279553086e-12
          1.5237666984010106e-12 7.52415180556076e-13 1.1701264512800791e-12 7.959572921592941e-13 1.938604052707323e-12 9.613058628407822e-13
          1.0579088213207017e-12 6.199572880935053e-13 5.748696140874191e-13 4.258646245857082e-13 3.2887303162142795e-13 7.381068581221399e-13
          6.663163130768521e-13 4.2822963753794835e-13 9.694858948738826e-13 4.429064020650666e-13 5.392594200917107e-13 4.718685533060412e-13
          5.483592879668812e-13 2.2911598101793307e-13 3.7657691440229476e-13 3.354180594078207e-13 5.042464262089471e-13 2.3565143875932875e-13
          5.253151754778516e-13 4.578985362696986e-13 5.55837280860246e-13 2.220731005393326e-12 1.0220626837315926e-12 9.436018473074807e-13
          4.306715629287205e-13 2.9068578408984125e-12 1.3437860566703223e-12 1.2328833424310846e-12 5.825967567652055e-13 5.120726683175356e-13
          6.251768768314361e-13 6.689244962224326e-13 7.287836854446878e-13 6.253338907628113e-13 7.492130897762788e-13 2.6132301149848523e-13
          3.586719733029069e-13 2.3271352437357875e-13 3.736836805210906e-13 4.341942460848354e-13 4.402737961925083e-13 1.5931695474700593e-12
          1.4042895124382171e-12 1.7288474012296169e-12 1.2488907042568455e-12 1.1384597934618546e-12 1.247669153070618e-12 6.864427262327023e-13
          8.689885141208399e-13 6.494579017924642e-13 8.642162745927217e-13 4.722491696995291e-13 1.0612786509923794e-12 9.941406488231038e-13
          9.5993159284725e-13 1.3109244626728232e-12 1.995978774761864e-12 8.861335942641709e-13 1.0693273170388175e-12 1.052883149161603e-12
          1.313088695687154e-12 8.21601454186393e-13 8.618317218388165e-13 1.5977188682731135e-12 4.757742164395099e-13 8.224024174569917e-13
          7.521670453042578e-13 1.2438315964082003e-12 6.249109352459854e-13 1.2733045887719254e-12 2.050800397499716e-12 9.82730311406363e-13
          1.4622153410924199e-12 1.0015205824530079e-12 1.4660065692002552e-12 1.0897893802659152e-12 1.162885323827701e-13 1.7846208105075514e-13
          8.315581431702303e-14 1.1281938991073782e-13 8.824241257030577e-14 1.2328794823389518e-13 8.833589276810322e-14 1.5773911147059926e-12
          9.032341573696966e-13 1.2724372914996566e-12 1.0484759816305066e-12 1.3688880856423189e-12 7.855205821449724e-13 4.701222511804868e-13
          6.557999315833691e-13 3.281506262721943e-13 4.4990302306657453e-13 3.327159326747992e-13 4.3156538996076717e-13 3.242469674532976e-13
          2.5298326731491254e-13 4.0430580121108493e-13 1.8346580365153252e-13 2.746448808816961e-13 2.2161692052627621e-13 3.118057654580535e-13
          2.2709151754930267e-13 3.732717193708239e-13 4.3504432658648824e-13 2.5248372266911427e-13 2.806650522761202e-13 2.608547736072568e-13
          2.7965900421246167e-13 2.1031691197637346e-13 4.968169338021525e-13 3.0884638188312615e-13 2.9846323481766655e-13 1.52892247419218e-10
          1.77974060149744e-10 1.825813506886053e-10 1.5386658181206538e-12 2.1106074031425e-12 1.6534529223154498e-12 3.874904265502918e-12
          2.2888151356727616e-12 1.2982833885842348e-12 1.6806211834145524e-12 1.1469971137334077e-12 1.4241279180889822e-12 1.1956205404756962e-12
          1.4799262429858806e-12 1.2719673818122536e-12 3.0270019121147736e-12 2.524162216776667e-12 2.6102199086581198e-12 7.048623294540884e-12
          5.200441452664601e-12 1.2529521090328978e-11 3.784519187373941e-12 2.7240909201912086e-12 6.777838622579847e-12 2.205985169509453e-11
          1.636998819013671e-11 3.7949660150969993e-11 1.2031843514088544e-11 8.758924122789336e-12 2.0878622183387618e-11 1.027790554337178e-12
          1.3617459457252437e-12 1.938911475024931e-12 1.3705499272924786e-12 3.5298843157947165e-12 5.803529450055224e-13 8.425078238331418e-13
          6.709693651669742e-13 9.63443718297928e-13 6.732586548103959e-13 1.5768800774342761e-12 1.7708919640410943e-12 3.644329419672672e-12
          6.315233184366514e-12 4.5097280007091834e-12 1.1036027997723744e-11 2.8988452105426313e-12 3.189078460568672e-12 2.2330267132311553e-12
          5.603803608658223e-12 6.14158951129746e-11 4.599744079621256e-11 1.1660306567069055e-10 8.792163539796207e-11 8.72059665863804e-11
          3.4089804941806286e-11 2.5001806225669172e-11 4.8813760581712255e-11 1.3638508472063392e-10 1.0330023654476993e-10 1.0361457112537546e-10
          7.823044118735725e-11 1.4022291118726365e-10 1.0642949388872012e-10 1.0784032725777073e-10 5.840825520043668e-11 4.3128339031416114e-11
          6.097913537095379e-11 1.8146091808215218e-11 1.3033541703615442e-11 2.616214012163929e-11 9.26417707439137e-12 6.516473979956185e-12
          1.3431574141367192e-11 3.1497963929302316e-11 2.275424174888299e-11 3.2978549977777207e-11 1.6260092362526042e-11 1.149418859086065e-11
          1.7070074438268028e-11 4.830902570789849e-13 7.095028866539948e-13 1.3508095214999891e-12 4.008581676656884e-13 5.824718624088913e-13
          3.250350827564594e-13 4.652289488345484e-13 1.0920198735613764e-12 8.558634723029654e-13 5.494587161080633e-12 4.04367299666238e-12
          4.157142910034595e-12 3.0558482018588246e-12 9.599321628573197e-12 7.085984433910785e-12 7.1576313031811836e-12 2.101892674162088e-12
          2.9299095364788388e-12 1.4940991547890956e-12 2.1038405612542417e-12 1.6003699932865942e-12 2.2156098004903674e-12 1.5930368306059705e-12
          5.182468373164034e-12 3.754101422682949e-12 3.8572897656921165e-12 2.245333386721973e-12 3.0650209889484166e-12 1.6563912591485133e-12
          2.256395785665219e-12 1.6351104192195142e-12 2.2105520752130896e-12 1.6277945587970435e-12 5.2009738796935484e-12 3.833981964195833e-12
          3.685244447143583e-12 1.216911009363838e-12 1.6490923033430996e-12 8.903730949307235e-13 1.1894256134979377e-12 9.041404386657311e-13
          1.190659968663541e-12 9.469146878549275e-13 2.8047189519594903e-12 2.0249076840448225e-12 1.9804969343066847e-12 1.657059066449732e-11
          1.2283827056041371e-11 1.2098226659850158e-11 8.959200578565116e-12 2.7912374636415823e-11 2.0780555142781295e-11 1.9915945991899905e-11
          9.019992895419614e-12 6.5607271063941384e-12 6.572240768071329e-12 4.775373577710327e-12 1.5319261427591713e-11 1.1182274991094094e-11
          1.0902889946521641e-11 8.600295741921532e-12 6.362777337193036e-12 5.962336944356074e-12 4.405939959099432e-12 1.3815969176863303e-11
          1.0257781170224402e-11 9.340606238248472e-12 4.667541806659077e-12 3.3905642987721575e-12 3.2314282705231405e-12 2.342829466458237e-12
          7.542971262471003e-12 5.492943162165741e-12 5.08457484682646e-12 1.0592047858529448e-12 1.5006229416249159e-12 7.526919635328309e-13
          1.064866207325452e-12 8.146460911681249e-13 1.1371372223097386e-12 8.062153343086839e-13 2.694584383203974e-12 1.9167761867226054e-12
          2.0008178241183518e-12 5.329085595209958e-13 7.494099046468635e-13 3.765766322944049e-13 5.203621771855365e-13 4.1292560032039594e-13
          5.640061442015559e-13 4.2783021471847415e-13 1.3524434837913398e-12 9.412910480515116e-13 1.0006797707803744e-12 6.288286814268484e-13
          8.394694934706145e-13 4.3802622816756774e-13 5.879695376159609e-13 5.517424510872645e-13 7.050649076151057e-13 4.889849140989341e-13
          1.441639109782089e-12 1.0191888083409754e-12 1.1369839217721572e-12 3.1368079119395595e-13 4.1092045647896766e-13 2.6973424996277115e-13
          3.4019424964136855e-13 2.7269149620675295e-13 3.448591341788963e-13 2.9235324602408234e-13 7.143833378935152e-13 5.642832096175331e-13
          5.618036891679546e-13 4.726843873708644e-12 3.3739912530558675e-12 3.4370398298905304e-12 2.4514207366476155e-12 8.082194751799022e-12
          5.783982496033222e-12 5.740251872200522e-12 2.3874315302049065e-12 1.6722618436136237e-12 1.7360176336493078e-12 1.2151328365418059e-12
          4.097926423411e-12 2.87406371255263e-12 2.90539857149318e-12 2.435402531709358e-12 1.733206265502375e-12 1.6762975303165925e-12
          1.1897400472207014e-12 3.961502006871959e-12 2.8293025396985692e-12 2.6636589661952523e-12 1.2247463907954209e-12 8.548796021813665e-13
          8.373321796064547e-13 5.834562601397245e-13 2.0006684778586168e-12 1.4010516220369955e-12 1.3405342434623402e-12 1.1824238658822195e-12
          1.5514469435808378e-12 8.737735974309554e-13 1.1425396364079597e-12 1.0052503418854117e-12 1.268871417029347e-12 9.358066218586793e-13
          2.5385882713368135e-12 1.8689176236008897e-12 1.907890186177728e-12 6.466401220004703e-13 8.294024351516129e-13 5.614799725313566e-13
          6.993295453701354e-13 5.428067944752244e-13 6.808491829014754e-13 5.825330895234261e-13 1.3580764851302392e-12 1.0966513510832301e-12
          1.0241776361921336e-12 4.040352009734059e-12 2.981546047853683e-12 2.6646177521574477e-12 1.962386551146308e-12 6.167843155826182e-12
          4.564291313808079e-12 3.988625175729017e-12 2.1822801072423006e-12 1.5776616390446403e-12 1.4327965189458543e-12 1.0360148315093905e-12
          3.3461873617026787e-12 2.4309213294208065e-12 2.154462957538274e-12 1.3734338404495895e-12 1.7231759612518023e-12 1.0064228363021606e-12
          1.2615234199051674e-12 1.1158212974220453e-12 1.3570880163420064e-12 9.87543251524289e-13 2.5324863690743178e-12 1.85827784689267e-12
          7.276551233210182e-13 9.162843995741376e-13 5.248850912833879e-13 6.615271574371579e-13 5.836545209763403e-13 7.142638597681539e-13
          5.159087722537617e-13 1.3581025246562558e-12 9.83611616913338e-13 9.231432117185065e-13 8.709135223937088e-13 1.1290409150521548e-12
          6.145633389794916e-13 7.980153998239713e-13 5.822233854255199e-13 7.377925111843735e-13 5.801883745659479e-13 1.7528976692679708e-12
          1.2480194030379636e-12 1.1194751422540598e-12 4.2702539540602923e-13 5.551208838753063e-13 2.962759251987681e-13 3.8473979588419633e-13
          3.472996385840581e-13 4.3924020909325955e-13 3.028530503762137e-13 8.743882595245955e-13 6.078343366055895e-13 6.194955939174093e-13
          3.7615126717824985e-13 4.694365736777167e-13 3.2066797885927974e-13 3.904596340016031e-13 3.058036007800729e-13 3.729538581372158e-13
          3.203421487859169e-13 6.98407892139256e-13 5.432501168984611e-13 5.399452532821484e-13 4.4401913785911017e-11 3.3198932181054556e-11
          3.105924654407581e-11 2.3183565787082484e-11 6.274858504577941e-11 4.7098841223328814e-11 4.3525586226256867e-11 2.4568621720656275e-11
          1.799596410971316e-11 1.71312689552282e-11 1.2531734515503982e-11 3.4977859261597106e-11 2.5702263975025518e-11 2.4166319454230682e-11
          2.107485399111186e-11 1.5703846786534836e-11 1.391202170078097e-11 1.0347971617641026e-11 2.918421710098552e-11 2.1814703161223493e-11
          1.8978265834659284e-11 1.1586421409243153e-11 8.46396731861762e-12 7.622682027820683e-12 5.5606456816553345e-12 1.6141285160844624e-11
          1.1822365502760757e-11 1.0456197502961483e-11 7.536164781481146e-11 5.673472260361162e-11 5.2581542026181364e-11 3.9482251641215576e-11
          7.91458713850793e-11 5.965593411075532e-11 5.55607753473688e-11 4.2250958246753386e-11 3.112744848147994e-11 2.9335202482281997e-11
          2.156773030940385e-11 4.447789399974843e-11 3.280458058528874e-11 3.1055275685968306e-11 3.5300439128918365e-11 2.644326601098792e-11
          2.288970377575529e-11 1.710781835499954e-11 3.743356599999363e-11 2.8063247990326057e-11 2.4305885532888654e-11 1.9605461331635992e-11
          1.4386719361226968e-11 1.2658146168992274e-11 9.271500331872131e-12 2.0822171941848565e-11 1.5290547391356004e-11 1.3459153865144288e-11
          1.3046821617817495e-11 9.3618513743727e-12 9.07475462369499e-12 6.504940315743746e-12 1.8687679045513823e-11 1.3444675480231742e-11