<?xml version="1.0"?>
<VTKFile type="UnstructuredGrid" version="0.1" byte_order="LittleEndian" header_type="UInt32" compressor="vtkZLibDataCompressor">
  <UnstructuredGrid>
    <Piece NumberOfPoints="1335" NumberOfCells="824">
      <PointData>
        <DataArray type="Int32" Name="libmesh_node_id" format="ascii" RangeMin="0" RangeMax="13084">
          0 1 2 3 4 5
          6 7 8 9 10 11
          12 13 14 15 16 17
          18 19 20 21 22 23
          24 25 26 27 28 29
          30 31 32 33 34 35
          36 37 38 39 40 41
          42 43 44 45 46 47
          48 49 50 51 52 53
          54 55 56 57 58 59
          60 61 62 63 64 65
          66 67 100 101 102 103
          104 105 106 107 108 109
          110 111 112 113 114 115
          116 117 118 119 120 121
          122 123 124 125 126 127
          128 129 130 131 132 133
          150 151 152 153 154 155
          156 157 158 159 160 161
          162 163 164 165 166 167
          168 169 170 171 172 173
          174 175 176 177 178 179
          180 181 182 183 200 201
          202 203 204 205 206 207
          208 209 210 211 212 213
          214 215 216 217 218 219
          220 221 222 223 224 225
          226 227 228 229 230 231
          232 233 250 251 252 253
          254 255 256 257 258 259
          260 261 262 263 264 265
          266 275 276 277 278 279
          280 281 282 283 284 285
          286 287 288 289 290 291
          300 301 302 303 304 305
          306 307 308 309 310 311
          312 313 314 315 316 317
          318 319 320 321 322 323
          324 325 326 327 328 329
          330 331 332 333 350 351
          352 353 354 355 356 357
          358 359 360 361 362 363
          364 365 366 375 376 377
          378 379 380 381 382 383
          384 385 386 387 388 389
          390 391 400 401 402 403
          404 405 406 407 408 409
          410 411 412 413 414 415
          416 417 418 419 420 421
          422 423 424 425 426 427
          428 429 430 431 432 433
          450 451 452 453 454 455
          456 457 458 459 460 461
          462 463 464 465 466 475
          476 477 478 479 480 481
          482 483 484 485 486 487
          488 489 490 491 500 501
          502 503 504 505 506 507
          508 509 510 511 512 513
          514 515 516 517 518 519
          520 521 522 523 524 525
          526 527 528 529 530 531
          532 533 550 551 552 553
          554 555 556 557 558 559
          560 561 562 563 564 565
          566 575 576 577 578 579
          580 581 582 583 584 585
          586 587 588 589 590 591
          600 601 602 603 604 605
          606 607 608 609 610 611
          612 613 614 615 616 617
          618 619 620 621 622 623
          624 625 626 627 628 629
          630 631 650 651 652 653
          654 655 656 657 658 659
          660 661 662 663 664 665
          675 676 677 678 679 680
          681 682 683 684 685 686
          687 688 689 690 700 701
          702 703 704 705 706 707
          708 709 710 711 712 713
          714 715 716 717 718 719
          720 721 722 723 724 725
          726 727 728 729 750 751
          752 753 754 755 756 757
          758 759 760 761 762 763
          764 775 776 777 778 779
          780 781 782 783 784 785
          786 787 788 789 800 801
          802 803 804 805 806 807
          808 809 810 811 812 813
          814 815 816 817 818 819
          820 821 822 823 824 825
          826 827 828 829 850 851
          852 853 854 855 856 857
          858 859 860 861 862 863
          864 875 876 877 878 879
          880 881 882 883 884 885
          886 887 888 889 900 901
          902 903 904 905 906 907
          908 909 910 911 912 913
          914 915 916 917 918 919
          920 921 922 923 924 925
          926 927 928 929 950 951
          952 953 954 955 956 957
          958 959 960 961 962 963
          964 975 976 977 978 979
          980 981 982 983 984 985
          986 987 988 989 1000 1001
          1002 1003 1004 1005 1006 1007
          1008 1009 1010 1011 1012 1013
          1014 1015 1016 1017 1018 1019
          1020 1021 1022 1023 1024 1025
          1026 1027 1050 1051 1052 1053
          1054 1055 1056 1057 1058 1059
          1060 1061 1062 1063 1075 1076
          1077 1078 1079 1080 1081 1082
          1083 1084 1085 1086 1087 1088
          1100 1101 1102 1103 1104 1105
          1106 1107 1108 1109 1110 1111
          1112 1113 1114 1115 1116 1117
          1118 1119 1120 1121 1122 1123
          1124 1125 1126 1127 1150 1151
          1152 1153 1154 1155 1156 1157
          1158 1159 1160 1161 1162 1163
          1175 1176 1177 1178 1179 1180
          1181 1182 1183 1184 1185 1186
          1187 1188 1200 1201 1202 1203
          1204 1205 1206 1207 1208 1209
          1210 1211 1212 1213 1214 1215
          1216 1217 1218 1219 1220 1221
          1222 1223 1250 1251 1252 1253
          1254 1255 1256 1257 1258 1259
          1260 1261 1275 1276 1277 1278
          1279 1280 1281 1282 1283 1284
          1285 1286 1300 1301 1302 1303
          1304 1305 1306 1307 1308 1309
          1310 1311 1312 1313 1314 1315
          1316 1317 1350 1351 1352 1353
          1354 1355 1356 1357 1358 1375
          1376 1377 1378 1379 1380 1381
          1382 1383 1400 1401 1402 1403
          1404 1405 1406 1407 1408 1409
          1410 1411 1412 1413 1414 1415
          1416 1417 1450 1451 1452 1453
          1454 1455 1456 1457 1458 1475
          1476 1477 1478 1479 1480 1481
          1482 1483 1500 1501 1502 1503
          1504 1505 1506 1507 1508 1509
          1510 1511 1512 1513 1514 1515
          1516 1517 1550 1551 1552 1553
          1554 1555 1556 1557 1558 1575
          1576 1577 1578 1579 1580 1581
          1582 1583 1600 1601 1602 1603
          1604 1605 1606 1607 1608 1609
          1610 1611 1612 1613 1614 1615
          1616 1617 1650 1651 1652 1653
          1654 1655 1656 1657 1658 1675
          1676 1677 1678 1679 1680 1681
          1682 1683 1976 2760 2761 2765
          2767 4566 4567 4572 4574 4575
          4576 4577 4578 4579 4580 4581
          4582 4583 4584 4585 4586 4587
          5166 5167 5172 5174 5175 5177
          12461 12462 12464 12467 12495 12496
          12498 12501 12519 12520 12522 12523
          12525 12526 12527 12528 12529 12530
          12532 12534 12536 12537 12538 12539
          12540 12541 12542 12543 12544 12545
          12546 12547 12548 12549 12550 12551
          12552 12553 12554 12555 12556 12557
          12558 12559 12560 12561 12562 12563
          12564 12565 12566 12567 12568 12569
          12570 12571 12572 12573 12574 12575
          12576 12577 12578 12579 12580 12581
          12705 12706 12707 12708 12709 12710
          12711 12712 12713 12714 12715 12716
          12717 12718 12719 12720 12721 12722
          12723 12724 12725 12726 12727 12728
          12729 12730 12731 12732 12733 12734
          12735 12736 12737 12738 12739 12740
          12741 12742 12743 12744 12745 12746
          12747 12748 12749 12750 12751 12752
          12753 12754 12755 12756 12757 12758
          12759 12760 12761 12762 12763 12764
          12765 12766 12767 12768 12769 12770
          12771 12772 12773 12774 12775 12776
          12777 12778 12779 12780 12781 12782
          12783 12784 12785 12786 12787 12788
          12789 12790 12791 12792 12793 12794
          12795 12796 12797 12798 12799 12800
          12801 12802 12803 12804 12805 12806
          12807 12808 12809 12810 12811 12812
          12813 12814 12815 12816 12817 12818
          12819 12820 12821 12860 12861 12862
          12863 12864 12865 12866 12867 12868
          12869 12870 12871 12872 12873 12874
          12875 12876 12877 12878 12879 12880
          12881 12882 12883 12884 12885 12886
          12887 12888 12889 12890 12891 12892
          12893 12894 12895 12896 12897 12898
          12899 12900 12901 12902 12903 12904
          12905 12906 12907 12908 12909 12910
          12911 12912 12913 12914 12915 12916
          12917 12918 12919 12920 12921 12922
          12923 12924 12925 12926 12927 12928
          12929 12930 12931 12932 12933 12934
          12935 12936 12937 12938 12939 12940
          12941 12942 12943 13001 13002 13003
          13004 13005 13006 13007 13008 13009
          13010 13011 13012 13013 13014 13015
          13016 13017 13018 13019 13020 13021
          13022 13023 13024 13025 13026 13027
          13028 13029 13030 13031 13032 13033
          13034 13035 13036 13037 13038 13039
          13040 13041 13042 13043 13044 13045
          13046 13047 13048 13049 13050 13051
          13052 13053 13054 13055 13056 13057
          13058 13059 13060 13061 13062 13063
          13064 13065 13066 13067 13068 13069
          13070 13071 13072 13073 13074 13075
          13076 13077 13078 13079 13080 13081
          13082 13083 13084
        </DataArray>
        <DataArray type="Float64" Name="bounds" format="ascii" RangeMin="0" RangeMax="0">
          0 0 0 0 0 0
          0 0 0 0 0 0
          0 0 0 0 0 0
          0 0 0 0 0 0
          0 0 0 0 0 0
          0 0 0 0 0 0
          0 0 0 0 0 0
          0 0 0 0 0 0
          0 0 0 0 0 0
          0 0 0 0 0 0
          0 0 0 0 0 0
          0 0 0 0 0 0
          0 0 0 0 0 0
          0 0 0 0 0 0
          0 0 0 0 0 0
          0 0 0 0 0 0
          0 0 0 0 0 0
          0 0 0 0 0 0
          0 0 0 0 0 0
          0 0 0 0 0 0
          0 0 0 0 0 0
          0 0 0 0 0 0
          0 0 0 0 0 0
          0 0 0 0 0 0
          0 0 0 0 0 0
          0 0 0 0 0 0
          0 0 0 0 0 0
          0 0 0 0 0 0
          0 0 0 0 0 0
          0 0 0 0 0 0
          0 0 0 0 0 0
          0 0 0 0 0 0
          0 0 0 0 0 0
          0 0 0 0 0 0
          0 0 0 0 0 0
          0 0 0 0 0 0
          0 0 0 0 0 0
          0 0 0 0 0 0
          0 0 0 0 0 0
          0 0 0 0 0 0
          0 0 0 0 0 0
          0 0 0 0 0 0
          0 0 0 0 0 0
          0 0 0 0 0 0
          0 0 0 0 0 0
          0 0 0 0 0 0
          0 0 0 0 0 0
          0 0 0 0 0 0
          0 0 0 0 0 0
          0 0 0 0 0 0
          0 0 0 0 0 0
          0 0 0 0 0 0
          0 0 0 0 0 0
          0 0 0 0 0 0
          0 0 0 0 0 0
          0 0 0 0 0 0
          0 0 0 0 0 0
          0 0 0 0 0 0
          0 0 0 0 0 0
          0 0 0 0 0 0
          0 0 0 0 0 0
          0 0 0 0 0 0
          0 0 0 0 0 0
          0 0 0 0 0 0
          0 0 0 0 0 0
          0 0 0 0 0 0
          0 0 0 0 0 0
          0 0 0 0 0 0
          0 0 0 0 0 0
          0 0 0 0 0 0
          0 0 0 0 0 0
          0 0 0 0 0 0
          0 0 0 0 0 0
          0 0 0 0 0 0
          0 0 0 0 0 0
          0 0 0 0 0 0
          0 0 0 0 0 0
          0 0 0 0 0 0
          0 0 0 0 0 0
          0 0 0 0 0 0
          0 0 0 0 0 0
          0 0 0 0 0 0
          0 0 0 0 0 0
          0 0 0 0 0 0
          0 0 0 0 0 0
          0 0 0 0 0 0
          0 0 0 0 0 0
          0 0 0 0 0 0
          0 0 0 0 0 0
          0 0 0 0 0 0
          0 0 0 0 0 0
          0 0 0 0 0 0
          0 0 0 0 0 0
          0 0 0 0 0 0
          0 0 0 0 0 0
          0 0 0 0 0 0
          0 0 0 0 0 0
          0 0 0 0 0 0
          0 0 0 0 0 0
          0 0 0 0 0 0
          0 0 0 0 0 0
          0 0 0 0 0 0
          0 0 0 0 0 0
          0 0 0 0 0 0
          0 0 0 0 0 0
          0 0 0 0 0 0
          0 0 0 0 0 0
          0 0 0 0 0 0
          0 0 0 0 0 0
          0 0 0 0 0 0
          0 0 0 0 0 0
          0 0 0 0 0 0
          0 0 0 0 0 0
          0 0 0 0 0 0
          0 0 0 0 0 0
          0 0 0 0 0 0
          0 0 0 0 0 0
          0 0 0 0 0 0
          0 0 0 0 0 0
          0 0 0 0 0 0
          0 0 0 0 0 0
          0 0 0 0 0 0
          0 0 0 0 0 0
          0 0 0 0 0 0
          0 0 0 0 0 0
          0 0 0 0 0 0
          0 0 0 0 0 0
          0 0 0 0 0 0
          0 0 0 0 0 0
          0 0 0 0 0 0
          0 0 0 0 0 0
          0 0 0 0 0 0
          0 0 0 0 0 0
          0 0 0 0 0 0
          0 0 0 0 0 0
          0 0 0 0 0 0
          0 0 0 0 0 0
          0 0 0 0 0 0
          0 0 0 0 0 0
          0 0 0 0 0 0
          0 0 0 0 0 0
          0 0 0 0 0 0
          0 0 0 0 0 0
          0 0 0 0 0 0
          0 0 0 0 0 0
          0 0 0 0 0 0
          0 0 0 0 0 0
          0 0 0 0 0 0
          0 0 0 0 0 0
          0 0 0 0 0 0
          0 0 0 0 0 0
          0 0 0 0 0 0
          0 0 0 0 0 0
          0 0 0 0 0 0
          0 0 0 0 0 0
          0 0 0 0 0 0
          0 0 0 0 0 0
          0 0 0 0 0 0
          0 0 0 0 0 0
          0 0 0 0 0 0
          0 0 0 0 0 0
          0 0 0 0 0 0
          0 0 0 0 0 0
          0 0 0 0 0 0
          0 0 0 0 0 0
          0 0 0 0 0 0
          0 0 0 0 0 0
          0 0 0 0 0 0
          0 0 0 0 0 0
          0 0 0 0 0 0
          0 0 0 0 0 0
          0 0 0 0 0 0
          0 0 0 0 0 0
          0 0 0 0 0 0
          0 0 0 0 0 0
          0 0 0 0 0 0
          0 0 0 0 0 0
          0 0 0 0 0 0
          0 0 0 0 0 0
          0 0 0 0 0 0
          0 0 0 0 0 0
          0 0 0 0 0 0
          0 0 0 0 0 0
          0 0 0 0 0 0
          0 0 0 0 0 0
          0 0 0 0 0 0
          0 0 0 0 0 0
          0 0 0 0 0 0
          0 0 0 0 0 0
          0 0 0 0 0 0
          0 0 0 0 0 0
          0 0 0 0 0 0
          0 0 0 0 0 0
          0 0 0 0 0 0
          0 0 0 0 0 0
          0 0 0 0 0 0
          0 0 0 0 0 0
          0 0 0 0 0 0
          0 0 0 0 0 0
          0 0 0 0 0 0
          0 0 0 0 0 0
          0 0 0 0 0 0
          0 0 0 0 0 0
          0 0 0 0 0 0
          0 0 0 0 0 0
          0 0 0 0 0 0
          0 0 0 0 0 0
          0 0 0 0 0 0
          0 0 0 0 0 0
          0 0 0 0 0 0
          0 0 0 0 0 0
          0 0 0 0 0 0
          0 0 0 0 0 0
          0 0 0 0 0 0
          0 0 0 0 0 0
          0 0 0 0 0 0
          0 0 0 0 0 0
          0 0 0 0 0 0
          0 0 0 0 0 0
          0 0 0 0 0 0
          0 0 0 0 0 0
          0 0 0 0 0 0
          0 0 0
        </DataArray>
        <DataArray type="Float64" Name="gradient_error" format="ascii" RangeMin="1.4111807589793048e-14" RangeMax="3.0475833494348377e-7">
          1.631067866218015e-14 1.6314098042195112e-14 1.6312516283195597e-14 1.6310195709193033e-14 1.6280803187483158e-14 1.627500100715128e-14
          1.628100379470922e-14 1.6284786196761093e-14 1.6319559579176663e-14 1.631643759163777e-14 1.626713361692118e-14 1.6275620806919352e-14
          1.632096923309232e-14 1.6317727910221995e-14 1.6268893294080053e-14 1.6276653144698876e-14 1.6317748793569245e-14 1.6315463453698888e-14
          1.628030156703534e-14 1.6285120060838692e-14 1.6311421668982843e-14 1.631054889283504e-14 1.6296996667154285e-14 1.6298225147525823e-14
          1.63040927051508e-14 1.6304686791681076e-14 1.6313787271087293e-14 1.6311762686075883e-14 1.6298294089024327e-14 1.630001387565716e-14
          1.632526789317797e-14 1.6321136170794802e-14 1.6296411946146567e-14 1.629845059219107e-14 1.6327087562298487e-14 1.632280733111609e-14
          1.630073798997438e-14 1.6301248942750458e-14 1.6315810225071906e-14 1.63151595190829e-14 1.6308617355773178e-14 1.6306546756756537e-14
          1.6298317830305976e-14 1.630307351908749e-14 1.6311841612210186e-14 1.630937429892577e-14 1.629199935235104e-14 1.6297202304448967e-14
          1.6307598977005227e-14 1.630746904425079e-14 1.630176693624354e-14 1.6301700221518334e-14 1.6302341752393534e-14 1.630428595000034e-14
          1.631304964295547e-14 1.630861843841125e-14 1.6303849294088373e-14 1.6304940821857327e-14 1.6309695312534296e-14 1.630725105652123e-14
          1.630732716973754e-14 1.6306758616249435e-14 1.630229269841796e-14 1.630346149862404e-14 1.630602032987693e-14 1.6305765485001682e-14
          1.63049890331322e-14 1.6305547163773528e-14 1.6307164484241795e-14 1.6306435738450693e-14 1.6298218671709642e-14 1.629939944263853e-14
          1.6308722595524765e-14 1.6295898323321935e-14 1.630983305867251e-14 1.6294896880737094e-14 1.630967269658935e-14 1.6296662051304587e-14
          1.63082797865561e-14 1.6300791734769388e-14 1.630626328032243e-14 1.6305730759137126e-14 1.630446755542205e-14 1.630960063714447e-14
          1.630363331984472e-14 1.6310971674068035e-14 1.630396068514492e-14 1.6309719130485923e-14 1.6305029616997098e-14 1.630702964612461e-14
          1.6306072742912508e-14 1.630466390763042e-14 1.63063250473329e-14 1.6304162025271e-14 1.630590872728544e-14 1.6305117227426722e-14
          1.630579956796628e-14 1.6305424565368172e-14 1.6305850973845763e-14 1.6305373407690342e-14 1.630561635993979e-14 1.6305879821922254e-14
          1.6303394444287508e-14 1.630315872069547e-14 1.6309430761152122e-14 1.6310029679238033e-14 1.6304129586950655e-14 1.6307688649726357e-14
          1.6305179529993346e-14 1.6305380766156492e-14 1.630616727935017e-14 1.6303385547967126e-14 1.6306883456424963e-14 1.630212984164142e-14
          1.6307245682433512e-14 1.630172341720978e-14 1.63072014485541e-14 1.630219682587731e-14 1.6306777401453866e-14 1.630341624820238e-14
          1.6306161474763307e-14 1.630492944787795e-14 1.6305583076254295e-14 1.6306230084380216e-14 1.6305238500183654e-14 1.6306922558713946e-14
          1.6305310983169435e-14 1.6306690543748877e-14 1.6305587306963734e-14 1.6306047220986408e-14 1.630556678630628e-14 1.6306042330228183e-14
          1.6305511884930194e-14 1.630611651655057e-14 1.630572207975314e-14 1.630565434942965e-14 1.6473948136825015e-14 1.6486519205725852e-14
          1.6450737502797523e-14 1.6443829607210008e-14 1.6493334215082522e-14 1.645283040330316e-14 1.6459753053482813e-14 1.6427290669866433e-14
          1.6393223177520058e-14 1.6376379866113912e-14 1.631545900011236e-14 1.6314899145009513e-14 1.6248476573966318e-14 1.6260657943659235e-14
          1.621159517471647e-14 1.623006569207811e-14 1.6216964576687302e-14 1.623310651286291e-14 1.6270507875690266e-14 1.6270905873426628e-14
          1.6340168476947267e-14 1.632075307047239e-14 1.6361214419595575e-14 1.63422229783585e-14 1.632086686928859e-14 1.6322933859312765e-14
          1.627759946759768e-14 1.6295676390369567e-14 1.6290672323306714e-14 1.6300415275254063e-14 1.6318561612837064e-14 1.6314282292566082e-14
          1.630860188015381e-14 1.6306399624761404e-14 1.635809271545804e-14 1.6356300923287763e-14 1.6360054167089445e-14 1.6355358810246548e-14
          1.634077010496361e-14 1.63195009011713e-14 1.6298345613784718e-14 1.6284230376158367e-14 1.6281509820433432e-14 1.628927908015491e-14
          1.6301774161290068e-14 1.631156086106772e-14 1.6313061603854825e-14 1.6308769694194646e-14 1.6307105308377488e-14 1.6307003890417402e-14
          1.630501504415537e-14 1.630122963104688e-14 1.6298890768980523e-14 1.6307781742655098e-14 1.6315889334243034e-14 1.6322003655219448e-14
          1.6324662512435938e-14 1.6323851914217294e-14 1.6319924542876993e-14 1.631377119182835e-14 1.6307254289146834e-14 1.6302210658582622e-14
          1.6299890185014008e-14 1.630112235837271e-14 1.6303786075247833e-14 1.6304052389553563e-14 1.6304004808539705e-14 1.6305832718941735e-14
          1.535590312289423e-14 1.535378494921792e-14 1.554855972830726e-14 1.5538701225200253e-14 1.5439977528277435e-14 1.5628053195649908e-14
          1.56960587235619e-14 1.5825122998772332e-14 1.6054080430818838e-14 1.610330983540097e-14 1.6409021332842222e-14 1.6388973963601925e-14
          1.6669625687354356e-14 1.6604718251843585e-14 1.6771224695542883e-14 1.669108618090894e-14 1.669034084336026e-14 1.6628344423398443e-14
          1.6433387223460668e-14 1.6438839485850317e-14 1.6142561911014332e-14 1.6227069694850358e-14 1.6074091095206067e-14 1.6150028282264464e-14
          1.6257690938216815e-14 1.6239327515822455e-14 1.643282234097432e-14 1.6349382689522143e-14 1.637300971670418e-14 1.6328463654722603e-14
          1.6258407102927082e-14 1.627355364440009e-14 1.6294860033274076e-14 1.6303663772313886e-14 1.6011198324279673e-14 1.6004365539483893e-14
          1.603671190274807e-14 1.609325866079724e-14 1.618444968133787e-14 1.6291616022355237e-14 1.638298086323864e-14 1.6430600806835437e-14
          1.642431052884103e-14 1.637873438435751e-14 1.6322911015701333e-14 1.6283318633551567e-14 1.6276090563760246e-14 1.629152060895762e-14
          1.6299057062353115e-14 1.6301010746703574e-14 1.6308971753390044e-14 1.6279062141162743e-14 1.6287231751461514e-14 1.6257294942473754e-14
          1.6232330047611717e-14 1.6216360122692642e-14 1.6214305450348854e-14 1.622615091014446e-14 1.625025394739588e-14 1.628227305424543e-14
          1.6313177020475053e-14 1.6334244552716275e-14 1.634067179778028e-14 1.6331217034092385e-14 1.6317098179845275e-14 1.631419653196521e-14
          1.631332130753405e-14 1.6305475995426386e-14 2.1080161388546967e-14 2.0892993831342356e-14 1.999292505165092e-14 2.0205596649191284e-14
          2.010125828729032e-14 1.927380359771422e-14 1.8617916306398334e-14 1.8089442157039586e-14 1.6870021607177083e-14 1.67549894971454e-14
          1.533070690160108e-14 1.5594556695040835e-14 1.4337094206079238e-14 1.482405515905879e-14 1.4111807589793048e-14 1.458973349103385e-14
          1.471493205243425e-14 1.498958053810992e-14 1.5980088477676674e-14 1.593782297951249e-14 1.718187492247589e-14 1.6908266874910323e-14
          1.745677732671394e-14 1.7252432370031972e-14 1.6795819480522797e-14 1.686572248588601e-14 1.6058092675807365e-14 1.632084287275741e-14
          1.6165831262570237e-14 1.6301503897710967e-14 1.654356696410897e-14 1.6472039694773866e-14 1.6368919369191734e-14 1.6330131360494325e-14
          1.7999014086101732e-14 1.8127310522032502e-14 1.766564071954571e-14 1.7217560152565187e-14 1.6735429862848693e-14 1.630263319743366e-14
          1.5976852119123857e-14 1.58019878668761e-14 1.5851424331729963e-14 1.612513175260086e-14 1.646042105858407e-14 1.664485901590179e-14
          1.6587082805115545e-14 1.6423619658261347e-14 1.6353432041384566e-14 1.6338512746844907e-14 1.6299386732648464e-14 1.690517190024398e-14
          1.69235891342294e-14 1.6884932530953288e-14 1.6874152297449532e-14 1.6830902338583664e-14 1.6746859906386724e-14 1.6642688126209374e-14
          1.653631634147755e-14 1.6438619639674336e-14 1.6354706023853408e-14 1.6286183289823387e-14 1.6241630618453576e-14 1.6238540118981864e-14
          1.6263646246815242e-14 1.6269687549917426e-14 1.6276513068251047e-14 1.6307430113500008e-14 3.348248577165764e-14 3.183699769187396e-14
          2.571960446012412e-14 2.7563828099280515e-14 2.6342983328401483e-14 2.100646835134565e-14 2.0982745654072468e-14 1.8419106066019216e-14
          2.1740734348642865e-14 2.109575251782972e-14 2.5889367313226788e-14 2.5162886471061264e-14 2.806558176225579e-14 2.695582100611855e-14
          2.7149225376470252e-14 2.5794627435996467e-14 2.3884434752794902e-14 2.2786679537294483e-14 1.9450674094100782e-14 1.972656599377611e-14
          1.6622491774168215e-14 1.835368950347274e-14 1.7771350783660617e-14 1.887737844238168e-14 2.0611888370821118e-14 1.9441269829715468e-14
          2.1414184317370586e-14 1.8997745116426965e-14 1.880572962670673e-14 1.745889011073122e-14 1.621593730210147e-14 1.624313435983995e-14
          1.6341229262381163e-14 1.6448667650615722e-14 1.824565146271392e-14 1.9539091125170653e-14 1.57384873627038e-14 1.53740434184183e-14
          1.7450004054035685e-14 1.959753688524589e-14 2.0824551539988704e-14 2.081767198686307e-14 2.009221342848974e-14 1.964489430527961e-14
          1.9719928463135385e-14 1.937289055077285e-14 1.801502902292631e-14 1.6744517500045742e-14 1.6362182405954913e-14 1.6393652010249953e-14
          1.6445250066144222e-14 1.6889091697053558e-14 1.7433011823437917e-14 1.5807021351117787e-14 1.4892620358870637e-14 1.4449237421054792e-14
          1.4758668141596038e-14 1.5803042829996102e-14 1.7195314478203457e-14 1.8495502535185404e-14 1.928733071710779e-14 1.9354969693493506e-14
          1.876237500044295e-14 1.7759406757242803e-14 1.6907729084608146e-14 1.6612314217154116e-14 1.6516972602921475e-14 1.6334394093438163e-14
          1.339783902534269e-13 1.216744242801642e-13 9.633466614072797e-14 1.0806469764921029e-13 8.657441732312442e-14 6.712525091317239e-14
          5.266811724280724e-14 4.576206145604322e-14 5.4598341525457274e-14 5.3312131132454205e-14 7.834109494201267e-14 7.280110501481e-14
          8.879984743743784e-14 7.889730465980416e-14 7.952563361821246e-14 6.749368729411781e-14 6.165513751625738e-14 5.2860692864601167e-14
          5.294328792359396e-14 5.210353766264498e-14 5.758297434979619e-14 6.115050040432651e-14 6.338886692598743e-14 6.459075559061703e-14
          6.34827300676936e-14 5.761612505624746e-14 5.424957755293811e-14 4.374675271153363e-14 3.7726030661455895e-14 3.090003879193926e-14
          2.6393558328423827e-14 2.384724539884799e-14 5.784242610337767e-14 6.535638238039965e-14 4.227159179306492e-14 3.464371079030329e-14
          3.973649071623682e-14 4.786415856586177e-14 5.091213768755693e-14 4.722999598340584e-14 4.427943216313554e-14 4.887602502415573e-14
          5.431157645310963e-14 5.152157031360732e-14 3.9856847771764686e-14 2.6821531622057426e-14 2.076343920798048e-14 1.9087175504048132e-14
          4.4689944205463594e-14 4.856175971580565e-14 3.686709908290945e-14 3.043141591132738e-14 2.7447060693022505e-14 2.846720204411622e-14
          3.282951349294339e-14 3.899825099678853e-14 4.4492616113326146e-14 4.6488262646615466e-14 4.390512644736243e-14 3.7250496371968015e-14
          2.796417549872806e-14 2.0399135373985716e-14 1.745283149353833e-14 1.687341853882412e-14 4.1121705217885886e-13 3.524165637754749e-13
          2.806234603439746e-13 3.2905015409941486e-13 2.4956552256188515e-13 2.1064491840251148e-13 2.558241646910205e-13 2.381179845349463e-13
          3.7242794339785263e-13 3.3906907270237944e-13 4.626628024617708e-13 4.0420409023935236e-13 4.610133160068916e-13 3.8750286359670225e-13
          3.823339409966504e-13 3.1031994741024266e-13 2.9522032409290297e-13 2.517236235035863e-13 2.701749970595672e-13 2.684504862675461e-13
          2.9516403222843237e-13 3.123160035424626e-13 3.1173129031174726e-13 3.1496572895346377e-13 2.9636340273260257e-13 2.650200726322409e-13
          2.3403450795459335e-13 1.8170945232187048e-13 1.4063109714457326e-13 1.066458209672038e-13 1.7419940721535288e-13 2.0259487699809855e-13
          1.397154095883817e-13 1.5850812020256285e-13 2.0844553996858002e-13 2.4290600685682825e-13 2.425506103070279e-13 2.1749403737717678e-13
          2.0985884010694617e-13 2.3789976332103516e-13 2.5830494608433973e-13 2.3356464068955383e-13 1.6710664293301413e-13 9.379177589861284e-14
          5.5163120000318234e-14 1.3956845751823156e-13 1.5830649797622628e-13 1.0770650493362562e-13 9.660443602625354e-14 1.1118087793025382e-13
          1.4006663569672254e-13 1.7110880942754304e-13 1.9668212093051866e-13 2.1149075729962275e-13 2.090735511665453e-13 1.8714191731218657e-13
          1.4892911378392744e-13 1.0053654333414903e-13 5.819915510807809e-14 3.7665695210802135e-14 5.928285867277798e-13 7.43542043128008e-13
          7.554685966956499e-13 6.460372873222883e-13 1.2227013842473471e-12 1.1343585303993713e-12 1.919823065000819e-12 1.69017249901362e-12
          2.483725079689195e-12 2.105737072583413e-12 2.6391726318574378e-12 2.1629411293695867e-12 2.375972887087192e-12 1.8766412467364593e-12
          1.8908519208422357e-12 1.483944776074185e-12 1.5713926609884122e-12 1.3692511888578686e-12 1.5540098090377175e-12 1.547739448924972e-12
          1.617502775498996e-12 1.681784515309636e-12 1.6037660841997363e-12 1.5979173262720638e-12 1.4534452618915714e-12 1.2952809587051965e-12
          1.102792054663004e-12 8.646658599807655e-13 6.35520738122093e-13 4.852044703599297e-13 6.461214976212374e-13 6.230764431901722e-13
          7.843126146138287e-13 1.0326213063942819e-12 1.2339793375218227e-12 1.281401150895247e-12 1.1797543006362234e-12 1.0613612174112103e-12
          1.1116183823180074e-12 1.269042333094536e-12 1.304313966069817e-12 1.1310914187512555e-12 7.915422873150592e-13 4.3916625783604314e-13
          2.422931569304536e-13 5.24847844979183e-13 5.469068984635475e-13 5.226095526762621e-13 6.047206797621426e-13 7.402096095660149e-13
          8.760926749087583e-13 9.821989948867199e-13 1.0456848035162866e-12 1.05612704790869e-12 9.96615577376845e-13 8.625616770193582e-13
          6.701142691581191e-13 4.459679191112969e-13 2.5179285037355955e-13 1.4969811126314085e-13 9.022089311629855e-12 9.962511450540896e-12
          8.520151013909139e-12 7.776870845591188e-12 1.2295387704819559e-11 1.0300577714672126e-11 1.4615501042662077e-11 1.1928184583826369e-11
          1.550436538983053e-11 1.2293548382820624e-11 1.4510010767572462e-11 1.1119693540119132e-11 1.2121686254020405e-11 9.047793135928756e-12
          9.688806689126794e-12 7.598991085056117e-12 8.785337566314249e-12 7.905144182045256e-12 8.962587728800451e-12 8.897642905721107e-12
          8.88826628625258e-12 9.070885737207119e-12 8.329766700831655e-12 8.180048840136238e-12 7.182115484442527e-12 6.396294352976939e-12
          5.235007562008933e-12 4.171080320521319e-12 2.917524451385775e-12 2.2742832344092236e-12 5.0513223394701545e-12 4.654832063240457e-12
          5.95871453176579e-12 6.7404743714667376e-12 6.913356893142884e-12 6.409662852577057e-12 5.61967573365773e-12 5.3876068917503736e-12
          6.046523663264366e-12 6.723193647027042e-12 6.572067885376028e-12 5.49978051879803e-12 3.7869212425165056e-12 2.11178566833201e-12
          1.144358275038525e-12 3.0248541016629258e-12 2.7780117469283936e-12 3.611661339006887e-12 4.240080617942815e-12 4.7439824104750545e-12
          5.089949392488311e-12 5.265451449478354e-12 5.266038302515306e-12 5.068096528752472e-12 4.613689211412323e-12 3.8906305825903994e-12
          2.9692300581552378e-12 1.963369263521659e-12 1.1164182576303152e-12 6.576745326443781e-13 9.585135783092915e-11 9.637979348915214e-11
          7.603874424168811e-11 7.577373100041576e-11 9.750040097225098e-11 7.611747418606233e-11 9.640335421535543e-11 7.357444163918056e-11