<?xml version="1.0"?>
<VTKFile type="UnstructuredGrid" version="0.1" byte_order="LittleEndian" header_type="UInt32" compressor="vtkZLibDataCompressor">
  <UnstructuredGrid>
    <Piece NumberOfPoints="1407" NumberOfCells="984">
      <PointData>
        <DataArray type="Int32" Name="libmesh_node_id" format="ascii" RangeMin="1993" RangeMax="11121">
          1993 2001 2229 2230 2236 2974
          2975 2976 2979 2982 2996 2997
          3002 3016 3017 3019 3022 3032
          3036 3040 3073 3106 3110 4114
          4115 4116 4117 4118 4119 4120
          4121 4122 4123 4124 4125 4126
          4127 4138 4139 4140 4141 4142
          4143 4144 4145 4146 4147 4186
          4187 4188 4189 4190 4191 4192
          4193 4194 4208 4209 4214 4294
          4295 4296 4297 4298 4299 4300
          4301 4302 4303 4311 4312 4313
          4314 4315 4316 4317 4328 4329
          4330 4331 4332 4333 4334 4335
          4336 4337 4345 4346 4347 4348
          4349 4350 4351 4405 4406 4408
          4409 4410 4420 4424 4433 4434
          4436 4437 4438 4454 4455 4456
          4457 4458 4461 4462 4464 4465
          4467 4482 4483 4486 4487 4489
          4491 4550 4551 4554 4555 4556
          4557 4559 4570 4571 4577 4600
          4601 4604 4606 4607 4609 4620
          4622 4624 4626 4634 4635 4638
          4640 4641 4643 4654 4656 4658
          4660 4736 4738 4739 4740 4742
          4750 4767 4769 4770 4771 4773
          5617 5618 5619 5620 5621 5623
          5624 5633 5634 5635 5637 5638
          5639 5640 5641 5642 5646 5647
          5659 5660 5661 5662 5663 5664
          5665 7312 7313 7314 7317 7320
          7322 7323 7324 7325 7326 7327
          7328 7329 7330 7331 7332 7333
          7334 7335 7338 7339 7342 7344
          7346 7347 7348 7349 7350 7351
          7352 7353 7354 7355 7358 7359
          7361 7364 7366 7367 7368 7369
          7370 7371 7372 7373 7374 7375
          7377 7379 7381 7383 7384 7385
          7386 7387 7388 7389 7446 7447
          7450 7452 7454 7455 7456 7457
          7458 7459 7460 7461 7462 7463
          7465 7467 7469 7471 7472 7473
          7474 7475 7476 7477 7480 7481
          7484 7486 7488 7489 7490 7491
          7492 7493 7494 7495 7496 7497
          7582 7583 7586 7588 7590 7591
          7592 7593 7594 7595 7596 7597
          7598 7599 7602 7603 7606 7608
          7610 7611 7612 7613 7614 7615
          7616 7617 7618 7619 7652 7653
          7656 7658 8073 8074 8076 8079
          8081 8082 8083 8084 8085 8086
          8087 8088 8089 8090 8092 8094
          8096 8098 8099 8100 8101 8102
          8103 8104 8107 8108 8110 8113
          8115 8116 8117 8118 8119 8120
          8121 8122 8123 8124 8126 8128
          8130 8132 8133 8134 8135 8136
          8137 8138 8196 8198 8200 8202
          8203 8204 8205 8206 8207 8208
          8210 8212 8214 8216 8217 8218
          8219 8220 8221 8222 8224 8226
          8228 8230 8231 8232 8233 8234
          8235 8236 8238 8240 8242 8244
          8245 8246 8247 8248 8249 8250
          8319 8320 8321 8322 8323 8324
          8325 8326 8327 8328 8329 8330
          8331 8332 8333 8334 8335 8336
          8337 8338 8339 8340 8341 8342
          8343 8344 8345 8346 8347 8348
          8349 8350 8351 8352 8353 8354
          8355 8356 8357 8358 8359 8360
          8361 8362 8363 8364 8365 8366
          8367 8368 8369 8370 8371 8372
          8373 8374 8375 8376 8377 8378
          8379 8380 8381 8382 8383 8384
          8385 8386 8444 8446 8448 8450
          8451 8452 8453 8454 8455 8456
          8458 8460 8462 8464 8465 8466
          8467 8468 8469 8470 8472 8474
          8476 8478 8479 8480 8481 8482
          8483 8484 8486 8488 8490 8492
          8493 8494 8495 8496 8497 8498
          8720 8722 8724 8726 8727 8728
          8729 8730 8731 8732 8734 8738
          8740 8741 8742 8743 8744 8745
          8746 8748 8750 8752 8754 8755
          8756 8757 8758 8759 8760 8762
          8766 8768 8769 8770 8771 8772
          8773 8774 8845 8847 8849 8879
          8881 8883 8956 8958 8960 8962
          8963 8964 8965 8966 8967 8968
          8970 8974 8976 8977 8978 8979
          8980 8981 8982 8984 8986 8988
          8990 8991 8992 8993 8994 8995
          8996 8998 9002 9004 9005 9006
          9007 9008 9009 9010 9075 9079
          9103 9107 9123 9124 9125 9126
          9127 9128 9129 9130 9131 9132
          9133 9134 9135 9136 9137 9138
          9139 9140 9141 9142 9143 9144
          9145 9146 9147 9148 9150 9151
          9152 9153 9154 9155 9156 9157
          9158 9159 9160 9161 9162 9163
          9164 9165 9166 9167 9168 9170
          9171 9172 9173 9174 9175 9176
          9177 9178 9179 9180 9181 9182
          9185 9187 9188 9190 9191 9192
          9193 9194 9195 9196 9197 9198
          9200 9202 9204 9205 9206 9207
          9208 9209 9210 9211 9212 9213
          9214 9263 9264 9265 9266 9267
          9268 9269 9270 9271 9272 9273
          9274 9275 9276 9277 9278 9279
          9280 9281 9284 9285 9287 9289
          9290 9291 9292 9293 9294 9295
          9296 9297 9298 9299 9300 9301
          9304 9305 9307 9309 9526 9527
          9528 9529 9530 9531 9532 9533
          9534 9535 9536 9537 9540 9541
          9543 9545 9546 9547 9548 9549
          9550 9551 9552 9553 9554 9555
          9556 9557 9558 9559 9560 9561
          9562 9563 9564 9565 9586 9587
          9590 9591 9593 9595 9606 9607
          9608 9609 9610 9611 9612 9613
          9614 9615 9616 9617 9618 9619
          9620 9621 9622 9623 9624 9625
          9686 9687 9688 9689 9690 9691
          9692 9693 9694 9695 9696 9697
          9700 9702 9703 9705 9706 9707
          9708 9709 9710 9711 9712 9713
          9715 9717 9719 9720 9721 9722
          9723 9724 9725 9726 9727 9728
          9729 9730 9731 9734 9736 9737
          9739 9740 9741 9742 9743 9744
          9745 9746 9747 9749 9751 9753
          9822 9823 9824 9825 9826 9827
          9828 9829 9831 9833 9835 9836
          9837 9838 9839 9840 9841 9842
          9843 9845 9847 9849 9850 9851
          9852 9853 9854 9855 9856 9857
          9859 9861 9863 9864 9865 9866
          9867 9868 9869 9870 9871 9873
          9875 9877 9934 9935 9936 9937
          9938 9939 9940 9941 9942 9943
          9944 9945 9948 9950 9951 9953
          9954 9955 9956 9957 9958 9959
          9960 9961 9963 9965 9967 9968
          9969 9970 9971 9972 9973 9974
          9975 9976 9977 9978 9979 9982
          9984 9985 9987 9988 9989 9990
          9991 9992 9993 9994 9995 9997
          9999 10001 10070 10071 10072 10073
          10074 10075 10076 10077 10079 10081
          10083 10084 10085 10086 10087 10088
          10089 10090 10091 10093 10095 10097
          10098 10099 10100 10101 10102 10103
          10104 10105 10107 10109 10111 10112
          10113 10114 10115 10116 10117 10118
          10119 10121 10123 10125 10678 10679
          10680 10681 10682 10683 10684 10685
          10687 10689 10691 10692 10693 10694
          10695 10696 10697 10698 10699 10700
          10701 10702 10703 10704 10705 10706
          10707 10708 10709 10710 10711 10712
          10713 10715 10717 10719 10720 10721
          10722 10723 10724 10725 10726 10727
          10728 10729 10730 10731 10732 10733
          10748 10750 10752 10754 10776 10778
          10780 10782 10790 10791 10792 10793
          10794 10795 10796 10797 10798 10799
          10801 10802 10803 10824 10825 10826
          10827 10828 10830 10831 10832 10833
          10852 10853 10859 10920 10921 10922
          10923 10924 10925 10926 10927 10929
          10931 10933 10934 10935 10936 10937
          10938 10939 10940 10941 10942 10943
          10944 10945 10946 10947 10948 10949
          10950 10951 10952 10953 10954 10955
          10957 10959 10961 10962 10963 10964
          10965 10966 10967 10968 10969 10970
          10971 10972 10973 10974 10975 10990
          10992 10994 10996 11018 11020 11022
          11024 11032 11036 11060 11064 2228
          3045 3066 3046 3067 3070 1994
          3071 3000 4469 4475 3041 4460
          4471 4476 4463 4484 4485 4488
          4552 4553 4560 4564 4561 4565
          4572 4573 4574 4575 4212 4576
          4579 2233 4578 3075 5556 5563
          5564 5557 3038 3039 5569 5560
          5643 5644 5645 5648 5651 5652
          4468 5657 5666 5667 4569 4757
          4459 9149 9169 9183 9184 9186
          3048 9189 4466 9199 9201 9203
          3049 9215 9216 4470 9217 9218
          9282 9283 9286 9288 4490 9302
          9303 9306 9308 3051 9538 9539
          9542 9544 4558 9570 9571 9588
          9572 9589 9592 9575 4567 9594
          9698 9699 9701 4602 9704 4603
          9714 9716 9718 4605 9732 9733
          9735 3086 9738 4608 9748 9750
          9752 3087 9830 9832 9834 4621
          9844 9846 9848 4623 9858 9860
          9862 4625 9872 9874 9876 3090
          9946 9947 9949 4636 9952 4637
          9962 9964 9966 4639 9980 9981
          9983 3092 9986 4642 9996 9998
          10000 3093 10078 10080 10082 4655
          10092 10094 10096 4657 10106 10108
          10110 4659 10120 10122 10124 3095
          10686 10688 10690 4737 10714 10716
          10718 4741 10736 10737 10749 10751
          10740 4743 10753 4745 10764 10765
          10777 10779 10768 4747 10781 4749
          10800 4751 10804 8863 10805 8864
          10806 10807 10811 8869 10812 10814
          10815 10816 10817 10821 10822 10829
          4754 10834 10835 10836 10837 4755
          10838 8893 10839 10842 8897 10843
          10845 10846 10849 10850 10854 10855
          10856 10857 10858 10860 10861 4758
          10892 10893 10894 10895 10896 10897
          10898 10928 10930 10932 4768 10956
          10958 10960 4772 10978 10979 10991
          10993 10982 4774 10995 4776 11006
          11007 11019 11021 11010 4778 11023
          4780 11033 11037 11039 11040 11043
          11044 11061 11065 11067 11068 11071
          11072 11088 11089 11092 11093 11116
          11117 11120 11121
        </DataArray>
        <DataArray type="Float64" Name="bounds" format="ascii" RangeMin="0" RangeMax="0">
          0 0 0 0 0 0
          0 0 0 0 0 0
          0 0 0 0 0 0
          0 0 0 0 0 0
          0 0 0 0 0 0
          0 0 0 0 0 0
          0 0 0 0 0 0
          0 0 0 0 0 0
          0 0 0 0 0 0
          0 0 0 0 0 0
          0 0 0 0 0 0
          0 0 0 0 0 0
          0 0 0 0 0 0
          0 0 0 0 0 0
          0 0 0 0 0 0
          0 0 0 0 0 0
          0 0 0 0 0 0
          0 0 0 0 0 0
          0 0 0 0 0 0
          0 0 0 0 0 0
          0 0 0 0 0 0
          0 0 0 0 0 0
          0 0 0 0 0 0
          0 0 0 0 0 0
          0 0 0 0 0 0
          0 0 0 0 0 0
          0 0 0 0 0 0
          0 0 0 0 0 0
          0 0 0 0 0 0
          0 0 0 0 0 0
          0 0 0 0 0 0
          0 0 0 0 0 0
          0 0 0 0 0 0
          0 0 0 0 0 0
          0 0 0 0 0 0
          0 0 0 0 0 0
          0 0 0 0 0 0
          0 0 0 0 0 0
          0 0 0 0 0 0
          0 0 0 0 0 0
          0 0 0 0 0 0
          0 0 0 0 0 0
          0 0 0 0 0 0
          0 0 0 0 0 0
          0 0 0 0 0 0
          0 0 0 0 0 0
          0 0 0 0 0 0
          0 0 0 0 0 0
          0 0 0 0 0 0
          0 0 0 0 0 0
          0 0 0 0 0 0
          0 0 0 0 0 0
          0 0 0 0 0 0
          0 0 0 0 0 0
          0 0 0 0 0 0
          0 0 0 0 0 0
          0 0 0 0 0 0
          0 0 0 0 0 0
          0 0 0 0 0 0
          0 0 0 0 0 0
          0 0 0 0 0 0
          0 0 0 0 0 0
          0 0 0 0 0 0
          0 0 0 0 0 0
          0 0 0 0 0 0
          0 0 0 0 0 0
          0 0 0 0 0 0
          0 0 0 0 0 0
          0 0 0 0 0 0
          0 0 0 0 0 0
          0 0 0 0 0 0
          0 0 0 0 0 0
          0 0 0 0 0 0
          0 0 0 0 0 0
          0 0 0 0 0 0
          0 0 0 0 0 0
          0 0 0 0 0 0
          0 0 0 0 0 0
          0 0 0 0 0 0
          0 0 0 0 0 0
          0 0 0 0 0 0
          0 0 0 0 0 0
          0 0 0 0 0 0
          0 0 0 0 0 0
          0 0 0 0 0 0
          0 0 0 0 0 0
          0 0 0 0 0 0
          0 0 0 0 0 0
          0 0 0 0 0 0
          0 0 0 0 0 0
          0 0 0 0 0 0
          0 0 0 0 0 0
          0 0 0 0 0 0
          0 0 0 0 0 0
          0 0 0 0 0 0
          0 0 0 0 0 0
          0 0 0 0 0 0
          0 0 0 0 0 0
          0 0 0 0 0 0
          0 0 0 0 0 0
          0 0 0 0 0 0
          0 0 0 0 0 0
          0 0 0 0 0 0
          0 0 0 0 0 0
          0 0 0 0 0 0
          0 0 0 0 0 0
          0 0 0 0 0 0
          0 0 0 0 0 0
          0 0 0 0 0 0
          0 0 0 0 0 0
          0 0 0 0 0 0
          0 0 0 0 0 0
          0 0 0 0 0 0
          0 0 0 0 0 0
          0 0 0 0 0 0
          0 0 0 0 0 0
          0 0 0 0 0 0
          0 0 0 0 0 0
          0 0 0 0 0 0
          0 0 0 0 0 0
          0 0 0 0 0 0
          0 0 0 0 0 0
          0 0 0 0 0 0
          0 0 0 0 0 0
          0 0 0 0 0 0
          0 0 0 0 0 0
          0 0 0 0 0 0
          0 0 0 0 0 0
          0 0 0 0 0 0
          0 0 0 0 0 0
          0 0 0 0 0 0
          0 0 0 0 0 0
          0 0 0 0 0 0
          0 0 0 0 0 0
          0 0 0 0 0 0
          0 0 0 0 0 0
          0 0 0 0 0 0
          0 0 0 0 0 0
          0 0 0 0 0 0
          0 0 0 0 0 0
          0 0 0 0 0 0
          0 0 0 0 0 0
          0 0 0 0 0 0
          0 0 0 0 0 0
          0 0 0 0 0 0
          0 0 0 0 0 0
          0 0 0 0 0 0
          0 0 0 0 0 0
          0 0 0 0 0 0
          0 0 0 0 0 0
          0 0 0 0 0 0
          0 0 0 0 0 0
          0 0 0 0 0 0
          0 0 0 0 0 0
          0 0 0 0 0 0
          0 0 0 0 0 0
          0 0 0 0 0 0
          0 0 0 0 0 0
          0 0 0 0 0 0
          0 0 0 0 0 0
          0 0 0 0 0 0
          0 0 0 0 0 0
          0 0 0 0 0 0
          0 0 0 0 0 0
          0 0 0 0 0 0
          0 0 0 0 0 0
          0 0 0 0 0 0
          0 0 0 0 0 0
          0 0 0 0 0 0
          0 0 0 0 0 0
          0 0 0 0 0 0
          0 0 0 0 0 0
          0 0 0 0 0 0
          0 0 0 0 0 0
          0 0 0 0 0 0
          0 0 0 0 0 0
          0 0 0 0 0 0
          0 0 0 0 0 0
          0 0 0 0 0 0
          0 0 0 0 0 0
          0 0 0 0 0 0
          0 0 0 0 0 0
          0 0 0 0 0 0
          0 0 0 0 0 0
          0 0 0 0 0 0
          0 0 0 0 0 0
          0 0 0 0 0 0
          0 0 0 0 0 0
          0 0 0 0 0 0
          0 0 0 0 0 0
          0 0 0 0 0 0
          0 0 0 0 0 0
          0 0 0 0 0 0
          0 0 0 0 0 0
          0 0 0 0 0 0
          0 0 0 0 0 0
          0 0 0 0 0 0
          0 0 0 0 0 0
          0 0 0 0 0 0
          0 0 0 0 0 0
          0 0 0 0 0 0
          0 0 0 0 0 0
          0 0 0 0 0 0
          0 0 0 0 0 0
          0 0 0 0 0 0
          0 0 0 0 0 0
          0 0 0 0 0 0
          0 0 0 0 0 0
          0 0 0 0 0 0
          0 0 0 0 0 0
          0 0 0 0 0 0
          0 0 0 0 0 0
          0 0 0 0 0 0
          0 0 0 0 0 0
          0 0 0 0 0 0
          0 0 0 0 0 0
          0 0 0 0 0 0
          0 0 0 0 0 0
          0 0 0 0 0 0
          0 0 0 0 0 0
          0 0 0 0 0 0
          0 0 0 0 0 0
          0 0 0 0 0 0
          0 0 0 0 0 0
          0 0 0 0 0 0
          0 0 0 0 0 0
          0 0 0 0 0 0
          0 0 0 0 0 0
          0 0 0 0 0 0
          0 0 0 0 0 0
          0 0 0 0 0 0
          0 0 0 0 0 0
          0 0 0 0 0 0
          0 0 0 0 0 0
          0 0 0
        </DataArray>
        <DataArray type="Float64" Name="gradient_error" format="ascii" RangeMin="4.812230792874955e-12" RangeMax="3.958033282303763e-9">
          3.101489712839941e-11 2.0273414610882083e-9 2.2201933621701782e-10 9.17527338030677e-11 1.5022821673926188e-9 2.7263821260533698e-11
          4.6990091904316476e-11 3.932548162907027e-11 1.1568357337398164e-10 1.7799416571356246e-10 1.283595556264427e-10 8.976822099791552e-11
          3.124277941284417e-11 1.9327713783616473e-9 1.5227159021816786e-9 7.372653915774099e-10 2.341613793182358e-9 2.0858899472933456e-10
          4.826614061214774e-10 1.9190869698354533e-11 1.7560784840011097e-11 1.0665554423259641e-10 2.700631295283425e-10 7.03643914445008e-11
          6.764954681165459e-11 9.029650991059894e-11 8.583832345959827e-11 4.50058448275657e-11 6.260697343612532e-11 5.945084274656422e-11
          5.96279168097674e-11 7.3574183237305e-11 5.076082345953632e-11 3.058501221238695e-10 2.898375517319436e-10 2.10082729966414e-10
          2.4661479439658694e-10 9.65423110640236e-11 1.0191682669851035e-10 6.441999661186045e-11 6.965208817441482e-11 1.4289329782476348e-10
          1.1908037356585256e-10 8.087280294616679e-11 1.8837243574956582e-10 1.3495882046541005e-10 1.292176881610187e-10 1.2503302301999159e-10
          7.910834678003217e-11 8.433471067771671e-11 5.3474427914683087e-11 7.63188351757873e-11 4.787154396782139e-11 3.21609820377222e-11
          7.996925296363048e-11 5.624749461846661e-11 2.9172304489703796e-11 3.0830830910976334e-11 2.728001661122659e-11 9.208793674658381e-10
          8.714541422993083e-10 7.119364911037903e-10 6.720581481126492e-10 7.377868194702304e-10 5.647636105004751e-10 2.3752892095623553e-9
          2.2364958465471564e-9 1.8198577786264045e-9 1.872948990408576e-9 5.572455378780761e-10 4.21452137923338e-10 3.7429992472560746e-10
          2.7877807394874717e-10 1.4031443832674873e-9 1.1302981164522761e-9 9.329253003862552e-10 3.868139616062221e-9 3.767007740393424e-9
          3.47939013216171e-9 3.300032998263674e-9 3.322949283555398e-9 2.7776393226663714e-9 1.6745420243098988e-9 2.037657746328758e-9
          2.2098334754371206e-9 2.6227264417811188e-9 2.5059859590273015e-9 2.0676232123676903e-9 1.6784990025046192e-9 1.3885579303505745e-9
          2.4658594160478426e-9 2.020872280071983e-9 1.800919711981906e-9 2.2357305828300799e-10 1.63766084301054e-10 8.609124443657143e-11
          5.441165829865907e-10 4.1926992658414297e-10 4.098051376685456e-11 9.240757985837945e-11 9.991110038722564e-10 8.049833944335538e-10
          3.948793558755194e-10 1.156784036832012e-9 9.450325699158675e-10 3.067961207474806e-11 2.8913488246962243e-11 4.215402437133701e-11
          3.991208467387604e-11 2.6859540296214842e-11 3.635129848524766e-11 4.4259238060946464e-11 1.5597282081801398e-10 1.474253404077366e-10
          1.243705858063224e-10 5.2842310518130857e-11 5.74884905502584e-11 6.342161716045516e-11 5.391698677876374e-11 9.370063886671253e-11
          6.324350401440748e-11 5.583109650022207e-11 3.549819424854061e-11 3.36032023187261e-11 2.1220467195879636e-11 1.7768019149543958e-11
          3.84662262663769e-11 2.1148039254938575e-11 1.902036551663854e-11 2.0248604133358268e-11 1.818433917664566e-11 5.308483131599355e-10
          4.998618496084573e-10 4.1699330851220786e-10 1.532608271293574e-9 1.4425998588158756e-9 1.201266148750302e-9 3.0766844754015884e-10
          2.0072421954807692e-10 8.797395313010926e-10 5.619512344562361e-10 2.8218284773813714e-9 2.6584568633382727e-9 2.226284964874925e-9
          1.8347390745273491e-9 1.9129742594016376e-9 1.894199712984424e-9 1.678686729463824e-9 1.1123319085235737e-9 1.630427361968183e-9
          1.223488654099903e-9 1.1623050274161836e-10 6.02674719787343e-11 4.094016836509914e-11 3.1187767542343794e-10 1.5160147817919864e-10
          2.8316620689592345e-11 6.253311492125216e-10 2.9718812589321155e-10 2.1591863248671982e-10 7.447992279206814e-10 3.67613585998581e-10
          6.974867243354322e-11 6.717028642313616e-11 1.9830185614333713e-11 4.624371445261032e-11 4.44038389174477e-11 5.972836100558653e-11
          3.912395270669755e-11 4.8942707682487575e-11 1.8719759586580637e-11 3.2035375700233474e-11 4.3020593766531184e-11 2.838680936935692e-11
          1.3263517656341035e-11 1.3405567040119472e-11 3.004866560372287e-11 2.8563356400825592e-11 1.3262591090886375e-11 2.458869550846012e-11
          1.3206379323928375e-11 2.0022071022604264e-11 1.1396611176527467e-11 1.5225472084967242e-11 1.3435192889981904e-11 1.7944798226216597e-11
          1.4045142985843064e-11 3.226729293326001e-11 4.7633900001516484e-11 4.706681099881721e-11 4.537040485636311e-11 8.916141801058497e-11
          2.687048935417029e-11 2.6574939294566842e-11 3.944081906444101e-11 3.896997822312822e-11 2.175633307721571e-11 3.2447723944274373e-11
          3.2054161172029896e-11 2.5651007995616935e-11 3.7560657061890295e-11 3.0894980985905575e-11 7.545455432315792e-11 7.449694256652564e-11
          6.180428382524418e-11 7.16946814137006e-11 2.9272796701844576e-11 4.265118103060653e-11 3.925487634740133e-11 8.055858950708375e-11
          2.413900849931965e-11 3.529945454110838e-11 1.9938330201190765e-11 2.904679219967638e-11 2.24612011162824e-11 3.24682224233219e-11
          2.6699068975054008e-11 6.72441179626003e-11 5.5701753462531465e-11 6.136589089688992e-11 1.6802597614732412e-10 1.6584389936226615e-10
          1.5946355921885677e-10 3.0176739167627343e-10 1.4191932513789512e-10 1.4005664626496463e-10 1.1897127567367114e-10 1.1739434579168217e-10
          1.3461579021668126e-10 1.1279798730554646e-10 2.616499295095516e-10 2.5810567558566126e-10 2.1897258838197605e-10 2.4775668857667365e-10
          1.493495070339167e-10 1.361950690441615e-10 2.7097625589978215e-10 1.2600367278858626e-10 1.0555470655822436e-10 1.1481002442282413e-10
          9.614521210642966e-11 2.3141464549083387e-10 1.9606318497880284e-10 2.1033287612415443e-10 2.673680536057347e-11 3.523565091012354e-11
          3.302282347004919e-11 6.471041962393685e-11 2.2029152551960267e-11 2.910928147654016e-11 1.8248144894698073e-11 2.3906876985090863e-11
          2.239129311372456e-11 2.7258850446688122e-11 2.2379836847400746e-11 5.392336980035881e-11 4.457571268934135e-11 5.240458371087848e-11
          1.212256916464239e-10 1.052445886529117e-10 2.184703621706618e-10 1.0206213573547607e-10 8.537102051322175e-11 8.845646716156203e-11
          7.38446078780973e-11 1.8600996837304377e-10 1.5715803351981624e-10 1.6005402961333036e-10 6.323525075272874e-11 8.872404792403904e-11
          7.282090594067877e-11 1.5810205850740504e-10 5.268836642613056e-11 7.442177369168075e-11 4.360735029414349e-11 6.1990239738092e-11
          4.313791608122188e-11 6.095311332000701e-11 5.066346229963035e-11 1.3403031609328095e-10 1.1277335760584803e-10 1.09284659097988e-10
          4.196844258457697e-11 5.851511680891493e-11 4.5944825673114383e-11 1.0292338924779882e-10 3.481618633630817e-11 4.8879035252128537e-11
          2.869085623392789e-11 4.055459454104937e-11 2.74785505331215e-11 3.8301093223723046e-11 3.172353848384837e-11 8.683427813556193e-11
          7.274179062702025e-11 6.729890099347026e-11 2.5618264920406353e-11 3.5233368097834874e-11 2.643267203287451e-11 6.064007537038539e-11
          2.117302664270999e-11 2.9309349847144e-11 1.7398571644383903e-11 2.4230363268911935e-11 1.602262128229454e-11 2.193989938406478e-11
          1.81007265457152e-11 5.089978220693389e-11 4.2439548027799435e-11 3.7565370174133076e-11 9.87709369224888e-12 1.3118033507468334e-11
          1.0904262925094016e-11 2.2367712563289208e-11 5.406040861459885e-10 5.33264657777918e-10 5.118145653990974e-10 9.082800823912417e-10
          4.695168371779266e-10 4.6301634285352067e-10 4.042413185944939e-10 3.9854090656743e-10 4.440324173053499e-10 3.819036517976527e-10
          8.132752911844395e-10 8.019018903647644e-10 7.017617043806335e-10 7.686746154239515e-10 4.778982267162499e-10 4.340405482105993e-10
          8.131930076129216e-10 4.14055875695618e-10 3.5566480232784503e-10 3.7536945793275725e-10 3.218686272223509e-10 7.161712121944453e-10
          6.25185774255856e-10 6.483538736747738e-10 1.506205002932295e-9 1.485290800066662e-9 1.4242740926754759e-9 2.3396841425608653e-9
          1.3516172942958908e-9 1.3325285548274245e-9 1.2030132861354555e-9 1.1857014602681129e-9 1.2768284702424204e-9 1.13516419159719e-9
          2.150342083426327e-9 2.1179956998212204e-9 1.9037857695580842e-9 2.024313679757014e-9 1.328046075598201e-9 1.2038312705760865e-9
          2.0759071782066778e-9 1.1889257189946917e-9 1.055403738450475e-9 1.0754345091129939e-9 9.525353944526405e-10 1.878765674235592e-9
          1.6891551666079213e-9 1.6946492735506492e-9 3.833593685142531e-10 3.2922475215391523e-10 6.505505893490894e-10 3.3078493500959646e-10
          2.8302599433046336e-10 2.833215766436926e-10 2.418113609785231e-10 5.701113806597775e-10 4.952523024007253e-10 4.867264739801347e-10
          2.7490117775577084e-10 2.232203121374353e-10 4.635044919755044e-10 2.358763116381215e-10 2.0076501636761808e-10 1.909313309081406e-10
          1.6203768238134304e-10 4.033286133602308e-10 3.4797756463939375e-10 3.243793616823088e-10 1.0602728919078794e-9 9.067160834661998e-10
          1.6440135884581127e-9 9.444679563733204e-10 8.340839490355738e-10 8.047916008606857e-10 7.081343525780068e-10 1.485687945452784e-9
          1.3324096763141504e-9 1.2644928024426752e-9 7.523252923051778e-10 6.051933446238377e-10 1.162334300411324e-9 6.648891261137175e-10
          5.824974160945571e-10 5.322295743466142e-10 4.640115480268203e-10 1.0431554022347245e-9 9.283248258414749e-10 8.329420752664764e-10
          3.688126970171698e-9 3.6415687917106757e-9 3.4442798609898943e-9 3.396850310645361e-9 3.5022779591611214e-9 3.255271091861748e-9
          3.958033282303763e-9 3.944929002141838e-9 3.845853063152503e-9 3.892160347806479e-9 3.1720639467616048e-9 3.124482057743412e-9
          2.878176422463701e-9 2.8325880833386194e-9 2.984350087356276e-9 2.6997244739267584e-9 3.723997015052143e-9 3.6887114509826647e-9
          3.4347014758490204e-9 3.574422647234111e-9 3.2723306573960417e-9 3.024739605314242e-9 2.959987836781791e-9 2.7201226707354943e-9
          3.76908565656457e-9 3.601285059288281e-9 3.5389855207855406e-9 2.7610256594713046e-9 2.4924943779920034e-9 2.4743126000338585e-9
          2.2330910454379576e-9 3.365961907435143e-9 3.077345803560861e-9 3.0620120747835857e-9 2.644736316095975e-9 2.694025571385117e-9
          2.7072926018871365e-9 2.757603230919884e-9 2.83192591288646e-9 2.8888346762903646e-9 1.5862741004569859e-9 1.6663781523743198e-9
          1.7700799310256205e-9 1.910467240839914e-9 2.79896260677452e-9 2.8366028872359546e-9 2.796548223166168e-9 2.807753575354774e-9
          2.9173199432638505e-9 2.816431048538498e-9 1.8707334220791476e-9 1.962314676360569e-9 2.0842570879181622e-9 2.1900390980864187e-9
          3.0123639495403086e-9 3.0248726180639344e-9 3.132476699776338e-9 3.0454087895976704e-9 2.278328774131783e-9 2.3820014497829642e-9
          2.6314027092959912e-9 2.9543301218938133e-9 2.773597493973212e-9 2.8746720118908493e-9 2.643677361247669e-9 2.4160268836336946e-9
          2.3166821270697368e-9 2.518244472456822e-9 2.3695606238909204e-9 2.008131631580837e-9 2.9421328266613217e-9 2.153743748751603e-9
          1.9465705935120817e-9 1.8266238186620506e-9 1.6517056133169462e-9 2.685661633365908e-9 2.4281694786749473e-9 2.281864452475207e-9
          1.659735853409336e-9 1.3335245829879698e-9 2.0739486296656442e-9 1.508001459672834e-9 1.3601714707200326e-9 1.206588891682685e-9
          1.0828065139082949e-9 1.893071782398447e-9 1.7198686045899654e-9 1.5320093131903372e-9 2.888351614472575e-9 2.5758123909777375e-9
          2.6495193047975313e-9 2.6624031991277538e-9 2.4130479207546794e-9 2.343622704655093e-9 2.115223587465497e-9 2.460324765092876e-9
          2.2386341581695615e-9 2.2448131472669824e-9 2.1860222642274256e-9 1.8065909811464106e-9 2.1444030593710145e-9 1.9904751030099945e-9
          1.8081598531141022e-9 1.6534585173053305e-9 1.5057798452717305e-9 1.9474669536531985e-9 1.7656719364212969e-9 1.6479541205701123e-9
          1.7634007518537297e-10 1.3562085864626307e-10 2.934940660612567e-10 1.5034292819506225e-10 1.2720944634950712e-10 1.152463211325026e-10
          9.721884741897764e-11 2.53267391954223e-10 2.1678913463604834e-10 1.9209630652620243e-10 1.0163544055389456e-10 1.6561323085685642e-10
          8.608173014885247e-11 7.239685996029789e-11 6.271548879542693e-11 5.258428996472159e-11 1.4168781133184063e-10 1.2031356122254946e-10
          1.0177881127504942e-10 4.717701279890303e-10 3.5641931120595796e-10 7.245763868006366e-10 4.126866255714051e-10 3.5793482030587235e-10
          3.1006797988356274e-10 2.675189150700068e-10 6.430207531612823e-10 5.656815651646066e-10 4.796952907952527e-10 2.6117459729302545e-10
          3.951358239883526e-10 2.259635732901374e-10 1.9394844048471235e-10 1.5997894329453634e-10 1.366307554446224e-10 3.460064510995218e-10
          3.004631371746613e-10 2.417142232891135e-10 3.736638076996231e-11 2.585673836714479e-11 6.008561861957657e-11 9.373023717437236e-11
          6.275953542090216e-11 1.4065269702232227e-10 1.036626022557959e-9 7.775510988459901e-10 1.31956621112465e-9 9.322487543209839e-10
          8.311770623216468e-10 6.942241748063567e-10 6.144160977972641e-10 1.1984283906687538e-9 1.0794123586246345e-9 9.007284038493389e-10
          5.621985063716116e-10 7.262504369121128e-10 4.980601158299827e-10 4.3744649135710043e-10 3.4470547763943526e-10 3.005052375495168e-10
          6.493108287879588e-10 5.754614371814133e-10 4.492713479911449e-10 1.4557332936426868e-9 1.1262176574202025e-9 1.4748807233146673e-9
          1.3289333070365456e-9 1.2037097532256854e-9 1.0207219701992685e-9 9.17212858700879e-10 1.3482634865763004e-9 1.2232307991489755e-9
          1.0500067236291772e-9 8.314712031018402e-10 8.625288316605925e-10 7.472351622423296e-10 6.656785752435627e-10 5.218740564099349e-10
          4.6088460686346044e-10 7.763170892216719e-10 6.926475217719398e-10 5.457456043056203e-10 1.9979184402289454e-10 2.609658207015e-10
          3.0559096520658896e-10 3.21174129856948e-10 1.7915537097165653e-11 1.7680677097444704e-11 2.6511651705556412e-11 2.6170468678719713e-11
          1.4378379902713519e-11 2.151619912018402e-11 2.1226224837702652e-11 1.7159481160254068e-11 2.523927481819735e-11 2.0498645412140692e-11
          5.1568312649057e-11 5.0899973324559736e-11 4.158346566854807e-11 4.892215134812532e-11 1.1727643915594282e-11 1.1877129375931034e-11