<?xml version="1.0"?>
<VTKFile type="UnstructuredGrid" version="0.1" byte_order="LittleEndian" header_type="UInt32" compressor="vtkZLibDataCompressor">
  <UnstructuredGrid>
    <Piece NumberOfPoints="1362" NumberOfCells="945">
      <PointData>
        <DataArray type="Int32" Name="libmesh_node_id" format="ascii" RangeMin="1983" RangeMax="11997">
          2232 2237 2252 2253 2256 2259
          2952 2953 2955 2988 2989 2990
          2993 2998 2999 3001 3003 3026
          3027 3030 3031 3033 3035 3037
          3120 3121 3122 3123 3126 3127
          3128 3130 3131 3134 3135 3137
          3139 3307 3456 3457 3458 3463
          3464 3465 3466 3467 3468 3469
          3470 3471 3474 3475 3487 3488
          3491 3492 3494 3496 4162 4163
          4164 4165 4166 4167 4168 4169
          4170 4171 4172 4173 4174 4175
          4185 4195 4196 4197 4198 4199
          4200 4201 4202 4203 4204 4205
          4206 4207 4210 4211 4213 4215
          4364 4365 4366 4367 4368 4369
          4370 4371 4372 4373 4388 4389
          4390 4391 4392 4393 4394 4395
          4396 4397 4400 4401 4404 4407
          4411 4412 4413 4414 4415 4416
          4417 4418 4419 4421 4423 4425
          4428 4429 4432 4435 4439 4440
          4441 4442 4443 4444 4445 4446
          4447 4448 4449 4451 4452 4453
          4857 4858 4859 4860 4861 4862
          4863 4864 4865 4866 4867 4868
          4869 4870 4871 4872 4873 4874
          4875 4876 4877 4878 4879 4880
          4881 4882 4883 4884 4885 4886
          4887 4888 4889 4890 4891 4892
          4893 4894 4895 4896 4897 4898
          4899 4900 4901 4902 4903 4904
          4905 4906 4909 4910 4912 4914
          4915 4916 4917 4918 4919 4920
          4921 4922 4924 4926 4928 4929
          4930 4931 4932 4933 4934 4935
          4936 4937 4938 4939 4940 4943
          4944 4946 4948 5687 5688 5689
          5690 5691 5692 5693 5694 5695
          5696 5697 5698 5699 5700 5701
          5702 5703 5704 5705 5708 5709
          5820 5821 5822 5823 5824 5825
          5826 5827 5828 5829 5830 5831
          5832 5833 5834 5835 5836 5837
          5838 5841 5842 7526 7527 7528
          7529 7530 7531 7532 7533 7534
          7535 7536 7537 7538 7539 7579
          7609 7620 7621 7622 7623 7624
          7625 7626 7627 7628 7629 7630
          7631 7632 7633 7634 7635 7636
          7637 7638 7639 7640 7641 7642
          7643 7644 7645 7646 7647 7648
          7649 7650 7651 7654 7655 7657
          7659 8539 8540 8541 8542 8543
          8544 8545 8546 8547 8548 8549
          8550 8551 8552 8553 8554 8555
          8556 8557 8558 8559 8560 8561
          8562 8563 8564 8565 8566 8567
          8568 8569 8570 8571 8572 8573
          8574 8575 8576 8577 8578 8579
          8580 8581 8582 8623 8624 8625
          8626 8627 8628 8629 8630 8631
          8632 8633 8634 8635 8636 8637
          8638 8639 8640 8641 8642 8643
          8644 8645 8646 8647 8648 8649
          8650 8651 8652 8653 8654 8655
          8656 8657 8658 8659 8660 8661
          8662 8679 8680 8683 8686 8687
          8690 8707 8708 8711 8714 8715
          8718 8735 8736 8739 8763 8764
          8767 8775 8776 8777 8778 8779
          8780 8781 8782 8783 8784 8785
          8786 8787 8788 8789 8790 8791
          8792 8793 8794 8795 8796 8797
          8798 8799 8800 8801 8802 8803
          8804 8805 8806 8807 8808 8809
          8810 8811 8812 8813 8814 8815
          8816 8817 8818 8819 8820 8821
          8822 8823 8824 8825 8826 8827
          8828 8829 8830 8831 8832 8833
          8834 8835 8836 8837 8838 8839
          8840 8841 8842 8843 8844 8846
          8848 8850 8851 8852 8853 8854
          8855 8856 8857 8858 8859 8860
          8861 8862 8865 8866 8868 8870
          8871 8872 8873 8874 8875 8876
          8877 8878 8880 8882 8884 8885
          8886 8887 8888 8889 8890 8891
          8892 8894 8896 8898 8915 8916
          8919 8922 8923 8925 8926 8943
          8944 8947 8949 8950 8951 8953
          8954 8971 8972 8973 8975 8997
          8999 9000 9001 9003 9011 9012
          9013 9014 9015 9016 9017 9018
          9019 9020 9021 9022 9023 9024
          9025 9026 9027 9028 9029 9030
          9031 9032 9033 9034 9035 9036
          9037 9038 9039 9040 9041 9042
          9043 9044 9045 9046 9047 9048
          9049 9050 9051 9052 9053 9054
          9055 9056 9057 9058 9059 9060
          9061 9062 9063 9064 9065 9066
          9067 9068 9069 9070 9071 9072
          9073 9074 9076 9077 9078 9080
          9081 9082 9083 9084 9085 9086
          9087 9088 9089 9090 9092 9093
          9094 9095 9096 9097 9098 9099
          9100 9101 9102 9104 9105 9106
          9108 9109 9110 9111 9112 9113
          9114 9115 9116 9117 9118 9120
          9121 9122 11034 11038 11062 11066
          11615 11616 11617 11618 11619 11620
          11621 11622 11623 11624 11625 11626
          11627 11628 11629 11630 11631 11632
          11633 11634 11635 11636 11637 11638
          11639 11640 11641 11642 11643 11644
          11645 11646 11647 11648 11649 11650
          11651 11652 11653 11654 11655 11656
          11657 11658 11659 11660 11661 11662
          11663 11664 11665 11666 11667 11668
          11669 11670 11671 11672 11673 11674
          11675 11676 11677 11678 11679 11680
          11681 11682 11683 11684 11685 11686
          11687 11688 11689 11690 11691 11692
          11693 11694 11695 11696 11697 11698
          11699 11700 11701 11702 11703 11704
          11705 11706 11707 11708 11709 11710
          11711 11712 11713 11714 11715 11716
          11717 11718 11719 11720 11721 11722
          11723 11724 11725 11726 11727 11728
          11729 11730 11731 11732 11733 11734
          11735 11736 11737 11738 11739 11740
          11741 11742 11743 11744 11745 11746
          11747 11748 11749 11750 11751 11752
          11753 11754 11755 11756 11757 11758
          11759 11760 11761 11762 11763 11764
          11765 11766 11767 11768 11769 11770
          11771 11772 11773 11774 11775 11776
          11777 11778 11779 11780 11781 11782
          11785 11786 11788 11790 11791 11792
          11793 11794 11795 11796 11797 11798
          11800 11802 11804 11805 11806 11807
          11808 11809 11810 11811 11812 11813
          11814 11815 11816 11819 11820 11822
          11824 11825 11826 11827 11828 11829
          11830 11831 11832 11833 11834 11835
          11836 11837 11838 11839 11840 11841
          11842 11843 11844 11845 11846 11847
          11848 11849 11850 11851 11852 11853
          11854 11855 11856 11857 11858 11859
          11860 11861 11862 11863 11864 11865
          11866 11867 11868 11869 11870 11871
          11872 11873 11874 11875 11876 11877
          11878 11879 11880 11881 11882 11883
          11884 11885 11886 11887 11888 11890
          11892 11894 11895 11896 11897 11898
          11899 11900 11901 11902 11904 11906
          11908 11909 11910 11911 11912 11913
          11914 11915 11916 11918 11920 11922
          11923 11924 11925 11926 11927 11928
          11929 11930 11932 11934 11936 11937
          11938 11939 11940 11941 11942 11943
          11944 11945 11946 11947 11948 11949
          11950 11951 11952 11953 11954 11955
          11956 11957 11958 11959 11960 11961
          11962 11963 11964 11965 11966 11967
          11968 11969 11970 11971 11972 11973
          11974 11975 11976 11977 11978 11979
          11980 11981 11982 11983 11984 11985
          11986 11987 11988 11989 11992 11993
          11995 11997 2216 1986 2217 2257
          2220 2254 1999 2255 2258 2880
          2984 1983 2881 2985 2884 2986
          2231 2987 2886 2991 2199 2994
          2995 2996 1994 2997 3000 2916
          3024 2918 2920 3028 1989 3124
          3125 2954 3129 2222 2427 2436
          3302 2437 3309 3361 3359 2261
          2004 3366 3365 3472 3473 3476
          3132 3479 3477 3480 3478 3485
          3484 3489 3136 3490 3483 3493
          2260 3495 4156 4150 4157 4158
          4161 4180 4181 4182 4190 4191
          4208 4192 4209 4212 4214 2233
          4353 4359 4363 4377 4383 4387
          4907 4908 4911 3133 4941 4925
          4942 4945 4947 5706 5707 5710
          5839 5840 5843 7520 7514 7521
          7522 7525 2992 7561 7563 7566
          7565 7567 7568 7569 7571 7575
          7577 7573 7576 7578 7601 7605
          7607 7603 7606 7608 7611 7615
          7617 7619 7564 7574 7604 7614
          7652 7616 7653 7656 3002 7658
          8510 8514 8515 8518 4360 8530
          8534 8535 8538 3025 8594 8598
          8599 8602 4384 8614 8618 8619
          8622 3029 7524 8513 8677 8678
          8517 8681 8682 8684 8685 8688
          8689 8533 8705 8706 8537 8709
          8710 8712 8713 8716 8717 8733
          8734 8737 8738 8740 8742 8744
          8746 8761 8762 8765 8766 8768
          8770 8772 8774 8743 8845 8847
          4408 8849 4420 8863 8864 8867
          8869 4422 8771 8879 8881 3032
          8883 4424 8893 8895 8897 3034
          8597 8913 8914 8601 8917 8918
          8920 8921 8908 8909 8912 4427
          8924 8617 8941 8942 8621 8945
          8946 8936 8937 8948 8940 4431
          8952 8969 8970 8957 8961 8958
          4433 8974 8976 8978 8980 8982
          8985 8986 8998 8989 4437 9002
          9004 9006 9008 9010 8979 9075
          4436 9079 9091 4450 9007 9103
          3036 9107 9119 2002 10828 10830
          11032 10829 4754 11033 11035 11036
          11037 4781 10842 11046 10843 11047
          10844 11048 11050 11051 11052 11060
          11061 11063 11064 11065 4785 11074
          11075 11076 11078 11079 11080 11783
          11784 11787 11789 11799 11801 11803
          4913 11817 11818 11821 11823 11889
          11891 11893 4923 11903 11905 11907
          11917 11919 11921 4927 11931 11933
          11935 3138 11990 11991 11994 11996
        </DataArray>
        <DataArray type="Float64" Name="bounds" format="ascii" RangeMin="0" RangeMax="0">
          0 0 0 0 0 0
          0 0 0 0 0 0
          0 0 0 0 0 0
          0 0 0 0 0 0
          0 0 0 0 0 0
          0 0 0 0 0 0
          0 0 0 0 0 0
          0 0 0 0 0 0
          0 0 0 0 0 0
          0 0 0 0 0 0
          0 0 0 0 0 0
          0 0 0 0 0 0
          0 0 0 0 0 0
          0 0 0 0 0 0
          0 0 0 0 0 0
          0 0 0 0 0 0
          0 0 0 0 0 0
          0 0 0 0 0 0
          0 0 0 0 0 0
          0 0 0 0 0 0
          0 0 0 0 0 0
          0 0 0 0 0 0
          0 0 0 0 0 0
          0 0 0 0 0 0
          0 0 0 0 0 0
          0 0 0 0 0 0
          0 0 0 0 0 0
          0 0 0 0 0 0
          0 0 0 0 0 0
          0 0 0 0 0 0
          0 0 0 0 0 0
          0 0 0 0 0 0
          0 0 0 0 0 0
          0 0 0 0 0 0
          0 0 0 0 0 0
          0 0 0 0 0 0
          0 0 0 0 0 0
          0 0 0 0 0 0
          0 0 0 0 0 0
          0 0 0 0 0 0
          0 0 0 0 0 0
          0 0 0 0 0 0
          0 0 0 0 0 0
          0 0 0 0 0 0
          0 0 0 0 0 0
          0 0 0 0 0 0
          0 0 0 0 0 0
          0 0 0 0 0 0
          0 0 0 0 0 0
          0 0 0 0 0 0
          0 0 0 0 0 0
          0 0 0 0 0 0
          0 0 0 0 0 0
          0 0 0 0 0 0
          0 0 0 0 0 0
          0 0 0 0 0 0
          0 0 0 0 0 0
          0 0 0 0 0 0
          0 0 0 0 0 0
          0 0 0 0 0 0
          0 0 0 0 0 0
          0 0 0 0 0 0
          0 0 0 0 0 0
          0 0 0 0 0 0
          0 0 0 0 0 0
          0 0 0 0 0 0
          0 0 0 0 0 0
          0 0 0 0 0 0
          0 0 0 0 0 0
          0 0 0 0 0 0
          0 0 0 0 0 0
          0 0 0 0 0 0
          0 0 0 0 0 0
          0 0 0 0 0 0
          0 0 0 0 0 0
          0 0 0 0 0 0
          0 0 0 0 0 0
          0 0 0 0 0 0
          0 0 0 0 0 0
          0 0 0 0 0 0
          0 0 0 0 0 0
          0 0 0 0 0 0
          0 0 0 0 0 0
          0 0 0 0 0 0
          0 0 0 0 0 0
          0 0 0 0 0 0
          0 0 0 0 0 0
          0 0 0 0 0 0
          0 0 0 0 0 0
          0 0 0 0 0 0
          0 0 0 0 0 0
          0 0 0 0 0 0
          0 0 0 0 0 0
          0 0 0 0 0 0
          0 0 0 0 0 0
          0 0 0 0 0 0
          0 0 0 0 0 0
          0 0 0 0 0 0
          0 0 0 0 0 0
          0 0 0 0 0 0
          0 0 0 0 0 0
          0 0 0 0 0 0
          0 0 0 0 0 0
          0 0 0 0 0 0
          0 0 0 0 0 0
          0 0 0 0 0 0
          0 0 0 0 0 0
          0 0 0 0 0 0
          0 0 0 0 0 0
          0 0 0 0 0 0
          0 0 0 0 0 0
          0 0 0 0 0 0
          0 0 0 0 0 0
          0 0 0 0 0 0
          0 0 0 0 0 0
          0 0 0 0 0 0
          0 0 0 0 0 0
          0 0 0 0 0 0
          0 0 0 0 0 0
          0 0 0 0 0 0
          0 0 0 0 0 0
          0 0 0 0 0 0
          0 0 0 0 0 0
          0 0 0 0 0 0
          0 0 0 0 0 0
          0 0 0 0 0 0
          0 0 0 0 0 0
          0 0 0 0 0 0
          0 0 0 0 0 0
          0 0 0 0 0 0
          0 0 0 0 0 0
          0 0 0 0 0 0
          0 0 0 0 0 0
          0 0 0 0 0 0
          0 0 0 0 0 0
          0 0 0 0 0 0
          0 0 0 0 0 0
          0 0 0 0 0 0
          0 0 0 0 0 0
          0 0 0 0 0 0
          0 0 0 0 0 0
          0 0 0 0 0 0
          0 0 0 0 0 0
          0 0 0 0 0 0
          0 0 0 0 0 0
          0 0 0 0 0 0
          0 0 0 0 0 0
          0 0 0 0 0 0
          0 0 0 0 0 0
          0 0 0 0 0 0
          0 0 0 0 0 0
          0 0 0 0 0 0
          0 0 0 0 0 0
          0 0 0 0 0 0
          0 0 0 0 0 0
          0 0 0 0 0 0
          0 0 0 0 0 0
          0 0 0 0 0 0
          0 0 0 0 0 0
          0 0 0 0 0 0
          0 0 0 0 0 0
          0 0 0 0 0 0
          0 0 0 0 0 0
          0 0 0 0 0 0
          0 0 0 0 0 0
          0 0 0 0 0 0
          0 0 0 0 0 0
          0 0 0 0 0 0
          0 0 0 0 0 0
          0 0 0 0 0 0
          0 0 0 0 0 0
          0 0 0 0 0 0
          0 0 0 0 0 0
          0 0 0 0 0 0
          0 0 0 0 0 0
          0 0 0 0 0 0
          0 0 0 0 0 0
          0 0 0 0 0 0
          0 0 0 0 0 0
          0 0 0 0 0 0
          0 0 0 0 0 0
          0 0 0 0 0 0
          0 0 0 0 0 0
          0 0 0 0 0 0
          0 0 0 0 0 0
          0 0 0 0 0 0
          0 0 0 0 0 0
          0 0 0 0 0 0
          0 0 0 0 0 0
          0 0 0 0 0 0
          0 0 0 0 0 0
          0 0 0 0 0 0
          0 0 0 0 0 0
          0 0 0 0 0 0
          0 0 0 0 0 0
          0 0 0 0 0 0
          0 0 0 0 0 0
          0 0 0 0 0 0
          0 0 0 0 0 0
          0 0 0 0 0 0
          0 0 0 0 0 0
          0 0 0 0 0 0
          0 0 0 0 0 0
          0 0 0 0 0 0
          0 0 0 0 0 0
          0 0 0 0 0 0
          0 0 0 0 0 0
          0 0 0 0 0 0
          0 0 0 0 0 0
          0 0 0 0 0 0
          0 0 0 0 0 0
          0 0 0 0 0 0
          0 0 0 0 0 0
          0 0 0 0 0 0
          0 0 0 0 0 0
          0 0 0 0 0 0
          0 0 0 0 0 0
          0 0 0 0 0 0
          0 0 0 0 0 0
          0 0 0 0 0 0
          0 0 0 0 0 0
          0 0 0 0 0 0
          0 0 0 0 0 0
          0 0 0 0 0 0
          0 0 0 0 0 0
          0 0 0 0 0 0
          0 0 0 0 0 0
        </DataArray>
        <DataArray type="Float64" Name="gradient_error" format="ascii" RangeMin="3.672109273896745e-12" RangeMax="4.173284812318524e-8">
          1.258807905046407e-10 2.250359113739604e-10 1.582345121943523e-10 1.621847765451701e-10 1.2070421774365277e-10 1.2317261448981931e-10
          2.770464529228131e-9 5.304080071004579e-9 6.62079430905683e-9 8.115383402317349e-10 1.4120593013994365e-9 2.0839259355428792e-10
          4.744983383792863e-9 1.3282417927710191e-10 8.485958762512418e-11 6.291784297774555e-11 5.454942210489754e-11 1.1011915259717696e-8
          1.2900783341318042e-10 1.4709480979956577e-8 3.588259756488352e-10 7.076935926559051e-11 7.500652626974211e-10 1.354950221720158e-10
          1.5118619209191942e-9 2.8654975142182397e-9 1.2899960301055475e-10 4.3849447515171795e-11 9.560056147026031e-11 3.603645285319314e-9
          3.392793659183399e-11 4.533163193213544e-11 1.864356459042306e-11 4.330081282061261e-11 3.7558355458086967e-11 1.7001415465500412e-11
          4.7582151605089655e-11 8.346546023550884e-11 7.631510890448134e-10 1.158357157274374e-9 8.046287945319773e-10 4.984807593402319e-10
          6.981016624061881e-10 1.5169931552107822e-10 1.4717467928788133e-10 3.065119297803482e-10 5.339603807608622e-10 1.6913474611073725e-10
          4.88805607647746e-11 4.6804121133647097e-11 2.9731407753848604e-11 5.2442818716568974e-11 3.0195682225771974e-11 3.3544955448580064e-11
          1.5789110233742395e-11 1.0336529068437164e-11 3.6894228671388136e-11 4.883947903131933e-12 3.844234263672712e-10 5.206701633002359e-10
          3.061134806109385e-10 1.1833290251781745e-9 2.9004316976292024e-10 3.606426521725412e-10 1.5659628402125646e-10 1.5785208931166944e-10
          1.6851910094367005e-10 2.471606108965054e-10 1.51074439963011e-10 6.774988769589607e-10 1.2520042228233e-10 4.111409479607622e-10
          8.698766634596e-11 4.4873490876988124e-11 9.774318147301144e-11 9.943183905904428e-11 6.518050325191583e-11 6.729697298825416e-11
          5.6830256416966604e-11 9.475649704506046e-11 6.346442645520111e-11 8.180294563257927e-11 5.7156374218290534e-11 7.988619918765784e-11
          4.380993931361217e-11 4.5896616454790036e-11 2.4321190378254832e-11 4.3055019884360666e-11 3.989160548819077e-11 3.755245606210335e-11
          2.2170355537742906e-9 1.213514036673676e-9 3.4315766004069245e-9 1.2128752583965983e-9 1.487230455607654e-10 6.603806304467393e-10
          7.17101768918273e-11 1.896222645307637e-9 2.8186681112613706e-10 1.0126938255069045e-9 4.82164077003518e-9 2.563541535223083e-9
          5.504458296681942e-9 2.679040570669673e-9 4.4116924985148603e-10 1.4093420874850357e-9 1.9391929980432174e-10 3.0656114940684667e-9
          5.163246537615785e-10 1.6129552303858678e-9 2.1302353680461702e-10 1.6125300411788388e-10 4.5098862211388695e-10 1.1946461165451346e-10
          2.778696086705652e-10 1.0736921814047118e-10 7.939548154796061e-11 4.960946501887361e-11 3.583048804561678e-11 2.169415615967421e-10
          1.672313897026594e-10 9.464518065591799e-11 5.7753353320895546e-11 2.560119526964622e-11 1.2604771626513922e-10 5.2043201704323375e-11
          7.590265358856295e-10 6.294184079734153e-10 8.928293734588386e-10 5.068258488461765e-10 6.11776920650078e-10 3.558490816093153e-10
          2.8408437187870185e-10 1.4812203834733231e-10 1.1394995017594755e-10 4.2298485663109086e-10 3.419022517509078e-10 1.7424120401425127e-10
          2.2099487099949124e-10 1.6687886059395483e-10 8.592678896674352e-11 2.6902106605210995e-10 2.053264577809753e-10 1.0316649160682182e-10
          3.2010218127070364e-10 5.554450883873554e-10 3.025824279232724e-10 7.804212254642329e-10 2.1998531683216563e-10 3.2015999832517635e-10
          9.353584769921115e-11 6.058663131252297e-11 1.6176001510341795e-10 2.0389552578368767e-10 8.056922931369563e-11 4.303370678249947e-10
          5.4744667752594146e-11 2.445341184463856e-10 9.849843725554714e-10 5.344942788795186e-10 1.0840439583131283e-9 5.471205098254916e-10
          7.835779896477312e-11 2.908073623284699e-10 3.0367287757611025e-11 6.039683956907166e-10 8.927830285044059e-11 3.1929953298084413e-10
          1.922897537311611e-10 2.381526855073258e-10 1.9207436435832337e-10 2.6069787988760694e-10 1.320514688766646e-10 1.4646953000990873e-10
          5.430057388223284e-11 3.897708393903541e-11 1.0952350752093218e-10 1.3771123803414947e-10 6.372887612753738e-11 1.601758341856039e-10
          4.231694293476851e-11 1.5059452671486188e-10 5.77833120866269e-11 3.8553595959375525e-11 3.857382547068164e-11 2.6679590798437076e-11
          5.359286202045555e-11 4.8026274265387996e-11 3.2169142384863784e-11 3.8325208099394357e-11 2.7842674753720958e-11 2.7085302518520063e-11
          2.6207070767528393e-11 1.856041995398981e-11 2.394026312308754e-11 2.2045524939952387e-11 2.0005742261503617e-11 1.666626064478689e-11
          5.693572262005783e-11 4.2332526496073146e-11 2.0776175586443435e-11 1.4893041622861328e-11 6.566733629388159e-11 4.92353509790703e-11
          2.3508167183477016e-11 3.103569083223587e-11 1.4047657646086033e-11 3.6378864625094506e-11 1.2200918674105456e-11 3.149342585728958e-11
          2.276870042048111e-11 2.079241524580024e-11 1.5274998536168795e-11 2.859667607763886e-11 3.637382680094796e-11 2.412055092349459e-11
          2.4731115677362596e-11 1.670590273677358e-11 3.923838489642784e-11 1.7990475440614142e-11 1.443337393365715e-11 1.2120995662499885e-11
          1.6239468571700132e-11 1.1539450540620256e-11 1.8028717816433566e-11 1.1370276554693954e-10 1.4133739094110851e-10 1.1297357884431363e-10
          8.790870393839458e-11 1.0979786280220096e-10 4.6967913563332684e-11 5.988261538072224e-11 6.768313182005752e-11 8.09510987542424e-11
          3.715884909854787e-11 2.5705593518364114e-11 3.3908300258355806e-11 1.6008655804369728e-11 2.1878106102602726e-11 1.691841541466191e-11
          2.030124943223578e-11 1.2445652331597347e-11 1.0730221120722654e-11 1.4824212119981092e-11 6.897659873096278e-12 8.344715935564678e-12
          1.2481363837266829e-10 1.64522744135008e-10 1.2845313902809999e-10 9.548007139154912e-11 1.3214908420194425e-10 5.238901508505968e-11
          7.952412118329037e-11 7.385245287466076e-11 9.877251216818152e-11 5.414602999150148e-11 3.1717090802724477e-11 4.87843935996096e-11
          2.0282233609941758e-11 3.18108578166184e-11 2.234946474329719e-11 3.217400771676626e-11 2.0696095841714824e-11 1.3075700529936576e-11
          2.1095218697828075e-11 9.040396247340601e-12 1.3455623357732168e-11 7.353291222805665e-11 8.695519155166347e-11 7.53799891432876e-11
          1.365976766495803e-10 6.241649911293327e-11 7.61689109033009e-11 4.5692291753719843e-11 5.847544544124443e-11 5.486382094445063e-11
          6.558175567921137e-11 4.961862936260513e-11 1.1941499105611851e-10 9.232441891947054e-11 9.798796348509826e-11 7.400374788949365e-11
          5.327997950682694e-11 3.6668228703136995e-11 4.716053884725538e-11 3.0373406232454686e-11 3.9205056929410664e-11 3.213644610187134e-11
          3.9756487819714275e-11 3.297040171380071e-11 7.563110865640103e-11 6.353657104673543e-11 6.035419632939633e-11 2.523110022700363e-11
          3.280813397308404e-11 2.1034943096327267e-11 2.751592650701049e-11 2.2019734936280152e-11 2.749636611661957e-11 2.3013479952580685e-11
          5.38066800364869e-11 4.556820761542289e-11 4.266310619349635e-11 1.7584681608215248e-11 2.3062994358136495e-11 1.4645155623227808e-11
          1.9248761970410338e-11 1.531851589697124e-11 1.925466113825922e-11 1.6051568415092543e-11 3.846036684595176e-11 3.229752892718725e-11
          3.036018595325869e-11 1.2056493610241608e-11 1.5935383825926596e-11 1.0482542534130385e-11 1.3263894216194098e-11 2.6962010719500622e-11
          2.1209362366187898e-11 2.0213078812822971e-10 1.4982496788804095e-10 2.825779554831472e-10 1.7871832140011006e-10 1.4162404702302547e-10
          1.3126665003866673e-10 1.0214234696753413e-10 2.539856873808996e-10 2.0778916555907506e-10 1.8551432028683276e-10 9.127894957324503e-11
          1.0838617614447642e-10 7.824527279275268e-11 1.4961114538518239e-10 7.830201864360988e-11 9.441019657057202e-11 5.827414923238013e-11
          7.23390991950045e-11 5.592668874317097e-11 6.731255155122414e-11 5.040575471354422e-11 1.3211458143402011e-10 1.043069716412771e-10
          9.327614575771373e-11 3.805035792164272e-10 2.789643799470586e-10 4.961795319524813e-10 3.483131747170245e-10 2.9473025649904553e-10
          2.520412568524487e-10 2.085336235998139e-10 4.622201943647949e-10 4.0290091095923053e-10 3.31223718540646e-10 1.9743284585322247e-10
          1.4022115540369067e-10 2.5184063442093724e-10 1.77269496796948e-10 1.4445728870857707e-10 1.2377812672786517e-10 9.802795270024798e-11
          2.2986305470166486e-10 1.9278874329162585e-10 1.585325006975191e-10 6.317987034263804e-10 4.565756929920579e-10 7.39810641190284e-10
          5.923828775775723e-10 5.244744479071258e-10 4.212718838630825e-10 3.635818033650942e-10 7.048605708385659e-10 6.393992693043178e-10
          5.009625126378528e-10 3.1430807525867673e-10 2.187662491706803e-10 3.6702946418551177e-10 2.888331961091749e-10 2.459801656955315e-10
          1.9699625184324956e-10 1.6250570122698532e-10 3.412920773305111e-10 2.963367237492973e-10 2.3159032143974792e-10 8.209017386833084e-10
          5.974092551090302e-10 8.607154792329759e-10 7.861048604235052e-10 7.194182505606723e-10 5.598272875903075e-10 4.96617632515809e-10
          8.199969036493346e-10 7.469250736243193e-10 5.845809537376864e-10 4.071273839034575e-10 2.8292427117476856e-10 4.262675247631584e-10
          3.8023691601440657e-10 3.328007066063532e-10 2.573856779904458e-10 2.167105611982995e-10 3.9665816540620084e-10 3.4601549381415186e-10
          2.682205916924368e-10 1.6130331765066122e-10 1.383512147926859e-10 2.4454269667855556e-10 1.1909171538746692e-10 1.0228736437014502e-10
          1.8568275253830338e-10 3.577824295180948e-10 3.1648647288029635e-10 5.024259994172998e-10 2.7946865164355153e-10 2.4557283733018885e-10
          4.0344065496470454e-10 8.74339268991522e-11 7.429270437567313e-11 1.3924966153678564e-10 2.1441871467031084e-10 1.8589797892097897e-10
          3.1694807158217127e-10 1.1820721982207068e-10 1.0066930702674816e-10 8.430228580860298e-11 7.128732491046551e-11 1.770649954688946e-10
          1.530186670340822e-10 1.2526836035579572e-10 8.620045090035253e-11 7.370584017066527e-11 6.072267439371319e-11 5.1695834981526943e-11
          1.3253933383895295e-10 1.1448259584915406e-10 9.241075337402284e-11 4.688690846279136e-11 5.893689474694194e-11 3.9107132873543885e-11
          4.947088070546415e-11 3.26638892339663e-11 4.061417910869394e-11 3.3839533391684765e-11 8.67399388177222e-11 7.371326313133048e-11
          5.8892156206206e-11 3.29397657580093e-11 4.1898998404357415e-11 2.779539143275305e-11 3.5514353866506357e-11 2.2690262149987927e-11
          2.8492369899200143e-11 2.4038349902605066e-11 6.303874210868676e-11 5.387143185530495e-11 4.215104140735257e-11 2.564019599859375e-10
          2.2484369674834956e-10 1.7921907160160085e-10 1.5575225327203926e-10 3.566559397658647e-10 3.1713009527745693e-10 2.4640034466438344e-10
          1.971054757344657e-10 1.720827875228599e-10 1.3554682400756187e-10 1.1759305237320294e-10 2.813521037008131e-10 2.4834191808553185e-10
          1.9087367630970354e-10 1.224794470396558e-10 1.0546559691447638e-10 8.203702906659166e-11 6.997816507554989e-11 1.6614763152196805e-10
          1.4481853469442592e-10 1.0970195190619769e-10 9.111890466567707e-11 7.856183089143893e-11 6.002186294165145e-11 5.1435858523882594e-11
          1.263731463344747e-10 1.0992782498527998e-10 8.192489327429245e-11 6.275257274571147e-11 5.3127049008080906e-11 4.383979023718768e-11
          3.698300220281856e-11 9.83849947266803e-11 8.403442604396486e-11 6.79087243272624e-11 4.470046323324936e-11 3.101800556666038e-11
          7.13026598129645e-11 4.8808991182333765e-11 2.3359763059391273e-11 2.999477001051902e-11 1.9545308216860156e-11 2.521217762669576e-11
          1.5963742910742137e-11 2.0220060563396888e-11 1.6934538431244388e-11 4.58620930857306e-11 3.8837698499568106e-11 3.036117007612475e-11
          1.626818651823341e-11 2.1075654329157385e-11 1.1045540498079528e-11 1.4105248153106282e-11 3.2694764984347374e-11 2.1466026656153826e-11
          1.4936485861082562e-10 1.287885420557046e-10 1.0148750288262276e-10 8.704791925663799e-11 2.1780130910248237e-10 1.8967008736706539e-10
          1.4566620095389913e-10 1.1026827835209082e-10 7.416766952990907e-11 1.6395328579803476e-10 1.0831288882089894e-10 6.742711513264308e-11
          5.754020294075316e-11 4.3906761734499314e-11 3.728277939190523e-11 9.513000710823468e-11 8.182285271116378e-11 6.085948697652123e-11
          4.8795421237272185e-11 3.147067829304947e-11 6.99161713852322e-11 4.422950280320926e-11 6.688991744473236e-10 6.083548591422213e-10
          8.263990051914714e-10 5.507603058920777e-10 4.95464533259263e-10 8.863127219972081e-10 6.934861122657197e-10 9.314181121882936e-10
          8.600548670772701e-10 9.65459372952534e-10 1.0044924084004046e-9 7.897930553025978e-10 7.204223148265971e-10 1.0390250337191437e-9
          8.210902421717101e-10 4.4249913140301156e-10 3.9213719256593163e-10 8.055060122011564e-10 5.670472894317252e-10 9.175054936650095e-10
          6.522654660017004e-10 5.858735988577518e-10 9.503830554119635e-10 6.801019738403447e-10 4.715076516256521e-10 4.245140501431438e-10
          3.225820223444548e-10 2.8733168393511646e-10 5.816477852926472e-10 5.287214263942965e-10 3.959122292213602e-10 3.8081486506770045e-10
          3.3963997538901257e-10 2.5537392652391053e-10 2.2583869023642598e-10 4.784323229301605e-10 4.3023871140007536e-10 3.188259492762312e-10
          2.1491706939685153e-10 1.8934616007006075e-10 1.4000661640617435e-10 1.2198598041295905e-10 2.6163185514896587e-10 2.324413754956609e-10
          1.6870843634383267e-10 1.6674688103617335e-10 1.4626062298056162e-10 1.0646665129272603e-10 9.265655970050251e-11 2.0620651744700882e-10
          1.821055322918854e-10 1.301388745173497e-10 6.585955067897256e-10 6.0197860591149e-10 4.485409976682618e-10 4.05328704020893e-10
          6.850778670705303e-10 6.272345077806875e-10 4.67283856637446e-10 5.47486610478795e-10 4.94731208297616e-10 3.6492599865429105e-10
          3.266512429251157e-10 5.713390910689649e-10 5.170536667776329e-10 3.81409928597273e-10 2.9556317315570434e-10 2.639341811472872e-10
          1.8958358569855452e-10 1.6723843750013654e-10 3.078674092382036e-10 2.753801581581986e-10 1.972138424135898e-10 2.35212313359578e-10
          2.0860314079467085e-10 1.4755209527152545e-10 1.2969903408244217e-10 2.457776173932218e-10 2.1827492736866183e-10 1.5394607826222878e-10
          3.008490934732873e-10 2.64523498003437e-10 1.9846629925244793e-10 1.7320721437891205e-10 3.8415645512642243e-10 3.4040717217580815e-10