<?xml version="1.0"?>
<VTKFile type="UnstructuredGrid" version="0.1" byte_order="LittleEndian" header_type="UInt32" compressor="vtkZLibDataCompressor">
  <UnstructuredGrid>
    <Piece NumberOfPoints="921" NumberOfCells="598">
      <PointData>
        <DataArray type="Int32" Name="libmesh_node_id" format="ascii" RangeMin="673" RangeMax="5061">
          673 926 932 934 940 941
          1668 1702 1703 1708 1730 1731
          1732 1740 1741 1764 1765 1766
          1767 1768 1769 1770 1771 1772
          1773 1774 1775 1778 1780 1781
          1783 2370 2371 2372 2373 2374
          2445 2446 2447 2448 2449 2450
          2451 2452 2453 2454 2458 2459
          2460 2461 2462 2473 2474 2475
          2476 2477 2478 2479 2480 2481
          2482 2490 2491 2492 2493 2494
          2495 2496 2497 2498 2499 2500
          2501 2502 2503 2504 2505 2506
          2507 2508 2509 2510 2516 2517
          2518 2519 2520 2521 2522 2523
          2524 2527 2529 2530 2532 2533
          2534 2535 2539 2540 2541 2542
          2543 2544 2545 2546 2547 2548
          2549 2550 2551 2552 2553 2554
          2555 2556 2557 2558 2559 2560
          2561 2562 2563 2564 2565 2566
          2567 2568 2569 2570 2571 2572
          2573 2574 2575 2576 2577 2578
          2579 2580 2581 2582 2583 2584
          2585 2586 2587 2588 2589 2590
          2591 2592 2593 2594 2595 2596
          2597 2598 2599 2600 2601 2602
          2603 2604 2605 2606 2607 2608
          2609 2610 2611 2612 2613 2614
          2615 2616 2617 2618 2621 2627
          2628 2629 2630 2631 2632 2633
          2641 2642 2643 2644 2645 2646
          2647 2648 2649 2650 2661 2662
          2663 2664 2665 2666 2667 4221
          4226 4227 4228 4239 4240 4241
          4242 4243 4244 4245 4246 4247
          4248 4249 4250 4251 4252 4253
          4254 4255 4256 4257 4258 4259
          4260 4261 4262 4263 4264 4265
          4266 4267 4268 4269 4270 4271
          4272 4273 4274 4275 4276 4345
          4346 4347 4348 4349 4350 4351
          4352 4353 4354 4355 4356 4357
          4358 4359 4360 4361 4362 4363
          4364 4365 4366 4367 4368 4369
          4370 4371 4372 4373 4374 4375
          4376 4377 4378 4379 4380 4381
          4382 4383 4384 4385 4386 4387
          4388 4389 4390 4391 4392 4393
          4394 4395 4396 4397 4398 4399
          4400 4401 4402 4403 4404 4405
          4406 4407 4408 4409 4410 4411
          4412 4413 4414 4415 4416 4417
          4418 4419 4420 4421 4422 4423
          4424 4425 4426 4427 4428 4429
          4430 4431 4432 4433 4434 4435
          4436 4437 4438 4439 4440 4441
          4442 4443 4449 4450 4451 4452
          4453 4454 4455 4456 4457 4458
          4459 4460 4461 4462 4463 4464
          4465 4466 4467 4468 4469 4470
          4471 4472 4473 4474 4475 4476
          4477 4478 4479 4480 4481 4482
          4483 4484 4485 4486 4487 4488
          4489 4490 4491 4492 4493 4494
          4495 4496 4497 4498 4499 4500
          4501 4502 4503 4504 4505 4506
          4507 4508 4509 4510 4511 4512
          4513 4514 4515 4516 4517 4518
          4519 4520 4521 4522 4523 4524
          4525 4526 4527 4528 4529 4530
          4531 4532 4533 4534 4535 4536
          4537 4538 4539 4540 4541 4542
          4543 4544 4545 4546 4547 4548
          4549 4550 4551 4552 4553 4554
          4555 4556 4557 4558 4559 4560
          4561 4562 4563 4564 4565 4566
          4567 4568 4569 4570 4571 4572
          4573 4574 4575 4576 4577 4578
          4579 4580 4581 4582 4583 4584
          4585 4586 4587 4588 4589 4590
          4591 4592 4593 4594 4595 4596
          4597 4598 4599 4600 4601 4602
          4603 4604 4605 4606 4607 4608
          4609 4610 4611 4612 4613 4614
          4615 4616 4617 4618 4619 4620
          4621 4622 4623 4624 4625 4626
          4627 4628 4629 4630 4631 4632
          4633 4634 4635 4636 4637 4638
          4639 4640 4641 4642 4643 4644
          4645 4646 4647 4648 4649 4650
          4651 4652 4653 4654 4655 4656
          4657 4658 4659 4660 4661 4662
          4663 4664 4665 4666 4667 4668
          4669 4670 4671 4672 4673 4674
          4675 4676 4677 4678 4679 4680
          4681 4682 4683 4684 4685 4686
          4687 4688 4689 4690 4691 4692
          4693 4694 4695 4696 4697 4698
          4699 4700 4701 4702 4703 4704
          4705 4706 4707 4708 4709 4710
          4711 4712 4713 4714 4715 4716
          4717 4718 4719 4720 4721 4722
          4723 4724 4725 4726 4727 4728
          4729 4730 4731 4732 4733 4734
          4735 4736 4737 4738 4739 4740
          4741 4742 4743 4744 4745 4746
          4747 4748 4749 4750 4751 4752
          4753 4754 4755 4756 4757 4758
          4759 4760 4761 4762 4763 4764
          4765 4766 4767 4768 4769 4770
          4771 4772 4773 4774 4775 4776
          4777 4778 4779 4780 4781 4782
          4783 4784 4785 4786 4787 4788
          4789 4790 4791 4792 4793 4794
          4795 4796 4797 4798 4799 4800
          4801 4802 4803 4804 4805 4806
          4807 4808 4809 4820 4822 4828
          4829 4832 4834 4835 4837 4848
          4850 4852 4854 4862 4863 4864
          4865 4866 4867 4868 4869 4870
          4871 4872 4873 4874 4875 4876
          4877 4898 4899 4900 4901 4902
          4903 4904 4905 4906 4907 4908
          4909 4910 4911 4912 4913 4914
          4915 4916 4917 4918 4919 4920
          4921 4922 4923 4924 4925 4926
          4927 4928 4929 4930 4931 4932
          4933 4934 4935 4936 4937 4938
          4939 4940 4941 4942 4943 4944
          4945 4946 4947 4948 4949 4950
          4951 4952 4953 4954 4955 4956
          4957 4958 4959 4960 4961 4962
          4963 4964 4965 4966 4967 4970
          4972 4973 4975 4986 4988 4990
          4992 5000 5001 5004 5006 5007
          5009 5020 5022 5024 5026 5034
          5035 5036 5037 5038 5039 5040
          5041 5042 5043 5044 5045 5046
          5047 5048 5049 5050 5051 5052
          5053 5054 5055 5056 5057 5058
          5059 5060 5061 1660 1662 1663
          1661 1666 1667 1665 1664 927
          1669 1701 1705 1704 1718 1717
          1709 1722 1721 1724 1725 1726
          1727 1728 1733 1729 935 1734
          1735 1738 1743 1751 1688 1784
          1752 1785 1788 1789 1761 1791
          1795 2368 2437 2438 2440 2443
          2456 2468 2484 2486 2488 1700
          4231 4289 4290 4292 2465 4295
          2466 4237 4305 4307 4309 4323
          4324 4326 1706 4329 2471 4339
          4341 4343 1707
        </DataArray>
        <DataArray type="Float64" Name="bounds" format="ascii" RangeMin="0" RangeMax="0">
          0 0 0 0 0 0
          0 0 0 0 0 0
          0 0 0 0 0 0
          0 0 0 0 0 0
          0 0 0 0 0 0
          0 0 0 0 0 0
          0 0 0 0 0 0
          0 0 0 0 0 0
          0 0 0 0 0 0
          0 0 0 0 0 0
          0 0 0 0 0 0
          0 0 0 0 0 0
          0 0 0 0 0 0
          0 0 0 0 0 0
          0 0 0 0 0 0
          0 0 0 0 0 0
          0 0 0 0 0 0
          0 0 0 0 0 0
          0 0 0 0 0 0
          0 0 0 0 0 0
          0 0 0 0 0 0
          0 0 0 0 0 0
          0 0 0 0 0 0
          0 0 0 0 0 0
          0 0 0 0 0 0
          0 0 0 0 0 0
          0 0 0 0 0 0
          0 0 0 0 0 0
          0 0 0 0 0 0
          0 0 0 0 0 0
          0 0 0 0 0 0
          0 0 0 0 0 0
          0 0 0 0 0 0
          0 0 0 0 0 0
          0 0 0 0 0 0
          0 0 0 0 0 0
          0 0 0 0 0 0
          0 0 0 0 0 0
          0 0 0 0 0 0
          0 0 0 0 0 0
          0 0 0 0 0 0
          0 0 0 0 0 0
          0 0 0 0 0 0
          0 0 0 0 0 0
          0 0 0 0 0 0
          0 0 0 0 0 0
          0 0 0 0 0 0
          0 0 0 0 0 0
          0 0 0 0 0 0
          0 0 0 0 0 0
          0 0 0 0 0 0
          0 0 0 0 0 0
          0 0 0 0 0 0
          0 0 0 0 0 0
          0 0 0 0 0 0
          0 0 0 0 0 0
          0 0 0 0 0 0
          0 0 0 0 0 0
          0 0 0 0 0 0
          0 0 0 0 0 0
          0 0 0 0 0 0
          0 0 0 0 0 0
          0 0 0 0 0 0
          0 0 0 0 0 0
          0 0 0 0 0 0
          0 0 0 0 0 0
          0 0 0 0 0 0
          0 0 0 0 0 0
          0 0 0 0 0 0
          0 0 0 0 0 0
          0 0 0 0 0 0
          0 0 0 0 0 0
          0 0 0 0 0 0
          0 0 0 0 0 0
          0 0 0 0 0 0
          0 0 0 0 0 0
          0 0 0 0 0 0
          0 0 0 0 0 0
          0 0 0 0 0 0
          0 0 0 0 0 0
          0 0 0 0 0 0
          0 0 0 0 0 0
          0 0 0 0 0 0
          0 0 0 0 0 0
          0 0 0 0 0 0
          0 0 0 0 0 0
          0 0 0 0 0 0
          0 0 0 0 0 0
          0 0 0 0 0 0
          0 0 0 0 0 0
          0 0 0 0 0 0
          0 0 0 0 0 0
          0 0 0 0 0 0
          0 0 0 0 0 0
          0 0 0 0 0 0
          0 0 0 0 0 0
          0 0 0 0 0 0
          0 0 0 0 0 0
          0 0 0 0 0 0
          0 0 0 0 0 0
          0 0 0 0 0 0
          0 0 0 0 0 0
          0 0 0 0 0 0
          0 0 0 0 0 0
          0 0 0 0 0 0
          0 0 0 0 0 0
          0 0 0 0 0 0
          0 0 0 0 0 0
          0 0 0 0 0 0
          0 0 0 0 0 0
          0 0 0 0 0 0
          0 0 0 0 0 0
          0 0 0 0 0 0
          0 0 0 0 0 0
          0 0 0 0 0 0
          0 0 0 0 0 0
          0 0 0 0 0 0
          0 0 0 0 0 0
          0 0 0 0 0 0
          0 0 0 0 0 0
          0 0 0 0 0 0
          0 0 0 0 0 0
          0 0 0 0 0 0
          0 0 0 0 0 0
          0 0 0 0 0 0
          0 0 0 0 0 0
          0 0 0 0 0 0
          0 0 0 0 0 0
          0 0 0 0 0 0
          0 0 0 0 0 0
          0 0 0 0 0 0
          0 0 0 0 0 0
          0 0 0 0 0 0
          0 0 0 0 0 0
          0 0 0 0 0 0
          0 0 0 0 0 0
          0 0 0 0 0 0
          0 0 0 0 0 0
          0 0 0 0 0 0
          0 0 0 0 0 0
          0 0 0 0 0 0
          0 0 0 0 0 0
          0 0 0 0 0 0
          0 0 0 0 0 0
          0 0 0 0 0 0
          0 0 0 0 0 0
          0 0 0 0 0 0
          0 0 0 0 0 0
          0 0 0 0 0 0
          0 0 0 0 0 0
          0 0 0 0 0 0
          0 0 0 0 0 0
          0 0 0 0 0 0
          0 0 0
        </DataArray>
        <DataArray type="Float64" Name="gradient_error" format="ascii" RangeMin="5.965404992856791e-10" RangeMax="7.408898314401411e-7">
          8.561865086113812e-10 3.858436955176534e-7 4.7315423992303864e-7 4.4754392085428135e-7 2.147102968982979e-9 5.495796773020308e-7
          4.574887088117213e-7 5.262529860682075e-9 1.3844459748978795e-7 7.085867393991228e-9 4.152637515656127e-7 3.9936858034404074e-7
          4.2740044652476746e-7 2.6690255798980003e-7 3.6223085997807204e-7 4.2645096730190415e-9 3.656168789645647e-8 4.6389689063425565e-9
          3.97344736989705e-8 4.6711219180355e-7 4.985432949810984e-7 1.532163437226552e-9 6.482838470640436e-9 6.972808470796315e-9
          5.09362979026628e-7 6.007176759722609e-9 1.2984853952262548e-8 5.298671777572867e-7 2.8892902180933526e-9 8.844128088793783e-9
          5.926817194344105e-7 8.974888004502338e-8 9.011433429528781e-8 9.488251023183174e-8 9.047978854555227e-8 9.901678538224929e-8
          5.0113251659940466e-8 6.986167270487814e-8 5.278099053670014e-8 6.29024345796346e-8 8.971688761721338e-8 8.360491593076515e-8
          6.109632490672881e-9 2.7885104025741233e-8 1.7861823391183814e-8 6.427051922822271e-8 1.0298987453579367e-7 1.0156937433539287e-7
          9.886071788000583e-8 8.995123996629919e-8 1.0331337996290658e-7 1.333440868512145e-9 3.0083520343507206e-9 1.3997829150177095e-9
          2.7537627821610914e-9 2.9982958490635746e-8 1.9509336628115298e-8 6.403332375339294e-10 1.966041635196654e-9 2.0033131347233906e-9
          7.594197210842588e-9 7.871636875736845e-8 7.146137524648077e-8 1.0440575725089216e-7 1.0972397861289992e-7 5.863678007034232e-8
          6.15351522099024e-8 1.0549813453887772e-7 9.960468890072686e-8 1.0010660973275982e-7 1.0549937472716837e-7 1.0263207882844854e-7
          1.098663054491824e-7 1.1098315961179597e-7 1.1698271103623606e-7 1.1422326431626813e-7 1.024196376633967e-7 1.0849103811272782e-7
          1.0018364823468913e-7 1.138411761513453e-7 1.1940583485845827e-7 1.113358374445639e-7 1.1144500277954728e-7 1.0780596259122572e-7
          1.0416692240290416e-7 1.2219448620195582e-7 1.2380953979005483e-7 1.0609838089644893e-7 1.2721495592337517e-7 1.1363187110180172e-7
          1.1048946946019248e-7 1.0734706781858326e-7 7.06372958193663e-8 9.94072831173181e-8 1.3380043319029517e-7 1.2537658716059108e-7
          1.3195182732084798e-7 1.2174785585258566e-7 5.534453464122389e-8 5.588040295215865e-8 5.780573167534695e-8 5.868331948323396e-8
          8.143094829758039e-8 8.533037890315086e-8 4.611857345576056e-9 7.104361852413325e-9 6.5599972265260606e-9 3.564242700284782e-8
          6.028863477735186e-8 6.151714289535088e-8 6.290742621684797e-8 6.453621735088799e-8 8.981589537782891e-8 9.47189430948113e-8
          4.263721690370507e-9 6.243964609727022e-9 6.250230796694644e-9 3.8063511471562686e-8 1.0579044949032e-7 1.1138376250143068e-7
          1.0529037467467085e-7 1.1181588834684227e-7 8.660448398281702e-8 9.100443951870969e-8 1.1255964744110288e-7 1.1707942816609692e-7
          1.231751148938055e-7 1.1741737967423772e-7 1.2324455386224278e-7 9.596580087313435e-8 1.0144191843650183e-7 1.2599179291761538e-7
          1.7370709630893866e-9 2.8092449906203013e-9 2.2270800481535424e-9 3.224487378862811e-9 8.385723502454489e-9 8.047372232370704e-9
          1.2230068170907464e-9 2.3628195200599663e-9 2.9092846514797657e-9 6.704595666003939e-9 2.7073884124221617e-9 3.840702721827922e-9
          3.1769010990989422e-9 4.512746837748695e-9 7.90553916785208e-9 8.039453906459393e-9 1.8321729521939787e-9 3.454111516265856e-9
          4.021941238386057e-9 6.573807195993439e-9 6.432519781222426e-8 6.784559598964173e-8 1.156164839033845e-7 1.2205646727342532e-7
          6.453970237201228e-8 6.788308049556499e-8 1.1651077403921586e-7 7.166862871961622e-8 7.59662541368018e-8 1.2904314873034215e-7
          1.3689696188066858e-7 7.160254639422551e-8 7.580874558591739e-8 1.2960163352936512e-7 6.583800679022613e-8 6.786333552143156e-8
          3.972590060137055e-8 5.6807910993812315e-8 8.541420895615107e-8 7.575044545092596e-8 5.2711353530288e-9 6.590194252393518e-9
          7.2431281066379435e-9 2.6793341981221465e-8 1.1685912439175695e-8 4.515393227041367e-8 8.042102237609194e-8 1.1500465446873925e-7
          1.067947206255699e-7 1.2953529777921647e-7 1.3639909001577574e-7 9.284339757603511e-8 8.434306586512345e-8 1.41217474603944e-7
          3.6711382630491663e-9 5.236732575975495e-9 4.2153566813449675e-9 6.0413437023800845e-9 8.471871109279264e-9 9.258360092411066e-9
          2.4946210103891595e-9 4.65822809595295e-9 5.374245935153528e-9 7.756547401160266e-9 8.085735225580423e-8 8.650170094958266e-8
          1.459848964754365e-7 1.5669342798405773e-7 8.054930724782183e-8 8.61264006008e-8 1.4685758344883225e-7 9.807096188026187e-9
          9.599103076204115e-9 9.599136896264721e-9 9.599170716325331e-9 1.0120976235633755e-8 1.0026153858427722e-8 1.0370829407459994e-8
          9.931331481221686e-9 1.0755717979770539e-8 1.0622339109470923e-8 1.0860943600370912e-8 1.0488960239171306e-8 1.1905282845019018e-8
          9.542489999337228e-9 9.62808709646292e-9 9.449129120060229e-9 9.653285329311873e-9 9.713684193588613e-9 9.857441538563521e-9
          6.642671663648274e-9 7.093394331506311e-9 6.7042497155107815e-9 7.752362887755929e-9 9.34434149545918e-9 9.624573569339124e-9
          9.18091173226571e-9 9.533647312855713e-9 9.904805643219068e-9 1.0380114587057703e-8 5.677553296723517e-9 6.3499420228788714e-9
          5.973261947910605e-9 7.267461894020253e-9 8.771567692603321e-9 8.719105366040812e-9 9.374280720667563e-9 1.164514058474669e-8
          1.1922703195211708e-8 8.651406557180269e-9 9.47560911362079e-9 9.545088930368233e-9 1.2572163075336603e-8 3.032814414568327e-9
          3.5907009594627124e-9 2.7435131785643258e-9 3.2883017228781296e-9 5.393494017161891e-9 5.101882485681897e-9 1.361291853280361e-9
          1.7834259718296354e-9 1.7153707734388458e-9 3.203015859326338e-9 2.540354457940344e-9 3.0512892601546833e-9 2.404829522977717e-9
          2.8737288492556526e-9 4.8179504065023365e-9 4.535674326967886e-9 1.3392737073425862e-9 1.688261888279428e-9 1.7168037829413608e-9
          2.852914404371314e-9 7.854167000287676e-9 7.709918869249599e-9 9.06993347060867e-9 9.049163034327333e-9 5.9917739943905945e-9
          5.720358950262252e-9 8.69606318349669e-9 7.541306860239054e-9 7.316393903264917e-9 9.008936969842459e-9 9.951627668934887e-9
          5.455676194757501e-9 5.191777449356836e-9 8.325766324247987e-9 7.92499282081593e-10 1.168363993033001e-9 8.094093167562113e-10
          1.1647715526864245e-9 2.264602755871677e-9 2.1733858355236105e-9 6.067041224832683e-10 9.945096328176492e-10 1.002646824393606e-9
          2.0296359487583365e-9 8.675541621605738e-10 1.2000566283768818e-9 9.912549505170394e-10 1.2998712627677747e-9 2.1308370200191335e-9
          2.1529415684261917e-9 7.151282432174501e-10 1.0530919839538547e-9 1.1734197876834376e-9 1.950878726903347e-9 4.674986971278188e-9
          4.381678809059043e-9 8.32474477386174e-9 8.015840429289244e-9 4.303192261747217e-9 4.023372090051967e-9 7.988187882753331e-9
          4.144337932353646e-9 3.965157486369785e-9 7.787936159171951e-9 7.556446718120664e-9 3.80853063849013e-9 3.6586333723617273e-9
          7.323615336630264e-9 1.0817054750025696e-8 1.0769768424532407e-8 1.1100082943499771e-8 1.0722482099039119e-8 1.0912665827017677e-8
          1.1063526937822553e-8 1.1303294824560124e-8 1.2370545412437954e-8 1.2694342474326552e-8 1.1174713533179674e-8 1.1561065536828759e-8
          1.1857675393592674e-8 1.081875989102015e-8 1.0902813144543322e-8 1.1353027369114248e-8 1.1710665166195663e-8 1.0724853955022622e-8
          1.0742099351264093e-8 1.1402759913668373e-8 1.096724704847095e-8 1.1011066762111822e-8 1.1918182697860211e-8 1.2142159498888015e-8
          1.0759780563762224e-8 1.076499909375016e-8 1.1978690002127751e-8 1.661572398009293e-8 1.63697645394392e-8 1.6728916024871577e-8
          1.697924683504662e-8 1.7088067510303958e-8 1.1078222387873595e-8 1.1035513809811112e-8 1.111330386385624e-8 1.1455352595582074e-8
          1.1045405403222637e-8 1.1115784419700389e-8 1.1079923108832755e-8 1.1775405954044449e-8 1.2082174460642566e-8 1.2350189505356946e-8
          1.2246448961869616e-8 1.2561361033521238e-8 1.2802819228927986e-8 1.2758073595131719e-8 8.971710057164286e-9 9.363602779552796e-9
          8.739946909872062e-9 9.153876883339763e-9 1.0516961572919882e-8 1.038164496615332e-8 4.9002976421657184e-9 5.593788401772524e-9
          5.258792557263971e-9 7.519067247580087e-9 8.507820940257749e-9 8.939089494792334e-9 8.280077298336894e-9 8.723777240972419e-9
          1.0280966123871144e-8 1.0163856890519425e-8 4.398398305579418e-9 5.000439067421916e-9 4.82416335872829e-9 6.809401974066712e-9
          1.1700289262001771e-8 1.1801941563581532e-8 1.2122150880105086e-8 1.2408400051663889e-8 9.809896208511807e-9 9.657831634720475e-9
          1.1393550743592117e-8 1.1894451476559434e-8 1.1984533511802587e-8 1.2597328754703493e-8 1.2808830426174266e-8 9.51186640667112e-9
          9.337916346939542e-9 1.1612292661481328e-8 1.087326299346426e-8 1.10282381072112e-8 1.0934226798336581e-8 1.1964293751518631e-8
          1.0460917244221254e-8 1.0762210218621417e-8 1.051531014837257e-8 1.209648948087522e-8 1.3054041143400735e-8 1.3312688643826854e-8
          1.3362708004722346e-8 1.3570552626312887e-8 1.3831338962033643e-8 1.4011629483896917e-8 8.05955042070329e-9 8.51848628741918e-9
          7.855233783811008e-9 8.323422106887594e-9 1.004808925415417e-8 9.934861800717903e-9 4.217967152571924e-9 4.732851937081635e-9
          4.7281819005611125e-9 6.366054860723076e-9 7.681990667162463e-9 8.145183232870556e-9 7.565262811553307e-9 8.007791501777293e-9
          9.822537366826416e-9 9.720864242787187e-9 4.40559126793575e-9 4.813357605994443e-9 4.990170401334673e-9 6.204322775103512e-9
          1.2075633054681639e-8 1.216378162339892e-8 1.3032509755190003e-8 1.3249450075326211e-8 9.18654073434569e-9 9.06443190125323e-9
          1.167270200868713e-8 1.2242259621354119e-8 1.2318931272142912e-8 1.3447820307634058e-8 1.3646454250712726e-8 8.973434310430934e-9
          8.925781327895352e-9 1.1718426795098907e-8 1.2728060016390699e-8 1.2996085676826593e-8 1.3013341968490585e-8 1.3249472555731228e-8
          1.3532137950630004e-8 1.3676884515964927e-8 1.3813197776229863e-8 1.4096816620189042e-8 1.4385706464071484e-8 1.4389287248945112e-8
          1.4692629364520831e-8 1.514198814200946e-8 2.3453035793099163e-9 2.7725798458089334e-9 2.3783663014172888e-9 2.75469456096544e-9
          4.278018112315822e-9 4.090584051832798e-9 1.5341507587500418e-9 1.819416360078991e-9 2.0030791769749134e-9 2.734169685938686e-9
          2.505607535684871e-9 2.829238626976761e-9 2.712235319943947e-9 2.9965287361404455e-9 4.0017099671316874e-9 4.014884345113752e-9
          1.9774644866911897e-9 2.245026761166676e-9 2.511947823065097e-9 2.97806414287458e-9 7.02891022540144e-9 6.75811763399786e-9
          1.033827011753016e-8 1.0210166296053669e-8 4.946164061846621e-9 4.760132336312862e-9 8.677123879095613e-9 6.527521247312198e-9
          6.337046573738268e-9 1.0126198551942533e-8 1.0026222704951088e-8 4.672962347826501e-9 4.6936124628227275e-9 8.199066398281373e-9
          1.178795792506944e-9 1.4767627418450172e-9 1.3843086967819288e-9 1.699036262482897e-9 2.2573326130459503e-9 2.4498856708562275e-9
          1.0444996682571758e-9 1.3639674008993505e-9 1.578168081242188e-9 2.1427981339436864e-9 1.5752161628218139e-9 1.9249544094088625e-9
          1.7537679640746365e-9 2.1403968756354753e-9 2.7071489070544326e-9 2.994017815145349e-9 1.380158289765016e-9 1.779848985478343e-9
          1.9692602330771523e-9 2.6293118081874974e-9 3.8609956278846365e-9 3.8419935372038544e-9 7.32505539635931e-9 7.118280139857784e-9
          3.586095229216274e-9 3.6179880221428727e-9 6.8810035533698205e-9 3.923564668940554e-9 4.1063917917305675e-9 6.9546651278676206e-9
          6.848397629560631e-9 3.76005624310789e-9 3.990066906090314e-9 6.563447527973199e-9 2.9796998846659205e-9 3.2399290479846846e-9
          3.2863503472775063e-9 3.536046754955456e-9 4.127678378100433e-9 4.329900222973266e-9 2.4712506371288086e-9 2.7823228986404783e-9
          3.0480946274993256e-9 3.520686402805684e-9 3.6109016164220793e-9 3.861799804337499e-9 3.933421434530744e-9 4.199349253788034e-9
          4.604027305482237e-9 4.93195802635208e-9 2.941085116877498e-9 3.3109107335409148e-9 3.575790312228654e-9 4.171698747565578e-9
          6.225688733079522e-9 6.20517691535607e-9 9.946162564974677e-9 9.894484232195786e-9 4.816431108745445e-9 5.028960180556084e-9
          7.943514281463439e-9 6.275260473431101e-9 6.433674794107427e-9 9.873561319689933e-9 9.891024874247504e-9 5.313962587336993e-9
          5.659170876352666e-9 7.937984706375352e-9 1.927511724215568e-9 2.348017709771042e-9 2.10109450056181e-9 2.554165467240689e-9
          3.2854016892007406e-9 3.5725241554496045e-9 1.6818254863038342e-9 2.1542783116943875e-9 2.340488803710021e-9 3.1845623643345354e-9
          2.2775097802991807e-9 2.7645034601484473e-9 2.459185918775213e-9 2.9827486709168085e-9 3.862820682370358e-9 4.165987817267057e-9
          1.986534113919694e-9 2.532226097020876e-9 2.7325472774650417e-9 3.730238183144622e-9 4.367824775512079e-9 4.681845044570682e-9
          6.819512811630947e-9 6.872788958354697e-9 4.278308296963474e-9 4.602134359205863e-9 6.486424930082509e-9 5.0341365801035976e-9
          5.4230535844195714e-9 6.998726519590199e-9 7.199679614440039e-9 4.957966927928891e-9 5.35007593081014e-9 6.732971638846793e-9
          1.2464454349932995e-8 1.2652031472003951e-8 1.2954008803284851e-8 1.334982033674428e-8 1.1747269738896703e-8 1.1817248321863721e-8
          1.2668962432825995e-8 1.2852979674827985e-8 1.306464368346415e-8 1.3658054524400584e-8 1.4001988566612099e-8 1.1911542739972197e-8
          1.1997201702351524e-8 1.3327338128927655e-8 1.1032229884302095e-8 1.1046798610087345e-8 1.2396404696746034e-8 1.2655016501338243e-8
          1.0770768974286068e-8 1.0767077843628558e-8 1.2349560165919196e-8 1.1058836786857714e-8 1.1068381513713044e-8 1.2915867497748339e-8
          1.319174150867158e-8 1.0751074887695775e-8 1.0739509039021333e-8 1.2816283270477604e-8 1.3271348615206679e-8 1.348033742294252e-8
          1.4346551021725631e-8 1.4708002928892477e-8 1.2078231981235393e-8 1.2169935642280814e-8 1.3954319971575578e-8 1.3699486889570654e-8
          1.3930468165902371e-8 1.510701546791209e-8 1.554759719186575e-8 1.2285499817766368e-8 1.2423463301643744e-8 1.4660294252529195e-8
          1.1088559145650703e-8 1.1139562356924494e-8 1.34714625359887e-8 1.3759425009301316e-8 1.075015378301411e-8 1.0803111654983354e-8
          1.3341680708206023e-8 1.1233643878254529e-8 1.135904556084283e-8 1.4063963652792855e-8 1.4339174850169017e-8 1.0905974651172516e-8
          1.1039471485682083e-8 1.3879381594342046e-8 9.789085686655994e-9 1.0223029855648317e-8 9.933685534867432e-9 1.2026157466822772e-8
          1.573246100921274e-8 1.62391452386519e-8 1.6745829468091058e-8 9.247031650736447e-9 9.682329644958925e-9 1.157768797762645e-8
          1.1782846044013864e-8 1.4096670677036721e-8 1.4342335221530763e-8 1.4798000445068545e-8 1.4538796805083023e-8 1.4718047438510322e-8
          1.632727603445977e-8 7.515105433442185e-9 7.927686225226586e-9 7.52227869038549e-9 7.907071647507473e-9 9.638388687093492e-9
          9.58911020717161e-9 4.93844514787111e-9 5.247022549004426e-9 5.561770841577294e-9 6.379881554195702e-9 7.57406389019001e-9
          7.941490629218189e-9 7.628726311170145e-9 8.012977642154305e-9 9.589187670691419e-9 9.660928256615308e-9 5.621131290479313e-9
          5.9188440992020584e-9 6.321445022211843e-9 6.879479582767961e-9 1.240131163997536e-8 1.2461217152890163e-8 1.3866112922774719e-8
          1.4909419543614313e-8 8.929489473211867e-9 8.979255830389333e-9 1.1741902228877714e-8 1.2491803280357722e-8 1.2569156571451005e-8
          1.5460047434586717e-8 1.5710462491173728e-8 9.08007289941738e-9 9.268352966869606e-9 1.2918326882069626e-8 1.576920574457689e-8
          1.621945696813547e-8 1.5903844698464465e-8 1.624955247465567e-8 1.666970819169405e-8 1.659526025084687e-8 1.188818817909037e-8
          1.2458119673344955e-8 1.2326134292031095e-8 1.3216686271442269e-8 1.4924820855135597e-8 1.7296893054399346e-8 7.696903716960561e-9
          8.1383380153493e-9 9.840305978717975e-9 6.461475964604366e-9 6.780628930458565e-9 7.67551675308715e-9 1.2729570261886642e-8
          1.603839017086571e-8 9.562324497958186e-9 1.3199750780127613e-8 1.662054602500402e-8 1.7053104347975317e-8 1.780528389277569e-8
          1.7081185788350818e-8 1.6758778482173704e-8 1.68614553256376e-8 1.501181233151711e-8 1.584603995893643e-8 1.6107549552741223e-8
          1.7077748076370438e-8 1.769049951320887e-8 1.7349549871146415e-8 1.8173759646880134e-8 1.635972071784686e-8 1.6766806441242913e-8
          1.7500531212778103e-8 4.246180632240451e-9 4.539915428670369e-9 4.560223820739709e-9 4.886759417199026e-9 5.300911288683009e-9
          5.7016591708026495e-9 3.418951300065555e-9 3.848659588584434e-9 4.134072970949856e-9 4.866601820143007e-9 4.889854903416859e-9
          5.248036821900151e-9 5.240013258512961e-9 5.6296031399457874e-9 6.12947824265828e-9 6.587964560310431e-9 3.935780017930279e-9
          4.4349711777742645e-9 4.7541775642222145e-9 5.627255443487965e-9 6.6760436321696045e-9 7.0057226310564226e-9 9.952617205290333e-9
          1.0059991884885865e-8 6.0583097621046425e-9 6.5030421810921374e-9 8.214072623164162e-9 7.413276844090984e-9 7.876440943089807e-9
          1.0224880920578186e-8 1.0471862264012998e-8 6.98545144101427e-9 7.505039055356236e-9 8.820444885237582e-9 2.6485937210822685e-9
          3.2114630962410565e-9 2.8478452993955746e-9 3.45259452591568e-9 4.485736518562263e-9 4.823837124775387e-9 2.315880991000488e-9
          2.943735369449984e-9 3.167478021322623e-9 4.33094877317734e-9 3.0590378173602396e-9 3.7082552563705364e-9 3.2843247650598834e-9
          3.981017160345872e-9 5.182042922971955e-9 5.56317107202394e-9 2.6850589543785858e-9 3.4056052160661796e-9 3.6607019941895763e-9
          5.005101576117588e-9 5.84547603632387e-9 6.29741139310922e-9 7.491300196483227e-9 7.879953699924209e-9 5.773393469267929e-9
          6.221771109617908e-9 7.3139489141426705e-9 6.77635850641371e-9 7.279550881364668e-9 8.356178794263224e-9 8.900629021725617e-9
          6.6930317757785115e-9 7.185465308848952e-9 8.277394729782068e-9 5.609920874436435e-9 6.0340334600646915e-9 7.080679856728824e-9
          4.5126683387416274e-9 5.094664309361746e-9 6.48264890005407e-9 8.400302020153803e-9 1.0813457701973065e-8 8.063766788014216e-9
          9.780793099383595e-9 3.52615356974614e-9 4.2741605964102634e-9 5.972412874089583e-9 3.1099383071281297e-9 3.936236228717349e-9
          5.7711111421689925e-9 7.811337420299497e-9 9.496165270846189e-9 7.705415977599483e-9 9.43804547394817e-9 1.4175478351064885e-8
          1.4427981092100155e-8 1.6029637203622583e-8 1.6557400348594466e-8 1.2581258005454358e-8 1.277196168282331e-8 1.5396154525606973e-8
          1.4695196878999736e-8 1.500118077539282e-8 1.7114447860091952e-8 1.765478280969701e-8 1.3012355085804333e-8 1.3303152473438973e-8
          1.603437473380436e-8 1.1508800642935298e-8 1.1700934022476114e-8 1.4528812399827199e-8 1.464645293420726e-8 1.119422964557454e-8
          1.1393352394772968e-8 1.4217040602944396e-8 1.1954560540239469e-8 1.2283260036280923e-8 1.4742867354216834e-8 1.4875731203423926e-8
          1.1657755035941585e-8 1.2004678927625755e-8 1.4262732489394657e-8 4.980947101025672e-7 5.204643623130568e-7 4.909257093893352e-7
          4.7287310791743353e-7 3.591378622376258e-7 5.127376928930909e-7 3.897930490031899e-7 3.844741474523625e-7 5.499150420280648e-7