<?xml version="1.0"?>
<VTKFile type="UnstructuredGrid" version="0.1" byte_order="LittleEndian" header_type="UInt32" compressor="vtkZLibDataCompressor">
  <UnstructuredGrid>
    <Piece NumberOfPoints="1063" NumberOfCells="609">
      <PointData>
        <DataArray type="Int32" Name="libmesh_node_id" format="ascii" RangeMin="0" RangeMax="10045">
          0 1 2 3 4 5
          6 7 8 9 10 11
          12 13 14 15 16 17
          18 19 20 21 22 23
          24 25 26 27 28 29
          30 31 32 33 34 35
          36 37 38 39 40 41
          42 43 44 45 46 47
          88 89 90 91 92 93
          94 95 96 97 98 99
          100 101 102 103 104 105
          106 107 108 109 110 111
          132 133 134 135 136 137
          138 139 140 141 142 143
          144 145 146 147 148 149
          150 151 152 153 154 155
          176 177 178 179 180 181
          182 183 184 185 186 187
          188 189 190 191 192 193
          194 195 196 197 198 199
          220 221 222 223 224 225
          226 227 228 229 230 231
          242 243 244 245 246 247
          248 249 250 251 252 253
          264 265 266 267 268 269
          270 271 272 273 274 275
          276 277 278 279 280 281
          282 283 284 285 286 287
          308 309 310 311 312 313
          314 315 316 317 318 319
          330 331 332 333 334 335
          336 337 338 339 340 341
          352 353 354 355 356 357
          358 359 360 361 362 363
          364 365 366 367 368 369
          370 371 372 373 396 397
          398 399 400 401 402 403
          404 405 406 418 419 420
          421 422 423 424 425 426
          427 428 440 441 442 443
          444 445 446 447 448 449
          450 451 452 453 454 455
          456 457 458 459 460 461
          484 485 486 487 488 489
          490 491 492 493 494 506
          507 508 509 510 511 512
          513 514 515 516 528 529
          530 531 532 533 534 535
          536 537 538 539 540 541
          542 543 544 545 546 547
          548 549 572 573 574 575
          576 577 578 579 580 581
          582 594 595 596 597 598
          599 600 601 602 603 604
          618 619 622 628 632 759
          760 761 762 763 764 765
          766 767 768 769 770 771
          772 773 774 775 776 777
          778 779 783 784 785 787
          788 789 791 1018 1019 1022
          1025 1082 1083 1084 1085 1086
          1092 1204 1205 1206 1207 1208
          1209 1210 1211 1212 1213 1214
          1215 1216 1217 1220 1221 1224
          1230 1234 1237 1238 1239 1240
          1241 1242 1243 1244 1245 1246
          1247 1248 1249 1250 1251 1252
          1253 1254 2052 2054 2057 2059
          2061 2062 2063 2064 2069 2071
          2072 2140 2141 2142 2143 2144
          2145 2146 2147 2148 2149 2150
          2151 2152 2153 2154 2155 2156
          2157 2158 2159 2160 2161 2162
          2163 9422 9423 9424 9425 9426
          9427 9428 9429 9430 9431 9432
          9433 9434 9435 9436 9437 9438
          9439 9440 9441 9442 9443 9444
          9445 9446 9447 9448 9449 9450
          9451 9452 9453 9454 9455 9456
          9457 9458 9459 9460 9461 9462
          9463 9464 9465 9466 9467 9468
          9469 9470 9471 9472 9473 9474
          9475 9476 9477 9478 9479 9480
          9481 9482 9483 9484 9485 9486
          9487 9488 9489 9490 9491 9492
          9493 9494 9495 9496 9497 9498
          9499 9500 9501 9502 9503 9504
          9505 9506 9507 9508 9509 9510
          9511 9512 9513 9514 9515 9516
          9517 9518 9519 9520 9521 9522
          9523 9524 9525 9526 9527 9528
          9529 9530 9531 9532 9533 9534
          9535 9536 9537 9538 9539 9540
          9541 9542 9543 9544 9545 9546
          9547 9548 9549 9550 9551 9552
          9553 9554 9555 9556 9557 9558
          9559 9560 9561 9562 9563 9564
          9565 9566 9567 9568 9569 9570
          9571 9572 9573 9574 9575 9576
          9577 9578 9579 9580 9581 9582
          9583 9584 9585 9586 9587 9588
          9589 9590 9591 9592 9593 9594
          9595 9596 9597 9598 9599 9600
          9601 9602 9603 9604 9605 9606
          9607 9608 9609 9610 9611 9612
          9613 9614 9615 9616 9617 9618
          9619 9620 9621 9622 9623 9624
          9625 9626 9627 9628 9629 9630
          9631 9632 9633 9634 9635 9636
          9637 9638 9639 9640 9641 9642
          9643 9644 9645 9646 9647 9648
          9649 9650 9651 9652 9653 9654
          9655 9656 9657 9658 9659 9660
          9661 9662 9663 9664 9665 9666
          9667 9668 9669 9670 9671 9672
          9673 9674 9675 9676 9677 9678
          9679 9680 9681 9682 9683 9684
          9685 9686 9687 9688 9689 9690
          9691 9692 9693 9694 9695 9696
          9697 9698 9699 9700 9701 9702
          9703 9704 9705 9706 9707 9708
          9709 9710 9711 9712 9713 9714
          9715 9716 9717 9718 9719 9720
          9721 9722 9723 9724 9725 9726
          9727 9728 9729 9730 9731 9732
          9733 9734 9735 9736 9737 9738
          9739 9740 9741 9742 9743 9744
          9745 9746 9747 9748 9749 9750
          9751 9752 9753 9754 9755 9756
          9757 9758 9759 9760 9761 9762
          9763 9764 9765 9766 9767 9768
          9769 9770 9771 9772 9773 9774
          9775 9776 9777 9778 9779 9780
          9781 9782 9783 9784 9785 9786
          9787 9788 9789 9790 9791 9792
          9793 9794 9795 9796 9797 9798
          9799 9800 9801 9802 9803 9804
          9805 9806 9807 9808 9809 9810
          9811 9812 9813 9814 9815 9816
          9817 9818 9819 9820 9821 9822
          9823 9824 9825 9826 9827 9828
          9829 9830 9831 9832 9833 9834
          9835 9836 9837 9838 9839 9840
          9841 9842 9843 9844 9845 9846
          9847 9848 9849 9850 9851 9852
          9853 9854 9855 9856 9857 9858
          9859 9860 9861 9862 9863 9864
          9865 9866 9867 9868 9869 9870
          9871 9872 9873 9874 9875 9876
          9877 9878 9879 9880 9881 9882
          9883 9884 9885 9886 9887 9888
          9889 9890 9891 9892 9893 9894
          9895 9896 9897 9898 9899 9900
          9901 9902 9903 9904 9905 9906
          9907 9908 9909 9910 9911 9912
          9913 9914 9915 9916 9917 9918
          9919 9920 9921 9922 9923 9924
          9925 9926 9927 9928 9929 9930
          9931 9932 9933 9934 9935 9936
          9937 9938 9939 9940 9941 9942
          9943 9944 9945 9946 9947 9948
          9949 9950 9951 9952 9953 9954
          9955 9956 9957 9958 9959 9960
          9961 9962 9963 9964 9965 9966
          9967 9968 9969 9970 9971 9972
          9973 9974 9975 9976 9977 9978
          9979 9980 9981 9982 9983 9984
          9985 9986 9987 9988 9989 9990
          9991 9992 9993 9994 9995 9996
          9997 9998 9999 10000 10001 10002
          10003 10004 10005 10006 10007 10008
          10009 10010 10011 10012 10013 10014
          10015 10016 10017 10018 10019 10020
          10021 10022 10023 10024 10025 10026
          10027 10028 10029 10030 10031 10032
          10033 10034 10035 10036 10037 10038
          10039 10040 10041 10042 10043 10044
          10045
        </DataArray>
        <DataArray type="Float64" Name="bounds" format="ascii" RangeMin="0" RangeMax="0">
          0 0 0 0 0 0
          0 0 0 0 0 0
          0 0 0 0 0 0
          0 0 0 0 0 0
          0 0 0 0 0 0
          0 0 0 0 0 0
          0 0 0 0 0 0
          0 0 0 0 0 0
          0 0 0 0 0 0
          0 0 0 0 0 0
          0 0 0 0 0 0
          0 0 0 0 0 0
          0 0 0 0 0 0
          0 0 0 0 0 0
          0 0 0 0 0 0
          0 0 0 0 0 0
          0 0 0 0 0 0
          0 0 0 0 0 0
          0 0 0 0 0 0
          0 0 0 0 0 0
          0 0 0 0 0 0
          0 0 0 0 0 0
          0 0 0 0 0 0
          0 0 0 0 0 0
          0 0 0 0 0 0
          0 0 0 0 0 0
          0 0 0 0 0 0
          0 0 0 0 0 0
          0 0 0 0 0 0
          0 0 0 0 0 0
          0 0 0 0 0 0
          0 0 0 0 0 0
          0 0 0 0 0 0
          0 0 0 0 0 0
          0 0 0 0 0 0
          0 0 0 0 0 0
          0 0 0 0 0 0
          0 0 0 0 0 0
          0 0 0 0 0 0
          0 0 0 0 0 0
          0 0 0 0 0 0
          0 0 0 0 0 0
          0 0 0 0 0 0
          0 0 0 0 0 0
          0 0 0 0 0 0
          0 0 0 0 0 0
          0 0 0 0 0 0
          0 0 0 0 0 0
          0 0 0 0 0 0
          0 0 0 0 0 0
          0 0 0 0 0 0
          0 0 0 0 0 0
          0 0 0 0 0 0
          0 0 0 0 0 0
          0 0 0 0 0 0
          0 0 0 0 0 0
          0 0 0 0 0 0
          0 0 0 0 0 0
          0 0 0 0 0 0
          0 0 0 0 0 0
          0 0 0 0 0 0
          0 0 0 0 0 0
          0 0 0 0 0 0
          0 0 0 0 0 0
          0 0 0 0 0 0
          0 0 0 0 0 0
          0 0 0 0 0 0
          0 0 0 0 0 0
          0 0 0 0 0 0
          0 0 0 0 0 0
          0 0 0 0 0 0
          0 0 0 0 0 0
          0 0 0 0 0 0
          0 0 0 0 0 0
          0 0 0 0 0 0
          0 0 0 0 0 0
          0 0 0 0 0 0
          0 0 0 0 0 0
          0 0 0 0 0 0
          0 0 0 0 0 0
          0 0 0 0 0 0
          0 0 0 0 0 0
          0 0 0 0 0 0
          0 0 0 0 0 0
          0 0 0 0 0 0
          0 0 0 0 0 0
          0 0 0 0 0 0
          0 0 0 0 0 0
          0 0 0 0 0 0
          0 0 0 0 0 0
          0 0 0 0 0 0
          0 0 0 0 0 0
          0 0 0 0 0 0
          0 0 0 0 0 0
          0 0 0 0 0 0
          0 0 0 0 0 0
          0 0 0 0 0 0
          0 0 0 0 0 0
          0 0 0 0 0 0
          0 0 0 0 0 0
          0 0 0 0 0 0
          0 0 0 0 0 0
          0 0 0 0 0 0
          0 0 0 0 0 0
          0 0 0 0 0 0
          0 0 0 0 0 0
          0 0 0 0 0 0
          0 0 0 0 0 0
          0 0 0 0 0 0
          0 0 0 0 0 0
          0 0 0 0 0 0
          0 0 0 0 0 0
          0 0 0 0 0 0
          0 0 0 0 0 0
          0 0 0 0 0 0
          0 0 0 0 0 0
          0 0 0 0 0 0
          0 0 0 0 0 0
          0 0 0 0 0 0
          0 0 0 0 0 0
          0 0 0 0 0 0
          0 0 0 0 0 0
          0 0 0 0 0 0
          0 0 0 0 0 0
          0 0 0 0 0 0
          0 0 0 0 0 0
          0 0 0 0 0 0
          0 0 0 0 0 0
          0 0 0 0 0 0
          0 0 0 0 0 0
          0 0 0 0 0 0
          0 0 0 0 0 0
          0 0 0 0 0 0
          0 0 0 0 0 0
          0 0 0 0 0 0
          0 0 0 0 0 0
          0 0 0 0 0 0
          0 0 0 0 0 0
          0 0 0 0 0 0
          0 0 0 0 0 0
          0 0 0 0 0 0
          0 0 0 0 0 0
          0 0 0 0 0 0
          0 0 0 0 0 0
          0 0 0 0 0 0
          0 0 0 0 0 0
          0 0 0 0 0 0
          0 0 0 0 0 0
          0 0 0 0 0 0
          0 0 0 0 0 0
          0 0 0 0 0 0
          0 0 0 0 0 0
          0 0 0 0 0 0
          0 0 0 0 0 0
          0 0 0 0 0 0
          0 0 0 0 0 0
          0 0 0 0 0 0
          0 0 0 0 0 0
          0 0 0 0 0 0
          0 0 0 0 0 0
          0 0 0 0 0 0
          0 0 0 0 0 0
          0 0 0 0 0 0
          0 0 0 0 0 0
          0 0 0 0 0 0
          0 0 0 0 0 0
          0 0 0 0 0 0
          0 0 0 0 0 0
          0 0 0 0 0 0
          0 0 0 0 0 0
          0 0 0 0 0 0
          0 0 0 0 0 0
          0 0 0 0 0 0
          0 0 0 0 0 0
          0 0 0 0 0 0
          0 0 0 0 0 0
          0 0 0 0 0 0
          0
        </DataArray>
        <DataArray type="Float64" Name="gradient_error" format="ascii" RangeMin="8.274143198517628e-12" RangeMax="0.0000037222759315858766">
          2.6294128535925765e-9 2.7374381167373345e-9 1.729058683694141e-9 1.6678183059249856e-9 9.901763816223714e-9 1.0049530484845573e-8
          6.381904716045527e-9 6.3210537939289656e-9 2.9563727134854588e-9 1.85385550512219e-9 1.028589416155952e-8 6.463266900657023e-9
          3.1354401318134893e-9 1.9447357767514705e-9 1.0311311292140878e-8 6.392029166157189e-9 3.2087769422473254e-9 1.9603307763862573e-9
          1.0004264627843114e-8 6.102101293405696e-9 3.051355554109235e-9 1.8444977187473652e-9 9.079369459901697e-9 5.471682030575038e-9
          2.2514196460385915e-9 1.3665177727656552e-9 6.390185865845759e-9 3.873738151871697e-9 1.0037809514625274e-9 6.32589262341491e-10
          2.67470201047791e-9 1.7049378605107171e-9 3.640493612188361e-10 2.3481417321640083e-10 9.095621969850512e-10 6.083363679715797e-10
          2.611236768332455e-10 1.5186576058083604e-10 6.663167187552338e-10 3.9802187981840773e-10 1.355879922283091e-10 8.624093546744099e-11
          3.466920594966138e-10 2.2552701391446277e-10 6.832110150557673e-11 5.7710577905770284e-11 1.8860894205762926e-10 1.5548686492501995e-10
          4.3947807392115493e-10 4.3086672130490296e-10 1.5701961309184837e-9 1.5801570462950813e-9 4.5663382767145396e-10 1.5366365385781668e-9
          4.551473708247288e-10 1.4433939251275257e-9 4.276155581141193e-10 1.2876016803804115e-9 3.839087335165569e-10 1.0989842115113206e-9
          2.906746496438201e-10 8.042397366965792e-10 1.5652549901949036e-10 4.320753147796037e-10 6.202127227978903e-11 1.7677136256719746e-10
          2.54409937634721e-11 7.570270593518903e-11 2.4583363973338205e-11 6.79745040415655e-11 3.242886698472881e-11 8.339329508649285e-11
          1.5827689719136258e-10 1.555096843524112e-10 4.261133145914861e-10 4.199703209559448e-10 1.6192935858398634e-10 4.326334374018067e-10
          1.562633199600058e-10 4.140408100815518e-10 1.4334650570304905e-10 3.7526540179254456e-10 1.3017758364761854e-10 3.339738217742638e-10
          9.97333997949214e-11 2.5118903549552454e-10 5.165342481852631e-11 1.2897691901568351e-10 1.8463559345612432e-11 4.6432186176286907e-11
          8.274143198517628e-12 2.1678370988796468e-11 1.2272849240103529e-11 3.158703975081932e-11 1.7757679663493773e-11 4.442180238057509e-11
          5.787283552944272e-8 5.7391561589066096e-8 3.7090798281017196e-8 3.760126482757427e-8 5.5701952162749787e-8 3.557461680129187e-8
          5.2568040032939984e-8 3.3070710086970013e-8 4.802687392927983e-8 2.9699288849442663e-8 4.121117916493524e-8 2.514812720372639e-8
          2.7848782498461277e-8 1.710300151122287e-8 1.1269766644092404e-8 7.352753744095695e-9 3.649208999167496e-9 2.567996873490993e-9
          2.6975741752929066e-9 1.6786120664012306e-9 1.4141190518280958e-9 9.550466859527354e-10 8.014540525621647e-10 6.643138079459574e-10
          9.309069205759253e-9 9.565620082208411e-9 8.650522453070061e-9 7.670842548406824e-9 6.4794440121780025e-9 5.234045755508305e-9
          3.6880914162889612e-9 1.976693063459348e-9 8.371662685471149e-10 3.7607599849994614e-10 3.1435563063518647e-10 3.537902750226092e-10
          1.8281034385502156e-9 1.8015460387110075e-9 1.8537634663061828e-9 1.768304955813598e-9 1.5871842547505243e-9 1.3830162684990717e-9
          1.0189623085934564e-9 5.176452828197115e-10 1.8754778927974e-10 9.250203949033763e-11 1.3273694119299764e-10 1.8040698671546833e-10
          3.199591696353271e-7 3.119192906848204e-7 2.0492696640799653e-7 2.1124497809126974e-7 2.9034841353718053e-7 1.8854856487759856e-7
          2.6035358523562684e-7 1.6653459193553998e-7 2.2538780531240003e-7 1.4173521041268886e-7 1.8342479026277127e-7 1.1381502420236308e-7
          1.1961131691573296e-7 7.475328565670616e-8 4.738278242027672e-8 3.175742941677991e-8 1.4717292631344477e-8 1.0958025943183935e-8
          1.0900208366079327e-8 7.11117911763702e-9 5.759882211283024e-9 4.0632181103654265e-9 3.3578698056980114e-9 2.8282473940242347e-9
          5.2660079125120714e-8 5.487992100204015e-8 4.7165438972554296e-8 4.000411541016451e-8 3.231038141444887e-8 2.4911617301224155e-8
          1.6982002745989854e-8 9.086407835811419e-9 3.970344071651373e-9 1.8558223443171822e-9 1.4602814051280076e-9 1.5148883382763481e-9
          7.38551611906874e-9 7.229055456867905e-9 7.582161727092011e-9 7.292632184875982e-9 6.5381473159200225e-9 5.617976460493433e-9
          4.068751094300353e-9 2.0407392583397287e-9 7.419288882793527e-10 3.8949481943965e-10 5.540088008081851e-10 7.311516942022387e-10
          0.0000017257082094885193 0.0000016620518398940598 0.0000011011634650268474 0.0000011489347527965906 0.0000015002426170101798 9.818781540314089e-7
          0.0000012936143906462674 8.327145941467067e-7 0.0000010739504164734376 6.780555487262166e-7 8.396268272669234e-7 5.207350056298741e-7
          4.121950531732804e-7 2.652680199142202e-7 5.7154329894281324e-8 5.704516077913081e-8 3.3904964518924915e-8 2.0982225304154795e-8
          2.60401750493057e-8 1.0564331840842618e-8 1.9477104215278105e-8 9.617352709472681e-9 2.854138779633692e-7 3.0097920776190753e-7
          2.4755275351933617e-7 2.0115083816781985e-7 1.5458575789601935e-7 1.1208636280973019e-7 7.169819099108838e-8 3.596983811341384e-8
          1.3655800196145149e-8 4.710656153802181e-9 2.9457550861678007e-9 3.055266576710375e-8 2.9797119419153146e-8 3.1591815986034693e-8
          3.048687868849364e-8 2.7010834813043047e-8 2.2329541626635535e-8 1.5374832110978233e-8 7.2595561561050505e-9 2.26698816575766e-9
          9.87573638231956e-10 1.2916799470954663e-9 0.0000029037269220541875 0.000002894150600271327 0.000001778898219750678 0.0000018139578890354237
          0.000002845599819914183 0.0000016872393154685372 0.0000027685455184871685 0.0000015664676437823647 0.0000026379113903017896 0.0000014268874836954524
          0.0000025109767781043727 0.0000012641614289583275 0.0000022319194970075874 0.0000010205617389578076 3.197590638322041e-7 7.968614038541935e-7
          2.821314769645353e-7 7.006958584136564e-7 2.318684033032064e-7 6.17538692376959e-7 1.902929710550751e-7 5.114899642525688e-7
          3.4925112376005604e-7 3.740485733497542e-7 2.9435908720404173e-7 2.351025138789209e-7 1.83122847912288e-7 1.3772044263810992e-7
          9.225530800851997e-8 4.92848572522001e-8 2.060343062811629e-8 9.500674836605926e-9 6.656657612499478e-9 8.80670979432483e-8
          9.681936964223886e-8 6.908722227127465e-8 5.5470762005286006e-8 5.454747394457727e-8 5.600406174496282e-8 4.870817762923665e-8
          3.37761574938961e-8 1.7641878809915696e-8 7.108745855205077e-9 5.898056261111282e-9 0.000002307311170516488 0.000002475087991206126
          0.0000025396591868746305 0.0000024554897280923533 0.0000028081320270521354 0.0000026946414270367486 0.0000032279495856320406 0.0000028608207570362962
          2.9241454786930005e-7 0.000002089645217755171 3.371013756891255e-7 0.000001200313181676593 3.9931310649990575e-7 0.0000011693109604320992
          4.956370684507191e-7 0.0000011103024048922874 6.198051949853185e-7 0.0000010133632154463605 7.877558623503222e-7 8.720754665570769e-7
          5.577712998357506e-7 6.847435308931112e-7 3.188313751499867e-7 3.466599383681374e-7 2.658873966559048e-7 2.1759421899620792e-7
          1.7926552287653153e-7 1.4026709903139624e-7 9.6992025434529e-8 5.1086533961533894e-8 2.8140062099687012e-8 3.458486697236529e-8
          3.6492405485910085e-8 1.2683763944531778e-7 1.455839502400447e-7 8.715094660827118e-8 6.168823939191259e-8 6.558238868328948e-8
          7.635673068054421e-8 7.316891327912675e-8 5.6285691039834976e-8 3.193294429932226e-8 1.2871412592623942e-8 1.0106197577523542e-8
          5.744107686210641e-7 8.601401137990559e-7 0.0000012036543466400014 7.721567804247994e-7 0.0000011063535986554563 2.118447154315578e-7
          6.222612898370485e-7 6.59203787670048e-7 0.0000010281711794958344 0.0000011100441256304223 0.0000012108132057192782 0.000001207048335417628
          7.558817215670109e-7 8.853849770105384e-7 9.86932056929304e-7 9.01205247020369e-7 0.0000013237595935850022 0.0000012024145976535075
          7.83927546768004e-7 5.491408254072489e-7 6.431609309762278e-7 9.549277461193703e-7 7.052127459747942e-7 1.799903422748676e-7
          3.625389260529787e-7 9.348485833695426e-7 8.096141901278208e-7 8.46775654016333e-7 0.0000011519638287207668 7.686767831608801e-8
          1.7680838240782912e-7 7.217984780010784e-7 8.04162317590251e-7 2.486265696330856e-8 9.170441268763266e-8 8.393454174006797e-8
          7.616467079250327e-8 2.3660552844210514e-7 5.560625912338621e-7 5.541885289882376e-7 4.967327066093529e-7 5.008472950303825e-7
          4.456319988269031e-7 0.0000011541287927116474 0.0000010902642452649536 0.0000010526491984868742 0.000001130710385894499 0.0000012031868161127441
          0.0000013268345889053508 0.000001252905063135784 9.94193234364182e-7 0.0000012807250172514037 0.0000012280384152767808 9.69631827134611e-7
          0.0000012300552746590107 0.0000011505159594551902 0.0000013913168801685424 1.9259258292981771e-7 1.9988889917691151e-7 1.9879872042724813e-7
          1.9754172511389233e-7 1.8818667549615289e-7 1.727218959736693e-7 1.7685421506406588e-7 1.6991605227748304e-7 1.247040838433488e-7
          1.1973914900753877e-7 1.3670166322921018e-7 1.343187481501698e-7 1.1644217542112893e-7 1.419619454048931e-7 1.8819141843664975e-7
          1.784191635715673e-7 1.7260790031892523e-7 1.8835792278290928e-7 9.32608253586763e-8 1.1727181741036212e-7 1.2324863193702687e-7
          1.1255539774215897e-7 1.7251496092276475e-7 7.630347599053006e-8 2.2902342217149441e-7 3.621123015414534e-8 3.8174336835245874e-7
          7.087833358141633e-7 7.121210331316326e-7 8.632840482096092e-7 8.57712092023965e-7 5.742668322554776e-7 0.000001017784760605055
          0.0000010033031509162971 1.9366078699238618e-7 1.8950928116887168e-7 1.881292332603838e-7 1.9576210012244012e-7 1.9644355314166176e-7
          1.9354310112447257e-7 1.9128623672601859e-7 1.8535777534535716e-7 1.9064264910728333e-7 1.8681037332959708e-7 2.013630849077535e-7
          1.9503035541791487e-7 2.0562583457880972e-7 2.0193322395308997e-7 2.0808669274228522e-7 2.1323806885245984e-7 2.0012498281448262e-7
          2.080775194653665e-7 2.025840597253203e-7 2.1724200752775842e-7 2.0988858424986597e-7 2.0883609248826507e-7 2.1467822004431162e-7
          2.1603005611625043e-7 3.128617504544261e-8 2.2713362804531397e-8 2.1258321919368476e-8 1.0447808918952094e-7 9.6951367637606e-8
          8.013558808500817e-8 7.535283378637764e-8 1.4140550563620196e-8 6.331980853241032e-8 4.622757838323435e-8 0.0000029238319423519133
          0.000002609013036950547 0.0000025894965448097924 0.000002602347689319224 0.0000026393831654202176 0.0000026611933826923926 0.0000026285227639171783
          0.0000026580885721151034 0.000002732851296502561 0.0000027434547916185336 0.0000016923465470700914 0.0000020859788124018585 0.000002071898858189672
          0.000002120917891662324 0.000002354934388488522 0.0000027133737284342388 0.0000026675489830245637 0.0000028288210111219634 0.0000024796110777336256
          0.000003079139557616315 0.000002722791687708076 0.0000028551083982724077 0.0000028502749668851775 0.0000027939757601598487 0.0000029928773856093184
          0.0000029691794077484153 0.0000017149242080328975 0.000002164841290357728 0.000002211192162179906 0.0000026310772389285005 0.000002977758246062279
          0.0000031443830553369814 0.000002614758372682558 0.000003279801857424344 0.0000028664967448412838 0.0000031429903682686577 0.0000030968170770521088
          0.0000029383472965517267 0.0000033054350570858423 0.000003232782551343766 0.0000017381272528293934 0.0000022575472444268524 0.000002303046971280157
          0.0000030061788791129707 0.0000033271374092629342 0.000003527217806135806 0.000002776967236024311 0.0000034574279174014424 0.000002991937091284021
          0.0000026821820300136 0.0000029674178669563607 0.0000030156605230097106 0.000002020442099601498 0.0000022151131112073257 0.0000017468361735234805
          0.000002341137351467467 0.0000018988940180561232 0.000001870051737552726 0.000002946320247075915 0.0000014217463011361076 0.0000029354385294114532
          0.0000035596631408763705 0.0000030371247138642386 0.0000020770665567059946 0.0000018069340682949065 0.0000030755555075852933 0.0000021434241358514296
          0.0000018463574050415205 0.0000017011603266768746 0.0000014353508694149187 0.0000014180536730307797 3.099660181367511e-7 5.808054845246689e-7
          6.234205222328457e-7 0.000001204991829169527 0.0000037222759315858766 0.000003117897011715124 0.00000221166494055396 0.0000018881553896077515
          0.0000021471494193100123 0.000002278288036720782 0.000001926515134946265 0.0000016487557587780125 0.0000013976315233809794 0.0000013696125783454119
          3.6722365495297665e-7 6.713514751739432e-7 7.2446086064069e-7 0.000001188059520513977 0.0000011740116277738993 0.00000122245010515553
          0.0000015177510528183698 0.000001534565940505905 7.769582258051568e-7 7.664409128713107e-7 0.0000011453596168464387 0.0000010795716896668723
          0.000001329103003676748 0.0000012758440561478577 4.369549420708656e-7 7.827322672811453e-7 8.465398414364897e-7 0.0000011436040745598008
          3.1055689330007217e-7 7.510133584461884e-7 8.248663587242522e-7 0.000001163591940766191 7.185631346512711e-7 8.862059273297515e-7
          0.0000011821367288405376 9.729411054866502e-7 0.0000012180195106980992 0.000001153014447379621 5.531616348261669e-7 9.200262978402884e-7
          0.0000010029177529186593 0.0000010671415729501075 2.545093745011e-7 6.891989991779997e-7 9.537436768608405e-7 0.00000119697236045466
          8.728428350511643e-7 0.0000010761441175053814 6.966291231549051e-7 0.0000010964267024411342 9.485225992121363e-7 7.082272630943747e-7
          7.142083528047977e-7 9.602674135317978e-7 9.648363231894732e-7 6.930539311317651e-7 9.484243289574117e-7 3.259555635977475e-7
          4.315808022244468e-7 4.405727685147348e-7 4.090711613246812e-7 0.000001212307563969221 0.0000012154642935741486 0.0000012037947267830582
          5.372060408511462e-7 6.73719667224756e-7 9.327503997113789e-7 6.522621756001932e-7 9.144492420888986e-7 2.8403473618355507e-7
          3.812597542052499e-7 3.519955897054982e-7 0.0000011917811321980017 0.0000011766363085776043 4.784847722269448e-7 6.285472661988907e-7
          8.930992281533784e-7 6.025435711713047e-7 8.684357070940334e-7 2.3403165899721733e-7 3.2174775328861296e-7 2.909075172294431e-7
          0.0000011576511901078664 0.0000011343278430167621 4.0946384758000856e-7 5.746573840479679e-7 8.419756224996035e-7 5.441332915319503e-7
          8.150214686988222e-7 1.820886862155732e-7 2.5875006787599606e-7 2.245667768329677e-7 0.000001109293860951239 0.000001085909645865694
          3.354114495364189e-7 5.09785895557731e-7 7.844350088234165e-7 4.731062501268477e-7 7.478792135274106e-7 1.3183742461381965e-7
          1.898890756485495e-7 1.5634773078854928e-7 0.0000010590841220891019 0.0000010226521769279736 2.4794072668327937e-7 4.3496745986332004e-7
          7.065575107805862e-7 3.948019926987201e-7 6.612526303039688e-7 8.594149401498788e-8 1.2393341579430202e-7 9.284297367341649e-8
          9.781475616978523e-7 9.277032679092176e-7 1.6192533757361616e-7 3.546557201670225e-7 6.130526267810798e-7 3.152081638822942e-7
          5.623546469786802e-7 4.494775962316838e-8 6.330381761020507e-8 3.6357935874515305e-8 8.714495333951369e-7 8.095011300750662e-7
          8.165987559724175e-8 2.739560742690612e-7 5.094973019061365e-7 2.3267806231456808e-7 4.5853919572400995e-7 1.388668662280027e-8
          1.809311145605537e-8 1.6660255723370147e-8 7.450385295432117e-7 6.844003291334517e-7 2.2299536289310475e-8 1.1445129722338954e-7
          1.5399263582929295e-7 2.925273270227023e-7 3.529299365688834e-7 1.2239111364415349e-8 3.777373071133834e-8 3.437894885509021e-8
          4.70603356822015e-7 5.51867237308474e-7 6.330835005826133e-8 2.758734200319066e-7 2.819008418317928e-7 2.9427165075592995e-7
          5.605772382664071e-7 5.611682727026195e-7 5.116752743900143e-7 5.129485048022391e-7 2.682598940665508e-7 5.60472798562781e-7
          5.091320621119608e-7 2.87928263631679e-7 4.6218227607740915e-7 4.6531977133807123e-7 4.577913256611404e-7 0.0000010681193537115085
          0.000001016393260970976 9.81500317385248e-7 9.42273379590914e-7 2.4504957553597326e-7 2.5336866415385096e-7 5.582826779341954e-7
          5.051416257660337e-7 2.6168775277172866e-7 4.520005735978719e-7 0.0000010061639724964547 0.0000010654271187323266 0.000001185396322802224
          0.0000011234359042450817 0.0000011780705531296517 0.0000011306951843960552 8.410786554149685e-7 0.000001079455830610732 0.0000010154965325682155
          0.0000012609491811345023 7.079862779967974e-7 7.028890470912349e-7 8.287239279038354e-7 8.160212166381723e-7 7.113785556647732e-7
          8.401015891399446e-7 5.184867536817401e-7 6.066722764204888e-7 6.113599004779424e-7 5.99226088103396e-7 9.494615778108733e-7
          9.291533861851094e-7 9.688246226151163e-7 6.948577991592376e-7 7.127532320030626e-7 8.498008271929628e-7 4.957261565500985e-7
          5.886339815810751e-7 9.868484223828628e-7 6.815418066120516e-7 5.843853319151857e-8 4.761245929081158e-8 6.814059516352687e-8
          1.312773815683387e-7 1.3445060033970616e-7 1.0281700609135213e-7 1.0616066624493617e-7 2.99928767599584e-8 1.54622241235923e-7
          1.0320644665845433e-7 3.6786385390104594e-8 7.118341184299808e-8 8.104395092153362e-8 5.179065208098565e-8 4.6171996151460976e-8
          3.139139545274768e-8 1.6125211139567559e-7 9.674868926003146e-8 2.7233560603596644e-8 1.3894625415967662e-7 8.044955955343994e-8
          1.6610794754034394e-8 3.224526712438733e-8 2.1952864947203263e-8 3.9475985172860764e-8 2.2716522036563247e-8 1.1800520747067478e-7
          7.36551252221993e-8 5.957058900265737e-9 2.9305042973723834e-8 1.932986766853439e-7 4.0814559745243754e-7 1.0304485596090711e-8
          2.6182381870540677e-8 6.229925182195312e-7 4.206027814499065e-8 4.964771630862354e-7 4.942436734410886e-7 4.597632761892065e-7
          4.3171851494137946e-7 4.205269310670382e-7 4.552436962718859e-7 4.447426780999056e-7 5.448229534210474e-7 4.16927592167957e-7
          4.7521547843823325e-7 4.920101837959419e-7 4.899604614767335e-7 4.5776684125843174e-7 5.385536614405406e-7 3.445766990478411e-7
          4.162437191026831e-7 4.297220800106047e-7 4.056080034554192e-7 4.879107391575252e-7 5.705081331411438e-7 5.727030809946565e-7
          4.33788999103477e-7 4.926524188173638e-7 5.969477895113401e-7 4.5221799533618467e-7 5.107322683094038e-7 5.497972363149998e-7