<?xml version="1.0"?>
<VTKFile type="UnstructuredGrid" version="0.1" byte_order="LittleEndian" header_type="UInt32" compressor="vtkZLibDataCompressor">
  <UnstructuredGrid>
    <Piece NumberOfPoints="371" NumberOfCells="194">
      <PointData>
        <DataArray type="Int32" Name="libmesh_node_id" format="ascii" RangeMin="231" RangeMax="1765">
          231 239 318 319 320 321
          322 323 324 328 329 330
          332 333 334 335 342 343
          425 426 427 428 531 532
          533 534 535 536 537 538
          539 540 541 542 543 544
          545 546 547 548 549 550
          551 552 553 554 555 556
          557 558 559 560 561 562
          563 564 565 566 567 568
          569 570 571 572 573 574
          575 576 591 592 593 594
          595 596 597 598 599 600
          611 612 613 614 615 616
          621 622 623 781 782 863
          864 865 868 869 870 871
          872 873 874 885 886 889
          931 932 933 934 935 936
          937 938 939 940 941 942
          943 944 945 946 947 948
          949 950 951 952 953 954
          955 956 957 958 959 960
          961 962 963 964 965 966
          967 968 969 970 971 972
          973 974 975 976 977 978
          979 980 981 982 983 984
          985 994 995 996 997 998
          999 1000 1001 1002 1003 1004
          1005 1006 1007 1008 1009 1010
          1011 1012 1013 1014 1015 1016
          1017 1018 1019 1020 1021 1022
          1023 1024 1025 1026 1027 1028
          1029 1030 1031 1032 1033 1034
          1035 1036 1037 1038 1039 1040
          1041 1042 1043 1044 1045 1046
          1047 1048 1049 1050 1051 1052
          1053 1054 1055 1056 1057 1058
          1059 1060 1061 1062 1063 1064
          1065 1066 1067 1068 1069 1070
          1475 1478 1484 1486 1630 1631
          1632 1633 1634 1635 1636 1637
          1638 1639 1640 1641 1642 1643
          1644 1645 1646 1647 1648 1649
          1650 1651 1652 1653 1654 1655
          1656 1657 1659 1660 1661 1662
          1663 1664 1665 1666 1667 1668
          1669 1670 1671 1672 1673 1674
          1675 1676 1677 1678 1679 1680
          1681 1682 1683 1684 1685 1686
          1687 1688 1689 1690 1691 1692
          1693 1694 1695 1696 1697 1698
          1699 1700 1701 1702 1703 1704
          1705 1706 1707 1708 1709 1710
          1711 1712 1713 1714 1715 1716
          1717 1718 1719 1720 1721 1722
          1723 1724 1725 1726 1729 1730
          1731 1732 1733 1734 1735 1736
          1737 1738 1739 1740 1741 1742
          1743 1744 1745 1746 1747 1748
          1749 1750 1751 1752 1753 1754
          1755 1756 1757 1758 1759 1760
          1761 1762 1763 1764 1765
        </DataArray>
        <DataArray type="Float64" Name="bounds" format="ascii" RangeMin="0" RangeMax="0">
          0 0 0 0 0 0
          0 0 0 0 0 0
          0 0 0 0 0 0
          0 0 0 0 0 0
          0 0 0 0 0 0
          0 0 0 0 0 0
          0 0 0 0 0 0
          0 0 0 0 0 0
          0 0 0 0 0 0
          0 0 0 0 0 0
          0 0 0 0 0 0
          0 0 0 0 0 0
          0 0 0 0 0 0
          0 0 0 0 0 0
          0 0 0 0 0 0
          0 0 0 0 0 0
          0 0 0 0 0 0
          0 0 0 0 0 0
          0 0 0 0 0 0
          0 0 0 0 0 0
          0 0 0 0 0 0
          0 0 0 0 0 0
          0 0 0 0 0 0
          0 0 0 0 0 0
          0 0 0 0 0 0
          0 0 0 0 0 0
          0 0 0 0 0 0
          0 0 0 0 0 0
          0 0 0 0 0 0
          0 0 0 0 0 0
          0 0 0 0 0 0
          0 0 0 0 0 0
          0 0 0 0 0 0
          0 0 0 0 0 0
          0 0 0 0 0 0
          0 0 0 0 0 0
          0 0 0 0 0 0
          0 0 0 0 0 0
          0 0 0 0 0 0
          0 0 0 0 0 0
          0 0 0 0 0 0
          0 0 0 0 0 0
          0 0 0 0 0 0
          0 0 0 0 0 0
          0 0 0 0 0 0
          0 0 0 0 0 0
          0 0 0 0 0 0
          0 0 0 0 0 0
          0 0 0 0 0 0
          0 0 0 0 0 0
          0 0 0 0 0 0
          0 0 0 0 0 0
          0 0 0 0 0 0
          0 0 0 0 0 0
          0 0 0 0 0 0
          0 0 0 0 0 0
          0 0 0 0 0 0
          0 0 0 0 0 0
          0 0 0 0 0 0
          0 0 0 0 0 0
          0 0 0 0 0 0
          0 0 0 0 0
        </DataArray>
        <DataArray type="Float64" Name="gradient_error" format="ascii" RangeMin="1.945845955849656e-9" RangeMax="6.254534233225687e-7">
          6.006924911309095e-8 5.162107938950314e-9 9.794873385423467e-8 1.645957792128874e-7 5.456083302222018e-7 4.4579752675707673e-7
          4.0508052256853475e-8 2.634281374522943e-7 2.959300321418271e-7 4.989778327809072e-7 6.037105918557832e-7 3.3506441259336e-7
          3.076729473757238e-8 5.5371816608899754e-8 2.551272097825549e-7 1.9598811588948054e-7 4.126472948405158e-9 3.4364771005582486e-7
          2.1334661687280905e-8 1.3815318754961123e-8 1.1663855963910151e-8 1.4431473780880229e-8 5.002300243682795e-7 4.679222324787705e-7
          5.070574717812411e-7 5.499090707213588e-7 5.04458789245578e-7 5.892535529729804e-7 6.254534233225687e-7 4.081998583187218e-7
          5.054973311876778e-7 5.49336041803459e-7 4.140033776166414e-7 5.115977475215709e-7 5.982335902510595e-7 5.461447045383083e-7
          4.1508543041010687e-7 4.5010092437110197e-7 3.654012316657207e-7 4.555276230651558e-7 3.0197047077655426e-7 1.1346790597958143e-7
          1.895405625311682e-7 3.739451680572358e-7 4.99132853212301e-7 3.550484566010549e-7 3.099095900445581e-7 3.7234023331802144e-7
          1.1504594800914313e-7 4.802112387894012e-7 5.934664447843493e-8 5.632799999213329e-8 7.528841477406341e-8 2.511260764703421e-7
          2.3391348588881917e-7 1.994319088162091e-7 2.1737676859837733e-7 3.9999702805979634e-8 2.0695780187350382e-7 1.7411729920095928e-7
          4.653961286676577e-8 1.1794462317596547e-7 1.369286253393462e-7 1.1444713669705245e-7 2.644073932692331e-7 2.2140881957185476e-7
          2.0733773341960174e-7 1.9971396600700048e-7 1.0580557988405343e-7 1.3820358780608896e-7 9.788793765030546e-8 1.4386122006219906e-7
          2.8062626868484976e-7 2.6987632218268847e-7 2.073332973124748e-9 8.322738157564045e-8 1.016409619530562e-7 3.456064543305054e-7
          1.4778360604906133e-7 1.6885355090935813e-7 2.8248299887469683e-7 3.007047400048178e-7 1.488562154438708e-7 2.528700631511836e-7
          3.4344369015570096e-7 3.5844938120001213e-7 3.1393072718959546e-7 4.142848495951956e-8 2.5100628231365727e-8 1.1739567300131624e-7
          2.666353665744483e-7 2.368199975491972e-7 1.761788357187259e-7 1.0355993930258148e-7 9.682957323553781e-8 2.6091988491514206e-7
          2.2939841523253653e-7 7.758527101539633e-8 1.524126772325928e-7 1.837994491984788e-7 3.0976885632747806e-7 3.6298345885950766e-7
          9.687456649826346e-8 1.0347596146872756e-7 1.000004160121492e-7 9.652487055557085e-8 9.552407530000888e-8 1.0233735751632182e-7
          9.914577299221776e-8 1.0652356480925115e-7 1.0368447738579177e-7 1.0397300227041381e-7 1.1364282518560286e-7 1.1136825674171915e-7
          9.595418846811372e-8 1.0084538996233238e-7 1.059706949316949e-7 1.0231565296849728e-7 1.0299481463868427e-7 1.1608785242321062e-7
          1.0562374100698107e-7 1.0033235082978786e-7 7.930648257490576e-8 9.01499194498268e-8 8.057513070023987e-8 1.0571355865972958e-7
          1.1072759967081873e-7 1.0190384691625847e-7 8.04034964830396e-8 8.428709249705803e-8 9.747411056075865e-8 8.065229992013324e-8
          6.792036541546436e-8 8.294441031666678e-8 5.839248575978171e-8 8.616051987342223e-8 1.0491599595028042e-7 1.1795350294167116e-7
          4.153075726454483e-8 6.817799865067453e-8 5.855211382885833e-8 1.0426467611836473e-7 1.0470743515327249e-7 1.0263733769610414e-7
          1.0908251947675713e-7 1.0920169122609123e-7 1.1834232497640213e-7 1.0659779329427207e-7 1.1432823132774558e-7 1.1268982379245286e-7
          1.2108992860895008e-7 1.1129173967228569e-7 1.2731832109302518e-7 1.209475503083017e-7 1.151342353762387e-7 1.2647203227200177e-7
          1.0368941050983288e-7 1.1337016983320534e-7 1.0934695826712527e-7 1.2212516469215978e-7 1.1959195838257176e-7 1.3174879467449953e-7
          1.2855186536263978e-7 9.714762019058058e-8 1.0985823347030305e-7 1.1677782379767907e-7 1.2345638250557748e-7 1.266081611890587e-7
          1.232024859748197e-7 1.2725312119025548e-7 1.4277564693013913e-7 1.3847757545319254e-7 1.5475120499690683e-7 1.4912242822403116e-7
          1.2374021856000754e-7 1.307564852445904e-7 8.848455313665062e-8 1.2089810771407645e-7 1.137795559743456e-7 1.5001188600955e-7
          7.9461668791279e-8 9.1911647335072e-8 8.039976477685004e-8 9.546409073953819e-8 6.995184390244209e-8 8.116557980252163e-8
          8.272746993449829e-8 1.1453797687023705e-7 1.2241836530004155e-7 1.0432965123250305e-7 8.184077265192627e-8 9.889864605234317e-8
          8.208721957369683e-8 1.0153478399907991e-7 7.087950380776498e-8 8.449635896091721e-8 8.505024896013449e-8 1.302150472534504e-7
          1.3810420335278377e-7 1.138585157469825e-7 6.256620931520134e-8 8.025438307592873e-8 3.731627465319092e-8 5.8434968317011864e-8
          1.1563843379604294e-7 1.1315170506999999e-7 3.1399510087204e-9 3.607514218362371e-8 9.59085997024474e-9 9.944583461843745e-8
          8.733131923516312e-9 4.8186397663896996e-8 8.40210766436529e-9 3.2167056946181705e-8 1.2406214692439576e-7 1.1734121783460188e-7
          2.2652166029247505e-9 8.120637879500085e-9 8.031993057815282e-9 9.192185776605492e-8 1.2805372888691926e-7 1.3873328692685072e-7
          1.2200541438293857e-7 1.2998696052251512e-7 1.3139312991222943e-7 1.4315825995584463e-7 1.2773084200347218e-7 1.5022569656824737e-7
          1.6252941345015923e-7 1.3808294737895886e-7 1.46095144176999e-7 1.5597781808235405e-7 1.6983276861921387e-7 1.4656207737802215e-7
          7.97118627306329e-8 6.396419203968386e-8 5.16908418563749e-8 4.6002410877448745e-8 9.499297138488477e-9 9.958171991848589e-9
          1.0042401651621262e-8 1.053070377608254e-8 1.0126631311393933e-8 9.226752456481162e-9 9.360702788047331e-9 9.494653119613498e-9
          9.222108437606185e-9 8.668345441239109e-9 9.361431574582231e-9 7.65742249312685e-9 9.104680356699585e-9 1.005451770792535e-8
          1.0551938220272322e-8 7.37851889062963e-9 8.680461497543198e-9 7.678656937316629e-9 9.982404104456768e-9 1.6611719973063065e-8
          1.756242851669049e-8 1.7378503026978704e-8 1.8595602538368747e-8 1.7194577537266917e-8 1.9563910737680534e-8 1.9473190301118985e-8
          2.0397611046545586e-8 1.9382469864557432e-8 9.743641782691844e-9 1.0343229035733209e-8 9.957824802747738e-9 1.0942816288774574e-8
          1.588050703151183e-8 1.599056177669265e-8 1.6100616521873473e-8 8.274203860565444e-9 9.35293010481716e-9 1.0787821878532294e-8
          1.2736273825187774e-8 1.504994137866063e-8 1.548370663551609e-8 1.6151021633369555e-8 1.59265219697255e-8 6.850143894588619e-9
          8.602879471583531e-9 6.11988208954117e-9 7.986262263633352e-9 1.0355615048578443e-8 1.1464178692942439e-8 3.956646006485392e-9
          6.862529907433853e-9 6.014699724518969e-9 9.768413808382314e-9 5.385562083875507e-9 7.175677836237417e-9 4.606693211538398e-9
          6.3095630781821465e-9 1.1725521002852415e-8 1.1084355649534968e-8 2.4969203071855697e-9 4.998425567657676e-9 4.12209512872697e-9
          1.0714768180517052e-8 1.506523794477099e-8 1.544322468616574e-8 1.5080534510881353e-8 1.5272904698072892e-8 1.5606974262270124e-8
          1.6060560979040285e-8 1.7057670170296213e-8 1.5062102760629693e-8 1.50629268911707e-8 1.6194599988355062e-8 1.5783138915010915e-8
          1.617046128232156e-8 1.566958613307478e-8 1.6459986333850534e-8 1.6557783649632212e-8 1.7250386534626288e-8 9.89090690104091e-9
          1.1188642216311272e-8 1.0413433988071451e-8 1.3463813050388346e-8 1.5652334123390926e-8 1.6675412866448055e-8 1.5760060863899348e-8
          1.6912654051954794e-8 1.769849160950518e-8 1.927245411896504e-8 8.29742869460621e-9 1.0014759103012243e-8 9.971769774553434e-9
          1.2941110879148473e-8 1.6562529486318897e-8 1.6912749276973395e-8 1.7706374884636015e-8 1.7285743641886495e-8 1.9014120062326192e-8
          1.9212333669164115e-8 3.861905222300069e-9 5.495216528587139e-9 3.5642208449279702e-9 4.979051382785876e-9 1.0498660583906317e-8
          9.954751706643826e-9 1.945845955849656e-9 3.5755681622161533e-9 3.455604918761172e-9 8.762096473228862e-9 3.984823364512966e-9
          5.056062423711089e-9 4.867677382343113e-9 5.708133784948987e-9 9.617926924029915e-9 9.626729342172467e-9 3.1155468489148233e-9
          3.960242073174815e-9 4.90042507815511e-9 7.831444206563582e-9 1.581445775799822e-8 1.5967734455943316e-8 1.7760122183058015e-8
          1.841984741924276e-8 1.5066386029677544e-8 1.5022719634913234e-8 1.7813869481480015e-8 1.6143206426151216e-8 1.6388054065686834e-8
          1.9177860487151822e-8 2.00712396345836e-8 1.500066921041594e-8 1.5122196417812012e-8 1.9143387305139525e-8
        </DataArray>
        <DataArray type="Float64" Name="gradient_matprop_error" format="ascii" RangeMin="0" RangeMax="0">
          0 0 0 0 0 0
          0 0 0 0 0 0
          0 0 0 0 0 0
          0 0 0 0 0 0
          0 0 0 0 0 0
          0 0 0 0 0 0
          0 0 0 0 0 0
          0 0 0 0 0 0
          0 0 0 0 0 0
          0 0 0 0 0 0
          0 0 0 0 0 0
          0 0 0 0 0 0
          0 0 0 0 0 0
          0 0 0 0 0 0
          0 0 0 0 0 0
          0 0 0 0 0 0
          0 0 0 0 0 0
          0 0 0 0 0 0
          0 0 0 0 0 0
          0 0 0 0 0 0
          0 0 0 0 0 0
          0 0 0 0 0 0
          0 0 0 0 0 0
          0 0 0 0 0 0
          0 0 0 0 0 0
          0 0 0 0 0 0
          0 0 0 0 0 0
          0 0 0 0 0 0
          0 0 0 0 0 0
          0 0 0 0 0 0
          0 0 0 0 0 0
          0 0 0 0 0 0
          0 0 0 0 0 0
          0 0 0 0 0 0
          0 0 0 0 0 0
          0 0 0 0 0 0
          0 0 0 0 0 0
          0 0 0 0 0 0
          0 0 0 0 0 0
          0 0 0 0 0 0
          0 0 0 0 0 0
          0 0 0 0 0 0
          0 0 0 0 0 0
          0 0 0 0 0 0
          0 0 0 0 0 0
          0 0 0 0 0 0
          0 0 0 0 0 0
          0 0 0 0 0 0
          0 0 0 0 0 0
          0 0 0 0 0 0
          0 0 0 0 0 0
          0 0 0 0 0 0
          0 0 0 0 0 0
          0 0 0 0 0 0
          0 0 0 0 0 0
          0 0 0 0 0 0
          0 0 0 0 0 0
          0 0 0 0 0 0
          0 0 0 0 0 0
          0 0 0 0 0 0
          0 0 0 0 0 0
          0 0 0 0 0
        </DataArray>
        <DataArray type="Float64" Name="initial_marker" format="ascii" RangeMin="0" RangeMax="2">
          0 2 0 0 1 0.5
          0 1 0.25 2 1 1
          0 0 2 0 2 2
          0 0 0 0 1 1
          2 2 1 2 2 0.6666666666666666
          1 1 2 2 2 1
          1 1 2 2 1 2
          2 0.5 1 1 2 2
          2 1 0 0 0 0
          0.5 0.25 0 0 1 0.5
          0 0 0 0 1.5 1.25
          1.5 0 2 2 2 2
          1.25 1.5 2 2 2 1.5
          0 0 0.25 0 0 0.5
          0.5 0 1 0 0 0
          0 0 0 0 0 0
          0 0 0 0 0 0
          2 2 2 2 2 2
          2 2 2 2 2 2
          2 2 2 2 2 2
          2 2 1 1.5 1 2
          2 2 2 2 2 2
          2 2 2 2 2 2
          2 2 2 2 2 2
          2 2 2 2 2 2
          2 2 2 2 2 2
          2 2 2 2 2 2
          2 2 2 2 2 2
          2 2 2 2 2 2
          2 2 2 2 2 2
          1 1.5 1 1.5 0 1
          1 2 2 2 1 1.5
          1 1.5 0 1 1 2
          2 2 2 2 2 2
          2 2 2 2 2 2
          2 2 2 2 2 2
          2 2 2 2 2 2
          2 2 2 2 2 2
          2 2 2 2 2 2
          0 0 0 0 2 2
          2 2 2 2 2 2
          2 2 2 2 2 2
          2 2 2 2 2 2
          2 2 2 2 2 2
          2 2 2 2 2 2
          2 2 2 2 2 2
          2 2 2 2 2 2
          2 2 2 2 2 2
          2 2 2 2 2 2
          2 2 2 2 2 2
          2 2 2 2 2 2
          2 2 2 2 2 2
          2 2 2 2 2 2
          2 2 2 2 2 2
          2 2 2 2 2 2
          2 2 2 2 2 2
          2 2 2 2 2 2
          2 2 2 2 2 2
          2 2 2 2 2 2
          2 2 2 2 2 2
          2 2 2 2 2 2
          2 2 2 2 2
        </DataArray>
        <DataArray type="Float64" Name="markers_norefine" format="ascii" RangeMin="0" RangeMax="2">
          0 2 0 0 0 0
          0 0 0 0 0 0
          0 0 0 0 2 0
          0 0 0 0 0 0
          0 0 0 0 0 0
          0 0 0 0 0 0
          0 0 0 0 0 0
          0 0 0 0 0 0
          0 0 0 0 0 0
          0 0 0 0 0 0
          0 0 0 0 0 0
          0 0 0 0 0 0
          0 0 2 0 0.5 0
          0 0 0 0 0 0
          0 0 0 0 0 0
          0 0 0 0 0 0
          0 0 0 0 0 0
          0 0 0 0 0 0
          0 0 0 0 0 0
          0 0 0 0 0 0
          0 0 0 0 0 0
          0 0 0 0 0 0
          0 0 0.5 0 0 0
          0 0 0.5 0 0 0
          0 0 0 0 0 0
          0 0 0 0 0 0
          0 0 0 0 0 0
          0 0 0 0 0 0
          0 0 0 0 0 0
          0 0 0 0 0 0
          0 0 0 0 0 0
          0 0 0 0 0 0
          0 0 0 0 0 0
          0 0 1 0.25 1.5 0.5
          0 0 2 1 2 0
          2 1.5 2 1.75 0 0
          2 2 2 0 0 0
          0 0 0 0 0 0
          0 0 0 0 0 0
          0 0 0 0 0 0
          0 0.5 0 0 0 0
          0 0.5 0.25 1.5 1 0
          0.5 1 0.5 1.5 0 0
          0 0 0 0 0 0
          0 0 2 1 1.5 0
          1 0.5 0 2 2 1.6666666666666667
          1 0 0 0 0 2
          1.5 2 1.75 1 1 2
          2 2 2 2 2 2
          2 1.25 1.5 2 2 2
          1.5 0 0 0 0.25 0.5
          0 0 0.5 1 0 1
          0.75 1 1 0.5 1 2
          1.75 2 1.3333333333333333 1 1 1
          1 1 1 2 2 2
          2 0.5 1 0 1 1
          0 2 2 2 2 1.75
          2 2 2 2 2 2
          2 2 2 2 2 2
          2 2 2 0.75 1 0
          0 1 1 0 1 1.25
          0 0.5 1 1.5 0
        </DataArray>
        <DataArray type="Float64" Name="markers_mustrefine" format="ascii" RangeMin="0" RangeMax="2">
          0 2 0 0 1 0.5
          0 1 0.25 2 1 1
          0 0 2 0 2 2
          0 0 0 0 1 1
          2 2 1 2 2 0.6666666666666666
          1 1 2 2 2 1
          1 1 2 2 1 2
          2 0.5 1 1 2 2
          2 1 0 0 0 0
          0.5 0.25 0 0 1 0.5
          0 0 0 0 1.5 1.25
          1.5 0 2 2 2 2
          1.25 1.5 2 2 2 1.5
          0 0 0.25 0 0 0.5
          0.5 0 1 0 0 0
          0 0 0 0 0 0
          0 0 0 0 0 0
          2 2 2 2 2 2
          2 2 2 2 2 2
          2 2 2 2 2 2
          2 2 1 1.5 1 2
          2 2 2 2 2 2
          2 2 2 2 2 2
          2 2 2 2 2 2
          2 2 2 2 2 2
          2 2 2 2 2 2
          2 2 2 2 2 2
          2 2 2 2 2 2
          2 2 2 2 2 2
          2 2 2 2 2 2
          1 1.5 1 1.5 0 1
          1 2 2 2 1 1.5
          1 1.5 0 1 1 2
          2 2 2 2 2 2
          2 2 2 2 2 2
          2 2 2 2 2 2
          2 2 2 2 2 2
          2 2 2 2 2 2
          2 2 2 2 2 2
          0 0 0 0 2 2
          2 2 2 2 2 2
          2 2 2 2 2 2
          2 2 2 2 2 2
          2 2 2 2 2 2
          2 2 2 2 2 2
          2 2 2 2 2 2
          2 2 2 2 2 2
          2 2 2 2 2 2
          2 2 2 2 2 2
          2 2 2 2 2 2
          2 2 2 2 2 2
          2 2 2 2 2 2
          2 2 2 2 2 2
          2 2 2 2 2 2
          2 2 2 2 2 2
          2 2 2 2 2 2
          2 2 2 2 2 2
          2 2 2 2 2 2
          2 2 2 2 2 2
          2 2 2 2 2 2
          2 2 2 2 2 2
          2 2 2 2 2
        </DataArray>
        <DataArray type="Float64" Name="gradient_marker" format="ascii" RangeMin="0" RangeMax="1">
          0.5 0 1 0.75 1 1
          0.5 0.75 0.875 1 1 1
          0.5 0.625 1 0.625 0 1
          1 1 1 1 1 1
          1 1 1 1 1 1
          1 1 1 1 1 1
          0.75 0.875 0.5 0.625 0.625 0.75
          1 1 0.875 0.75 0.5 0.75
          0.75 1 0 0 0 0.5
          0.5 0.5 0.5 0 0.5 0.5
          0 0.375 0.5 0.3333333333333333 1 0.75
          0.75 0.625 0.75 1 0.5 0.875
          0.75 0.75 0 0.5 0.5 1
          0.375 0.625 0.75 0.875 0.3333333333333333 0.625
          1 1 0.75 1 1 0.75
          1 0.875 0.6666666666666666 0.5 0.25 0.75
          0.625 0 0.5 0.75 1 1
          0 0 0 0 0 0
          0 0.25 0.25 0.25 0.75 0.625
          0 0.25 0.5 0.25 0.375 0.875
          0.5 0 0 0.25 0 0.25
          0.6666666666666666 0 0 0 0.25 0
          0 0.125 0.25 0.5 0.5 0.875
          0 0 0.25 0.5 0.5 0.5
          1 0.625 0.875 0.5 0.75 1
          1 1 1 1 1 1
          0.5 1 0.75 1 0.875 1
          1 0.25 0.625 0.75 1 1
          0.875 1 1 1 1 1
          0.75 0.75 0.5 0.75 0.625 1
          0 0.25 0 0.25 0 0
          0 0.75 0.75 0.5 0 0.25
          0 0.25 0 0 0 0.75
          0.75 0.5 0.5 0.625 0.25 0.375
          0.875 0.75 0 0.25 0 0.75
          0 0.25 0 0.125 0.75 0.625
          0 0 0 0.5 1 1
          1 1 1 1 1 1
          1 1 1 1 1 1
          0.25 0.25 0.125 0 0 0
          0 0 0 0 0 0
          0 0 0 0 0 0
          0 0 0 0 0 0
          0 0 0 0 0 0
          0 0 0 0 0 0
          0 0 0 0 0 0
          0 0 0 0 0 0
          0 0 0 0 0 0
          0 0 0 0 0 0
          0 0 0 0 0 0
          0 0 0 0 0 0
          0 0 0 0 0 0
          0 0 0 0 0 0
          0 0 0 0 0 0
          0 0 0 0 0 0
          0 0 0 0 0 0
          0 0 0 0 0 0
          0 0 0 0 0 0
          0 0 0 0 0 0
          0 0 0 0 0 0
          0 0 0 0 0 0
          0 0 0 0 0
        </DataArray>
        <DataArray type="Float64" Name="gradient_matprop_marker" format="ascii" RangeMin="0" RangeMax="0">
          0 0 0 0 0 0
          0 0 0 0 0 0
          0 0 0 0 0 0
          0 0 0 0 0 0
          0 0 0 0 0 0
          0 0 0 0 0 0
          0 0 0 0 0 0
          0 0 0 0 0 0
          0 0 0 0 0 0
          0 0 0 0 0 0
          0 0 0 0 0 0
          0 0 0 0 0 0
          0 0 0 0 0 0
          0 0 0 0 0 0
          0 0 0 0 0 0
          0 0 0 0 0 0
          0 0 0 0 0 0
          0 0 0 0 0 0
          0 0 0 0 0 0
          0 0 0 0 0 0
          0 0 0 0 0 0
          0 0 0 0 0 0
          0 0 0 0 0 0
          0 0 0 0 0 0
          0 0 0 0 0 0
          0 0 0 0 0 0
          0 0 0 0 0 0
          0 0 0 0 0 0
          0 0 0 0 0 0
          0 0 0 0 0 0
          0 0 0 0 0 0
          0 0 0 0 0 0
          0 0 0 0 0 0
          0 0 0 0 0 0
          0 0 0 0 0 0
          0 0 0 0 0 0
          0 0 0 0 0 0
          0 0 0 0 0 0
          0 0 0 0 0 0
          0 0 0 0 0 0
          0 0 0 0 0 0
          0 0 0 0 0 0
          0 0 0 0 0 0
          0 0 0 0 0 0
          0 0 0 0 0 0
          0 0 0 0 0 0
          0 0 0 0 0 0
          0 0 0 0 0 0
          0 0 0 0 0 0
          0 0 0 0 0 0
          0 0 0 0 0 0
          0 0 0 0 0 0
          0 0 0 0 0 0
          0 0 0 0 0 0
          0 0 0 0 0 0
          0 0 0 0 0 0
          0 0 0 0 0 0
          0 0 0 0 0 0
          0 0 0 0 0 0
          0 0 0 0 0 0
          0 0 0 0 0 0
          0 0 0 0 0
        </DataArray>
        <DataArray type="Float64" Name="combo" format="ascii" RangeMin="0" RangeMax="2">
          0.5 2 1 0.75 1 1
          0.5 0.75 0.875 1 1 1
          0.5 0.625 1 0.625 2 1
          1 1 1 1 1 1
          1 1 1 1 1 1
          1 1 1 1 1 1
          0.75 0.875 0.5 0.625 0.625 0.75
          1 1 0.875 0.75 0.5 0.75
          0.75 1 0 0 0 0.5
          0.5 0.5 0.5 0 0.5 0.5
          0 0.375 0.5 0.3333333333333333 1 0.75
          0.75 0.625 0.75 1 0.5 0.875
          0.75 0.75 2 0.5 1 1
          0.375 0.625 0.75 0.875 0.3333333333333333 0.625
          1 1 0.75 1 1 0.75
          1 0.875 0.6666666666666666 0.5 0.25 0.75
          0.625 0 0.5 0.75 1 1
          0 0 0 0 0 0
          0 0.25 0.25 0.25 0.75 0.625
          0 0.25 0.5 0.25 0.375 0.875
          0.5 0 0 0.25 0 0.25
          0.6666666666666666 0 0 0 0.25 0
          0 0.125 0.75 0.5 0.5 0.875
          0 0 0.75 0.5 0.5 0.5
          1 0.625 0.875 0.5 0.75 1
          1 1 1 1 1 1
          0.5 1 0.75 1 0.875 1
          1 0.25 0.625 0.75 1 1
          0.875 1 1 1 1 1
          0.75 0.75 0.5 0.75 0.625 1
          0 0.25 0 0.25 0 0
          0 0.75 0.75 0.5 0 0.25
          0 0.25 0 0 0 0.75
          0.75 0.5 1.5 0.875 1.75 0.875
          0.875 0.75 2 1.25 2 0.75
          2 1.75 2 1.875 0.75 0.625
          2 2 2 0.5 1 1
          1 1 1 1 1 1
          1 1 1 1 1 1
          0.25 0.25 0.125 0 0 0
          0 0.5 0 0 0 0
          0 0.5 0.25 1.5 1 0
          0.5 1 0.5 1.5 0 0
          0 0 0 0 0 0
          0 0 2 1 1.5 0
          1 0.5 0 2 2 1.6666666666666667
          1 0 0 0 0 2
          1.5 2 1.75 1 1 2
          2 2 2 2 2 2
          2 1.25 1.5 2 2 2
          1.5 0 0 0 0.25 0.5
          0 0 0.5 1 0 1
          0.75 1 1 0.5 1 2
          1.75 2 1.3333333333333333 1 1 1
          1 1 1 2 2 2
          2 0.5 1 0 1 1
          0 2 2 2 2 1.75
          2 2 2 2 2 2
          2 2 2 2 2 2
          2 2 2 0.75 1 0
          0 1 1 0 1 1.25
          0 0.5 1 1.5 0
        </DataArray>
        <DataArray type="Float64" Name="dHdT" format="ascii" RangeMin="25.81150564676239" RangeMax="139.11025034263875">
          26.09337490230056 101.36349134249474 26.276053308119153 26.163269631099865 32.868699746802626 29.59574895858367
          25.98051987875197 32.745614353286314 28.804447049098012 38.29109715797509 33.963668092762425 33.9821372698783
          25.930054549273553 25.911198115440705 31.76701422303225 27.586441215931927 45.36651675296501 32.940738310454336
          25.821961676179235 25.813236509355903 25.81150564676239 25.817690291912513 33.05776056346312 32.14988713887836
          36.452752968225425 35.67013545265083 31.95364055232055 36.94599618320896 35.83629710212777 30.691112964015407
          32.854935770871535 32.67001555241525 37.13737102192542 36.6751699613444 37.17730122279241 34.13418232331901
          32.83975377174943 31.700984775230342 37.33393373407442 36.15265587832593 31.3819701343931 40.25004182292056
          37.01867324600819 29.43234188649889 32.50565819524699 32.33737662624593 39.76385755948533 37.468041603928604
          40.85779291566413 34.033883240678286 26.188753108408157 26.149852312951523 26.284125412688127 27.94167513895606
          27.641343756837006 27.278370249735975 27.545597449086493 26.0339926049159 27.293134923741242 26.984851230604203
          26.06113905446979 26.615586181030267 26.794903688965128 26.537503571716908 32.32272457130055 30.917310144714563
          30.334853821962017 28.067281783127576 40.29899943383658 38.159205920462725 47.33282340176085 38.28660041513594
          31.941083270433797 31.302158697665973 127.68000270579819 40.26953840742252 53.51129068137057 33.535125707826836
          26.833548241752155 27.053086591463405 28.009829515852935 28.34605172907652 26.76379618683212 27.62407987395809
          28.701262166857255 29.07237980785863 28.245380793786474 25.83923464037386 25.829458988620196 26.591761895449633
          28.407760127572107 28.0018750093138 27.303212633470796 26.518990514165935 26.43413468828714 28.192507751821086
          27.78500009533434 26.252421261143397 26.995260658697127 27.2803719730716 28.634491937701707 29.37770857837348
          35.660273594468805 36.74055695262493 36.57708110237085 36.41360525211678 37.182879586996414 36.07792088025175
          35.60875056664891 36.701375099818634 36.523723209687745 35.4695024711571 36.614184349901066 36.4054522273464
          35.13958025304606 36.346071319556856 35.692863437941405 37.92086239096835 37.577777907076054 39.07854413966863
          37.34232003990067 36.988313349779396 31.47618081122162 33.28390555162575 31.88266099901074 36.90868781557645
          36.20214878994195 36.25980235781843 38.5683553261718 37.76543129872526 37.19512821755412 38.658992033730584
          39.176334569683036 38.51584277402946 51.4164179874911 42.833969005979355 37.74856320744265 39.39356073938447
          43.68030450624705 39.704656265110984 54.42030490033085 38.259927548068106 37.04428090764281 36.660812651456105
          37.10024846550621 36.986708635994574 36.88134860424554 36.574964939615555 36.39326402482059 37.06472945641269
          37.005289169593084 36.89012752141268 35.29232598641255 34.766351933274 35.038698681084064 34.443281404713815
          33.111732093247575 35.77600803157985 35.27271791908121 36.519763478440964 36.27283584719149 36.43079630475549
          36.14104465252524 33.71171242287189 35.27731492646471 35.042500267527025 42.34207434000677 40.65075808240836
          39.87607661648315 37.92706361977402 36.701005333607554 36.184182076293105 37.70247477553967 36.58253907731414
          34.80301899557501 34.52852265466696 42.531909221427284 40.096294775564346 42.19394395826511 38.816906403152366
          31.314006769661276 33.12545383940202 30.988900988799045 32.81415729146347 29.974016500161344 31.722186041816634
          31.39460704816787 35.77523513224067 35.55421965940379 34.65578484974324 30.643182627916595 32.48992616670624
          30.26317330419436 32.12517544043544 29.303278949473505 31.041173161241105 30.655908950625587 35.33586775923812
          35.325387986508 34.04559343967174 70.18496936695145 48.81839281169767 89.26245117052459 60.64517440249127
          39.50360648955776 39.107605761364496 139.11025034263875 77.08661766689667 101.97159214943481 40.12678672680933
          101.42314271602915 74.19366289903056 76.89076668000611 77.45616452192228 42.03906042496538 44.6890849412669
          77.84767841920433 103.45845755157225 76.67121031815199 48.01857115318443 36.794160040973644 36.988455214704715
          36.19012255739772 35.95993565516883 36.97475072660872 37.50788470472973 36.539030998780895 37.55007943297227
          38.1644426278923 35.69643453639906 35.38697072631944 38.76509305296417 39.66528685944514 36.08074956646335
          26.364143114336816 26.236878531975883 26.150482700738316 26.11237453959548 39.08265399403336 44.794072282423926
          42.433458468572894 52.43521391573364 40.07284465472186 43.413831031737175 41.39475008722704 39.37566914271691
          43.706846180420726 53.554658775084526 48.54600647566363 80.48243676442961 67.65976779685305 43.53735417624274
          54.8370988292765 62.315245267745134 54.65855448275437 82.88432167797245 47.00186369776361 37.94747191103447
          40.133077480348874 39.08478227753752 43.607143364253176 38.03648707472617 52.80278172261403 48.342017562556094
          51.063445953355654 43.88125340249816 76.66147861926216 64.13340568490011 76.91969240561131 51.60533275053807