<?xml version="1.0"?>
<VTKFile type="UnstructuredGrid" version="0.1" byte_order="LittleEndian" header_type="UInt32" compressor="vtkZLibDataCompressor">
  <UnstructuredGrid>
    <Piece NumberOfPoints="406" NumberOfCells="204">
      <PointData>
        <DataArray type="Int32" Name="libmesh_node_id" format="ascii" RangeMin="94" RangeMax="3646">
          126 127 128 129 130 131
          143 144 145 156 157 158
          159 160 161 173 174 175
          186 187 188 189 190 191
          203 204 205 210 211 212
          213 214 215 216 217 218
          219 220 221 222 223 224
          225 226 227 228 257 258
          259 260 261 262 263 264
          265 266 267 268 269 270
          285 286 287 288 289 290
          291 292 293 294 295 296
          297 298 299 300 301 302
          303 304 305 306 307 308
          309 310 311 312 313 314
          315 316 317 376 377 380
          386 399 401 406 409 484
          485 486 487 488 489 490
          491 492 493 494 495 496
          497 498 499 500 501 502
          503 504 505 506 507 508
          509 510 511 512 513 514
          515 516 517 518 519 520
          521 522 523 524 525 526
          527 528 529 530 731 732
          733 734 735 736 737 738
          739 740 741 742 743 744
          745 746 747 748 749 750
          751 752 753 754 755 756
          757 758 759 760 761 762
          763 764 765 766 767 768
          769 770 771 772 773 774
          775 776 777 778 811 812
          813 814 815 816 817 818
          819 820 821 822 823 824
          825 826 827 828 829 830
          831 832 833 834 835 836
          837 838 839 840 841 842
          843 844 845 846 847 848
          849 850 851 852 853 854
          855 856 857 858 3255 3256
          3257 3258 3259 3260 3261 3262
          3263 3264 3307 3308 3309 3310
          3311 3312 3313 3314 3315 3316
          3317 3318 3319 3320 3321 3322
          3323 3324 3325 3326 3327 3328
          3329 3330 3331 3332 3333 3334
          3335 3336 3337 3338 3339 3340
          3341 3342 3343 3344 3345 3346
          3347 3348 3349 3350 3351 3352
          3353 3354 3355 3356 3357 3358
          3359 3360 3361 3362 3363 3364
          3365 3366 3367 3368 3369 3370
          3371 3372 3373 3374 3375 3376
          3377 3378 3379 3380 3381 3382
          3407 3408 3411 3606 3607 3608
          3609 3610 3611 3612 3613 3614
          3625 3626 3627 3628 3629 3630
          3641 3642 3643 3644 3645 3646
          94 96 97 95 124 125
          98 99 100 101 113 112
          142 114 115 155 172 3299
          3302 3301 3303 3401 3402 3409
          3410 3403 3412 3406 3298 3437
          3438 3439 3440 3306 3441 3442
          3596 3597 3598 3601 3300 3604
          3617 3618 3620 3304 3623 3305
          3633 3634 3637 3639
        </DataArray>
        <DataArray type="Float64" Name="bounds" format="ascii" RangeMin="0" RangeMax="0">
          0 0 0 0 0 0
          0 0 0 0 0 0
          0 0 0 0 0 0
          0 0 0 0 0 0
          0 0 0 0 0 0
          0 0 0 0 0 0
          0 0 0 0 0 0
          0 0 0 0 0 0
          0 0 0 0 0 0
          0 0 0 0 0 0
          0 0 0 0 0 0
          0 0 0 0 0 0
          0 0 0 0 0 0
          0 0 0 0 0 0
          0 0 0 0 0 0
          0 0 0 0 0 0
          0 0 0 0 0 0
          0 0 0 0 0 0
          0 0 0 0 0 0
          0 0 0 0 0 0
          0 0 0 0 0 0
          0 0 0 0 0 0
          0 0 0 0 0 0
          0 0 0 0 0 0
          0 0 0 0 0 0
          0 0 0 0 0 0
          0 0 0 0 0 0
          0 0 0 0 0 0
          0 0 0 0 0 0
          0 0 0 0 0 0
          0 0 0 0 0 0
          0 0 0 0 0 0
          0 0 0 0 0 0
          0 0 0 0 0 0
          0 0 0 0 0 0
          0 0 0 0 0 0
          0 0 0 0 0 0
          0 0 0 0 0 0
          0 0 0 0 0 0
          0 0 0 0 0 0
          0 0 0 0 0 0
          0 0 0 0 0 0
          0 0 0 0 0 0
          0 0 0 0 0 0
          0 0 0 0 0 0
          0 0 0 0 0 0
          0 0 0 0 0 0
          0 0 0 0 0 0
          0 0 0 0 0 0
          0 0 0 0 0 0
          0 0 0 0 0 0
          0 0 0 0 0 0
          0 0 0 0 0 0
          0 0 0 0 0 0
          0 0 0 0 0 0
          0 0 0 0 0 0
          0 0 0 0 0 0
          0 0 0 0 0 0
          0 0 0 0 0 0
          0 0 0 0 0 0
          0 0 0 0 0 0
          0 0 0 0 0 0
          0 0 0 0 0 0
          0 0 0 0 0 0
          0 0 0 0 0 0
          0 0 0 0 0 0
          0 0 0 0 0 0
          0 0 0 0
        </DataArray>
        <DataArray type="Float64" Name="gradient_error" format="ascii" RangeMin="7.212776994878744e-10" RangeMax="0.00000207138690661387">
          1.2458975087834611e-8 8.836679768665363e-9 1.945506900384983e-8 7.508418522572392e-9 6.260647781066617e-9 3.869025049417383e-9
          1.0316747297289438e-8 8.129091119764654e-9 4.21042081294808e-9 1.4571311412795086e-7 1.4927609329835345e-7 6.224591887812087e-7
          8.693173167416067e-8 2.515756394274361e-8 2.3833070390163875e-8 1.0337970824253449e-8 8.12417738978434e-9 4.056131575193002e-9
          0.0000010497751891564357 1.4237299303876693e-7 0.0000017842391471027299 6.389113267951214e-7 3.478436186163792e-7 4.9004054410253794e-8
          2.509444764698715e-8 3.950418379061599e-8 1.6258153373338766e-8 2.9099013586108994e-7 1.880028680098877e-7 3.892255540603889e-7
          0.0000013859183898965986 7.642914946356764e-7 6.787912755216374e-7 8.752257855899077e-7 3.21831374491487e-8 1.3650017410133704e-7
          2.7333780936073527e-7 6.596617460016828e-8 3.294639680910382e-7 3.750695137087908e-7 4.156674174216709e-8 2.0855791356968494e-7
          0.0000011412255042315383 0.0000015188258025039249 2.715190008763214e-7 5.947828067418556e-7 4.5394936116244157e-7 3.2796089246617124e-7
          2.0185389263868482e-7 8.049730683174616e-7 0.0000011280491207265568 6.245933673636701e-7 5.280600812985151e-7 1.5435368409252758e-7
          1.710156214660419e-7 1.8105628090267238e-7 0.0000013386826315367605 0.0000010525853067053455 9.5746538730037e-7 1.8940713916941122e-7
          0.0000017845789951921532 0.0000014580295260216678 0.0000014139514369640922 0.0000017442229966096936 0.0000014483747514563184 0.000001522012424988471
          0.0000016343613116644632 7.309606741331862e-7 7.120511529186077e-7 9.195231080783509e-7 0.0000011314800568511827 0.0000016014334817325262
          0.0000011270162172759456 8.383585872463317e-7 0.0000010890132634621137 0.0000015913513146965121 0.000001854771186364834 8.007999764992358e-7
          0.00000207138690661387 1.586304872959638e-7 3.3830724902262863e-7 3.884492143421297e-7 5.058049127060523e-7 2.953025839371618e-7
          4.5921114507855343e-7 5.118841604328549e-7 4.000777119578305e-7 4.232323825411517e-7 3.7305717740740057e-7 2.620120048948817e-7
          4.1224616179378634e-7 4.955643528611762e-7 2.960642513258876e-7 4.6976938452246476e-9 2.2636891881730985e-8 1.4880978560153405e-8
          7.125065238575828e-9 3.888004535279494e-9 2.4915520924587544e-8 8.575149845025421e-9 4.594303731389559e-8 3.2752969987238527e-7
          3.1861018813349203e-7 2.86807459818552e-7 2.752169819839867e-7 2.7708964100769325e-7 2.9691914161796723e-7 2.805848284306048e-7
          3.326317291287241e-7 2.901732396898848e-7 3.2722901396369725e-7 3.096906763945988e-7 3.167486422282412e-7 2.8595267487722295e-7
          3.4538459721245205e-7 2.2664958214300126e-7 2.752280951024425e-7 2.743621970426576e-7 2.871293855396625e-7 3.238066080618837e-7
          3.553469781924197e-7 3.405748793648444e-7 3.145257616284051e-7 3.554348693870847e-7 3.724232199093047e-7 3.462611094441766e-7
          3.8980084708780265e-7 3.138631923971079e-7 3.6136362097539815e-7 3.94990493529371e-7 2.308450801782176e-7 3.117334193542465e-7
          3.444008998760458e-7 3.777021360117766e-7 4.2222840245412815e-7 4.023700399440956e-7 3.882550056419567e-7 4.3375678817168747e-7
          4.337102035494724e-7 4.4081239338944694e-7 4.862825916090886e-7 3.651072914464132e-7 4.2872496499194996e-7 4.6509642157391357e-7
          2.9912520964433213e-7 3.8771755908078605e-7 4.423176978803369e-7 4.51197053805545e-7 2.0409652148664262e-8 1.2176703909531419e-8
          1.8281471294409605e-8 1.040686191293785e-7 6.52799400006037e-8 3.997491256534148e-8 6.353268646117767e-8 3.943755670398573e-9
          1.4669885130079251e-8 2.2996753792976825e-8 8.216123181854594e-9 1.220035699122107e-8 6.398790662285017e-8 7.29514965898456e-8
          1.7840245106261222e-9 2.0854921050280255e-8 2.0978587081434554e-8 1.1975969006384577e-7 1.3370263618847012e-7 3.992581758993439e-8
          3.795067485771239e-8 3.1100921836421186e-8 4.865380654201697e-8 1.0201247429843046e-7 9.133578358295568e-8 6.533302975775188e-8
          7.691984878947136e-8 1.1066616431416286e-8 6.776022659866353e-8 4.3345923314622945e-8 2.4251168815129985e-8 3.933027593254809e-8
          5.182722328051224e-8 1.893162003058236e-8 9.946405932420476e-8 1.2119158572933996e-7 1.6089322739314477e-7 1.8574030614401272e-7
          6.122186170999606e-8 1.1311688863177698e-7 4.795128977187051e-8 7.325257272684385e-8 1.1756016900762513e-7 1.8596261840198235e-8
          2.2232239546208482e-7 2.502890265586854e-7 1.6501191555355793e-7 9.855385568181719e-8 1.9938767161198264e-7 1.8665371864819321e-7
          2.0110557871004313e-7 2.544270738276281e-7 2.5593759245911473e-7 2.3433357897897942e-7 2.321717406603756e-7 1.658959395345459e-7
          2.5946414848725833e-7 2.3777079252679788e-7 1.7391976568440377e-7 2.127295654988441e-7 2.0991640749312313e-7 2.1607743656633738e-7
          1.6040708654443314e-7 1.5535419463602295e-7 2.6373954490655416e-7 2.4014912863081265e-7 1.456684435951321e-7 2.672965367311845e-7
          2.4142068267811826e-7 1.503013027276128e-7 2.1655871235507117e-7 2.1554482862505208e-7 2.499607052844675e-7 2.4413655167901247e-7
          2.8178281653080195e-7 2.772937491506056e-7 2.582965590114966e-7 2.900833035406947e-7 2.0993739445214945e-7 2.3718236825657218e-7
          2.470032831388746e-7 2.2352620475407604e-7 3.136049277771364e-7 3.104509466221987e-7 3.2187004806989274e-7 2.644273420609949e-7
          2.627133860334836e-7 2.979455718775175e-7 2.6546095860626286e-7 3.0516330100054144e-7 1.9512825259585394e-7 2.1769978447255344e-7
          2.1188654868198606e-7 3.3317775772155146e-7 3.4486564339482e-7 2.4027131634925294e-7 2.8865596471506037e-8 1.7512258719975892e-8
          1.0431161901502563e-8 7.725741336165032e-8 1.0929885703708148e-7 6.906524361628035e-8 5.422445357793944e-8 6.158920968445747e-9
          2.8831630195479237e-8 3.119149379422856e-8 1.2798706635370928e-8 1.0747645499063854e-8 4.690687241575492e-8 2.640489834121681e-8
          2.8317966204162773e-9 1.2578412286607148e-8 1.4570527494542626e-8 8.101503819613892e-8 4.206215118336977e-8 2.2325027952798022e-8
          1.7114993266510407e-7 1.3946845048207208e-7 1.2892641981582805e-7 2.509291649004363e-7 2.3327459572699426e-7 1.956515423784484e-7
          2.129869981211427e-7 1.4650993357112287e-7 2.2383052361128388e-7 1.8638992816850005e-7 1.0778696829904009e-7 1.580284890299025e-7
          1.7504483134184914e-7 1.4894933272571618e-7 8.360083383669295e-7 7.23974935495488e-7 7.06522018522406e-7 9.272827960524193e-7
          5.296787753441261e-7 0.0000011551539611361916 0.0000012791606405039265 0.00000125004138492765 0.0000011453961424735343 0.0000014178221331574712
          0.0000013667788867616188 8.477642021189032e-7 8.191292959411584e-7 8.735367456959519e-7 0.0000011817038630628786 0.0000013039675331391487
          0.0000011747958243287134 0.0000014557685408275475 0.0000010051452461019996 0.000001604479543064677 0.000001350187100201722 0.000001569104890901091
          0.0000014946487585655593 6.899042607660074e-7 8.944481281686225e-7 0.0000015337302387375048 0.0000016391104169293965 0.0000010989919955712378
          2.5029023215915013e-7 2.659503197909058e-7 3.2810851944647056e-7 3.431827715098355e-7 2.3158013166476767e-7 3.086464141303086e-7
          1.354272035340151e-7 1.8161076400650827e-7 1.8374527494823078e-7 1.859549772344802e-7 4.0592680673379104e-7 4.2041522322876516e-7
          3.857126965958495e-7 2.2779432447900144e-7 2.0994654807693346e-7 2.845290626316869e-7 1.9842578233798505e-7 2.712620220844179e-7
          1.3597923196061908e-7 2.003544951561563e-7 2.104746457794642e-7 3.591115771864403e-7 3.440982618308507e-7 2.647297583516935e-7
          9.866251722635274e-9 6.89495760129434e-9 3.923663479953407e-9 1.421892945200563e-7 1.2462915480630805e-7 2.6596009709546407e-7
          2.2784097516288274e-7 1.0706901509255984e-7 1.8972185323030136e-7 7.745340969596764e-7 6.876558958525128e-7 5.362260238659291e-7
          0.0000010474881296150532 0.0000010535229194015588 7.893290001476888e-7 9.356389649816253e-7 0.0000010627868426175494 9.105063101805054e-7
          2.786980502593717e-7 3.543530900664736e-7 1.502734184116546e-7 1.896058890256341e-7 4.3000812987357553e-7 2.289383596396136e-7
          8.556048559268875e-9 5.852557726687426e-9 4.141998513016593e-9 5.755368852466419e-9 1.49788822030112e-8 9.429904687168295e-9
          4.982744134204597e-9 3.2365573202881987e-9 3.1018780714364355e-9 1.9115778854621546e-9 2.4314392993457616e-9 2.9546891456639622e-9
          1.0542732195077168e-8 1.4903705063718004e-9 7.212776994878744e-10 2.0660018135276996e-7 1.2138706210550992e-8 2.184924954501224e-7
          2.316943188262547e-7 5.558009616989383e-7 2.1604732209250887e-7 9.57150349807724e-9 3.394379048169182e-8 4.527156739146145e-8
          3.809284529252631e-8 3.124155067029307e-8 3.091412319359117e-8 2.853931085889432e-8 1.0932976364845748e-7 9.535139645625533e-9
          3.123127629366306e-8 5.9870517950625516e-9 2.233041207630145e-8 1.5116450305705494e-7 5.2927412941700586e-8 3.867377235754035e-8
          1.2463800699712687e-7 2.781365042813269e-7 2.4011140627494315e-7 2.020863082685594e-7 7.443853549416391e-7 6.674952406676424e-7
          9.538143908129725e-7 9.724063747705038e-7 7.590146708660023e-7 8.371484360686933e-7 9.654070737584825e-7 8.649146147615475e-7
          2.8886415460287717e-7 3.6225994496720667e-7 1.9748890693044434e-7 4.3565573533153617e-7
        </DataArray>
        <DataArray type="Float64" Name="gradient_matprop_error" format="ascii" RangeMin="0" RangeMax="0">
          0 0 0 0 0 0
          0 0 0 0 0 0
          0 0 0 0 0 0
          0 0 0 0 0 0
          0 0 0 0 0 0
          0 0 0 0 0 0
          0 0 0 0 0 0
          0 0 0 0 0 0
          0 0 0 0 0 0
          0 0 0 0 0 0
          0 0 0 0 0 0
          0 0 0 0 0 0
          0 0 0 0 0 0
          0 0 0 0 0 0
          0 0 0 0 0 0
          0 0 0 0 0 0
          0 0 0 0 0 0
          0 0 0 0 0 0
          0 0 0 0 0 0
          0 0 0 0 0 0
          0 0 0 0 0 0
          0 0 0 0 0 0
          0 0 0 0 0 0
          0 0 0 0 0 0
          0 0 0 0 0 0
          0 0 0 0 0 0
          0 0 0 0 0 0
          0 0 0 0 0 0
          0 0 0 0 0 0
          0 0 0 0 0 0
          0 0 0 0 0 0
          0 0 0 0 0 0
          0 0 0 0 0 0
          0 0 0 0 0 0
          0 0 0 0 0 0
          0 0 0 0 0 0
          0 0 0 0 0 0
          0 0 0 0 0 0
          0 0 0 0 0 0
          0 0 0 0 0 0
          0 0 0 0 0 0
          0 0 0 0 0 0
          0 0 0 0 0 0
          0 0 0 0 0 0
          0 0 0 0 0 0
          0 0 0 0 0 0
          0 0 0 0 0 0
          0 0 0 0 0 0
          0 0 0 0 0 0
          0 0 0 0 0 0
          0 0 0 0 0 0
          0 0 0 0 0 0
          0 0 0 0 0 0
          0 0 0 0 0 0
          0 0 0 0 0 0
          0 0 0 0 0 0
          0 0 0 0 0 0
          0 0 0 0 0 0
          0 0 0 0 0 0
          0 0 0 0 0 0
          0 0 0 0 0 0
          0 0 0 0 0 0
          0 0 0 0 0 0
          0 0 0 0 0 0
          0 0 0 0 0 0
          0 0 0 0 0 0
          0 0 0 0 0 0
          0 0 0 0
        </DataArray>
        <DataArray type="Float64" Name="initial_marker" format="ascii" RangeMin="0" RangeMax="2">
          0 0 0 0 0 0
          0 0 0 0 0 0
          0 0 0 0 0 0
          0 0 0 0 2 0
          0 0 0 0 0 0
          0 0 0 0 0 0
          0 0 0 0 0 2
          0 0 0 0 0 0
          0 0 0 0 0 0
          0 0 0 0 0 0
          0 0 0 0 0 0
          0 0 0 0 0 0
          0 0 0 0 0 0
          0 0 0 1 0 0
          1 0.5 0 0 0 2
          1 1 0 0 0 0
          0 0 0 0 0 0
          0 0 0 0.5 0.25 0
          0 1 0.5 0 0 0
          0 1 0.5 0 1 0
          0.5 0.25 1.5 1 0.5 2
          1.5 0 0.25 0.5 2 1.5
          2 0.5 1 0.75 2 1.75
          1 2 2 0.3333333333333333 0.75 1
          2 2 2 1 0 0
          0 0 0 0 0 0
          0 0 0 0 0 0
          0 0 0 0 0 0
          0 0 0 0 0 0
          0 0 0 0 0 0
          0 0 0 0 0 0
          0 0 0 0 0 0
          0 0 0 0 0 0
          0 0 0 0 0 0
          0 0 0 0 0 0
          0 0 0 0 0 0
          0 0 0 0 0 0
          0 0 0 0 0 0
          0 0 0 0 0 0
          0 0 0 0 0 0
          0 0 0 0 0 0
          0 0 0 0 0 0
          0 0 0 0 0 0
          0 0 0 0 0 0
          0 0 0 0 0 0
          0 0 0 0 0 0
          0 0 0 0 0 0
          0 0 0 0 0 0
          0 0 0 0 0 0
          0 0 0 0 0 0
          0 0 0 0 0 0
          0 0 0 0 0 0
          0 0 0 0 0 0
          0 0 0 0 0 0
          0 0 0 0 0 0
          0 0 0 0 0 0
          0 0 0 0 0 0
          0 0 0 0 0 0
          0 0 0 0 0 0
          0 0 0 0 0 0
          0 0 0 0 0 0
          0 0 0 0 0 0
          0 0 0 0 0 0
          0 0 0 0 0 0
          0 0 0 0 0 0
          0 0 0 0 0 0
          0 0 0 0 0 0
          0 0 0 0
        </DataArray>
        <DataArray type="Float64" Name="markers_norefine" format="ascii" RangeMin="0" RangeMax="0">
          0 0 0 0 0 0
          0 0 0 0 0 0
          0 0 0 0 0 0
          0 0 0 0 0 0
          0 0 0 0 0 0
          0 0 0 0 0 0
          0 0 0 0 0 0
          0 0 0 0 0 0
          0 0 0 0 0 0
          0 0 0 0 0 0
          0 0 0 0 0 0
          0 0 0 0 0 0
          0 0 0 0 0 0
          0 0 0 0 0 0
          0 0 0 0 0 0
          0 0 0 0 0 0
          0 0 0 0 0 0
          0 0 0 0 0 0
          0 0 0 0 0 0
          0 0 0 0 0 0
          0 0 0 0 0 0
          0 0 0 0 0 0
          0 0 0 0 0 0
          0 0 0 0 0 0
          0 0 0 0 0 0
          0 0 0 0 0 0
          0 0 0 0 0 0
          0 0 0 0 0 0
          0 0 0 0 0 0
          0 0 0 0 0 0
          0 0 0 0 0 0
          0 0 0 0 0 0
          0 0 0 0 0 0
          0 0 0 0 0 0
          0 0 0 0 0 0
          0 0 0 0 0 0
          0 0 0 0 0 0
          0 0 0 0 0 0
          0 0 0 0 0 0
          0 0 0 0 0 0
          0 0 0 0 0 0
          0 0 0 0 0 0
          0 0 0 0 0 0
          0 0 0 0 0 0
          0 0 0 0 0 0
          0 0 0 0 0 0
          0 0 0 0 0 0
          0 0 0 0 0 0
          0 0 0 0 0 0
          0 0 0 0 0 0
          0 0 0 0 0 0
          0 0 0 0 0 0
          0 0 0 0 0 0
          0 0 0 0 0 0
          0 0 0 0 0 0
          0 0 0 0 0 0
          0 0 0 0 0 0
          0 0 0 0 0 0
          0 0 0 0 0 0
          0 0 0 0 0 0
          0 0 0 0 0 0
          0 0 0 0 0 0
          0 0 0 0 0 0
          0 0 0 0 0 0
          0 0 0 0 0 0
          0 0 0 0 0 0
          0 0 0 0 0 0
          0 0 0 0
        </DataArray>
        <DataArray type="Float64" Name="markers_mustrefine" format="ascii" RangeMin="0" RangeMax="2">
          0 0 0 0 0 0
          0 0 0 0 0 0
          0 0 0 0 0 0
          0 0 0 0 2 0
          0 0 0 0 0 0
          0 0 0 0 0 0
          0 0 0 0 0 2
          0 0 0 0 0 0
          0 0 0 0 0 0
          0 0 0 0 0 0
          0 0 0 0 0 0
          0 0 0 0 0 0
          0 0 0 0 0 0
          0 0 0 1 0 0
          1 0.5 0 0 0 2
          1 1 0 0 0 0
          0 0 0 0 0 0
          0 0 0 0.5 0.25 0
          0 1 0.5 0 0 0
          0 1 0.5 0 1 0
          0.5 0.25 1.5 1 0.5 2
          1.5 0 0.25 0.5 2 1.5
          2 0.5 1 0.75 2 1.75
          1 2 2 0.3333333333333333 0.75 1
          2 2 2 1 0 0
          0 0 0 0 0 0
          0 0 0 0 0 0
          0 0 0 0 0 0
          0 0 0 0 0 0
          0 0 0 0 0 0
          0 0 0 0 0 0
          0 0 0 0 0 0
          0 0 0 0 0 0
          0 0 0 0 0 0
          0 0 0 0 0 0
          0 0 0 0 0 0
          0 0 0 0 0 0
          0 0 0 0 0 0
          0 0 0 0 0 0
          0 0 0 0 0 0
          0 0 0 0 0 0
          0 0 0 0 0 0
          0 0 0 0 0 0
          0 0 0 0 0 0
          0 0 0 0 0 0
          0 0 0 0 0 0
          0 0 0 0 0 0
          0 0 0 0 0 0
          0 0 0 0 0 0
          0 0 0 0 0 0
          0 0 0 0 0 0
          0 0 0 0 0 0
          0 0 0 0 0 0
          0 0 0 0 0 0
          0 0 0 0 0 0
          0 0 0 0 0 0
          0 0 0 0 0 0
          0 0 0 0 0 0
          0 0 0 0 0 0
          0 0 0 0 0 0
          0 0 0 0 0 0
          0 0 0 0 0 0
          0 0 0 0 0 0
          0 0 0 0 0 0
          0 0 0 0 0 0
          0 0 0 0 0 0
          0 0 0 0 0 0
          0 0 0 0
        </DataArray>
        <DataArray type="Float64" Name="gradient_marker" format="ascii" RangeMin="1" RangeMax="1">
          1 1 1 1 1 1
          1 1 1 1 1 1
          1 1 1 1 1 1
          1 1 1 1 1 1
          1 1 1 1 1 1
          1 1 1 1 1 1
          1 1 1 1 1 1
          1 1 1 1 1 1
          1 1 1 1 1 1
          1 1 1 1 1 1
          1 1 1 1 1 1
          1 1 1 1 1 1
          1 1 1 1 1 1
          1 1 1 1 1 1
          1 1 1 1 1 1
          1 1 1 1 1 1
          1 1 1 1 1 1
          1 1 1 1 1 1
          1 1 1 1 1 1
          1 1 1 1 1 1
          1 1 1 1 1 1
          1 1 1 1 1 1
          1 1 1 1 1 1
          1 1 1 1 1 1
          1 1 1 1 1 1
          1 1 1 1 1 1
          1 1 1 1 1 1
          1 1 1 1 1 1
          1 1 1 1 1 1
          1 1 1 1 1 1
          1 1 1 1 1 1
          1 1 1 1 1 1
          1 1 1 1 1 1
          1 1 1 1 1 1
          1 1 1 1 1 1
          1 1 1 1 1 1
          1 1 1 1 1 1
          1 1 1 1 1 1
          1 1 1 1 1 1
          1 1 1 1 1 1
          1 1 1 1 1 1
          1 1 1 1 1 1
          1 1 1 1 1 1
          1 1 1 1 1 1
          1 1 1 1 1 1
          1 1 1 1 1 1
          1 1 1 1 1 1
          1 1 1 1 1 1
          1 1 1 1 1 1
          1 1 1 1 1 1
          1 1 1 1 1 1
          1 1 1 1 1 1
          1 1 1 1 1 1
          1 1 1 1 1 1
          1 1 1 1 1 1
          1 1 1 1 1 1
          1 1 1 1 1 1
          1 1 1 1 1 1
          1 1 1 1 1 1
          1 1 1 1 1 1
          1 1 1 1 1 1
          1 1 1 1 1 1
          1 1 1 1 1 1
          1 1 1 1 1 1
          1 1 1 1 1 1
          1 1 1 1 1 1
          1 1 1 1 1 1
          1 1 1 1
        </DataArray>
        <DataArray type="Float64" Name="gradient_matprop_marker" format="ascii" RangeMin="0" RangeMax="0">
          0 0 0 0 0 0
          0 0 0 0 0 0
          0 0 0 0 0 0
          0 0 0 0 0 0
          0 0 0 0 0 0
          0 0 0 0 0 0
          0 0 0 0 0 0
          0 0 0 0 0 0
          0 0 0 0 0 0
          0 0 0 0 0 0
          0 0 0 0 0 0
          0 0 0 0 0 0
          0 0 0 0 0 0
          0 0 0 0 0 0
          0 0 0 0 0 0
          0 0 0 0 0 0
          0 0 0 0 0 0
          0 0 0 0 0 0
          0 0 0 0 0 0
          0 0 0 0 0 0
          0 0 0 0 0 0
          0 0 0 0 0 0
          0 0 0 0 0 0
          0 0 0 0 0 0
          0 0 0 0 0 0
          0 0 0 0 0 0
          0 0 0 0 0 0
          0 0 0 0 0 0
          0 0 0 0 0 0
          0 0 0 0 0 0
          0 0 0 0 0 0
          0 0 0 0 0 0
          0 0 0 0 0 0
          0 0 0 0 0 0
          0 0 0 0 0 0
          0 0 0 0 0 0
          0 0 0 0 0 0
          0 0 0 0 0 0
          0 0 0 0 0 0
          0 0 0 0 0 0
          0 0 0 0 0 0
          0 0 0 0 0 0
          0 0 0 0 0 0
          0 0 0 0 0 0
          0 0 0 0 0 0
          0 0 0 0 0 0
          0 0 0 0 0 0
          0 0 0 0 0 0
          0 0 0 0 0 0
          0 0 0 0 0 0
          0 0 0 0 0 0
          0 0 0 0 0 0
          0 0 0 0 0 0
          0 0 0 0 0 0
          0 0 0 0 0 0
          0 0 0 0 0 0
          0 0 0 0 0 0
          0 0 0 0 0 0
          0 0 0 0 0 0
          0 0 0 0 0 0
          0 0 0 0 0 0
          0 0 0 0 0 0
          0 0 0 0 0 0
          0 0 0 0 0 0
          0 0 0 0 0 0
          0 0 0 0 0 0
          0 0 0 0 0 0
          0 0 0 0
        </DataArray>
        <DataArray type="Float64" Name="combo" format="ascii" RangeMin="1" RangeMax="1">
          1 1 1 1 1 1
          1 1 1 1 1 1
          1 1 1 1 1 1
          1 1 1 1 1 1
          1 1 1 1 1 1
          1 1 1 1 1 1
          1 1 1 1 1 1
          1 1 1 1 1 1
          1 1 1 1 1 1
          1 1 1 1 1 1
          1 1 1 1 1 1
          1 1 1 1 1 1
          1 1 1 1 1 1
          1 1 1 1 1 1
          1 1 1 1 1 1
          1 1 1 1 1 1
          1 1 1 1 1 1
          1 1 1 1 1 1
          1 1 1 1 1 1
          1 1 1 1 1 1
          1 1 1 1 1 1
          1 1 1 1 1 1
          1 1 1 1 1 1
          1 1 1 1 1 1
          1 1 1 1 1 1
          1 1 1 1 1 1
          1 1 1 1 1 1
          1 1 1 1 1 1
          1 1 1 1 1 1
          1 1 1 1 1 1
          1 1 1 1 1 1
          1 1 1 1 1 1
          1 1 1 1 1 1
          1 1 1 1 1 1
          1 1 1 1 1 1
          1 1 1 1 1 1
          1 1 1 1 1 1
          1 1 1 1 1 1
          1 1 1 1 1 1
          1 1 1 1 1 1
          1 1 1 1 1 1
          1 1 1 1 1 1
          1 1 1 1 1 1
          1 1 1 1 1 1
          1 1 1 1 1 1
          1 1 1 1 1 1
          1 1 1 1 1 1
          1 1 1 1 1 1
          1 1 1 1 1 1
          1 1 1 1 1 1
          1 1 1 1 1 1
          1 1 1 1 1 1
          1 1 1 1 1 1
          1 1 1 1 1 1
          1 1 1 1 1 1
          1 1 1 1 1 1
          1 1 1 1 1 1
          1 1 1 1 1 1
          1 1 1 1 1 1
          1 1 1 1 1 1
          1 1 1 1 1 1
          1 1 1 1 1 1
          1 1 1 1 1 1
          1 1 1 1 1 1
          1 1 1 1 1 1
          1 1 1 1 1 1
          1 1 1 1 1 1
          1 1 1 1
        </DataArray>
        <DataArray type="Float64" Name="dHdT" format="ascii" RangeMin="25.79256206910889" RangeMax="38.89488837878451">
          25.81336105044805 25.81176305396631 25.81479189834019 25.8116497926491 25.811763619307264 25.811453215639062
          25.811558894889465 25.811544413949576 25.811477699136002 25.854851557270525 25.83253911804911 25.910988698279734
          25.82072165895994 25.80229681220173 25.81352556913653 25.81147724698429 25.8116716667446 25.811514947407467
          32.515088401401016 25.932370746322 34.44294743549889 25.931835112874385 37.22539737132858 25.801165349125043
          25.810104953617234 25.81679103829921 25.812918476803425 25.85275384804069 25.837350157201694 25.871303767865033
          27.6356903227583 27.20913830240082 26.275002544157662 26.379224089953496 25.812660601209426 26.46461775992163
          26.09704334055661 25.818113728305153 25.859324594724114 25.869907138134398 25.812210554775476 38.89488837878451
          27.733108407915676 28.210321724277037 26.991127970897796 25.90335675279734 25.89183522773822 25.86113809746376
          25.84576004607657 27.79398974856013 27.69273006658029 26.484605836943786 26.58556660113536 25.83074071084336
          25.849465938276108 25.869632025389183 33.603055456006686 28.316302061888365 28.284989142116373 25.901294634760994
          29.238940913005592 28.269384507480147 28.301470309152144 31.832814870758305 32.09373796454861 30.04707464949396
          30.244220108099384 27.129240878382927 32.89254758378238 29.966215265514823 27.299828101954706 28.636876191970693
          27.950702375191998 27.41181497131863 36.51651736877112 32.66347402032213 32.18696990704663 33.766482112010614
          29.97392428198668 26.64846836747482 26.480951982860837 33.37232835550897 30.031389048995248 26.335489359100986
          33.204783684835654 29.83741016050012 26.301676389355375 26.708889535313116 26.527356379375817 37.94165240629148
          34.40533952884681 34.26626177926214 27.234903066216688 25.812017845148965 25.808236563772176 25.809461092716255
          25.810685621660323 25.810960221385173 25.808370447059588 25.812185928845977 25.805780672734006 35.522150353235446
          34.24894299768644 34.06851544275382 36.90942751049606 37.14900194041964 35.89189832371287 35.69121584790791
          33.082804094569916 37.349707010187636 36.121889025132475 32.97573564213744 34.63479470700611 34.473004185319766
          33.62273494154747 38.77585352760382 37.534853649739304 37.313916253062004 37.6942482275009 36.29385377187479
          33.35472177359289 32.44919772795613 37.22026114438921 36.152801690105065 32.47333366474843 37.00986105097412
          36.09333786078699 31.04512296472615 33.091782748466905 33.14000830473044 38.44706338615789 37.520104313146135
          37.27146704916506 34.37078511641024 33.31403005608288 32.4145737116344 36.773050682314896 35.95340838363809
          32.304480420168176 36.56886256144544 35.799095190542246 30.97547564067514 33.095733036061176 32.99857260395523
          37.51871832645736 37.010089628584005 36.79400451529552 34.36033435868959 25.815529674615725 25.813788527142744
          25.815468205148807 25.795891994600478 25.802229999869535 25.806030673792534 25.80231360438039 25.81204737966976
          25.809831347715544 25.808735214160304 25.81038133931129 25.80975801977228 25.80351940059862 25.80116004444059
          25.811550013169782 25.8138776729593 25.814198122173273 25.796657461885957 25.79256206910889 25.81620533274882
          25.813629472759605 25.817141496727032 25.828517861629145 25.953180633568586 25.920785447419 25.892620956538238
          25.918565859516615 25.807468269021403 25.869404789536894 25.851869965953867 25.82065352069446 25.864456465657483
          25.883951085464645 25.83433514237084 25.925346355251328 25.95612887587081 26.00779843700782 26.056138666731375
          25.876697195194804 25.93159826092667 25.833794688995184 25.83833966132756 25.864531214734967 25.810524851369973
          26.09025051876432 26.156148457591943 25.98649932665853 25.842884633659935 27.433549065511976 27.28260186651198
          27.368072312879818 29.138817863537483 29.07476685503861 28.697749127680133 28.758712475530743 27.138365337838774
          28.96779116411621 28.584911997463365 27.13165466751198 28.320731400321655 28.378607087524003 28.202032830810516
          27.13679520116375 27.015252927943592 28.86873613757854 28.4738366062601 26.882374913427924 28.744069394025853