<?xml version="1.0"?>
<VTKFile type="UnstructuredGrid" version="0.1" byte_order="LittleEndian" header_type="UInt32" compressor="vtkZLibDataCompressor">
  <UnstructuredGrid>
    <Piece NumberOfPoints="644" NumberOfCells="421">
      <PointData>
        <DataArray type="Int32" Name="libmesh_node_id" format="ascii" RangeMin="826" RangeMax="4737">
          826 828 836 1229 1230 1231
          1232 1233 1234 1235 1241 1243
          1244 1245 1246 1253 1254 1258
          1259 1260 1264 1265 2024 2025
          2026 2029 2034 2035 2036 2037
          2038 2039 2040 2041 2042 2043
          2044 2045 2046 2047 2058 2059
          2060 2061 2065 2066 2068 2069
          2070 2071 2072 2073 2074 2075
          2076 2077 2078 2079 2080 2081
          2085 2087 2090 2092 2093 2094
          2095 2096 2097 2098 2099 2100
          2101 2103 2107 2109 2110 2113
          2114 2119 2121 2124 2126 2127
          2128 2129 2130 2131 2132 2133
          2134 2135 2137 2141 2143 2144
          2147 2148 2150 2151 2154 2156
          2157 2159 2174 2175 2176 2181
          2194 2195 2198 2200 2201 2203
          2214 2218 2637 2638 2639 2640
          3642 3643 3644 3645 3646 3647
          3648 3649 3650 3651 3652 3653
          3654 3655 3656 3657 3658 3659
          3660 3661 3662 3663 3664 3665
          3666 3667 3668 3669 3670 3671
          3672 3673 3674 3675 3676 3677
          3678 3679 3680 3681 3682 3683
          3684 3685 3686 3687 3688 3689
          3710 3711 3712 3713 3714 3715
          3716 3717 3718 3719 3720 3721
          3722 3723 3724 3725 3726 3727
          3728 3729 3730 3731 3732 3733
          3734 3735 3736 3737 3738 3739
          3740 3741 3742 3743 3776 3793
          3806 3808 3810 3812 3813 3814
          3815 3816 3817 3818 3819 3820
          3821 3822 3823 3824 3825 3826
          3827 3828 3829 3830 3831 3832
          3833 3834 3835 3836 3837 3838
          3839 3840 3841 3842 3843 3844
          3845 3846 3847 3848 3849 3850
          3851 3852 3853 3854 3855 3856
          3857 3858 3859 3860 3861 3862
          3863 3864 3865 3866 3867 3868
          3869 3870 3871 3872 3873 3874
          3875 3876 3877 3878 3879 3892
          3912 3922 3924 3926 3936 3940
          3942 3943 3944 3945 3946 3947
          3948 3949 3950 3951 3952 3953
          3954 3955 3956 3957 3958 3962
          3966 3967 3970 3972 3976 3977
          3979 3980 3981 3982 3983 3984
          3985 3986 3987 3988 3989 3990
          3991 3992 3993 3994 3997 3998
          4000 4001 4004 4005 4022 4035
          4037 4039 4056 4069 4071 4073
          4075 4076 4077 4078 4079 4080
          4081 4082 4083 4084 4085 4086
          4087 4088 4089 4090 4091 4092
          4093 4094 4095 4096 4097 4098
          4099 4100 4101 4102 4103 4104
          4105 4106 4107 4108 4109 4110
          4111 4112 4113 4114 4115 4116
          4117 4118 4119 4120 4121 4122
          4123 4124 4125 4126 4127 4128
          4129 4130 4131 4132 4133 4134
          4135 4136 4137 4138 4139 4140
          4141 4142 4151 4153 4155 4165
          4169 4179 4181 4183 4193 4197
          4199 4200 4201 4202 4203 4204
          4205 4206 4207 4208 4209 4210
          4211 4212 4213 4214 4217 4218
          4220 4221 4224 4225 4227 4228
          4229 4230 4231 4232 4233 4234
          4235 4236 4237 4238 4239 4240
          4241 4242 4245 4246 4248 4249
          4252 4253 4255 4256 4257 4258
          4259 4260 4261 4262 4263 4264
          4265 4266 4267 4268 4272 4273
          4275 4276 4278 4279 4280 4281
          4282 4283 4284 4285 4286 4287
          4290 4291 4293 4295 4296 4297
          4298 4299 4300 4301 4302 4303
          4304 4305 4306 4307 4310 4312
          4313 4315 4316 4317 4318 4319
          4320 4321 4322 4323 4325 4327
          4329 4412 4413 4414 4415 4416
          4417 4418 4419 4420 4421 4422
          4423 4426 4427 4429 4431 4433
          4435 4439 4440 4443 4449 4452
          4453 4454 4455 4456 4457 4458
          4459 4461 4463 4465 4466 4467
          4470 4471 4473 4477 4548 4549
          4550 4551 4552 4553 4554 4555
          4556 4557 4558 4559 4562 4564
          4565 4567 4568 4569 4570 4571
          4572 4573 4574 4575 4577 4579
          4581 4582 4583 4584 4585 4586
          4587 4588 4589 4590 4591 4592
          4593 4596 4598 4599 4601 4602
          4603 4604 4605 4606 4607 4608
          4609 4611 4613 4615 4684 4685
          4686 4687 4688 4689 4690 4691
          4693 4695 4697 4698 4699 4702
          4703 4705 4709 4712 4713 4714
          4715 4716 4717 4718 4719 4721
          4723 4725 4726 4727 4730 4731
          4733 4737
        </DataArray>
        <DataArray type="Float64" Name="bounds" format="ascii" RangeMin="0" RangeMax="0">
          0 0 0 0 0 0
          0 0 0 0 0 0
          0 0 0 0 0 0
          0 0 0 0 0 0
          0 0 0 0 0 0
          0 0 0 0 0 0
          0 0 0 0 0 0
          0 0 0 0 0 0
          0 0 0 0 0 0
          0 0 0 0 0 0
          0 0 0 0 0 0
          0 0 0 0 0 0
          0 0 0 0 0 0
          0 0 0 0 0 0
          0 0 0 0 0 0
          0 0 0 0 0 0
          0 0 0 0 0 0
          0 0 0 0 0 0
          0 0 0 0 0 0
          0 0 0 0 0 0
          0 0 0 0 0 0
          0 0 0 0 0 0
          0 0 0 0 0 0
          0 0 0 0 0 0
          0 0 0 0 0 0
          0 0 0 0 0 0
          0 0 0 0 0 0
          0 0 0 0 0 0
          0 0 0 0 0 0
          0 0 0 0 0 0
          0 0 0 0 0 0
          0 0 0 0 0 0
          0 0 0 0 0 0
          0 0 0 0 0 0
          0 0 0 0 0 0
          0 0 0 0 0 0
          0 0 0 0 0 0
          0 0 0 0 0 0
          0 0 0 0 0 0
          0 0 0 0 0 0
          0 0 0 0 0 0
          0 0 0 0 0 0
          0 0 0 0 0 0
          0 0 0 0 0 0
          0 0 0 0 0 0
          0 0 0 0 0 0
          0 0 0 0 0 0
          0 0 0 0 0 0
          0 0 0 0 0 0
          0 0 0 0 0 0
          0 0 0 0 0 0
          0 0 0 0 0 0
          0 0 0 0 0 0
          0 0 0 0 0 0
          0 0 0 0 0 0
          0 0 0 0 0 0
          0 0 0 0 0 0
          0 0 0 0 0 0
          0 0 0 0 0 0
          0 0 0 0 0 0
          0 0 0 0 0 0
          0 0 0 0 0 0
          0 0 0 0 0 0
          0 0 0 0 0 0
          0 0 0 0 0 0
          0 0 0 0 0 0
          0 0 0 0 0 0
          0 0 0 0 0 0
          0 0 0 0 0 0
          0 0 0 0 0 0
          0 0 0 0 0 0
          0 0 0 0 0 0
          0 0 0 0 0 0
          0 0 0 0 0 0
          0 0 0 0 0 0
          0 0 0 0 0 0
          0 0 0 0 0 0
          0 0 0 0 0 0
          0 0 0 0 0 0
          0 0 0 0 0 0
          0 0 0 0 0 0
          0 0 0 0 0 0
          0 0 0 0 0 0
          0 0 0 0 0 0
          0 0 0 0 0 0
          0 0 0 0 0 0
          0 0 0 0 0 0
          0 0 0 0 0 0
          0 0 0 0 0 0
          0 0 0 0 0 0
          0 0 0 0 0 0
          0 0 0 0 0 0
          0 0 0 0 0 0
          0 0 0 0 0 0
          0 0 0 0 0 0
          0 0 0 0 0 0
          0 0 0 0 0 0
          0 0 0 0 0 0
          0 0 0 0 0 0
          0 0 0 0 0 0
          0 0 0 0 0 0
          0 0 0 0 0 0
          0 0 0 0 0 0
          0 0 0 0 0 0
          0 0 0 0 0 0
          0 0 0 0 0 0
          0 0 0 0 0 0
          0 0
        </DataArray>
        <DataArray type="Float64" Name="gradient_error" format="ascii" RangeMin="2.94247337488279e-11" RangeMax="1.0842653941761655e-8">
          4.252860393743387e-10 1.6704359280977537e-10 5.5619610721011605e-9 1.1873899425469023e-9 1.0584151065750503e-9 8.639304097855477e-10
          7.64065306048411e-10 3.1968294639580433e-10 2.4924099026717047e-10 2.2105883638697674e-10 2.2810330379962321e-10 9.52719996023865e-11
          8.946694469327029e-11 6.464862213715577e-11 6.08953924505889e-11 1.0808020035531593e-10 8.821602185937202e-11 4.541366455540631e-9
          2.8828863568258885e-9 2.0806468908320894e-9 9.50387901747016e-9 5.488073986795846e-9 5.233032127299378e-10 3.536403261103293e-10
          3.41194281180773e-10 3.055370369470773e-10 2.9091981850634605e-10 2.7951587040940373e-10 1.9236913678626324e-10 1.8486259292499968e-10
          1.4493644119480132e-10 1.018289248969386e-10 9.680004481213623e-11 2.4239903433246085e-10 2.3358211615674436e-10 1.9331653881572407e-10
          3.0335254757057745e-10 2.854901713885818e-10 1.5674302956939921e-10 2.988177500241161e-10 1.958673424301881e-10 3.5099175281218783e-10
          1.0224888837867006e-10 2.5953856548194255e-10 3.7851086628919334e-10 2.7348792402083256e-10 7.297475453676065e-11 7.00681855911371e-11
          9.856781227185289e-11 9.430740415878652e-11 3.360770976567696e-11 9.744946995103529e-11 9.347742084869307e-11 6.326607336106118e-11
          1.222860410719034e-10 8.290511619412029e-11 1.2785460477206663e-10 1.2085506073450772e-10 1.0260805443618448e-10 1.3831111142103947e-10
          1.8011340399699251e-9 1.4926322115862298e-9 5.640104011860919e-9 1.2448654049009192e-9 1.1637933580573542e-9 7.39674723038979e-10
          6.887232950053564e-10 9.511782791380515e-10 5.566495977137001e-10 4.352532431672818e-9 4.036035161659572e-9 2.6585092589938222e-9
          3.2192383618494107e-9 1.0919589199807047e-9 3.19765467646017e-9 6.814032902666087e-10 3.925044200920608e-10 2.2038204891197093e-9
          1.3814675596901103e-9 1.0842653941761655e-8 9.457818524744136e-9 7.174191986485044e-9 9.323380322045257e-9 8.80549003558545e-9
          6.531851790930022e-9 6.101198005264263e-9 7.1497783121419286e-9 4.915767632809499e-9 6.41402141693062e-9 7.522670024734563e-9
          5.792649691840806e-9 7.912064286540184e-9 6.672936299347835e-9 8.117546144927239e-9 4.894888724520477e-9 3.3202535033580057e-9
          5.990137088367143e-9 4.1626195623690394e-9 3.9994841095482084e-10 3.713596410989908e-10 2.9790571283287613e-10 1.7157221208176357e-9
          1.5714628242880845e-9 1.207273178238026e-9 1.426903218801748e-10 2.0786662168051426e-10 6.920387303588039e-11 7.806256031265536e-10
          4.230905710901647e-9 3.9452738529606866e-9 3.1255166451800417e-9 3.766495609885538e-9 3.886889599636526e-9 3.644911300613435e-9
          2.023151701397248e-9 2.631961383410298e-9 5.618785807095679e-11 1.376207017881954e-10 2.94247337488279e-11 6.808451405081166e-11
          1.2560386406603232e-10 1.2391587208146658e-10 1.938375273195829e-10 1.9119514648573783e-10 9.243885649403714e-11 1.4556552433578412e-10
          1.4349615006827074e-10 1.201270532564868e-10 1.837856969686059e-10 1.3800810801422548e-10 3.9818712730545567e-10 3.924624215326646e-10
          2.988709486487255e-10 3.7560209150941295e-10 6.864980763757155e-11 6.7666186397444e-11 1.074379159739169e-10 1.0590879364228503e-10
          4.9557025590011125e-11 7.802334676158861e-11 7.694565288875693e-11 6.634022632292143e-11 1.0188463529046204e-10 7.407394430845318e-11
          2.2725919376767339e-10 2.2382213195229365e-10 1.6448709766403174e-10 2.1345434249861373e-10 1.1599320007056305e-10 1.7194865438301422e-10
          9.099831496246562e-11 1.2869350352177732e-10 1.1133618662828145e-10 1.56521023089505e-10 1.237950016337782e-10 3.4902291700830344e-10
          2.633817267251956e-10 3.1444216716802134e-10 6.956247631466706e-11 9.538817022014163e-11 5.123028036617634e-11 6.972309411529804e-11
          7.31270651408077e-11 9.138674117001242e-11 6.716625862961497e-11 1.955506446536147e-10 1.433242967317414e-10 1.9998303351900127e-10
          1.0814059054466671e-10 1.3915528482018306e-10 9.707123612791647e-11 1.1909747444914218e-10 1.0756898155782389e-10 1.3014720394206556e-10
          1.124050776286717e-10 2.730485916418185e-10 2.391600828632941e-10 2.639235786810784e-10 3.8485776413573994e-11 3.8000040152511834e-11
          5.533774289164244e-11 5.459752133805341e-11 3.4026612060821906e-11 4.544134995500987e-11 4.4846740110506616e-11 3.7098843571465524e-11
          5.2619228279728904e-11 4.320753403360956e-11 1.200198227165956e-10 1.181910520157171e-10 9.766966155177055e-11 1.127002411680507e-10
          3.8148229590179626e-11 4.977626193145099e-11 3.323632573174032e-11 4.1357583793164794e-11 3.9613075928877884e-11 4.817136708790857e-11
          4.055222978511384e-11 1.031821791232657e-10 8.565027839311383e-11 1.0517619911098037e-10 1.6654328472769477e-9 3.2637490982906765e-9
          3.004932610276117e-9 2.6763657745020685e-9 5.1488038121191115e-9 7.998593464905597e-10 7.876734824430856e-10 6.219098288121277e-10
          6.121475017055249e-10 7.524043009590679e-10 5.839254040603343e-10 1.5611463790109204e-9 1.5359214409329156e-9 1.2240511207017556e-9
          1.4627517454220316e-9 4.742695259419357e-10 4.666299328383155e-10 3.546914320723954e-10 3.488594682925076e-10 4.445184409688994e-10
          3.319296884456802e-10 9.7076491308737e-10 9.54012764234981e-10 7.265705301018101e-10 9.055974657756404e-10 6.98154683631846e-10
          5.414410227311159e-10 6.289727502299596e-10 4.875551470598781e-10 1.3485212913592538e-9 1.0698958405692294e-9 1.2035587961368816e-9
          4.111417292331616e-10 3.060742145498235e-10 3.688961198906304e-10 2.734760205143524e-10 8.304125855020341e-10 6.301132045721032e-10
          7.357801257814964e-10 2.9247712134080704e-9 2.874983517215018e-9 2.400997217459476e-9 2.358309234709459e-9 2.7304530541631785e-9
          2.2346586330275047e-9 5.188422638659572e-9 5.091722927536716e-9 4.271067592542506e-9 4.8140975988654405e-9 1.9240884524015663e-9
          1.888533727738349e-9 1.5034605503322117e-9 1.4746797049448208e-9 1.7857271819115987e-9 1.391648994407467e-9 3.5836323120694397e-9
          3.514802981887357e-9 2.825211877214529e-9 3.3157755086858225e-9 2.5049931383704343e-9 2.0426596398238028e-9 2.2196598146482777e-9
          1.8012050960512039e-9 4.389214270637127e-9 3.6732752128857663e-9 3.862070136956019e-9 1.6267072069661309e-9 1.263708101772675e-9
          1.427862985823365e-9 1.1044986731571697e-9 3.0075822512777504e-9 2.401030388383027e-9 2.6215450123166155e-9 1.2965891966066377e-9
          8.923212483897261e-10 2.305625858045219e-9 1.9218831069374626e-9 3.875151664072059e-9 1.551190632203337e-9 2.5493942675836927e-9
          5.492141897222173e-10 4.240172433658991e-10 4.6449216495170986e-10 3.564534311887907e-10 1.040072430487616e-9 8.182041244795383e-10
          8.706619872574572e-10 2.1344442529512993e-10 3.195425772327045e-10 1.5504127349900825e-10 2.3608556220380895e-10 1.7918247412879974e-10
          2.6780148590396153e-10 1.9748305728996072e-10 6.303631445672259e-10 4.752348290974578e-10 5.226060640565496e-10 2.909442966267875e-10
          7.067605675204068e-10 5.500204103897397e-10 2.1828348747283407e-10 1.609452381707412e-10 4.198309176655468e-10 3.140618963728339e-10
          1.899977125641455e-9 1.5326161546215475e-9 1.57186834923226e-9 1.2590997736340449e-9 3.2788787966313096e-9 2.715246866165504e-9
          2.6839378138891515e-9 1.2081234717794658e-9 9.296674383787348e-10 9.860860896088687e-10 7.544194063367218e-10 2.1952984493250855e-9
          1.7301668582648994e-9 1.7669622336275862e-9 1.2578426230286523e-9 9.997224421546674e-10 2.118559822993651e-9 1.7228308769305235e-9
          7.775034679640072e-10 5.912404723760219e-10 1.3685478308648726e-9 1.060721981476666e-9 8.892379835372395e-9 8.123291493456293e-9
          7.126815407695096e-9 1.0359851061484084e-8 9.086657763434783e-9 9.758468974707376e-9 9.916162860783941e-9 8.590397989193177e-9
          8.363558145570053e-9 8.207892914729295e-9 7.139027666219602e-9 6.998065253889845e-9 7.752474472523842e-9 6.592197663978298e-9
          1.0334618193209102e-8 1.0252168680140378e-8 9.198503066164634e-9 9.957036648177533e-9 5.9429923554123675e-9 5.8253211995224346e-9
          4.8591451696326205e-9 4.7630724747228214e-9 5.486838788919162e-9 4.4854318272660895e-9 7.971691088451342e-9 7.838660612305485e-9
          6.422968613828331e-9 7.4397789874747044e-9 7.040074522438095e-9 5.970034618360691e-9 6.14711856893267e-9 5.203120073298651e-9
          9.340149035738108e-9 8.113820357464425e-9 8.352320241859594e-9 4.967599068570429e-9 4.0554139536763e-9 4.323170519471463e-9
          3.5149871397421394e-9 6.798705992045046e-9 5.585861446204074e-9 5.97463357825081e-9 8.132838170436564e-9 8.37767266179665e-9
          8.17055040536098e-9 8.310658633269126e-9 8.934951228541524e-9 8.548458587698174e-9 5.739376266013526e-9 6.210368632972755e-9
          6.767929234675167e-9 7.369034285107112e-9 7.564899427049224e-9 7.590979655284492e-9 6.332222923690998e-9 6.3242016836873604e-9
          7.557553554677061e-9 6.2427458045402894e-9 6.452030531168802e-9 6.624483450894076e-9 5.647484705865117e-9 6.937492368341883e-9
          9.326357457531537e-9 8.509508927781657e-9 9.09024246150548e-9 7.948910341035092e-9 8.513248683153706e-9 8.052930834186386e-9
          8.908910365942465e-9 7.272506883820881e-9 5.981274265224388e-9 6.665901216823891e-9 5.493577514889865e-9 7.0126206943499275e-9
          5.780498306528903e-9 6.6625929096419604e-9 6.014728634312032e-9 4.904356206468156e-9 8.16100830056296e-9 3.870323348519144e-9
          5.243328711593927e-9 9.21283171968093e-9 7.806991824665769e-9 9.316749521096293e-9 6.1984454114017285e-9 6.509004104050522e-9
          5.171697674905404e-9 4.367090484567795e-9 4.199912993009963e-9 3.5250392930473954e-9 7.093989208691256e-9 6.033225109114389e-9
          5.764344083405903e-9 3.6117620890426066e-9 2.914857281246342e-9 2.890656989149783e-9 2.3103490423824496e-9 5.044071861488744e-9
          4.140737880051532e-9 4.078372979405359e-9 3.286883339095391e-9 2.7310781857778576e-9 4.512736268027488e-9 3.809212776618471e-9
          2.2153366688256647e-9 1.751419622362216e-9 3.1429302704414665e-9 2.5274772926210328e-9 8.13310451194903e-9 6.943928119767592e-9
          6.762852802855967e-9 5.755819650814767e-9 8.306178928627916e-9 7.1137735372170484e-9 7.040842196136313e-9 5.812668178867415e-9
          4.807825453748644e-9 4.8289822172458306e-9 3.978357561043789e-9 5.951281297787142e-9 4.9295510628282736e-9 5.031988535509098e-9
          5.35799369394208e-9 4.5583544821996744e-9 5.628545001403494e-9 4.797847251339625e-9 3.801344519819997e-9 3.092416441188442e-9
          4.015381665802383e-9 3.2802042848842674e-9 2.607614101066788e-10 2.5642034628030686e-10 1.874215427160387e-10 1.8428022538817976e-10
          2.437641917773498e-10 1.7509007055926613e-10 5.503797715556591e-10 5.404154780092397e-10 3.925880551438216e-10 5.116577292545059e-10
          8.256232495939968e-11 8.125499182070645e-11 1.3076425331050035e-10 1.2856076651866598e-10 7.736842558249059e-11 1.2213744319268284e-10
          2.8400090258002785e-10 2.7871352020447385e-10 2.6347170127665256e-10 2.241284762540595e-10 1.606986727414915e-10 1.993828550978025e-10
          1.4258523584631732e-10 4.672517050099087e-10 3.386486344127759e-10 4.1179341928338233e-10 7.121358291906253e-11 1.1212591871264434e-10
          6.345646755353435e-11 9.955329234770767e-11 2.4001139898635014e-10 2.108470239019924e-10 1.1444806732183725e-9 1.1218941003064681e-9
          8.482721554561938e-10 8.31080066295375e-10 1.0568275277025054e-9 7.816441569884201e-10 2.256743034638334e-9 2.209540897964142e-9
          1.6784777725486071e-9 2.0735871850106663e-9 6.122158073484576e-10 5.995530086201745e-10 5.631900392321343e-10 1.2661691688339742e-9
          1.2377802864749614e-9 1.1563848998617763e-9 9.568637360426253e-10 7.059527088514371e-10 8.330810465088136e-10 6.126599128802993e-10
          1.8649248596991097e-9 1.4079425109373276e-9 1.6072410711139324e-9 5.076572490792092e-10 4.3945202484129267e-10 1.0325435541825924e-9
          8.815096662310528e-10 1.1153178751484609e-10 1.7156341164733636e-10 7.917860853919713e-11 1.224754933944728e-10 9.349991676468432e-11
          1.4323783455981898e-10 1.021218549832135e-10 3.5056809664021e-10 2.530604165039441e-10 2.886476496275946e-10 5.484586903535174e-11
          8.559922807304774e-11 4.61306744351894e-11 7.141557519547005e-11 1.7882241948497764e-10 1.4662791434217553e-10 1.1655701960650152e-10
          8.29365510671307e-11 2.3022204108480792e-10 1.6536451016551596e-10 5.795090731066749e-11 1.1640984608156877e-10 6.980437877368661e-10
          5.11440707453194e-10 5.636663350968696e-10 4.1131456228155887e-10 1.327691987899137e-9 9.913457279444346e-10 1.0522697820580936e-9
          3.6576943171704054e-10 2.932305577749759e-10 7.202169248719626e-10 5.641085313468369e-10 4.3948150511642784e-10 3.193486185842596e-10
          8.017187391475283e-10 5.908461968680273e-10 2.2692053615891543e-10 4.246915177364616e-10 3.900209800765367e-9 3.821040556144293e-9
          3.050858521169109e-9 2.985551453052513e-9 3.5912010479006066e-9 2.796566111560013e-9 5.285293580249509e-9 5.199376296247384e-9
          4.15943310063632e-9 4.943830165750961e-9 2.3115624965661315e-9 2.2596070598420382e-9 2.1098587428005227e-9 3.3006293880397986e-9
          3.2394659588582004e-9 3.057654780595943e-9 3.2333451624497865e-9 2.504359984048059e-9 2.7838522618495438e-9 2.1410908001294256e-9
          4.527718702389793e-9 3.5937308251451524e-9 3.972209790372824e-9 1.8799853180118152e-9 1.5968782152438218e-9 2.7640513309516933e-9
          2.3814063770566854e-9 5.152179648206367e-9 5.1439615118366276e-9 4.203559601713162e-9 4.194711688255369e-9 5.079101032319535e-9
          4.134711827912674e-9 4.562580355643086e-9 4.622780583186021e-9 3.811577951077813e-9 4.726376570019616e-9 3.398513420115378e-9
          3.380400472584541e-9 3.302144854201459e-9 3.1219507108139337e-9 3.143068092234862e-9 3.1622709698023622e-9 4.8794429578487495e-9
          3.953553032244959e-9 4.490996899061652e-9 3.602856550358156e-9 4.7228100670190105e-9 3.864748858119007e-9 4.5027380939523435e-9
          3.1164949096399093e-9 2.7984680040430313e-9 3.088100639726822e-9 2.8577204710187107e-9 2.2889361927303792e-9 1.7459150375866455e-9
          1.7967014037051416e-9 1.3579638205810466e-9 3.318681975458316e-9 2.582957223933622e-9 2.6304769964931323e-9 1.2923217965794248e-9
          9.970607198961282e-10 1.9476186781796483e-9 1.5089118162470553e-9 1.3478992759773266e-9 1.0091589286280155e-9 1.9769712312634344e-9
          1.5021418441766943e-9 7.350121646573434e-10 1.108216759830096e-9 3.910055283317256e-9 3.0929187881242905e-9 3.194654678222871e-9
          2.489387929191104e-9 4.0317814433535045e-9 3.2115947078140067e-9 3.3602317300470775e-9 2.367768633038311e-9 1.879401118565576e-9
          2.47475626470712e-9 1.996788744556976e-9 2.4464772695896854e-9 1.878905900623734e-9 2.605920375462673e-9 2.009443663350872e-9
          1.3996546341662585e-9 1.5024828028768633e-9
        </DataArray>
        <DataArray type="Float64" Name="gradient_matprop_error" format="ascii" RangeMin="0" RangeMax="0">
          0 0 0 0 0 0
          0 0 0 0 0 0
          0 0 0 0 0 0
          0 0 0 0 0 0
          0 0 0 0 0 0
          0 0 0 0 0 0
          0 0 0 0 0 0
          0 0 0 0 0 0
          0 0 0 0 0 0
          0 0 0 0 0 0
          0 0 0 0 0 0
          0 0 0 0 0 0
          0 0 0 0 0 0
          0 0 0 0 0 0
          0 0 0 0 0 0
          0 0 0 0 0 0
          0 0 0 0 0 0
          0 0 0 0 0 0
          0 0 0 0 0 0
          0 0 0 0 0 0
          0 0 0 0 0 0
          0 0 0 0 0 0
          0 0 0 0 0 0
          0 0 0 0 0 0
          0 0 0 0 0 0
          0 0 0 0 0 0
          0 0 0 0 0 0
          0 0 0 0 0 0
          0 0 0 0 0 0
          0 0 0 0 0 0
          0 0 0 0 0 0
          0 0 0 0 0 0
          0 0 0 0 0 0
          0 0 0 0 0 0
          0 0 0 0 0 0
          0 0 0 0 0 0
          0 0 0 0 0 0
          0 0 0 0 0 0
          0 0 0 0 0 0
          0 0 0 0 0 0
          0 0 0 0 0 0
          0 0 0 0 0 0
          0 0 0 0 0 0
          0 0 0 0 0 0
          0 0 0 0 0 0
          0 0 0 0 0 0
          0 0 0 0 0 0
          0 0 0 0 0 0
          0 0 0 0 0 0
          0 0 0 0 0 0
          0 0 0 0 0 0
          0 0 0 0 0 0
          0 0 0 0 0 0
          0 0 0 0 0 0
          0 0 0 0 0 0
          0 0 0 0 0 0
          0 0 0 0 0 0
          0 0 0 0 0 0
          0 0 0 0 0 0
          0 0 0 0 0 0
          0 0 0 0 0 0
          0 0 0 0 0 0
          0 0 0 0 0 0
          0 0 0 0 0 0
          0 0 0 0 0 0
          0 0 0 0 0 0
          0 0 0 0 0 0
          0 0 0 0 0 0
          0 0 0 0 0 0
          0 0 0 0 0 0
          0 0 0 0 0 0
          0 0 0 0 0 0
          0 0 0 0 0 0
          0 0 0 0 0 0
          0 0 0 0 0 0
          0 0 0 0 0 0
          0 0 0 0 0 0
          0 0 0 0 0 0
          0 0 0 0 0 0
          0 0 0 0 0 0
          0 0 0 0 0 0
          0 0 0 0 0 0
          0 0 0 0 0 0
          0 0 0 0 0 0
          0 0 0 0 0 0
          0 0 0 0 0 0
          0 0 0 0 0 0
          0 0 0 0 0 0
          0 0 0 0 0 0
          0 0 0 0 0 0
          0 0 0 0 0 0
          0 0 0 0 0 0
          0 0 0 0 0 0
          0 0 0 0 0 0
          0 0 0 0 0 0
          0 0 0 0 0 0
          0 0 0 0 0 0
          0 0 0 0 0 0
          0 0 0 0 0 0
          0 0 0 0 0 0
          0 0 0 0 0 0
          0 0 0 0 0 0
          0 0 0 0 0 0
          0 0 0 0 0 0
          0 0 0 0 0 0
          0 0 0 0 0 0
          0 0 0 0 0 0
          0 0
        </DataArray>
        <DataArray type="Float64" Name="initial_marker" format="ascii" RangeMin="0" RangeMax="2">
          0 2 2 0 0 0
          0 0 0 0 1.25 0
          0 0 0 1 1 2
          2 2 2 2 0 0
          0 0 0 0 0 0
          0 0 0 0 0 0
          2 2 2 1.75 0 0
          0 0 1 1 0 0
          0 0 0 0 0 0
          0 0 1.5 1.25 1 1
          2 2 2 2 2 2
          2 2 2 2 2 2
          2 2 2 2 2 2
          2 2 2 2 2 2
          2 2 2 2 2 2
          2 2 2 2 2 2
          2 2 2 2 2 2
          2 2 1 2 0.75 2
          2 2 2 2 2 2
          2 2 0 0 0 0
          0 0 1 1 0 1
          1 0 1 1 2 2
          2 2 0 0 1 1
          0 1 1 0 1 1
          2 2 2 2 0 1
          0 1 0 1 1 2
          2 2 0 1 0 0.75
          0 1 0.5 2 1.75 2
          0 0.5 0 0.5 0 0
          0 1.5 1.6666666666666667 1.3333333333333333 0 0
          1 1 0 1 1 0
          0.75 0.5 2 2 2 1.75
          0 0.25 0 0 0 0
          0 1.25 1.3333333333333333 1.3333333333333333 2 2
          2 2 2 2 2 2
          2 2 2 2 2 2
          2 2 2 2 2 2
          2 2 2 2 2 2
          2 2 2 2 2 2
          2 2 2 2 2 2
          2 2 2 2 2 2
          2 2 2 2 2 2
          2 2 2 2 2 2
          2 2 2 2 2 2
          2 2 2 2 2 2
          2 2 2 2 2 2
          2 2 2 2 2 2
          2 2 2 2 2 2
          2 2 2 2 2 2
          2 2 2 2 2 2
          2 2 2 2 2 2
          2 2 2 2 2 2
          2 2 2 2 2 2
          2 2 2 2 2 2
          2 2 2 2 2 2
          2 2 2 2 2 2
          2 2 2 2 2 2
          2 2 2 2 2 2
          2 2 2 2 2 2
          2 2 2 2 2 2
          2 2 2 2 2 2
          2 2 2 2 2 2
          2 2 2 2 2 2
          2 2 2 2 2 2
          2 2 2 2 2 2
          2 2 2 2 2 2
          2 2 2 2 2 2
          2 2 2 2 2 2
          2 2 2 2 2 2
          2 2 2 2 2 2
          2 2 2 2 2 2
          2 2 2 2 2 2
          2 2 2 2 2 2
          2 2 2 2 2 2
          2 2 2 2 2 2
          2 2 2 2 2 2
          2 2 2 2 2 2
          2 2 2 2 2 2
          2 2 2 2 2 2
          2 2 2 2 2 2
          2 2 2 2 2 2
          2 2 2 2 2 2
          2 2 2 2 2 2
          2 2 2 2 2 2
          2 2 2 2 2 2
          2 2 2 2 2 2
          2 2 2 2 2 2
          2 2 2 2 2 2
          2 2 2 2 2 2
          1.75 2 2 1.5 2 2
          2 2 2 2 2 2
          2 2 2 2 2 2
          2 2 2 2 2 2
          2 2 2 2 2 2
          2 2 2 2 2 2
          2 2 2 2 2 2
          2 2 2 2 2 2
          2 2 2 2 2 2
          2 2 2 2 2 2
          2 2 2 2 2 2
          2 2 2 2 2 2
          2 2 2 2 2 2
          2 2 2 2 2 2
          2 2 2 2 2 2
          2 2 2 2 2 2
          2 2 2 2 2 2
          2 2 2 2 2 2
          2 2
        </DataArray>
        <DataArray type="Float64" Name="markers_norefine" format="ascii" RangeMin="0" RangeMax="2">
          0 0 0 0 0 0
          0 0 0 0 0 0
          0 0 0 0 0 0
          0 0 0.5 0 0 0
          0 0 0 0 0 0
          0 0 0 0 0 0
          0 0 0 0 0 0
          0 0 0 0 0 0
          0 0 0 0 0 0
          0 0 0 0 0 0
          0 0 0 0 0 0
          0 0 0 0 0 0
          0 0 0 0 0 0
          0 0.25 0 2 0 0
          0 0 0 0 1 0
          0 0 0 0 0 0
          0 0 0 0 0 0
          0 0 0 0 0 0
          0 0 0 0 0 0
          0 0 0 0 0 0
          0 0 0 0 0 0
          0 0 0 0 0 0
          0 0 0 0 0 0
          0 0 0 0 0 0
          0 0 0 0 0 0
          0 0 0 0 0 0
          0 0 0 0 0 0
          0 0 0 0 0 0
          0 0 0 0 0 0
          0 0 0 0 0 0
          0 0 0 0 0 0
          0 0 0 0 0 0
          0 0 0 0 0 0
          0 0 0 0 0 0
          0 0 0 0 0 0
          0 0 0 0 0 0
          0 0 0 0 0 0
          0 0 0 0 0 0
          0 0 0 0 0 0
          0 0 0 0 0 0
          0 0 0 0 0 0
          0 0 0 0 0 0
          0 0 0 0 0 0
          0 0 0 0 0 0
          0 0 0 0 0 0
          0 0 0 0 0 0
          0 0 0 0 0 0
          0 0 0 0 0 0
          0 0 0 0 0 0
          0 0 0 0 0 0
          0 0 0 0 0 0
          0 0 0 0 0 0
          0 0 0 0 0 0
          0 0 0 0 0 0
          0 0 0 0 0 0
          0 0 1.25 0.75 0.25 1.5
          0 0 0 0 0 0
          0 0 0 0 0 0
          0 0 0 0 0 0
          0 0 0 0 0 0
          0 0 0 0 0 0
          0 0 0 0 1 0.75
          0.5 0.25 0.5 0 2 1.5
          0.5 1 0 0 0 0
          0 0 0 0 0 0
          0.25 0 0 0 0.5 0
          0 0 0 0 0 0
          0 0 0 0 0 0
          0 0 0 0 0 0
          0 0 0 0 0 0
          0 0 0 0 0 0
          0 0 0 0 0 0
          0 0 0 0 0 0
          0 0 0 0 0 0
          0 0 0 0 0 0
          0 0 0 0 0 0
          0 0 0 0 0 0
          0 0 0 0 0 0
          0 0 0 0 0 0
          0 0 0 0 0 0
          0 0 0 0 0 0
          0 0 0 0 0 0
          0 0 0 0 0 0
          0 0 0 0 0 0
          0 0 0 0 0 0
          0 0 0 0 0 0
          0 0 0 0 0 0
          0 0 0 0 0 0
          0 0 0 0 0 0
          0 0 0 0 0 0
          0 0 0 0 0 0
          0 0 0 0 0 0
          0 0 0 0 0 0
          0 0 0 0 0 0
          0 0 0 0 0 0
          0 0 0 0 0 0
          0 0 0 0 0 0
          0 0 0 0 0 0
          0 0 0 0 0 0
          0 0 0 0 0 0
          0 0 0 0 0 0
          0 0 0 0 0 0
          0 0 0 0 0 0
          0 0 0 0 0 0
          0 0 0 0 0 0
          0 0 0 0 0 0
          0 0 0 0 0 0