<?xml version="1.0"?>
<VTKFile type="UnstructuredGrid" version="0.1" byte_order="LittleEndian" header_type="UInt32" compressor="vtkZLibDataCompressor">
  <UnstructuredGrid>
    <Piece NumberOfPoints="774" NumberOfCells="399">
      <PointData>
        <DataArray type="Int32" Name="libmesh_node_id" format="ascii" RangeMin="402" RangeMax="6397">
          402 403 404 405 406 407
          408 409 410 411 425 426
          427 428 429 441 442 443
          444 445 466 467 468 469
          470 471 472 473 474 475
          476 477 478 479 489 490
          491 492 493 494 495 505
          506 507 508 509 510 511
          530 531 532 533 534 535
          536 537 538 539 540 541
          542 543 553 554 555 556
          557 558 559 569 570 571
          572 573 574 575 595 598
          599 600 601 602 603 604
          605 606 607 617 618 619
          620 621 622 623 633 634
          635 636 637 638 639 663
          665 666 667 668 669 670
          671 681 682 683 684 685
          686 687 697 698 699 700
          701 702 703 711 717 741
          743 746 749 751 752 755
          756 757 758 759 760 763
          764 835 854 855 856 857
          860 861 864 865 866 867
          868 869 872 873 874 875
          876 877 878 879 880 881
          882 883 884 885 886 887
          888 889 890 891 892 893
          895 896 898 899 900 901
          903 905 906 908 909 910
          911 912 914 915 916 917
          918 919 920 921 922 923
          924 925 974 975 978 981
          983 996 997 998 1000 1002
          1008 1011 1013 1018 1019 1020
          1021 1022 1023 1024 1025 1026
          1027 1276 1290 1293 1294 1295
          1345 1346 1347 1348 1349 1350
          1351 1352 1353 1354 1385 1386
          1389 1392 1393 1394 1484 1486
          1511 1512 1513 1580 1581 1582
          1583 1584 1585 1586 1587 1602
          1603 1604 1605 1606 1607 1608
          1609 1610 1611 2217 2223 2227
          2311 2312 2313 2314 2315 2326
          2327 2328 2329 2330 2331 2332
          2333 2334 2335 2337 2339 2341
          2343 2344 2345 2346 2347 2348
          2349 2351 2355 2357 2358 2359
          2360 2361 2362 2363 2528 2529
          2532 2533 2535 2537 2668 2669
          2670 2671 2672 2673 2674 2771
          2772 2773 2776 2777 2778 2779
          2780 2781 2782 2783 2784 2785
          2786 4736 4760 4784 4785 4788
          5285 5295 5296 5297 5298 5299
          5300 5301 5302 5303 5304 5305
          5306 5307 5308 5309 5310 5311
          5312 5313 5314 5315 5336 5337
          5338 5339 5340 5341 5342 5343
          5344 5345 5358 5370 5372 5382
          5384 5386 5396 5398 5400 5404
          5405 5406 5407 5408 5411 5412
          5415 5416 5417 5418 5419 5420
          5421 5422 5423 5424 5425 5426
          5427 5428 5429 5430 5431 5432
          5433 5434 5435 5436 5439 5440
          5443 5444 5445 5446 5447 5448
          5449 5450 5451 5452 5453 5454
          5455 5456 5457 5466 5468 5470
          5500 5502 5504 5520 5521 5522
          5523 5524 5525 5526 5527 5528
          5529 5530 5531 5532 5533 5534
          5535 5536 5537 5538 5539 5540
          5541 5542 5543 5544 5545 5546
          5547 5548 5549 5550 5551 5552
          5553 5554 5555 5556 5557 5558
          5559 5560 6254 6256 6258 6259
          6260 6263 6290 6294 6321 6325
          6381 6382 6383 6384 6385 6386
          6387 6388 6389 6390 6391 6392
          6393 6394 6395 6396 6397 597
          738 744 740 745 753 754
          762 858 859 862 863 724
          730 727 870 871 737 664
          731 894 732 897 902 904
          907 750 913 968 969 976
          977 970 979 980 982 973
          826 742 830 827 833 994
          834 995 986 987 999 990
          1001 1003 1004 1005 1006 1009
          1010 1007 844 846 1012 849
          1015 1016 1017 847 848 853
          1387 1388 1390 1391 841 1475
          1480 1476 1481 1485 1479 1482
          1483 1287 1289 1291 1507 1508
          1509 1510 1325 1329 1327 1578
          1292 1579 1570 1571 1574 1576
          1330 1331 1334 2298 2306 2310
          2299 2307 2302 2308 2309 2318
          2319 2322 2324 2353 2494 2498
          2495 2499 2503 1326 2530 2516
          2517 2531 2534 2520 1332 2536
          2500 2759 2767 2760 2768 2763
          2769 2770 2765 2774 2775 1296
          4705 4706 4708 4707 4709 4710
          4711 4733 4734 4735 4737 4738
          4739 4754 4756 4758 4755 4757
          4759 4761 4763 4765 4767 4782
          4783 4786 4787 4789 4791 4793
          4795 5246 5279 5281 5248 5250
          5283 2304 5280 5282 5284 5287
          5291 5293 5289 5292 5294 5278
          5261 5262 5265 5267 1288 5290
          5328 5329 5332 5334 5354 5353
          5357 5356 5355 5359 5266 5268
          5367 5368 5369 5371 5373 5381
          5383 5385 5387 5395 5397 5399
          5401 5402 5403 5409 5410 5413
          5414 5437 5438 5441 5442 5333
          5465 5335 5467 5469 5471 5484
          5482 5485 5483 5490 5489 5499
          5501 5503 5505 5514 5513 5518
          5517 5516 6235 6239 6241 6243
          6238 6255 6240 6257 6261 6262
          6274 6276 6278 6280 6288 6289
          6291 6292 6293 6305 6307 6309
          6311 6319 6320 6322 6323 6324
        </DataArray>
        <DataArray type="Float64" Name="bounds" format="ascii" RangeMin="0" RangeMax="0">
          0 0 0 0 0 0
          0 0 0 0 0 0
          0 0 0 0 0 0
          0 0 0 0 0 0
          0 0 0 0 0 0
          0 0 0 0 0 0
          0 0 0 0 0 0
          0 0 0 0 0 0
          0 0 0 0 0 0
          0 0 0 0 0 0
          0 0 0 0 0 0
          0 0 0 0 0 0
          0 0 0 0 0 0
          0 0 0 0 0 0
          0 0 0 0 0 0
          0 0 0 0 0 0
          0 0 0 0 0 0
          0 0 0 0 0 0
          0 0 0 0 0 0
          0 0 0 0 0 0
          0 0 0 0 0 0
          0 0 0 0 0 0
          0 0 0 0 0 0
          0 0 0 0 0 0
          0 0 0 0 0 0
          0 0 0 0 0 0
          0 0 0 0 0 0
          0 0 0 0 0 0
          0 0 0 0 0 0
          0 0 0 0 0 0
          0 0 0 0 0 0
          0 0 0 0 0 0
          0 0 0 0 0 0
          0 0 0 0 0 0
          0 0 0 0 0 0
          0 0 0 0 0 0
          0 0 0 0 0 0
          0 0 0 0 0 0
          0 0 0 0 0 0
          0 0 0 0 0 0
          0 0 0 0 0 0
          0 0 0 0 0 0
          0 0 0 0 0 0
          0 0 0 0 0 0
          0 0 0 0 0 0
          0 0 0 0 0 0
          0 0 0 0 0 0
          0 0 0 0 0 0
          0 0 0 0 0 0
          0 0 0 0 0 0
          0 0 0 0 0 0
          0 0 0 0 0 0
          0 0 0 0 0 0
          0 0 0 0 0 0
          0 0 0 0 0 0
          0 0 0 0 0 0
          0 0 0 0 0 0
          0 0 0 0 0 0
          0 0 0 0 0 0
          0 0 0 0 0 0
          0 0 0 0 0 0
          0 0 0 0 0 0
          0 0 0 0 0 0
          0 0 0 0 0 0
          0 0 0 0 0 0
          0 0 0 0 0 0
          0 0 0 0 0 0
          0 0 0 0 0 0
          0 0 0 0 0 0
          0 0 0 0 0 0
          0 0 0 0 0 0
          0 0 0 0 0 0
          0 0 0 0 0 0
          0 0 0 0 0 0
          0 0 0 0 0 0
          0 0 0 0 0 0
          0 0 0 0 0 0
          0 0 0 0 0 0
          0 0 0 0 0 0
          0 0 0 0 0 0
          0 0 0 0 0 0
          0 0 0 0 0 0
          0 0 0 0 0 0
          0 0 0 0 0 0
          0 0 0 0 0 0
          0 0 0 0 0 0
          0 0 0 0 0 0
          0 0 0 0 0 0
          0 0 0 0 0 0
          0 0 0 0 0 0
          0 0 0 0 0 0
          0 0 0 0 0 0
          0 0 0 0 0 0
          0 0 0 0 0 0
          0 0 0 0 0 0
          0 0 0 0 0 0
          0 0 0 0 0 0
          0 0 0 0 0 0
          0 0 0 0 0 0
          0 0 0 0 0 0
          0 0 0 0 0 0
          0 0 0 0 0 0
          0 0 0 0 0 0
          0 0 0 0 0 0
          0 0 0 0 0 0
          0 0 0 0 0 0
          0 0 0 0 0 0
          0 0 0 0 0 0
          0 0 0 0 0 0
          0 0 0 0 0 0
          0 0 0 0 0 0
          0 0 0 0 0 0
          0 0 0 0 0 0
          0 0 0 0 0 0
          0 0 0 0 0 0
          0 0 0 0 0 0
          0 0 0 0 0 0
          0 0 0 0 0 0
          0 0 0 0 0 0
          0 0 0 0 0 0
          0 0 0 0 0 0
          0 0 0 0 0 0
          0 0 0 0 0 0
          0 0 0 0 0 0
          0 0 0 0 0 0
          0 0 0 0 0 0
          0 0 0 0 0 0
          0 0 0 0 0 0
          0 0 0 0 0 0
        </DataArray>
        <DataArray type="Float64" Name="gradient_error" format="ascii" RangeMin="6.703329404972887e-13" RangeMax="8.92320491170306e-8">
          3.1521800137659253e-10 1.78383509303932e-10 1.0913818127597087e-10 6.265336441051087e-11 1.2071109296450523e-11 1.2117650071524268e-11
          7.696654773518922e-12 7.752904763991311e-12 7.282823117148953e-12 7.34200511928624e-12 3.0503266684491514e-11 1.3117070881715856e-11
          1.0487857727810155e-11 7.614956490278368e-12 7.398870037244029e-12 1.9457516137711604e-11 1.0065594218380842e-11 8.811524609022296e-12
          7.420758226093035e-12 7.396552953064527e-12 1.360137035140269e-9 7.472331138226209e-10 4.795410494767844e-10 2.6457222236421734e-10
          3.808559614834192e-11 3.298434182139724e-11 8.283839583657539e-12 8.329950429886332e-12 7.117937235639841e-12 7.1497170075313186e-12
          7.414171949932142e-12 7.430711802450948e-12 7.466884269074802e-12 7.482084731446366e-12 1.0370628065376656e-10 3.637672832649866e-11
          2.1860999410023036e-11 7.89695599596552e-12 7.343410950852489e-12 7.49923696391925e-12 7.52936649093922e-12 7.308336880256029e-11
          2.3150061401346956e-11 1.5838911325593506e-11 7.417850715815913e-12 7.505325122282184e-12 7.551222272868744e-12 7.561447788060509e-12
          4.106734011300868e-9 2.007092609906065e-9 6.318831227566584e-10 5.57732958910584e-10 3.744258223500866e-11 1.143276565481601e-10
          8.518481317770175e-12 1.3183008347194019e-11 9.254781242627064e-12 9.236330126066414e-12 8.10246127659495e-12 8.091038218421008e-12
          7.985895975112513e-12 7.965840969613167e-12 8.964958909844697e-10 3.5511372742209363e-10 1.2228896582749858e-10 1.3764217518497427e-11
          8.646830658857737e-12 7.924268213422705e-12 7.828495562618494e-12 4.3496096119847273e-10 1.408058556472574e-10 5.7940059888377035e-11
          1.0092338607328158e-11 8.07578230820971e-12 7.768921266598345e-12 7.711205161123163e-12 4.717616023965328e-8 2.9362852529446406e-11
          3.720777505685974e-10 7.599483753547801e-12 1.9876296830413022e-11 7.240876714855686e-12 1.1151620306962536e-11 6.6727065286805415e-12
          6.729680646527622e-12 6.190585915509295e-12 6.219734150683683e-12 1.4763283365918015e-9 5.042792676996316e-10 1.5599946716083797e-10
          1.8910281083389557e-11 1.113100732173931e-11 6.497044347729136e-12 6.042550519450128e-12 9.289128674045786e-10 3.5819584835012487e-10
          1.0480497732012e-10 1.354980805728842e-11 7.657612633554269e-12 6.207433931083568e-12 5.836218653042184e-12 6.973995526736083e-10
          2.7258241996265352e-11 2.9893442809437357e-12 1.141068254011919e-11 4.743164068337044e-12 4.8531273083434465e-12 4.089222466854449e-12
          4.174175512729151e-12 2.743880685668456e-9 5.0192640664002e-10 1.603237484918531e-10 2.323332075249963e-11 1.222425821321786e-11
          4.7640286979069405e-12 4.108892267332309e-12 1.1053552538291617e-9 4.686015053181152e-10 1.1512937812088168e-10 1.4286834526075091e-11
          6.757433318326087e-12 4.564966847464032e-12 3.958655976060764e-12 5.3146715430523664e-8 8.92320491170306e-8 1.8022773542260856e-10
          2.5955225966110393e-10 6.023923942376321e-10 3.209915236493024e-11 8.258648525043393e-12 3.881362271775379e-11 8.802387594991489e-12
          3.786109303710775e-12 1.1340552687135434e-11 7.29218513207197e-11 1.0105549028690322e-10 2.250685293716354e-11 1.2400162073591298e-11
          1.0279801825341367e-10 1.1727113262695437e-10 2.034442063632223e-9 1.6647503063637711e-9 4.556562090684879e-9 1.8454278713913703e-8
          1.4818072717625499e-8 3.9443778404328724e-10 1.2950585490953194e-9 4.573123626816794e-9 1.1181866721337295e-8 1.0134625049843105e-9
          5.038984646764427e-11 6.044626144505892e-11 1.6860719717297712e-11 2.5211940773075463e-11 3.389714738212135e-11 7.050267642247356e-11
          1.1551781031660345e-10 4.258235399116726e-11 1.6855345815551028e-12 2.717778866462758e-12 1.668525926373806e-12 3.5610008922511493e-12
          1.6750067672168253e-12 6.703329404972887e-13 2.1987636752348344e-12 3.7500231513704125e-12 5.4534758581284926e-12 3.72719440997238e-12
          1.6515172711925093e-12 4.4042229180395406e-12 2.722520583252843e-12 7.156928564886571e-12 6.384716951687396e-9 1.178055304090216e-8
          3.570614367053284e-8 3.1005383559337396e-9 6.146659764922924e-10 1.1765273874580453e-9 2.9607576491345272e-9 3.874708303599705e-10
          5.96317343001635e-8 1.738388798423798e-9 1.1866001674814978e-9 2.9788053114137105e-10 4.842344167001262e-10 1.2643796396253427e-10
          2.509113912403256e-10 1.4348050027837888e-10 6.705883022588815e-10 3.753848185181169e-10 5.89392379319674e-11 9.047665361815585e-11
          2.0096530305288344e-11 2.715328090358181e-11 3.4015045456289555e-11 5.679224765327799e-11 2.4440158173506913e-11 1.2201406930434432e-10
          3.421003150187527e-11 7.956944985026642e-11 4.817941322514753e-11 5.932840655546159e-11 3.115640776291796e-11 7.047739988577563e-11
          6.762326092789658e-11 2.618054695822083e-10 2.0603362261656254e-10 7.020215176801884e-10 2.2070743509650164e-10 1.4856379829363328e-10
          1.103144673718931e-12 1.4147780572305467e-12 1.2879433490704297e-12 4.7808758968351516e-11 4.26859379308821e-11 3.068563314329497e-11
          2.948370444882554e-11 4.5947477855865276e-11 5.494046152448394e-11 3.933888762982689e-11 3.699013960538518e-11 2.8281775754356118e-11
          6.393344519310261e-11 7.597889162246673e-10 1.4467632937131603e-11 3.22245701865444e-11 1.173124633033517e-10 2.21513234009498e-11
          2.688917480863207e-12 3.8493059779838206e-12 6.419574701437416e-12 7.786139514986618e-12 3.043159523819727e-12 3.633884601611463e-12
          4.4197369976849115e-12 5.009694475104433e-12 9.15270432853582e-12 5.205589393758361e-12 8.48815870935975e-12 1.4231157858551398e-11
          7.725508842655041e-12 1.9974157007743046e-11 3.1818082207540886e-11 2.032900709110446e-11 6.959262668220317e-11 4.0345595713342535e-11
          9.796597785638269e-12 1.0903438481690878e-11 8.606384682133539e-12 5.252123184454123e-11 4.136149802030564e-11 1.0346018343006979e-10
          1.1305959726481708e-10 3.968495425227201e-11 7.641943260766875e-11 3.037948643661677e-11 1.2265901109956437e-10 1.448913117394748e-11
          1.600206080989449e-11 1.0115170681518262e-11 9.675799345693241e-12 1.4127582574432139e-11 1.3324316272814584e-11 1.0858873871911474e-11
          1.75149904458415e-11 9.23642800986822e-12 1.2521049971197028e-11 5.503621200457547e-10 2.5679580941284857e-10 3.59201541594695e-10
          2.960496676870522e-11 1.7468779375483713e-11 4.6471112328962916e-11 1.930061439985965e-11 2.3998030620687488e-11 2.183653065483225e-11
          2.4626969012090545e-11 1.0817681728193116e-11 1.646692956528439e-11 1.641601034295562e-11 2.3175837089640382e-11 1.1566786968232647e-11
          3.2216658914464894e-11 1.884673746651309e-11 3.744252767366037e-11 2.349063210600124e-10 9.058610949392382e-11 3.177805385794739e-10
          1.0769516383655577e-10 4.508725679792182e-11 4.090472834609662e-11 1.696715492261324e-11 1.4672798505634898e-10 6.165760068413014e-11
          5.3320848885019176e-11 4.110581248329108e-11 4.1069506356450556e-11 3.283733036521564e-11 1.9651316834261212e-11 3.6134795149810956e-11
          2.6491657330076814e-11 2.913850920766247e-11 2.3460817786990746e-11 3.1082538877429045e-11 9.237950145732161e-12 1.1611960973930387e-11
          8.30143751557964e-12 1.244626636904904e-11 1.3804360635927627e-11 1.4451001145682405e-11 4.5749661510927525e-12 6.84097437867121e-12
          2.8229711498617896e-12 3.878610263721548e-12 3.697672432496734e-12 4.929507935620169e-12 3.0246710874200677e-12 5.7050552835880066e-11
          5.875646124685696e-11 2.968247368039006e-11 6.046236965783387e-11 1.7017143388942568e-11 1.9720644849159516e-11 1.1468063604850205e-11
          1.2276138826811346e-11 1.244807785680436e-11 1.3447788976746456e-11 8.930622358304723e-12 2.2424146309376465e-11 1.308421404877249e-11
          1.4447500096688551e-11 7.024360443686313e-10 3.8082597885236915e-10 4.8860465596754e-10 3.3084858413303175e-10 5.295839110590271e-10
          6.990634632502852e-11 3.0254966626723533e-11 2.0213314894499383e-11 2.7829466039454736e-11 1.3474894647877451e-11 1.8403193616671106e-11
          1.3842825452518894e-11 1.8566226300466565e-11 1.3738224087274442e-11 4.655177273472002e-11 3.0874119674329654e-11 3.017764275892623e-11
          8.639284758097059e-12 1.181048130914902e-11 5.51456201430699e-12 7.511425899969247e-12 7.143908004223605e-12 9.448321949948034e-12
          6.025534358850669e-12 1.995292563242658e-11 1.2684895854728108e-11 1.4358414314918794e-11 9.422952862199084e-12 1.2150411117554065e-11
          7.879728921018265e-12 9.806346373031612e-12 7.840034527828808e-12 9.733698611869361e-12 8.1046842102807e-12 1.9069592919465356e-11
          1.401312701581815e-11 1.4767738909259917e-11 3.657008033563562e-10 6.669854814913217e-11 1.4712776501056362e-10 4.6399133897549105e-10
          2.94485386032432e-10 5.020347938538834e-10 1.8155192340031754e-10 1.0984878115172071e-10 1.9500601121562764e-10 1.1171219487014773e-10
          7.454547795082865e-11 2.5165681424747535e-10 1.6900982847013854e-10 1.6090151000589859e-10 4.866820988543705e-11 3.110757928873271e-11
          7.04636200406679e-11 7.177201653411302e-11 4.7811065579929576e-11 4.523977352554702e-11 2.9943695867339504e-11 1.0035491937865782e-10
          6.695166811043212e-11 6.154091472930863e-11 3.1118206365859164e-11 1.9850832998876925e-11 1.9359868876209326e-11 1.2317858428147378e-11
          4.3712679750062104e-11 2.794736833925344e-11 2.662052096036034e-11 3.2052828574482883e-10 2.1591312342450382e-10 2.022981366172595e-10
          1.3570613713078302e-10 3.473175013684906e-10 2.342348296348868e-10 2.1853974768099142e-10 8.893468696190621e-11 5.6964594672278925e-11
          9.621891240562537e-11 1.241400972002157e-10 8.298462767846044e-11 7.482865263813572e-11 4.984002155972538e-11 1.334564604263119e-10
          8.927130353272121e-11 7.998936449930997e-11 5.42504292591489e-11 3.471212122702487e-11 3.246306738949842e-11 2.0698816741603665e-11
          5.838773834523974e-11 3.7369669849471985e-11 3.474357708615285e-11 4.177156462572568e-11 2.8695809831353412e-11 5.535815868898519e-11
          6.576668858265688e-11 3.864033109764527e-11 6.967358718655695e-11 2.8023560981511607e-11 1.8378204648446016e-11 2.1354807079152327e-11
          1.4017645441299693e-11 3.736568172054801e-11 2.469980383556079e-11 2.4369928168340744e-11 9.712436068405764e-12 1.1814090586361202e-11
          6.19578151712418e-12 7.498926459667446e-12 7.730774953728577e-12 9.01417378161414e-12 5.702982421760996e-12 1.5902086603213155e-11
          1.0050855547416438e-11 1.1765258938687929e-11 4.478922393687386e-11 2.977944836406139e-11 2.5989635024093498e-11 1.9697641160187673e-11
          4.763288992965326e-11 3.1762489742688486e-11 2.782512731352325e-11 1.9139887569124076e-11 1.2062493115825437e-11 1.4121293253531511e-11
          8.78444986949023e-12 2.0391347036138473e-11 1.2825346539028706e-11 1.500964123918687e-11 1.4349315067416354e-11 1.5189708112366157e-11
          1.1712754338739213e-11 1.2190327518149413e-11 1.1905645805074562e-11 1.1953104269832495e-11 9.971144283557705e-12 1.6030101157315964e-11
          1.2667900697559612e-11 1.200056273459043e-11 3.496380817437974e-12 2.797050700916696e-12 2.933751849668674e-12 3.796377361616794e-12
          3.0217833895985205e-12 5.702702908031894e-12 7.699231629178653e-12 1.0603219441354802e-11 1.2936841513052004e-11 1.3841154476486325e-11
          3.858998520790985e-12 4.661570164793693e-12 3.0482990404232895e-12 3.5986406909346212e-12 3.0944789619690536e-12 3.5970605236463782e-12
          2.8778935433054605e-12 6.225295588083136e-12 4.722287654114298e-12 4.660558107641148e-12 7.457773250779487e-12 5.65674974273746e-12
          5.548642024663111e-12 4.41144509652073e-12 7.929097134189103e-12 6.0179065186922775e-12 5.875809919367629e-12 6.131781472224339e-9
          7.620213110934164e-10 1.675515994970168e-9 4.535571757520298e-9 3.0538753394377766e-9 4.045417184696762e-12 4.632581421614929e-11
          1.2430684417111829e-11 5.14893212354233e-9 4.8610278751795626e-9 1.1926181903251382e-9 1.1030403476547242e-9 2.0370584295129497e-8
          2.6283885540745442e-8 5.19413510987454e-9 7.41138818681434e-11 9.481584609237341e-11 8.271583527293094e-11 1.5891375099822991e-12
          4.078918221485718e-8 1.7013111473286648e-8 1.3153688884141014e-8 6.452590213051573e-9 2.7641505994885905e-8 9.804642070169406e-9
          2.0107380586180935e-9 5.30355941012668e-9 2.8348759497546892e-9 1.1902773323609992e-10 9.838397022977414e-10 2.7685725778211217e-10
          2.475251627187119e-10 8.750318846879807e-10 7.14884298366013e-11 6.955584538224894e-11 2.1819306765531165e-10 7.662240670782203e-10
          4.252860393743387e-10 7.476346983285303e-11 6.457391464981542e-11 3.4892669520102414e-10 1.094149745407633e-9 1.6958409375688635e-9
          1.0623952666782954e-9 1.2773190073576295e-9 7.455679901807755e-9 5.626315663858545e-9 1.0374952943694696e-9 3.6839354876610876e-9
          9.03339357809425e-10 1.372969071058751e-9 1.2912649165415785e-12 1.3530214868860626e-12 7.851806608289521e-13 7.120655400400393e-13
          1.0000044445552344e-12 1.1668039032427621e-12 1.0116333042211587e-11 3.866186021090251e-12 1.5326296829573558e-12 1.1063505996996609e-11
          9.810226016591852e-13 8.968642153915378e-13 1.6504813086841647e-12 3.6485405048091465e-11 2.0247438220521985e-11 6.058772098746929e-12
          1.3562777852194483e-11 2.2690430029867686e-11 4.487981901800411e-12 1.2408494496452435e-11 1.9916901823706995e-11 2.2840708499933824e-10
          6.684745075370586e-11 2.8220841921578966e-10 8.222061617690841e-11 1.229236032405693e-10 4.1622345480521874e-10 2.2502627284040023e-11
          2.9148119769003414e-11 9.669428331686383e-11 2.7095389461056954e-11 1.4596383752991909e-10 9.175614977161679e-12 1.1779595509816073e-11
          8.175016039693951e-12 7.476937326505761e-12 9.964056847645441e-12 1.1223680431552806e-11 5.235595141734325e-12 1.6760499763121085e-10
          9.984623593708133e-11 1.2176352490174828e-10 5.834298584009351e-10 4.272325709669381e-10 3.8916736389707005e-10 2.7503131015608694e-10
          1.2282969654656176e-11 5.8678941755384065e-12 1.3896744913985138e-11 5.732066432518695e-11 3.252630815334351e-11 3.2497592335918645e-11
          5.718965272546344e-11 3.2068912634334165e-11 5.384550245000931e-11 2.5120621378892522e-11 1.968119702852092e-11 4.378467452450804e-11
          4.132592888166598e-11 4.821302353204528e-11 4.053421513594133e-11 4.74018247647852e-11 1.2783125689991386e-11 7.466754667214202e-12
          9.521989943941737e-12 8.872827763926923e-12 8.713616157572187e-12 7.439654684159255e-12 6.246041644048164e-12 1.0004289549128382e-11
          7.448641028164778e-12 8.46816790929174e-12 4.762148497546717e-12 1.2671478075344066e-11 9.185858685764359e-12 1.003439804130189e-11
          6.078213116230139e-12 1.5683734519413258e-10 8.16513379118437e-11 1.7974608474530544e-10 9.30907117166575e-11 1.123569491289288e-10
          4.0515783947025275e-11 4.54662646320748e-11 2.0265482429647835e-10 1.045300855214713e-10 5.041674531712434e-11 4.4052286223839695e-11
          7.350121646573434e-10 5.210418200704631e-10 3.662591474593846e-10 5.197720034386263e-10 1.108216759830096e-9 7.941007776648693e-10
          7.744880318745124e-10 1.3996546341662585e-9 1.0114160239981341e-9 9.822022450556574e-10 1.5024828028768633e-9 1.0893313670904829e-9
          1.0598093129808267e-9 3.597666534561175e-10 2.5175508320101813e-10 5.530799395289863e-10 2.4215574993082057e-10 1.689054527162086e-10
          3.7477732313028773e-10 1.5900137859763169e-10 1.1066427983457124e-10 2.473041325492218e-10 1.6885864187962767e-10 7.094635658449553e-10
          4.835543182464979e-10 7.663231671875921e-10 5.23586635937101e-10 3.2056755327125107e-10 2.1825542352662865e-10 3.4781164267284827e-10
          2.372826976503367e-10 8.550857953759499e-11 5.80208579219012e-11 4.065569504541441e-11 6.013700725434912e-11 1.5097084290569453e-10
          1.0279194670603139e-10 1.0293624641894192e-10 3.849019824670864e-11 2.6947259413183368e-11 6.849094072160136e-11 2.4897940911994413e-11
          1.7418678213025422e-11 4.467383937453862e-11 1.582547959762101e-11 1.1062377015798192e-11 2.852914896338813e-11 2.507780080641187e-11
          2.994784866195093e-11 4.1165095359386645e-11 2.7586784822644716e-11 6.855055206114481e-11 4.4687663620191154e-11 1.238706438032908e-11
          1.3670842271270687e-11 1.8040513205222223e-11 1.4227657495693462e-11 2.854839299570577e-11 2.4848903158522227e-10 3.5452533160747125e-10
          5.183537095375087e-10 1.6373979268538762e-10 2.34697761025933e-10 3.3500345360549525e-10 9.91435652564194e-11 6.48695625549724e-11
          1.5175083112297933e-10 1.0543822825079351e-10 9.638034662014407e-11 2.1091953205011825e-10 1.3044169512472588e-10 6.545268499462008e-10
          4.184404136939148e-10 7.069252174087662e-10 4.509369282872253e-10 2.5951798528675345e-10 1.5777277263340997e-10 2.784531067878391e-10
          1.6833188555627627e-10 1.7012216235806736e-10 1.1381126531684066e-10 7.443239641834699e-11 4.7607837088372697e-11 1.108254333634548e-10
          7.098124779988735e-11 1.4189912294988261e-10 9.102014874524063e-11 1.5408244011170212e-10 9.890292978678351e-11 4.164200194681557e-11
          6.052977241191644e-11 2.9000624452809917e-11 3.6822402189816656e-11 7.988062596906848e-11 4.799689010466066e-11 1.6470900287629626e-11
          1.909130548246596e-11 1.8594751588701237e-11 2.2296470271205162e-11 2.1091330152897968e-11 2.8446774312663064e-11 9.479783486232864e-11
          5.628811128338518e-11 1.0042095015324464e-10 5.940340178493061e-11 2.2616268393052632e-11 3.3062133309575566e-11 2.3954843001644745e-11
          3.473235305376937e-11 1.7076673477137067e-11 9.906064334719896e-12 6.911063701328973e-12 1.7869314638404778e-11 1.2085954312183481e-11
          4.936993311148996e-12 4.692823303970338e-12 4.74352240472016e-12 3.632255444595549e-12 7.926965312090566e-12 5.532577652233068e-12
          2.980047493969126e-11 1.9489013052397437e-11 4.440789806811766e-11 2.8198155594675615e-11 1.2462426671413769e-11 7.598966800682766e-12
          5.386177506118046e-12 1.7557069711368105e-11 1.0729537330404052e-11 5.6998686213769935e-11 3.565183534136334e-11 6.196387872230223e-11
          3.8598611065312314e-11 2.182562243132064e-11 1.3348630776236095e-11 9.0500493366474e-12 2.3497293949054177e-11 1.4370984108817222e-11
        </DataArray>
        <DataArray type="Float64" Name="gradient_matprop_error" format="ascii" RangeMin="0" RangeMax="0">
          0 0 0 0 0 0
          0 0 0 0 0 0
          0 0 0 0 0 0
          0 0 0 0 0 0
          0 0 0 0 0 0
          0 0 0 0 0 0
          0 0 0 0 0 0
          0 0 0 0 0 0
          0 0 0 0 0 0
          0 0 0 0 0 0
          0 0 0 0 0 0
          0 0 0 0 0 0
          0 0 0 0 0 0
          0 0 0 0 0 0
          0 0 0 0 0 0
          0 0 0 0 0 0
          0 0 0 0 0 0
          0 0 0 0 0 0
          0 0 0 0 0 0
          0 0 0 0 0 0
          0 0 0 0 0 0
          0 0 0 0 0 0
          0 0 0 0 0 0
          0 0 0 0 0 0
          0 0 0 0 0 0
          0 0 0 0 0 0
          0 0 0 0 0 0
          0 0 0 0 0 0
          0 0 0 0 0 0
          0 0 0 0 0 0
          0 0 0 0 0 0
          0 0 0 0 0 0
          0 0 0 0 0 0
          0 0 0 0 0 0
          0 0 0 0 0 0
          0 0 0 0 0 0
          0 0 0 0 0 0
          0 0 0 0 0 0
          0 0 0 0 0 0
          0 0 0 0 0 0
          0 0 0 0 0 0
          0 0 0 0 0 0
          0 0 0 0 0 0
          0 0 0 0 0 0
          0 0 0 0 0 0
          0 0 0 0 0 0
          0 0 0 0 0 0
          0 0 0 0 0 0
          0 0 0 0 0 0
          0 0 0 0 0 0
          0 0 0 0 0 0
          0 0 0 0 0 0
          0 0 0 0 0 0
          0 0 0 0 0 0
          0 0 0 0 0 0
          0 0 0 0 0 0
          0 0 0 0 0 0
          0 0 0 0 0 0
          0 0 0 0 0 0
          0 0 0 0 0 0
          0 0 0 0 0 0
          0 0 0 0 0 0
          0 0 0 0 0 0
          0 0 0 0 0 0
          0 0 0 0 0 0
          0 0 0 0 0 0
          0 0 0 0 0 0
          0 0 0 0 0 0
          0 0 0 0 0 0
          0 0 0 0 0 0
          0 0 0 0 0 0
          0 0 0 0 0 0
          0 0 0 0 0 0
          0 0 0 0 0 0
          0 0 0 0 0 0
          0 0 0 0 0 0
          0 0 0 0 0 0
          0 0 0 0 0 0
          0 0 0 0 0 0
          0 0 0 0 0 0
          0 0 0 0 0 0
          0 0 0 0 0 0
          0 0 0 0 0 0
          0 0 0 0 0 0
          0 0 0 0 0 0
          0 0 0 0 0 0
          0 0 0 0 0 0
          0 0 0 0 0 0
          0 0 0 0 0 0
          0 0 0 0 0 0
          0 0 0 0 0 0
          0 0 0 0 0 0
          0 0 0 0 0 0
          0 0 0 0 0 0
          0 0 0 0 0 0
          0 0 0 0 0 0
          0 0 0 0 0 0
          0 0 0 0 0 0
          0 0 0 0 0 0
          0 0 0 0 0 0
          0 0 0 0 0 0
          0 0 0 0 0 0
          0 0 0 0 0 0
          0 0 0 0 0 0
          0 0 0 0 0 0
          0 0 0 0 0 0
          0 0 0 0 0 0
          0 0 0 0 0 0
          0 0 0 0 0 0
          0 0 0 0 0 0
          0 0 0 0 0 0
          0 0 0 0 0 0
          0 0 0 0 0 0
          0 0 0 0 0 0
          0 0 0 0 0 0
          0 0 0 0 0 0
          0 0 0 0 0 0
          0 0 0 0 0 0
          0 0 0 0 0 0
          0 0 0 0 0 0
          0 0 0 0 0 0
          0 0 0 0 0 0
          0 0 0 0 0 0
          0 0 0 0 0 0
          0 0 0 0 0 0
          0 0 0 0 0 0
          0 0 0 0 0 0
          0 0 0 0 0 0
          0 0 0 0 0 0
        </DataArray>
        <DataArray type="Float64" Name="initial_marker" format="ascii" RangeMin="0" RangeMax="2">
          0 0 0 0 0 0