<?xml version="1.0"?>
<VTKFile type="UnstructuredGrid" version="0.1" byte_order="LittleEndian" header_type="UInt32" compressor="vtkZLibDataCompressor">
  <UnstructuredGrid>
    <Piece NumberOfPoints="673" NumberOfCells="418">
      <PointData>
        <DataArray type="Int32" Name="libmesh_node_id" format="ascii" RangeMin="662" RangeMax="6239">
          831 832 1247 1248 1249 1252
          1255 1267 1268 1273 1274 1289
          1482 1483 2152 2153 2155 2158
          2160 2161 2162 2163 2164 2165
          2166 2167 2168 2169 2170 2171
          2173 2177 2182 2184 2185 2186
          2187 2188 2189 2190 2191 2193
          2196 2197 2199 2202 2204 2205
          2208 2210 2211 2213 2215 2219
          2221 2225 2306 2307 2308 2309
          2310 2364 2365 2627 2628 2629
          2630 2631 2632 2633 2634 2635
          2636 2644 2645 2646 2647 2648
          2649 2650 2709 2710 2711 2712
          2713 2714 2715 2716 2717 2718
          2719 2723 2736 2738 2740 2741
          2742 4269 4270 4271 4274 4277
          4288 4289 4292 4294 4308 4309
          4311 4314 4324 4326 4328 4330
          4331 4332 4333 4334 4335 4336
          4337 4338 4339 4340 4341 4342
          4343 4344 4345 4346 4347 4348
          4349 4350 4351 4352 4353 4354
          4355 4356 4357 4358 4359 4360
          4361 4362 4363 4364 4365 4366
          4367 4368 4369 4370 4371 4372
          4373 4374 4375 4376 4377 4378
          4379 4380 4381 4382 4383 4384
          4385 4386 4387 4388 4389 4392
          4394 4395 4397 4398 4399 4400
          4401 4402 4403 4404 4405 4407
          4409 4411 4424 4425 4430 4460
          4462 4464 4480 4481 4482 4483
          4484 4485 4486 4487 4488 4489
          4490 4491 4492 4493 4494 4495
          4496 4497 4498 4499 4500 4501
          4502 4503 4504 4505 4506 4507
          4508 4509 4510 4511 4512 4513
          4514 4515 4516 4517 4518 4519
          4520 4521 4522 4523 4524 4525
          4526 4527 4529 4531 4533 4534
          4535 4536 4537 4538 4539 4540
          4541 4543 4545 4547 4560 4561
          4563 4566 4576 4578 4580 4594
          4595 4597 4600 4610 4612 4614
          4616 4617 4618 4619 4620 4621
          4622 4623 4624 4625 4626 4627
          4630 4632 4633 4635 4636 4637
          4638 4639 4640 4641 4642 4643
          4650 4651 4652 4653 4654 4655
          4656 4657 4658 4659 4660 4661
          4664 4666 4667 4669 4670 4671
          4672 4673 4674 4675 4676 4692
          4694 4696 4710 4720 4722 4724
          4734 4738 4740 4741 4742 4743
          4744 4745 4746 4754 4755 4756
          4757 4758 4759 4768 4769 4770
          4771 4772 4773 4774 4782 4783
          4786 4787 5269 5270 5271 5272
          5273 5274 5275 5276 5277 5278
          5279 5280 5281 5282 5283 5284
          5286 5287 5288 5290 5291 5292
          5293 5402 5403 5561 5562 5563
          5564 5565 5566 5567 5568 5569
          5570 5575 5576 5577 5578 5582
          5583 5589 5590 5591 5592 5593
          5594 5599 5600 5601 5602 5701
          5702 5705 5706 5721 5722 5723
          5724 5725 5726 5727 1243 742
          1244 1245 1246 830 1250 1251
          1480 1481 1487 1488 1489 1490
          1494 1495 1507 1508 1304 1325
          2396 2494 2397 2495 2072 2073
          2074 2077 1253 2080 1254 2639
          2640 2643 2176 1256 2704 2705
          2708 2298 1287 2720 2721 2722
          2724 2725 1297 2368 2371 1298
          2737 2739 2392 2394 4265 4266
          4267 4268 4272 4273 4275 4276
          4278 4286 4287 4290 4291 4293
          4295 4306 4307 4310 4312 4313
          4315 4323 4325 4327 4329 4390
          4391 4393 1269 4396 2172 4406
          4408 4410 1270 4422 4423 4426
          4428 4427 4429 4431 4445 4443
          4450 4449 4459 4461 4463 4465
          4474 4473 4478 4477 4444 4448
          2180 4528 4530 4532 2192 4476
          1271 4542 4544 4546 1272 4558
          4559 4562 4564 4565 4567 4575
          4577 4579 4581 4592 4593 4596
          4598 4599 4601 4609 4611 4613
          4615 4628 4629 4631 2206 4634
          2207 4644 4645 4646 4647 4648
          4649 2209 4662 4663 4665 662
          4668 2212 4677 4678 4679 4681
          4682 4683 4691 4693 4695 4697
          4706 4705 4709 4719 4721 4723
          4725 4733 4737 4747 4748 4749
          4750 4751 4753 4708 4761 4762
          4763 4764 4765 4775 4777 4779
          4781 4789 4793 5220 5221 5224
          5226 2299 5246 5248 5250 5289
          5294 5354 5409 5410 5571 5572
          2366 5573 5574 2367 5579 5580
          5581 5584 5585 5586 2369 5587
          5588 2370 5595 5596 5597 5598
          2372 5603 5604 5605 5606 5607
          5608 2373 5609 5610 5613 5629
          5631 5703 5704 5707 5708 5709
          5710 2393 5728 5729 5730 5731
          5733 5745 5747 6234 6235 6238
          6239
        </DataArray>
        <DataArray type="Float64" Name="bounds" format="ascii" RangeMin="0" RangeMax="0">
          0 0 0 0 0 0
          0 0 0 0 0 0
          0 0 0 0 0 0
          0 0 0 0 0 0
          0 0 0 0 0 0
          0 0 0 0 0 0
          0 0 0 0 0 0
          0 0 0 0 0 0
          0 0 0 0 0 0
          0 0 0 0 0 0
          0 0 0 0 0 0
          0 0 0 0 0 0
          0 0 0 0 0 0
          0 0 0 0 0 0
          0 0 0 0 0 0
          0 0 0 0 0 0
          0 0 0 0 0 0
          0 0 0 0 0 0
          0 0 0 0 0 0
          0 0 0 0 0 0
          0 0 0 0 0 0
          0 0 0 0 0 0
          0 0 0 0 0 0
          0 0 0 0 0 0
          0 0 0 0 0 0
          0 0 0 0 0 0
          0 0 0 0 0 0
          0 0 0 0 0 0
          0 0 0 0 0 0
          0 0 0 0 0 0
          0 0 0 0 0 0
          0 0 0 0 0 0
          0 0 0 0 0 0
          0 0 0 0 0 0
          0 0 0 0 0 0
          0 0 0 0 0 0
          0 0 0 0 0 0
          0 0 0 0 0 0
          0 0 0 0 0 0
          0 0 0 0 0 0
          0 0 0 0 0 0
          0 0 0 0 0 0
          0 0 0 0 0 0
          0 0 0 0 0 0
          0 0 0 0 0 0
          0 0 0 0 0 0
          0 0 0 0 0 0
          0 0 0 0 0 0
          0 0 0 0 0 0
          0 0 0 0 0 0
          0 0 0 0 0 0
          0 0 0 0 0 0
          0 0 0 0 0 0
          0 0 0 0 0 0
          0 0 0 0 0 0
          0 0 0 0 0 0
          0 0 0 0 0 0
          0 0 0 0 0 0
          0 0 0 0 0 0
          0 0 0 0 0 0
          0 0 0 0 0 0
          0 0 0 0 0 0
          0 0 0 0 0 0
          0 0 0 0 0 0
          0 0 0 0 0 0
          0 0 0 0 0 0
          0 0 0 0 0 0
          0 0 0 0 0 0
          0 0 0 0 0 0
          0 0 0 0 0 0
          0 0 0 0 0 0
          0 0 0 0 0 0
          0 0 0 0 0 0
          0 0 0 0 0 0
          0 0 0 0 0 0
          0 0 0 0 0 0
          0 0 0 0 0 0
          0 0 0 0 0 0
          0 0 0 0 0 0
          0 0 0 0 0 0
          0 0 0 0 0 0
          0 0 0 0 0 0
          0 0 0 0 0 0
          0 0 0 0 0 0
          0 0 0 0 0 0
          0 0 0 0 0 0
          0 0 0 0 0 0
          0 0 0 0 0 0
          0 0 0 0 0 0
          0 0 0 0 0 0
          0 0 0 0 0 0
          0 0 0 0 0 0
          0 0 0 0 0 0
          0 0 0 0 0 0
          0 0 0 0 0 0
          0 0 0 0 0 0
          0 0 0 0 0 0
          0 0 0 0 0 0
          0 0 0 0 0 0
          0 0 0 0 0 0
          0 0 0 0 0 0
          0 0 0 0 0 0
          0 0 0 0 0 0
          0 0 0 0 0 0
          0 0 0 0 0 0
          0 0 0 0 0 0
          0 0 0 0 0 0
          0 0 0 0 0 0
          0 0 0 0 0 0
          0 0 0 0 0 0
          0 0 0 0 0 0
          0 0 0 0 0 0
          0
        </DataArray>
        <DataArray type="Float64" Name="gradient_error" format="ascii" RangeMin="1.469538543671419e-12" RangeMax="3.398513420115378e-9">
          2.1717256956823883e-11 2.1004049417028256e-11 2.5274950732617963e-11 1.8291322244581826e-11 1.6737594982244015e-11 1.6586984351032247e-11
          1.7625462464578552e-11 9.068515452083564e-10 6.259261343102495e-10 2.484901051716276e-9 2.1608275181675124e-9 2.7095389461056954e-11
          2.2502627284040023e-11 2.9148119769003414e-11 1.9714979538083393e-10 1.8279189649479088e-10 1.4604371149737e-10 8.262652974666362e-10
          5.1014544807661554e-11 4.836949804818126e-11 8.907697700994183e-11 8.253648235980292e-11 2.0601918329897494e-11 3.7052953436574666e-11
          3.4327698170999495e-11 4.1257108800992054e-11 6.582386329771347e-11 2.7360118579118433e-11 4.268316600315143e-10 3.8767523661458223e-10
          2.912747723660062e-10 1.0132153163526806e-10 3.9729976688019875e-10 3.179248837039892e-11 4.549524449600058e-11 1.3450563198457188e-11
          1.885444592091157e-11 2.845137500234195e-11 3.303672077830386e-11 1.9693281464680124e-11 1.8298091446396245e-10 9.821474097844741e-11
          2.482810048076016e-9 2.2866163714860956e-9 1.7547572430135273e-9 2.469447543094688e-9 1.2627146072847256e-9 1.1520895949748521e-9
          8.633940991407465e-10 1.383424765852522e-9 1.3376125281461406e-9 1.1115938274022784e-9 1.0911837029479686e-9 1.4664483839732486e-9
          5.217992071492232e-10 7.190276227982603e-10 3.252630815334351e-11 3.2068912634334165e-11 2.5120621378892522e-11 1.968119702852092e-11
          3.2497592335918645e-11 8.639959575278896e-12 8.209290639935475e-12 1.9270254078717783e-11 1.8742562867063388e-11 4.842737677489492e-11
          4.626101246657355e-11 9.101435126351445e-12 2.1383932585941038e-11 2.0402630078257585e-11 1.7173613218775254e-11 4.032185637085399e-11
          1.777893483950325e-11 1.4758172139396225e-11 3.210915168482139e-11 7.092567061271799e-12 1.404109845284231e-11 1.1913377614318986e-11
          2.3102270161041934e-11 1.1546728736954136e-11 9.384136777716116e-12 1.540959070470589e-11 6.5342617787631155e-12 9.421427774605095e-12
          8.325507823445192e-12 1.2283879873514909e-11 8.09397893285229e-12 4.2463459983523585e-12 4.098610818478485e-12 8.816149957703437e-12
          8.4199925490582e-12 3.706855546429966e-12 3.3721741292515756e-12 2.313777978833244e-12 3.281512804247828e-12 5.002051444278258e-12
          3.2174397199316502e-12 5.440770380616578e-11 8.929522634798177e-11 8.778551690016868e-11 8.342009260804285e-11 1.9345121823654582e-10
          4.7921913526518994e-11 7.665480623858401e-11 6.816332171323312e-11 1.6639806713578e-10 4.3057701920162175e-10 4.2153473803349257e-10
          3.9559359936046705e-10 8.859825423563897e-10 3.5605213260472894e-10 3.0762097979085533e-10 7.357486350520735e-10 3.6908064371512e-11
          3.632412112011694e-11 6.009406264161722e-11 5.90783342697246e-11 2.406226445521141e-11 3.981524098136211e-11 3.9143856114095364e-11
          3.464997964689493e-11 5.6147779307891e-11 3.720394702833948e-11 1.3392001237689605e-10 1.3139465078486627e-10 8.739147086279467e-11
          1.2411861049174281e-10 1.5823434611149156e-11 1.5576191929427844e-11 2.5859097731365953e-11 2.5423098672937768e-11 9.95369492911202e-12
          1.6500848279928608e-11 1.622289762809243e-11 1.486405851681254e-11 2.4163550732576516e-11 1.5420093191942452e-11 5.8045176245557486e-11
          5.694509632667064e-11 3.635081630844672e-11 5.377632011905634e-11 3.20524753234788e-11 5.160970315354656e-11 2.1239307814862617e-11
          3.419530316689354e-11 2.8759521045229174e-11 4.590556467695441e-11 3.0405779204612664e-11 1.1293447876391662e-10 7.507623616679647e-11
          9.905886147457552e-11 1.375478067283532e-11 2.2210077434419463e-11 8.794522101378365e-12 1.4174813277431636e-11 1.233234669511149e-11
          1.9745514337665955e-11 1.260371981941229e-11 4.890709501349212e-11 3.1217362786272485e-11 4.286873794301178e-11 2.953518882495832e-10
          2.8908126745970277e-10 1.9777944665667932e-10 1.9354984166569712e-10 2.7110594403164606e-10 1.8143139023530735e-10 6.308809516508661e-10
          6.160738132413583e-10 4.166710530978839e-10 5.737684904136645e-10 1.2939764044839318e-10 1.2661814200969308e-10 1.1865679632070738e-10
          2.812086856213823e-10 2.744494333304391e-10 2.551768273481489e-10 2.437464320928279e-10 1.6300406801961005e-10 2.1030104395111341e-10
          1.4050670076747606e-10 5.098337152557965e-10 3.4395113839865583e-10 4.3257793868263696e-10 1.0655803992009736e-10 9.179922859270537e-11
          2.2616086902979836e-10 1.9127800090637834e-10 3.739886154210511e-11 5.872664158634135e-11 1.2372131820317359e-10 2.554757438950412e-10
          2.0433593077722167e-10 5.093635887156439e-10 2.506641860618605e-11 3.9554794646383426e-11 1.656723853579043e-11 2.6178660662280153e-11
          2.128585568411456e-11 3.305771273838209e-11 2.188485368997915e-11 8.385294536125699e-11 5.5686624962750397e-11 6.859404991253994e-11
          1.071853719547751e-11 1.699125159044437e-11 6.877940970508415e-12 1.0847884634619276e-11 9.17463325981491e-12 1.420595722675075e-11
          9.06755105738587e-12 3.625121049880187e-11 2.313144538676119e-11 2.9579691751888125e-11 1.7736059316414648e-11 2.682402704405228e-11
          1.2013628386890199e-11 1.767489011683283e-11 1.4460242563022646e-11 2.1039888206325863e-11 1.52109712551722e-11 5.437579021537115e-11
          3.591335057617195e-11 4.165438636112855e-11 8.04548075492019e-12 1.1498418381178178e-11 5.238468982313597e-12 7.38615426395332e-12
          7.624469550694691e-12 1.0156549832607153e-11 6.579923190783496e-12 2.3187485533395135e-11 1.4753316730517287e-11 2.0096866813109845e-11
          1.743729835886453e-10 1.1637309550197575e-10 1.392352085022005e-10 9.280376091792667e-11 3.509721327258353e-10 2.3582507746389496e-10
          2.729154211627718e-10 7.597931988542928e-11 6.053346952480199e-11 1.5464633964734205e-10 1.1981916307459044e-10 1.0742746977082108e-10
          7.15774923195348e-11 8.022197672933984e-11 5.339238877645416e-11 2.039963731195854e-10 1.3647164474523089e-10 1.471191620797013e-10
          4.6593144924558314e-11 3.4625915110510704e-11 8.924031537811809e-11 6.414513518571207e-11 1.6944053955008657e-9 1.6547322040770802e-9
          1.5407358021356938e-9 2.433089786075696e-9 1.3668019467291197e-9 1.1544174274334024e-9 2.0535138571845523e-9 2.6426276262131183e-9
          2.6196785444795374e-9 2.536582331360993e-9 2.4880072098371295e-9 2.3663716093271427e-9 2.0984119447366173e-9 2.3725179575278198e-9
          1.2016836409066098e-9 1.1725954928469863e-9 8.255577540010823e-10 8.050522648795891e-10 1.0892540655887728e-9 7.46435488266253e-10
          1.8016600315481716e-9 1.7632875683185963e-9 1.2344331638903368e-9 1.6509678843822625e-9 5.502366974799681e-10 5.363003777057454e-10
          4.965361182211549e-10 8.559104535330761e-10 8.359430532967187e-10 7.780649723773214e-10 9.627683832558979e-10 6.578581554220118e-10
          8.09431845338707e-10 5.511053900942015e-10 1.474206671462545e-9 1.0237185620560576e-9 1.2508008143027515e-9 4.366554371594438e-10
          1.97350730114399e-9 1.9511412011896486e-9 1.4194054806854445e-9 1.4000390995487184e-9 1.87577231711417e-9 1.337516519507547e-9
          1.8914437303602207e-9 1.8859564057223656e-9 1.3745164842589581e-9 1.852200261862725e-9 9.845313134659417e-10 9.691239772897752e-10
          9.207747556273967e-10 9.73897432840157e-10 9.646798335192183e-10 9.313621435978051e-10 1.7327271313074958e-9 1.224812462352987e-9
          1.5196241672804807e-9 1.0637938374788406e-9 1.7557010933315416e-9 1.2530087968651226e-9 1.5768904925293537e-9 9.282651281005127e-10
          7.114112913844061e-10 1.4219269638007385e-9 7.941007776648693e-10 1.7529063348132071e-9 1.3740417633763723e-9 1.8433250938089871e-9
          1.0114160239981341e-9 1.0893313670904829e-9 6.475306179357824e-10 4.3914945297808937e-10 4.936667008514023e-10 3.334929541397048e-10
          1.0056403672379877e-9 6.897049859872002e-10 7.65645643804304e-10 3.597666534561175e-10 2.4215574993082057e-10 2.5175508320101813e-10
          1.689054527162086e-10 5.530799395289863e-10 3.7477732313028773e-10 1.255183581377613e-9 8.701656452353578e-10 9.733150273654067e-10
          6.686700315159814e-10 1.3272866458405025e-9 9.247330933919248e-10 1.0429532134714374e-9 7.094635658449553e-10 4.835543182464979e-10
          7.663231671875921e-10 5.23586635937101e-10 1.166822373058122e-11 1.5970004865945366e-11 9.804824631530093e-12 1.286178571710629e-11
          1.04753339435207e-11 1.3677775458580484e-11 1.1252696254654118e-11 3.0699687387700136e-11 2.3434786239387275e-11 2.507780080641187e-11
          5.80208579219012e-11 3.849019824670864e-11 4.065569504541441e-11 2.6947259413183368e-11 1.0279194670603139e-10 6.849094072160136e-11
          1.7377934972759032e-11 2.4897940911994413e-11 1.09832075491342e-11 1.238706438032908e-11 1.7418678213025422e-11 1.1062377015798192e-11
          4.467383937453862e-11 1.7012216235806736e-10 1.1381126531684066e-10 6.306717994912022e-12 6.2094218949906155e-12 1.0313459101443124e-11
          1.0140446427584447e-11 3.841537515835365e-12 6.333522011186071e-12 6.22895015265989e-12 5.926336705185533e-12 9.638968846936336e-12
          5.922886037618794e-12 2.352421801285344e-12 2.3416027445694183e-12 3.80724704784383e-12 3.7380908935040525e-12 2.278928478896618e-12
          3.5433716630603137e-12 5.482456655473721e-12 8.859138894873118e-12 3.4059093910048148e-12 5.444255556918894e-12 4.936492740080739e-12
          7.879791393075856e-12 2.1347910337336324e-12 3.2565675436646583e-12 1.7018272150351933e-12 2.415997852084016e-12 4.3535499938224195e-12
          6.784528752748949e-12 3.762085007993289e-12 5.6412221147230666e-12 3.2493114719507825e-12 4.538044183154633e-12 2.5278928734475622e-12
          3.448223350540947e-12 3.032933131043933e-12 4.0108927058086586e-12 3.0871342872076664e-12 9.52719996023865e-11 7.476346983285303e-11
          8.946694469327029e-11 6.464862213715577e-11 6.08953924505889e-11 6.457391464981542e-11 7.388208230468132e-11 4.909267914286406e-11
          6.684745075370586e-11 8.222061617690841e-11 7.695600571795384e-12 7.180991961994614e-12 4.7855051532057775e-12 5.264122360277195e-12
          7.610507760439466e-12 9.236689385080144e-12 9.175614977161679e-12 1.1779595509816073e-11 9.517457082549876e-12 9.964056847645441e-12
          1.0295541890340296e-11 1.2783125689991386e-11 9.137889577871573e-12 9.521989943941737e-12 3.360770976567696e-11 9.744946995103529e-11
          9.347742084869307e-11 8.290511619412029e-11 1.0808020035531593e-10 1.0260805443618448e-10 8.821602185937202e-11 2.94247337488279e-11
          6.808451405081166e-11 5.0549785674314644e-11 6.920387303588039e-11 4.893358714510068e-11 2.0073786711055217e-11 3.4340193069596924e-11
          2.744498225029815e-11 5.732066432518695e-11 9.669428331686383e-11 1.841085305309496e-12 3.4349248262807418e-12 3.2345422451627776e-12
          7.327376150217013e-12 3.2581395508826585e-12 3.211752734293304e-12 4.04105692953769e-12 7.016918839538899e-12 5.036987893037766e-12
          5.816484302149662e-12 3.4617695222449997e-12 6.863709184967633e-12 6.068993029496935e-12 8.256232495939968e-11 8.125499182070645e-11
          1.3076425331050035e-10 1.2856076651866598e-10 7.736842558249059e-11 1.2213744319268284e-10 2.8400090258002785e-10 2.7871352020447385e-10
          2.6347170127665256e-10 7.121358291906253e-11 1.1212591871264434e-10 6.345646755353435e-11 9.955329234770767e-11 2.4001139898635014e-10
          2.108470239019924e-10 6.122158073484576e-10 5.995530086201745e-10 5.631900392321343e-10 1.2661691688339742e-9 1.2377802864749614e-9
          1.1563848998617763e-9 5.076572490792092e-10 4.3945202484129267e-10 1.0325435541825924e-9 8.815096662310528e-10 8.276474723873068e-11
          8.098337260794038e-11 7.58813615661967e-11 1.806062912952993e-10 1.7623863007470591e-10 1.637919094374429e-10 6.812951499461689e-11
          5.86794430882744e-11 1.4507228520897849e-10 1.2259959185992916e-10 5.484586903535174e-11 8.559922807304774e-11 4.61306744351894e-11
          4.907193377154247e-11 7.141557519547005e-11 1.7882241948497764e-10 1.4662791434217553e-10 3.982741706223077e-11 5.795090731066749e-11
          8.03238292471477e-11 1.1640984608156877e-10 3.6576943171704054e-10 2.932305577749759e-10 7.202169248719626e-10 5.641085313468369e-10
          1.5776559401192282e-10 2.2692053615891543e-10 2.978837313944645e-10 4.246915177364616e-10 2.6153666582055414e-11 3.1359175285666926e-11
          6.165200078966175e-11 4.855782189282671e-11 3.8670336579049196e-11 9.903795900578958e-11 7.667035296403554e-11 1.178657562931939e-10
          2.1547610499781713e-10 2.971030872751994e-11 2.2029264672385007e-11 5.705904641712119e-11 4.09862986889582e-11 2.3115624965661315e-9
          2.2596070598420382e-9 2.1098587428005227e-9 3.3006293880397986e-9 3.2394659588582004e-9 3.057654780595943e-9 1.8799853180118152e-9
          1.5968782152438218e-9 2.7640513309516933e-9 2.3814063770566854e-9 3.398513420115378e-9 3.380400472584541e-9 3.302144854201459e-9
          3.1219507108139337e-9 3.143068092234862e-9 3.1622709698023622e-9 3.1164949096399093e-9 2.7984680040430313e-9 3.088100639726822e-9
          2.8577204710187107e-9 3.562941007255089e-10 3.471404808522625e-10 3.2106123526662404e-10 5.618811849567803e-10 5.483401485052039e-10
          5.092410329839914e-10 2.8189457317831674e-10 3.6482107827663345e-10 2.350742563206896e-10 6.885571998415505e-10 4.4918173422303217e-10
          5.778921161916134e-10 3.755419380544828e-10 6.595115454543516e-10 6.480526328614228e-10 6.128199397469209e-10 6.609500949166533e-10
          6.52985883193611e-10 6.261439667288692e-10 8.368171988202006e-10 5.533443524075068e-10 7.207580468428986e-10 8.634763982258051e-10
          5.753492211777995e-10 7.578376793226883e-10 1.2923217965794248e-9 9.970607198961282e-10 1.9476186781796483e-9 1.5089118162470553e-9
          5.210418200704631e-10 7.350121646573434e-10 1.108216759830096e-9 2.367768633038311e-9 1.879401118565576e-9 2.47475626470712e-9
          1.996788744556976e-9 1.3996546341662585e-9 1.5024828028768633e-9 2.898793004079378e-10 1.864172609459616e-10 2.1952619651652907e-10
          1.4091325847619484e-10 4.592785227018518e-10 3.4578538042060014e-10 3.662591474593846e-10 1.5900137859763169e-10 1.0190080239301208e-10
          1.1066427983457124e-10 7.083798456244652e-11 2.473041325492218e-10 5.847633173134966e-10 4.4604920276481375e-10 6.241556955031471e-10
          4.810865483118186e-10 3.2056755327125107e-10 3.4781164267284827e-10 1.690322348695611e-11 2.3803750758922943e-11 2.0271991987543068e-11
          4.5652045924760786e-11 5.718965272546344e-11 8.550857953759499e-11 6.013700725434912e-11 1.5097084290569453e-10 1.582547959762101e-11
          2.852914896338813e-11 2.4848903158522227e-10 7.443239641834699e-11 4.7607837088372697e-11 2.3176726943539826e-11 2.2738658814559654e-11
          1.4198813249524342e-11 1.3931645692411578e-11 2.1475493456340166e-11 1.316087490863474e-11 1.469538543671419e-12 2.2595125349732373e-12
          2.203672292372247e-12 2.275407255426693e-12 8.51434925217301e-12 8.355151561066358e-12 5.00043356136361e-12 4.873130522542058e-12
          7.896790910670386e-12 5.475573606841353e-12 4.848729986617875e-12 1.9530894889922464e-11 1.1971441776754057e-11 1.711105801550447e-11
          1.0480986236459216e-11 1.9400104451784456e-12 2.906813945985018e-12 2.1600538362294494e-12 7.185322457281908e-12 4.971548598511152e-12
          6.288146077977869e-12 5.247295066344859e-12 5.1774582405387183e-11 5.066117336967033e-11 4.7470984830574216e-11 4.262085457457363e-11
          3.670712153901536e-11 2.792605565154687e-12 4.154807409270853e-12 3.789285589984652e-12 1.4471598308590251e-11 8.816625022241373e-12
          1.1796578338119219e-11 8.506823471356512e-12 9.202830524888949e-12 6.603277633748323e-12 7.95309128994988e-12 3.0400557048519065e-11
          2.4245603855493414e-11 1.8617145621921003e-11 1.3778364443460311e-11 6.892146841015087e-12 9.906064334719896e-12 4.936993311148996e-12
          6.911063701328973e-12
        </DataArray>
        <DataArray type="Float64" Name="gradient_matprop_error" format="ascii" RangeMin="0" RangeMax="0">
          0 0 0 0 0 0
          0 0 0 0 0 0
          0 0 0 0 0 0
          0 0 0 0 0 0
          0 0 0 0 0 0
          0 0 0 0 0 0
          0 0 0 0 0 0
          0 0 0 0 0 0
          0 0 0 0 0 0
          0 0 0 0 0 0
          0 0 0 0 0 0
          0 0 0 0 0 0
          0 0 0 0 0 0
          0 0 0 0 0 0
          0 0 0 0 0 0
          0 0 0 0 0 0
          0 0 0 0 0 0
          0 0 0 0 0 0
          0 0 0 0 0 0
          0 0 0 0 0 0
          0 0 0 0 0 0
          0 0 0 0 0 0
          0 0 0 0 0 0
          0 0 0 0 0 0
          0 0 0 0 0 0
          0 0 0 0 0 0
          0 0 0 0 0 0
          0 0 0 0 0 0
          0 0 0 0 0 0
          0 0 0 0 0 0
          0 0 0 0 0 0
          0 0 0 0 0 0
          0 0 0 0 0 0
          0 0 0 0 0 0
          0 0 0 0 0 0
          0 0 0 0 0 0
          0 0 0 0 0 0
          0 0 0 0 0 0
          0 0 0 0 0 0
          0 0 0 0 0 0
          0 0 0 0 0 0
          0 0 0 0 0 0
          0 0 0 0 0 0
          0 0 0 0 0 0
          0 0 0 0 0 0
          0 0 0 0 0 0
          0 0 0 0 0 0
          0 0 0 0 0 0
          0 0 0 0 0 0
          0 0 0 0 0 0
          0 0 0 0 0 0
          0 0 0 0 0 0
          0 0 0 0 0 0
          0 0 0 0 0 0
          0 0 0 0 0 0
          0 0 0 0 0 0
          0 0 0 0 0 0
          0 0 0 0 0 0
          0 0 0 0 0 0
          0 0 0 0 0 0
          0 0 0 0 0 0
          0 0 0 0 0 0
          0 0 0 0 0 0
          0 0 0 0 0 0
          0 0 0 0 0 0
          0 0 0 0 0 0
          0 0 0 0 0 0
          0 0 0 0 0 0
          0 0 0 0 0 0
          0 0 0 0 0 0
          0 0 0 0 0 0
          0 0 0 0 0 0
          0 0 0 0 0 0
          0 0 0 0 0 0
          0 0 0 0 0 0
          0 0 0 0 0 0
          0 0 0 0 0 0
          0 0 0 0 0 0
          0 0 0 0 0 0
          0 0 0 0 0 0
          0 0 0 0 0 0
          0 0 0 0 0 0
          0 0 0 0 0 0
          0 0 0 0 0 0
          0 0 0 0 0 0
          0 0 0 0 0 0
          0 0 0 0 0 0
          0 0 0 0 0 0
          0 0 0 0 0 0
          0 0 0 0 0 0
          0 0 0 0 0 0
          0 0 0 0 0 0
          0 0 0 0 0 0
          0 0 0 0 0 0
          0 0 0 0 0 0
          0 0 0 0 0 0
          0 0 0 0 0 0
          0 0 0 0 0 0
          0 0 0 0 0 0
          0 0 0 0 0 0
          0 0 0 0 0 0
          0 0 0 0 0 0
          0 0 0 0 0 0
          0 0 0 0 0 0
          0 0 0 0 0 0
          0 0 0 0 0 0
          0 0 0 0 0 0
          0 0 0 0 0 0
          0 0 0 0 0 0
          0 0 0 0 0 0
          0 0 0 0 0 0
          0 0 0 0 0 0
          0
        </DataArray>
        <DataArray type="Float64" Name="initial_marker" format="ascii" RangeMin="0" RangeMax="2">
          0.5 0 0 0 0 0
          0.25 2 2 2 2 0
          0 0 2 2 2 2
          1 1 2 2 0.5 2
          2 1 2 2 2 2
          2 2 2 0.25 2 0
          2 0 1.75 1.25 2 2
          2 2 2 2 2 2
          2 2 2 2 2 2
          2 2 0 0.75 0 0.25
          0 0 0 0 0 0
          0 0 0 0 0 0
          0 0 0 0 0 0
          0 0 0 0 0 0
          0 0 0 0 0 0
          0 0 0 0 0 0
          0 2 2 2 2 2
          2 2 2 2 2 2
          2 2 2 2 2 2
          2 2 2 2 2 2
          2 2 2 2 2 2
          2 2 2 2 2 1
          1.5 1.5 2 2 1.5 2
          2 2 2 2 2 2
          2 2 2 2 2 2
          2 2 2 1 1.5 1.5
          1.75 1.25 2 2 2 2
          2 2 2 2 2 2
          2 2 2 2 2 2
          2 2 2 2 2 2
          2 2 2 2 2 2
          2 2 2 2 2 2
          2 2 2 2 1.5 1.75
          1 1.5 1.25 2 2 2
          0.5 1.25 0 1 0 1
          1 2 2 2 0 1
          0 1 0 1 1 2
          2 2 0 1 0 0.75
          0 1 0.5 2 1.75 2
          2 2 2 2 2 2
          2 2 2 2 2 2
          2 2 2 2 2 2
          2 2 2 2 2 2
          2 2 2 2 2 2
          2 2 2 2 2 2
          2 2 2 2 2 2
          2 2 2 2 2 2
          2 2 2 2 2 2
          2 2 2 2 2 2
          2 2 2 2 2 2
          2 2 2 2 2 2
          2 2 2 2 2 2
          2 2 2 2 2 2
          2 2 2 2 2 2
          2 2 2 2 2 2
          2 2 2 2 2 2
          2 2 2 2 2 2
          2 2 2 2 2 2
          2 2 0 0.5 0 0.5
          0 0 0 1.5 1.6666666666666667 1.3333333333333333
          2 2 2 1.75 2 2
          2 2 1.5 1 1.5 1.25
          2 2 2 0 0 1
          1 0 1 1 0 1
          1 0 0 1 1 0
          1 0 1 0 1 0
          1 0 1 0 1 0
          1 0 0.75 0 0.25 0
          0 0 0 0 0 0
          0 0 0 0 0 0
          0 0 0 0 0 0
          0 0 0 0 0 0
          0 0 0.75 0 0 0
          0 0 1 1 1 0
          0 0 0.75 0 0 0
          0 0 0 0 0 0
          0 0 0 0 0 0
          0 0 0 0 2 2
          2 2 2 2 2 2
          2 2 2 2 2 2
          2 2 2 2 2 2
          2 2 2 2 2 2
          2 2 2 2 2 2
          2 2 2 2 2 2
          1.75 2 2 2 1.25 1.5
          2 2 2 2 2 2
          2 2 2 2 0.5 1
          2 2 2 2 2 2
          2 2 2 2 2 2
          2 2 2 2 2 2
          2 2 2 2 2 2
          2 2 2 2 2 2
          2 2 2 2 2 2
          2 2 2 2 2 2
          2 2 2 2 2 2
          2 2 2 2 2 2
          2 2 2 2 2 2
          2 2 2 2 2 2
          2 2 2 2 2 2
          2 2 2 2 2 2
          2 2 2 2 2 2
          2 2 2 0 0.75 0.5
          1.75 1.25 2 2 2 1.75
          2 2 2 2 2 2
          2 2 2 2 0 1
          0.75 0.6666666666666666 2 2 2 1.75
          2 1.5 1 2 2 2
          2 0 0.75 0.5 2 2
          1.75 1.25 2 2 2 2
          2 0 0.75 0.3333333333333333 2 1.75
          1.75 1.25 1.25 1.3333333333333333 1.3333333333333333 2
          2 2 2 1 1.5 0
          1
        </DataArray>
        <DataArray type="Float64" Name="markers_norefine" format="ascii" RangeMin="0" RangeMax="0">
          0 0 0 0 0 0
          0 0 0 0 0 0
          0 0 0 0 0 0
          0 0 0 0 0 0
          0 0 0 0 0 0
          0 0 0 0 0 0
          0 0 0 0 0 0
          0 0 0 0 0 0
          0 0 0 0 0 0
          0 0 0 0 0 0
          0 0 0 0 0 0
          0 0 0 0 0 0
          0 0 0 0 0 0
          0 0 0 0 0 0
          0 0 0 0 0 0
          0 0 0 0 0 0
          0 0 0 0 0 0
          0 0 0 0 0 0
          0 0 0 0 0 0
          0 0 0 0 0 0
          0 0 0 0 0 0
          0 0 0 0 0 0
          0 0 0 0 0 0
          0 0 0 0 0 0
          0 0 0 0 0 0
          0 0 0 0 0 0
          0 0 0 0 0 0
          0 0 0 0 0 0
          0 0 0 0 0 0
          0 0 0 0 0 0
          0 0 0 0 0 0
          0 0 0 0 0 0
          0 0 0 0 0 0
          0 0 0 0 0 0