<?xml version="1.0"?>
<VTKFile type="UnstructuredGrid" version="0.1" byte_order="LittleEndian" header_type="UInt32" compressor="vtkZLibDataCompressor">
  <UnstructuredGrid>
    <Piece NumberOfPoints="1052" NumberOfCells="734">
      <PointData>
        <DataArray type="Int32" Name="libmesh_node_id" format="ascii" RangeMin="1262" RangeMax="9687">
          1262 1561 1562 1568 2267 2270
          2302 2303 2304 2305 2307 2308
          2309 2310 3322 3323 3324 3325
          3326 3327 3328 3329 3330 3331
          3332 3333 3334 3335 3346 3347
          3348 3349 3350 3351 3352 3353
          3354 3355 3382 3460 3461 3463
          3466 3468 3469 3470 3471 3472
          3473 3474 3475 3476 3477 3479
          3483 3485 3486 3487 3488 3489
          3490 3491 3494 3495 3497 3500
          3502 3503 3504 3505 3506 3507
          3508 3509 3510 3511 3513 3517
          3519 3520 3521 3522 3523 3524
          3525 3728 3729 3731 3733 3782
          3822 3824 3826 3828 3856 3858
          3860 3862 6151 6152 6153 6154
          6155 6156 6157 6158 6159 6160
          6161 6162 6163 6164 6165 6166
          6167 6168 6169 6170 6171 6172
          6173 6174 6175 6176 6177 6178
          6179 6180 6181 6182 6183 6184
          6185 6186 6187 6188 6189 6190
          6191 6192 6193 6194 6195 6196
          6197 6198 6239 6240 6241 6242
          6243 6244 6245 6246 6247 6248
          6249 6250 6251 6252 6253 6254
          6255 6256 6257 6258 6259 6260
          6261 6262 6263 6264 6265 6266
          6267 6268 6269 6270 6271 6272
          6273 6274 6275 6276 6277 6278
          6347 6348 6349 6350 6354 6355
          6357 6358 6359 6360 6361 6362
          6363 6364 6365 6748 6762 6776
          6777 6779 6782 6792 6794 6796
          6798 6799 6800 6801 6802 6803
          6804 6805 6806 6807 6808 6809
          6810 6811 6812 6813 6814 6815
          6816 6817 6818 6819 6820 6821
          6822 6823 6824 6825 6826 6827
          6828 6829 6830 6831 6832 6833
          6834 6835 6836 6837 6838 6839
          6840 6841 6842 6843 6844 6845
          6846 6847 6848 6849 6850 6851
          6852 6853 6854 6855 6856 6857
          6858 6859 6860 6861 6862 6863
          6864 6865 6878 6902 6904 6906
          6922 6923 6924 6925 6926 6927
          6928 6929 6930 6931 6932 6933
          6934 6935 6936 6937 6938 6939
          6940 6941 6942 6943 6944 6945
          6946 6947 6948 6949 6950 6951
          6952 6953 6954 6955 6956 6957
          6958 6959 6960 6961 6962 6963
          6964 6965 6966 6967 6968 6969
          6970 6971 6972 6973 6974 6975
          6976 6977 6988 6989 6990 6991
          6992 6993 6994 6995 6996 6997
          7005 7006 7007 7008 7009 7010
          7011 7022 7023 7024 7025 7026
          7027 7028 7029 7030 7031 7039
          7040 7041 7042 7043 7044 7045
          7046 7047 7048 7049 7050 7051
          7052 7053 7054 7055 7056 7057
          7058 7059 7060 7061 7062 7063
          7064 7065 7066 7067 7068 7069
          7070 7071 7072 7073 7074 7075
          7076 7077 7078 7079 7080 7081
          7082 7083 7084 7085 7086 7087
          7088 7089 7090 7091 7092 7093
          7094 7095 7096 7097 7098 7099
          7100 7101 7102 7103 7104 7105
          7106 7107 7108 7109 7110 7111
          7112 7113 7121 7122 7123 7124
          7125 7126 7127 7149 7150 7151
          7152 7153 7154 7155 7170 7171
          7172 7173 7174 7175 7176 7177
          7178 7179 7180 7181 7182 7183
          7184 7185 7186 7187 7188 7189
          7190 7191 7192 7193 7194 7195
          7196 7197 7198 7199 7200 7201
          7202 7203 7204 7205 7206 7207
          7208 7209 7210 7211 7212 7213
          7214 7215 7216 7217 7218 7219
          7220 7221 7222 7223 7224 7225
          7450 7451 7454 7455 7457 7458
          7461 7462 8091 8092 8093 8094
          8098 8099 8101 8102 8104 8119
          8120 8123 8124 8126 8128 8187
          8188 8191 8192 8193 8194 8196
          8207 8208 8209 8210 8211 8212
          8213 8214 8215 8216 8217 8218
          8221 8222 8224 8226 8359 8360
          8361 8362 8363 8364 8365 8366
          8367 8369 8370 8373 8374 8376
          8389 8390 8393 8395 8396 8398
          8409 8411 8413 8415 8423 8424
          8427 8429 8430 8432 8443 8445
          8447 8449 8525 8527 8528 8529
          8531 8539 8540 8541 8542 8543
          8544 8545 8546 8548 8553 8555
          8556 8557 8559 8567 8568 8569
          8570 8571 8572 8573 8637 8638
          8641 8643 8644 8646 8657 8659
          8661 8663 8671 8672 8675 8677
          8678 8680 8691 8693 8695 8697
          8773 8775 8776 8777 8779 8787
          8788 8789 8790 8791 8792 8793
          8801 8803 8804 8805 8807 8815
          8816 8817 8818 8819 8820 8821
          9406 9407 9410 9411 9413 2258
          1372 2262 2259 2260 2263 2264
          2261 1560 2265 2266 2284 2282
          2285 2283 2367 2373 2369 2374
          2394 2395 3312 3313 3314 3317
          3338 3339 3342 3380 3372 3381
          3373 3383 3384 3386 3385 3696
          3697 3698 3699 3703 3704 3724
          3725 3726 3727 3730 3783 3784
          3785 3786 3787 3788 6121 6122
          6123 6126 2268 6129 3320 6143
          6144 6147 6149 2269 6211 6212
          6215 6217 3344 6231 6232 6235
          6237 2271 6319 6320 6351 6352
          6323 6353 6325 6356 3378 3387
          6366 3388 6740 6742 6743 6741
          6746 6747 6745 6744 6749 6758
          6757 6761 6760 6759 6763 6774
          6775 6778 6780 6781 6783 6791
          6793 6795 6797 6874 6873 6877
          6876 6875 6879 6888 6887 6892
          6891 6901 6903 6905 6907 6916
          6915 6920 6919 6890 3481 6918
          2306 3464 6772 6980 6981 3465
          6983 3492 6986 3493 6789 6999
          3467 7001 7003 3496 7014 7015
          7017 3498 7020 3499 7033 7035
          7037 3501 6899 7115 3482 7117
          7119 3512 6913 7135 7129 7136
          7139 7133 7140 7143 7145 7147
          3516 7163 7157 7164 7167 7161
          7168 7138 3515 7166 2311 7402
          7452 7404 7453 7406 7456 3577
          3583 7459 7460 7463 3584 7481
          7430 7482 7483 7432 7484 7485
          7434 7486 7488 7489 7490 7491
          7492 7493 7701 7653 7702 7705
          7657 7706 7708 7709 7712 7713
          7729 7681 7730 7733 7685 7734
          7736 7737 7740 7741 8095 8096
          8097 8100 3706 8103 3707 8121
          8122 8125 8127 3709 8189 8190
          8195 8197 8201 8198 8202 8204
          8206 8219 8203 8220 8223 3732
          8225 2379 8368 3789 8371 8372
          8375 8377 8378 3790 8391 8392
          8394 3802 8397 3803 8410 8412
          8414 3806 8425 8426 8428 3808
          8431 3809 8444 8446 8448 3811
          8526 8530 8532 8534 8536 8538
          8535 8547 8549 8550 3823 8551
          8552 3825 8554 8558 8560 8562
          8564 8566 8574 8576 8578 8580
          8639 8640 8642 3836 8645 3837
          8658 8660 8662 3840 8673 8674
          8676 3842 8679 3843 8692 8694
          8696 3845 8774 8778 8780 8782
          8784 8786 8794 8796 8798 8800
          8802 8806 8808 8810 8812 8814
          8822 8824 8826 8828 9408 9409
          9412 3941 9414 9415 9416 9417
          9418 9419 3942 9440 9441 9442
          9443 9444 9445 9447 9449 9448
          9450 9451 9648 9649 9652 9653
          9655 9659 9676 9677 9680 9681
          9683 9687
        </DataArray>
        <DataArray type="Float64" Name="bounds" format="ascii" RangeMin="0" RangeMax="0">
          0 0 0 0 0 0
          0 0 0 0 0 0
          0 0 0 0 0 0
          0 0 0 0 0 0
          0 0 0 0 0 0
          0 0 0 0 0 0
          0 0 0 0 0 0
          0 0 0 0 0 0
          0 0 0 0 0 0
          0 0 0 0 0 0
          0 0 0 0 0 0
          0 0 0 0 0 0
          0 0 0 0 0 0
          0 0 0 0 0 0
          0 0 0 0 0 0
          0 0 0 0 0 0
          0 0 0 0 0 0
          0 0 0 0 0 0
          0 0 0 0 0 0
          0 0 0 0 0 0
          0 0 0 0 0 0
          0 0 0 0 0 0
          0 0 0 0 0 0
          0 0 0 0 0 0
          0 0 0 0 0 0
          0 0 0 0 0 0
          0 0 0 0 0 0
          0 0 0 0 0 0
          0 0 0 0 0 0
          0 0 0 0 0 0
          0 0 0 0 0 0
          0 0 0 0 0 0
          0 0 0 0 0 0
          0 0 0 0 0 0
          0 0 0 0 0 0
          0 0 0 0 0 0
          0 0 0 0 0 0
          0 0 0 0 0 0
          0 0 0 0 0 0
          0 0 0 0 0 0
          0 0 0 0 0 0
          0 0 0 0 0 0
          0 0 0 0 0 0
          0 0 0 0 0 0
          0 0 0 0 0 0
          0 0 0 0 0 0
          0 0 0 0 0 0
          0 0 0 0 0 0
          0 0 0 0 0 0
          0 0 0 0 0 0
          0 0 0 0 0 0
          0 0 0 0 0 0
          0 0 0 0 0 0
          0 0 0 0 0 0
          0 0 0 0 0 0
          0 0 0 0 0 0
          0 0 0 0 0 0
          0 0 0 0 0 0
          0 0 0 0 0 0
          0 0 0 0 0 0
          0 0 0 0 0 0
          0 0 0 0 0 0
          0 0 0 0 0 0
          0 0 0 0 0 0
          0 0 0 0 0 0
          0 0 0 0 0 0
          0 0 0 0 0 0
          0 0 0 0 0 0
          0 0 0 0 0 0
          0 0 0 0 0 0
          0 0 0 0 0 0
          0 0 0 0 0 0
          0 0 0 0 0 0
          0 0 0 0 0 0
          0 0 0 0 0 0
          0 0 0 0 0 0
          0 0 0 0 0 0
          0 0 0 0 0 0
          0 0 0 0 0 0
          0 0 0 0 0 0
          0 0 0 0 0 0
          0 0 0 0 0 0
          0 0 0 0 0 0
          0 0 0 0 0 0
          0 0 0 0 0 0
          0 0 0 0 0 0
          0 0 0 0 0 0
          0 0 0 0 0 0
          0 0 0 0 0 0
          0 0 0 0 0 0
          0 0 0 0 0 0
          0 0 0 0 0 0
          0 0 0 0 0 0
          0 0 0 0 0 0
          0 0 0 0 0 0
          0 0 0 0 0 0
          0 0 0 0 0 0
          0 0 0 0 0 0
          0 0 0 0 0 0
          0 0 0 0 0 0
          0 0 0 0 0 0
          0 0 0 0 0 0
          0 0 0 0 0 0
          0 0 0 0 0 0
          0 0 0 0 0 0
          0 0 0 0 0 0
          0 0 0 0 0 0
          0 0 0 0 0 0
          0 0 0 0 0 0
          0 0 0 0 0 0
          0 0 0 0 0 0
          0 0 0 0 0 0
          0 0 0 0 0 0
          0 0 0 0 0 0
          0 0 0 0 0 0
          0 0 0 0 0 0
          0 0 0 0 0 0
          0 0 0 0 0 0
          0 0 0 0 0 0
          0 0 0 0 0 0
          0 0 0 0 0 0
          0 0 0 0 0 0
          0 0 0 0 0 0
          0 0 0 0 0 0
          0 0 0 0 0 0
          0 0 0 0 0 0
          0 0 0 0 0 0
          0 0 0 0 0 0
          0 0 0 0 0 0
          0 0 0 0 0 0
          0 0 0 0 0 0
          0 0 0 0 0 0
          0 0 0 0 0 0
          0 0 0 0 0 0
          0 0 0 0 0 0
          0 0 0 0 0 0
          0 0 0 0 0 0
          0 0 0 0 0 0
          0 0 0 0 0 0
          0 0 0 0 0 0
          0 0 0 0 0 0
          0 0 0 0 0 0
          0 0 0 0 0 0
          0 0 0 0 0 0
          0 0 0 0 0 0
          0 0 0 0 0 0
          0 0 0 0 0 0
          0 0 0 0 0 0
          0 0 0 0 0 0
          0 0 0 0 0 0
          0 0 0 0 0 0
          0 0 0 0 0 0
          0 0 0 0 0 0
          0 0 0 0 0 0
          0 0 0 0 0 0
          0 0 0 0 0 0
          0 0 0 0 0 0
          0 0 0 0 0 0
          0 0 0 0 0 0
          0 0 0 0 0 0
          0 0 0 0 0 0
          0 0 0 0 0 0
          0 0 0 0 0 0
          0 0 0 0 0 0
          0 0 0 0 0 0
          0 0 0 0 0 0
          0 0 0 0 0 0
          0 0 0 0 0 0
          0 0 0 0 0 0
          0 0 0 0 0 0
          0 0 0 0 0 0
          0 0 0 0 0 0
          0 0 0 0 0 0
          0 0 0 0 0 0
          0 0 0 0 0 0
          0 0
        </DataArray>
        <DataArray type="Float64" Name="gradient_error" format="ascii" RangeMin="4.883966470372461e-12" RangeMax="6.752037169492051e-9">
          3.149553752452833e-9 1.411258813746664e-10 5.479265616826168e-11 1.9319697222347057e-9 8.133008985483363e-11 1.111719333535642e-10
          3.8074154346859726e-9 2.9425101303647337e-9 2.211296544951009e-9 1.6900221472737812e-9 7.298804784431539e-10 2.875719412743548e-9
          4.3091872479534675e-9 3.2935720120923156e-9 1.862657042682064e-10 1.7793406903809615e-10 1.2625066047499983e-10 1.2033437197544235e-10
          1.069006891359731e-10 7.610546327847212e-11 7.249442829698821e-11 1.549462775466005e-10 1.0423011116901613e-10 6.269103461589936e-11
          2.2166979709255794e-10 2.0908160131973796e-10 1.3293375960313836e-10 1.7552367301364305e-10 1.2339989517423867e-10 8.223187715191423e-11
          7.398317610762769e-11 4.9388006936641684e-11 9.008974101589304e-11 5.938215663675969e-11 3.557253732222369e-11 1.3133865146086664e-10
          8.269545033520303e-11 8.778737925063323e-11 3.459235652722786e-11 1.2507556070507657e-9 1.1785180285628038e-9 9.84942523873127e-10
          3.569282151528177e-9 9.038794185088479e-10 8.489928401074793e-10 6.199996397316639e-10 5.80552072322597e-10 7.029480475704553e-10
          4.764416443428333e-10 2.960548754431962e-9 2.7714494442738958e-9 2.0686330562326354e-9 2.2798308030203783e-9 7.284876665756299e-10
          2.1496139144536614e-9 5.122098924727638e-10 3.4257865631613646e-10 3.2853174845193763e-10 2.1629928231761585e-10 1.6460632255887605e-9
          1.1971198897300314e-9 1.0314016696416724e-9 6.149486955340461e-9 6.05010817112009e-9 5.5125503292697356e-9 3.2109729117077173e-9
          5.5765101764347645e-9 5.370151778882511e-9 4.510134393279669e-9 4.237413088649049e-9 4.589442162530661e-9 3.5056127769878642e-9
          2.8262203240104834e-9 3.404548979108694e-9 3.3205815247697466e-9 4.1313300117514035e-9 4.225646313007328e-9 4.455537459926496e-9
          3.3511171176988695e-9 2.5673159233273623e-9 2.1575933125560624e-9 1.6281559795008997e-9 3.589361422192892e-9 2.729496988322642e-9
          2.505851352292288e-9 3.1308973441703934e-11 2.0715441197756676e-11 4.990722585486296e-11 3.286085404561158e-11 2.0368543227923775e-11
          2.177175436088495e-10 1.357589424931424e-10 8.21811176209073e-10 4.882044932390916e-10 1.8919918607530998e-9 1.1595076461098301e-9
          2.0588271618555313e-9 1.4101106816520362e-9 8.329669335373188e-11 8.216366334703036e-11 1.3064979855953729e-10 1.2884830382947892e-10
          6.532875886792995e-11 1.0456737602305972e-10 1.0311226925064352e-10 7.892226264376948e-11 1.2362703650990115e-10 9.889574816503616e-11
          2.7322630471459335e-10 2.6931447460924955e-10 2.1845204504652143e-10 2.57916458916952e-10 5.1890457081444307e-11 5.117687373718354e-11
          8.27236684174613e-11 8.156364563046734e-11 3.968026606080731e-11 6.47673347557113e-11 6.385310575085414e-11 4.9132984689701844e-11
          7.820154281446236e-11 6.120265896424277e-11 1.778658877428005e-10 1.752524733833886e-10 1.3903032064963923e-10 1.6764559480957406e-10
          7.389485170489981e-11 1.1544675920146224e-10 5.871405314224781e-11 9.22937688243629e-11 6.738910302481794e-11 1.0491442345635817e-10
          8.380122456879213e-11 2.3999807789832057e-10 1.943661449983275e-10 2.1701929788071199e-10 4.5963054456136206e-11 7.293828484114032e-11
          3.5616357343202386e-11 5.705371650923453e-11 4.1864611240640577e-11 6.617268978988393e-11 5.172416287420931e-11 1.5571143441925413e-10
          1.2337714767614475e-10 1.404521105002297e-10 5.987579849063812e-11 9.280310004425994e-11 4.751275712912648e-11 7.404592940321285e-11
          5.181829607524832e-11 7.991487829627155e-11 6.366900830663051e-11 1.90730802204855e-10 1.5400933368216033e-10 1.629672996657325e-10
          3.713899873632901e-11 5.840940032936098e-11 2.8740343027565264e-11 4.5614638861974337e-11 3.2063162643572405e-11 5.016013841498113e-11
          3.913104474935549e-11 1.230588444885532e-10 9.728066050372644e-11 1.0476578897088426e-10 4.374932454430034e-11 6.704548479327538e-11
          3.458214269418987e-11 5.330819961660976e-11 3.620152650913233e-11 5.486199058442508e-11 4.357402015701088e-11 1.3542630064809756e-10
          1.0890272374667145e-10 1.0948507192273765e-10 2.6966087176884562e-11 4.1933050655395324e-11 2.0839272620541624e-11 3.267449837377388e-11
          2.2360164977338708e-11 3.421655527593653e-11 2.66111493040339e-11 8.669618636306198e-11 6.831171415584569e-11 6.970147130937706e-11
          2.9692931151305934e-11 4.373181691690427e-11 2.4013775968133033e-11 3.4546380163149243e-11 8.616028285223623e-11 6.874181630207301e-11
          1.9017760913387368e-11 2.7009141640458293e-11 1.473909897170357e-11 2.097195394564874e-11 1.7793245855890016e-11 2.3481525185655303e-11
          1.8230460343576998e-11 5.4195592948127865e-11 4.2386011557797775e-11 1.2323110640476886e-9 1.0937998632580914e-9 2.2399165799356668e-9
          2.206211374912548e-9 2.108260977095151e-9 3.746548526070584e-9 1.9547998514090057e-9 1.7582016990966566e-9 3.2921047913875635e-9
          5.524939662217501e-10 5.44294481128721e-10 4.565122861537713e-10 4.4960068172427945e-10 5.204095614326701e-10 4.294845265706966e-10
          1.069887935384014e-9 1.05369695027966e-9 8.898461312149982e-10 1.0065136269715647e-9 3.7258525624173956e-10 3.668422938333386e-10
          3.0031787688362234e-10 2.956143936665281e-10 3.501414897665962e-10 2.819452097760667e-10 7.537134673247684e-10 7.417169457744779e-10
          6.0989769521302e-10 7.068245440809064e-10 4.828829900216014e-10 3.9793330138792755e-10 4.3481698036413105e-10 3.5762001856409783e-10
          9.323401201948894e-10 7.848872574580703e-10 8.372778079630559e-10 3.2398671890779625e-10 2.605690317055433e-10 2.9064136414908165e-10
          2.333745197858415e-10 6.521857465113366e-10 5.346959184172126e-10 5.825700762907128e-10 1.9593417578577444e-9 1.9293734704852253e-9
          1.6947664854853527e-9 1.6682095827041892e-9 1.8421282435745458e-9 1.5908334031178135e-9 3.3761049224452923e-9 3.3209111196816404e-9
          2.9119109851271222e-9 3.1610609999181453e-9 1.44739985346475e-9 1.4240685612987859e-9 1.2194553424164e-9 1.19921378852375e-9
          1.3561576310778203e-9 1.1403525446928295e-9 2.571201280108881e-9 2.5290204048164222e-9 2.174769499061109e-9 2.4068616045527456e-9
          1.7050480328467679e-9 1.4692546073186441e-9 1.5291814077943768e-9 1.3135814764283742e-9 2.9133409244492095e-9 2.5539990339520565e-9
          2.6026026758185987e-9 1.249628530300904e-9 1.0482656117317796e-9 1.1136100464815884e-9 9.311698715188083e-10 2.2167397029406844e-9
          1.902382119638955e-9 1.975275402940874e-9 8.602420731616824e-10 1.5329214938259311e-9 1.2945404299163408e-9 2.552633050681871e-9
          3.7996769630978524e-10 3.1175683272003596e-10 3.222668560096373e-10 2.636806357184532e-10 7.287423321050338e-10 6.097549991522501e-10
          6.145823993371898e-10 2.528142533386578e-10 2.0260467982668846e-10 2.1329231362443226e-10 1.705504594598679e-10 5.037096982729681e-10
          4.10714628451023e-10 4.2156786065712247e-10 2.6536404743034244e-10 2.164534410635313e-10 2.1228769318441077e-10 1.725767972806338e-10
          5.021926210495959e-10 4.167236028709122e-10 3.9772825875398097e-10 1.7460314452518258e-10 1.3927038426649145e-10 1.387815446636472e-10
          1.1039314670240166e-10 3.416039703500017e-10 2.7658544005263674e-10 2.681735890052652e-10 1.3280222634040272e-9 1.1361814193995269e-9
          1.1161128177888188e-9 9.50259262092435e-10 2.254799426397958e-9 1.9703562765638564e-9 1.892292528512085e-9 9.593135977748601e-10
          7.989401424114961e-10 7.984741465242613e-10 6.618331250601316e-10 1.700949562040604e-9 1.4487324632651048e-9 1.4134372815870452e-9
          9.072881162145603e-10 7.681549810594105e-10 7.131098587805837e-10 6.000327671104729e-10 1.535007216946504e-9 1.3270186359910784e-9
          1.2016598923146355e-9 6.419136784807626e-10 5.292746855051098e-10 4.984781188785076e-10 4.087591381003356e-10 1.1322066629048238e-9
          9.527236498402064e-10 8.736312147173039e-10 6.164849121998803e-9 6.087135187629317e-9 5.687986867337109e-9 5.609833704378697e-9
          5.851971389190475e-9 5.3765650354207865e-9 6.4514220551074745e-9 6.425302783733898e-9 6.128999330733234e-9 6.344084083872151e-9
          5.462601840153883e-9 4.9950893471398946e-9 4.935519488990977e-9 4.483219004101649e-9 6.180935250452123e-9 5.864122743188577e-9
          5.871946505918444e-9 4.548981014299652e-9 4.5982036261347884e-9 4.280297423447364e-9 4.334884236004707e-9 4.717944711327327e-9
          4.506331982612031e-9 3.247293665993116e-9 3.3244160699413575e-9 2.9479654763523178e-9 3.4975235672431995e-9 4.914016024618775e-9
          4.778370899684576e-9 5.149308176140414e-9 5.008078353711321e-9 3.822737811240939e-9 3.722149868450806e-9 4.35304447454302e-9
          5.1859346333382315e-9 5.107374907013831e-9 4.638303687808507e-9 4.563572999583671e-9 4.875369769471517e-9 4.343735575428561e-9
          5.885861775875476e-9 5.856270149222425e-9 5.528928365550771e-9 5.747300364056491e-9 4.076813782525668e-9 4.007715913214656e-9
          3.5298315260066565e-9 3.469328198334079e-9 3.807108124780061e-9 3.2949455318196388e-9 5.117045109061541e-9 5.052662986303285e-9
          4.4406592730984805e-9 4.852134567180492e-9 4.502826606473866e-9 3.9950397898693534e-9 4.016302239502551e-9 3.5507270240215877e-9
          5.5095700269177074e-9 5.062469764556684e-9 5.092651303269066e-9 3.4953413215585325e-9 3.026767064075707e-9 3.1052266647991096e-9
          2.6920975651037504e-9 4.507904595947998e-9 3.916399144753306e-9 4.040759010671444e-9 4.136140303362743e-9 4.219884900771798e-9
          4.214686281343579e-9 4.2916236138644855e-9 4.447508051601684e-9 4.4703682383122585e-9 2.6356623484875308e-9 2.7770030755251252e-9
          2.9886344815077827e-9 3.1935801628105574e-9 4.2483531442858805e-9 4.281940007234468e-9 3.963078909140733e-9 3.959197511196849e-9
          4.33348599283872e-9 3.920420877668517e-9 3.164209464313574e-9 3.275778348131099e-9 3.206020152838815e-9 3.5341239566181805e-9
          4.718539281856506e-9 4.609217998844723e-9 4.839770800594296e-9 4.534436920823704e-9 3.785094190175252e-9 3.8773204774175e-9
          4.283480430535741e-9 4.291187585314023e-9 3.7911249651716744e-9 4.069317157489766e-9 3.5378790628482092e-9 3.75511886775011e-9
          3.378235760073439e-9 3.7699580333716976e-9 4.2997479729282045e-9 3.879927796063081e-9 3.610419119484368e-9 3.2460775492813944e-9
          5.363111782367829e-9 4.955227082998707e-9 4.64928092608452e-9 5.212916763996799e-9 4.9673093438394434e-9 4.905072286737857e-9
          4.534605088213196e-9 4.7787666046309005e-9 4.627898880177249e-9 4.769936345338402e-9 3.461118898747697e-9 3.055945180401438e-9
          2.8913468515056327e-9 2.551575515677662e-9 4.491474087189699e-9 3.9924099556735725e-9 3.784301246777184e-9 2.673626695313525e-9
          2.3171348583695116e-9 2.2292053046575994e-9 1.9246949880676825e-9 3.5006629510250942e-9 3.0448429649652968e-9 2.9434496196310255e-9
          2.344801707852689e-9 2.062790975039475e-9 1.8391516934231725e-9 1.607177042621184e-9 3.0815420360802406e-9 2.732027779056795e-9
          2.4388315603354832e-9 1.7929982188641642e-9 1.537823602807977e-9 1.3863246475009512e-9 1.1793686943474766e-9 2.4016910513192817e-9
          2.089021572398218e-9 1.8867474017764104e-9 4.630083666254092e-9 4.178058540988803e-9 4.094563677991772e-9 3.626757106087321e-9
          4.392622155233993e-9 4.011401918553227e-9 4.048304918524635e-9 3.670767244498381e-9 3.180087929386752e-9 3.176221313196291e-9
          2.7706452154158444e-9 3.5359612721188003e-9 3.056882720314978e-9 3.136202168499404e-9 3.414995955109361e-9 3.0248414783724796e-9
          2.7544651529787523e-9 2.4492164450059612e-9 3.4469049488072784e-9 3.0471705242779074e-9 2.8161416847398808e-9 2.6658025055858146e-9
          2.3350764759792212e-9 2.1580012852699653e-9 1.8786136507723467e-9 2.6831393671714156e-9 2.3541152683507904e-9 2.212736784583964e-9
          1.6533645766344991e-10 1.341460223579258e-10 3.054849256509914e-10 2.5112806135003174e-10 1.0750189515237944e-10 8.517249768309788e-11
          2.041053411814279e-10 1.6398626806984825e-10 3.102892840480703e-11 3.0598562158602984e-11 5.025472205250217e-11 4.954078028239554e-11
          2.936481578677348e-11 4.747161717207828e-11 1.1072187718646282e-10 1.090628699424097e-10 1.0423785339756215e-10 2.7450903929967785e-11
          4.423427325872265e-11 2.497839344346185e-11 4.0078437149984636e-11 9.667957339937816e-11 8.703663960280022e-11 2.2131076453071245e-11
          3.531810183874869e-11 1.9079709726357116e-11 3.0271098395949235e-11 2.3197926658962442e-11 7.607611215161416e-11 6.458516094146513e-11
          1.6028039802011103e-11 2.5250040817684883e-11 1.2236182906522301e-11 1.933238786866656e-11 1.3268773829543555e-11 2.0536943468487725e-11
          1.570534249157512e-11 5.3269590160638484e-11 4.110870126674202e-11 4.264775832165907e-11 9.198372087393708e-12 1.4627409747963114e-11
          7.607939885590569e-12 1.1869663825334938e-11 3.139550066179191e-11 2.5061893255071927e-11 1.134488605940957e-11 1.6181459233854698e-11
          8.648403193737027e-12 1.2367903903250539e-11 1.0694622829046346e-11 1.4078396437310986e-11 1.0763947565640211e-11 3.291190591501448e-11
          2.5331395048925725e-11 6.494165900139332e-12 9.32930276169018e-12 6.117463400115993e-12 8.10637876323183e-12 1.9284817276724242e-11
          2.3905020556038995e-10 2.3525348534933766e-10 2.2422756597885262e-10 5.029850272241184e-10 4.946140602361636e-10 4.703189751201696e-10
          2.0700770770859884e-10 1.8514034899956713e-10 4.324312517123554e-10 3.844489146892131e-10 1.0126558722206326e-9 9.953690683569164e-10
          9.45178571688205e-10 1.8807652488660413e-9 1.8489255380422795e-9 1.7562526773723563e-9 8.668539493757013e-10 7.675848112202942e-10
          1.6109606734159551e-9 1.42574525545536e-9 1.604542208899728e-10 1.3480536302061113e-10 1.0533244537684107e-10 3.305193607102082e-10
          2.748519879489853e-10 1.0984493803136794e-10 8.56708769322701e-11 8.686035354996023e-11 6.760725288394688e-11 2.2118193745814236e-10
          1.7470479058086356e-10 1.723840611324025e-10 6.60780371782853e-11 5.205835335969821e-11 6.559864338663561e-10 5.409534181278789e-10
          4.3594240578579243e-10 1.2163339211336458e-9 9.993719004121062e-10 4.305038542851168e-10 3.454114355561236e-10 3.308172903979706e-10
          2.64243887479428e-10 7.902196761260019e-10 6.457917637877823e-10 6.012264958747163e-10 3.025313164576485e-9 2.9746025015152113e-9
          2.8282294033882138e-9 3.86702028901617e-9 3.80755901888936e-9 3.6341866682534475e-9 2.6012236959953814e-9 2.3130999250525365e-9
          3.3633136757742034e-9 3.0213516202596337e-9 3.4529823973006133e-9 3.440740459936459e-9 3.3857804267723122e-9 2.8064989104308532e-9
          2.8400910545016097e-9 2.9024180059254795e-9 3.2538042901527583e-9 3.0341955457077908e-9 2.912026580448574e-9 2.818054882802871e-9
          1.9848537118496995e-9 1.6392219608029952e-9 1.3751820966352638e-9 2.6339508755899926e-9 2.218472335318457e-9 1.300065688624153e-9
          1.0823704816820975e-9 9.887581676865654e-10 8.164721918906756e-10 1.7932208756143762e-9 1.5161061410276235e-9 1.3846832902236705e-9
          2.7477454573625472e-9 2.410074034037011e-9 2.078472630459036e-9 2.6328242359906554e-9 2.3770092698005077e-9 2.024060402119308e-9
          1.7292341519659992e-9 1.6122775752998606e-9 1.362419556444973e-9 2.0476376492349326e-9 1.7563796917777689e-9 1.6633486758712493e-9
          6.681865108426291e-11 5.189586726062462e-11 1.302395675856605e-10 1.0225762809767619e-10 3.988231070247021e-11 5.180344508578906e-10
          1.546869510804036e-10 1.5836736720546683e-10 4.6040417243806517e-10 4.0889498889407066e-10 1.4546762891257863e-10 1.2566404409201432e-10
          3.551489542991675e-10 1.082050943900704e-10 3.1786948349140174e-10 2.321165746444668e-10 5.837524650328516e-11 1.7154836704310121e-10
          3.954656945125212e-11 1.1612034156552424e-10 5.2153472377773376e-11 3.583666952124091e-11 4.123461880504104e-11 2.666334903034464e-11
          1.9616811759417796e-11 1.3441437965756116e-11 2.864497361148816e-10 2.0184657060847918e-10 1.9248662863258065e-10 1.6706384779352278e-10
          1.9974926626372522e-10 1.3233597280787314e-10 9.588893357696024e-11 5.90091020148174e-11 9.84373195164926e-11 5.377539733403481e-11
          6.388096465926948e-11 4.6974151419792486e-11 3.5354414650401066e-11 5.096155182113666e-11 5.924188368538154e-11 6.523839912034408e-11
          6.225560662561992e-11 4.4487837912345634e-11 4.235689939567369e-11 5.408831067564885e-11 3.6590337762909914e-11 4.300546367222426e-11
          2.8788849398357187e-11 2.41175909105147e-11 1.6138278568515584e-11 1.1606137472183316e-11 2.7943757411233084e-11 1.1413972371059592e-11
          1.5743696656162963e-11 1.2611130412472944e-11 3.0757753886872874e-11 1.749595005260542e-11 1.0253513101560224e-10 1.6172871978288195e-10
          1.5952244542115846e-10 1.5312684990423652e-10 3.331619876464299e-10 3.284656392199904e-10 3.147740554600424e-10 9.229805176970534e-11
          1.4310018155585857e-10 1.3017611119376664e-10 2.932251495329414e-10 2.655437088178452e-10 7.490960017617541e-11 1.1529430890060252e-10
          9.944652805553545e-11 2.338081088777879e-10 2.002083899987883e-10 5.4951875761670866e-11 8.361227280466283e-11 6.85277866161693e-11
          1.6678395330496703e-10 1.3523948183809104e-10 3.679416520198341e-11 5.4776184183860884e-11 2.4222851808137725e-11 3.38439559306049e-11
          4.270241716294342e-11 2.863169087784824e-11 1.0674522384860144e-10 6.566776970694085e-11 8.192509962819725e-11 6.514438011510474e-11
          4.707028558348113e-11 5.36702020896573e-11 7.8132966038259e-10 6.607189077357335e-10 6.511231030383486e-10 7.702391567148111e-10
          1.4453528462673904e-9 1.4245863093211182e-9 6.231457780679072e-10 7.378815247045852e-10 1.3639770769301695e-9 5.791162276880938e-10
          6.86878891553447e-10 1.2683813816598629e-9 5.225821279121701e-10 6.2123687903166e-10 1.1452303156912612e-9 2.536561659680057e-9
          2.498658024176293e-9 2.388748111039181e-9 4.243231406435837e-9 4.177827105025811e-9 3.986368397967284e-9 2.2172381943028886e-9
          1.9986685425044157e-9 3.6839589132644204e-9 3.2971541840000386e-9 4.5786161326770194e-10 5.458477462450184e-10 1.0037083291254023e-9