<?xml version="1.0"?>
<VTKFile type="UnstructuredGrid" version="0.1" byte_order="LittleEndian" header_type="UInt32" compressor="vtkZLibDataCompressor">
  <UnstructuredGrid>
    <Piece NumberOfPoints="1118" NumberOfCells="736">
      <PointData>
        <DataArray type="Int32" Name="libmesh_node_id" format="ascii" RangeMin="1263" RangeMax="8028">
          1263 1373 1557 1559 1560 1563
          1564 1567 1569 1581 1583 1587
          1589 1777 1780 2225 2242 2251
          2252 2253 2257 2265 2266 2271
          2272 2273 2274 2275 2276 2277
          2278 2279 2280 2281 2282 2283
          2284 2285 2286 2287 2288 2289
          2291 2296 2297 2301 2306 2311
          2312 2313 2314 2315 2316 2317
          2318 2319 2321 2323 2325 2346
          2347 2348 2349 2350 2351 2352
          2353 2354 2355 2356 2357 2358
          2360 2361 2362 2363 2365 2685
          2686 2687 2688 2689 2690 2691
          2692 2693 2694 2695 2696 2697
          2698 2699 2700 2701 3226 3254
          3264 3266 3268 3294 3302 3303
          3304 3307 3340 3341 3342 3345
          3356 3357 3358 3359 3360 3361
          3362 3363 3364 3365 3366 3367
          3368 3369 3370 3371 3372 3373
          3374 3375 3376 3377 3378 3379
          3380 3381 3384 3385 3387 3389
          3413 3416 3419 3420 3423 3446
          3447 3453 3454 3457 3480 3481
          3484 3514 3515 3518 3526 3527
          3528 3529 3530 3531 3532 3533
          3534 3535 3536 3537 3538 3539
          3540 3541 3542 3543 3544 3545
          3546 3547 3548 3549 3550 3551
          3552 3553 3554 3555 3556 3557
          3558 3559 3560 3561 3562 3563
          3564 3565 3566 3567 3568 3569
          3570 3571 3572 3573 3574 3575
          3576 3577 3578 3579 3580 3581
          3582 3590 3591 3592 3593 3594
          3595 3596 3597 3598 3599 3600
          3610 3611 3612 3613 3614 3615
          3616 3624 3625 3626 3627 3628
          3629 3630 3638 3639 3640 3641
          3642 3643 3644 3645 3646 3647
          3648 3649 3650 3651 3652 3653
          3654 3655 3656 3657 3658 3659
          3660 3661 3662 3663 3664 3665
          3666 3667 3668 3669 3670 3671
          3682 3683 3684 3685 3686 3687
          3688 4431 4432 4433 4434 4435
          4436 4437 4438 4439 4440 4441
          4442 4443 4444 4445 4446 4447
          4448 4449 4450 4451 4452 4453
          4454 4523 4524 4525 4526 4527
          4528 4529 4530 4531 4532 4533
          4534 4535 4536 4537 4538 4539
          4540 4541 4544 4545 4547 4548
          4549 4550 4551 4552 4553 4554
          4555 4556 4557 4558 4559 4560
          4561 4562 4563 4564 4565 4566
          4567 4568 4569 4570 6091 6097
          6098 6099 6102 6220 6222 6223
          6224 6225 6226 6227 6228 6230
          6232 6233 6234 6235 6236 6237
          6238 6279 6280 6281 6282 6283
          6284 6285 6286 6287 6288 6289
          6290 6291 6292 6293 6294 6295
          6296 6297 6298 6299 6300 6301
          6302 6303 6304 6305 6306 6307
          6308 6309 6310 6311 6312 6313
          6314 6315 6316 6317 6318 6319
          6320 6321 6322 6323 6324 6325
          6326 6327 6328 6329 6330 6331
          6332 6333 6334 6335 6336 6337
          6338 6339 6340 6341 6342 6343
          6344 6345 6346 6351 6352 6353
          6356 6367 6368 6369 6370 6371
          6372 6373 6374 6375 6376 6461
          6465 6466 6469 6483 6487 6488
          6491 6691 6697 6698 6701 6719
          6725 6726 6729 6880 6881 6882
          6883 6884 6885 6886 6887 6888
          6889 6890 6891 6892 6893 6908
          6909 6910 6911 6912 6913 6914
          6915 6916 6917 6918 6919 6920
          6921 7128 7129 7130 7131 7132
          7133 7134 7135 7136 7137 7138
          7139 7140 7141 7156 7157 7158
          7159 7160 7161 7162 7163 7164
          7165 7166 7167 7168 7169 7226
          7227 7228 7229 7230 7231 7232
          7233 7234 7235 7236 7237 7238
          7239 7240 7241 7242 7243 7244
          7245 7246 7247 7248 7249 7250
          7251 7252 7253 7254 7255 7256
          7257 7258 7259 7260 7261 7262
          7263 7264 7265 7266 7267 7268
          7269 7270 7271 7272 7273 7274
          7275 7276 7277 7278 7279 7280
          7281 7282 7283 7284 7285 7286
          7287 7288 7289 7290 7291 7292
          7293 7294 7295 7296 7297 7298
          7299 7300 7301 7302 7303 7304
          7305 7306 7307 7308 7309 7310
          7311 7312 7313 7314 7315 7316
          7317 7318 7319 7320 7321 7322
          7323 7324 7325 7326 7327 7328
          7329 7330 7331 7332 7333 7334
          7335 7336 7337 7338 7339 7340
          7341 7342 7343 7344 7345 7346
          7347 7348 7349 7350 7351 7352
          7353 7354 7355 7356 7357 7358
          7359 7360 7361 7362 7363 7364
          7365 7366 7367 7368 7369 7370
          7371 7372 7373 7374 7375 7376
          7377 7378 7379 7380 7381 7382
          7383 7384 7385 7386 7387 7388
          7389 7390 7391 7392 7393 7394
          7395 7396 7397 7398 7399 7400
          7401 7402 7403 7404 7405 7406
          7407 7408 7409 7410 7411 7412
          7413 7414 7415 7416 7417 7418
          7419 7420 7421 7422 7423 7424
          7425 7426 7427 7428 7429 7430
          7431 7432 7433 7434 7435 7436
          7437 7438 7439 7440 7441 7442
          7443 7444 7445 7446 7447 7448
          7449 7452 7456 7464 7466 7468
          7470 7509 7510 7511 7512 7513
          7514 7515 7516 7517 7518 7519
          7520 7521 7522 7523 7524 7525
          7526 7527 7528 7529 7530 7531
          7532 7533 7534 7535 7536 7537
          7538 7539 7540 7541 7542 7543
          7544 7545 7546 7547 7548 7549
          7550 7551 7552 7553 7554 7555
          7556 7557 7558 7559 7560 7561
          7562 7563 7564 7565 7566 7567
          7568 7569 7570 7571 7572 7573
          7574 7575 7576 7577 7578 7581
          7582 7584 7586 7645 7646 7647
          7648 7649 7650 7651 7652 7653
          7654 7655 7656 7657 7658 7659
          7660 7661 7662 7663 7664 7665
          7666 7667 7668 7669 7670 7671
          7672 7673 7674 7675 7676 7677
          7678 7679 7680 7681 7682 7683
          7684 7685 7686 7687 7688 7689
          7690 7691 7692 7693 7694 7695
          7696 7697 7698 7699 7700 7757
          7758 7759 7760 7761 7762 7763
          7764 7765 7766 7767 7768 7769
          7770 7771 7772 7773 7774 7775
          7776 7777 7778 7779 7780 7781
          7782 7783 7784 7785 7786 7787
          7788 7789 7790 7791 7792 7793
          7794 7795 7796 7797 7798 7799
          7800 7801 7802 7803 7804 7805
          7806 7807 7808 7809 7810 7811
          7812 7869 7870 7871 7872 7873
          7874 7875 7876 7877 7878 7879
          7880 7881 7882 7883 7884 7885
          7886 7887 7888 7889 7890 7891
          7892 7893 7894 7895 7896 7897
          7898 7899 7900 7901 7902 7903
          7904 7905 7906 7907 7908 7909
          7910 7911 7912 7913 7914 7915
          7916 7917 7918 7919 7920 7921
          7922 7923 7924 7925 7926 7927
          7928 7929 7930 7931 7932 7933
          7934 7935 7936 7937 7938 7939
          7940 7941 7942 7943 7944 7945
          7946 7967 7968 7969 7970 7971
          7972 7973 7974 7975 7976 7977
          7978 7979 7980 7981 7982 7983
          7984 7985 7986 7987 7988 7989
          7990 7991 7992 7993 7994 7995
          7996 7997 7998 7999 8000 8001
          8002 8003 8004 8005 8006 8007
          8008 8009 8010 8011 8012 8013
          8014 8015 8016 8017 8018 8019
          8020 8021 8022 8023 8024 8025
          8026 8027 8028 1572 1580 1584
          1375 1573 1585 1576 1582 1376
          1586 1770 1782 1773 1546 1370
          1783 2202 2185 2203 2206 1548
          2208 1551 2238 2240 1378 2338
          2339 2342 2344 1578 2577 2572
          2579 4395 4387 1380 4401 4392
          4397 4402
        </DataArray>
        <DataArray type="Float64" Name="bounds" format="ascii" RangeMin="0" RangeMax="0">
          0 0 0 0 0 0
          0 0 0 0 0 0
          0 0 0 0 0 0
          0 0 0 0 0 0
          0 0 0 0 0 0
          0 0 0 0 0 0
          0 0 0 0 0 0
          0 0 0 0 0 0
          0 0 0 0 0 0
          0 0 0 0 0 0
          0 0 0 0 0 0
          0 0 0 0 0 0
          0 0 0 0 0 0
          0 0 0 0 0 0
          0 0 0 0 0 0
          0 0 0 0 0 0
          0 0 0 0 0 0
          0 0 0 0 0 0
          0 0 0 0 0 0
          0 0 0 0 0 0
          0 0 0 0 0 0
          0 0 0 0 0 0
          0 0 0 0 0 0
          0 0 0 0 0 0
          0 0 0 0 0 0
          0 0 0 0 0 0
          0 0 0 0 0 0
          0 0 0 0 0 0
          0 0 0 0 0 0
          0 0 0 0 0 0
          0 0 0 0 0 0
          0 0 0 0 0 0
          0 0 0 0 0 0
          0 0 0 0 0 0
          0 0 0 0 0 0
          0 0 0 0 0 0
          0 0 0 0 0 0
          0 0 0 0 0 0
          0 0 0 0 0 0
          0 0 0 0 0 0
          0 0 0 0 0 0
          0 0 0 0 0 0
          0 0 0 0 0 0
          0 0 0 0 0 0
          0 0 0 0 0 0
          0 0 0 0 0 0
          0 0 0 0 0 0
          0 0 0 0 0 0
          0 0 0 0 0 0
          0 0 0 0 0 0
          0 0 0 0 0 0
          0 0 0 0 0 0
          0 0 0 0 0 0
          0 0 0 0 0 0
          0 0 0 0 0 0
          0 0 0 0 0 0
          0 0 0 0 0 0
          0 0 0 0 0 0
          0 0 0 0 0 0
          0 0 0 0 0 0
          0 0 0 0 0 0
          0 0 0 0 0 0
          0 0 0 0 0 0
          0 0 0 0 0 0
          0 0 0 0 0 0
          0 0 0 0 0 0
          0 0 0 0 0 0
          0 0 0 0 0 0
          0 0 0 0 0 0
          0 0 0 0 0 0
          0 0 0 0 0 0
          0 0 0 0 0 0
          0 0 0 0 0 0
          0 0 0 0 0 0
          0 0 0 0 0 0
          0 0 0 0 0 0
          0 0 0 0 0 0
          0 0 0 0 0 0
          0 0 0 0 0 0
          0 0 0 0 0 0
          0 0 0 0 0 0
          0 0 0 0 0 0
          0 0 0 0 0 0
          0 0 0 0 0 0
          0 0 0 0 0 0
          0 0 0 0 0 0
          0 0 0 0 0 0
          0 0 0 0 0 0
          0 0 0 0 0 0
          0 0 0 0 0 0
          0 0 0 0 0 0
          0 0 0 0 0 0
          0 0 0 0 0 0
          0 0 0 0 0 0
          0 0 0 0 0 0
          0 0 0 0 0 0
          0 0 0 0 0 0
          0 0 0 0 0 0
          0 0 0 0 0 0
          0 0 0 0 0 0
          0 0 0 0 0 0
          0 0 0 0 0 0
          0 0 0 0 0 0
          0 0 0 0 0 0
          0 0 0 0 0 0
          0 0 0 0 0 0
          0 0 0 0 0 0
          0 0 0 0 0 0
          0 0 0 0 0 0
          0 0 0 0 0 0
          0 0 0 0 0 0
          0 0 0 0 0 0
          0 0 0 0 0 0
          0 0 0 0 0 0
          0 0 0 0 0 0
          0 0 0 0 0 0
          0 0 0 0 0 0
          0 0 0 0 0 0
          0 0 0 0 0 0
          0 0 0 0 0 0
          0 0 0 0 0 0
          0 0 0 0 0 0
          0 0 0 0 0 0
          0 0 0 0 0 0
          0 0 0 0 0 0
          0 0 0 0 0 0
          0 0 0 0 0 0
          0 0 0 0 0 0
          0 0 0 0 0 0
          0 0 0 0 0 0
          0 0 0 0 0 0
          0 0 0 0 0 0
          0 0 0 0 0 0
          0 0 0 0 0 0
          0 0 0 0 0 0
          0 0 0 0 0 0
          0 0 0 0 0 0
          0 0 0 0 0 0
          0 0 0 0 0 0
          0 0 0 0 0 0
          0 0 0 0 0 0
          0 0 0 0 0 0
          0 0 0 0 0 0
          0 0 0 0 0 0
          0 0 0 0 0 0
          0 0 0 0 0 0
          0 0 0 0 0 0
          0 0 0 0 0 0
          0 0 0 0 0 0
          0 0 0 0 0 0
          0 0 0 0 0 0
          0 0 0 0 0 0
          0 0 0 0 0 0
          0 0 0 0 0 0
          0 0 0 0 0 0
          0 0 0 0 0 0
          0 0 0 0 0 0
          0 0 0 0 0 0
          0 0 0 0 0 0
          0 0 0 0 0 0
          0 0 0 0 0 0
          0 0 0 0 0 0
          0 0 0 0 0 0
          0 0 0 0 0 0
          0 0 0 0 0 0
          0 0 0 0 0 0
          0 0 0 0 0 0
          0 0 0 0 0 0
          0 0 0 0 0 0
          0 0 0 0 0 0
          0 0 0 0 0 0
          0 0 0 0 0 0
          0 0 0 0 0 0
          0 0 0 0 0 0
          0 0 0 0 0 0
          0 0 0 0 0 0
          0 0 0 0 0 0
          0 0 0 0 0 0
          0 0 0 0 0 0
          0 0 0 0 0 0
          0 0 0 0 0 0
          0 0 0 0 0 0
          0 0 0 0 0 0
          0 0 0 0 0 0
          0 0 0 0 0 0
          0 0 0 0 0 0
          0 0
        </DataArray>
        <DataArray type="Float64" Name="gradient_error" format="ascii" RangeMin="6.489045327061028e-12" RangeMax="5.4855687269897666e-8">
          1.1833996200571747e-11 4.5281040928155594e-11 5.551280572224892e-10 3.020361784286493e-10 1.082050943900704e-10 2.401569038308434e-10
          3.0312027808817725e-10 4.483103703648463e-9 2.733893108093104e-10 2.850771560797382e-10 4.984217865993114e-11 1.076253470847433e-10
          4.474435004591818e-11 2.2700928538184474e-10 5.7898347613051854e-11 4.689420864866514e-8 4.895265470325377e-8 1.2938787817029215e-9
          5.725270667499769e-9 5.470354505316044e-10 1.859001049925311e-8 3.1786948349140174e-10 2.321165746444668e-10 1.3523948183809104e-10
          9.418548266060066e-10 2.8880025998290995e-9 4.3519252661919173e-10 3.0736248790550263e-10 6.313072765022103e-10 1.4338183354800785e-9
          2.988943328214434e-10 1.7276715211956838e-8 1.990193733907288e-10 6.2107356882772024e-9 1.7154836704310121e-10 1.1612034156552424e-10
          5.837524650328516e-11 3.954656945125212e-11 7.734594012047807e-11 1.044642612724203e-10 3.5329796879831635e-11 7.542441789301338e-11
          1.0502319768899618e-10 3.246103481916888e-8 2.1831981397898135e-9 2.017295557748941e-8 1.3825196477577886e-9 3.147738067504419e-9
          2.8478083871019162e-8 6.968631348887175e-10 1.6053449106074e-8 1.4289597888933733e-10 2.9160231570214568e-8 1.476686527215253e-9
          2.213445243884479e-8 3.7622631041524235e-10 6.43208537636641e-11 9.311338580026203e-10 1.3744215122517746e-10 1.8256312358581276e-9
          3.5171699733519694e-9 3.8691677840540606e-10 2.3537149983249887e-10 6.908500383400479e-10 7.419983478492924e-10 2.1373224684974435e-10
          4.416891505389394e-9 1.1542384143567741e-10 7.895913276092114e-10 1.3698104751720157e-10 8.66844863712774e-11 4.720013436109213e-11
          1.0493715934710927e-10 8.244895862306849e-11 2.952320147912204e-11 4.387867267032414e-11 4.374428140380881e-11 6.601816437079516e-10
          1.0386859689745033e-9 7.250397141562827e-10 4.1982596354114597e-10 7.264480220829585e-10 1.1637615221523302e-10 2.776547571943747e-10
          2.698296626759321e-10 4.701810746430454e-10 1.4502238555890413e-10 3.6711929708212315e-11 9.490457449600789e-11 1.3396773832071257e-11
          3.2825971149473384e-11 2.8863640297107112e-11 5.1461092846477695e-11 1.8872929462206476e-11 2.9549026772897534e-8 2.4353230436140752e-8
          2.7779246936376337e-8 2.1639215848479658e-8 3.120526343661192e-8 1.5531887431607868e-9 8.273539941739032e-10 9.571212710546972e-10
          2.605142036990549e-10 2.6644566623390886e-9 2.3798089032557423e-10 1.5457437518233422e-10 9.588893357696024e-11 2.0166702650360406e-10
          7.721986264380345e-10 1.0544712364045403e-9 7.4131211817853e-10 3.613166566046696e-9 5.619723362117417e-10 6.493902125135048e-10
          2.769311466200497e-10 1.7598442500304952e-10 3.852820706373793e-10 5.089608845240869e-10 2.0992849163501364e-10 1.9569163667874365e-9
          1.9268529606407714e-10 1.2908292846878764e-9 1.621462968580929e-10 1.0407008077461249e-10 9.84373195164926e-11 6.388096465926948e-11
          1.0187211762030112e-10 1.2028022731322133e-10 7.331596514694278e-11 1.2428445860993704e-10 8.192509962819725e-11 1.189421353152357e-10
          5.90091020148174e-11 5.377539733403481e-11 3.5354414650401066e-11 5.924188368538154e-11 6.514438011510474e-11 6.125181203043184e-11
          1.2632887368088891e-8 3.049055852330565e-8 6.244197783347348e-9 8.972171968134247e-10 1.2734055806043909e-8 2.831394045898374e-8
          2.6315257871474904e-8 1.4688248097835044e-8 3.927690637914455e-9 1.204745470215506e-8 6.60746116765391e-10 4.759792186223806e-10
          1.7678923768891592e-9 3.3327177848652767e-9 2.7296225665375977e-9 3.8480530487820025e-9 7.926534533147924e-9 4.933751007146514e-9
          2.2665116463571135e-8 1.7084242418009718e-8 1.750046091429924e-8 4.341883084733466e-9 5.51910607149477e-10 2.690731231619924e-9
          3.0559189204816823e-10 8.18662953744164e-9 1.3134330996233946e-9 4.700396005149097e-9 1.344689274891755e-9 2.8054690175250504e-9
          1.5101538478938333e-9 4.635539806572201e-9 8.096664273774642e-10 1.5227241054628597e-9 1.9851127418753e-10 1.5337529558535234e-10
          5.680103041238378e-10 8.49827280758639e-10 1.2764455370210263e-10 2.5459986319274623e-9 3.299764469544042e-10 1.3360962147571846e-9
          2.6147659081442424e-8 2.406054625463867e-8 1.9960208850796065e-8 1.4733573647032189e-8 2.963020169931372e-8 2.747646877254952e-8
          2.2419956787292892e-8 1.2778814680885347e-8 2.3259516175061166e-9 7.022937368450599e-9 1.2236836871096595e-9 1.4712912892615897e-8
          2.7472670846526403e-9 8.070641711811757e-9 6.835890339400859e-9 3.5590891601110047e-9 7.936856705236354e-9 3.780984712566102e-9
          5.595129690570034e-10 1.943991634244557e-9 2.3012181319163847e-10 4.4028660031558695e-9 6.751119713406092e-10 2.2609683406573203e-9
          3.9178880902514306e-10 2.7544756976825134e-10 2.0761623536877682e-10 1.4226132580543607e-10 1.0221527181254377e-9 7.72688204033033e-10
          5.17014074256056e-10 1.1436109839088529e-10 9.940384243029618e-11 7.106020282916984e-11 6.638739592484184e-11 9.993888393720544e-11
          7.384747210100417e-11 4.7376755542574424e-11 2.3212909501663223e-10 1.6281555614435484e-10 9.491781269698482e-11 4.4045787239718076e-11
          1.932752855946057e-9 1.5489639439218365e-9 9.685378790542026e-10 7.42154304920259e-10 2.3156910449866864e-9 1.8883581525082053e-9
          1.1932654109374665e-9 4.169917698318264e-10 3.0478684189844105e-10 1.6057357896468999e-10 1.1238976883211801e-10 5.133479728189561e-10
          3.810758024742861e-10 1.9394175567424522e-10 4.841872246633494e-10 6.6205165965984e-10 5.061673818127957e-10 1.001652723583921e-9
          3.76433511859832e-10 4.4567600200042404e-10 2.0299759067635042e-10 1.705843279385018e-10 2.6433292610406124e-10 3.6988193958955115e-10
          1.801818905955396e-10 5.769008757880798e-10 1.0477805706047605e-10 3.8504368200218633e-10 1.3108436755774804e-9 6.383473835331166e-10
          1.4582979986434494e-9 7.227756654077854e-10 8.778411936568697e-11 3.87356352279641e-10 9.985696426825737e-11 8.070017150524537e-10
          1.021976231782361e-10 4.3406912712377796e-10 1.1143050488592799e-10 9.579227236403268e-11 6.906102346228794e-11 6.000468227687618e-11
          7.217071042275171e-11 1.0262748704290957e-10 6.384073550849884e-11 6.288890363997127e-11 4.0694595022780115e-11 7.732670164247906e-11
          5.7576823502596276e-11 3.874957572418258e-11 5.928682990374359e-11 3.7722603166934854e-11 6.798731325626447e-11 4.617851976794865e-11
          6.859329278815447e-11 1.7750152877835303e-10 2.457885589551834e-10 1.8574599986424565e-10 3.140755891320137e-10 1.3337148673583208e-10
          1.789364220850825e-10 6.527104398324314e-11 8.031054108052266e-11 9.137332601737845e-11 1.2009651228268133e-10 3.792643703640332e-11
          2.2450135743433287e-10 9.53500381778022e-11 1.4881969854798418e-10 3.037326077567272e-11 3.425168296841887e-11 1.2599237688551297e-11
          1.3323773517804755e-11 1.8713753857103116e-11 1.550521052001758e-11 6.489045327061028e-12 3.813010516116502e-11 1.4048309347058215e-11
          1.2296667182932042e-11 3.4231996081179137e-10 4.784580575621184e-10 3.7071370756521717e-10 2.4509048187222736e-10 3.8065331442019355e-10
          1.1433074986316358e-10 2.1874430800610712e-10 1.885965316670351e-10 2.867884790600157e-10 1.5684572784554395e-10 6.431556348160414e-11
          1.2425013283082148e-10 3.7705795454258054e-11 7.553239535745659e-11 5.332870152583151e-11 8.888911375311369e-11 5.3497510771650104e-11
          2.2168840222337998e-11 4.607992413633066e-11 1.7977242204984826e-11 3.2330966719803065e-11 1.8518330671284829e-10 2.0950461144520728e-10
          1.670434771199706e-10 2.3382591617756626e-10 1.5767405296868503e-10 1.7681311055867027e-10 1.0221547989398397e-10 1.1322867646853795e-10
          1.1943556453473716e-10 1.2387728153453382e-10 6.522315492308923e-11 1.959521681486555e-10 1.2424187304309194e-10 1.2831899853433045e-10
          6.074845573122805e-11 6.706651484919074e-11 3.7516457932096667e-11 4.1841932510886306e-11 4.192731609646506e-11 4.0095985454111944e-11
          2.4302189187808026e-11 7.338457396715343e-11 4.6167407089675946e-11 3.826465481175883e-11 2.4233853042855853e-10 1.653395224658617e-10
          2.1363767055940055e-10 1.646056612083902e-10 3.9010951708539266e-10 1.5749365240801178e-10 1.2780108508318026e-10 8.867851615594337e-11
          1.3034003639776022e-10 1.0532042546859563e-10 2.9906898070555124e-10 2.4697946248141655e-10 2.4549778845436526e-10 1.0363924076385246e-10
          8.361227280466283e-11 5.696306738560168e-11 8.514280502109865e-11 6.85277866161693e-11 2.0361734407705842e-10 1.6678395330496703e-10
          1.6562493614279236e-10 1.685935062874656e-10 2.034646877891385e-10 1.6600575871168332e-10 3.7032113436323275e-10 1.3715819366613297e-10
          1.7753520144684103e-10 9.298832113168789e-11 1.3430138594611604e-10 1.1120553246476e-10 1.4375041376277635e-10 1.071492925256723e-10
          3.2106661425896547e-10 2.442054264092683e-10 2.5825780752409763e-10 1.08402231898108e-10 1.3031321785747192e-10 1.1351213273558452e-10
          2.3623344588530226e-10 8.923245423632491e-11 1.1255673186981718e-10 6.117192387089095e-11 8.30068647484239e-11 7.995723362618862e-11
          9.79376345922466e-11 7.167132900648242e-11 2.0126514525872876e-10 1.4737422961713075e-10 1.730006305014326e-10 7.22197872537177e-11
          1.0541219998510196e-10 5.771432403221653e-11 8.47266868533961e-11 5.789191398315643e-11 8.332741005974957e-11 6.655248993197862e-11
          1.9650651025421188e-10 1.6044594227067735e-10 1.532457390276454e-10 4.605733154464293e-11 6.823521929884757e-11 3.679416520198341e-11
          5.4776184183860884e-11 3.6590752201555256e-11 5.337344021544307e-11 4.270241716294342e-11 1.312058470700459e-10 1.0674522384860144e-10
          1.0115341676885166e-10 4.682485744134399e-11 6.381880185922403e-11 3.697076217913142e-11 5.0642892796759024e-11 4.249685705265936e-11
          5.467063470532742e-11 4.323444441539742e-11 1.1573393004242738e-10 9.32311875604911e-11 9.62751190138532e-11 2.928427241234694e-11
          4.04013096646425e-11 2.346244818417816e-11 3.2246421777955334e-11 2.6415247073271155e-11 3.435882274081214e-11 2.7415523640012515e-11
          7.552256764696752e-11 6.092753840545227e-11 6.244068146910457e-11 2.4222851808137725e-11 3.38439559306049e-11 2.863169087784824e-11
          6.566776970694085e-11 1.9548160353483405e-11 2.557093535789387e-11 1.8166988520489435e-11 2.2589980999406703e-11 1.7444685707372438e-11
          2.1918432171890277e-11 1.961632156118367e-11 4.856263916722803e-11 4.40089351398659e-11 4.027289609411229e-11 7.196331524083526e-10
          6.509286949419035e-10 5.325274885631284e-10 1.0698624571338587e-9 1.7592939785038838e-9 1.6443077568857122e-9 1.4391562583736092e-9
          2.4263805126252703e-9 3.536196848497015e-9 3.372964995084026e-9 3.0817525374690322e-9 4.162946945423275e-9 4.927292845469353e-9
          4.607277684783133e-9 4.3903255157979944e-9 4.714295217506895e-9 5.451456702565302e-10 4.6005079824339106e-10 4.440676576688848e-10
          3.7257889559178425e-10 9.499804288170375e-10 8.209138041786352e-10 7.697560094057903e-10 3.864070944096724e-10 3.2183156535012033e-10
          3.114738283193308e-10 2.5838839838492523e-10 7.041893234190769e-10 5.980345006729398e-10 5.634739401412758e-10 1.571986966072637e-9
          1.3910420191929121e-9 1.2690137672207178e-9 1.1148260398551401e-9 2.4512002122050343e-9 2.213205749116399e-9 1.9698296931353794e-9
          1.2198685852285993e-9 1.0582684563962554e-9 9.711498675165047e-10 8.370755109945918e-10 1.9803458594840414e-9 1.7536202082003285e-9
          1.571897965863486e-9 3.552186454202491e-9 3.2446735344519563e-9 2.8274498539503075e-9 2.5754472946405535e-9 4.5423543283854685e-9
          4.19256384246283e-9 3.6356419717141506e-9 2.9381714947052856e-9 2.6372203813958364e-9 2.3255388063415155e-9 2.079434818073153e-9
          3.822114769942372e-9 3.4476446211716197e-9 3.0287637006500268e-9 4.925431738675076e-9 4.60338887721466e-9 4.0860224065626804e-9
          3.754461103877906e-9 4.912606293716836e-9 4.6207624465549375e-9 4.183658002025387e-9 4.229727950821732e-9 3.824337024978781e-9
          3.4130117597295115e-9 3.0765105351174218e-9 4.266235409699804e-9 3.86342095938993e-9 3.4961499808751584e-9 5.947992875623171e-10
          4.837567451757649e-10 9.534088266107408e-10 5.317043376969307e-10 4.2641388465202343e-10 4.261473381902296e-10 3.3321350696675e-10
          8.629336440982603e-10 7.132053931732177e-10 6.793183546901128e-10 3.8432071789615754e-10 2.942105309464341e-10 5.904937445599676e-10
          3.338422305067857e-10 2.544666010989014e-10 2.5318840701537315e-10 1.8911035190868053e-10 5.233507937759797e-10 4.1588201806758973e-10
          3.9268830839282326e-10 1.4265259194860878e-9 1.1166832617171736e-9 2.063393481397628e-9 1.3210714517135312e-9 1.1381981908209892e-9
          1.0278083031919496e-9 8.740058217255408e-10 1.939814082807841e-9 1.7196028524195968e-9 1.4973596252878055e-9 8.572545904922037e-10
          6.442049599615868e-10 1.2096954011128014e-9 7.808243041237564e-10 6.51607458518534e-10 5.793370607510794e-10 4.725526199712631e-10
          1.1240641188470317e-9 9.715177680172656e-10 8.235072729750172e-10 1.7977899379633945e-10 2.1978912457561894e-10 1.6130692655607876e-10
          3.309086671754794e-10 1.486844922367626e-10 1.8731938947264512e-10 1.0295403549072195e-10 1.3695099478954637e-10 1.0821999080709697e-10
          1.3602319898374487e-10 9.725291454884402e-11 2.874148918324886e-10 2.1913084633566525e-10 2.05959591360717e-10 9.354421472132202e-11
          1.1355158535864989e-10 9.663321086503877e-11 1.6652217051070212e-10 7.749076365674728e-11 9.572398067962937e-11 5.279922447953438e-11
          6.772872502264419e-11 6.640269311428386e-11 8.03005841203962e-11 5.533689274221832e-11 1.4247739765482548e-10 1.0488890397507002e-10
          1.0883087326449777e-10 4.702013958806351e-10 3.374406454956877e-10 6.435015657104795e-10 4.1834861826401534e-10 3.3401259757692956e-10
          2.960218593265365e-10 2.3033852915777405e-10 5.853442380906384e-10 4.859807878454125e-10 4.0853279199500077e-10 2.3254664379974062e-10
          1.626577828068632e-10 3.0929269000153883e-10 2.029900521967317e-10 1.5566915569753626e-10 1.3887384334334526e-10 1.0241841206119626e-10
          2.756645354236122e-10 2.1940212977584436e-10 1.8750918955228936e-10 2.8378343888586403e-9 2.193249426367774e-9 3.4049988913544536e-9
          2.677389222665921e-9 2.408209110527277e-9 2.0604711765862268e-9 1.8338522685107523e-9 3.2908700966096934e-9 3.0569159034680335e-9
          2.53539259926735e-9 1.647036768529095e-9 1.2105116596408991e-9 1.989878754828873e-9 1.5383272123831257e-9 1.351520856986301e-9
          1.1181283356784048e-9 9.630245101323132e-10 1.8966303127923167e-9 1.7182824240296391e-9 1.3814420176863446e-9 3.857556716369468e-9
          3.001814734949338e-9 4.087523826391728e-9 3.7247653243440966e-9 3.4613933486032257e-9 2.877971048521656e-9 2.6469121246336944e-9
          3.898404006518987e-9 3.5761843690273425e-9 3.0204342545021855e-9 2.2511358317891697e-9 1.670638240573878e-9 2.3791173284561988e-9
          2.1561568299265826e-9 1.9710874104028294e-9 1.5774017513517832e-9 1.4107168050700911e-9 2.263561422035696e-9 2.056093580175838e-9
          1.6592939835119133e-9 8.541652519059482e-10 6.005941077335183e-10 1.031026859263713e-9 7.843008966663799e-10 6.650976687149795e-10
          5.41533658780975e-10 4.4575346578051136e-10 9.64099311267495e-10 8.416465761998796e-10 6.635797580893063e-10 3.993785749126915e-10
          2.754911042059791e-10 4.781867367651518e-10 3.5948807464678346e-10 2.9226620792418786e-10 2.410835317867687e-10 1.8745308930262248e-10
          4.3633649317632004e-10 3.6312593491369146e-10 2.905219351738318e-10 1.1669959537269588e-9 8.233372172183815e-10 1.2316502740826386e-9
          1.099109819400647e-9 9.714844491812068e-10 7.561085599696191e-10 6.440081288929398e-10 1.1557560729893685e-9 1.018620964272688e-9
          7.950102804246056e-10 5.389391191154485e-10 3.703443394580039e-10 5.672844370969536e-10 4.945329439016142e-10 4.1585757100824205e-10
          3.2805337916879917e-10 2.6168349682739296e-10 5.190224866832546e-10 4.3541015749647464e-10 3.4381218681209173e-10 3.521631144022083e-10
          2.9352084167359943e-10 2.7200502683495056e-10 2.2506917397894167e-10 6.059602328632891e-10 5.162498284295248e-10 4.636264868532988e-10
          2.441496578849075e-10 2.017344588819632e-10 1.862093659256424e-10 1.5321831557163563e-10 4.374747663814654e-10 3.6748076360019456e-10
          3.298065442398831e-10 2.0510995858768188e-10 1.6839948071017826e-10 1.5038948320355266e-10 1.2251158130060718e-10 3.450245377913263e-10
          2.890423955373831e-10 2.5010065560366376e-10 1.385564948084277e-10 1.1347145972393064e-10 1.0022158752218415e-10 8.166924049356395e-11
          2.4164608582911045e-10 2.0063511396326018e-10 1.7235780539764628e-10 9.937278282984319e-10 8.656926242064418e-10 7.544884140481449e-10
          6.512676150803767e-10 1.5362389642602378e-9 1.3670827977541886e-9 1.1599688726917423e-9 7.484558558530054e-10 6.405408747675564e-10
          5.585170728270064e-10 4.744407085422029e-10 1.2058051014620197e-9 1.0521263985997884e-9 8.933821637056915e-10 5.557052618383212e-10
          4.75034321582776e-10 3.9760685705147677e-10 3.3647705664853934e-10 8.476004113472465e-10 7.388843561696033e-10 5.998288970972391e-10
          4.039933187947298e-10 3.406135531719702e-10 2.837618237442719e-10 2.374850316386421e-10 6.395050381553934e-10 5.480545495814355e-10