<?xml version="1.0"?>
<VTKFile type="UnstructuredGrid" version="0.1" byte_order="LittleEndian" header_type="UInt32" compressor="vtkZLibDataCompressor">
  <UnstructuredGrid>
    <Piece NumberOfPoints="712" NumberOfCells="409">
      <PointData>
        <DataArray type="Int32" Name="libmesh_node_id" format="ascii" RangeMin="40" RangeMax="3170">
          44 45 46 47 48 49
          50 51 52 53 54 55
          56 57 58 59 60 61
          62 63 130 131 132 133
          134 135 136 137 138 139
          184 185 186 187 188 189
          190 191 192 193 227 228
          229 230 231 265 266 267
          268 269 270 271 272 273
          274 308 309 310 311 312
          352 353 354 355 392 393
          433 434 435 436 473 474
          514 515 516 517 554 555
          574 575 576 580 584 586
          587 588 589 590 591 592
          593 594 595 596 597 598
          599 600 601 602 603 607
          608 610 611 612 613 707
          708 709 712 715 717 718
          719 720 721 722 723 724
          725 726 727 728 729 730
          731 732 733 734 735 736
          737 738 739 740 741 742
          743 744 745 746 747 748
          749 750 751 752 753 754
          755 756 757 758 759 760
          761 762 766 767 768 769
          770 772 857 858 859 860
          861 862 863 864 865 866
          867 868 869 870 871 872
          873 874 878 879 945 946
          947 948 949 950 951 952
          953 954 955 956 957 958
          959 960 961 962 963 964
          965 966 967 968 969 970
          971 972 973 974 975 976
          977 978 979 980 981 982
          986 987 1168 1169 1170 1173
          1176 1178 1179 1180 1181 1182
          1183 1184 1185 1186 1187 1188
          1189 1190 1191 1192 1193 1194
          1195 1196 1197 1198 1199 1200
          1201 1202 1203 1204 1205 1206
          1207 1208 1209 1210 1211 1212
          1213 1214 1215 1216 1217 1218
          1219 1220 1221 1222 1223 1224
          1225 1226 1227 1228 1229 1230
          1231 1232 1233 1234 1235 1236
          1237 1238 1239 1240 1241 1242
          1243 1244 1245 1246 1247 1248
          1249 1250 1251 1252 1253 1254
          1255 1256 1257 1258 1259 1260
          1261 1262 1263 1264 1265 1266
          1267 1268 1269 1270 1271 1272
          1273 1274 1275 1276 1277 1278
          1279 1280 1281 1282 1283 1284
          1285 1286 1287 1288 1289 1290
          1291 1292 1293 1294 1295 1296
          1297 1298 1299 1300 1301 1302
          1303 1304 1305 1306 1307 1308
          1309 1310 1311 1312 1313 1314
          1315 1316 1317 1318 1319 1320
          1321 1322 1323 1324 1325 1326
          1327 1328 1329 1330 1331 1332
          1333 1337 1338 1340 1341 1343
          1344 1345 1346 1347 1348 1349
          1350 1351 1352 1353 1358 1363
          1736 1737 1741 1744 1746 1747
          1748 1749 1750 1751 1752 1753
          1754 1755 1756 1757 1758 1759
          1760 1761 1786 1787 1791 1794
          1796 1797 1798 1799 1800 1801
          1802 1803 1804 1805 1806 1807
          1808 1809 1810 1811 1812 1813
          1814 1815 1816 1817 1818 1819
          1820 1821 1822 1823 1824 1825
          1826 1827 1828 1829 1830 1831
          1884 1885 1886 1889 1906 1907
          1910 1912 1914 1915 1916 1917
          1918 1919 1920 1921 1922 1923
          1924 1925 1926 1927 1928 1929
          1930 1931 1932 1933 1934 1935
          1936 1937 1938 1939 1940 1941
          1942 1943 1944 1945 1946 1947
          1948 1949 1950 1951 1952 1953
          1954 1955 1956 1957 1958 1959
          1960 1961 1962 1963 1964 1965
          1966 1967 1968 1969 1970 1971
          1972 1973 1974 1975 1976 1977
          1978 1979 1980 1981 1982 1983
          1984 1985 1986 1987 1988 1989
          1990 1991 1992 1993 1994 1995
          1996 1997 1998 1999 2000 2001
          2002 2003 2004 2005 2006 2007
          2008 2009 2010 2011 2012 2013
          2014 2015 2016 2017 2018 2019
          2020 2021 2022 2023 2024 2025
          2026 2027 2028 2029 2030 2031
          2032 2035 2036 2038 2039 2047
          2048 2049 2050 3150 3151 3152
          3153 3154 3155 3156 3157 3158
          3159 3160 3161 3162 3163 3164
          3165 3166 3167 3168 3169 3170
          40 41 42 43 64 65
          66 67 128 129 140 141
          182 183 194 195 226 232
          263 264 275 276 307 313
          356 357 394 438 475 604
          606 609 875 876 877 880
          437 983 984 985 988 605
          763 992 997 774 780 1009
          1010 781 1011 1012 786 1019
          1020 1334 1335 1336 1339 764
          1342 765 1354 1355 1356 1357
          1359 1360 1361 1362 771 912
          914 919 519 922 556 1017
          1371 1372 2033 1373 2034 2037
          1377 776 1413 1396 1397 1415
          1420 1401 784 1423
        </DataArray>
        <DataArray type="Float64" Name="bounds" format="ascii" RangeMin="0" RangeMax="0">
          0 0 0 0 0 0
          0 0 0 0 0 0
          0 0 0 0 0 0
          0 0 0 0 0 0
          0 0 0 0 0 0
          0 0 0 0 0 0
          0 0 0 0 0 0
          0 0 0 0 0 0
          0 0 0 0 0 0
          0 0 0 0 0 0
          0 0 0 0 0 0
          0 0 0 0 0 0
          0 0 0 0 0 0
          0 0 0 0 0 0
          0 0 0 0 0 0
          0 0 0 0 0 0
          0 0 0 0 0 0
          0 0 0 0 0 0
          0 0 0 0 0 0
          0 0 0 0 0 0
          0 0 0 0 0 0
          0 0 0 0 0 0
          0 0 0 0 0 0
          0 0 0 0 0 0
          0 0 0 0 0 0
          0 0 0 0 0 0
          0 0 0 0 0 0
          0 0 0 0 0 0
          0 0 0 0 0 0
          0 0 0 0 0 0
          0 0 0 0 0 0
          0 0 0 0 0 0
          0 0 0 0 0 0
          0 0 0 0 0 0
          0 0 0 0 0 0
          0 0 0 0 0 0
          0 0 0 0 0 0
          0 0 0 0 0 0
          0 0 0 0 0 0
          0 0 0 0 0 0
          0 0 0 0 0 0
          0 0 0 0 0 0
          0 0 0 0 0 0
          0 0 0 0 0 0
          0 0 0 0 0 0
          0 0 0 0 0 0
          0 0 0 0 0 0
          0 0 0 0 0 0
          0 0 0 0 0 0
          0 0 0 0 0 0
          0 0 0 0 0 0
          0 0 0 0 0 0
          0 0 0 0 0 0
          0 0 0 0 0 0
          0 0 0 0 0 0
          0 0 0 0 0 0
          0 0 0 0 0 0
          0 0 0 0 0 0
          0 0 0 0 0 0
          0 0 0 0 0 0
          0 0 0 0 0 0
          0 0 0 0 0 0
          0 0 0 0 0 0
          0 0 0 0 0 0
          0 0 0 0 0 0
          0 0 0 0 0 0
          0 0 0 0 0 0
          0 0 0 0 0 0
          0 0 0 0 0 0
          0 0 0 0 0 0
          0 0 0 0 0 0
          0 0 0 0 0 0
          0 0 0 0 0 0
          0 0 0 0 0 0
          0 0 0 0 0 0
          0 0 0 0 0 0
          0 0 0 0 0 0
          0 0 0 0 0 0
          0 0 0 0 0 0
          0 0 0 0 0 0
          0 0 0 0 0 0
          0 0 0 0 0 0
          0 0 0 0 0 0
          0 0 0 0 0 0
          0 0 0 0 0 0
          0 0 0 0 0 0
          0 0 0 0 0 0
          0 0 0 0 0 0
          0 0 0 0 0 0
          0 0 0 0 0 0
          0 0 0 0 0 0
          0 0 0 0 0 0
          0 0 0 0 0 0
          0 0 0 0 0 0
          0 0 0 0 0 0
          0 0 0 0 0 0
          0 0 0 0 0 0
          0 0 0 0 0 0
          0 0 0 0 0 0
          0 0 0 0 0 0
          0 0 0 0 0 0
          0 0 0 0 0 0
          0 0 0 0 0 0
          0 0 0 0 0 0
          0 0 0 0 0 0
          0 0 0 0 0 0
          0 0 0 0 0 0
          0 0 0 0 0 0
          0 0 0 0 0 0
          0 0 0 0 0 0
          0 0 0 0 0 0
          0 0 0 0 0 0
          0 0 0 0 0 0
          0 0 0 0 0 0
          0 0 0 0 0 0
          0 0 0 0 0 0
          0 0 0 0 0 0
          0 0 0 0 0 0
          0 0 0 0
        </DataArray>
        <DataArray type="Float64" Name="gradient_error" format="ascii" RangeMin="9.78017825153142e-12" RangeMax="7.485042562391862e-7">
          1.7072360949745155e-10 1.1117751494955118e-10 4.128176763202056e-10 2.7764327334216006e-10 2.316579464001738e-10 1.3707737067335043e-10
          6.150163024819945e-10 3.6575048884297374e-10 3.2618541110325505e-10 1.7889351805507393e-10 8.685883049372942e-10 4.771591705698038e-10
          1.7182412686583137e-10 1.0346139013389967e-10 4.5346159308977896e-10 2.7226165127644547e-10 2.625654268686967e-11 2.635658204994001e-11
          6.999869555443352e-11 6.893250242464202e-11 5.1631420401650774e-11 1.4246887036411444e-10 4.249679494652709e-11 1.1648467520395297e-10
          3.160162500689282e-11 8.57300362023135e-11 3.509865340196797e-11 9.106170946311195e-11 2.6456621413010355e-11 6.786630929485054e-11
          1.5558646167869629e-9 1.1007044033342965e-9 2.5240334720205065e-9 1.5243180335950352e-9 3.5426760533490272e-9 1.9631691660668048e-9
          1.846673513213284e-9 1.1156148720544594e-9 2.972401974456778e-10 2.8936840684018495e-10 6.455441898816303e-10 5.246025951695639e-10
          3.8366227878458255e-10 3.845562308956347e-10 2.8149661623469215e-10 5.910907648790236e-9 4.413146432013465e-9 1.0276188272426958e-8
          6.315017542126254e-9 1.4202309722444123e-8 7.957811218695538e-9 7.417288321296107e-9 4.5218538196274355e-9 1.2676392569618367e-9
          1.217750502920677e-9 2.9153852152366945e-9 2.353846811825549e-9 1.7133127149469502e-9 1.6264193179587649e-9 1.1678617488795171e-9
          9.973995938076597e-9 8.530765851190867e-9 2.9414431463880152e-9 3.0471987657433274e-9 7.63828657146852e-9 3.793514796995359e-9
          2.9489224342668164e-8 6.58342976110308e-8 2.6115124012866214e-8 2.2591355010392688e-8 8.833178853133734e-9 3.8339512708103744e-9
          1.6480872578966556e-7 4.6184147591640294e-8 2.52461878800503e-7 1.6180770150717215e-8 8.079911710383344e-9 4.011343080367542e-9
          7.27163840047565e-8 3.4121241148832056e-7 5.612704922139284e-7 7.35418096208876e-8 5.823165725551242e-7 2.788112989641491e-8
          4.742125980268121e-8 3.102819831394277e-7 1.9482731394001961e-7 2.8901884207617343e-8 2.6915342238114484e-7 1.4738112641317724e-7
          5.224497247569761e-8 4.560754128639285e-8 2.480185204085625e-8 1.992758016065169e-7 5.531429161165404e-7 5.041712731940635e-7
          2.283349706046214e-8 2.2106271165249917e-8 1.5974718024704317e-8 2.1857157549298998e-7 9.884376553146754e-8 1.228691594326332e-8
          1.2988167124835432e-8 3.474526058244328e-7 4.3244499026971585e-7 3.3762229470729457e-7 2.0400927951721546e-8 5.74756100998904e-7
          3.2056772905848994e-7 5.925802151429793e-7 7.372715855163322e-7 3.322949808572249e-7 3.2657073022797033e-7 4.076039927003461e-7
          3.4307853664077186e-7 4.641273171402393e-7 2.3494481796485853e-7 3.6839177793422675e-7 3.4301865667425565e-7 4.530824814319155e-7
          5.697221459010623e-7 3.969445477465005e-7 1.8065791522751393e-7 3.5806701120217066e-7 3.880608486325624e-7 5.69505964538379e-7
          2.9107816019800256e-7 2.1811355861521324e-7 3.971271355991352e-7 3.6296955310424354e-7 1.9813500723379755e-7 4.296555338090913e-7
          3.833228968066817e-7 1.9998203902991888e-7 3.7529119333840825e-7 3.4908540849806075e-7 2.2271644775332403e-7 4.2221000306610465e-7
          4.6153191132007276e-7 5.314781130762375e-7 2.4491557255066637e-7 1.764927763825001e-7 4.6640788414623664e-7 4.046519779924053e-7
          1.5351891117758256e-7 5.076702611346043e-7 4.2663847412853893e-7 1.4902760847669136e-7 3.1903520329240297e-7 2.852312418411438e-7
          2.9187247554261657e-7 5.067994949939197e-7 5.586064071419476e-7 4.712268579191153e-7 1.9033570232809498e-7 1.2958112754579392e-7
          5.53512858423628e-7 4.487507943325886e-7 9.6215309426454e-8 2.479832204917063e-7 2.0790718275042355e-7 4.2346508216332523e-7
          6.170487228968752e-7 3.8777633534052227e-7 5.070009844838407e-9 4.794623857077544e-9 7.520912393510436e-9 2.2563567205722658e-8
          1.474019916850304e-8 1.4014534623884801e-8 2.1710722816937664e-8 3.187786913424995e-9 1.1194171733769056e-8 9.275487706912186e-9
          4.519237869316682e-9 1.3288870079266563e-8 2.0857878428152667e-8 7.356803680055314e-9 3.093532689723942e-9 2.1238573758942064e-9
          8.828110622617188e-9 6.070309265905347e-9 1.1541820620644705e-9 3.312507909193506e-9 2.7982374991987263e-8 2.5610606107849532e-8
          2.377039036155964e-8 2.3805080871306967e-7 2.2454385309612122e-7 1.7131119956613654e-7 1.8332001939011187e-7 2.7391963768837218e-8
          2.0797617733951258e-7 1.6051388424000298e-7 2.3238837223711802e-8 1.180785460361519e-7 1.2858923006715407e-7 1.1305159114049342e-7
          3.323943141818272e-8 2.799344362999357e-8 1.887701627783412e-7 1.4619861812785593e-7 2.718358925468441e-8 1.6695960932609743e-7
          1.279022567679618e-7 2.274745584180442e-8 1.0362707347737069e-7 8.884490420982615e-8 3.2450918020282506e-8 2.5469807499693194e-8
          1.4306608983632422e-7 1.083245112705919e-7 2.2875960500062973e-8 1.176203288800384e-7 8.798223496768964e-8 1.8488696979103883e-8
          7.358293270485956e-8 5.834414105534088e-8 2.5407612642746885e-8 1.9423662734362306e-8 9.12861268087866e-8 6.734001885163459e-8
          1.3439712825977729e-8 4.3393910894482604e-8 3.224690502480956e-7 2.3829527553823877e-7 2.8534372970409303e-7 3.360177472984465e-7
          2.3592532156405768e-7 2.3416502370677068e-7 2.2144100343781681e-7 2.2249349616982908e-7 2.903800944815721e-7 2.9594309461749807e-7
          2.814007593028021e-7 2.7591644017659737e-7 2.2040499362916553e-7 3.016890994696226e-7 2.865078788532966e-7 1.8333651867071745e-7
          2.361789082501553e-7 2.4227549251438434e-7 2.393630825749777e-7 3.553397278179352e-7 3.563613372130059e-7 3.44720024437809e-7
          3.6874850932369344e-7 3.306504615759623e-7 3.3151833484213195e-7 3.3339721611711667e-7 2.481441829171373e-7 2.969792616761858e-7
          2.590454644007995e-7 3.088005526603721e-7 3.338729594498697e-7 3.4807080384605983e-7 3.602424222478101e-7 1.7243889685383165e-7
          2.461256178302037e-7 2.5750044062849175e-7 3.4470009487747026e-7 2.712058288197366e-7 3.2080732126385293e-7 2.8432232071810875e-7
          3.344392778257784e-7 3.7243011174587645e-7 3.858129140248331e-7 1.8945336753182825e-7 2.7025248326948156e-7 2.839923010815976e-7
          3.725805981694215e-7 2.3713391344898648e-7 2.202419140213428e-7 3.076110326684548e-7 2.9137698904870174e-7 2.2022547306745876e-7
          3.135289091281129e-7 2.962298107602313e-7 1.735355651664989e-7 2.415430433695163e-7 2.435761582953457e-7 3.8230658433852554e-7
          3.819163459367555e-7 3.9575167581950027e-7 3.5312685677989946e-7 2.381859918247951e-7 2.1986572694152368e-7 3.1943311006974745e-7
          3.0098579335209464e-7 2.1907483680533932e-7 3.2528023097255116e-7 3.056151287539613e-7 1.6990894812234238e-7 2.453574887710984e-7
          2.4686531432644653e-7 4.128904647765822e-7 4.1035206870363816e-7 4.2577079284753486e-7 3.7301634922889226e-7 2.9843693436799967e-7
          3.500472769123787e-7 3.1388416347643704e-7 3.6714442751848873e-7 4.006188136243306e-7 4.164100586443042e-7 2.1034885194687147e-7
          2.987739260273071e-7 3.150196518509808e-7 4.045344352613961e-7 3.3086905151766535e-7 3.8578836595261784e-7 3.496351812335971e-7
          4.0615555944488237e-7 4.3320206131972937e-7 4.510480832334495e-7 2.3663740179686623e-7 3.329784542606249e-7 3.529249538972783e-7
          4.411774536015287e-7 2.3740206291495335e-7 2.177778622079647e-7 3.310255859011586e-7 3.100705839727096e-7 2.1590219119380567e-7
          3.3662282086093886e-7 3.142981980598801e-7 1.6496248881895776e-7 2.480469953656496e-7 2.488466372989573e-7 4.4747862714155755e-7
          4.420466313446118e-7 4.592081178681498e-7 3.9387962963231217e-7 2.342307616698398e-7 2.133761523156475e-7 3.4202709139461606e-7
          3.182416499251218e-7 2.1013781401205927e-7 3.4719815948338786e-7 3.2185118799522565e-7 1.5814282577828465e-7 2.492016550005073e-7
          2.4905123287732977e-7 4.864736190724453e-7 4.772694839172344e-7 4.962229145531131e-7 4.1559141931626716e-7 3.704831836419829e-7
          4.2846868319828783e-7 3.9379624278108955e-7 4.529942448249154e-7 4.7000110308432915e-7 4.901082570521628e-7 2.706582218882145e-7
          3.752074094448065e-7 4.0026645883948566e-7 4.833744488163753e-7 4.2007690794390577e-7 4.800447116292472e-7 4.49974578063879e-7
          5.099759675195229e-7 5.113974784511957e-7 5.338651012821074e-7 3.170299988623134e-7 4.2865760295862134e-7 4.6107066791121165e-7
          5.318726024925871e-7 2.2800858664793602e-7 2.0612008356944504e-7 3.521128257546547e-7 3.250811465153766e-7 2.0124193585630155e-7
          3.566850735515787e-7 3.2784525558829234e-7 1.49210292230798e-7 2.4832787375219873e-7 2.4695089538596797e-7 5.299498580243596e-7
          5.160420838402926e-7 5.368136040754454e-7 4.3772313504709246e-7 2.1799414413784848e-7 1.9544451640496294e-7 3.607613151307725e-7
          3.300196386772868e-7 1.380263752911577e-7 2.4482902737194987e-7 5.787680045767269e-7 5.58717507668002e-7 4.5959936558888784e-7
          4.841320862648151e-7 5.430979660581515e-7 5.203137077943937e-7 5.784370905597717e-7 5.574680943830808e-7 5.822772004563987e-7
          3.845815213422843e-7 4.981539738970261e-7 5.376955482889358e-7 5.869353739455761e-7 6.08421830558431e-7 6.492766093918283e-7
          1.3759821092058773e-8 1.8288487408665946e-8 6.5502236066821445e-9 2.2817153725273113e-8 9.177107494665173e-9 1.3237414549961773e-8
          5.136330928871283e-9 7.494463712332406e-9 3.4618920437823867e-9 5.069891552199112e-9 2.987111145231957e-9 1.729772160525837e-8
          9.85259649579353e-9 6.677891060615837e-9 2.23183156303793e-9 3.472758518775183e-9 8.370316144561789e-10 1.3306806768914726e-9
          4.713685474512436e-9 1.824329739326766e-9 2.304500874170517e-7 3.472162748070024e-7 4.774048460781344e-8 4.63982462196953e-7
          2.1060130738306533e-7 3.2330725970875896e-7 1.9218736979557333e-7 2.988601822262155e-7 2.9768236669481942e-8 3.2481526483098565e-8
          1.8792819914408734e-8 4.360132120344525e-7 4.055329946568577e-7 3.5194816296715184e-8 1.723268119547864e-7 2.739231282717198e-7
          1.5146690087452787e-7 2.494123972838089e-7 1.3127945184036697e-8 1.1800673302102413e-8 1.3843616395478182e-8 3.7551944458865313e-7
          3.4735789369308994e-7 1.0473401420168132e-8 1.309791493033549e-7 2.2374505820908346e-7 1.1013651530586176e-7 1.9501940089558978e-7
          1.1754773888717431e-8 1.9122126373422506e-8 2.3079263954960594e-8 3.16510967114812e-7 2.799022864853178e-7 2.6489478858127577e-8
          8.890503963261202e-8 1.6333541645923392e-7 1.3533093308920836e-8 2.4774569243561154e-8 2.3776579328585584e-7 3.601604517820147e-8
          2.2084487478236562e-7 2.787999079276173e-7 2.6551041871721417e-7 2.5222092950681105e-7 2.8879962425610677e-7 3.066573532619184e-7
          2.7367139579689126e-7 3.245150822677301e-7 2.3010412535701037e-7 2.2216905130680956e-7 2.846456630304156e-7 2.705652890094375e-7
          2.1423397725660874e-7 2.5648491498845946e-7 2.95203674130303e-7 3.1419881977060755e-7 2.710564442144111e-7 3.219530829810355e-7
          2.5934066469519993e-7 2.780703722843298e-7 2.8197696238639545e-7 3.3319396541091227e-7 3.4198568883971986e-7 2.9680007987345967e-7
          2.606724497488552e-7 3.297765288871486e-7 2.65946811795165e-7 3.375686865500071e-7 2.1742692295386245e-7 2.8510164799051363e-7
          2.88067779983796e-7 3.5089345071152277e-7 3.6019109079941766e-7 3.0767730409133744e-7 2.69666928727306e-7 3.4544694750930276e-7
          2.7304984680205057e-7 3.5343225123811967e-7 2.1460625142979857e-7 2.9131388722670185e-7 2.944490767481714e-7 3.698612731777513e-7
          3.7974394428945434e-7 3.178526759404532e-7 2.761572029880143e-7 3.6143516827513227e-7 2.789746902756835e-7 3.6940935665049236e-7
          2.1409538014893818e-7 2.971738942983762e-7 2.993984844902533e-7 3.8980388791103627e-7 3.99985121519127e-7 3.265723753433987e-7
          1.020786887176829e-7 1.058197580312107e-7 1.603074963065618e-7 1.6246777340035996e-7 9.80801543949206e-8 1.577653725637724e-7
          7.238606129842639e-8 1.1363658392608489e-7 1.1715494468319838e-7 1.098110457884517e-7 2.81447320822687e-7 2.8349901046740466e-7
          2.1175001792841548e-7 9.38773001135851e-8 1.5483489290884936e-7 8.944379604970081e-8 1.5146452276277707e-7 6.399049163205605e-8
          1.057226842723116e-7 1.0133079627795797e-7 2.850465213186564e-7 2.8600216306576237e-7 2.069755527668021e-7 3.772896808109836e-7
          3.8498866718064724e-7 3.0103133820790183e-7 3.0195306712571005e-7 4.10221023872034e-7 4.204299041591094e-7 3.3344974711271615e-7
          3.9241206397032026e-7 3.994616149649471e-7 3.020416863528374e-7 3.011703843408462e-7 4.305235710074413e-7 4.4040415327422287e-7
          3.3758714408463777e-7 8.47659303152548e-8 1.4760694528880617e-7 7.992774278709683e-8 1.4325835895288515e-7 5.534285665986768e-8
          9.660761034931335e-8 9.162036475884032e-8 2.862690186159659e-7 2.8572870812321013e-7 1.992260767939725e-7 7.502673220749126e-8
          1.3841617163869272e-7 7.011398327469918e-8 1.3304380800151587e-7 4.6895602504744535e-8 8.645225075728678e-8 8.113766350306784e-8
          2.8425302236138483e-7 2.8171566355123364e-7 1.8797432430427112e-7 4.060386077298198e-7 4.1198636073055814e-7 2.992048725449663e-7
          2.9597879387346837e-7 4.499871384900655e-7 4.5910428033336934e-7 3.378299555407466e-7 4.1708865266106974e-7 4.2129918045095154e-7
          2.913597979800291e-7 2.850956873256221e-7 4.6747687166926395e-7 4.7514066652776843e-7 3.3277984636134496e-7 6.527063574686765e-8
          1.271124814274886e-7 3.936683091084645e-8 7.574612543448015e-8 2.7796986198078164e-7 1.7282198051048428e-7 4.245850980040449e-7
          2.768932594130313e-7 4.821847991546363e-7 3.2026797776320794e-7 1.2987960023925362e-7 1.3709682383562812e-7 1.7128244633709478e-7
          1.7321260111707955e-7 1.1998832693484032e-7 1.6846783411228687e-7 1.0180314630593533e-7 1.3706550016198518e-7 1.4250429643425122e-7
          1.2953616131158883e-7 1.1568916857104944e-7 1.669952020924036e-7 1.1248243829164397e-7 1.6573078685448004e-7 8.765712140280016e-8
          1.2604726287472337e-7 1.2323996951061828e-7 1.0925847456930224e-7 1.642532159530512e-7 8.024451495217197e-8 1.2032993099834734e-7
          2.570078906726879e-10 1.4851652188891e-10 6.315916996594395e-10 3.740689369524879e-10 1.680084264775291e-11 1.3290510449642164e-11
          4.121516987966477e-11 3.344423337800709e-11 4.0025153105132035e-11 1.1654617424553631e-10 9.78017825153142e-12 2.567329687634941e-11
          2.347900378776922e-9 1.454852968163848e-9 1.6279498932072162e-10 1.3623588936011255e-10 5.618055575507747e-10 1.0967678939950351e-10
          8.503589583132063e-9 5.591424701623289e-9 6.509660864192483e-10 5.595132605427945e-10 2.6792598201145146e-9 4.680604346663408e-10
          1.730115278369031e-9 1.0439272864237482e-9 1.3738135436795271e-9 3.472772336333025e-9 1.138857332745247e-9 8.038282852908857e-9
          5.542661525949215e-8 7.580496308341526e-9 1.4021846162283704e-9 6.688688936865048e-9 3.9150019274420076e-9 1.1413149180189676e-9
          1.548487631002402e-8 1.521256385208838e-8 6.50771590016508e-8 4.703104057910647e-8 2.8984922156562145e-8 1.6067021175083877e-7
          1.0522079915752994e-7 2.8153211425594972e-8 1.5638535270961094e-8 8.157587063407169e-8 4.760682431078142e-8 4.667894350793184e-8
          6.761751309724066e-8 1.66144965377207e-7 9.447652589056486e-8 1.29400602975034e-7 2.823945278221862e-7 1.422741082731979e-7
          1.9118369285282734e-7 1.8857453954820703e-7 3.644999431463954e-7 3.3164346720574054e-7 2.4186847188252484e-7 6.049155869292362e-7
          5.812926322426197e-7 4.7010266092059704e-7 5.55795245182785e-7 6.149106994787683e-7 4.809018371131618e-7 5.969521992479514e-7
          6.351195898229442e-7 4.575829673358128e-7 5.769811445711431e-7 5.062712847736308e-7 6.821787205608086e-7 7.053494686343881e-10
          2.6164264073335586e-9 9.948889873919249e-10 2.1077818898760826e-8 4.52750334603273e-9 1.7013566906175676e-9 2.3882523266497357e-8
          1.2465098057062884e-7 2.3795286602080626e-7 6.068337804619559e-8 2.3293114051793657e-7 1.2064748353541602e-7 7.045993357058816e-8
          4.801032249873306e-7 4.89486745141121e-7 2.7280742983934613e-7 6.618396851285245e-7 6.894583296463146e-7 4.266526226325325e-7
          2.6648916366537607e-7 7.147276717533712e-7 7.485042562391862e-7 4.883019746110092e-7
        </DataArray>
        <DataArray type="Float64" Name="gradient_matprop_error" format="ascii" RangeMin="0" RangeMax="0">
          0 0 0 0 0 0
          0 0 0 0 0 0
          0 0 0 0 0 0
          0 0 0 0 0 0
          0 0 0 0 0 0
          0 0 0 0 0 0
          0 0 0 0 0 0
          0 0 0 0 0 0
          0 0 0 0 0 0
          0 0 0 0 0 0
          0 0 0 0 0 0
          0 0 0 0 0 0
          0 0 0 0 0 0
          0 0 0 0 0 0
          0 0 0 0 0 0
          0 0 0 0 0 0
          0 0 0 0 0 0
          0 0 0 0 0 0
          0 0 0 0 0 0
          0 0 0 0 0 0
          0 0 0 0 0 0
          0 0 0 0 0 0
          0 0 0 0 0 0
          0 0 0 0 0 0
          0 0 0 0 0 0
          0 0 0 0 0 0
          0 0 0 0 0 0
          0 0 0 0 0 0
          0 0 0 0 0 0
          0 0 0 0 0 0
          0 0 0 0 0 0
          0 0 0 0 0 0
          0 0 0 0 0 0
          0 0 0 0 0 0
          0 0 0 0 0 0
          0 0 0 0 0 0
          0 0 0 0 0 0
          0 0 0 0 0 0
          0 0 0 0 0 0
          0 0 0 0 0 0
          0 0 0 0 0 0
          0 0 0 0 0 0
          0 0 0 0 0 0
          0 0 0 0 0 0
          0 0 0 0 0 0
          0 0 0 0 0 0
          0 0 0 0 0 0
          0 0 0 0 0 0
          0 0 0 0 0 0
          0 0 0 0 0 0
          0 0 0 0 0 0
          0 0 0 0 0 0
          0 0 0 0 0 0
          0 0 0 0 0 0
          0 0 0 0 0 0
          0 0 0 0 0 0
          0 0 0 0 0 0
          0 0 0 0 0 0
          0 0 0 0 0 0
          0 0 0 0 0 0
          0 0 0 0 0 0
          0 0 0 0 0 0
          0 0 0 0 0 0
          0 0 0 0 0 0
          0 0 0 0 0 0
          0 0 0 0 0 0
          0 0 0 0 0 0
          0 0 0 0 0 0
          0 0 0 0 0 0
          0 0 0 0 0 0
          0 0 0 0 0 0
          0 0 0 0 0 0
          0 0 0 0 0 0
          0 0 0 0 0 0
          0 0 0 0 0 0
          0 0 0 0 0 0
          0 0 0 0 0 0
          0 0 0 0 0 0
          0 0 0 0 0 0
          0 0 0 0 0 0
          0 0 0 0 0 0
          0 0 0 0 0 0
          0 0 0 0 0 0
          0 0 0 0 0 0
          0 0 0 0 0 0
          0 0 0 0 0 0
          0 0 0 0 0 0
          0 0 0 0 0 0
          0 0 0 0 0 0
          0 0 0 0 0 0
          0 0 0 0 0 0
          0 0 0 0 0 0
          0 0 0 0 0 0
          0 0 0 0 0 0
          0 0 0 0 0 0
          0 0 0 0 0 0
          0 0 0 0 0 0
          0 0 0 0 0 0
          0 0 0 0 0 0
          0 0 0 0 0 0
          0 0 0 0 0 0
          0 0 0 0 0 0
          0 0 0 0 0 0
          0 0 0 0 0 0
          0 0 0 0 0 0
          0 0 0 0 0 0
          0 0 0 0 0 0
          0 0 0 0 0 0
          0 0 0 0 0 0
          0 0 0 0 0 0
          0 0 0 0 0 0
          0 0 0 0 0 0
          0 0 0 0 0 0
          0 0 0 0 0 0
          0 0 0 0 0 0
          0 0 0 0 0 0
          0 0 0 0 0 0
          0 0 0 0 0 0
          0 0 0 0
        </DataArray>
        <DataArray type="Float64" Name="initial_marker" format="ascii" RangeMin="0" RangeMax="2">
          0 0 0 0 0 0
          0 0 0 0 0 0
          0 0 0 0 0 0
          0 0 0 0 0 0
          0 0 0 0 0 0
          0 0 0 0 0 0
          0 0 0 0 0 0
          0 0 0 0 0 0
          0 0 0 0 0 0
          0 0 0 0 0 0
          0 0 0 0 0 0
          0 0 0 0 0 0
          2 0 2 0 0 0
          0 0 0 0 0 0
          0 0 0 0 0 0
          0 0 0 2 0 0
          0 0 0 0 0 0
          0 2 0 0 0 0
          1 0.5 0 1 0 0
          1.5 0.5 0 2 0.5 0
          0 0 2 1 1 0
          0 0 2 0.5 0 2
          0.75 0 0 0 2 1
          1 0 0 0 2 1
          0 2 1 0 0 0
          2 1 1 0 0 0
          2 1 0 0 0 2
          1 0 0 0 0 0
          0 0 0 0 0 0
          0 0 0 0 0 0
          0 0 0 0 0 0
          0 0 0 0 0 0
          0 0 0 0 0 0
          0 0 0 0 0 0
          0 0 0 0 0 0
          0 0 0 0 0 0
          0 0 0 0 0 0
          0 0 1 2 2 1
          2 0 0 0 0.5 1
          0.5 0.25 0 1 0.5 0
          0 0 0 2 1.5 1.25
          1.5 0.5 1 1 2 2
          2 2 0.6666666666666666 1 1 2
          2 2 1 2 2 2
          2 1 1 2 2 2
          1 0 0 1 0.5 0
          1 0.5 0 0 0 2
          1.5 1.5 0.5 0 0 1
          0.5 0 1 0.75 0 0
          0.25 2 1.5 1.75 0.5 2
          2 2 2 1 1 2
          2 2 1 2 2 2
          2 1 1 2 2 2
          1 0 0 1 1 0
          1 1 0 0.5 0.5 2
          2 2 1 0 0 1
          1 0 1 1 0 0.5
          0.5 2 2 2 1 2
          2 2 2 1 1 2
          2 2 1 2 2 2
          2 1 1 2 2 2
          1 0 0 1 1 0
          1 1 0 0.5 0.5 2
          2 2 1 0 0 1
          1 0 0.5 2 2 1
          2 2 2 2 1 1
          2 2 2 1 1 1
          0 0 0 0 0 0
          0 0 0 0 0 0
          0 0 0 0 0 0
          0 0 0 0 0 0
          0 0 0 0 0 0
          0 0 0 0 0 0
          0 0 0 0 0 0
          0 0 0 0 0 0
          0 0 0 0 0 0
          0 0 0 0 0 0
          0 0 0 0 0 0
          0 0 0 0 0 0
          0 0 0 0 0 0
          0 0 0 0 0 0
          0 0 0 0 0 0
          0 0 0 0 0 0
          0 0 0 0 0 0
          0 0 0 0 0 0
          0 0 0 0 0 0
          0 0 0 0 0 0
          0 0 0 0 0 0
          0 0 0 0 0 0
          0 0 0 0 0 0
          0 0 0 0 0 0
          0 0 0 0 0 0
          0 0 0 0 0 0
          0 0 0 0 0 0
          0 0 0 0 0 0
          0 0 0 0 0 0
          0 0 0 0 0 0
          0 0 0 0 0 0
          0 0 0 0 0 0
          0 0 0 0 0 0
          0 0 0 0 0 0
          0 0 0 0 0 0
          0 0 0 0 0 0
          0 0 0 0 0 0
          0 0 0 0 0 0
          0 0 0 0 0 0
          0 0 0 0 0 0
          0 0 0 0 0 0
          0 0 0 0 0 0
          0 0 0 0 0 0
          0 0 0 0 0 0
          0 0 0 0 0 0
          0 0 1 1 0.5 2
          2 1 2 2 2 2
          1 2 2 2 1 0
          0 0 0 0 0 0
          0 0.5 0 0.5 0 0
          1 1 0 1 1 0
          0 1 1 0
        </DataArray>
        <DataArray type="Float64" Name="markers_norefine" format="ascii" RangeMin="0" RangeMax="0">
          0 0 0 0 0 0
          0 0 0 0 0 0
          0 0 0 0 0 0
          0 0 0 0 0 0
          0 0 0 0 0 0
          0 0 0 0 0 0