<?xml version="1.0"?>
<VTKFile type="UnstructuredGrid" version="0.1" byte_order="LittleEndian" header_type="UInt32" compressor="vtkZLibDataCompressor">
  <UnstructuredGrid>
    <Piece NumberOfPoints="1810" NumberOfCells="1081">
      <PointData>
        <DataArray type="Int32" Name="libmesh_node_id" format="ascii" RangeMin="1774" RangeMax="7240">
          1776 1777 1778 1779 1780 1781
          1892 1893 1894 1895 1896 1897
          1932 1933 1934 1961 1962 1963
          2006 2008 2009 2010 2011 2013
          2048 2049 2050 2077 2078 2079
          2120 2122 2123 2124 2125 2127
          2164 2165 2166 2193 2194 2195
          2221 2223 2225 2226 2228 2229
          2233 2234 2235 2236 2237 2238
          2239 2240 2241 2242 2243 2244
          2245 2246 2247 2248 2249 2250
          2251 2252 2253 2254 2255 2257
          2258 2259 2260 2261 2262 2264
          2266 2269 2272 2307 2309 2311
          2312 2313 2314 2316 2317 2319
          2320 2321 2322 2323 2324 2325
          2326 2327 2328 2329 2330 2331
          2332 2333 2334 2335 2336 2337
          2338 2339 2340 2351 2355 2358
          2359 2360 2365 2366 2368 2370
          2371 2372 2373 2374 2375 2376
          2377 2378 2379 2380 2381 2382
          2383 2384 2385 2386 2387 2388
          2389 2390 2391 2392 2393 2394
          2395 2396 2397 2398 2399 2400
          2401 2402 2403 2404 2405 2406
          2407 2408 2409 2410 2411 2412
          2413 2414 2415 2416 2417 2418
          2419 2420 2421 2422 2423 2424
          2425 2426 2427 2428 2429 2430
          2431 2432 2433 2434 2435 2436
          2437 2438 2439 2440 2441 2442
          2443 2444 2445 2446 2447 2448
          2449 2450 2451 2452 2453 2454
          2455 2456 2457 2458 2459 2460
          2461 2462 2463 2464 2465 2471
          2472 2477 2478 2479 2480 2481
          2482 2483 2484 2485 2486 2487
          2488 2489 2490 2491 2492 2493
          2494 2495 2496 2497 2526 2530
          2608 2609 2612 2613 2615 2616
          2617 2618 2619 2621 2622 2623
          2624 2625 2626 2627 2628 2629
          2630 2631 2632 2633 2634 2635
          2636 2637 2638 2639 2640 2641
          2672 2674 2676 2677 2678 2679
          2681 2682 2684 2685 2686 2687
          2688 2689 2690 2691 2692 2693
          2694 2695 2696 2697 2698 2699
          2700 2701 2702 2703 2704 2705
          2706 2707 2708 2709 2710 2711
          2712 2713 2714 2715 2716 2717
          2718 2719 2720 2721 2722 2723
          2724 2725 2726 2727 2728 2729
          2730 2731 2732 2733 2734 2735
          2736 2737 2743 2753 2786 2787
          2788 2789 2790 2791 2792 2793
          2794 2795 2796 2797 2798 2799
          2800 2801 2802 2803 2804 2805
          2806 2807 2808 2809 2810 2811
          2812 2813 2814 2815 2816 2817
          2818 2819 2820 2821 2822 2823
          2824 2825 2826 2827 2828 2829
          2830 2831 2832 2833 2834 2835
          2836 2837 2838 2839 2840 2841
          2842 2843 2844 2845 2846 2847
          2848 2849 2850 2851 2852 2853
          2854 2855 2856 2857 2858 2859
          2860 2861 2862 2863 2864 2865
          2866 2867 2868 2869 2870 2871
          2872 2873 2874 2875 2876 2877
          2878 2879 2880 2881 2882 2883
          2884 2885 2886 2887 2888 2889
          2890 2891 2892 2893 2894 2895
          2896 2897 2898 2899 2900 2901
          2902 2903 2904 2905 2906 2907
          2908 2909 2910 2911 2912 2913
          2914 2915 2916 2917 2918 2919
          2920 2921 2922 2923 2924 2925
          2926 2927 2928 2929 2930 2931
          2932 2933 2934 2935 2936 2937
          2938 2939 2940 2941 2942 2943
          2944 2945 2946 2947 2948 2949
          2950 2951 2952 2953 2954 2955
          2956 2957 2958 2959 2960 2961
          2962 2963 2964 2965 2966 2967
          2968 2969 2970 2971 2972 2973
          2974 2975 2976 2977 2978 2979
          2980 2981 2982 2983 2984 2985
          2986 2987 2988 2989 2990 2991
          2992 2993 2994 2995 2996 2997
          2998 2999 3000 3001 3002 3003
          3004 3005 3006 3007 3008 3009
          3010 3011 3012 3013 3014 3015
          3016 3017 3018 3019 3020 3021
          3022 3023 3024 3025 3026 3027
          3028 3029 3030 3031 3032 3033
          3034 3035 3036 3037 3038 3039
          3040 3041 3042 3043 3044 3045
          3046 3047 3048 3049 3050 3051
          3052 3053 3054 3055 3056 3057
          3058 3059 3060 3061 3062 3063
          3064 3065 3066 3067 3068 3069
          3070 3071 3072 3073 3074 3075
          3076 3077 3078 3079 3080 3081
          3082 3083 3084 3085 3086 3087
          3088 3089 3090 3091 3092 3093
          3094 3095 3096 3097 3098 3099
          3100 3101 3102 3103 3104 3105
          3106 3107 3108 3109 3110 3111
          3112 3113 3114 3115 3116 3117
          3118 3119 3120 3121 3122 3123
          3124 3125 3126 3127 3128 3129
          3130 3131 3132 3133 3134 3135
          3136 3137 3138 3139 3140 3141
          3142 3143 3144 3145 3146 3147
          3148 3149 3150 3151 3152 3153
          3154 3155 3156 3157 3158 3159
          3160 3161 3162 3163 3164 3168
          3169 3171 3172 3174 3189 3190
          3193 3194 3196 3198 3213 3229
          3231 3232 3233 3235 3243 3244
          3245 3246 3247 3248 3249 3250
          3251 3252 3253 3254 3255 3256
          3257 3258 3259 3260 3261 3262
          3263 3264 3265 3266 3267 3268
          3269 3270 3271 3272 3699 3700
          3701 3702 3703 3704 3705 3706
          3707 3708 3709 3710 3711 3712
          3713 3714 3715 3716 3717 3718
          3719 3720 3721 3722 3723 3724
          3725 3726 3727 3728 3729 3730
          3731 3732 3733 3734 3735 3736
          3737 3738 3739 3740 3741 3742
          3743 3744 3745 3747 3748 3749
          3750 3752 3754 3755 3756 3788
          3789 3790 3791 3792 3793 3794
          3795 3796 3797 3798 3799 3800
          3801 3802 3803 3804 3806 3807
          3808 3809 3811 3812 3814 3816
          3817 3818 3821 3822 3823 3824
          3825 3826 3827 3828 3829 3830
          3831 3832 3833 3834 3835 3836
          3837 3838 3839 3840 3841 3842
          3843 3844 3845 3846 3847 3848
          3849 3850 3851 3852 3853 3854
          3855 3856 3857 3858 3859 3860
          3861 3862 3863 3864 3865 3866
          3867 3868 3869 3870 3871 3872
          3873 3874 3875 3876 3877 3878
          3879 3880 3881 3882 3883 3884
          3885 3886 3887 3888 3889 3890
          3891 3892 3893 3894 3895 3896
          3897 3898 3899 3900 3901 3902
          3903 3904 3905 3906 3907 3908
          3909 3910 3911 3912 3913 3914
          3915 3916 3917 3918 3919 3920
          3924 4037 4038 4039 4040 4041
          4042 4043 4044 4045 4046 4047
          4048 4049 4050 4051 4052 4053
          4054 4055 4056 4057 4058 4059
          4060 4061 4062 4063 4064 4065
          4066 4067 4068 4069 4070 4071
          4072 4073 4074 4075 4076 4077
          4078 4079 4080 4081 4082 4083
          4084 4085 4086 4087 4088 4089
          4090 4091 4092 4093 4094 4095
          4096 4097 4098 4099 4100 4101
          4102 4103 4104 4105 4106 4107
          4108 4109 4110 4111 4112 4113
          4114 4115 4116 4117 4118 4119
          4120 4121 4122 4123 4124 4125
          4126 4127 4128 4129 4130 4131
          4132 4133 4134 4135 4136 4137
          4138 4139 4140 4141 4142 4143
          4144 4145 4146 4147 4148 4149
          4150 4151 4152 4153 4154 4155
          4156 4157 4158 4159 4160 4161
          4162 4163 4164 4165 4166 4167
          4168 4169 4170 4171 4172 4173
          4174 4175 4176 4177 4178 4179
          4180 4181 4182 4183 4184 4185
          4186 4187 4188 4189 4190 4191
          4192 4193 4194 4195 4196 4197
          4198 4199 4200 4201 4202 4203
          4204 4205 4206 4207 4208 4209
          4210 4211 4212 4213 4214 4215
          4216 4217 4218 4219 4220 4221
          4222 4223 4224 4225 4226 4227
          4228 4229 4230 4231 4232 4233
          4234 4235 4236 4237 4238 4239
          4240 4241 4242 4243 4244 4245
          4246 4247 4252 4253 4254 4272
          4273 4274 4275 4276 4277 4278
          4279 4281 4292 4293 4294 4295
          4296 4298 4306 4307 4310 4312
          4313 4326 4328 4330 4332 6122
          6123 6124 6125 6126 6127 6128
          6136 6137 6138 6139 6140 6141
          6142 6143 6144 6145 6146 6147
          6148 6149 6150 6151 6152 6153
          6154 6155 6166 6167 6168 6169
          6170 6171 6172 6173 6174 6175
          6176 6177 6178 6179 6180 6181
          6182 6183 6184 6185 6186 6187
          6188 6189 6190 6191 6192 6193
          6194 6195 6196 6241 6242 6243
          6244 6245 6246 6247 6248 6249
          6250 6634 6635 6636 6637 6638
          6639 6640 6641 6642 6643 6644
          6645 6646 6647 6648 6649 6650
          6651 6652 6653 6654 6655 6656
          6657 6658 6659 6660 6661 6662
          6663 6664 6665 6666 6667 6668
          6669 6670 6671 6672 6673 6674
          6675 6676 6677 6678 6679 6680
          6681 6682 6683 6684 6685 6686
          6687 6688 6689 6690 6691 6692
          6693 6694 6695 6696 6697 6698
          6699 6700 6701 6702 6703 6704
          6705 6706 6707 6708 6709 6710
          6711 6712 6713 6714 6715 6716
          6717 6718 6719 6720 6721 6722
          6723 6724 6725 6726 6727 6728
          6729 6730 6731 6732 6733 6734
          6735 6736 6737 6738 6739 6740
          6741 6742 6743 6744 6745 6746
          6747 6748 6749 6750 6751 6752
          6753 6754 6755 6756 6757 6758
          6759 6760 6761 6762 6763 6764
          6765 6766 6767 6768 6769 6770
          6771 6772 6773 6774 6775 6776
          6777 6778 6779 6780 6781 6782
          6783 6784 6785 6786 6787 6788
          6789 6790 6791 6792 6793 6794
          6795 6796 6797 6798 6799 6800
          6801 6802 6803 6804 6805 6806
          6807 6808 6809 6810 6811 6812
          6813 6814 6815 6816 6817 6818
          6819 6820 6821 6822 6823 6824
          6825 6826 6827 6828 6829 6830
          6831 6832 6833 6834 6835 6836
          6837 6838 6839 6840 6841 6842
          6843 6844 6845 6846 6847 6848
          6849 6850 6851 6852 6853 6854
          6855 6856 6857 6858 6859 6860
          6861 6862 6863 6864 6865 6866
          6867 6868 6869 6870 6871 6872
          6873 6874 6875 6876 6877 6878
          6879 6880 6881 6882 6883 6884
          6885 6886 6887 6888 6889 6890
          6891 6892 6893 6894 6895 6896
          6897 6898 6899 6900 6901 6902
          6903 6904 6905 6906 6907 6908
          6909 6910 6911 6912 6913 6914
          6915 6916 6917 6918 6919 6920
          6921 6922 6923 6924 6925 6926
          6927 6928 6929 6930 6931 6932
          6933 6934 6935 6936 6937 6938
          6939 6940 6941 6942 6943 6944
          6945 6946 6947 6948 6949 6950
          6951 6952 6953 6954 6955 6956
          6957 6958 6959 6960 6961 6962
          6963 6964 6965 6966 6967 6968
          6969 6970 6971 6972 6973 6974
          6975 6976 6977 6978 6979 6980
          6981 6982 6983 6984 6985 6986
          6987 6988 6989 6990 6991 6992
          6993 6994 6995 6996 6997 6998
          6999 7000 7001 7002 7003 7004
          7005 7006 7007 7008 7009 7010
          7011 7012 7013 7014 7015 7016
          7017 7018 7019 7020 7021 7022
          7023 7024 7025 7026 7027 7028
          7029 7030 7031 7032 7037 7038
          7039 7071 7072 7073 7083 7084
          7085 7086 7087 7088 7089 7090
          7091 7092 7103 7104 7105 7106
          7107 7108 7109 7117 7118 7119
          7120 7121 7122 7123 7124 7125
          7126 7137 7138 7139 7141 7142
          7143 7219 7220 7221 7222 7223
          7224 7225 7234 7235 7236 7237
          7238 7239 7240 1774 1775 1890
          1891 1931 2007 2047 1960 2076
          2163 2192 2211 2224 2230 2005
          2213 2231 2217 2227 2232 2308
          2310 2315 2318 2273 2274 2208
          2352 2353 2354 2356 2357 2212
          2361 2364 2362 2363 2367 2369
          2219 2527 2531 2528 2529 2532
          2533 2535 2610 2611 2614 2620
          2265 2012 2654 2655 2121 2659
          2660 2673 2675 2680 2683 2738
          2739 2740 2741 2742 2744 2745
          2747 2749 2754 2750 2752 2755
          3668 3669 3670 3671 2004 3746
          2505 2268 3751 3753 2536 2540
          2538 3805 2278 3810 2541 3813
          2542 3815 3819 3820 3315 3307
          3316 3921 3922 3317 3923 3925
          3926 6114 6119 2218
        </DataArray>
        <DataArray type="Float64" Name="bounds" format="ascii" RangeMin="0" RangeMax="0">
          0 0 0 0 0 0
          0 0 0 0 0 0
          0 0 0 0 0 0
          0 0 0 0 0 0
          0 0 0 0 0 0
          0 0 0 0 0 0
          0 0 0 0 0 0
          0 0 0 0 0 0
          0 0 0 0 0 0
          0 0 0 0 0 0
          0 0 0 0 0 0
          0 0 0 0 0 0
          0 0 0 0 0 0
          0 0 0 0 0 0
          0 0 0 0 0 0
          0 0 0 0 0 0
          0 0 0 0 0 0
          0 0 0 0 0 0
          0 0 0 0 0 0
          0 0 0 0 0 0
          0 0 0 0 0 0
          0 0 0 0 0 0
          0 0 0 0 0 0
          0 0 0 0 0 0
          0 0 0 0 0 0
          0 0 0 0 0 0
          0 0 0 0 0 0
          0 0 0 0 0 0
          0 0 0 0 0 0
          0 0 0 0 0 0
          0 0 0 0 0 0
          0 0 0 0 0 0
          0 0 0 0 0 0
          0 0 0 0 0 0
          0 0 0 0 0 0
          0 0 0 0 0 0
          0 0 0 0 0 0
          0 0 0 0 0 0
          0 0 0 0 0 0
          0 0 0 0 0 0
          0 0 0 0 0 0
          0 0 0 0 0 0
          0 0 0 0 0 0
          0 0 0 0 0 0
          0 0 0 0 0 0
          0 0 0 0 0 0
          0 0 0 0 0 0
          0 0 0 0 0 0
          0 0 0 0 0 0
          0 0 0 0 0 0
          0 0 0 0 0 0
          0 0 0 0 0 0
          0 0 0 0 0 0
          0 0 0 0 0 0
          0 0 0 0 0 0
          0 0 0 0 0 0
          0 0 0 0 0 0
          0 0 0 0 0 0
          0 0 0 0 0 0
          0 0 0 0 0 0
          0 0 0 0 0 0
          0 0 0 0 0 0
          0 0 0 0 0 0
          0 0 0 0 0 0
          0 0 0 0 0 0
          0 0 0 0 0 0
          0 0 0 0 0 0
          0 0 0 0 0 0
          0 0 0 0 0 0
          0 0 0 0 0 0
          0 0 0 0 0 0
          0 0 0 0 0 0
          0 0 0 0 0 0
          0 0 0 0 0 0
          0 0 0 0 0 0
          0 0 0 0 0 0
          0 0 0 0 0 0
          0 0 0 0 0 0
          0 0 0 0 0 0
          0 0 0 0 0 0
          0 0 0 0 0 0
          0 0 0 0 0 0
          0 0 0 0 0 0
          0 0 0 0 0 0
          0 0 0 0 0 0
          0 0 0 0 0 0
          0 0 0 0 0 0
          0 0 0 0 0 0
          0 0 0 0 0 0
          0 0 0 0 0 0
          0 0 0 0 0 0
          0 0 0 0 0 0
          0 0 0 0 0 0
          0 0 0 0 0 0
          0 0 0 0 0 0
          0 0 0 0 0 0
          0 0 0 0 0 0
          0 0 0 0 0 0
          0 0 0 0 0 0
          0 0 0 0 0 0
          0 0 0 0 0 0
          0 0 0 0 0 0
          0 0 0 0 0 0
          0 0 0 0 0 0
          0 0 0 0 0 0
          0 0 0 0 0 0
          0 0 0 0 0 0
          0 0 0 0 0 0
          0 0 0 0 0 0
          0 0 0 0 0 0
          0 0 0 0 0 0
          0 0 0 0 0 0
          0 0 0 0 0 0
          0 0 0 0 0 0
          0 0 0 0 0 0
          0 0 0 0 0 0
          0 0 0 0 0 0
          0 0 0 0 0 0
          0 0 0 0 0 0
          0 0 0 0 0 0
          0 0 0 0 0 0
          0 0 0 0 0 0
          0 0 0 0 0 0
          0 0 0 0 0 0
          0 0 0 0 0 0
          0 0 0 0 0 0
          0 0 0 0 0 0
          0 0 0 0 0 0
          0 0 0 0 0 0
          0 0 0 0 0 0
          0 0 0 0 0 0
          0 0 0 0 0 0
          0 0 0 0 0 0
          0 0 0 0 0 0
          0 0 0 0 0 0
          0 0 0 0 0 0
          0 0 0 0 0 0
          0 0 0 0 0 0
          0 0 0 0 0 0
          0 0 0 0 0 0
          0 0 0 0 0 0
          0 0 0 0 0 0
          0 0 0 0 0 0
          0 0 0 0 0 0
          0 0 0 0 0 0
          0 0 0 0 0 0
          0 0 0 0 0 0
          0 0 0 0 0 0
          0 0 0 0 0 0
          0 0 0 0 0 0
          0 0 0 0 0 0
          0 0 0 0 0 0
          0 0 0 0 0 0
          0 0 0 0 0 0
          0 0 0 0 0 0
          0 0 0 0 0 0
          0 0 0 0 0 0
          0 0 0 0 0 0
          0 0 0 0 0 0
          0 0 0 0 0 0
          0 0 0 0 0 0
          0 0 0 0 0 0
          0 0 0 0 0 0
          0 0 0 0 0 0
          0 0 0 0 0 0
          0 0 0 0 0 0
          0 0 0 0 0 0
          0 0 0 0 0 0
          0 0 0 0 0 0
          0 0 0 0 0 0
          0 0 0 0 0 0
          0 0 0 0 0 0
          0 0 0 0 0 0
          0 0 0 0 0 0
          0 0 0 0 0 0
          0 0 0 0 0 0
          0 0 0 0 0 0
          0 0 0 0 0 0
          0 0 0 0 0 0
          0 0 0 0 0 0
          0 0 0 0 0 0
          0 0 0 0 0 0
          0 0 0 0 0 0
          0 0 0 0 0 0
          0 0 0 0 0 0
          0 0 0 0 0 0
          0 0 0 0 0 0
          0 0 0 0 0 0
          0 0 0 0 0 0
          0 0 0 0 0 0
          0 0 0 0 0 0
          0 0 0 0 0 0
          0 0 0 0 0 0
          0 0 0 0 0 0
          0 0 0 0 0 0
          0 0 0 0 0 0
          0 0 0 0 0 0
          0 0 0 0 0 0
          0 0 0 0 0 0
          0 0 0 0 0 0
          0 0 0 0 0 0
          0 0 0 0 0 0
          0 0 0 0 0 0
          0 0 0 0 0 0
          0 0 0 0 0 0
          0 0 0 0 0 0
          0 0 0 0 0 0
          0 0 0 0 0 0
          0 0 0 0 0 0
          0 0 0 0 0 0
          0 0 0 0 0 0
          0 0 0 0 0 0
          0 0 0 0 0 0
          0 0 0 0 0 0
          0 0 0 0 0 0
          0 0 0 0 0 0
          0 0 0 0 0 0
          0 0 0 0 0 0
          0 0 0 0 0 0
          0 0 0 0 0 0
          0 0 0 0 0 0
          0 0 0 0 0 0
          0 0 0 0 0 0
          0 0 0 0 0 0
          0 0 0 0 0 0
          0 0 0 0 0 0
          0 0 0 0 0 0
          0 0 0 0 0 0
          0 0 0 0 0 0
          0 0 0 0 0 0
          0 0 0 0 0 0
          0 0 0 0 0 0
          0 0 0 0 0 0
          0 0 0 0 0 0
          0 0 0 0 0 0
          0 0 0 0 0 0
          0 0 0 0 0 0
          0 0 0 0 0 0
          0 0 0 0 0 0
          0 0 0 0 0 0
          0 0 0 0 0 0
          0 0 0 0 0 0
          0 0 0 0 0 0
          0 0 0 0 0 0
          0 0 0 0 0 0
          0 0 0 0 0 0
          0 0 0 0 0 0
          0 0 0 0 0 0
          0 0 0 0 0 0
          0 0 0 0 0 0
          0 0 0 0 0 0
          0 0 0 0 0 0
          0 0 0 0 0 0
          0 0 0 0 0 0
          0 0 0 0 0 0
          0 0 0 0 0 0
          0 0 0 0 0 0
          0 0 0 0 0 0
          0 0 0 0 0 0
          0 0 0 0 0 0
          0 0 0 0 0 0
          0 0 0 0 0 0
          0 0 0 0 0 0
          0 0 0 0 0 0
          0 0 0 0 0 0
          0 0 0 0 0 0
          0 0 0 0 0 0
          0 0 0 0 0 0
          0 0 0 0 0 0
          0 0 0 0 0 0
          0 0 0 0 0 0
          0 0 0 0 0 0
          0 0 0 0 0 0
          0 0 0 0 0 0
          0 0 0 0 0 0
          0 0 0 0 0 0
          0 0 0 0 0 0
          0 0 0 0 0 0
          0 0 0 0 0 0
          0 0 0 0 0 0
          0 0 0 0 0 0
          0 0 0 0 0 0
          0 0 0 0 0 0
          0 0 0 0 0 0
          0 0 0 0 0 0
          0 0 0 0 0 0
          0 0 0 0 0 0
          0 0 0 0 0 0
          0 0 0 0 0 0
          0 0 0 0 0 0
          0 0 0 0 0 0
          0 0 0 0 0 0
          0 0 0 0 0 0
          0 0 0 0 0 0
          0 0 0 0 0 0
          0 0 0 0 0 0
          0 0 0 0 0 0
          0 0 0 0 0 0
          0 0 0 0 0 0
          0 0 0 0 0 0
          0 0 0 0 0 0
          0 0 0 0
        </DataArray>
        <DataArray type="Float64" Name="gradient_error" format="ascii" RangeMin="6.271155558408921e-13" RangeMax="2.272580775868375e-7">
          1.1194419573963718e-10 1.0504578687592237e-10 2.0438102645950406e-11 1.374831635453902e-11 6.221569670982976e-12 4.6670457610185425e-12
          1.2812987361708066e-10 1.9974012403402522e-10 3.302329402493489e-11 2.160146664232609e-11 5.700855584351497e-12 8.262224652898495e-12
          1.9269415445697501e-10 1.5429316449547765e-11 6.5256696950224005e-12 9.43129528513474e-11 6.587811929140447e-12 2.148917255504861e-12
          5.813979555133421e-9 1.1328178609618254e-9 2.9321038200031416e-10 2.365478249928863e-10 3.261893774751344e-11 6.368803120130035e-12
          2.0807689058384064e-10 1.72840031683557e-11 6.632090688201799e-12 1.727250294893646e-10 1.4018632599347233e-11 4.391725137036498e-12
          1.1434783837237937e-8 1.9700027609612136e-8 2.01514230399187e-8 2.365470422589103e-10 7.372486762623946e-9 1.6993520479993032e-9
          1.4668919444808676e-10 1.88987225593638e-11 3.943812862733604e-12 2.070976542102583e-10 1.6990148452003843e-11 5.45688407175318e-12
          8.525314814129336e-8 1.760195786749887e-8 6.179160281680201e-8 6.810775127790247e-8 5.845586449333548e-8 5.102239905973412e-8
          1.4633363893195086e-8 2.7630057662215197e-8 3.1138321642613997e-8 2.8283270695171324e-8 2.0221521050125234e-9 2.205635589821027e-9
          4.973993939762238e-8 3.532191016208161e-8 5.167271238558673e-10 3.685466804329566e-8 2.4501476685246096e-8 1.4916515596051007e-9
          4.124707148949579e-9 1.6841862304609997e-9 2.9549946235707696e-8 3.462098456387499e-8 3.747300284339306e-8 1.269586739448164e-8
          7.365279651467583e-10 2.8529092632829556e-10 2.1198738596871937e-8 1.3583201831443062e-8 1.5137854416234607e-10 5.759699233346135e-9
          6.480360869870514e-11 6.247277743440638e-10 1.8358718136038716e-10 3.353012320443365e-10 3.717890422607881e-8 2.9232426667740155e-9
          3.3647652167971014e-11 3.3408861952865707e-12 1.311732812148017e-11 5.887725291776439e-10 9.372453014799111e-10 1.91288300437433e-10
          1.2535608370331883e-10 2.4838990849037493e-10 3.474631342556215e-10 7.545349843669015e-11 1.280487544819093e-9 9.797087796110928e-11
          4.4653636002086807e-10 4.1436262435305777e-11 3.236876754073905e-11 1.2250986233802258e-11 1.3011896000800492e-11 1.2047351537722552e-11
          2.36650690968273e-11 1.2721708418678375e-11 8.749642779651481e-11 4.154532158812546e-11 3.5282786655932046e-11 8.368926285402235e-12
          6.8464087945991365e-12 2.5336993819901298e-12 1.971754950351493e-12 3.589166543639401e-12 5.073446747227698e-12 1.9031653660208264e-12
          2.1185379214121842e-11 1.648046690842063e-12 6.557726950815995e-12 2.1964233015774947e-7 1.2125853599641403e-7 1.259482124326781e-7
          7.671842722417578e-8 9.164722239835055e-8 1.064238408327563e-8 6.517807097598026e-8 2.4184638402473804e-8 5.770080701366334e-8
          6.902950740346388e-8 3.0002069435370546e-8 4.9888042992884235e-8 5.110621067154668e-8 3.3184599369560796e-8 3.305876450748614e-8
          8.383977048458936e-8 7.649800590341538e-8 4.100078725541121e-8 1.2943541425937624e-8 2.634908889406634e-8 2.9271377534060337e-8
          5.647508874919688e-8 6.103749032980425e-8 4.994212035127168e-8 3.7066515292730654e-8 3.6167545681983655e-8 4.7436572084232946e-8
          4.176275488343399e-8 3.9724306119694355e-8 5.411527889916466e-8 4.111730035286207e-8 4.100675360509122e-8 1.681449322217847e-8
          3.277611619253527e-8 3.7116044054134935e-8 2.938455961037792e-8 5.4636002980470767e-8 4.408659685371262e-8 4.747546313675842e-8
          4.3815319883889433e-8 3.9708891274898955e-8 5.441999403451569e-8 4.845999006124713e-8 3.930071107629415e-8 4.051478106305615e-8
          3.942776478281698e-8 2.3679057873567715e-8 4.25516770153844e-8 4.947147139214213e-8 3.2901541917977226e-8 4.3805618388132816e-8
          3.434471899089481e-8 6.263744544729086e-8 5.358566755256358e-8 2.8259193099735586e-8 5.340411397924274e-8 5.890915785346406e-8
          3.014406868984538e-8 3.763075518088525e-8 3.505382923681247e-8 2.0385914295439368e-8 5.843240002195761e-8 5.319968506992419e-8
          3.6202426253187524e-8 2.8198035536687977e-8 3.74733483836636e-8 3.355289495148116e-8 3.707898260808894e-8 2.4626594408815544e-8
          2.9620058093311616e-8 9.787006949339663e-9 2.094320465820523e-8 2.531018479590974e-8 1.1240365330833777e-8 2.10251112579888e-8
          2.3719590484241988e-8 1.8168800364781705e-8 2.785355078095562e-8 2.0770555138709935e-8 2.535715369934126e-8 1.6866024630122746e-8
          2.08496283270469e-8 3.16415144598011e-9 6.617098815675121e-9 4.918229385134723e-9 1.5212229593496737e-8 1.2212218631948487e-8
          9.526900916389601e-9 2.9145176284468885e-8 2.178246043415739e-8 4.005433012215622e-8 6.410790431535875e-8 1.5419727119856202e-8
          4.21410551851342e-8 4.574561655379042e-8 1.883099133575422e-8 3.158064632620843e-8 2.7152494875063705e-8 1.2111533495118124e-10
          4.600531843328611e-8 5.473758012023752e-8 3.796572103209106e-8 1.3759556403447086e-8 9.758462533266667e-9 9.182465582859094e-9
          2.9176711478560348e-8 4.889085339884348e-8 1.30735044386075e-8 1.6251860852620573e-8 9.623509082192639e-9 1.1957863933531521e-8
          1.3627129397595053e-9 3.322299349034439e-9 1.8786232496708132e-9 9.282782260584357e-9 6.964994511482731e-9 5.13311175803161e-9
          6.732730403430805e-9 1.6385845776962165e-8 4.41922945031938e-9 1.939257148807157e-8 4.465543637842236e-10 1.10973633720996e-9
          9.469519019613212e-10 2.0849271810142986e-8 3.035540487618432e-8 1.8143703370181885e-9 1.7967390217315309e-9 1.244269010319833e-10
          5.293940821432395e-10 5.360706530862354e-10 1.7277953620655392e-9 1.7422070163756489e-9 5.6681345639157476e-11 3.0829911344060965e-10
          2.5371054249641074e-10 5.427472240292312e-10 1.7566186706857585e-9 1.9912197155221186e-10 6.48445883204047e-11 3.674209919878148e-11
          1.6700704715525038e-10 1.0404762288395525e-10 2.05139657412886e-11 9.20380930275712e-11 5.619494815759455e-11 8.639610077158262e-12
          4.108819861266013e-11 2.03518032876179e-11 7.817700695442604e-12 5.8422331768563816e-12 2.2152344684603974e-11 1.6682908773272234e-11
          1.3103275646047297e-12 3.3115802346637924e-12 3.168654699064141e-12 3.86676565827016e-12 1.1213472861940489e-11 3.0257291634644896e-12
          6.067636123522149e-8 6.110730340554617e-8 5.768771670344474e-8 4.2744432334480117e-8 2.952255717586653e-8 3.6271342650200904e-8
          3.3112281584257346e-8 6.207295598507159e-8 2.815291648529236e-8 4.302012812453527e-8 5.433528514257344e-8 4.011970961894855e-8
          2.1868411626597053e-8 2.9484849391905125e-8 2.6183535871051684e-8 3.71012871572132e-8 2.0154062160218464e-9 3.0962429452794864e-9
          6.191946808167814e-9 4.450636100776378e-8 3.908073547055299e-8 3.250706068977553e-8 3.7484150275050506e-8 1.3076164040598632e-9
          3.352734302863731e-8 2.7411538159676026e-8 4.327037739641232e-9 1.7659514192730506e-8 2.3861709142115766e-8 1.4111366136510517e-8
          1.3684952035121587e-9 1.1317168229060979e-9 2.792867218382302e-8 2.2489409469515635e-8 1.3280105834048979e-9 2.1990565832042253e-8
          1.7502713452196323e-8 6.98172403393232e-10 1.0930073118134475e-8 8.07411784967707e-9 1.6202129479968573e-9 1.2416452129150303e-9
          1.589784092385836e-8 1.2547857243111777e-8 9.31291494562586e-10 1.0314289580529924e-8 8.105398127737358e-9 5.040873635696127e-10
          5.525387492255025e-9 3.433279569076341e-9 7.094314863843097e-10 5.721634854611929e-10 5.8738264355575045e-9 4.630834462425021e-9
          2.94462848088966e-10 2.8939414220453734e-9 2.3217609951376053e-9 2.9657149534379434e-10 1.935949761962304e-9 1.0369211518068664e-9
          1.1732104041225694e-10 1.2768981416083897e-10 1.2293274020854695e-10 3.40975985193382e-12 2.4336852404436084e-8 2.4779397507413265e-8
          2.3239299959060095e-8 1.67585629591771e-8 1.758945229315492e-8 2.0234698247956192e-8 1.9308016635554895e-8 2.7372277205038834e-8
          1.8402176075466753e-8 2.1166091607098803e-8 2.5781409908545372e-8 2.4705702874927113e-8 2.324365460674253e-8 2.5799630592902123e-8
          1.0842052181873757e-8 1.5689998988499125e-8 1.5376733312049697e-8 1.6240963564585825e-8 2.3629995841308846e-8 2.8784040721075357e-8
          2.8966827969927232e-8 1.9152599373852014e-8 2.2207936994058374e-8 3.035151349328608e-8 2.0081569411346608e-8 2.337746389497137e-8
          2.92740166717911e-8 2.711642563765585e-8 2.8513451170587297e-8 1.2161523621609025e-8 1.7047427578660607e-8 1.7983218347453954e-8
          2.517483263999552e-8 3.151060204980457e-8 3.1870704226475546e-8 2.126683122743508e-8 2.4653172667672908e-8 3.3503285836521984e-8
          2.2614805602565314e-8 2.6078769965373628e-8 3.1550597048844906e-8 2.991275117663941e-8 3.141580824882952e-8 1.3741108700953538e-8
          1.903840664070862e-8 2.0221981149834154e-8 2.7739387392415967e-8 2.8504874423322082e-8 2.728967937787484e-8 2.864051627034218e-8
          2.7460661888294613e-8 2.8399599880537727e-8 2.9725156771019416e-8 2.7486929268829077e-8 2.831145587963739e-8 2.7252069729515838e-8
          2.6064899871587446e-8 2.877615811736228e-8 2.7631644398714394e-8 2.983695848803072e-8 2.9135982490445703e-8 2.8615721225463604e-8
          3.071238319339746e-8 2.9715550054336517e-8 3.187890589693827e-8 2.3938711019412957e-8 2.526093323166412e-8 2.6257181965215702e-8
          3.0793827771093134e-8 3.196541313972837e-8 2.6558369218074926e-8 3.503436468171401e-8 3.5282110906422186e-8 2.4116306541002495e-8
          2.7710433055949e-8 3.721914794823126e-8 2.5806915884231005e-8 2.9540235844915865e-8 3.456750962746221e-8 3.3113610585674846e-8
          3.499429482493342e-8 1.565189287741744e-8 2.1539608551297284e-8 2.3023957515735486e-8 3.0931374654006415e-8 3.930127032736081e-8
          3.933845754165157e-8 2.7719936757080367e-8 3.1595069550414633e-8 4.1657620331952754e-8 2.989916179502965e-8 3.391390065306655e-8
          3.788281394020462e-8 3.70705905796914e-8 3.936569564452747e-8 1.8150828416818408e-8 2.4707232174201774e-8 2.662770156612491e-8
          3.4828180129981326e-8 3.074795301724736e-8 3.325363724531036e-8 3.1769555442484744e-8 3.4721599794046437e-8 2.536965142291099e-8
          2.7041788206638654e-8 2.7775363010775982e-8 3.340504085985009e-8 3.497912587225692e-8 2.8522558617877188e-8 3.2818430785123793e-8
          3.629030040643002e-8 3.390091159203654e-8 3.7973060398346246e-8 2.638256700381584e-8 2.8505844416024782e-8 2.9242068303648533e-8
          3.667773871597788e-8 3.850911175097053e-8 3.025647132666947e-8 3.342053537165745e-8 3.1527277898963155e-8 3.13342785214969e-8