<?xml version="1.0"?>
<VTKFile type="UnstructuredGrid" version="0.1" byte_order="LittleEndian" header_type="UInt32" compressor="vtkZLibDataCompressor">
  <UnstructuredGrid>
    <Piece NumberOfPoints="1562" NumberOfCells="1085">
      <PointData>
        <DataArray type="Int32" Name="libmesh_node_id" format="ascii" RangeMin="2129" RangeMax="11107">
          2273 2276 2278 2507 2520 2525
          2527 2528 2529 2531 2532 2533
          2534 2535 2536 2537 2540 2541
          2543 2545 3320 3350 3351 3354
          3387 3388 3389 3390 3392 3423
          3425 3426 3427 3429 3441 3442
          3443 3444 3445 3446 3447 3448
          3449 3450 3451 3452 3453 3454
          3455 3456 3457 3458 3459 3460
          3461 3462 3465 3466 3468 3470
          3746 3751 3805 3810 3813 3819
          3921 3922 3923 3925 3926 3927
          3928 3929 3930 3931 3932 3933
          3934 3935 3936 3937 3938 3939
          3942 3943 3945 3946 3947 3948
          3949 3950 3951 3952 3953 3954
          3955 3956 3959 3960 3962 3964
          4479 4481 4482 4483 4484 4645
          4649 4650 4651 4666 4667 4668
          4769 4770 4771 4774 4779 4780
          4784 4785 4786 4787 4788 4789
          4790 4791 4792 4793 4794 4795
          4796 4797 4798 4799 4800 4801
          4802 4803 4804 4829 4830 4834
          4983 4984 4987 4990 4994 4995
          4996 4997 4998 4999 5000 5001
          5002 5003 5004 5005 5006 5007
          5008 5011 5012 5015 5018 5022
          5023 5024 5025 5026 5027 5028
          5029 5030 5031 5032 5033 5034
          5035 5036 5053 5057 5081 5085
          5093 5094 5095 5096 5097 5098
          5099 5100 5101 5102 5103 5104
          5105 5106 5107 5108 5109 5110
          5111 5112 5113 5114 5115 5116
          5117 5118 5119 5120 5121 5122
          5123 5124 5125 5126 5127 5128
          5129 5130 5131 5132 5133 5134
          5135 5136 5137 5138 5139 5140
          5141 5142 5143 5144 5145 5146
          5147 5148 5149 5150 5151 5152
          5153 5154 5155 5156 5157 5158
          5159 5160 5161 5162 5163 5164
          5165 5166 5167 5168 5169 5172
          5173 5175 5177 5178 5179 5180
          5181 5182 5183 5184 5185 5187
          5189 5191 5192 5193 5194 5195
          5196 5197 5198 5199 5200 5201
          5202 5203 5206 5207 5209 5211
          6319 6320 6321 6322 6323 6324
          6325 6326 6327 6328 6329 6330
          6331 6332 6333 6334 6335 6336
          6337 6338 6339 6340 6341 6342
          6343 6344 6347 6348 6507 6508
          6509 6510 6511 6512 6513 6514
          6515 6516 6517 6518 6519 6520
          6521 6522 6523 6524 6525 6526
          6527 6528 6529 6530 6531 6532
          6533 6534 6535 6536 6537 8592
          8593 8594 8595 8596 8597 8598
          8599 8600 8601 8602 8603 8604
          8605 8626 8627 8628 8629 8630
          8631 8632 8633 8634 8635 8636
          8637 8640 8641 8643 8645 8646
          8647 8648 8649 8650 8651 8652
          8653 8654 8655 8656 8657 8658
          8659 8660 8661 8662 8663 8664
          8665 8666 8667 8668 8669 8670
          8671 8672 8673 8674 8675 8676
          8677 8678 8679 8764 8765 8769
          9755 9756 9757 9758 9759 9760
          9761 9762 9763 9764 9775 9776
          9777 9778 9779 9780 9781 9782
          9783 9784 9799 9800 9801 9802
          9803 9804 9805 9806 9808 9810
          9812 9827 9828 9829 9830 9831
          9832 9833 9834 9836 9838 9840
          9841 9842 9843 9844 9845 9846
          9847 9848 9849 9850 9851 9852
          9853 9854 9855 9856 9857 9858
          9859 9860 9861 9862 9863 9864
          9865 9866 9867 9868 9869 9870
          9871 9872 9873 9874 9875 9876
          9877 9878 9879 9880 9881 9882
          9883 9884 9885 9886 9887 9888
          9889 9890 9891 9892 9893 9894
          9895 9896 9897 9898 9899 9900
          9901 9902 9903 9904 9905 9906
          9907 9908 9909 9910 9911 9912
          9913 9914 9915 9916 9917 9918
          9919 9920 9921 9922 9923 9924
          9925 9926 9927 9928 9929 9930
          9931 9932 9933 9934 9935 9936
          9937 9938 9939 9940 9941 9942
          9943 9944 9945 9946 9957 9958
          9959 9960 9961 9962 9963 9964
          9965 9966 9977 9978 9979 9980
          9981 9982 9983 9984 9985 9986
          10001 10002 10003 10004 10005 10006
          10007 10008 10010 10012 10014 10029
          10030 10031 10032 10033 10034 10035
          10036 10038 10040 10042 10043 10044
          10045 10046 10047 10048 10049 10050
          10051 10052 10053 10054 10055 10056
          10057 10058 10059 10060 10061 10062
          10063 10064 10065 10066 10067 10068
          10069 10070 10071 10072 10073 10074
          10075 10076 10077 10078 10079 10080
          10081 10082 10083 10084 10085 10086
          10087 10088 10089 10090 10091 10092
          10093 10094 10095 10096 10097 10098
          10099 10100 10101 10102 10103 10104
          10105 10106 10107 10108 10109 10110
          10111 10112 10113 10114 10115 10116
          10117 10118 10119 10120 10121 10122
          10123 10124 10125 10126 10127 10128
          10129 10130 10131 10132 10133 10134
          10135 10136 10137 10138 10253 10257
          10265 10266 10267 10268 10269 10270
          10271 10272 10273 10274 10275 10276
          10279 10280 10282 10284 10287 10291
          10299 10300 10301 10302 10303 10304
          10305 10306 10308 10310 10312 10492
          10496 10504 10505 10506 10507 10508
          10509 10510 10511 10513 10515 10517
          10520 10524 10532 10533 10534 10535
          10536 10537 10538 10539 10541 10543
          10545 10602 10603 10604 10605 10606
          10607 10608 10609 10610 10611 10612
          10613 10614 10615 10616 10617 10618
          10619 10620 10621 10622 10623 10624
          10625 10626 10627 10628 10629 10630
          10631 10632 10633 10634 10635 10636
          10637 10638 10639 10640 10641 10642
          10643 10644 10645 10646 10647 10648
          10649 10650 10651 10652 10653 10654
          10655 10656 10657 10658 10659 10660
          10661 10662 10663 10664 10665 10666
          10667 10668 10669 10670 10671 10672
          10673 10674 10675 10676 10677 10678
          10679 10680 10681 10682 10683 10684
          10685 10686 10687 10688 10689 10690
          10691 10692 10693 10694 10695 10696
          10697 10698 10699 10700 10701 10702
          10703 10704 10705 10706 10707 10708
          10709 10710 10711 10712 10713 10714
          10715 10716 10717 10718 10719 10720
          10721 10722 10723 10724 10725 10726
          10727 10728 10729 10730 10731 10732
          10733 10734 10735 10736 10737 10738
          10739 10740 10741 10742 10743 10744
          10745 10746 10747 10748 10749 10750
          10751 10752 10753 10754 10755 10756
          10757 10758 10759 10760 10761 10762
          10763 10764 10765 10766 10767 10768
          10769 10770 10771 10772 10773 10774
          10775 10776 10777 10778 10779 10780
          10781 10782 10783 10784 10785 10786
          10787 10788 10789 10790 10791 10792
          10793 10794 10795 10796 10797 10798
          10799 10800 10801 10802 10803 10804
          10805 10806 10807 10808 10809 10810
          10811 10812 10813 10814 10815 10816
          10817 10818 10819 10820 10821 10822
          10823 10824 10825 10826 10827 10828
          10829 10830 10831 10832 10833 10834
          10835 10836 10837 10838 10839 10840
          10841 10842 10843 10844 10845 10846
          10847 10848 10849 10850 10851 10852
          10853 10854 10855 10856 10857 10858
          10859 10860 10861 10862 10863 10864
          10865 10866 10867 10868 10869 10870
          10871 10872 10873 10874 10875 10876
          10877 10878 10879 10880 10881 10882
          10883 10884 10885 10886 10887 10888
          10889 10890 10891 10892 10893 10894
          10895 10896 10897 10898 10899 10900
          10901 10902 10903 10904 10905 10906
          10907 10908 10909 10910 10911 10912
          10913 10914 10915 10916 10917 10918
          10919 10920 10923 10924 10926 10928
          10929 10930 10931 10932 10933 10934
          10935 10936 10937 10938 10939 10940
          10943 10944 10946 10948 10949 10950
          10951 10952 10953 10954 10955 10956
          10957 10958 10959 10960 10961 10962
          10963 10964 10965 10966 10967 10968
          10969 10970 10971 10972 10973 10974
          10975 10976 10977 10978 10979 10980
          10981 10982 10983 10984 10985 10986
          10987 10988 10989 10990 10991 10992
          10993 10994 10995 10996 10997 10998
          10999 11000 11001 11002 11003 11004
          11005 11006 11007 11008 11009 11010
          11011 11012 11014 11016 11018 11019
          11020 11021 11022 11023 11024 11025
          11026 11028 11030 11032 11033 11034
          11035 11036 11037 11038 11039 11040
          11042 11044 11046 11047 11048 11049
          11050 11051 11052 11053 11054 11056
          11058 11060 11061 11062 11063 11064
          11065 11066 11067 11068 11069 11070
          11071 11072 11073 11074 11075 11076
          11077 11078 11079 11080 11081 11082
          11083 11084 11085 11086 11087 11088
          11089 11090 11091 11092 11093 11094
          11095 11096 11097 11098 11099 11100
          11101 11102 11103 11104 11105 11106
          11107 2538 2274 2539 2542 3312
          3314 3317 3316 3318 3319 3348
          3349 3352 3353 3313 3383 2268
          3384 3385 2519 3386 3393 3397
          3394 3398 2745 2754 2755 3753
          2271 3815 2129 3820 3940 3399
          3941 3944 3463 3957 3467 3958
          3961 2544 3963 4477 4765 4478
          4766 4767 4768 4480 4772 4775
          4776 4777 4778 4781 4809 4825
          4810 4826 4827 4828 4831 4832
          4833 3402 4644 4981 4647 4985
          4660 5009 4662 4664 5013 4844
          2521 5170 5060 5061 5171 5174
          3464 5204 5188 5205 5208 5210
          6345 6346 6349 4839 4840 4841
          8586 8580 8587 8588 8591 4773
          8610 8611 8612 8615 4782 8620
          8621 8638 8622 8639 8642 8625
          4783 8644 3391 8704 8760 8705
          8761 8762 8763 8766 8709 8767
          8768 9746 9750 9751 9754 4982
          9766 9770 9771 9774 4986 9787
          9788 9791 4988 9794 9795 9807
          9809 9798 4989 9811 4991 9815
          9816 9819 4992 9822 9823 9835
          9837 9826 4993 9839 3424 9948
          9952 9953 9956 5010 9968 9972
          9973 9976 5014 9989 9990 9993
          5016 9996 9997 10009 10011 10000
          5017 10013 5019 10017 10018 10021
          5020 10024 10025 10037 10039 10028
          5021 10041 3428 10155 10251 10252
          10254 10159 10255 10256 5051 8779
          10260 10277 10261 10278 10281 10264
          5052 10283 5054 10183 10285 10286
          10288 10187 10289 10290 5055 10294
          10295 10307 10309 10298 5056 10311
          3432 10394 10490 10491 10493 10398
          10494 10495 5079 10499 10500 10512
          10514 10503 5080 10516 5082 10422
          10518 10519 10521 10426 10522 10523
          5083 10527 10528 10540 10542 10531
          5084 10544 3436 10334 10335 10336
          10339 10366 10367 10370 5064 10349
          10373 10921 10374 10922 10925 10377
          3433 10927 5176 10941 10942 10945
          10947 10562 10563 10566 5088 10569
          10570 11013 11015 10573 5089 11017
          5186 11027 11029 11031 10590 10591
          10594 5092 10597 10598 11041 11043
          10601 2277 11045 5190 11055 11057
          11059 3469
        </DataArray>
        <DataArray type="Float64" Name="bounds" format="ascii" RangeMin="0" RangeMax="0">
          0 0 0 0 0 0
          0 0 0 0 0 0
          0 0 0 0 0 0
          0 0 0 0 0 0
          0 0 0 0 0 0
          0 0 0 0 0 0
          0 0 0 0 0 0
          0 0 0 0 0 0
          0 0 0 0 0 0
          0 0 0 0 0 0
          0 0 0 0 0 0
          0 0 0 0 0 0
          0 0 0 0 0 0
          0 0 0 0 0 0
          0 0 0 0 0 0
          0 0 0 0 0 0
          0 0 0 0 0 0
          0 0 0 0 0 0
          0 0 0 0 0 0
          0 0 0 0 0 0
          0 0 0 0 0 0
          0 0 0 0 0 0
          0 0 0 0 0 0
          0 0 0 0 0 0
          0 0 0 0 0 0
          0 0 0 0 0 0
          0 0 0 0 0 0
          0 0 0 0 0 0
          0 0 0 0 0 0
          0 0 0 0 0 0
          0 0 0 0 0 0
          0 0 0 0 0 0
          0 0 0 0 0 0
          0 0 0 0 0 0
          0 0 0 0 0 0
          0 0 0 0 0 0
          0 0 0 0 0 0
          0 0 0 0 0 0
          0 0 0 0 0 0
          0 0 0 0 0 0
          0 0 0 0 0 0
          0 0 0 0 0 0
          0 0 0 0 0 0
          0 0 0 0 0 0
          0 0 0 0 0 0
          0 0 0 0 0 0
          0 0 0 0 0 0
          0 0 0 0 0 0
          0 0 0 0 0 0
          0 0 0 0 0 0
          0 0 0 0 0 0
          0 0 0 0 0 0
          0 0 0 0 0 0
          0 0 0 0 0 0
          0 0 0 0 0 0
          0 0 0 0 0 0
          0 0 0 0 0 0
          0 0 0 0 0 0
          0 0 0 0 0 0
          0 0 0 0 0 0
          0 0 0 0 0 0
          0 0 0 0 0 0
          0 0 0 0 0 0
          0 0 0 0 0 0
          0 0 0 0 0 0
          0 0 0 0 0 0
          0 0 0 0 0 0
          0 0 0 0 0 0
          0 0 0 0 0 0
          0 0 0 0 0 0
          0 0 0 0 0 0
          0 0 0 0 0 0
          0 0 0 0 0 0
          0 0 0 0 0 0
          0 0 0 0 0 0
          0 0 0 0 0 0
          0 0 0 0 0 0
          0 0 0 0 0 0
          0 0 0 0 0 0
          0 0 0 0 0 0
          0 0 0 0 0 0
          0 0 0 0 0 0
          0 0 0 0 0 0
          0 0 0 0 0 0
          0 0 0 0 0 0
          0 0 0 0 0 0
          0 0 0 0 0 0
          0 0 0 0 0 0
          0 0 0 0 0 0
          0 0 0 0 0 0
          0 0 0 0 0 0
          0 0 0 0 0 0
          0 0 0 0 0 0
          0 0 0 0 0 0
          0 0 0 0 0 0
          0 0 0 0 0 0
          0 0 0 0 0 0
          0 0 0 0 0 0
          0 0 0 0 0 0
          0 0 0 0 0 0
          0 0 0 0 0 0
          0 0 0 0 0 0
          0 0 0 0 0 0
          0 0 0 0 0 0
          0 0 0 0 0 0
          0 0 0 0 0 0
          0 0 0 0 0 0
          0 0 0 0 0 0
          0 0 0 0 0 0
          0 0 0 0 0 0
          0 0 0 0 0 0
          0 0 0 0 0 0
          0 0 0 0 0 0
          0 0 0 0 0 0
          0 0 0 0 0 0
          0 0 0 0 0 0
          0 0 0 0 0 0
          0 0 0 0 0 0
          0 0 0 0 0 0
          0 0 0 0 0 0
          0 0 0 0 0 0
          0 0 0 0 0 0
          0 0 0 0 0 0
          0 0 0 0 0 0
          0 0 0 0 0 0
          0 0 0 0 0 0
          0 0 0 0 0 0
          0 0 0 0 0 0
          0 0 0 0 0 0
          0 0 0 0 0 0
          0 0 0 0 0 0
          0 0 0 0 0 0
          0 0 0 0 0 0
          0 0 0 0 0 0
          0 0 0 0 0 0
          0 0 0 0 0 0
          0 0 0 0 0 0
          0 0 0 0 0 0
          0 0 0 0 0 0
          0 0 0 0 0 0
          0 0 0 0 0 0
          0 0 0 0 0 0
          0 0 0 0 0 0
          0 0 0 0 0 0
          0 0 0 0 0 0
          0 0 0 0 0 0
          0 0 0 0 0 0
          0 0 0 0 0 0
          0 0 0 0 0 0
          0 0 0 0 0 0
          0 0 0 0 0 0
          0 0 0 0 0 0
          0 0 0 0 0 0
          0 0 0 0 0 0
          0 0 0 0 0 0
          0 0 0 0 0 0
          0 0 0 0 0 0
          0 0 0 0 0 0
          0 0 0 0 0 0
          0 0 0 0 0 0
          0 0 0 0 0 0
          0 0 0 0 0 0
          0 0 0 0 0 0
          0 0 0 0 0 0
          0 0 0 0 0 0
          0 0 0 0 0 0
          0 0 0 0 0 0
          0 0 0 0 0 0
          0 0 0 0 0 0
          0 0 0 0 0 0
          0 0 0 0 0 0
          0 0 0 0 0 0
          0 0 0 0 0 0
          0 0 0 0 0 0
          0 0 0 0 0 0
          0 0 0 0 0 0
          0 0 0 0 0 0
          0 0 0 0 0 0
          0 0 0 0 0 0
          0 0 0 0 0 0
          0 0 0 0 0 0
          0 0 0 0 0 0
          0 0 0 0 0 0
          0 0 0 0 0 0
          0 0 0 0 0 0
          0 0 0 0 0 0
          0 0 0 0 0 0
          0 0 0 0 0 0
          0 0 0 0 0 0
          0 0 0 0 0 0
          0 0 0 0 0 0
          0 0 0 0 0 0
          0 0 0 0 0 0
          0 0 0 0 0 0
          0 0 0 0 0 0
          0 0 0 0 0 0
          0 0 0 0 0 0
          0 0 0 0 0 0
          0 0 0 0 0 0
          0 0 0 0 0 0
          0 0 0 0 0 0
          0 0 0 0 0 0
          0 0 0 0 0 0
          0 0 0 0 0 0
          0 0 0 0 0 0
          0 0 0 0 0 0
          0 0 0 0 0 0
          0 0 0 0 0 0
          0 0 0 0 0 0
          0 0 0 0 0 0
          0 0 0 0 0 0
          0 0 0 0 0 0
          0 0 0 0 0 0
          0 0 0 0 0 0
          0 0 0 0 0 0
          0 0 0 0 0 0
          0 0 0 0 0 0
          0 0 0 0 0 0
          0 0 0 0 0 0
          0 0 0 0 0 0
          0 0 0 0 0 0
          0 0 0 0 0 0
          0 0 0 0 0 0
          0 0 0 0 0 0
          0 0 0 0 0 0
          0 0 0 0 0 0
          0 0 0 0 0 0
          0 0 0 0 0 0
          0 0 0 0 0 0
          0 0 0 0 0 0
          0 0 0 0 0 0
          0 0 0 0 0 0
          0 0 0 0 0 0
          0 0 0 0 0 0
          0 0 0 0 0 0
          0 0 0 0 0 0
          0 0 0 0 0 0
          0 0 0 0 0 0
          0 0 0 0 0 0
          0 0 0 0 0 0
          0 0 0 0 0 0
          0 0 0 0 0 0
          0 0 0 0 0 0
          0 0 0 0 0 0
          0 0 0 0 0 0
          0 0 0 0 0 0
          0 0 0 0 0 0
          0 0 0 0 0 0
          0 0 0 0 0 0
          0 0 0 0 0 0
          0 0 0 0 0 0
          0 0 0 0 0 0
          0 0 0 0 0 0
          0 0 0 0 0 0
          0 0 0 0 0 0
          0 0 0 0 0 0
          0 0 0 0 0 0
          0 0 0 0 0 0
          0 0 0 0 0 0
          0 0 0 0 0 0
          0 0
        </DataArray>
        <DataArray type="Float64" Name="gradient_error" format="ascii" RangeMin="1.2162194425867935e-12" RangeMax="3.033111838284215e-8">
          4.9185854336050465e-11 1.1457252401539971e-8 4.572630757531533e-10 3.2936957788594856e-9 3.456324519373873e-11 1.0647505496976549e-10
          8.597758091343466e-9 9.642947561862383e-11 3.756580477877469e-10 6.743442556938237e-10 2.596035190445019e-10 1.4170373086734771e-8
          7.445658624610324e-10 1.2412749809584927e-9 2.962508861740345e-11 2.714002883796703e-11 2.414169156111256e-11 3.0331254883461775e-11
          1.972463649837422e-11 3.029631402970545e-11 7.103080027290238e-9 1.6880218089439135e-8 8.334770036721338e-9 2.24209445991601e-8
          1.4827446338969954e-10 9.930171861543051e-11 4.576391407071009e-11 9.025949037918033e-11 7.619708210829697e-11 4.670591654423373e-10
          9.060749864964124e-11 5.2102354015748105e-11 9.088435142526789e-10 1.6852360588188164e-10 1.8128645896239693e-9 3.5511041736880042e-9
          7.540566766206111e-10 1.5265994805634724e-9 1.0543904139931494e-9 2.0947127799613716e-9 4.0072880193934656e-10 4.429811688007809e-9
          1.923163176792261e-9 2.6915336075111482e-9 5.682240558362727e-11 2.2508044506010553e-11 2.3234462149418175e-11 1.058064224267079e-11
          4.400910247451489e-11 2.921676628861237e-11 1.496672027165856e-11 1.9473749929919602e-11 1.0620360111171752e-11 3.7759980952971696e-11
          1.0665752925392934e-11 9.281135968084112e-12 7.85618661879363e-12 6.818262176538503e-12 5.7529676079578185e-12 9.246695961916266e-12
          6.07106882562651e-11 1.500628666726821e-11 5.7203111282591897e-11 1.0232945464284215e-10 1.8543670895789984e-11 3.086768600970782e-11
          6.788580672393624e-10 1.3999160231488965e-10 2.596806161501409e-10 4.244519936160643e-10 1.5382144299869748e-10 3.2303424437415176e-11
          4.1182433142790834e-11 3.5874884196111e-11 5.0061441848166486e-11 5.3019380745293246e-11 5.33864104884155e-11 2.1193024243398316e-11
          2.0958862361255898e-11 2.6954741159328717e-11 5.85966472511649e-11 2.24568803885369e-11 8.818565680076134e-12 8.831238703087551e-12
          4.3649583879588145e-12 9.359275018061072e-12 2.492531611495874e-11 3.1672682118264755e-11 1.209210712138135e-11 1.5262897264731115e-11
          2.0431858871021622e-11 2.5410922871514697e-11 9.380241412745764e-12 3.842004812157077e-11 1.843368740808088e-11 3.038998687200777e-11
          4.893270012483045e-12 6.118194699005447e-12 2.8003388410237384e-12 2.8175472399675923e-12 7.34311938552785e-12 2.834755638911446e-12
          5.37037213918263e-10 2.3522474289621194e-10 3.221340891510031e-10 1.7547087346264222e-10 8.22263003627951e-10 3.037535867997697e-9
          1.6298405057740712e-9 8.308771247980977e-10 2.6531617251787083e-9 3.881848749018828e-9 1.930963480557842e-9 4.481572487378274e-9
          3.0166099881153365e-10 3.358222724496207e-10 1.033479020071083e-10 8.100800367869988e-10 1.0857243809374465e-10 6.799398616351559e-11
          6.40848612342288e-11 1.764424320645739e-10 2.2233320775025286e-10 9.449759217118312e-11 9.692138939447285e-11 9.414691120920936e-11
          1.4237252796764143e-10 8.849311365587473e-11 4.668380384770551e-10 8.104128582347155e-11 2.6029216356344336e-10 5.971562192460349e-11
          6.21579027797038e-11 4.063076681172435e-11 4.2923075344301196e-11 3.168188442742557e-11 5.676272187145605e-11 3.885946099223298e-11
          5.411358618092132e-11 3.8603219648421885e-11 4.958265473414091e-11 1.4298482176861493e-11 2.702907490336257e-11 2.4345831774119854e-11
          1.6654596219778518e-9 2.2188193488755144e-10 2.812807300117958e-9 1.6921906818999854e-10 3.8235619152477433e-10 8.903102537357166e-10
          1.0765848883440655e-10 4.506353138777699e-10 4.747305449361664e-11 1.4644309293877311e-9 2.1727373121345892e-10 7.271942513493608e-10
          7.9115836120822e-11 5.98048411842519e-11 3.348965032737816e-11 2.475916650660322e-11 1.705855074657901e-10 1.3459024726620923e-10
          6.795036603277149e-11 4.083284141470596e-9 7.789749565529111e-10 4.623434289687314e-9 6.718151971637081e-10 7.946419062616949e-10
          2.1553244653678463e-9 3.564120971798992e-10 1.0583827760597508e-9 1.4274394718238888e-10 2.4962324886681386e-9 4.2290881289250726e-10
          1.231179649387968e-9 2.9346483940013037e-10 2.400745129000274e-10 1.1148283825001558e-10 8.808743519784114e-11 3.533210176960028e-10
          2.9258863376371425e-10 1.3328226400691982e-10 1.8169060025277344e-11 3.944340053775919e-11 6.852460377733069e-11 8.367095890431211e-11
          1.7760076548186327e-10 3.271581103632754e-10 1.5464285656575353e-10 4.733776644690017e-10 6.077014254584696e-10 2.874788713120601e-10
          6.719784531679437e-10 7.230604261957328e-11 9.144563517824521e-11 7.116316063985189e-11 1.0065165153520825e-10 1.210412058938165e-10
          1.8754032438373062e-10 5.086599435103149e-11 3.44142662517087e-11 8.056857537414455e-11 1.0336304258371597e-10 4.083726392679208e-11
          2.6109827972264163e-10 3.426634083578759e-11 1.2851190177408155e-10 3.241488690171312e-11 2.2599145738736538e-11 2.2169381646425923e-11
          1.6056895021401523e-11 2.854845273905864e-11 2.580912988584242e-11 1.7878333895999653e-11 2.4758785573542383e-11 1.8489106553901347e-11
          1.4885975270457632e-11 3.3835902928544554e-10 5.108268721152102e-11 1.561979096996792e-10 1.7198580032791317e-11 3.7581487819913117e-10
          5.915967034266865e-11 1.720386849015095e-10 3.8400743191208486e-11 2.940648163500929e-11 1.2363450125608448e-11 9.146540816909669e-12
          4.502043821393112e-11 3.478901113385829e-11 1.4198865747359306e-11 5.1662155488120936e-11 5.712022240017618e-11 2.4428052384743478e-11
          1.692100100930895e-11 4.063525606046939e-11 5.2102812475858525e-11 2.6685099688220908e-11 6.28305104264566e-11 1.8545050279512396e-11
          5.724760639622119e-11 1.552244980771346e-11 1.101680311882623e-11 1.0714768085511095e-11 7.752081565441543e-12 1.294383999806362e-11
          1.7139481665519134e-11 1.189997282915263e-11 1.2161662314958925e-11 8.624456708683538e-12 1.8794677842687095e-11 1.5475240485487058e-11
          1.1498618300526332e-11 1.0633867302983748e-11 8.101951406957403e-12 1.360719054633332e-11 1.2620000779915227e-11 8.828520501674059e-12
          1.3689310964503187e-11 9.952365652724181e-12 9.805199528353324e-12 9.843956112292485e-12 8.258961514819311e-12 6.488444337144075e-12
          6.052804839553115e-12 7.084715342750353e-12 6.5379249390888085e-12 2.2263751912527185e-11 1.6539776481447197e-11 8.775990526521848e-12
          8.518982845002678e-12 2.656986657293389e-11 1.991361035765607e-11 7.883370040235028e-12 1.2035852903055095e-11 6.0479290815523476e-12
          1.4624033303680988e-11 4.098898887168508e-12 9.863399084374878e-12 7.91407849551966e-12 9.372730759483397e-12 7.972674480427883e-12
          6.021878461869909e-12 8.321282376345157e-12 5.835932519580831e-12 6.177575911779351e-12 4.368549495119833e-12 9.42087590907447e-12
          6.636807028962853e-12 5.6325722595711705e-12 3.018992131627613e-12 4.087622483592497e-12 3.050941135267007e-12 4.580190004542736e-12
          4.074427422352508e-11 5.155837032069473e-11 3.99345051495071e-11 3.300143635791005e-11 4.253088951398391e-11 1.997399523648411e-11
          2.670975053396561e-11 2.386725273184029e-11 2.9089873148641607e-11 1.4533908152217706e-11 1.2290589765547464e-11 1.670381116964444e-11
          8.24332291037761e-12 1.1403271784668856e-11 7.7318935363644e-12 9.06764402207023e-12 6.102302015621199e-12 5.555205711262278e-12
          7.909413848280719e-12 3.7772094498302926e-12 5.531390554752885e-12 3.392925540721859e-12 4.107496810422916e-12 2.8170875834346148e-12
          2.6066438100944288e-12 3.867339376612206e-12 1.5125524084229847e-12 1.977740854517977e-12 6.105700103340647e-11 8.263662122979501e-11
          6.245951602889664e-11 4.641755778525585e-11 6.700882702493205e-11 2.5665639012510228e-11 4.1617621684010716e-11 3.361212831583255e-11
          4.748809424725359e-11 2.5966177092217525e-11 1.6174287795529012e-11 2.6441326563631833e-11 1.063037246595567e-11 1.7677124434190035e-11
          1.0589779240392125e-11 1.6053546735644878e-11 1.0609095218653914e-11 7.169438918954707e-12 1.2105745374229722e-11 5.00760384068289e-12
          8.29320165525503e-12 4.694822688765775e-12 7.233532384260208e-12 5.048711294445202e-12 3.662363298725917e-12 5.61134580818012e-12
          3.183063925226928e-12 4.521972765240864e-12 2.5129978004295295e-12 3.67033526482158e-12 3.183534024430596e-12 8.488961158366104e-11
          1.0151005803894352e-10 7.738843237536788e-11 1.7376861713163285e-10 7.17910697019426e-11 9.067098562596309e-11 5.305885351358557e-11
          7.253073050994214e-11 5.43964414116369e-11 6.861299836768267e-11 5.414650233259836e-11 1.536772030705065e-10 1.2221944946867304e-10
          1.1472202439753509e-10 4.368389880074572e-11 6.015213585360906e-11 3.687110084419083e-11 5.100170257941906e-11 3.265481578307346e-11
          4.454778452717061e-11 3.755860140369406e-11 1.0273474956780904e-10 8.809417218660948e-11 7.519500195774563e-11 3.1216185081357554e-11
          4.3495476353176e-11 2.3126050575593545e-11 3.1904569383731996e-11 7.599282941559958e-11 5.5035829510369534e-11 4.789124922602335e-11
          5.7054062819191694e-11 4.886342986512077e-11 9.49146399173978e-11 4.060377676694421e-11 5.0302310672854585e-11 2.984864256021578e-11
          3.9167864803787176e-11 3.515175009170691e-11 4.2598570651034946e-11 3.251752310063146e-11 8.310775676702732e-11 6.460003234937332e-11
          6.669279777571655e-11 2.4198429554807184e-11 3.1921245892805005e-11 2.0225085629924067e-11 2.6779996542518804e-11 2.0872974559555617e-11
          2.6339220904370262e-11 2.204383974840983e-11 5.333457961288957e-11 4.52077172396303e-11 4.1292836661690254e-11 1.6995190953015397e-11
          2.2649615770416385e-11 1.4329282017574941e-11 1.9205069133506005e-11 1.4594951665193982e-11 1.858605788071361e-11 1.5728342616053992e-11
          3.86633195923478e-11 3.309529462452225e-11 2.976784063263282e-11 1.0383815959691543e-11 1.3309893074539462e-11 2.1670107548398737e-11
          2.699555915291527e-10 2.0106540059235501e-10 3.971528699395637e-10 2.418091343244119e-10 1.97299900146999e-10 1.7912525265023273e-10
          1.4441305984714478e-10 3.6207447806864796e-10 3.057981733501613e-10 2.659607755485363e-10 5.552746304797968e-10 4.086339278946346e-10
          7.619462031391127e-10 5.185886784255327e-10 4.5626144157146913e-10 3.786585491759088e-10 3.2838073329726497e-10 7.228145638420689e-10
          6.530906586219668e-10 5.23788362934472e-10 1.689845724031211e-10 1.471130568560025e-10 1.2251127622165208e-10 1.0594336818552154e-10
          2.6809093576186806e-10 2.372770426299191e-10 1.9258803588202213e-10 1.284918351395698e-10 9.206479445815651e-11 2.1005521825972982e-10
          1.4893297203655345e-10 4.0902572539259777e-10 3.6793974768806906e-10 2.9146775437751997e-10 2.6015774849987783e-10 5.958485478994107e-10
          5.443057199302876e-10 4.2205865772926195e-10 3.303295171784359e-10 2.319996259226121e-10 4.956082155623361e-10 3.455062386932889e-10
          1.4610395445344148e-10 1.0500611917886912e-10 2.1077826107789567e-10 1.2938448205781146e-10 1.030192431366141e-10 9.182912486844965e-11
          7.145924293080717e-11 1.8994867148959155e-10 1.5646923207763713e-10 1.339462733465605e-10 6.077606449355096e-11 7.293576948702411e-11
          4.991926832031141e-11 1.036812250717367e-10 5.176510626848388e-11 6.33754744573676e-11 3.823873681109888e-11 4.8527881326525434e-11
          3.517373813564548e-11 4.296323253921683e-11 3.230937209059542e-11 9.148797634397472e-11 7.237835920887193e-11 6.13512492882273e-11
          2.9095482041350803e-10 2.0676999310882697e-10 3.911769041036972e-10 2.6790445078453536e-10 2.2929074977700937e-10 1.871833197034832e-10
          1.5587906133813937e-10 3.6660204873168023e-10 3.2326968946668587e-10 2.535917650337698e-10 1.404349819070158e-10 9.45759305259728e-11
          1.8453136318680977e-10 1.2624499220070398e-10 1.0342270256935168e-10 8.374339558620119e-11 6.688192521534669e-11 1.6865243563583577e-10
          1.4224205769493476e-10 1.1036906880828246e-10 8.65953008722998e-11 7.439950300860468e-11 5.939300459641117e-11 5.069145062534899e-11
          1.344441032851137e-10 1.1726138840371955e-10 9.142176420268907e-11 6.433844813646397e-11 5.56127027554156e-11 4.3625219939796285e-11