<?xml version="1.0"?>
<VTKFile type="UnstructuredGrid" version="0.1" byte_order="LittleEndian" header_type="UInt32" compressor="vtkZLibDataCompressor">
  <UnstructuredGrid>
    <Piece NumberOfPoints="1618" NumberOfCells="1051">
      <PointData>
        <DataArray type="Int32" Name="libmesh_node_id" format="ascii" RangeMin="2318" RangeMax="7883">
          2318 2449 2457 2458 2613 2614
          2620 2646 2647 2648 2649 2650
          2651 2652 2653 2654 2655 2656
          2657 2658 2659 2662 2663 2670
          2671 2674 2675 2681 2880 2881
          2883 2884 2886 3159 3160 3162
          3163 3167 3168 3169 3170 3204
          3205 3206 3207 3208 3209 3210
          3211 3212 3213 3221 3222 3225
          3226 3274 3275 3276 3277 3278
          3281 3282 3283 3284 3285 3286
          3287 3288 3289 3290 3291 3292
          3293 3294 3295 3296 3297 3298
          3299 3302 3303 3306 3308 3310
          3311 3312 3313 3314 3315 3316
          3317 3318 3319 3320 3321 3322
          3323 3324 3325 3326 3327 3328
          3329 3330 3331 3332 3333 3334
          3335 3336 3337 3338 3339 3340
          3341 3343 3344 3345 3347 3348
          3349 3350 3351 3352 3353 3354
          3355 3356 3357 3361 3362 3364
          3365 3366 3367 3382 3383 3386
          3387 3389 3390 3391 3402 3403
          3404 3405 3406 3407 3408 3409
          3410 3411 3412 3413 3418 3419
          3421 3422 3423 3424 3425 3426
          3427 3428 4203 4204 4205 4206
          4207 4231 4232 4233 4236 4238
          4239 4240 4241 4242 4243 4244
          4245 4246 4247 4249 4251 4252
          4253 4256 4257 4259 4262 4264
          4265 4266 4267 4268 4269 4270
          4271 4272 4273 4275 4277 4279
          4281 4282 4283 4284 4285 4286
          4287 4288 4289 4290 4291 4292
          4293 4294 4295 4296 4297 4298
          4299 4300 4301 4302 4303 4304
          4305 4306 4307 4308 4309 4310
          4311 4312 4313 4314 4315 4316
          4317 4318 4319 4320 4321 4322
          4323 4324 4325 4326 4327 4328
          4329 4330 4331 4332 4333 4334
          4335 4336 4337 4338 4339 4340
          4341 4342 4343 4344 4345 4346
          4347 4348 4349 4350 4351 4352
          4353 4354 4355 4356 4357 4358
          4359 4360 4361 4362 4363 4364
          4365 4366 4367 4368 4369 4370
          4371 4372 4373 4374 4375 4376
          4377 4378 4379 4380 4381 4382
          4383 4384 4385 4386 4387 4388
          4389 4390 4391 4392 4393 4394
          4395 4396 4397 4398 4399 4400
          4401 4402 4403 4404 4405 4406
          4407 4408 4409 4410 4411 4412
          4413 4414 4415 4416 4417 4418
          4419 4420 4421 4422 4423 4424
          4425 4426 4427 4428 4429 4430
          4431 4432 4433 4434 4435 4436
          4437 4438 4439 4440 4441 4442
          4443 4444 4445 4446 4447 4448
          4449 4450 4451 4452 4453 4454
          4455 4456 4457 4458 4459 4460
          4461 4462 4463 4464 4465 4466
          4467 4468 4469 4470 4472 4477
          4479 4483 4484 4485 4486 4487
          4488 4489 4490 4491 4492 4493
          4494 4495 4496 4497 4498 4499
          4500 4501 4502 4503 4504 4505
          4506 4507 4508 4509 4510 4511
          4512 4513 4514 4515 4516 4517
          4518 4519 4520 4521 4522 4523
          4524 4525 4526 4527 4528 4529
          4530 4531 4532 4533 4534 4535
          4536 4537 4538 4539 4540 4541
          4542 4543 4544 4545 4546 4547
          4548 4549 4550 4551 4552 4555
          4557 4558 4559 4560 4571 4573
          4575 4576 4577 4585 4586 4587
          4588 4589 4590 4591 4592 4593
          4594 4601 4605 4606 4607 4608
          4609 4610 4611 4619 4620 4621
          4622 4623 4624 4625 4626 4627
          4628 4629 4630 4631 4632 4633
          4634 4635 4636 4637 4638 4639
          4641 4645 4647 4649 4651 6767
          6768 6769 6770 6771 6772 6773
          6774 6775 6776 6781 6782 6783
          6786 6792 6806 6807 6809 6812
          6822 6824 6826 6828 6829 6830
          6831 6832 6833 6834 6835 6836
          6837 6838 6839 6840 6841 6842
          6843 6844 6845 6846 6847 6848
          6849 6850 6851 6852 6853 6854
          6855 6856 6857 6858 6859 6860
          6861 6862 6863 6864 6865 6866
          6867 6868 6869 6870 6871 6872
          6873 6874 6875 6876 6877 6878
          6879 6880 6881 6882 6883 6884
          6885 6886 6887 6888 6889 6890
          6891 6892 6893 6894 6895 6896
          6897 6898 6899 6900 6901 6902
          6903 6904 6905 6906 6907 6908
          6909 6910 6911 6912 6913 6914
          6915 6916 6917 6918 6919 6920
          6921 6922 6923 6924 6925 6926
          6927 6928 6929 6930 6931 6932
          6933 6934 6935 6936 6937 6938
          6939 6940 6941 6942 6943 6944
          6945 6946 6947 6948 6949 6950
          6951 6952 6953 6954 6955 6956
          6957 6958 6959 6960 6961 6962
          6963 6964 6965 6966 6967 6968
          6969 6970 6971 6972 6973 6974
          6975 6976 6977 6978 6979 6980
          6981 6982 6983 6984 6985 6986
          6987 6988 6989 6990 6991 6992
          6993 6994 6995 6996 6997 6998
          6999 7000 7001 7002 7003 7004
          7005 7006 7007 7008 7009 7010
          7011 7012 7013 7014 7015 7016
          7017 7018 7019 7020 7021 7022
          7023 7024 7025 7026 7027 7028
          7029 7030 7031 7032 7033 7034
          7035 7036 7037 7038 7039 7040
          7041 7042 7043 7044 7045 7046
          7047 7048 7049 7050 7051 7052
          7053 7054 7055 7056 7057 7058
          7059 7060 7061 7062 7063 7064
          7065 7066 7067 7068 7069 7070
          7071 7072 7073 7074 7075 7076
          7077 7078 7079 7080 7081 7082
          7083 7084 7085 7086 7087 7088
          7089 7090 7091 7092 7093 7094
          7095 7096 7097 7098 7099 7100
          7101 7102 7103 7104 7105 7106
          7107 7108 7109 7110 7111 7112
          7113 7114 7115 7116 7117 7118
          7119 7120 7121 7122 7123 7124
          7125 7126 7127 7128 7129 7130
          7131 7132 7133 7134 7135 7136
          7137 7138 7139 7140 7141 7142
          7143 7144 7145 7146 7147 7148
          7149 7150 7151 7152 7153 7154
          7155 7156 7157 7158 7159 7160
          7161 7162 7163 7164 7165 7166
          7167 7168 7169 7170 7171 7172
          7173 7174 7175 7176 7177 7178
          7179 7180 7181 7182 7183 7184
          7185 7186 7187 7188 7189 7190
          7191 7192 7193 7194 7195 7196
          7197 7198 7199 7200 7201 7202
          7203 7204 7205 7206 7207 7208
          7209 7210 7211 7212 7213 7214
          7215 7216 7217 7218 7219 7220
          7221 7222 7223 7224 7225 7226
          7227 7228 7229 7230 7231 7232
          7233 7234 7235 7236 7237 7238
          7239 7240 7241 7242 7243 7244
          7245 7246 7247 7248 7249 7250
          7251 7252 7253 7254 7255 7256
          7257 7258 7259 7260 7261 7262
          7263 7264 7265 7266 7267 7268
          7269 7270 7271 7272 7273 7274
          7275 7276 7277 7278 7279 7280
          7281 7282 7283 7284 7285 7286
          7287 7288 7289 7290 7291 7292
          7293 7294 7295 7296 7297 7298
          7299 7300 7301 7302 7303 7304
          7305 7306 7307 7308 7309 7310
          7311 7312 7313 7314 7315 7316
          7317 7318 7319 7320 7321 7322
          7323 7324 7325 7326 7327 7328
          7329 7330 7331 7332 7333 7334
          7335 7336 7337 7338 7339 7340
          7341 7342 7343 7344 7345 7346
          7347 7348 7349 7350 7351 7352
          7353 7354 7355 7356 7357 7358
          7359 7360 7361 7362 7363 7364
          7365 7366 7367 7368 7369 7370
          7371 7372 7373 7374 7375 7376
          7377 7378 7379 7380 7381 7382
          7383 7384 7385 7386 7387 7388
          7389 7390 7391 7392 7393 7394
          7395 7396 7397 7398 7399 7400
          7401 7402 7403 7404 7405 7406
          7407 7408 7409 7410 7411 7412
          7413 7414 7415 7416 7417 7418
          7419 7420 7421 7422 7423 7424
          7425 7426 7427 7428 7429 7430
          7431 7432 7433 7434 7435 7436
          7437 7438 7439 7440 7441 7442
          7443 7444 7445 7446 7447 7448
          7449 7450 7451 7452 7453 7454
          7455 7456 7457 7458 7459 7460
          7461 7462 7463 7464 7465 7466
          7467 7468 7469 7470 7471 7472
          7473 7474 7475 7476 7477 7478
          7479 7480 7481 7482 7483 7484
          7485 7486 7487 7488 7489 7490
          7491 7492 7493 7494 7495 7496
          7497 7498 7499 7500 7501 7502
          7503 7504 7505 7506 7507 7508
          7509 7510 7511 7512 7513 7514
          7515 7516 7517 7518 7519 7520
          7521 7522 7523 7524 7525 7526
          7527 7528 7529 7530 7531 7532
          7533 7534 7535 7536 7537 7538
          7539 7540 7541 7542 7543 7544
          7545 7546 7547 7548 7549 7550
          7551 7552 7553 7554 7555 7556
          7557 7558 7559 7560 7561 7562
          7563 7564 7565 7566 7567 7568
          7569 7570 7571 7572 7573 7574
          7575 7576 7577 7578 7579 7580
          7581 7582 7583 7584 7585 7586
          7587 7588 7589 7590 7591 7592
          7593 7594 7595 7596 7597 7598
          7599 7600 7601 7602 7603 7604
          7605 7606 7607 7608 7609 7610
          7611 7612 7613 7614 7615 7616
          7617 7618 7619 7620 7621 7622
          7623 7624 7625 7626 7627 7628
          7629 7630 7631 7632 7633 7634
          7636 7641 7643 7647 7648 7649
          7650 7651 7652 7653 7655 7659
          7660 7661 7662 7663 7664 7665
          7666 7667 7668 7669 7670 7671
          7672 7673 7674 7675 7676 7677
          7678 7679 7680 7681 7682 7683
          7684 7685 7686 7687 7688 7689
          7690 7691 7692 7693 7694 7695
          7696 7697 7698 7699 7700 7701
          7702 7703 7704 7705 7706 7707
          7708 7709 7710 7711 7712 7713
          7714 7715 7716 7717 7718 7719
          7720 7721 7722 7723 7724 7725
          7726 7727 7728 7731 7733 7734
          7736 7747 7749 7751 7753 7761
          7762 7763 7764 7765 7767 7768
          7769 7770 7781 7783 7785 7787
          7795 7796 7797 7798 7799 7800
          7801 7802 7803 7804 7805 7806
          7807 7808 7809 7810 7811 7812
          7813 7814 7815 7816 7817 7818
          7819 7820 7821 7822 7823 7824
          7825 7826 7827 7828 7829 7830
          7831 7832 7833 7834 7835 7836
          7837 7838 7839 7840 7841 7842
          7843 7845 7847 7849 7857 7859
          7863 7865 7867 7869 7877 7879
          7881 7883 2450 2676 2677 2682
          2667 2684 2668 2685 2673 2691
          2887 2890 2891 2660 2661 2896
          3358 3359 3360 3363 3370 3371
          3378 3379 3376 3381 3384 3385
          3388 3393 3399 3397 3401 3416
          3429 3431 3433 3435 4471 4553
          4554 4556 4561 4562 4567 4568
          4565 4570 4478 4572 4574 4578
          4582 4580 4584 4612 4614 4640
          4646 4648 4650 4642 4652 4618
          4656 7635 7729 7730 7732 4595
          7735 4596 7642 7748 7750 7752
          4599 7766 4602 7743 7744 7771
          7772 7746 7775 7777 7778 7780
          7782 7784 7786 4604 7654 7844
          7846 7848 7864 7866 7868 4616
          7858 7878 7880 7882
        </DataArray>
        <DataArray type="Float64" Name="bounds" format="ascii" RangeMin="0" RangeMax="0">
          0 0 0 0 0 0
          0 0 0 0 0 0
          0 0 0 0 0 0
          0 0 0 0 0 0
          0 0 0 0 0 0
          0 0 0 0 0 0
          0 0 0 0 0 0
          0 0 0 0 0 0
          0 0 0 0 0 0
          0 0 0 0 0 0
          0 0 0 0 0 0
          0 0 0 0 0 0
          0 0 0 0 0 0
          0 0 0 0 0 0
          0 0 0 0 0 0
          0 0 0 0 0 0
          0 0 0 0 0 0
          0 0 0 0 0 0
          0 0 0 0 0 0
          0 0 0 0 0 0
          0 0 0 0 0 0
          0 0 0 0 0 0
          0 0 0 0 0 0
          0 0 0 0 0 0
          0 0 0 0 0 0
          0 0 0 0 0 0
          0 0 0 0 0 0
          0 0 0 0 0 0
          0 0 0 0 0 0
          0 0 0 0 0 0
          0 0 0 0 0 0
          0 0 0 0 0 0
          0 0 0 0 0 0
          0 0 0 0 0 0
          0 0 0 0 0 0
          0 0 0 0 0 0
          0 0 0 0 0 0
          0 0 0 0 0 0
          0 0 0 0 0 0
          0 0 0 0 0 0
          0 0 0 0 0 0
          0 0 0 0 0 0
          0 0 0 0 0 0
          0 0 0 0 0 0
          0 0 0 0 0 0
          0 0 0 0 0 0
          0 0 0 0 0 0
          0 0 0 0 0 0
          0 0 0 0 0 0
          0 0 0 0 0 0
          0 0 0 0 0 0
          0 0 0 0 0 0
          0 0 0 0 0 0
          0 0 0 0 0 0
          0 0 0 0 0 0
          0 0 0 0 0 0
          0 0 0 0 0 0
          0 0 0 0 0 0
          0 0 0 0 0 0
          0 0 0 0 0 0
          0 0 0 0 0 0
          0 0 0 0 0 0
          0 0 0 0 0 0
          0 0 0 0 0 0
          0 0 0 0 0 0
          0 0 0 0 0 0
          0 0 0 0 0 0
          0 0 0 0 0 0
          0 0 0 0 0 0
          0 0 0 0 0 0
          0 0 0 0 0 0
          0 0 0 0 0 0
          0 0 0 0 0 0
          0 0 0 0 0 0
          0 0 0 0 0 0
          0 0 0 0 0 0
          0 0 0 0 0 0
          0 0 0 0 0 0
          0 0 0 0 0 0
          0 0 0 0 0 0
          0 0 0 0 0 0
          0 0 0 0 0 0
          0 0 0 0 0 0
          0 0 0 0 0 0
          0 0 0 0 0 0
          0 0 0 0 0 0
          0 0 0 0 0 0
          0 0 0 0 0 0
          0 0 0 0 0 0
          0 0 0 0 0 0
          0 0 0 0 0 0
          0 0 0 0 0 0
          0 0 0 0 0 0
          0 0 0 0 0 0
          0 0 0 0 0 0
          0 0 0 0 0 0
          0 0 0 0 0 0
          0 0 0 0 0 0
          0 0 0 0 0 0
          0 0 0 0 0 0
          0 0 0 0 0 0
          0 0 0 0 0 0
          0 0 0 0 0 0
          0 0 0 0 0 0
          0 0 0 0 0 0
          0 0 0 0 0 0
          0 0 0 0 0 0
          0 0 0 0 0 0
          0 0 0 0 0 0
          0 0 0 0 0 0
          0 0 0 0 0 0
          0 0 0 0 0 0
          0 0 0 0 0 0
          0 0 0 0 0 0
          0 0 0 0 0 0
          0 0 0 0 0 0
          0 0 0 0 0 0
          0 0 0 0 0 0
          0 0 0 0 0 0
          0 0 0 0 0 0
          0 0 0 0 0 0
          0 0 0 0 0 0
          0 0 0 0 0 0
          0 0 0 0 0 0
          0 0 0 0 0 0
          0 0 0 0 0 0
          0 0 0 0 0 0
          0 0 0 0 0 0
          0 0 0 0 0 0
          0 0 0 0 0 0
          0 0 0 0 0 0
          0 0 0 0 0 0
          0 0 0 0 0 0
          0 0 0 0 0 0
          0 0 0 0 0 0
          0 0 0 0 0 0
          0 0 0 0 0 0
          0 0 0 0 0 0
          0 0 0 0 0 0
          0 0 0 0 0 0
          0 0 0 0 0 0
          0 0 0 0 0 0
          0 0 0 0 0 0
          0 0 0 0 0 0
          0 0 0 0 0 0
          0 0 0 0 0 0
          0 0 0 0 0 0
          0 0 0 0 0 0
          0 0 0 0 0 0
          0 0 0 0 0 0
          0 0 0 0 0 0
          0 0 0 0 0 0
          0 0 0 0 0 0
          0 0 0 0 0 0
          0 0 0 0 0 0
          0 0 0 0 0 0
          0 0 0 0 0 0
          0 0 0 0 0 0
          0 0 0 0 0 0
          0 0 0 0 0 0
          0 0 0 0 0 0
          0 0 0 0 0 0
          0 0 0 0 0 0
          0 0 0 0 0 0
          0 0 0 0 0 0
          0 0 0 0 0 0
          0 0 0 0 0 0
          0 0 0 0 0 0
          0 0 0 0 0 0
          0 0 0 0 0 0
          0 0 0 0 0 0
          0 0 0 0 0 0
          0 0 0 0 0 0
          0 0 0 0 0 0
          0 0 0 0 0 0
          0 0 0 0 0 0
          0 0 0 0 0 0
          0 0 0 0 0 0
          0 0 0 0 0 0
          0 0 0 0 0 0
          0 0 0 0 0 0
          0 0 0 0 0 0
          0 0 0 0 0 0
          0 0 0 0 0 0
          0 0 0 0 0 0
          0 0 0 0 0 0
          0 0 0 0 0 0
          0 0 0 0 0 0
          0 0 0 0 0 0
          0 0 0 0 0 0
          0 0 0 0 0 0
          0 0 0 0 0 0
          0 0 0 0 0 0
          0 0 0 0 0 0
          0 0 0 0 0 0
          0 0 0 0 0 0
          0 0 0 0 0 0
          0 0 0 0 0 0
          0 0 0 0 0 0
          0 0 0 0 0 0
          0 0 0 0 0 0
          0 0 0 0 0 0
          0 0 0 0 0 0
          0 0 0 0 0 0
          0 0 0 0 0 0
          0 0 0 0 0 0
          0 0 0 0 0 0
          0 0 0 0 0 0
          0 0 0 0 0 0
          0 0 0 0 0 0
          0 0 0 0 0 0
          0 0 0 0 0 0
          0 0 0 0 0 0
          0 0 0 0 0 0
          0 0 0 0 0 0
          0 0 0 0 0 0
          0 0 0 0 0 0
          0 0 0 0 0 0
          0 0 0 0 0 0
          0 0 0 0 0 0
          0 0 0 0 0 0
          0 0 0 0 0 0
          0 0 0 0 0 0
          0 0 0 0 0 0
          0 0 0 0 0 0
          0 0 0 0 0 0
          0 0 0 0 0 0
          0 0 0 0 0 0
          0 0 0 0 0 0
          0 0 0 0 0 0
          0 0 0 0 0 0
          0 0 0 0 0 0
          0 0 0 0 0 0
          0 0 0 0 0 0
          0 0 0 0 0 0
          0 0 0 0 0 0
          0 0 0 0 0 0
          0 0 0 0 0 0
          0 0 0 0 0 0
          0 0 0 0 0 0
          0 0 0 0 0 0
          0 0 0 0 0 0
          0 0 0 0 0 0
          0 0 0 0 0 0
          0 0 0 0 0 0
          0 0 0 0 0 0
          0 0 0 0 0 0
          0 0 0 0 0 0
          0 0 0 0 0 0
          0 0 0 0 0 0
          0 0 0 0 0 0
          0 0 0 0 0 0
          0 0 0 0 0 0
          0 0 0 0 0 0
          0 0 0 0 0 0
          0 0 0 0 0 0
          0 0 0 0 0 0
          0 0 0 0 0 0
          0 0 0 0 0 0
          0 0 0 0 0 0
          0 0 0 0 0 0
          0 0 0 0 0 0
          0 0 0 0 0 0
          0 0 0 0 0 0
          0 0 0 0 0 0
          0 0 0 0 0 0
          0 0 0 0 0 0
          0 0 0 0 0 0
          0 0 0 0 0 0
          0 0 0 0
        </DataArray>
        <DataArray type="Float64" Name="gradient_error" format="ascii" RangeMin="1.293528597432341e-10" RangeMax="6.72515527827016e-8">
          1.293528597432341e-10 1.4821082924398618e-8 6.265537815232127e-10 5.5548283860142856e-8 3.75447394925476e-8 5.8981856081514095e-8
          4.1896759336304e-8 2.244792400087719e-8 1.6230727072960705e-8 3.947237586094295e-8 5.201479374470288e-8 1.0433861210659722e-8
          3.887815019602953e-8 3.975148611296087e-8 1.2930382712396892e-8 3.114560280197608e-8 3.27957603927298e-8 3.3970251115400493e-10
          4.9763769686092886e-8 8.502250292889363e-9 4.5496044055205055e-8 3.4176960175674815e-8 3.4385852904018876e-8 9.73812134121784e-10
          1.0089886587238803e-8 8.660958476808554e-9 1.8485762841002173e-8 2.185825536918279e-8 1.1554308297214614e-8 8.981981656943887e-9
          6.825822153642229e-9 5.298447913540115e-9 3.779451849285269e-9 4.546171757834984e-8 4.21003988258091e-8 4.559219308153174e-8
          4.1962363190345345e-8 5.290039922819317e-8 5.85608904291714e-8 5.257392347659422e-8 5.6570392677560166e-8 2.4629837101242576e-8
          3.465192730614005e-8 6.403458219594339e-9 2.7344903098880697e-8 5.31053792086556e-8 5.712148909337576e-8 1.5995663710932497e-10
          4.82210194713535e-9 3.055086191126836e-9 3.846484338982564e-8 5.2124687963550986e-8 5.4741674648879195e-8 5.5987827965329244e-8
          5.960020185446367e-8 4.5161741471633535e-8 4.1292191834375504e-8 2.0692376100923167e-8 4.406124227537061e-8 4.00212223657273e-8
          2.9731796830501096e-8 3.8733509793642846e-8 5.490714274709275e-8 4.603260167839329e-8 6.123974738065218e-8 1.9848727949017524e-8
          1.7906065024635933e-8 4.2174162067876095e-8 3.806150543810532e-8 1.4950824584014926e-8 3.939581353148814e-8 3.5323824229600055e-8
          1.306903161179945e-8 2.768145825242291e-8 2.5156050879517875e-8 3.960788566476489e-8 3.574322073930299e-8 3.477267091202938e-8
          4.122984070086799e-8 9.34456011261726e-9 1.77076393236204e-8 1.19328874423226e-8 3.914901228118322e-8 7.881623386432448e-9
          1.5931733547309162e-8 6.4258470119606205e-9 1.399128320277109e-8 5.588585649520331e-9 1.0449399398107032e-8 8.922299574218405e-9
          3.802678489078869e-8 3.613847316326276e-8 2.4975846061221115e-8 7.139268142975196e-9 2.8656901841668666e-8 7.994558432566643e-9
          1.905769091393708e-8 6.143368562095389e-8 5.493426317534937e-8 1.9982656941178568e-10 7.865663008364565e-10 6.940620090550858e-10
          4.573342955895144e-8 9.031565174090653e-9 8.841449049538871e-9 1.031265310302148e-8 9.905384461569025e-9 3.706572707433436e-8
          2.837109347668044e-8 4.768156779847979e-10 8.443565678722989e-10 1.1110836642596191e-9 3.323235477822138e-8 5.7378554214002494e-8
          5.973942940522225e-8 3.217986750117026e-8 6.346495529622279e-8 6.72515527827016e-8 5.0634457666932446e-8 3.999310119422444e-8
          4.157937807135906e-8 4.0160207992154354e-8 4.9566312826451835e-8 2.9736244326422444e-8 4.851727716696962e-8 1.3401057879998909e-8
          1.1983223606313936e-8 3.572192756418649e-8 3.1815621676133476e-8 8.555630988325767e-9 2.2170130582871192e-8 3.709312727307719e-8
          3.286451668721499e-8 2.997943792276068e-8 3.7501552290636714e-8 5.044044088528362e-9 1.1914347325604333e-8 3.542215533034154e-9
          7.397749273546744e-9 3.3712954024977365e-8 3.069286534013361e-8 2.0503155689519268e-8 1.1727884761442998e-8 1.0972660720866967e-8
          1.3058626644833617e-8 1.1886244814157626e-8 2.8911184271077224e-8 2.8867048009269593e-8 7.942931402223203e-10 1.421630258373974e-9
          1.7326566854422419e-9 9.388926632798607e-9 1.4045665356607112e-8 1.2431729275300713e-8 1.1611650770061588e-9 2.0295836598458376e-9
          1.0511717521782239e-8 3.864289434367401e-8 3.6497149054971145e-8 3.80825673549737e-8 3.524377768741912e-8 2.9215814786586723e-8
          2.8056439043756383e-8 4.64121063449682e-8 1.0436406800938333e-8 1.0948015781309204e-8 1.0760684243851053e-8 1.1355885161468722e-8
          1.0573352706392901e-8 1.066542908854099e-8 1.0475148115859414e-8 1.0284867143177837e-8 8.24398750337244e-9 1.0934999355196002e-8
          1.0784643335052646e-8 1.150734892687268e-8 1.1385239412243679e-8 1.0634287314909295e-8 1.1263129897614676e-8 6.08187942427133e-9
          8.092756583839237e-9 7.401463157157718e-9 1.0152208143348068e-8 9.468492900382512e-9 1.0024823730205404e-8 1.0569076135106873e-8
          9.806301245165319e-9 2.7978082889205106e-9 3.939874333875369e-9 7.113568580148439e-9 4.5772023011352365e-10 7.299250383640812e-10
          3.011653833678929e-9 6.433696720717964e-10 1.933565108078034e-9 7.471864076916478e-9 5.640055073433205e-9 1.3746840095176378e-10
          3.5468322060755975e-10 2.7754626739461513e-10 5.022773030761454e-9 9.222187943499096e-9 9.291134421802504e-9 8.975882986615681e-9
          9.728467975223432e-9 9.173326379748429e-9 9.776363006680176e-9 1.0312461737742087e-8 9.432112220241461e-9 7.787562768866781e-9
          9.746424768195031e-9 1.2048530850863138e-8 1.1889972866203144e-8 1.241813356637277e-8 1.1731414881543153e-8 1.310733396868512e-8
          1.294390715816049e-8 1.3444065388366744e-8 1.2780480347635863e-8 1.1452356059740785e-8 1.4190483375229182e-8 1.390077661714466e-8
          1.4346839949989444e-8 1.2995176004622328e-8 1.5200283325568043e-8 1.4785609833064926e-8 1.516441421685933e-8 1.358565609578673e-8
          1.1524615111380341e-8 1.1695553171611748e-8 1.0669948072576167e-8 1.1860727040667787e-8 1.1969725002443517e-8 1.0921078230323921e-8
          1.2113394662324925e-8 1.1972603955733941e-8 1.273227449101993e-8 1.2575304199209334e-8 1.1831813249142962e-8 1.2418333907398738e-8
          6.762183550112832e-9 6.719946753515308e-9 7.091058422783268e-9 8.231950946260274e-9 1.3385430814073752e-8 1.320222546697167e-8
          1.408819374525072e-8 1.387692209551933e-8 1.3019020119869587e-8 1.3476973748501084e-8 7.54843794506412e-9 7.491206680219453e-9
          7.951087714031474e-9 9.209371064813377e-9 1.116571531231846e-8 1.1840814079780402e-8 1.0944699785592608e-8 1.2216489134124802e-8
          1.1333357914322243e-8 1.2584470692427724e-8 1.1209213850304051e-8 1.237536507432821e-8 5.809949219807049e-10 7.778386267263996e-10
          5.607088991228916e-10 7.271410773533927e-10 3.734999904604035e-9 3.890862453562229e-9 1.3931691909501268e-10 2.422045714030902e-10
          2.6579629422255206e-10 8.971739659607047e-10 6.00333017306021e-10 7.263421091825202e-10 6.958428211464459e-10 7.808913199305279e-10
          4.059675536743158e-9 2.7059511337071303e-9 2.7349954226850204e-10 3.515318253968802e-10 4.4377679066619965e-10 7.080428162022593e-10
          8.659642025310208e-9 9.216797271861148e-9 1.0970936449707946e-8 1.1712650580049894e-8 6.157608868506687e-9 6.594085943063292e-9
          1.0997173113823285e-8 9.80771145614527e-9 8.902398773367933e-9 1.2489531104916359e-8 1.3311017775910825e-8 7.020103732498475e-9
          7.448330061846101e-9 1.2603697135504509e-8 1.483707562818745e-8 1.4602831330961151e-8 1.561479927464323e-8 1.534801292229747e-8
          1.38663848155965e-8 1.4488917595400176e-8 8.481439621700065e-9 8.478074038126194e-9 9.032727028938882e-9 8.290813485436618e-9
          1.640993301724004e-8 1.609859247326366e-8 1.7217842080674986e-8 1.68495376474227e-8 1.510564070724782e-8 1.5701721607133643e-8
          9.647690931457937e-9 9.613956634577693e-9 1.0240839382339283e-8 9.368887097250807e-9 1.2457292374941631e-8 1.2918230217697983e-8
          1.1550402152425114e-8 1.193985181454732e-8 1.0683121737514657e-8 1.1323778962781482e-8 1.3279731399305924e-8 1.3344609092498565e-8
          1.3729091435855763e-8 1.2265188699788771e-8 1.2535972871614656e-8 1.1918967749604877e-8 1.2523479201252684e-8 1.4031982762102466e-8
          8.351062257662615e-10 8.841552515161591e-10 9.939824600054078e-10 1.027754653409411e-9 1.2530971697258946e-9 1.3079039686479308e-9
          4.0725837936594876e-10 5.331394951736332e-10 6.259468912117082e-10 7.420081088112172e-10 1.1659835853693488e-9 1.1987387817527172e-9
          1.3645297614992432e-9 1.392060236209607e-9 1.4050481483262555e-9 1.5386787459228565e-9 5.49493594386795e-10 7.236962712314583e-10
          8.275221500881038e-10 9.696815180786444e-10 7.962338912002964e-9 8.420579472774127e-9 1.4225060570335446e-8 1.4269636449259608e-8
          7.892739745279072e-9 8.24794787576065e-9 1.4321514574333108e-8 7.099174286926618e-9 5.753395530781858e-9 1.27726198096525e-8
          1.1844483323290415e-8 5.026962884922143e-9 1.662039803021868e-9 1.1315880457497108e-8 1.1150796323019902e-8 1.1506813051839801e-8
          1.204934510891472e-8 1.0483472385644033e-8 1.1897198980409391e-8 1.1125798287694325e-8 1.264360163779888e-8 1.2165170423657132e-8
          1.2654915693189127e-8 1.1084191605242267e-8 1.1122736960589514e-8 1.2823527795474463e-8 1.3260486277463536e-8 1.1684910824840502e-8
          1.5936546145809833e-8 1.544645143933423e-8 1.561083540022372e-8 1.4020025514262244e-8 1.6212802519167415e-8 1.5639336992437528e-8
          1.5505984758203634e-8 1.4017923442650538e-8 1.2022797227252562e-8 1.1995637976215398e-8 1.0961900158839268e-8 1.186677745849477e-8
          1.162608812860435e-8 1.0763579497396111e-8 1.583375888740769e-8 1.5194470018606072e-8 1.345729711061438e-8 1.127305797495566e-8
          1.0186702878487021e-8 1.8011922097929576e-8 1.7574399628642506e-8 1.87425084671568e-8 1.8232726087482066e-8 1.6249975785919965e-8
          1.672103123866377e-8 1.1013427383030937e-8 1.0900649561153557e-8 1.1564947201522553e-8 1.0445978405480255e-8 1.9364560551340704e-8
          1.8782604171290963e-8 1.9830411563006946e-8 1.9179802925083324e-8 1.7084601879776884e-8 1.730948490877277e-8 1.2421822745978657e-8
          1.220503203877612e-8 1.2789276370605636e-8 1.1461781726777766e-8 1.4044331357588592e-8 1.4275364912821246e-8 1.2725588302692687e-8
          1.2831611056122291e-8 1.3110128692874874e-8 1.3642292918896976e-8 1.5473017476280678e-8 1.4408011763290176e-8 1.4420938948341751e-8
          1.284746755826781e-8 1.275210236629767e-8 1.4112545117005364e-8 1.4497266750821485e-8 1.6535890693349974e-8 1.5930298888274607e-9
          1.6070227998929671e-9 1.839425363063011e-9 1.8404769663642308e-9 1.7018764025466554e-9 1.890559814777807e-9 7.084075412517967e-10
          9.375056392674363e-10 1.0525389630735536e-9 1.265822692097134e-9 2.0992694532703613e-9 2.087471675768292e-9 2.367531406136367e-9
          2.342052449837704e-9 2.0979729186871805e-9 2.3161267051602067e-9 8.831187156605087e-10 1.1714703043520143e-9 1.2927302126155822e-9
          1.5767056052944016e-9 6.0927103439955305e-9 6.435246134185926e-9 1.2465039698322233e-8 1.3032529706600884e-8 1.7237783074512598e-9
          1.8075107098872815e-9 8.964126661101058e-9 6.7764919710523085e-9 7.107369076771361e-9 1.355334014694916e-8 1.4004268547350577e-8
          1.918778865961562e-9 2.0477798326653745e-9 9.768793060269656e-9 2.008823946421492e-8 1.9383459402745607e-8 1.7369173974280987e-8
          1.3605973807965396e-8 1.3281251273021785e-8 1.3647062522308399e-8 1.22190534504518e-8 1.42963758480814e-8 1.253308308887712e-8
          1.4759750729917896e-8 1.4863189262384775e-8 1.719803465244754e-8 2.629409604546923e-9 2.5966798235955442e-9 2.875172693302999e-9
          2.84440563246042e-9 2.5370797771481616e-9 2.754721081374979e-9 1.0659645486380141e-9 1.4138672414256372e-9 1.5324710494607975e-9
          1.885136360327093e-9 1.2585817001224196e-9 7.4116203145073916e-9 7.671658699117085e-9 1.4356038859546372e-8 1.4581668837324081e-8
          2.1807212039369077e-9 2.307139916584539e-9 1.0343164040964136e-8 1.2382806266426943e-8 1.2649906138266234e-8 1.078664531685366e-8
          1.2848912078549106e-8 1.2963655653939727e-8 1.0895136098423468e-8 1.3071863956034074e-8 1.3434338112866176e-8 1.1294911819934867e-8
          1.1448239641692123e-8 1.3760921645641204e-8 1.4218770087466122e-8 1.1803178323016074e-8 1.3728332588737151e-8 1.3936660698966686e-8
          1.1532531174355943e-8 1.1539795291994015e-8 1.4607753098925194e-8 1.4909665743993647e-8 1.2169926250288416e-8 1.2982445587879438e-8
          1.0695007798104719e-8 1.4045101639628971e-8 1.1464411000154856e-8 1.5107757691378504e-8 1.2233814202204995e-8 1.1905825702957468e-9
          1.186169713002307e-9 1.209075927112222e-9 1.2387705554676422e-9 1.2319821412221372e-9 1.2787941944332904e-9 1.264559500527567e-9
          1.29587619984943e-9 1.2503248066218438e-9 1.2885499177219977e-9 1.1138775700434584e-9 1.1545144487511595e-9 1.1951513274588605e-9
          7.925727541660263e-10 9.58145348391785e-10 3.765590668339922e-10 4.290270735500847e-10 6.222408008358141e-10 2.2841817945441605e-10