<?xml version="1.0"?>
<VTKFile type="UnstructuredGrid" version="0.1" byte_order="LittleEndian" header_type="UInt32" compressor="vtkZLibDataCompressor">
  <UnstructuredGrid>
    <Piece NumberOfPoints="4446" NumberOfCells="3195">
      <PointData>
        <DataArray type="Int32" Name="libmesh_node_id" format="ascii" RangeMin="54" RangeMax="45137">
          54 55 56 57 58 59
          60 61 62 63 64 65
          66 67 68 69 70 71
          72 73 74 75 76 77
          78 79 151 153 155 374
          375 376 377 378 379 380
          381 382 383 384 385 386
          387 419 420 421 422 423
          424 425 448 449 450 451
          452 453 454 546 548 549
          550 551 552 553 554 555
          556 557 558 559 560 561
          593 594 595 596 597 598
          599 622 623 624 625 626
          627 628 720 721 722 723
          724 725 726 727 728 729
          730 731 732 733 766 767
          768 769 770 771 795 796
          797 798 799 800 894 895
          896 897 898 899 900 901
          902 903 904 905 940 941
          942 943 944 945 969 970
          971 972 973 974 1068 1069
          1070 1071 1072 1073 1074 1075
          1076 1077 1078 1079 1114 1115
          1116 1117 1118 1119 1143 1144
          1145 1146 1147 1148 1218 1219
          1220 1221 1222 1223 1224 1225
          1226 1227 1228 1229 1230 1231
          1232 1233 1234 1235 1236 1237
          1238 1239 1240 1241 1242 1243
          1244 1245 1246 1247 1248 1249
          1250 1251 1252 1253 1254 1258
          1259 1264 1265 1266 1267 1268
          1269 1270 1271 1272 1273 1274
          1275 1276 1277 1278 1279 1280
          1281 1282 1283 1284 1285 1286
          1287 1288 1289 1290 1291 1292
          1293 1294 1295 1296 1297 1298
          1299 1300 1301 1302 1303 1304
          1305 1306 1307 1308 1309 1310
          1311 1312 1313 1314 1315 1316
          1317 1318 1319 1320 1321 1322
          1323 1324 1325 1326 1327 1328
          1329 1330 1331 1332 1333 1334
          1335 1336 1337 1338 1339 1340
          1341 1342 1343 1344 1345 1346
          1347 1348 1349 1350 1351 1353
          1355 1356 1358 1376 1377 1381
          1385 1387 1388 1389 1390 1391
          1392 1393 1394 1395 1396 1397
          1398 1399 1400 1401 1402 1403
          1404 1405 1406 1407 1408 1409
          1410 1411 1412 1413 1414 1415
          1416 1417 1418 1419 1420 1421
          1422 1423 1424 1425 1426 1427
          1428 1429 1430 1431 1432 1433
          1434 1435 1436 1437 1438 1441
          1443 1444 1446 1501 1502 1504
          1507 1509 1510 1511 1512 1513
          1514 1515 1516 1517 1518 1519
          1520 1521 1522 1523 1524 1525
          1526 1527 1528 1529 1530 1531
          1532 1533 1534 1535 1536 1537
          1538 1539 1540 1541 1542 1543
          1544 1545 1546 1547 1548 1549
          1550 1551 1552 1553 1554 1555
          1556 1557 1558 1599 1600 1601
          1602 1603 1604 1605 1606 1607
          1608 1609 1610 1611 1612 1613
          1614 1615 1616 1617 1618 1619
          1620 1621 1622 1623 1624 1625
          1626 1627 1628 1659 1660 1661
          1662 1663 1665 1666 1667 1668
          1673 1693 1694 1695 1696 1697
          1698 1699 1700 1701 1702 1703
          1704 1705 1706 1707 1708 1709
          1710 1711 1712 1713 1714 1715
          1716 1717 1718 1719 1720 1721
          1722 1723 1724 1725 1726 1727
          1728 1730 1731 1733 1735 1750
          1751 1752 1753 1754 1755 1756
          1757 1758 1759 1760 1761 1762
          1763 1764 1765 1766 1767 1768
          1769 1770 1771 1772 1773 1774
          1775 1776 1777 1778 1779 1780
          1781 1782 1783 1784 1786 1788
          1790 1805 1806 1807 1808 1809
          1810 1811 1812 1813 1814 1815
          1816 1817 1818 1819 1820 1821
          1822 1823 1824 1825 1826 1827
          1828 1829 1830 1831 1832 1833
          1834 1835 1836 1837 1838 1839
          1840 1841 1842 1843 1844 1845
          1846 1847 1848 1849 1850 1851
          1852 1853 1854 1855 1856 1859
          1860 1865 1880 1881 1882 1883
          1884 1885 1886 1887 1888 1889
          1890 1891 1892 1893 1894 1895
          1896 1897 1898 1899 1900 1901
          1902 1903 1904 1905 1906 1907
          1908 1909 1910 1911 1912 1913
          1914 1915 1916 1917 1918 1919
          1920 1921 1922 1923 1924 1925
          1926 1927 1928 1929 1930 1931
          1932 1933 1934 1935 1936 1937
          1938 1939 1940 1941 1942 1943
          1944 1945 1946 1947 1948 1949
          1950 1951 1952 1953 1954 1955
          1956 1957 1958 1959 1960 1961
          1962 1963 1964 1965 1966 1967
          1968 1969 1970 1971 1972 1973
          1974 1975 1976 1977 1978 1979
          1980 1981 1982 1983 1984 1985
          1986 1987 1988 1989 1990 1991
          1992 1993 1994 1995 1996 1997
          1998 1999 2000 2001 2002 2003
          2004 2005 2006 2007 2008 2009
          2010 2011 2012 2013 2014 2015
          2016 2017 2018 2019 2020 2021
          2022 2023 2024 2025 2026 2027
          2028 2029 2030 2031 2032 2033
          2034 2035 2036 2037 2038 2039
          2040 2041 2042 2043 2044 2045
          2046 2047 2048 2049 2050 2051
          2052 2053 2054 2055 2056 2057
          2058 2059 2060 2061 2062 2063
          2064 2065 2066 2067 2068 2069
          2070 2071 2072 2073 2074 2075
          2076 2077 2078 2079 2080 2081
          2082 2083 2084 2085 2086 2087
          2088 2089 2090 2091 2092 2093
          2094 2095 2096 2097 2098 2099
          2100 2101 2102 2103 2104 2105
          2106 2107 2108 2109 2110 2111
          2112 2113 2114 2115 2116 2117
          2118 2119 2120 2121 2122 2123
          2124 2125 2126 2127 2128 2129
          2130 2131 2132 2133 2134 2135
          2136 2137 2138 2139 2140 2141
          2142 2143 2144 2145 2146 2147
          2148 2149 2150 2151 2152 2154
          2155 2157 2158 2159 2160 2161
          2164 2165 2166 2168 2169 2171
          2176 2239 2240 2241 2245 2249
          2271 2272 2274 2277 2279 2280
          2281 2282 2283 2284 2285 2286
          2287 2288 2289 2290 2291 2292
          2293 2294 2295 2296 2297 2298
          2299 2300 2301 2302 2303 2304
          2305 2306 2307 2308 2309 2310
          2311 2312 2313 2314 2315 2316
          2317 2318 2319 2320 2321 2322
          2323 2324 2325 2326 2327 2328
          2329 2330 2331 2332 2333 2334
          2335 2336 2337 2338 2339 2340
          2341 2342 2343 2344 2345 2346
          2347 2348 2349 2350 2351 2352
          2353 2354 2355 2356 2357 2358
          2359 2360 2361 2362 2363 2364
          2365 2366 2367 2368 2369 2370
          2371 2372 2373 2374 2375 2376
          2377 2378 2379 2380 2381 2382
          2383 2384 2385 2386 2387 2388
          2389 2390 2391 2392 2393 2394
          2395 2396 2397 2398 2399 2400
          2401 2402 2403 2404 2405 2406
          2407 2408 2409 2410 2411 2412
          2413 2414 2415 2416 2417 2418
          2419 2420 2421 2422 2423 2424
          2425 2426 2427 2428 2429 2430
          2431 2432 2433 2434 2435 2436
          2437 2438 2439 2440 2441 2442
          2443 2444 2445 2446 2447 2448
          2449 2450 2451 2452 2453 2454
          2455 2456 2457 2458 2459 2460
          2461 2462 2463 2464 2465 2466
          2467 2468 2469 2470 2471 2472
          2473 2474 2475 2476 2477 2478
          2479 2480 2481 2482 2483 2484
          2485 2486 2487 2488 2489 2490
          2491 2492 2493 2494 2495 2496
          2497 2498 2499 2500 2501 2502
          2503 2504 2505 2506 2507 2508
          2509 2510 2511 2512 2513 2514
          2515 2516 2517 2518 2519 2520
          2521 2522 2523 2524 2525 2526
          2527 2528 2529 2530 2531 2532
          2533 2534 2535 2536 2537 2538
          2539 2540 2541 2542 2543 2544
          2545 2546 2547 2548 2549 2550
          2551 2552 2553 2554 2555 2556
          2557 2558 2559 2560 2561 2562
          2563 2564 2565 2566 2567 2568
          2569 2570 2571 2572 2573 2574
          2575 2576 2577 2578 2579 2590
          2591 2592 2593 2594 2595 2596
          2597 2598 2599 2600 2602 2604
          2605 2609 2610 2611 2612 2613
          2614 2615 2616 2617 2618 2619
          2630 2631 2632 2633 2634 2635
          2636 2639 2664 2667 2850 2851
          2853 2856 2870 2871 2873 2876
          2878 2879 2880 2881 2882 2883
          2884 2885 2886 2887 2888 2889
          2890 2891 2892 2893 2894 2895
          2896 2897 2898 2899 2900 2901
          2902 2903 2904 2905 2906 2907
          2908 2909 2910 2911 2912 2913
          2914 2915 2916 2917 2918 2919
          2920 2921 2922 2923 2924 2925
          2926 2927 2928 2929 2930 2931
          2932 2933 2934 2935 2936 2937
          2938 2939 2940 2941 2942 2943
          2944 2945 2946 2947 2948 2949
          2950 2951 2952 2953 2954 2955
          2956 2957 2958 2959 2960 2961
          2962 2963 2964 2965 2966 2967
          2968 2969 2970 2971 2972 2973
          2974 2975 2976 2977 2978 2979
          2980 2981 2982 2983 2984 2985
          2986 2987 2988 2989 2990 2991
          2992 2993 2994 2995 2996 2997
          2998 2999 3000 3001 3002 3003
          3004 3005 3006 3007 3008 3009
          3010 3011 3012 3013 3014 3015
          3016 3017 3018 3019 3020 3021
          3022 3023 3024 3025 3026 3027
          3028 3029 3030 3031 3032 3033
          3034 3035 3036 3037 3038 3039
          3040 3041 3042 3043 3044 3045
          3046 3047 3048 3049 3050 3051
          3052 3053 3054 3055 3056 3057
          3058 3059 3060 3061 3062 3063
          3064 3065 3066 3067 3068 3069
          3070 3071 3072 3073 3074 3075
          3076 3077 3078 3079 3080 3081
          3082 3083 3084 3085 3086 3087
          3088 3089 3090 3091 3092 3093
          3094 3095 3096 3097 3098 3099
          3100 3101 3102 3103 3104 3105
          3106 3107 3108 3109 3110 3111
          3112 3113 3114 3115 3116 3117
          3118 3119 3120 3121 3122 3123
          3124 3125 3126 3127 3128 3129
          3130 3131 3132 3133 3134 3135
          3136 3137 3138 3139 3140 3141
          3142 3143 3144 3145 3146 3147
          3148 3149 3150 3151 3152 3153
          3154 3155 3156 3157 3158 3159
          3160 3161 3162 3163 3164 3165
          3166 3167 3168 3169 3170 3171
          3172 3173 3174 3175 3176 3177
          3178 3179 3180 3181 3182 3183
          3184 3185 3186 3189 3191 3192
          3194 3205 3207 3209 3211 3219
          3220 3223 3225 3226 3228 3239
          3241 3243 3245 3409 3410 3411
          3412 3413 3414 3415 3416 3417
          3418 3419 3420 3421 3422 3423
          3424 3425 3426 3427 3428 3429
          3430 3431 3432 3433 3434 3435
          3436 3437 3438 3439 3440 3441
          3442 3443 3444 3445 3446 3447
          3448 3449 3450 3451 3452 3453
          3454 3455 3456 3461 3462 3466
          3469 3471 3472 3473 3474 3475
          3476 3477 3478 3479 3480 3507
          3510 3513 3515 3516 3517 3518
          3526 3527 3528 3529 3530 3531
          3532 3533 3534 3535 3536 3537
          3538 3539 3540 3541 3542 3543
          3544 3545 3546 3547 3548 3549
          3550 3551 3552 3553 3554 3555
          3556 3557 3558 3559 3560 3561
          3562 3563 3564 3565 3566 3567
          3568 3569 3570 3571 3572 3573
          3574 3575 3576 3577 3578 3579
          3580 3581 3582 3583 3584 3585
          3586 3587 3588 3589 3590 3591
          3592 3593 3594 3595 3596 3597
          3598 3599 3600 3601 3602 3603
          3604 3605 3606 3607 3608 3609
          3610 3611 3612 3613 3614 3615
          3616 3617 3618 3619 3620 3621
          3622 3623 3624 3625 3626 3627
          3628 3629 3630 3631 3632 3633
          3634 3635 3636 3637 3638 3639
          3640 3641 3642 3643 3644 3645
          3646 3647 3648 3649 3650 3651
          3652 3653 3654 3655 3656 3657
          3658 3659 3660 3661 3662 3663
          3664 3665 3666 3667 3668 3669
          3670 3671 3672 3673 3674 3675
          3676 3677 3678 3679 3680 3681
          3682 3683 3684 3685 3686 3687
          3688 3689 3690 3691 3692 3693
          3694 3695 3696 3718 3719 3723
          3726 3728 3729 3730 3731 3732
          3733 3734 3735 3736 3737 3738
          3739 3740 3741 3742 3743 3744
          3745 3746 3747 3748 3749 3750
          3751 3752 3753 3754 3755 3756
          3757 3758 3759 3760 3761 3762
          3763 3764 3765 3766 3767 3768
          3769 3770 3771 3772 3773 3774
          3775 3776 3777 3778 3779 3780
          3781 3782 3783 3784 3785 3786
          3787 3788 3789 3790 3836 3838
          3840 3853 3855 3857 3859 3860
          3861 3862 3863 3864 3865 3866
          3867 3868 3869 3870 3871 3872
          3873 3874 3875 3876 3877 3878
          3879 3880 3881 3882 3883 3884
          3885 3886 3887 3888 3889 3890
          3891 3892 3893 3894 3909 3910
          3911 3912 3913 3914 3915 3916
          3917 3918 3919 3920 3921 3922
          3923 3924 3925 3926 3927 3928
          3929 3930 3931 3932 3933 3934
          3935 3936 3937 3938 4265 4266
          4267 4268 4269 4270 4271 4272
          4273 4274 4275 4276 4277 4278
          4279 4280 4281 4282 4283 4284
          4285 4286 4287 4288 4289 4290
          4291 4292 4293 4294 4295 4296
          4297 4298 4299 4300 4301 4302
          4303 4304 4305 4306 4307 4308
          4309 4310 4311 4312 4313 4314
          4315 4316 4317 4318 4319 4320
          4321 4322 4323 4324 4325 4326
          4327 4328 4329 4330 4331 4332
          4333 4334 4335 4336 4337 4338
          4339 4340 4341 4342 4343 4344
          4345 4346 4347 4348 4349 4350
          4351 4352 4353 4354 4355 4356
          4357 4358 4359 4360 4361 4362
          4363 4364 4365 4366 4367 4368
          4369 4370 4371 4372 4373 4374
          4375 4376 4377 4378 4379 4380
          4381 4382 4383 4384 4385 4386
          4387 4388 4389 4390 4391 4392
          4393 4394 4395 4396 4397 4398
          4399 4400 4401 4402 4403 4404
          4405 4406 4407 4408 4409 4410
          4411 4412 4413 4414 4415 4416
          4417 4418 4419 4420 4421 4422
          4423 4424 4425 4426 4427 4428
          4429 4430 4431 4432 4433 4434
          4435 4436 4437 4438 4439 4440
          4441 4442 4443 4444 4445 4446
          4447 4448 4449 4450 4451 4452
          4453 4454 4455 4456 4457 4458
          4459 4460 4461 4462 4463 4464
          4465 4466 4467 4468 4469 4470
          4471 4472 4473 4474 4475 4476
          4477 4478 4479 4480 4481 4482
          4483 4484 4485 4486 4487 4488
          4490 4495 4497 4501 4502 4503
          4504 4505 4506 4507 4508 4509
          4510 4511 4512 4513 4514 4515
          4516 4517 4518 4519 4520 4521
          4522 4523 4524 4525 4526 4527
          4528 4529 4530 4531 4532 4533
          4534 4535 4536 4537 4538 4539
          4540 4541 4542 4543 4544 4545
          4546 4547 4548 4549 4550 4551
          4552 4553 4554 4555 4558 4560
          4561 4563 4574 4576 4578 4580
          4588 4589 4592 4594 4595 4597
          4608 4610 4612 4614 4622 4623
          4624 4625 4626 4627 4628 4630
          5238 5239 5240 5241 5242 5243
          5244 5245 5246 5247 5248 5249
          5250 5251 5252 5253 5254 5255
          5256 5257 5258 5259 5260 5261
          5262 5263 5264 5265 5266 5267
          5268 5269 5270 5271 5272 5273
          5274 5275 5276 5277 5278 5279
          5280 5281 5282 5283 5284 5285
          5286 5287 5288 5289 5290 5291
          5292 5293 5294 5295 5296 5297
          5298 5299 5300 5301 5302 5303
          5304 5305 5306 5307 5308 5309
          5310 5311 5312 5313 5314 5315
          5316 5317 5318 5319 5320 5321
          5322 5323 5324 5325 5326 5327
          5328 5329 5330 5331 5332 5333
          5334 5335 5336 5337 5338 5339
          5340 5341 5342 5343 5344 5345
          5346 5347 5348 5349 5350 5351
          5352 5353 5354 5355 5356 5357
          5358 5359 5360 5361 5362 5363
          5364 5365 5366 5367 5368 5369
          5370 5371 5372 5373 5374 5375
          5376 5377 5378 5379 5380 5381
          5382 5383 5384 5385 5386 5387
          5388 5389 5390 5391 5392 5393
          5394 5395 5396 5397 5398 5399
          5400 5401 5402 5403 5404 5405
          5406 5407 5408 5409 5410 5411
          5412 5413 5414 5415 5416 5417
          5418 5419 5420 5421 5422 5423
          5424 5425 5426 5427 5428 5429
          5430 5431 5432 5433 5434 5435
          5436 5437 5438 5439 5440 5441
          5442 5443 5444 5445 5446 5447
          5448 5449 5450 5451 5452 5453
          5454 5455 5456 5457 5458 5459
          5460 5461 5462 5463 5464 5465
          5466 5467 5468 5469 5470 5471
          5472 5473 5474 5475 5476 5477
          5478 5479 5480 5481 5482 5483
          5484 5485 5486 5487 5488 5489
          5490 5491 5492 5493 5494 5495
          5496 5497 5498 5499 5500 5501
          5502 5503 5504 5505 5506 5507
          5508 5509 5510 5511 5512 5513
          5514 5515 5516 5517 5518 5519
          5520 5521 5522 5523 5524 5525
          5526 5527 5528 5529 5530 5531
          5532 5533 5534 5535 5536 5537
          5538 5539 5540 5541 5542 5543
          5544 5545 5546 5547 5548 5549
          5550 5551 5552 5553 5554 5555
          5556 5557 5558 5559 5560 5561
          5562 5563 5564 5565 5566 5567
          5568 5569 5570 5571 5572 5573
          5574 5575 5576 5577 5578 5579
          5580 5581 5582 5583 5584 5585
          5586 5587 5588 5589 5590 5591
          5592 5593 5594 5595 5596 5597
          5598 5599 5600 5601 5602 5603
          5604 5605 5606 5607 5608 5609
          5610 5611 5612 5613 5614 5615
          5616 5617 5618 5619 5620 5621
          5622 5623 5624 5625 5626 5627
          5628 5629 5630 5631 5632 5633
          5634 5635 5636 5637 5638 5639
          5640 5641 5642 5643 5644 5645
          5646 5647 5648 5649 5650 5651
          5652 5653 5654 5655 5656 5657
          5658 5659 5660 5661 5662 5663
          5664 5665 5666 5667 5668 5669
          5670 5671 5672 5673 5674 5675
          5676 5677 5678 5679 5680 5681
          5682 5683 5684 5685 5686 5687
          5688 5689 5690 5691 5692 5693
          5694 5695 5696 5697 5698 5699
          5700 5701 5702 5703 5704 5705
          5706 5707 5708 5709 5710 5711
          5712 5713 5714 5715 5716 5717
          5718 5719 5720 5721 5722 5723
          5724 5725 5726 5727 5728 5729
          5730 5731 5732 5733 5734 5735
          5736 5737 5738 5739 5740 5741
          5742 5743 5744 5745 5746 5747
          5748 5749 5750 5751 5752 5753
          5754 5755 5756 5757 5758 5759
          5760 5761 5762 5763 5764 5765
          5766 5767 5768 5769 5770 5771
          5772 5773 5774 5775 5776 5777
          5778 5779 5780 5781 5782 5783
          5784 5785 5786 5787 5788 5789
          5790 5791 5792 5793 5794 5795
          5796 5797 5798 5799 5800 5801
          5802 5803 5804 5805 5806 5807
          5808 5809 5810 5811 5812 5813
          5814 5815 5816 5817 5818 5819
          5820 5821 5822 5823 5824 5825
          5826 5827 5828 5829 5830 5831
          5832 5833 5834 5835 5836 5837
          5838 5839 5840 5841 5842 5843
          5844 5845 5846 5847 5848 5849
          5850 5851 5852 5853 5854 5855
          5856 5857 5858 5859 5860 5861
          5862 5863 5864 5865 5866 5867
          5868 5869 5870 5871 5872 5873
          5874 5875 5876 5877 5878 5879
          5880 5881 5882 5883 5884 5885
          5886 5887 5888 5889 5890 5891
          5892 5893 5894 5895 5896 5897
          5898 5899 5900 5901 5902 5903
          5904 5905 5906 5907 5908 5909
          5910 5911 5912 5913 5914 5915
          5916 5917 5918 5919 5920 5921
          5922 5923 5924 5925 5926 5927
          5928 5929 5930 5931 5932 5933
          5934 5935 5936 5937 5938 5939
          5940 5941 5942 5943 5944 5945
          5946 5947 5948 5949 5950 5951
          5952 5953 5954 5955 5956 5957
          5958 5959 5960 5961 5962 5963
          5964 5965 5966 5967 5968 5969
          5970 5971 5972 5973 5974 5975
          5976 5977 5978 5979 5980 5981
          5982 5983 5984 5985 5986 5987
          5988 5989 5990 5991 5992 5993
          5994 5995 5996 5997 5998 5999
          6000 6001 6002 6003 6004 6005
          6006 6007 6008 6009 6010 6011
          6012 6013 6014 6015 6016 6017
          6018 6019 6020 6021 6022 6023
          6024 6025 6026 6027 6028 6029
          6030 6031 6032 6033 6034 6035
          6036 6037 6038 6039 6040 6041
          6042 6043 6044 6045 6046 6047
          6048 6049 6050 6051 6052 6053
          6054 6055 6056 6057 6058 6059
          6060 6061 6062 6063 6064 6065
          6066 6067 6068 6069 6070 6071
          6072 6073 6074 6075 6076 6077
          6078 6079 6080 6081 6082 6083
          6084 6085 6086 6087 6088 6089
          6090 6091 6092 6093 6094 6095
          6096 6097 6098 6099 6100 6101
          6102 6103 6104 6105 6106 6107
          6108 6109 6110 6111 6112 6113
          6114 6115 6116 6117 6118 6119
          6120 6121 6122 6123 6124 6125
          6126 6127 6128 6129 6130 6131
          6132 6133 6134 6135 6136 6137
          6138 6139 6140 6141 6142 6143
          6144 6145 6146 6147 6148 6149
          6150 6151 6152 6153 6154 6155
          6156 6157 6158 6159 6160 6161
          6162 6163 6164 6165 6166 6167
          6168 6169 6170 6171 6172 6173
          6174 6175 6176 6177 6178 6179
          6180 6181 6182 6183 6184 6185
          6186 6187 6188 6189 6190 6191
          6192 6193 6194 6195 6196 6197
          6198 6199 6200 6201 6202 6203
          6204 6205 6206 6207 6208 6209
          6210 6211 6212 6213 6214 6215
          6216 6217 6218 6219 6220 6221
          6222 6223 6224 6225 6226 6227
          6228 6229 6230 6231 6232 6233
          6234 6235 6236 6237 6238 6239
          6240 6241 6242 6243 6244 6245
          6246 6247 6248 6249 6250 6251
          6252 6253 6254 6255 6256 6257
          6258 6259 6260 6261 6262 6263
          6264 6265 6266 6267 6268 6269
          6270 6271 6272 6273 6274 6275
          6276 6277 6278 6279 6280 6281
          6282 6283 6284 6285 6286 6287
          6288 6289 6290 6291 6292 6293
          6294 6295 6296 6297 6298 6299
          6300 6301 6302 6303 6304 6305
          6306 6307 6308 6309 6310 6311
          6312 6313 6314 6315 6316 6317
          6318 6319 6320 6321 6322 6323
          6324 6325 6326 6327 6328 6329
          6330 6331 6332 6333 6334 6335
          6336 6337 6338 6339 6340 6341
          6342 6343 6344 6345 6346 6347
          6348 6349 6350 6351 6352 6353
          6354 6355 6356 6357 6358 6359
          6360 6361 6362 6363 6364 6365
          6366 6367 6368 6369 6370 6371
          6372 6373 6374 6375 6376 6377
          6378 6379 6380 6381 6382 6383
          6384 6385 6386 6387 6388 6389
          6390 6391 6392 6393 6394 6395
          6396 6397 6398 6399 6400 6401
          6402 6403 6404 6405 6406 6407
          6408 6409 6410 6411 6412 6413
          6414 6415 6416 6417 6418 6419
          6420 6421 6422 6423 6424 6425
          6426 6427 6428 6429 6430 6431
          6432 6433 6434 6435 6436 6437
          6438 6439 6440 6441 6442 6443
          6444 6445 6446 6447 6448 6449
          6450 6451 6452 6453 6454 6455
          6456 6457 6458 6459 6460 6461
          6462 6463 6464 6465 6466 6467
          6468 6469 6470 6471 6472 6473
          6474 6475 6476 6477 6478 6479
          6480 6481 6482 6483 6484 6485
          6486 6487 6488 6489 6490 6491
          6492 6493 6494 6495 6497 6498
          6499 6500 6501 6502 6503 6504
          6505 6506 6507 6508 6509 6511
          6512 6513 6514 6515 6516 6517
          6518 6519 6520 6521 6522 6523
          6526 6528 6529 6531 6532 6533
          6534 6535 6536 6537 6538 6539
          6541 6543 6545 6546 6547 6550
          6566 6568 6614 6615 6616 6617
          6618 6619 6620 6621 6622 6623
          6624 6625 6627 6628 6629 6630
          6631 6632 6633 6634 6635 6637
          6639 6641 6642 6644 6670 6671
          6672 6673 6674 6675 6676 6677
          6678 6679 6680 6681 6684 6686
          6687 6689 6690 6691 6692 6693
          6694 6695 6696 6697 6699 6701
          6703 6704 6705 6706 6707 6708
          6709 6710 6711 6712 6713 6714
          6715 6718 6720 6721 6723 6724
          6725 6726 6727 6728 6729 6730
          6731 6733 6735 6737 6806 6807
          6808 6809 6810 6811 6812 6813
          6815 6817 6819 6820 6821 6822
          6823 6824 6825 6826 6827 6829
          6831 6833 7667 7668 7669 7670
          7671 7672 7673 7674 7675 7676
          7678 7701 7702 7703 7704 7705
          7706 7707 7708 7709 7710 7711
          7712 7713 7714 7715 7716 7717
          7725 7726 7727 7728 7729 7730
          7731 7732 7733 7734 7735 7736
          7737 7738 7739 7740 7741 7742
          7743 7744 7745 7746 7747 7748
          7749 7750 7751 7752 7753 7754
          7755 7763 7764 7765 7766 7767
          7768 7769 7797 7798 7799 7800
          7801 7802 7803 7804 7805 7806
          7807 7808 7809 7810 7811 7812
          7813 7814 7815 7816 7878 7879
          7880 7881 7882 7883 7884 7885
          7886 7887 7888 7889 7890 7891
          7892 7893 7894 7895 7896 7897
          7898 7899 7900 7901 7902 7903
          7904 7905 7906 7907 7908 7909
          7910 7911 7912 7913 7915 7916
          7918 7920 7921 7922 7923 7924
          7925 7926 7927 7928 7930 7932
          7934 8070 8071 8072 8073 8074
          8075 8076 8077 8078 8079 8080
          8081 8082 8083 8084 8085 8086
          8087 8088 8089 8090 8091 8092
          8093 8094 8095 8096 8097 8098
          8099 8100 8101 8102 8103 8104
          8105 8106 8107 8108 8109 8110
          8111 8112 8113 8114 8115 8116
          8117 8202 8203 8204 8205 8206
          8207 8208 8209 8210 8211 8212
          8213 8214 8215 8216 8217 8218
          8219 8220 8221 8222 8223 8224
          8225 8226 8227 8228 8229 8230
          8231 8232 8233 8234 8235 8236
          8237 8238 8239 8240 8241 8242
          8243 8244 8245 8246 8247 8248
          8249 8250 8251 8252 8253 8254
          8255 8256 8257 8258 8259 8260
          8261 8262 8263 8264 8265 8266
          8267 8268 8269 13980 13981 13982
          13983 13984 13985 13986 13987 13988
          13989 13990 13991 13992 13993 13996
          13997 14008 14009 14014 14015 14016
          14017 14018 14019 14020 14021 14023
          14052 14053 14054 14055 14056 14057
          14058 14059 14060 14061 14062 14063
          14064 14065 14066 14067 14068 14069
          14070 14071 14072 14073 14074 14075
          14076 14077 14078 14079 14080 14081
          14082 14083 14084 14085 14086 14087
          14088 14089 14100 14101 14102 14103
          14104 14105 14106 14107 14108 14109
          14110 14111 14112 14113 14114 14115
          14116 14117 14118 14119 14120 14121
          14122 14123 14182 14183 14184 14185
          14186 14187 14188 14189 14190 14191
          14192 14193 14194 14195 14196 14197
          14198 14199 14200 14201 14202 14203
          14204 14205 14206 14207 14208 14209
          14210 14211 14212 14213 14214 14215
          14216 14218 14219 14220 14222 14223
          14224 14225 14226 14227 14228 14229
          14230 14231 14232 14233 14235 14237
          14240 14244 14261 14262 14263 14264
          14265 14266 14267 14268 14269 14270
          14271 14272 14273 14274 14275 14276
          14277 14278 14279 14280 14281 14282
          14283 14284 14285 14286 14287 14288
          14289 14290 14291 14292 14293 14294
          14295 14296 14297 14298 14299 14300
          14301 14302 14303 14304 14305 14306
          14307 14308 14309 14310 14311 14312
          14313 14314 14315 14391 14392 14393
          14394 14395 14396 14397 14398 14399
          14400 14401 14402 14403 14404 14405
          14406 14407 14408 14409 14410 14411
          14412 14413 14414 14415 14416 14417
          14418 14419 14420 14421 14422 14423
          14424 14425 14426 14427 14428 14429
          14430 14431 14432 14433 14434 14435
          14436 14437 14438 14439 14440 14441
          14442 14443 14444 14445 14446 14447
          14448 14449 14450 14451 14452 14453
          14454 14455 14456 14457 14458 14459
          14460 14461 14462 14463 14464 14465
          14466 14467 14468 14469 14470 14471
          14472 14473 14474 14475 14476 14477
          14478 14479 14480 14481 14482 14483
          14484 14485 14486 14487 14488 14489
          14490 14491 14492 14493 14494 14495
          14496 14497 14498 14499 14500 14501
          14502 14503 14504 14505 14506 14507
          14508 14509 45002 45003 45004 45005
          45006 45007 45008 45009 45010 45011
          45012 45013 45014 45015 45114 45115
          45118 45120 45122 45123 45124 45125
          45126 45127 45128 45129 45130 45131
          45132 45133 45134 45135 45136 45137
          772 801 773 802 946 975
          1120 1149 1354 1664 1669 1670
          735 1671 1672 1363 1674 1729
          1732 1734 1785 1787 1789 1352
          2153 734 2156 1357 2162 2163
          2167 2170 2580 2581 2582 2583
          2584 2585 2586 2587 2589 2601
          2603 2606 2607 2608 1442 2624
          2637 2638 2640 2629 2641 2643
          2642 907 2644 2645 2646 2647
          2648 2649 2654 2655 2656 2657
          2658 2659 2665 2666 2668 2669
          2673 2674 2675 2676 3206 3208
          3210 1563 3212 3214 3240 3242
          3244 1568 2181 2212 2216 2214
          4489 4556 4557 4559 2620 4562
          2621 4496 4575 4577 4579 4590
          4591 4593 2626 4596 2627 4609
          4611 4613 3187 6496 3188 6510
          3190 6524 6525 6527 1559 6530
          3193 6540 6542 6544 1560 6548
          6549 6551 6552 6553 3195 6554
          6555 3196 6567 6569 6570 6571
          6572 3199 6626 6636 6638 6640
          4629 6643 6645 6646 6647 6648
          6682 6683 6685 3221 6688 3222
          6698 6700 6702 3224 6716 6717
          6719 1565 6722 3227 6732 6734
          6736 1566 6814 6816 6818 6828