<?xml version="1.0"?>
<VTKFile type="UnstructuredGrid" version="0.1" byte_order="LittleEndian" header_type="UInt32" compressor="vtkZLibDataCompressor">
  <UnstructuredGrid>
    <Piece NumberOfPoints="4100" NumberOfCells="3165">
      <PointData>
        <DataArray type="Int32" Name="libmesh_node_id" format="ascii" RangeMin="1463" RangeMax="41955">
          3337 3365 3366 3371 3372 5094
          5095 7299 7300 7305 7306 7333
          7334 7335 7336 7339 7340 7341
          7483 7484 7485 7486 7487 7488
          7489 7490 7491 7492 7503 7504
          7507 7508 7517 7518 7519 7520
          7521 7522 7523 7524 7525 7526
          7537 7538 7541 7542 10010 10011
          10309 10310 10311 10312 10313 10314
          10315 10316 10317 10318 10329 10330
          10331 10333 10334 11954 11955 11956
          11957 11958 11959 11960 11961 11962
          11963 11974 11975 11978 11979 11988
          11989 11990 11991 11992 11993 11994
          11995 11996 11997 12004 12005 12007
          12008 12009 12012 12013 12019 12202
          12203 12204 12205 12206 12207 12208
          12209 12210 12211 12212 12213 12216
          12218 12219 12220 12221 12222 12223
          12226 12227 12229 12233 12234 12236
          12237 12238 12239 12240 12241 12242
          12243 12244 12245 12246 12247 12248
          12249 12250 12251 12252 12253 12254
          12255 12256 12257 12260 12261 12263
          12264 12267 12268 12808 12809 12810
          12811 12813 12817 12818 12819 12820
          12822 12994 12995 12996 12997 12999
          13007 13008 13009 13010 13012 13013
          13014 13015 13016 13017 13018 13019
          13020 13021 13022 13023 13024 13025
          13026 13027 13028 13029 13030 13031
          13032 13033 13034 13035 13036 13037
          13038 13039 13040 13041 13042 13043
          13044 13045 13046 13047 13048 13049
          13050 13051 13052 13053 13054 13055
          13056 13057 13058 13059 13060 13061
          13062 13063 13064 13065 13066 13067
          13068 13069 13070 13071 13072 13073
          13074 13075 13076 13077 13078 13079
          13080 13087 13088 13090 13105 13107
          13115 13116 13119 13121 13122 13124
          13135 13137 13139 13141 13149 13150
          13151 13152 13153 13154 13155 13160
          13161 13162 13163 13164 13167 13168
          13177 13178 13179 13180 13181 13182
          13183 13184 13185 13186 13187 13188
          13189 13190 13191 13192 13195 13196
          13261 13262 13263 13264 13265 13266
          13267 13268 13269 13270 13271 13272
          13273 13274 13275 13276 13277 13278
          13279 13280 13281 13282 13283 13284
          13285 13286 13287 13288 13289 13290
          13291 13292 13293 13294 13295 13296
          13297 13298 13299 13300 13301 13302
          13303 13304 13305 13306 13307 13308
          13309 13310 13311 13312 13313 13314
          13315 13316 13317 13318 13319 13320
          13321 13322 13323 13324 13325 13326
          13327 13328 13329 13330 13333 13335
          13336 13338 13349 13351 13353 13355
          13363 13364 13367 13369 13370 13372
          13383 13385 13387 13389 13397 13398
          13399 13400 13401 13402 13403 13404
          13405 13406 13407 13408 13409 13410
          13411 13412 13415 13416 13425 13426
          13427 13428 13429 13430 13431 13432
          13433 13434 13435 13436 13437 13438
          13439 13440 13443 13444 25750 25757
          25758 25759 25760 25763 25768 25769
          25770 25771 25772 25773 25774 25775
          25776 25777 25778 25779 25780 25781
          25782 25783 25784 25785 25786 25787
          25788 25789 25790 25791 25792 25793
          25794 25801 25802 25804 25819 25821
          25829 25830 25833 25835 25836 25838
          25849 25851 25853 25855 25865 25870
          25871 25872 25875 25880 25881 25883
          25884 25885 25886 25887 25888 25889
          25890 25891 25892 25893 25894 25895
          25896 25897 25898 25899 25900 25901
          25907 25909 25921 25931 25933 25935
          25937 25945 25947 25949 32456 32457
          32458 32459 32460 32461 32462 32463
          32464 32465 32466 32467 32468 32469
          32470 32471 32472 32473 32474 32475
          32476 32477 32478 32479 32480 32481
          32482 32483 32484 32485 32486 32487
          32488 32489 32490 32491 32492 32493
          32494 32495 32496 32497 32498 32499
          32500 32501 32502 32503 32504 32505
          32506 32507 32508 32509 32510 32511
          32512 32513 32514 32517 32519 32520
          32522 32533 32535 32537 32539 32547
          32548 32551 32553 32554 32556 32567
          32569 32571 32573 32581 32582 32583
          32584 32585 32586 32587 32588 32589
          32590 32591 32593 32594 32595 32598
          32599 32601 32602 32603 32604 32605
          32606 32607 32608 32609 32610 32611
          32613 32614 32615 32618 32619 32621
          32623 32625 32627 32635 32639 32649
          32651 32653 32655 32663 32667 32677
          32678 32679 32680 32681 32682 32683
          32684 32685 32686 32687 32688 32689
          32690 32691 32692 32693 32694 32695
          32696 32697 32698 32699 32700 32701
          32702 32703 32704 32705 32706 32707
          32708 32709 32710 32711 32712 32713
          32714 32715 32716 32717 32718 32719
          32720 32721 32722 32723 32724 32725
          32726 32727 32728 32729 32730 32731
          32732 32733 32734 32735 32736 32737
          32738 32739 32740 32743 32745 32746
          32748 32759 32761 32763 32765 32773
          32774 32775 32776 32777 32778 32779
          32780 32781 32782 32783 32784 32787
          32789 32790 32792 32793 32794 32795
          32796 32797 32798 32799 32800 32802
          32804 32806 32807 32808 32809 32810
          32811 32812 32813 32814 32815 32816
          32817 32819 32820 32821 32824 32825
          32827 32828 32829 32830 32831 32832
          32833 32834 32835 32836 32837 32839
          32840 32841 32844 32845 32847 32849
          32851 32853 32861 32865 32875 32876
          32877 32878 32879 32880 32881 32882
          32884 32886 32888 32889 32890 32893
          32894 32896 32900 34231 34232 34233
          34234 34235 34236 34237 34238 34239
          34240 34241 34242 34243 34244 34245
          34246 34247 34248 34249 34250 34251
          34252 34253 34254 34255 34256 34257
          34258 34259 34260 34261 34262 34263
          34264 34265 34266 34267 34268 34269
          34270 34271 34272 34273 34274 34275
          34276 34277 34278 34279 34280 34281
          34282 34283 34284 34285 34286 34287
          34288 34289 34290 34291 34292 34293
          34294 34295 34296 34297 34298 34299
          34300 34301 34302 34303 34304 34305
          34306 34307 34308 34309 34310 34313
          34315 34316 34318 34319 34320 34321
          34322 34323 34324 34325 34326 34328
          34330 34332 34333 34334 34335 34336
          34337 34338 34339 34340 34341 34342
          34343 34344 34347 34349 34350 34351
          34352 34353 34354 34355 34356 34357
          34358 34359 34360 34362 34364 34365
          34366 34367 34368 34369 34370 34371
          34372 34373 34374 34375 34376 34377
          34379 34380 34381 34384 34385 34387
          34388 34389 34390 34391 34392 34393
          34394 34395 34396 34397 34399 34400
          34401 34404 34405 34407 34408 34409
          34410 34411 34412 34413 34414 34416
          34418 34420 34421 34422 34425 34426
          34428 34432 34435 34436 34437 34438
          34439 34440 34441 34442 34444 34446
          34447 34448 34449 34450 34453 34454
          34456 34460 34461 34463 34464 34465
          34466 34467 34468 34469 34470 34471
          34472 34473 34474 34475 34476 34477
          34478 34479 34480 34481 34482 34483
          34484 34485 34486 34487 34488 34489
          34490 34491 34492 34493 34494 34495
          34496 34497 34498 34499 34500 34501
          34502 34503 34504 34505 34506 34507
          34508 34509 34510 34511 34512 34513
          34514 34515 34516 34517 34518 34519
          34520 34521 34522 34523 34524 34525
          34526 34527 34528 34529 34530 34531
          34532 34533 34534 34535 34536 34537
          34538 34539 34540 34541 34542 34543
          34544 34545 34546 34547 34548 34549
          34550 34551 34552 34553 34554 34555
          34556 34557 34558 34559 34560 34561
          34562 34563 34564 34565 34566 34567
          34568 34569 34570 34571 34572 34573
          34574 34575 34576 34577 34578 34579
          34580 34581 34582 34583 34584 34585
          34586 34587 34588 34589 34590 34591
          34592 34593 34594 34595 34596 34597
          34598 34599 34600 34601 34602 34603
          34604 34605 34606 34607 34608 34609
          34611 34612 34613 34616 34617 34619
          34620 34621 34622 34623 34624 34625
          34626 34627 34628 34629 34631 34632
          34633 34636 34637 34639 34640 34641
          34642 34643 34644 34645 34646 34647
          34648 34649 34650 34651 34652 34653
          34654 34657 34658 34660 34661 34664
          34665 34667 34668 34669 34670 34671
          34672 34673 34674 34675 34676 34677
          34678 34679 34680 34681 34682 34685
          34686 34688 34689 34692 34693 34983
          34984 34986 35001 35003 35111 35113
          35125 38431 38432 38433 38434 38435
          38436 38437 38438 38439 38440 38441
          38442 38443 38444 38445 38446 38447
          38448 38449 38450 38451 38452 38453
          38454 38455 38456 38457 38458 38459
          38460 38461 38462 38463 38464 38465
          38466 38467 38468 38469 38470 38471
          38472 38473 38474 38475 38476 38477
          38478 38479 38480 38481 38482 38483
          38484 38485 38486 38487 38488 38489
          38490 38491 38492 38493 38494 38495
          38496 38497 38498 38499 38500 38501
          38502 38503 38504 38505 38506 38507
          38508 38509 38510 38511 38512 38513
          38514 38515 38516 38517 38518 38519
          38520 38521 38522 38523 38524 38525
          38526 38527 38528 38529 38530 38531
          38532 38533 38534 38535 38536 38537
          38538 38539 38540 38541 38542 38543
          38544 38545 38546 38547 38548 38549
          38550 38551 38552 38553 38554 38555
          38556 38557 38558 38559 38560 38561
          38562 38563 38564 38565 38566 38567
          38568 38569 38570 38571 38572 38573
          38574 38575 38576 38577 38578 38579
          38580 38581 38582 38583 38584 38585
          38586 38587 38588 38589 38590 38591
          38592 38593 38594 38595 38596 38597
          38598 38599 38600 38601 38602 38603
          38604 38605 38606 38607 38608 38609
          38610 38611 38612 38613 38614 38615
          38616 38617 38618 38619 38620 38621
          38622 38623 38624 38625 38626 38627
          38628 38629 38630 38631 38632 38633
          38634 38635 38636 38637 38638 38639
          38640 38641 38642 38643 38644 38645
          38646 38647 38648 38649 38650 38651
          38652 38653 38654 38655 38656 38657
          38658 38659 38660 38661 38662 38663
          38664 38665 38666 38667 38668 38669
          38670 38671 38672 38673 38674 38675
          38676 38677 38678 38679 38680 38681
          38682 38683 38684 38685 38686 38687
          38688 38689 38690 38691 38692 38693
          38694 38695 38696 38697 38698 38699
          38700 38701 38702 38703 38704 38705
          38706 38707 38708 38709 38710 38711
          38712 38713 38714 38715 38716 38717
          38718 38719 38720 38721 38722 38723
          38724 38725 38726 38727 38728 38729
          38730 38731 38732 38733 38734 38735
          38736 38737 38738 38739 38740 38741
          38742 38743 38744 38745 38746 38747
          38748 38749 38750 38751 38752 38753
          38754 38755 38756 38757 38758 38759
          38760 38761 38762 38763 38764 38765
          38766 38767 38768 38769 38770 38771
          38772 38773 38774 38775 38776 38777
          38778 38779 38780 38781 38782 38783
          38784 38785 38786 38787 38788 38789
          38790 38791 38792 38793 38794 38795
          38796 38797 38798 38799 38800 38801
          38802 38803 38804 38805 38806 38807
          38808 38809 38810 38811 38812 38813
          38814 38815 38816 38817 38818 38819
          38820 38821 38822 38823 38824 38825
          38826 38827 38828 38829 38830 38831
          38832 38833 38834 38835 38836 38837
          38838 38839 38840 38841 38842 38843
          38844 38845 38846 38847 38848 38849
          38850 38851 38852 38853 38854 38855
          38856 38857 38858 38859 38860 38861
          38862 38863 38864 38865 38866 38867
          38868 38869 38870 38871 38872 38873
          38874 38875 38876 38877 38878 38879
          38880 38881 38882 38883 38884 38885
          38886 38887 38888 38889 38890 38891
          38892 38893 38894 38895 38896 38897
          38898 38901 38903 38904 38906 38917
          38919 38921 38923 38931 38932 38933
          38934 38935 38936 38937 38938 38939
          38940 38951 38952 38953 38954 38955
          38956 38957 39033 39035 39037 39039
          39047 39049 39051 39053 39061 39062
          39063 39064 39065 39066 39067 39075
          39076 39077 39078 39079 39080 39081
          39145 39146 39147 39148 39149 39150
          39151 39152 39153 39154 39155 39156
          39159 39161 39162 39164 39165 39166
          39167 39168 39169 39170 39171 39172
          39174 39176 39178 39179 39180 39181
          39182 39183 39184 39185 39186 39187
          39188 39189 39190 39193 39195 39196
          39198 39199 39200 39201 39202 39203
          39204 39205 39206 39208 39210 39212
          39281 39282 39283 39284 39285 39286
          39287 39288 39290 39292 39294 39295
          39296 39297 39298 39299 39300 39301
          39302 39306 39309 39310 39311 39312
          39313 39314 39315 39316 39318 39320
          39322 39323 39324 39325 39326 39327
          39328 39329 39330 39334 39393 39394
          39395 39396 39397 39398 39400 39401
          39402 39403 39404 39405 39406 39408
          39410 39411 39412 39413 39414 39415
          39416 39417 39418 39419 39420 39421
          39422 39423 39424 39425 39426 39427
          39428 39429 39430 39431 39432 39433
          39434 39437 39438 39440 39441 39444
          39445 39461 39462 39463 39464 39465
          39466 39467 39468 39469 39470 39471
          39472 39473 39474 39475 39476 39477
          39478 39479 39480 39481 39482 39483
          39484 39485 39486 39487 39488 39489
          39490 39491 39492 39494 39496 39497
          39498 39499 39501 39502 39506 39507
          39509 39510 39511 39512 39513 39514
          39515 39516 39517 39518 39519 39521
          39522 39523 39526 39527 39557 39558
          39559 39561 39562 39563 39564 39565
          39568 39569 39585 39586 39587 39588
          39589 39590 39591 39592 39593 39594
          39595 39596 39597 39598 39599 39600
          39601 39602 39603 39604 39605 39606
          39607 39608 39609 39610 39611 39612
          39613 39614 39615 39616 39617 39618
          39619 39620 39621 39622 39623 39624
          39625 39626 39627 39628 39629 39630
          39631 39632 39633 39634 39635 39636
          39637 39638 39639 39640 39641 39642
          39643 39644 39645 39646 39647 39648
          39649 39650 39651 39652 39653 39654
          39655 39656 39657 39658 39659 39660
          39661 39662 39663 39664 39665 39666
          39667 39668 39669 39670 39671 39672
          39673 39674 39675 39676 39677 39678
          39679 39680 39681 39682 39683 39684
          39685 39686 39687 39688 39689 39690
          39691 39693 39694 39695 39698 39699
          39701 39702 39703 39704 39705 39706
          39707 39708 39709 39710 39711 39713
          39714 39715 39718 39719 39721 39722
          39723 39725 39726 39727 39728 39729
          39732 39733 39749 39750 39751 39753
          39754 39755 39756 39757 39760 39761
          39777 39781 39805 39806 39807 39809
          39810 39811 39819 39823 40001 40002
          40003 40005 40006 40007 40015 40019
          40029 40030 40031 40033 40034 40035
          40043 40047 40225 40226 40227 40228
          40229 40230 40231 40232 40233 40234
          40235 40236 40237 40238 40239 40240
          40241 40242 40243 40244 40245 40246
          40247 40248 40249 40250 40251 40252
          40253 40254 40255 40256 40257 40258
          40259 40260 40261 40262 40263 40264
          40265 40266 40267 40268 40269 40270
          40271 40272 40273 40274 40275 40276
          40277 40278 40279 40280 40281 40282
          40283 40284 40285 40286 40287 40288
          40289 40290 40291 40292 40293 40294
          40295 40296 40297 40298 40299 40300
          40301 40302 40303 40304 40305 40306
          40307 40308 40309 40310 40311 40312
          40313 40314 40315 40316 40317 40318
          40319 40320 40321 40322 40323 40324
          40325 40326 40327 40328 40329 40330
          40331 40332 40333 40334 40335 40336
          40337 40338 40339 40340 40341 40342
          40343 40344 40345 40346 40347 40348
          40349 40350 40351 40352 40353 40354
          40355 40356 40357 40358 40359 40360
          40361 40362 40363 40364 40365 40366
          40367 40368 40369 40370 40371 40372
          40373 40374 40375 40376 40377 40378
          40379 40380 40381 40382 40383 40384
          40385 40386 40387 40388 40389 40390
          40391 40392 40393 40394 40395 40396
          40397 40398 40399 40400 40401 40402
          40403 40404 40405 40406 40407 40408
          40409 40410 40411 40412 40413 40414
          40415 40416 40417 40418 40419 40420
          40421 40422 40423 40424 40425 40426
          40427 40428 40429 40430 40431 40432
          40433 40434 40435 40436 40437 40438
          40439 40440 40441 40442 40443 40444
          40445 40446 40447 40448 40449 40450
          40451 40452 40453 40454 40455 40456
          40457 40458 40459 40460 40461 40462
          40463 40464 40465 40466 40467 40468
          40469 40470 40471 40472 40473 40474
          40475 40476 40477 40478 40479 40480
          40481 40482 40483 40484 40485 40486
          40487 40488 40489 40490 40491 40492
          40493 40494 40495 40496 40497 40498
          40499 40500 40501 40502 40503 40504
          40505 40506 40507 40508 40509 40510
          40511 40512 40513 40514 40515 40516
          40517 40518 40519 40520 40521 40522
          40523 40524 40525 40526 40527 40528
          40529 40530 40531 40532 40533 40534
          40535 40536 40537 40538 40539 40540
          40541 40542 40543 40544 40545 40546
          40547 40548 40549 40550 40551 40552
          40553 40554 40555 40556 40557 40558
          40559 40560 40561 40562 40563 40564
          40565 40566 40567 40568 40569 40570
          40571 40572 40573 40574 40575 40576
          40577 40578 40579 40580 40581 40582
          40583 40584 40585 40586 40587 40588
          40589 40590 40591 40592 40593 40594
          40595 40596 40597 40598 40599 40600
          40601 40602 40603 40604 40605 40606
          40607 40608 40609 40610 40611 40612
          40613 40614 40615 40616 40617 40618
          40619 40620 40621 40622 40623 40624
          40625 40626 40627 40628 40629 40630
          40631 40632 40633 40634 40635 40636
          40637 40638 40639 40640 40641 40642
          40643 40644 40645 40646 40647 40648
          40649 40650 40651 40652 40653 40654
          40655 40656 40657 40658 40659 40660
          40661 40662 40663 40664 40665 40666
          40667 40668 40669 40670 40671 40672
          40673 40674 40675 40676 40677 40678
          40679 40680 40681 40682 40683 40684
          40685 40686 40687 40688 40689 40690
          40691 40692 40693 40694 40695 40696
          40697 40698 40699 40700 40701 40702
          40703 40704 40705 40706 40707 40708
          40709 40710 40711 40712 40713 40714
          40715 40716 40719 40721 40722 40724
          40725 40726 40727 40728 40729 40730
          40731 40732 40734 40736 40738 40739
          40740 40741 40742 40743 40744 40745
          40746 40747 40748 40749 40750 40753
          40755 40756 40758 40759 40760 40761
          40762 40763 40764 40765 40766 40768
          40770 40772 40841 40842 40843 40844
          40845 40846 40847 40848 40850 40852
          40854 40855 40856 40857 40858 40859
          40860 40861 40862 40866 40869 40870
          40871 40872 40873 40874 40875 40876
          40878 40880 40882 40883 40884 40885
          40886 40887 40888 40889 40890 40894
          40953 40954 40955 40956 40957 40958
          40959 40960 40961 40962 40963 40964
          40967 40969 40970 40972 40973 40974
          40975 40976 40977 40978 40979 40980
          40982 40984 40986 40987 40988 40989
          40990 40991 40992 40993 40994 40995
          40996 40997 40998 41001 41003 41004
          41006 41007 41008 41009 41010 41011
          41012 41013 41014 41016 41018 41020
          41089 41090 41091 41092 41093 41094
          41095 41096 41098 41100 41102 41103
          41104 41105 41106 41107 41108 41109
          41110 41114 41117 41118 41119 41120
          41121 41122 41123 41124 41126 41128
          41130 41131 41132 41133 41134 41135
          41136 41137 41138 41142 41201 41202
          41203 41204 41205 41206 41207 41208
          41209 41210 41211 41212 41213 41214
          41215 41216 41217 41218 41219 41220
          41221 41222 41223 41224 41225 41226
          41227 41228 41229 41230 41231 41232
          41233 41234 41235 41236 41237 41238
          41239 41240 41241 41242 41243 41244
          41245 41246 41247 41248 41249 41250
          41251 41252 41253 41254 41255 41256
          41257 41258 41259 41260 41261 41262
          41263 41264 41265 41266 41267 41268
          41269 41270 41271 41272 41273 41274
          41275 41276 41277 41278 41279 41280
          41281 41282 41283 41284 41285 41286
          41287 41288 41289 41290 41291 41292
          41293 41294 41295 41296 41297 41298
          41299 41300 41301 41302 41303 41304
          41305 41306 41307 41309 41310 41311
          41314 41315 41317 41318 41319 41320
          41321 41322 41323 41324 41325 41326
          41327 41329 41330 41331 41334 41335
          41337 41338 41339 41341 41342 41343
          41344 41345 41348 41349 41365 41366
          41367 41369 41370 41371 41372 41373
          41376 41377 41393 41394 41395 41396
          41397 41398 41399 41400 41401 41402
          41403 41404 41405 41406 41407 41408
          41409 41410 41411 41412 41413 41414
          41415 41416 41417 41418 41419 41420
          41421 41422 41423 41424 41425 41426
          41427 41428 41429 41430 41431 41432
          41433 41434 41435 41436 41437 41438
          41439 41440 41441 41442 41443 41444
          41445 41446 41447 41448 41449 41450
          41451 41452 41453 41454 41455 41456
          41457 41458 41459 41460 41461 41462
          41463 41464 41465 41466 41467 41468
          41469 41470 41471 41472 41473 41474
          41475 41476 41477 41478 41479 41480
          41481 41482 41483 41484 41485 41486
          41487 41488 41489 41490 41491 41492
          41493 41494 41495 41496 41497 41498
          41499 41501 41502 41503 41506 41507
          41509 41510 41511 41512 41513 41514
          41515 41516 41517 41518 41519 41521
          41522 41523 41526 41527 41529 41530
          41531 41533 41534 41535 41536 41537
          41540 41541 41557 41558 41559 41561
          41562 41563 41564 41565 41568 41569
          41585 41586 41587 41589 41590 41591
          41599 41603 41613 41614 41615 41617
          41618 41619 41627 41631 41809 41810
          41811 41813 41814 41815 41823 41827
          41837 41838 41839 41841 41842 41843
          41851 41855 7296 7297 1580 7298
          7442 7443 7445 7444 7446 7447
          3360 7448 7476 7477 7479 7478
          7480 7481 1586 7482 9999 10000
          1463 10005 10002 5038 10013 10335
          2756 11738 11739 11741 11744 7244
          11754 11976 11756 11758 11980 7246
          11773 11775 11778 7249 11788 12010
          11790 11792 12014 3324 11889 11902
          12224 11904 7278 11906 12228 7280
          11923 11936 12258 11938 7283 11940
          12262 3329 12735 12748 12750 7428
          12752 7430 12769 12782 12784 7433
          12786 3358 12370 11950 12372 12384
          11953 12386 13165 12812 13169 13193
          12821 13197 12919 12921 12923 7464
          12953 12955 12957 3363 13413 12998
          13417 13441 13011 13445 10319 25803
          25831 25832 10320 25834 10325 25837
          10326 25820 25850 10323 25852 25854
          10328 25902 5097 25908 25932 10336
          25934 25936 10340 25922 25946 25950
          25951 25948 10342 31738 31752 31753
          31755 7243 31758 32515 32516 32518
          11964 32521 11965 32534 32536 32538
          11968 32549 32550 32552 11970 32555
          11971 32568 32570 32572 11973 32596
          32592 32597 32600 11977 32616 32612
          32617 32620 7303 32622 32624 32626
          11981 32636 32637 32638 32640 32641
          11983 32650 32652 32654 11985 32664
          32665 32666 32668 32669 11987 31832
          31833 31835 11772 31838 31858 31859
          31861 3323 31864 32741 32742 32744
          11998 32747 11999 32760 32762 32764
          12002 32755 32756 12000 32757 32785
          32786 32758 12001 32788 3331 32791
          12006 32770 32771 32801 32772 12003
          32803 32805 7307 32822 32818 32823
          32826 12011 32842 32838 32843 32846
          7308 32848 32850 32852 12015 32862
          32863 32864 32866 32867 12017 32858
          32859 32883 32860 12016 32885 32887
          12020 32891 32892 32895 12021 32872
          32873 32897 32874 32898 12018 32899
          32901 32902 3332 32248 32249 32251
          11886 32254 11887 31878 32264 32266
          32268 32282 32283 32285 7277 32288
          11892 32298 32300 32302 34311 34312
          34314 12214 34317 12215 34327 34329
          34331 12217 34345 34346 34348 34361
          34363 34382 34378 34383 34386 12225
          34402 34398 34403 34406 7337 34415
          34417 34419 12230 34423 34424 34427
          12231 34429 34430 34431 34433 34434
          12232 34443 34445 34451 34452 34455
          12235 34457 34458 34459 34462 7338
          32384 32385 32387 11920 32390 11921
          32400 32402 32404 32418 32419 32421
          1579 32424 11926 32434 32436 32438
          34614 34610 34615 34618 12259 34634
          34630 34635 34638 7342 34655 34656
          34659 12265 34662 34663 34666 12266
          34683 34684 34687 12269 34690 34691
          34694 3338 34729 34730 34735 34736
          34733 34738 34749 34753 34751 34755
          34859 34863 34861 34865 34873 34877
          34875 34879 34943 34944 34947 34949
          34950 34952 34963 34965 34967 34969
          34977 34978 34981 34979 34980 12310
          34985 34982 12311 34997 34999 34998
          35002 35000 12313 35079 35081 35083
          35085 35093 35095 35097 35099 35107
          35109 35108 35112 35110 12328 35121
          35123 35122 35126 35127 35124 12330
          37363 37364 37366 12732 37369 12733
          37379 37381 37383 37397 37398 37400
          7427 37403 12738 37413 37415 37417
          37551 37552 37554 12766 37557 12767
          37567 37569 37571 37585 37586 37588
          3357 37591 12772 37601 37603 37605
          38899 38900 38902 13081 38905 13082
          38918 38920 38922 13085 38913 38914
          38941 38942 38916 38945 38947 38948
          38950 38928 38958 38930 38960 38962
          38964 39034 39036 39038 13101 39048
          39050 39052 13103 39044 39068 39046
          39070 39072 39074 39058 39082 39060
          39084 39086 39088 7493 38949 39157
          39158 13089 39160 13117 39163 13118
          38963 39173 7494 39175 39177 13120
          39191 39192 39194 7499 39197 13123
          39207 39209 39211 7500 39073 39289
          13106 39291 39293 13136 39087 39303
          39304 7497 39305 39307 39308 13138
          39317 39319 39321 13140 39331 39332
          39333 39335 39336 7502 35410 35405
          35411 35412 12371 39399 35420 35415
          35421 39407 35422 7357 39409 35455
          35456 35457 39435 12377 39436 39439
          13156 35462 35463 35464 39442 12378
          39443 39446 13157 39447 39451 39449
          39453 39452 13158 39458 39459 39460
          13159 35506 35501 35507 39493 35508
          12385 39495 35516 35511 35517 39503
          35518 39504 39500 7359 39505 39508
          13166 39524 39520 39525 39528 7505
          39529 39533 39531 39535 39543 39547
          39545 39549 39534 13170 39560 13174
          39540 39541 39542 39566 13171 39567
          39570 13175 39571 39548 39572 39573
          39575 39576 39577 39696 39692 39697
          39700 13194 39716 39712 39717 39720
          7509 39724 13198 39730 39731 39734
          13199 39735 39736 39737 39739 39740
          39741 39752 13202 39758 39759 39762
          13203 39763 39764 39765 39767 39768
          39769 35831 35832 39778 35833 39779
          12426 39780 39782 39783 13205 39808
          13209 39788 39812 39790 39814 39816
          39818 39795 39796 39820 39797 39821
          13207 39822 39824 39825 13211 39893
          39917 39895 39919 39921 39923 40004
          13233 40008 40010 40012 40014 40016
          40017 40018 40020 40021 13235 40032
          13237 40036 40038 40040 40042 40044
          40045 40046 40048 40049 13239 40113
          40115 40117 40119 40141 40143 40145
          40147 38127 38128 38130 12903 38133
          12904 38143 38145 38147 12906 38161
          38162 38164 7461 38167 12909 38177
          38179 38181 7462 37661 38219 38221
          38223 38233 38235 38237 38319 38320
          38322 12937 38325 12938 38335 38337
          38339 12940 38353 38354 38356 1585
          38359 12943 38369 38371 38373 7467