<?xml version="1.0"?>
<VTKFile type="UnstructuredGrid" version="0.1" byte_order="LittleEndian" header_type="UInt32" compressor="vtkZLibDataCompressor">
  <UnstructuredGrid>
    <Piece NumberOfPoints="448" NumberOfCells="251">
      <PointData>
        <DataArray type="Int32" Name="libmesh_node_id" format="ascii" RangeMin="510" RangeMax="3264">
          512 513 520 521 881 882
          883 886 889 891 893 894
          901 902 1220 1651 1652 1653
          1654 1655 1656 1657 1658 1659
          1660 1661 1662 1663 1664 1675
          1676 1678 1679 1680 1691 1692
          1693 1694 1695 1696 1697 1698
          1699 1700 1708 1709 1710 1711
          1712 1713 1714 1715 1716 1717
          1718 1719 1720 1721 1722 1723
          1724 1725 1726 1727 1728 1743
          1744 1745 1746 1750 1763 1764
          1765 1766 1767 1768 1769 1770
          1771 1772 1783 1787 2079 2080
          2081 2082 2083 2084 2085 2086
          2090 2091 2693 2694 2695 2696
          2697 2698 2699 2700 2701 2702
          2703 2704 2705 2706 2775 2776
          2777 2778 2779 2780 2781 2782
          2783 2784 2785 2786 2787 2788
          2789 2790 2791 2792 2793 2794
          2795 2796 2797 2798 2799 2800
          2801 2802 2803 2804 2805 2806
          2807 2808 2809 2810 2811 2812
          2813 2814 2815 2816 2817 2818
          2819 2820 2821 2822 2823 2824
          2825 2826 2827 2828 2829 2830
          2831 2832 2833 2834 2835 2836
          2837 2838 2839 2840 2841 2842
          2863 2864 2865 2866 2867 2868
          2869 2870 2871 2872 2873 2874
          2875 2876 2877 2878 2879 2880
          2881 2882 2883 2884 2885 2886
          2887 2888 2889 2890 2891 2892
          2893 2894 2895 2896 2897 2898
          2899 2900 2901 2902 2903 2904
          2905 2906 2907 2908 2909 2910
          2911 2912 2913 2914 2915 2916
          2917 2918 2919 2920 2921 2922
          2923 2924 2925 2926 2927 2928
          2929 2930 2931 2932 2933 2934
          2935 2936 2937 2938 2939 2940
          2941 2942 2943 2944 2945 2946
          2947 2948 2952 2953 2955 2956
          2958 2973 2974 2977 2978 2980
          2982 2993 2994 2997 3013 3015
          3027 3028 3030 3031 3032 3038
          3095 3096 3097 3098 3099 3100
          3101 3102 3103 3104 3105 3106
          3107 3108 3109 3110 3111 3112
          3113 3114 3115 3116 3117 3118
          3119 3120 3121 3122 3123 3124
          3125 3126 3127 3128 3129 3130
          3131 3132 3133 3134 3135 3136
          3137 3138 3139 3140 3141 3142
          3143 3144 3145 3146 3147 3148
          3149 3150 3151 3152 3153 3154
          3155 3156 3157 3158 3159 3160
          3161 3162 3231 3233 3234 3235
          3236 3240 3253 3254 3255 3256
          3257 3258 3259 3260 3264 878
          884 880 885 1217 1221 1218
          877 1224 1223 510 1225 1226
          1219 1227 1228 1233 892 898
          1641 1642 1643 1646 879 1649
          1673 1686 1702 1704 1706 890
          2087 2088 2089 2092 2095 2096
          1729 1730 2101 1736 2685 2719
          2720 2722 1683 2725 1684 2691
          2735 2737 2739 2753 2754 2756
          887 2759 1689 2769 2771 2773
          888 2847 2857 2859 2861 2949
          2950 2951 2954 1731 2957 1732
          2975 2976 2979 2981 1737 2995
          2996 2998 3014 3016
        </DataArray>
        <DataArray type="Float64" Name="bounds" format="ascii" RangeMin="0" RangeMax="0">
          0 0 0 0 0 0
          0 0 0 0 0 0
          0 0 0 0 0 0
          0 0 0 0 0 0
          0 0 0 0 0 0
          0 0 0 0 0 0
          0 0 0 0 0 0
          0 0 0 0 0 0
          0 0 0 0 0 0
          0 0 0 0 0 0
          0 0 0 0 0 0
          0 0 0 0 0 0
          0 0 0 0 0 0
          0 0 0 0 0 0
          0 0 0 0 0 0
          0 0 0 0 0 0
          0 0 0 0 0 0
          0 0 0 0 0 0
          0 0 0 0 0 0
          0 0 0 0 0 0
          0 0 0 0 0 0
          0 0 0 0 0 0
          0 0 0 0 0 0
          0 0 0 0 0 0
          0 0 0 0 0 0
          0 0 0 0 0 0
          0 0 0 0 0 0
          0 0 0 0 0 0
          0 0 0 0 0 0
          0 0 0 0 0 0
          0 0 0 0 0 0
          0 0 0 0 0 0
          0 0 0 0 0 0
          0 0 0 0 0 0
          0 0 0 0 0 0
          0 0 0 0 0 0
          0 0 0 0 0 0
          0 0 0 0 0 0
          0 0 0 0 0 0
          0 0 0 0 0 0
          0 0 0 0 0 0
          0 0 0 0 0 0
          0 0 0 0 0 0
          0 0 0 0 0 0
          0 0 0 0 0 0
          0 0 0 0 0 0
          0 0 0 0 0 0
          0 0 0 0 0 0
          0 0 0 0 0 0
          0 0 0 0 0 0
          0 0 0 0 0 0
          0 0 0 0 0 0
          0 0 0 0 0 0
          0 0 0 0 0 0
          0 0 0 0 0 0
          0 0 0 0 0 0
          0 0 0 0 0 0
          0 0 0 0 0 0
          0 0 0 0 0 0
          0 0 0 0 0 0
          0 0 0 0 0 0
          0 0 0 0 0 0
          0 0 0 0 0 0
          0 0 0 0 0 0
          0 0 0 0 0 0
          0 0 0 0 0 0
          0 0 0 0 0 0
          0 0 0 0 0 0
          0 0 0 0 0 0
          0 0 0 0 0 0
          0 0 0 0 0 0
          0 0 0 0 0 0
          0 0 0 0 0 0
          0 0 0 0 0 0
          0 0 0 0
        </DataArray>
        <DataArray type="Float64" Name="gradient_error" format="ascii" RangeMin="9.994799463239593e-11" RangeMax="1.9756465929214652e-7">
          1.3746185532177302e-8 4.367117827535768e-8 1.800017350460918e-8 1.0372196479209216e-7 4.6211841434941594e-8 8.019245676408144e-8
          1.048347357218575e-7 8.081589318932134e-8 4.939026283640007e-8 3.7726031879571274e-10 1.6689405842583402e-8 7.614814265560766e-9
          3.120131935411907e-8 3.571878507935496e-8 8.451234057159824e-9 2.1179117346258362e-8 2.6508325514306454e-8 8.510380769321063e-8
          7.609803260894208e-8 1.2506622082513436e-8 6.446010191342649e-8 5.7598799374016084e-8 3.1837533682354546e-8 6.709225752467352e-8
          4.222348126882673e-8 9.868288681943645e-8 8.467178734609161e-8 6.794308673077207e-8 1.1297475779748025e-7 1.3132307361190737e-8
          1.9924988697378174e-8 1.4282371505830806e-7 8.57376155409899e-8 8.395602175843142e-8 5.0708468934526716e-8 5.070829282047815e-8
          5.507666723409342e-8 5.365354232616018e-8 8.485355215935277e-8 7.577349249290014e-8 1.1903922449411194e-8 3.9319491039436945e-8
          4.506401963242453e-8 4.762758584714727e-8 1.1488207037883705e-7 9.232331015448864e-8 1.1077764740971593e-7 6.292987318778421e-8
          8.86872858594531e-8 7.12449123296356e-8 1.3759927306100045e-7 3.3348501320132777e-9 4.2992786369120246e-9 2.939238346485882e-8
          2.611995487846074e-8 4.57391286030535e-10 2.1719481097950468e-9 1.82761389607608e-9 7.218235554743366e-9 1.8614639200723845e-8
          1.7553397962727459e-9 4.517854555873222e-8 3.790146407891878e-8 1.3696879920927989e-8 3.92649556918551e-8 8.469001838755773e-9
          1.134836555797072e-8 2.440897565699322e-9 1.5792499981204363e-9 3.42134605010681e-8 5.286706324916942e-8 5.0402542607979985e-8
          4.3383380456293605e-8 4.0662852102514006e-8 5.013214660369601e-8 2.57822380737978e-8 2.9263751568209315e-8 4.630303245040668e-8
          3.917958071831162e-8 4.560032746869618e-8 4.630242193304764e-8 3.9123287322723306e-8 9.608400967850447e-10 1.4602454766434445e-9
          1.7552365218463673e-9 2.05022756704929e-9 4.821929750586495e-10 6.113486399457676e-10 9.439014814963637e-10 1.1906785913823849e-9
          7.405043048328857e-10 1.4374557012684058e-9 4.696225337540307e-8 4.629048257828784e-8 4.710643284794139e-8 4.418998987778698e-8
          4.763703399338467e-8 4.600510600890806e-8 4.299695615100273e-8 4.1595127681917374e-8 4.0033750275053236e-8 3.816098177365086e-8
          3.730623257570512e-8 3.5249796298086196e-8 3.1496688057495307e-8 3.1682515256769085e-8 4.8082367456269757e-8 4.74230524101269e-8
          4.998317315626133e-8 4.913435602015636e-8 4.5806618675908785e-8 4.6840936383369536e-8 4.736012850204018e-8 4.767100368890877e-8
          5.098307795054467e-8 4.7758349449243444e-8 5.061103788801122e-8 4.961703506570954e-8 4.984312377996411e-8 4.870450132219255e-8
          4.6737437835383816e-8 4.532615293948948e-8 5.3432704752213774e-8 5.359297762440638e-8 5.5025486690602606e-8 5.280859298965282e-8
          4.281871536366509e-8 4.2650908642639595e-8 4.0787930739496614e-8 3.990548340259151e-8 4.6501914648734707e-8 4.868204578442957e-8
          4.444280590748767e-8 4.1498070077812736e-8 3.9189263470034076e-8 3.81442967282657e-8 3.529209992551017e-8 4.990267843072514e-8
          4.983457159017565e-8 4.639585899302131e-8 2.867572103081358e-8 3.372182222356276e-8 3.084589480232596e-8 3.6363320685471506e-8
          4.224638814791738e-8 4.535501945112985e-8 1.1833666594683252e-8 2.0657259311273925e-8 2.1922764662225017e-8 3.6399324871378465e-8
          3.347135081794983e-8 3.9122288054398676e-8 3.662629511400069e-8 4.1905201876940435e-8 4.804178547166781e-8 4.994624488479712e-8
          1.36623339141099e-8 2.4287584982495616e-8 2.8171476866058016e-8 4.234613295288023e-8 4.593037892233297e-8 4.876583065790963e-8
          4.499196292960395e-8 4.701322220890036e-8 4.4460608999473464e-8 4.730840525858842e-8 4.5454531449620426e-8 5.0768658772746556e-8
          5.173646413581479e-8 4.815428638886642e-8 4.8072921204403874e-8 4.947830454158211e-8 5.0685623973851094e-8 4.901782338808206e-8
          4.0137883863344715e-8 3.979699641401354e-8 3.788536855374615e-8 3.843951188904418e-8 3.584679352608813e-8 3.357428955651167e-8
          4.1579112686967206e-8 4.16762569667214e-8 3.9310204479869647e-8 3.8028438497818696e-8 4.3020341510589704e-8 4.355551751942926e-8
          4.073504040599314e-8 4.0805065483746926e-8 3.867635443154226e-8 3.5528530082766e-8 3.1971413596192264e-8 4.317061907844968e-8
          4.150591533699638e-8 3.748277060902034e-8 6.578555560046276e-10 9.065566570823893e-10 8.989033861397359e-10 8.99813665916736e-10
          4.378282627382599e-9 4.767920966384742e-10 4.777203939955497e-10 8.387210291942539e-10 8.236443824072525e-10 2.517798552507681e-10
          6.33307769136258e-10 6.14180373856093e-10 4.960930198173465e-10 7.933780245472212e-10 5.586846045725831e-10 3.6042263733509478e-9
          3.4418842794197218e-9 2.0803627521951675e-9 3.0346432467673595e-9 7.776076735269252e-10 9.177288530112999e-10 9.270804893862105e-10
          3.14291352948921e-9 5.62366508626183e-10 7.644337292647688e-10 2.657514412961576e-10 4.807348928368209e-10 6.111956689702982e-10
          7.506791450553461e-10 4.391535551044039e-10 2.461502091744784e-9 1.4662955084922638e-9 2.2041780319197272e-9 1.0019897993699935e-8
          9.52666013366498e-9 8.404750626271026e-9 4.033767490726608e-8 3.858663351023671e-8 2.6099037246585703e-8 3.373861623985524e-8
          8.66708594098239e-9 8.261350499913839e-9 6.403345193758942e-9 6.116478547827125e-9 7.254536127019119e-9 5.3207908874789154e-9
          2.0377297123474385e-8 1.937405902642317e-8 1.5880663669274693e-8 1.6752544547571385e-8 6.811654687873799e-9 4.934556859854915e-9
          2.7148272746651456e-8 1.7983257423734292e-8 2.3654905126799775e-8 5.838436658407257e-9 4.219553664733648e-9 4.2465727188354735e-9
          3.0583484878511415e-9 1.3271846859037396e-8 1.0719717813210813e-8 9.736272654748495e-9 1.7307135177609959e-10 1.7145882685797177e-10
          4.070315572587359e-10 3.9365701279796596e-10 1.5726421268122393e-10 3.5160851832378736e-10 1.4490950454592005e-9 1.38564141199961e-9
          1.210997320918838e-9 1.52605244505965e-10 2.868661643446311e-10 1.6052836558932604e-10 2.5079776037888336e-10 9.612314619144188e-10
          8.486635096280921e-10 4.7527998331170314e-9 4.527364486341347e-9 3.910509993174005e-9 3.06368654669457e-9 2.1781619386997885e-9
          2.5930784370860073e-9 3.4562115734227135e-9 7.759111380512742e-9 1.9760321762639635e-9 2.924882968046536e-9 6.700468771800617e-9
          4.752072281869016e-8 4.630637233659361e-8 4.38382028790425e-8 4.2615030762640465e-8 4.260258882951599e-8 3.869238704348888e-8
          5.502806653312154e-8 5.47228385578014e-8 5.243070637889314e-8 5.290068858862245e-8 3.912824103547358e-8 3.7848195178779295e-8
          3.3576873663579705e-8 3.2282241615594586e-8 3.379994884326883e-8 2.8392003672239015e-8 4.881010776165113e-8 4.8351560341655e-8
          4.2919202330778555e-8 4.619125018491787e-8 3.574671999287544e-8 3.155024624726658e-8 3.138028418121598e-8 2.372085492239378e-8
          4.828057992780958e-8 4.514998373371023e-8 4.279491545052094e-8 2.702713839469073e-8 2.239230845123886e-8 1.9234669109647624e-8
          1.5742026301370205e-8 4.053862637825667e-8 3.489891750121548e-8 3.052575458129164e-8 3.9569356826886814e-8 4.4083224468156695e-8
          4.1210333375473076e-8 4.472238242364454e-8 5.0516408213206595e-8 4.9268525872127675e-8 2.3786351317644795e-8 3.274688298366111e-8
          3.638321085932499e-8 4.6698000668345e-8 4.0568316511159844e-8 4.3031717786881025e-8 3.735810980622771e-8 3.906536970028915e-8
          4.6146527318411994e-8 4.162811591171483e-8 3.2344674420028734e-8 3.7117088006971494e-8 3.41443031153863e-8 4.353581164816376e-8
          5.1442981034789996e-8 4.952364776247061e-8 4.647623621599951e-8 4.336669792364387e-8 5.066996945306027e-8 4.9070600591084884e-8
          4.83129308740337e-8 4.583385999637593e-8 4.0783400292449775e-8 3.8867411633308385e-8 3.3282657026289965e-8 4.5821420390773494e-8
          4.131638151538494e-8 4.13120667141933e-8 1.4431678395425564e-8 3.217689584886139e-8 2.4576467932901737e-8 2.6323831867870918e-8
          1.2806537742464984e-8 1.9973663765591827e-8 3.521487446714987e-8 3.0918465188375745e-8 2.792751425489409e-8 1.9481760377648156e-8
          3.825285308543835e-8 3.3804467847191425e-8 2.953119664191726e-8 2.636774983422922e-8 2.8874043838432633e-8 5.782961966502951e-8
          7.447154066892387e-8 1.3752967504319654e-7 1.3896029766761158e-7 1.7113169549716247e-8 7.841496333382938e-9 1.3107774799231988e-8
          3.0429108315640464e-8 4.879766283344306e-9 9.102380048747732e-9 2.3539125669628147e-9 1.0951918113317176e-9 1.0184743942639188e-9
          2.9807871304806323e-9 6.059851770634279e-10 1.6420159110551787e-9 1.4170333568074903e-9 2.1304227936497595e-9 1.7567561610582784e-9
          3.5220090755503284e-8 1.0366955387626966e-7 9.297185239898464e-8 7.300146255716405e-8 1.1027171442933555e-7 9.70528645328986e-8
          1.2780695979422302e-7 8.752641253514506e-8 1.3156221572313885e-7 1.3246041944079766e-7 1.0134275835932239e-7 1.9756465929214652e-7
          1.9304299183444237e-10 3.0940724322225776e-10 4.3145398461629104e-10 5.535007260103241e-10 1.2644226701030742e-10 1.650884872233639e-10
          1.636251576582174e-10 1.7518136688008226e-10 2.0373470743642043e-10 4.4872438310514994e-10 4.4271997682971324e-8 4.5299456243328796e-8
          4.4837977521268003e-8 4.386676211618706e-8 4.360396785624878e-8 4.392179763027247e-8 4.4250659277311424e-8 4.057819894274194e-8
          4.2021372071701494e-8 4.0685718710236075e-8 4.366603508020359e-8 2.668531314024081e-8 3.114606392591195e-8 3.8912702739000516e-8
          1.2278088293080233e-8 1.985248995084365e-8 3.367549613242108e-8 4.256852943376019e-8 4.235692570290359e-8 4.126953390777426e-8
          4.258552058162456e-8 3.9716258550744177e-8 4.070543205058143e-8 3.961548079645814e-8 4.1694605550418685e-8 1.1637053183028307e-10
          2.6070488320343985e-10 2.5140809066388113e-10 2.2306895364289635e-10 9.708005283371964e-10 9.273983624705878e-10 8.079973522777233e-10
          9.994799463239593e-11 1.8165844077558142e-10 1.5929027238969267e-10 6.381446959517519e-10 6.607433888543095e-10 3.417557869752388e-9
          3.2475660780595043e-9 2.7850261018593166e-9 2.1575902057893786e-9 1.5130139308213203e-9
        </DataArray>
        <DataArray type="Float64" Name="gradient_matprop_error" format="ascii" RangeMin="0" RangeMax="0">
          0 0 0 0 0 0
          0 0 0 0 0 0
          0 0 0 0 0 0
          0 0 0 0 0 0
          0 0 0 0 0 0
          0 0 0 0 0 0
          0 0 0 0 0 0
          0 0 0 0 0 0
          0 0 0 0 0 0
          0 0 0 0 0 0
          0 0 0 0 0 0
          0 0 0 0 0 0
          0 0 0 0 0 0
          0 0 0 0 0 0
          0 0 0 0 0 0
          0 0 0 0 0 0
          0 0 0 0 0 0
          0 0 0 0 0 0
          0 0 0 0 0 0
          0 0 0 0 0 0
          0 0 0 0 0 0
          0 0 0 0 0 0
          0 0 0 0 0 0
          0 0 0 0 0 0
          0 0 0 0 0 0
          0 0 0 0 0 0
          0 0 0 0 0 0
          0 0 0 0 0 0
          0 0 0 0 0 0
          0 0 0 0 0 0
          0 0 0 0 0 0
          0 0 0 0 0 0
          0 0 0 0 0 0
          0 0 0 0 0 0
          0 0 0 0 0 0
          0 0 0 0 0 0
          0 0 0 0 0 0
          0 0 0 0 0 0
          0 0 0 0 0 0
          0 0 0 0 0 0
          0 0 0 0 0 0
          0 0 0 0 0 0
          0 0 0 0 0 0
          0 0 0 0 0 0
          0 0 0 0 0 0
          0 0 0 0 0 0
          0 0 0 0 0 0
          0 0 0 0 0 0
          0 0 0 0 0 0
          0 0 0 0 0 0
          0 0 0 0 0 0
          0 0 0 0 0 0
          0 0 0 0 0 0
          0 0 0 0 0 0
          0 0 0 0 0 0
          0 0 0 0 0 0
          0 0 0 0 0 0
          0 0 0 0 0 0
          0 0 0 0 0 0
          0 0 0 0 0 0
          0 0 0 0 0 0
          0 0 0 0 0 0
          0 0 0 0 0 0
          0 0 0 0 0 0
          0 0 0 0 0 0
          0 0 0 0 0 0
          0 0 0 0 0 0
          0 0 0 0 0 0
          0 0 0 0 0 0
          0 0 0 0 0 0
          0 0 0 0 0 0
          0 0 0 0 0 0
          0 0 0 0 0 0
          0 0 0 0 0 0
          0 0 0 0
        </DataArray>
        <DataArray type="Float64" Name="initial_marker" format="ascii" RangeMin="0" RangeMax="2">
          1 0.25 2 2 0.75 2
          2 1.5 2 0 2 2
          2 2 0 2 2 2
          2 1.3333333333333333 2 2 2 2
          1.6666666666666667 2 2 2 2 0
          1 2 2 2 2 2
          2 2 2 2 2 2
          2 2 2 2 2 2
          2 2 2 0.5 0.5 2
          2 0 2 2 0.3333333333333333 1.5
          1.25 2 2 2 2 0
          0.75 0 0.5 2 2 2
          2 2 2 2 2 2
          2 2 2 2 0 0
          0 0 0 0 0 0
          0 0 2 2 2 2
          2 2 2 2 2 2
          2 2 2 2 2 2
          2 2 2 2 2 2
          2 2 2 2 2 2
          2 2 2 2 2 2
          2 2 2 2 2 2
          2 2 2 2 2 2
          2 2 2 2 2 2
          2 2 2 2 2 2
          2 2 2 2 2 2
          2 2 2 2 2 2
          2 2 2 2 2 2
          2 2 2 2 2 2
          2 2 2 2 2 2
          2 2 2 2 2 2
          2 2 2 2 2 2
          2 2 0 1 1 1
          2 0 0 1 1 0
          1 1 0 1 1 2
          2 2 2 0 1 1
          2 0 1 0 0.75 0
          1 0.5 2 1.75 2 2
          2 2 2 2 2 2
          2 2 2 2 2 2
          2 2 2 2 2 2
          2 2 2 2 2 2
          2 2 2 2 0 0
          1 1 0 1 2 2
          2 0 0.5 0 0 1.5
          1.3333333333333333 2 2 2 2 2
          2 2 2 2 2 2
          2 2 2 2 2 2
          2 2 2 2 2 2
          2 2 2 2 2 2
          2 2 2 2 2 2
          2 2 2 2 2 2
          2 2 2 2 2 2
          2 2 2 2 2 2
          2 2 2 2 2 2
          2 2 2 2 2 2
          2 2 2 2 2 2
          2 2 2 2 2 2
          2 2 2 2 2 2
          2 2 2 2 2 2
          2 2 2 2 2 0.75
          0.3333333333333333 2 1.5 0 0 0
          1 0 0 0 0 0
          0 0 0 0 0 0
          2 2 2 1.6666666666666667 2 2
          2 2 2 2 2 2
          0 0 0 0 0 0
          0 0 0 0 2 2
          2 2 2 2 2 2
          2 2 2 2 2 2
          2 2 2 2 2 2
          2 2 2 2 2 0
          1 1 1 2 2 2
          0 0.5 0 1.5 1 2
          2 2 2 2
        </DataArray>
        <DataArray type="Float64" Name="markers_norefine" format="ascii" RangeMin="0" RangeMax="2">
          0 0 2 0 0 0
          0 0 2 0 0 0
          2 0.5 0 0 0 0
          0 0 0 0 0 0
          0 1 0.25 0 0 0
          0 0 0 0 2 2
          2 2 1.5 0.5 2 2
          2 2 0 0 0 0
          0 0 0 0 0 0
          0 0 0 0 0 0
          0 0 0 0 0 0
          0 0 0 0 2 1.75
          1.5 0.75 0.25 0 2 2
          2 1 0 0 0 0
          0 0 0 0 0 0
          0 0 2 2 1.5 1
          1 0.5 0 0 0 0
          0 0 0 0 2 2
          2 1.75 1.5 1.25 2 2
          2 2 1.5 1.25 1 1
          1 1 2 2 2 2
          1 1 1 1 2 2
          2 0.75 0.5 0.5 0 1.75
          1.5 1.3333333333333333 2 2 2 2
          2 2 2 2 2 2
          2 2 2 2 2 2
          2 2 2 2 2 2
          2 2 2 2 2 2
          2 1.75 1.5 2 2 2
          1 1 0 0.5 0 0
          1 1 0 0 1 1
          0 0.75 0.5 0 0 1
          1 0 0 0 0 0
          0 0 0 0 0 0
          0 0 0 0 0 0
          0 0 0 0 0 0
          0 0 0 0 0 0
          0 0 0 0 0 0
          0 0 0 0 0 0
          0 0 0 0 0 0
          0 0 0 0 0 0
          0 0 0 0 0 0
          0 0 0 0 0 0
          0 0 0 0 0 0
          0 0 0 0 0 0
          0 0 0 0 0 0
          0 0 0 0 0 0
          1 1 1 1 1 0.75
          2 2 2 2 1 0.75
          0.5 0.25 0.25 0 2 1.75
          1.25 1.25 0.5 0.25 0 0
          1.5 1 0.6666666666666666 0 0 0
          0 0.5 0.25 0 2 2
          2 2 2 2 2 2
          2 2 2 2 2 2
          2 1.75 2 2 2 2
          2 1.75 1.25 0.75 2 2
          1.5 1.5 1 0.5 0.25 2
          1.5 1 0 0 0 0
          0 0 0.25 0 0 0
          0.5 0 0 0 0 0
          0 0 0 0 0 0
          0 0 0 0 0 0
          0 0 0 0 0 0
          0 0 0 0 1 0.5
          0 1.5 0 0 0 0
          0 0 0 0 0 0
          0 0 0 0 2 2
          2 1.5 2 2 2 0
          1 1 2 2 2 2
          2 2 2 2 2 2
          2 1 1 0 1 0
          0 0 0 0 0 0
          0 0 0 0 0 0
          0 0 0 0
        </DataArray>
        <DataArray type="Float64" Name="markers_mustrefine" format="ascii" RangeMin="0" RangeMax="2">
          1 0.25 2 2 0.75 2
          2 1.5 2 0 2 2
          2 2 0 2 2 2
          2 1.3333333333333333 2 2 2 2
          1.6666666666666667 2 2 2 2 0
          1 2 2 2 2 2
          2 2 2 2 2 2
          2 2 2 2 2 2
          2 2 2 0.5 0.5 2
          2 0 2 2 0.3333333333333333 1.5
          1.25 2 2 2 2 0
          0.75 0 0.5 2 2 2
          2 2 2 2 2 2
          2 2 2 2 0 0
          0 0 0 0 0 0
          0 0 2 2 2 2
          2 2 2 2 2 2
          2 2 2 2 2 2
          2 2 2 2 2 2
          2 2 2 2 2 2
          2 2 2 2 2 2
          2 2 2 2 2 2
          2 2 2 2 2 2
          2 2 2 2 2 2
          2 2 2 2 2 2
          2 2 2 2 2 2
          2 2 2 2 2 2
          2 2 2 2 2 2
          2 2 2 2 2 2
          2 2 2 2 2 2
          2 2 2 2 2 2
          2 2 2 2 2 2
          2 2 0 1 1 1
          2 0 0 1 1 0
          1 1 0 1 1 2
          2 2 2 0 1 1
          2 0 1 0 0.75 0
          1 0.5 2 1.75 2 2
          2 2 2 2 2 2
          2 2 2 2 2 2
          2 2 2 2 2 2
          2 2 2 2 2 2
          2 2 2 2 0 0
          1 1 0 1 2 2
          2 0 0.5 0 0 1.5
          1.3333333333333333 2 2 2 2 2
          2 2 2 2 2 2
          2 2 2 2 2 2
          2 2 2 2 2 2
          2 2 2 2 2 2
          2 2 2 2 2 2
          2 2 2 2 2 2
          2 2 2 2 2 2
          2 2 2 2 2 2
          2 2 2 2 2 2
          2 2 2 2 2 2
          2 2 2 2 2 2
          2 2 2 2 2 2
          2 2 2 2 2 2
          2 2 2 2 2 2
          2 2 2 2 2 0.75
          0.3333333333333333 2 1.5 0 0 0
          1 0 0 0 0 0
          0 0 0 0 0 0
          2 2 2 1.6666666666666667 2 2
          2 2 2 2 2 2
          0 0 0 0 0 0
          0 0 0 0 2 2
          2 2 2 2 2 2
          2 2 2 2 2 2
          2 2 2 2 2 2
          2 2 2 2 2 0
          1 1 1 2 2 2
          0 0.5 0 1.5 1 2
          2 2 2 2
        </DataArray>
        <DataArray type="Float64" Name="gradient_marker" format="ascii" RangeMin="0" RangeMax="1">
          0 0.5 0 0.75 0.25 0.5
          0.5 0.25 0 1 1 1
          1 1 0.25 0 0 0.5
          0.5 0 0.5 0.375 0 0.5
          0.16666666666666666 0.5 0.5 0.375 0.6666666666666666 0
          0 0.75 0.3333333333333333 0.5 0 0
          0 0 0.25 0.25 0 0
          0 0 0.625 0.5 0.75 0.3333333333333333
          0.5 0.5 1 0.5 0.5 0.75
          0.625 1 1 1 0.5 0.5
          1 0.75 0.625 1 0.625 0.5
          0.5 1 1 0.625 0.5 0.5
          1 1 0.625 1 0.5 0.5
          1 0.5 0.75 0.75 0 0
          0 0 0.5 0.5 0.5 0.5
          0.5 0.5 0 0 0 0
          0 0 0 0 0 0
          0 0 0 0 0 0
          0 0 0 0 0 0
          0 0 0 0 0 0
          0 0 0 0 0 0
          0 0 0 0 0 0
          0 0 0 0 0 0
          0 0 0 0 0 0
          0 0 0 0 0 0
          0 0 0 0 0 0
          0 0 0 0 0 0
          0 0 0 0 0 0
          0 0 0 0 0 0
          0 0 0 0 0 0
          0 0 0 0 0 0
          0 0 0 0 0 0
          0 0 1 1 1 1
          1 1 1 1 1 1
          1 1 1 1 1 1
          1 1 1 1 1 1
          1 1 1 1 1 1
          1 1 1 1 1 1
          1 1 0 0 0.6666666666666666 0
          1 1 1 1 1 1
          1 1 1 1 1 1
          0 0.6666666666666666 0 1 1 1
          1 1 1 1 1 1
          1 1 1 1 1 1
          1 1 1 1 1 1
          1 1 1 1 1 1
          1 1 1 1 1 1
          0 0 0.5 0.5 0 0.5
          0 0 0.5 0 1 1
          1 1 1 1 1 1
          1 1 0 0.5 0 0.6666666666666666
          0 0.5 0 1 1 1
          1 1 1 1 0 0
          0.5 0.5 0 0.5 0 0
          0.5 0 1 1 1 1
          1 1 1 1 1 1
          0 0.5 0 0.5 0 0.5
          0 1 1 1 1 1
          1 1 1 0 0.6666666666666666 0
          1 1 0 0.5 0 0.6666666666666666
          0 0.5 0 1 1 0.125
          0.3333333333333333 0.625 0.75 0 0.375 0
          0 0.6666666666666666 0 0.75 1 1
          0.5 1 1 1 1 1
          0 0.5 0.5 0.3333333333333333 0.5 0.5
          0.6666666666666666 0.25 0.75 1 0.5 1
          1 1 1 1 1 1
          1 1 1 1 0 0
          0 0 0 0 0 0
          0 0 0 0 0 0
          0 0 0 0 0 0
          0 0 0 0 0 1
          1 1 1 1 1 1
          1 1 1 1 1 1
          1 1 1 1
        </DataArray>
        <DataArray type="Float64" Name="gradient_matprop_marker" format="ascii" RangeMin="0" RangeMax="0">
          0 0 0 0 0 0
          0 0 0 0 0 0
          0 0 0 0 0 0
          0 0 0 0 0 0
          0 0 0 0 0 0
          0 0 0 0 0 0
          0 0 0 0 0 0
          0 0 0 0 0 0
          0 0 0 0 0 0
          0 0 0 0 0 0
          0 0 0 0 0 0
          0 0 0 0 0 0
          0 0 0 0 0 0
          0 0 0 0 0 0
          0 0 0 0 0 0
          0 0 0 0 0 0
          0 0 0 0 0 0
          0 0 0 0 0 0
          0 0 0 0 0 0
          0 0 0 0 0 0
          0 0 0 0 0 0
          0 0 0 0 0 0
          0 0 0 0 0 0
          0 0 0 0 0 0
          0 0 0 0 0 0
          0 0 0 0 0 0
          0 0 0 0 0 0
          0 0 0 0 0 0
          0 0 0 0 0 0
          0 0 0 0 0 0
          0 0 0 0 0 0
          0 0 0 0 0 0
          0 0 0 0 0 0
          0 0 0 0 0 0
          0 0 0 0 0 0
          0 0 0 0 0 0
          0 0 0 0 0 0
          0 0 0 0 0 0
          0 0 0 0 0 0
          0 0 0 0 0 0
          0 0 0 0 0 0
          0 0 0 0 0 0
          0 0 0 0 0 0
          0 0 0 0 0 0
          0 0 0 0 0 0
          0 0 0 0 0 0
          0 0 0 0 0 0
          0 0 0 0 0 0
          0 0 0 0 0 0
          0 0 0 0 0 0
          0 0 0 0 0 0
          0 0 0 0 0 0
          0 0 0 0 0 0
          0 0 0 0 0 0
          0 0 0 0 0 0
          0 0 0 0 0 0
          0 0 0 0 0 0
          0 0 0 0 0 0
          0 0 0 0 0 0
          0 0 0 0 0 0
          0 0 0 0 0 0
          0 0 0 0 0 0
          0 0 0 0 0 0
          0 0 0 0 0 0
          0 0 0 0 0 0
          0 0 0 0 0 0
          0 0 0 0 0 0
          0 0 0 0 0 0
          0 0 0 0 0 0
          0 0 0 0 0 0
          0 0 0 0 0 0
          0 0 0 0 0 0
          0 0 0 0 0 0
          0 0 0 0 0 0
          0 0 0 0
        </DataArray>
        <DataArray type="Float64" Name="combo" format="ascii" RangeMin="0" RangeMax="2">
          0 0.5 2 0.75 0.25 0.5
          0.5 0.25 2 1 1 1
          2 1.25 0.25 0 0 0.5
          0.5 0 0.5 0.375 0 0.5
          0.16666666666666666 1.5 0.75 0.375 0.6666666666666666 0
          0 0.75 0.3333333333333333 0.5 2 2
          2 2 1.75 0.75 2 2
          2 2 0.625 0.5 0.75 0.3333333333333333
          0.5 0.5 1 0.5 0.5 0.75
          0.625 1 1 1 0.5 0.5
          1 0.75 0.625 1 0.625 0.5
          0.5 1 1 0.625 2 1.875
          1.75 1.375 0.875 1 2 2
          2 1.25 0.75 0.75 0 0
          0 0 0.5 0.5 0.5 0.5
          0.5 0.5 2 2 1.5 1
          1 0.5 0 0 0 0
          0 0 0 0 2 2
          2 1.75 1.5 1.25 2 2
          2 2 1.5 1.25 1 1
          1 1 2 2 2 2
          1 1 1 1 2 2
          2 0.75 0.5 0.5 0 1.75
          1.5 1.3333333333333333 2 2 2 2
          2 2 2 2 2 2
          2 2 2 2 2 2
          2 2 2 2 2 2
          2 2 2 2 2 2
          2 1.75 1.5 2 2 2
          1 1 0 0.5 0 0
          1 1 0 0 1 1
          0 0.75 0.5 0 0 1
          1 0 1 1 1 1
          1 1 1 1 1 1
          1 1 1 1 1 1
          1 1 1 1 1 1
          1 1 1 1 1 1
          1 1 1 1 1 1
          1 1 0 0 0.6666666666666666 0
          1 1 1 1 1 1
          1 1 1 1 1 1
          0 0.6666666666666666 0 1 1 1
          1 1 1 1 1 1
          1 1 1 1 1 1
          1 1 1 1 1 1
          1 1 1 1 1 1
          1 1 1 1 1 1
          1 1 1.25 1.25 1 1.125
          2 2 2 2 1.5 1.375
          1.25 1.125 1.125 1 2 1.875
          1.625 1.625 0.5 0.75 0 0.6666666666666666
          1.5 1.375 0.6666666666666666 1 1 1
          1 1.25 1.125 1 2 2
          2 2 2 2 2 2
          2 2 2 2 2 2
          2 1.875 2 2 2 2
          2 1.875 1.25 1.125 2 2
          1.5 1.75 1.5 1.25 1.125 2
          1.75 1.5 1 0 0.6666666666666666 0
          1 1 0.25 0.5 0 0.6666666666666666
          0.5 0.5 0 1 1 0.125
          0.3333333333333333 0.625 0.75 0 0.375 0
          0 0.6666666666666666 0 0.75 1 1
          0.5 1 1 1 1 1
          0 0.5 0.5 0.3333333333333333 1.5 1
          0.6666666666666666 1.75 0.75 1 0.5 1
          1 1 1 1 1 1
          1 1 1 1 2 2
          2 1.5 2 2 2 0
          1 1 2 2 2 2
          2 2 2 2 2 2
          2 1 1 0 1 1
          1 1 1 1 1 1
          1 1 1 1 1 1
          1 1 1 1
        </DataArray>
        <DataArray type="Float64" Name="dHdT" format="ascii" RangeMin="25.777641571167834" RangeMax="51.62542767519812">
          26.10774322918391 26.098132280834914 46.32480170479715 29.018892052014685 26.216733205048513 37.07064184027202
          31.32303695880218 27.097449577919342 49.8524736668984 25.85368535253067 31.06755429172936 27.835016678184545
          47.95879079175134 40.0827380513228 25.81993943073814 26.70504281996182 26.736815959810034 29.731676929560233