<?xml version="1.0"?>
<VTKFile type="UnstructuredGrid" version="0.1" byte_order="LittleEndian" header_type="UInt32" compressor="vtkZLibDataCompressor">
  <UnstructuredGrid>
    <Piece NumberOfPoints="475" NumberOfCells="241">
      <PointData>
        <DataArray type="Int32" Name="libmesh_node_id" format="ascii" RangeMin="284" RangeMax="2150">
          286 288 289 331 332 334
          360 364 365 368 369 373
          374 375 377 378 379 380
          381 382 383 386 387 388
          389 390 392 442 443 444
          448 452 454 455 456 457
          458 459 460 461 462 463
          464 465 466 467 468 469
          470 471 472 473 474 475
          476 477 478 479 480 481
          553 554 555 557 562 563
          564 586 587 588 589 590
          591 592 593 594 595 596
          597 598 599 600 602 604
          605 606 609 687 688 689
          690 691 692 693 694 695
          696 697 698 699 700 701
          702 703 704 705 706 707
          708 709 710 711 712 713
          714 715 716 717 718 719
          720 721 722 723 724 725
          726 727 728 729 730 731
          732 733 734 735 736 737
          738 739 740 741 742 743
          744 745 746 747 748 749
          750 751 752 753 754 755
          756 757 758 759 760 761
          762 763 764 765 766 767
          768 769 770 771 772 773
          774 775 776 777 778 779
          780 791 809 813 814 818
          979 980 982 983 1017 1018
          1019 1020 1021 1022 1023 1024
          1025 1026 1027 1028 1029 1030
          1035 1036 1037 1038 1040 1043
          1044 1045 1046 1047 1048 1049
          1050 1051 1052 1053 1054 1055
          1056 1057 1058 1059 1060 1061
          1062 1065 1068 1069 1101 1103
          1105 1106 1107 1108 1110 1111
          1113 1114 1115 1116 1117 1118
          1119 1120 1121 1122 1123 1124
          1125 1126 1127 1128 1129 1130
          1131 1132 1133 1134 1135 1136
          1137 1138 1139 1140 1141 1142
          1143 1144 1145 1146 1147 1148
          1149 1150 1151 1152 1153 1154
          1155 1156 1157 1158 1159 1160
          1161 1162 1163 1164 1165 1166
          1167 1168 1169 1170 1171 1172
          1173 1174 1175 1176 1182 1183
          1293 1294 1295 1296 1297 1302
          1303 1305 1327 1328 1329 1330
          1331 1333 1334 1335 1336 1971
          1972 1973 1978 1979 1980 1995
          1996 1997 1998 1999 2000 2113
          2114 2115 2116 2117 2118 2119
          2120 2121 2122 2123 2124 2125
          2126 2127 2128 2129 2130 2131
          2132 2133 2135 2141 2142 2145
          2147 2148 2150 362 361 370
          285 366 371 372 367 287
          385 436 445 440 446 483
          489 485 490 601 491 603
          495 607 608 439 675 676
          677 681 449 685 450 781
          782 783 784 788 789 792
          794 810 811 790 812 815
          816 817 966 967 968 969
          284 971 972 1007 1009 1010
          330 1014 1015 1031 1033 1032
          1034 1039 453 1041 1042 1063
          1064 1066 1067 1070 482 486
          1102 1104 1109 1112 1177 1178
          1179 1180 1181 1184 785 1304
          1332 1316 1317 1337 1338 1319
          1341 1344 1346 1974 1975 1976
          1977 435 437 1988 1989 1990
          1994 2134 2143 2144 2146 1343
          2149
        </DataArray>
        <DataArray type="Float64" Name="bounds" format="ascii" RangeMin="0" RangeMax="0">
          0 0 0 0 0 0
          0 0 0 0 0 0
          0 0 0 0 0 0
          0 0 0 0 0 0
          0 0 0 0 0 0
          0 0 0 0 0 0
          0 0 0 0 0 0
          0 0 0 0 0 0
          0 0 0 0 0 0
          0 0 0 0 0 0
          0 0 0 0 0 0
          0 0 0 0 0 0
          0 0 0 0 0 0
          0 0 0 0 0 0
          0 0 0 0 0 0
          0 0 0 0 0 0
          0 0 0 0 0 0
          0 0 0 0 0 0
          0 0 0 0 0 0
          0 0 0 0 0 0
          0 0 0 0 0 0
          0 0 0 0 0 0
          0 0 0 0 0 0
          0 0 0 0 0 0
          0 0 0 0 0 0
          0 0 0 0 0 0
          0 0 0 0 0 0
          0 0 0 0 0 0
          0 0 0 0 0 0
          0 0 0 0 0 0
          0 0 0 0 0 0
          0 0 0 0 0 0
          0 0 0 0 0 0
          0 0 0 0 0 0
          0 0 0 0 0 0
          0 0 0 0 0 0
          0 0 0 0 0 0
          0 0 0 0 0 0
          0 0 0 0 0 0
          0 0 0 0 0 0
          0 0 0 0 0 0
          0 0 0 0 0 0
          0 0 0 0 0 0
          0 0 0 0 0 0
          0 0 0 0 0 0
          0 0 0 0 0 0
          0 0 0 0 0 0
          0 0 0 0 0 0
          0 0 0 0 0 0
          0 0 0 0 0 0
          0 0 0 0 0 0
          0 0 0 0 0 0
          0 0 0 0 0 0
          0 0 0 0 0 0
          0 0 0 0 0 0
          0 0 0 0 0 0
          0 0 0 0 0 0
          0 0 0 0 0 0
          0 0 0 0 0 0
          0 0 0 0 0 0
          0 0 0 0 0 0
          0 0 0 0 0 0
          0 0 0 0 0 0
          0 0 0 0 0 0
          0 0 0 0 0 0
          0 0 0 0 0 0
          0 0 0 0 0 0
          0 0 0 0 0 0
          0 0 0 0 0 0
          0 0 0 0 0 0
          0 0 0 0 0 0
          0 0 0 0 0 0
          0 0 0 0 0 0
          0 0 0 0 0 0
          0 0 0 0 0 0
          0 0 0 0 0 0
          0 0 0 0 0 0
          0 0 0 0 0 0
          0 0 0 0 0 0
          0
        </DataArray>
        <DataArray type="Float64" Name="gradient_error" format="ascii" RangeMin="4.2259638170705617e-10" RangeMax="5.03219356249717e-7">
          6.997311277000416e-9 3.1207558004764885e-9 9.449774610888967e-10 2.5505082265304336e-7 7.887140763291255e-9 3.314424905650027e-9
          1.2137904826653528e-8 7.796905366329955e-8 2.183807153135985e-7 5.932196733602873e-8 1.791192622455836e-7 2.97474790836432e-9
          1.700156233978989e-7 3.370170069506945e-7 2.827498840147192e-7 1.1308162041460977e-8 5.095825166033791e-9 3.13385458241319e-9
          3.943290348752372e-8 1.2326222730754288e-7 2.1488501164471846e-9 1.3727005197447673e-9 1.2403168495791571e-9 1.0108369915403344e-9
          2.264156160394877e-7 1.9892328310999573e-7 8.087132668657636e-9 2.1153241710472675e-7 2.57272724894426e-7 3.4475034247772365e-7
          3.6658148864374783e-7 2.779527466932963e-7 6.804648198985102e-8 2.0005512961515606e-7 2.857994042947109e-7 3.5020814741707305e-7
          1.855817274681293e-7 3.184792173587975e-7 3.523779465432631e-7 2.6275345064420346e-7 3.35020162937662e-7 2.9550607909672856e-7
          2.0434674543535953e-7 3.1749519410125375e-7 3.668524544152186e-7 3.134849882821937e-7 5.0094881771264703e-8 1.6505408224516132e-7
          3.5458049286939856e-7 3.498151980677196e-7 1.371117571035227e-7 3.9189177189921353e-7 3.4038804379016743e-7 2.038238173824019e-7
          2.4807212405091097e-7 1.9388882808568626e-7 3.341297377895467e-7 4.2833968300281755e-7 5.03219356249717e-7 2.443923807816982e-7
          5.703941816670906e-10 7.690719258707711e-10 1.5337249838947599e-9 5.697720784004648e-10 1.2180315319385503e-9 2.4970557861224293e-9
          8.822378841879774e-10 3.3412593713200447e-8 4.9647045404349765e-8 8.875407493906384e-8 1.1468540376953832e-7 1.9875896664279394e-8
          6.215657225775018e-8 5.146946184818511e-10 7.710330526713897e-9 6.461070213097137e-9 7.340659176085313e-9 1.440955561649272e-7
          1.7972376213472688e-7 1.0443724785122098e-7 1.4905966434945943e-8 1.0139530506174959e-8 4.760927616064885e-9 4.2259638170705617e-10
          5.379482171024647e-9 2.823076259074897e-9 1.0336367960342237e-8 2.443865751436792e-7 2.352391731332632e-7 2.1569322118514603e-7
          2.417471255319109e-7 2.465992367726789e-7 2.3185432330629224e-7 2.5878843870033203e-7 2.2664329990062964e-7 2.5827557249969056e-7
          2.7302627029108263e-7 1.5677812558090195e-7 2.0465094784516404e-7 2.2077369735522304e-7 2.611388214473212e-7 2.710252963147013e-7
          2.5868460370238736e-7 2.503380222706546e-7 2.7804638462388433e-7 2.715697385851004e-7 2.716066134368686e-7 2.9989812740612494e-7
          2.4589368001728444e-7 2.891446427139716e-7 3.067831994840935e-7 1.8566973585366774e-7 2.394420881998198e-7 2.6118876575488745e-7
          2.9664514978796185e-7 3.0163348722769556e-7 2.852388007543572e-7 2.9628345462821997e-7 3.248068696612712e-7 2.996224221243978e-7
          3.252110369169676e-7 3.5335854078242893e-7 2.6674320692999437e-7 3.260648148174146e-7 3.4710302548208234e-7 2.2699169840714535e-7
          2.867642947573511e-7 3.1720923802396675e-7 3.407970943803121e-7 3.3618390258322274e-7 3.145693842635136e-7 3.5954342027539547e-7
          3.862671071140684e-7 3.2988014648343875e-7 3.9939450609749076e-7 4.237633173761358e-7 2.8834317492007855e-7 3.699596488710711e-7
          3.946909273645368e-7 2.907495819847191e-7 3.5392559085099186e-7 3.973439543118905e-7 3.959194072117201e-7 3.7367613474083646e-7
          3.454024887332565e-7 4.427962155716476e-7 4.65116544902683e-7 3.600504469057783e-7 3.897543750375172e-7 4.594431318192453e-7
          3.088906775833709e-7 4.2131834763324337e-7 4.490173869103211e-7 3.80384545418245e-7 4.4566139303272295e-7 3.988397171707992e-7
          4.644617677069893e-7 2.1734774361329038e-7 2.1517491186795092e-7 2.567718890538417e-7 2.5062150423248403e-7 2.182740896896325e-7
          2.620422475547884e-7 1.5557569435395423e-7 1.8661527431828242e-7 1.8854300214869373e-7 1.8283476903528413e-7 2.961960344943931e-7
          2.860680965970171e-7 3.058104054199444e-7 2.176548542826106e-7 2.1761343980620523e-7 2.660329878596044e-7 2.1498793498218266e-7
          2.6838720663517954e-7 1.4281253231365118e-7 1.7686615468644036e-7 1.6821792220157366e-7 3.144525359130036e-7 3.217864782881765e-7
          2.1091977705922954e-7 3.6990726918885277e-9 2.099704649997507e-7 1.2119389273329524e-7 1.563837924825192e-7 1.9157369223174315e-7
          1.5259114666576172e-9 1.2355304138048093e-9 6.950365089291786e-10 6.872935910427004e-10 9.884899887689576e-9 6.161987765553702e-9
          6.509438240746738e-9 3.7177782883610074e-8 3.231107127911405e-8 2.2772458101340736e-8 2.3018364237419704e-8 6.547622571371458e-9
          2.9820083118321875e-8 2.4819438757163697e-8 2.4390756434178286e-9 1.3233844923567428e-8 8.858945591229334e-9 1.9818794396005513e-8
          8.681792322871043e-8 1.6376461918140228e-7 1.4392815773811908e-8 2.1100459560875123e-8 1.0771068516319606e-8 2.4071131513409415e-7
          2.7808103347938334e-8 6.773112422137104e-8 1.3932684177696158e-7 3.5890415736418798e-9 6.125680638278514e-9 2.1092255933255218e-7
          8.662319702915148e-9 8.63193452497321e-9 7.31316420896975e-9 2.849658507903908e-8 2.640639707289878e-8 7.530085981884233e-9
          2.6449340901972725e-8 2.5761436536559434e-8 5.99439389296629e-9 2.431620906675848e-8 2.507353217114615e-8 7.050281615005906e-9
          6.684621918551131e-9 4.841593564535396e-9 6.3189622220963555e-9 2.1545214981451746e-8 1.9409045565846893e-7 2.1488084422013962e-7
          1.991161220380369e-7 2.221869265506395e-7 1.604345538607435e-7 1.8101157331957398e-7 1.8404386661348563e-7 2.3567123278181034e-7
          2.452577310632421e-7 2.0158859277840445e-7 8.679198724619458e-8 8.988372987718107e-8 9.386866833876055e-8 1.5618914850422763e-7
          1.569181355939779e-7 1.4530112811700344e-7 1.4513198091933868e-7 8.522592601786946e-8 1.5704402423010385e-7 1.4487895706535385e-7
          9.297547250816756e-8 1.33684120640029e-7 1.3407481333444969e-7 1.3271388990060384e-7 7.509526350967285e-8 7.98033960236302e-8
          1.563935135578847e-7 1.4371577648357656e-7 7.362930758213761e-8 1.54809586955214e-7 1.4168315414502098e-7 8.451152853758757e-8
          1.310380394092684e-7 1.28556721334828e-7 2.0386404007727722e-7 2.2952353616570968e-7 2.0823001405854247e-7 2.368017019618438e-7
          1.627348622828479e-7 1.8651253388059014e-7 1.882266463308818e-7 2.551830322541421e-7 2.653733898651451e-7 2.1029020547833238e-7
          2.1206250081034668e-7 2.4389429637914446e-7 1.6158360939274764e-7 1.8898924781778243e-7 2.7572609194794226e-7 2.163948862428172e-7
          6.022895630596993e-8 6.674925524572898e-8 1.5212975145317173e-7 1.3863970019780567e-7 5.926133095883907e-8 1.481651196213934e-7
          1.3441947174266774e-7 7.326955418548802e-8 1.2514964894243967e-7 1.2067382386394203e-7 4.3085380253728554e-8 5.133215268711839e-8
          1.4261488200517564e-7 1.287827166904943e-7 4.310939910176706e-8 1.35574258855665e-7 1.2169072723155942e-7 5.957892512050822e-8
          1.1495055137581294e-7 1.0780719560745383e-7 2.484677983726062e-8 3.457026392004573e-8 4.429374800283084e-8 9.953173308064432e-8
          6.141636878110613e-8 5.57925946241025e-8 5.8040379534234315e-8 6.028816444436614e-8 5.46643902873625e-8 6.826896893117239e-8
          6.815851296518568e-8 6.8048056999199e-8 4.8028137997270816e-8 5.717339062051023e-8 4.19187691048818e-8 5.845321875903118e-8
          6.639182058370131e-8 2.738332170062601e-8 4.618454160470537e-8 3.880485645313614e-8 6.473558416820364e-8 1.2875164670022812e-8
          1.0066630191982844e-8 1.3334168701576189e-8 7.25809571394288e-9 1.1403542319717308e-8 1.4784208740437883e-8 9.583617346321277e-8
          9.739834053079301e-8 1.5500050348059048e-7 1.4451669178933083e-7 9.896050759837325e-8 1.3403288009807112e-7 5.95222728150325e-9
          6.445875462414517e-9 6.326676410443009e-9 6.811151372294503e-9 6.207477358471501e-9 5.6945965986633716e-9 5.746507929002251e-9
          5.798419259341132e-9 5.540788576501253e-9 5.54658394305934e-9 5.847192203496201e-9 5.3011356144257826e-9 5.936355620238206e-9
          6.14780046393306e-9 6.57157562605063e-9 4.6472924237041615e-9 5.367707996549391e-9 5.061559868181911e-9 6.08812356939462e-9
          7.0585493366261794e-9 7.0421432420306116e-9 7.025737147435044e-9 5.103344216617645e-9 5.901882707634683e-9 6.700421198651722e-9
          3.1481390966091095e-9 4.761622173238755e-9 6.3751052498684e-9 7.33392130748658e-8 1.2248190341788902e-8 1.1074512330584968e-8
          4.5306207242759363e-8 2.9684005669215186e-7 1.0282345603418645e-8 2.42177204693937e-8 4.4996440502005975e-9 3.1820517350990067e-9
          5.505718311050843e-8 2.2294065267016674e-7 3.0772108169926594e-7 3.3981524683491344e-7 3.933490684698645e-7 1.02031255972136e-7
          1.181051951216002e-7 2.572608436263567e-7 1.3607460613193245e-7 3.7654557530009787e-8 8.105109606124499e-8 1.846395949600191e-8
          1.4771603803179664e-7 6.516958455384461e-8 3.216699137593893e-8 2.3182420107370353e-7 2.236040837245819e-7 2.0179219997546635e-7
          2.265113120581288e-7 2.440725132849374e-7 1.4546023633950414e-7 1.909678325003274e-7 2.461340353659201e-7 2.7557793682968313e-7
          3.0499438934959206e-7 2.005043060181285e-7 3.133042992276352e-7 3.2316659054130913e-7 4.0312547898985074e-7 2.0540762633042197e-7
          4.013138147131567e-7 2.687303469737312e-7 2.0174847094700438e-7 2.9065216391941894e-7 2.660476723078439e-7 1.410903903363178e-7
          3.2749022894771177e-7 3.3034687366868347e-7 1.760092438124386e-8 1.2072852458274837e-8 9.194030066411889e-9 1.355922178950888e-8
          1.3014779610682312e-7 4.3714043341546255e-9 3.2274674023136447e-9 1.1821900447377311e-9 3.376519098473658e-9 4.997184514677481e-9
          2.9117334717187014e-8 5.570848152209586e-9 7.279643258919923e-9 1.0577529007243112e-7 1.8662250717697128e-7 1.2364185798353408e-7
          2.059753155536792e-7 3.43695663242209e-8 3.5247120158062043e-7 2.6746972428151146e-7 2.883087731238243e-7 2.2142967210980417e-8
          2.184409109621608e-8 1.5601103180315856e-8 1.5245580200993985e-8 1.489005722167211e-8 2.6448620543734707e-8 6.428541662466906e-8
          1.8834361763977245e-7 2.0757273382409766e-7 1.7823086521911185e-7 2.268018500084229e-7 1.278745038751183e-7 1.1370311847788131e-7
          2.6045919313972883e-8 1.1899946777169009e-7 1.0500983816284416e-7 9.102020855399821e-8 1.833357590830894e-7 7.811823715338622e-8
          7.756626874335093e-8 8.270746383140686e-8 8.251346847141195e-8 4.366696229518845e-8 6.139796043189468e-8 8.304162686994551e-8
          8.208092212463977e-8 3.930951019869651e-8 7.91545210067052e-8 3.562226944096499e-8 3.791972180243419e-8 2.466163206107575e-8
          2.5203239090701437e-8 8.268077436074146e-8 4.735581169361454e-7 1.0259506040285557e-7 1.539607541613079e-7 1.4387421811804455e-7
          1.3378768207478125e-7 7.162155666626768e-9 4.879812517607999e-9 5.793951145409625e-9 6.7080897732112505e-9 2.718872209075364e-9
          4.425746624192482e-9
        </DataArray>
        <DataArray type="Float64" Name="gradient_matprop_error" format="ascii" RangeMin="0" RangeMax="0">
          0 0 0 0 0 0
          0 0 0 0 0 0
          0 0 0 0 0 0
          0 0 0 0 0 0
          0 0 0 0 0 0
          0 0 0 0 0 0
          0 0 0 0 0 0
          0 0 0 0 0 0
          0 0 0 0 0 0
          0 0 0 0 0 0
          0 0 0 0 0 0
          0 0 0 0 0 0
          0 0 0 0 0 0
          0 0 0 0 0 0
          0 0 0 0 0 0
          0 0 0 0 0 0
          0 0 0 0 0 0
          0 0 0 0 0 0
          0 0 0 0 0 0
          0 0 0 0 0 0
          0 0 0 0 0 0
          0 0 0 0 0 0
          0 0 0 0 0 0
          0 0 0 0 0 0
          0 0 0 0 0 0
          0 0 0 0 0 0
          0 0 0 0 0 0
          0 0 0 0 0 0
          0 0 0 0 0 0
          0 0 0 0 0 0
          0 0 0 0 0 0
          0 0 0 0 0 0
          0 0 0 0 0 0
          0 0 0 0 0 0
          0 0 0 0 0 0
          0 0 0 0 0 0
          0 0 0 0 0 0
          0 0 0 0 0 0
          0 0 0 0 0 0
          0 0 0 0 0 0
          0 0 0 0 0 0
          0 0 0 0 0 0
          0 0 0 0 0 0
          0 0 0 0 0 0
          0 0 0 0 0 0
          0 0 0 0 0 0
          0 0 0 0 0 0
          0 0 0 0 0 0
          0 0 0 0 0 0
          0 0 0 0 0 0
          0 0 0 0 0 0
          0 0 0 0 0 0
          0 0 0 0 0 0
          0 0 0 0 0 0
          0 0 0 0 0 0
          0 0 0 0 0 0
          0 0 0 0 0 0
          0 0 0 0 0 0
          0 0 0 0 0 0
          0 0 0 0 0 0
          0 0 0 0 0 0
          0 0 0 0 0 0
          0 0 0 0 0 0
          0 0 0 0 0 0
          0 0 0 0 0 0
          0 0 0 0 0 0
          0 0 0 0 0 0
          0 0 0 0 0 0
          0 0 0 0 0 0
          0 0 0 0 0 0
          0 0 0 0 0 0
          0 0 0 0 0 0
          0 0 0 0 0 0
          0 0 0 0 0 0
          0 0 0 0 0 0
          0 0 0 0 0 0
          0 0 0 0 0 0
          0 0 0 0 0 0
          0 0 0 0 0 0
          0
        </DataArray>
        <DataArray type="Float64" Name="initial_marker" format="ascii" RangeMin="0" RangeMax="2">
          0 0 0 2 0 0
          0 0 0 0 0 0
          2 0 0 0 0 0
          0 0 0 0 0 0
          2 0 0 0 0 0
          0 1 0 0 1 0
          0 1 0.5 0 0 0
          2 1 1 0 0 0
          1 0.5 0 1 0.5 0
          0 0 2 2 2 0
          0 0 0 0 0 0
          0 0 0 0 0 0
          0 0 0 0 0 0
          0 0 0 0 0 0
          0 0 0 0 0 1
          1 0 1 1 0 0.5
          0.5 2 2 2 1 0.5
          0.25 1.5 1.25 0.5 2 1.5
          0 0.5 0.5 2 2 2
          1 1 0.75 2 1.75 1
          2 2 0.3333333333333333 0.75 1 2
          2 2 1 1 1 2
          2 1 2 2 0.6666666666666666 1.25
          1.5 2 2 2 1.5 1
          1 2 2 1 2 2
          0.6666666666666666 1.5 1.5 2 2 2
          2 0 0 0.25 0 0
          0.5 0 0 0 0 0.5
          0 1 0 0 0.5 0
          0.5 0 0 0 1 1
          0 2 0 0 0 0
          0 0 0 0 0 0
          0 0 0 0 0 0
          0 0 0 0 0 0
          0 0 0 0 0 0
          0 0 0 0 0 0
          0 0 0 0 0 0
          0 0 0 0 0 0
          0 0 0 0 0 0
          0 0 0 0 0 0
          0 0 0 0 0 0
          0 0 0 0 0 0
          0 0 0 0 0 0
          0 0 0 0 0 0
          0 0 0 0 0 0
          0 0 0 0 0 0
          0 0 0 0 0 0
          0 0 0 0 0 0
          0 0 0 0 0 0
          0 0 0 0 0 0
          0 0 0 0 0 0
          2 2 2 2 2 2
          2 2 2 2 2 2
          2 2 2 2 2 0
          0 0 0 0 0 0
          0 0 0 0 0 2
          2 2 2 2 2 2
          2 2 2 2 2 2
          2 2 2 2 2 2
          2 2 2 2 2 2
          2 2 2 0 0 0
          0 0 0 0 0 0
          0 0 0 0 0 0
          0 0.25 0 0 0 0
          0 0 0 0 0 1
          0.75 0.25 2 1.5 0.5 0.5
          0.75 2 2 0.6666666666666666 1.5 2
          2 0.5 0 1.5 0.5 0
          1 1 0 0 0 0
          0 0 0 0 0 0
          0 0 0 0 0 0
          0 0 0 0 0 0
          0 0 0 0 0 0
          0 0 0 0 0 0
          0 0 0 0 0.25 2
          2 2 2 2 2 2
          2 2 2 0 0 0
          0 0 0 0 0 0
          0 2 2 2 2 2
          2
        </DataArray>
        <DataArray type="Float64" Name="markers_norefine" format="ascii" RangeMin="0" RangeMax="2">
          0 0 0 0 0 0
          0 0 0 0 0 0
          0 0 0 0 0 0
          0 0 0 0 0 0
          0 0 0 0 0 0
          0 0 0 0 0 0
          0 0 0 0 0 0
          0 0 0 0 0 0
          0 0 0 0 0 0
          0 0 0 0 0 0
          0 0 0 0 0 0
          0 0 0 0 0 0
          0 0 0 0 0 0
          0 0 0 0 0 0
          0 0 0 0 0 0
          0 0 0 0 0 0
          0 0 0 0 0 0
          0 0 0 0 0 0
          0 0 0 0 0 0
          0 0 0 0 0 0
          0 0 0 0 0 0
          0 0 0 0 0 0
          0 0 0 0 0 0
          0 0 0 0 0 0
          0 0 0 0 0 0
          0 0 0 0 0 0
          0 0 0 0 0 0
          0 0 0 0 0 0
          0 0 0 0 0 0
          0 0 0 0 0 0
          0 2 0 0 0 0
          0 0 0 0 0 0
          0 0 0 0 0 0
          0 0 0 0 0 0
          0 0 0 0 0 0
          0 0 0 0 0 0
          0 0 0 0 0 0
          0 0 0 0 0 0
          0 0 0 0 0 0
          0 0 0 0 0 0
          0 0 0 0 0 0
          0 0 0 0 0 0
          0 0 0 0 0 0
          0 0 0 0 0 0
          0 0 0 0 0 0
          0 0 0 0 0 0
          0 0 0 0 0 0
          0 0 0 0 0 0
          0 0 0 0 0 0
          0 0 0 0 0 0
          0 0 0 0 0 0
          0 0 0 0 0 0
          0 0 0 0 0 0
          0 0 0 0.5 0 0
          0 0 0 0 0 0
          0 0 0 0 0 0
          0 0 0 0 0 0
          0 0 0.5 0.25 1 0.75
          0 0.5 1 0.5 1.5 0
          0 0 0 1 1 1
          2 2 2 0 0 0
          0 0 0 0 0 0
          0 0 0 0 0 0
          0 0 0 0 0 0
          0 0 0 0 0 0
          0 0 0 0 0 0
          0 0 0 0 0 0
          0 0 0 0 0 0
          0 0 0 0 0 0
          0 0 0 0 0 0
          0 0 0 0 0 0
          0 0 0 0 0 0
          0 0 0 0 0 0
          0 0 0 0 0 0
          0 0 0 0 0 0
          0 0 0 0.5 0 0
          0 1 0 0 0 0
          0 0 0 0 0 0
          0 0.5 1.5 1.25 1 2
          2
        </DataArray>
        <DataArray type="Float64" Name="markers_mustrefine" format="ascii" RangeMin="0" RangeMax="2">
          0 0 0 2 0 0
          0 0 0 0 0 0
          2 0 0 0 0 0
          0 0 0 0 0 0
          2 0 0 0 0 0
          0 1 0 0 1 0
          0 1 0.5 0 0 0
          2 1 1 0 0 0
          1 0.5 0 1 0.5 0
          0 0 2 2 2 0
          0 0 0 0 0 0
          0 0 0 0 0 0
          0 0 0 0 0 0
          0 0 0 0 0 0
          0 0 0 0 0 1
          1 0 1 1 0 0.5
          0.5 2 2 2 1 0.5
          0.25 1.5 1.25 0.5 2 1.5
          0 0.5 0.5 2 2 2
          1 1 0.75 2 1.75 1
          2 2 0.3333333333333333 0.75 1 2
          2 2 1 1 1 2
          2 1 2 2 0.6666666666666666 1.25
          1.5 2 2 2 1.5 1
          1 2 2 1 2 2
          0.6666666666666666 1.5 1.5 2 2 2
          2 0 0 0.25 0 0
          0.5 0 0 0 0 0.5
          0 1 0 0 0.5 0
          0.5 0 0 0 1 1
          0 2 0 0 0 0
          0 0 0 0 0 0
          0 0 0 0 0 0
          0 0 0 0 0 0
          0 0 0 0 0 0
          0 0 0 0 0 0
          0 0 0 0 0 0
          0 0 0 0 0 0
          0 0 0 0 0 0
          0 0 0 0 0 0
          0 0 0 0 0 0
          0 0 0 0 0 0
          0 0 0 0 0 0
          0 0 0 0 0 0
          0 0 0 0 0 0
          0 0 0 0 0 0
          0 0 0 0 0 0
          0 0 0 0 0 0
          0 0 0 0 0 0
          0 0 0 0 0 0
          0 0 0 0 0 0
          2 2 2 2 2 2
          2 2 2 2 2 2
          2 2 2 2 2 0
          0 0 0 0 0 0
          0 0 0 0 0 2
          2 2 2 2 2 2
          2 2 2 2 2 2
          2 2 2 2 2 2
          2 2 2 2 2 2
          2 2 2 0 0 0
          0 0 0 0 0 0
          0 0 0 0 0 0
          0 0.25 0 0 0 0
          0 0 0 0 0 1
          0.75 0.25 2 1.5 0.5 0.5
          0.75 2 2 0.6666666666666666 1.5 2
          2 0.5 0 1.5 0.5 0
          1 1 0 0 0 0
          0 0 0 0 0 0
          0 0 0 0 0 0
          0 0 0 0 0 0
          0 0 0 0 0 0
          0 0 0 0 0 0
          0 0 0 0 0.25 2
          2 2 2 2 2 2
          2 2 2 0 0 0
          0 0 0 0 0 0
          0 2 2 2 2 2
          2
        </DataArray>
        <DataArray type="Float64" Name="gradient_marker" format="ascii" RangeMin="0" RangeMax="1">
          1 1 1 1 1 1
          1 1 1 0.5 1 1
          1 1 1 1 1 1
          0.5 1 1 1 1 1
          0.5 1 1 1 1 1
          1 1 0.5 1 1 1
          0.75 1 1 1 1 1
          1 1 1 1 0.5 0.75
          1 1 0.75 1 1 1
          1 1 1 1 1 1
          1 1 1 1 1 1
          1 1 1 1 1 1
          1 1 1 1 1 1
          1 1 1 1 1 1
          1 1 1 1 1 1
          1 1 1 1 1 1
          1 1 1 1 1 1
          1 1 1 1 1 1
          1 1 1 1 1 1
          1 1 1 1 1 1
          1 1 1 1 1 1
          1 1 1 1 1 1
          1 1 1 1 1 1
          1 1 1 1 1 1
          1 1 1 1 0.75 0.875
          1 1 1 1 1 0.75
          1 1 1 1 1 1
          1 1 1 1 1 1
          1 1 1 1 1 1
          1 1 1 1 1 1
          1 0 1 1 1 1
          1 1 1 1 1 1
          1 1 1 1 1 1
          1 1 1 1 1 1
          1 1 1 1 1 1
          1 1 1 1 1 1
          1 1 1 1 1 1
          1 1 1 1 1 1
          1 1 1 1 1 1
          1 1 1 1 1 1
          1 1 0.5 0.75 1 1
          0.75 0.875 1 0.5 0.5 0.75
          1 1 1 1 0 0.25
          0.5 0.625 0 0.5 0.5 0.5
          0.75 0.5 1 1 1 1
          1 1 1 1 1 1
          1 1 1 1 1 1
          0 0 0.5 0.5 0 0.5
          0.5 0 0.5 0.5 0 0
          0.5 0.5 0 0.5 0.5 0
          0.5 0.5 0 0 0 0.5
          0 0 0 0 0 0
          0 0 0 0 0 0
          0 0 0 0 0 1
          1 1 1 1 1 1
          1 1 1 1 1 0
          0 0 0 0 0 0
          0 0 0 0 0 0
          0 0 0 0 0 0
          0 0 0 0 0 0
          0 0 0 1 1 1
          1 1 1 1 1 1
          1 1 1 1 1 0.75
          1 0.875 1 1 0.75 1
          1 1 1 1 1 1
          1 1 1 1 1 0.75
          0.875 0.25 0.5 1 0.875 0.5
          0.75 1 1 0.75 1 1
          1 1 1 1 1 1
          1 1 1 1 1 1
          1 1 1 1 1 1
          1 1 1 1 1 1
          1 1 1 1 0.5 0.75
          1 1 1 1 0.5 0.5
          0 0.5 0.5 0.5 0.625 0
          0.16666666666666666 0.25 0.25 0 0.125 0.3333333333333333
          0.5 0 0.5 1 1 1
          1 1 1 1 1 1
          1 0 0 0 0 0
          0
        </DataArray>
        <DataArray type="Float64" Name="gradient_matprop_marker" format="ascii" RangeMin="0" RangeMax="0">
          0 0 0 0 0 0
          0 0 0 0 0 0
          0 0 0 0 0 0
          0 0 0 0 0 0
          0 0 0 0 0 0
          0 0 0 0 0 0
          0 0 0 0 0 0
          0 0 0 0 0 0
          0 0 0 0 0 0
          0 0 0 0 0 0
          0 0 0 0 0 0
          0 0 0 0 0 0
          0 0 0 0 0 0
          0 0 0 0 0 0
          0 0 0 0 0 0
          0 0 0 0 0 0
          0 0 0 0 0 0
          0 0 0 0 0 0
          0 0 0 0 0 0
          0 0 0 0 0 0
          0 0 0 0 0 0
          0 0 0 0 0 0
          0 0 0 0 0 0
          0 0 0 0 0 0
          0 0 0 0 0 0
          0 0 0 0 0 0
          0 0 0 0 0 0
          0 0 0 0 0 0
          0 0 0 0 0 0
          0 0 0 0 0 0
          0 0 0 0 0 0
          0 0 0 0 0 0
          0 0 0 0 0 0
          0 0 0 0 0 0
          0 0 0 0 0 0
          0 0 0 0 0 0
          0 0 0 0 0 0
          0 0 0 0 0 0
          0 0 0 0 0 0
          0 0 0 0 0 0
          0 0 0 0 0 0
          0 0 0 0 0 0
          0 0 0 0 0 0
          0 0 0 0 0 0
          0 0 0 0 0 0
          0 0 0 0 0 0
          0 0 0 0 0 0
          0 0 0 0 0 0
          0 0 0 0 0 0
          0 0 0 0 0 0
          0 0 0 0 0 0
          0 0 0 0 0 0
          0 0 0 0 0 0
          0 0 0 0 0 0
          0 0 0 0 0 0
          0 0 0 0 0 0
          0 0 0 0 0 0
          0 0 0 0 0 0
          0 0 0 0 0 0
          0 0 0 0 0 0
          0 0 0 0 0 0
          0 0 0 0 0 0
          0 0 0 0 0 0
          0 0 0 0 0 0
          0 0 0 0 0 0
          0 0 0 0 0 0
          0 0 0 0 0 0
          0 0 0 0 0 0
          0 0 0 0 0 0
          0 0 0 0 0 0
          0 0 0 0 0 0
          0 0 0 0 0 0
          0 0 0 0 0 0
          0 0 0 0 0 0
          0 0 0 0 0 0
          0 0 0 0 0 0
          0 0 0 0 0 0
          0 0 0 0 0 0
          0 0 0 0 0 0
          0
        </DataArray>
        <DataArray type="Float64" Name="combo" format="ascii" RangeMin="0" RangeMax="2">
          1 1 1 1 1 1
          1 1 1 0.5 1 1
          1 1 1 1 1 1
          0.5 1 1 1 1 1
          0.5 1 1 1 1 1
          1 1 0.5 1 1 1
          0.75 1 1 1 1 1
          1 1 1 1 0.5 0.75
          1 1 0.75 1 1 1
          1 1 1 1 1 1
          1 1 1 1 1 1
          1 1 1 1 1 1
          1 1 1 1 1 1
          1 1 1 1 1 1
          1 1 1 1 1 1
          1 1 1 1 1 1
          1 1 1 1 1 1
          1 1 1 1 1 1
          1 1 1 1 1 1
          1 1 1 1 1 1
          1 1 1 1 1 1
          1 1 1 1 1 1
          1 1 1 1 1 1
          1 1 1 1 1 1
          1 1 1 1 0.75 0.875
          1 1 1 1 1 0.75
          1 1 1 1 1 1
          1 1 1 1 1 1
          1 1 1 1 1 1
          1 1 1 1 1 1
          1 2 1 1 1 1
          1 1 1 1 1 1
          1 1 1 1 1 1
          1 1 1 1 1 1
          1 1 1 1 1 1
          1 1 1 1 1 1
          1 1 1 1 1 1
          1 1 1 1 1 1
          1 1 1 1 1 1
          1 1 1 1 1 1
          1 1 0.5 0.75 1 1
          0.75 0.875 1 0.5 0.5 0.75
          1 1 1 1 0 0.25
          0.5 0.625 0 0.5 0.5 0.5
          0.75 0.5 1 1 1 1
          1 1 1 1 1 1
          1 1 1 1 1 1
          0 0 0.5 0.5 0 0.5
          0.5 0 0.5 0.5 0 0
          0.5 0.5 0 0.5 0.5 0
          0.5 0.5 0 0 0 0.5
          0 0 0 0 0 0
          0 0 0 0 0 0
          0 0 0 0.5 0 1
          1 1 1 1 1 1
          1 1 1 1 1 0
          0 0 0 0 0 0
          0 0 0.5 0.25 1 0.75
          0 0.5 1 0.5 1.5 0
          0 0 0 1 1 1
          2 2 2 1 1 1
          1 1 1 1 1 1
          1 1 1 1 1 0.75
          1 0.875 1 1 0.75 1
          1 1 1 1 1 1
          1 1 1 1 1 0.75
          0.875 0.25 0.5 1 0.875 0.5
          0.75 1 1 0.75 1 1
          1 1 1 1 1 1
          1 1 1 1 1 1
          1 1 1 1 1 1
          1 1 1 1 1 1
          1 1 1 1 0.5 0.75
          1 1 1 1 0.5 0.5
          0 0.5 0.5 0.5 0.625 0