<?xml version="1.0"?>
<VTKFile type="UnstructuredGrid" version="0.1" byte_order="LittleEndian" header_type="UInt32" compressor="vtkZLibDataCompressor">
  <UnstructuredGrid>
    <Piece NumberOfPoints="306" NumberOfCells="185">
      <PointData>
        <DataArray type="Int32" Name="libmesh_node_id" format="ascii" RangeMin="239" RangeMax="2816">
          239 605 606 611 647 648
          653 654 1090 1091 1092 1093
          1121 1122 1123 1124 1125 1126
          1127 1128 1129 1130 1189 1190
          1191 1192 1227 1228 1229 1230
          1231 1232 1233 1234 1235 1236
          1938 1939 1940 1941 1948 1949
          1950 1951 1957 1963 1964 1965
          2055 2061 2062 2146 2147 2148
          2149 2150 2151 2152 2153 2154
          2155 2156 2157 2158 2159 2160
          2161 2162 2163 2164 2165 2167
          2169 2171 2173 2174 2175 2176
          2177 2178 2179 2180 2181 2182
          2183 2184 2185 2186 2187 2188
          2189 2190 2191 2192 2193 2194
          2195 2196 2197 2198 2199 2201
          2203 2205 2207 2208 2209 2210
          2211 2212 2213 2255 2259 2261
          2262 2265 2266 2283 2287 2289
          2290 2293 2294 2449 2450 2451
          2452 2459 2460 2461 2462 2467
          2468 2469 2474 2475 2476 2583
          2584 2590 2591 2640 2641 2642
          2643 2644 2645 2646 2647 2648
          2649 2650 2651 2652 2653 2654
          2655 2656 2657 2658 2659 2660
          2661 2662 2663 2664 2665 2666
          2667 2668 2669 2670 2671 2672
          2673 2674 2675 2676 2677 2678
          2679 2680 2681 2682 2683 2684
          2685 2686 2687 2688 2689 2690
          2691 2692 2693 2694 2695 2696
          2697 2698 2699 2700 2701 2702
          2703 2704 2705 2706 2707 2776
          2777 2780 2781 2783 2784 2787
          2788 2804 2805 2808 2809 2811
          2812 2815 2816 1878 1932 1933
          1879 603 1884 1934 1935 1936
          1881 1082 1937 1942 1943 1944
          1945 1946 1947 1952 1892 1956
          1896 1953 1955 1954 1958 1959
          1960 1961 1962 2051 2050 2054
          2057 2058 2090 2091 2093 1113
          2096 1114 2166 2106 2168 2170
          2110 2172 2124 2125 2127 609
          2130 1119 2200 2140 2202 2204
          2144 2206 2254 2258 2282 2286
          2443 2444 2445 2446 2447 2448
          2453 2454 2457 2463 2464 2465
          2466 2470 2472 2579 2580 2586
        </DataArray>
        <DataArray type="Float64" Name="bounds" format="ascii" RangeMin="0" RangeMax="0">
          0 0 0 0 0 0
          0 0 0 0 0 0
          0 0 0 0 0 0
          0 0 0 0 0 0
          0 0 0 0 0 0
          0 0 0 0 0 0
          0 0 0 0 0 0
          0 0 0 0 0 0
          0 0 0 0 0 0
          0 0 0 0 0 0
          0 0 0 0 0 0
          0 0 0 0 0 0
          0 0 0 0 0 0
          0 0 0 0 0 0
          0 0 0 0 0 0
          0 0 0 0 0 0
          0 0 0 0 0 0
          0 0 0 0 0 0
          0 0 0 0 0 0
          0 0 0 0 0 0
          0 0 0 0 0 0
          0 0 0 0 0 0
          0 0 0 0 0 0
          0 0 0 0 0 0
          0 0 0 0 0 0
          0 0 0 0 0 0
          0 0 0 0 0 0
          0 0 0 0 0 0
          0 0 0 0 0 0
          0 0 0 0 0 0
          0 0 0 0 0 0
          0 0 0 0 0 0
          0 0 0 0 0 0
          0 0 0 0 0 0
          0 0 0 0 0 0
          0 0 0 0 0 0
          0 0 0 0 0 0
          0 0 0 0 0 0
          0 0 0 0 0 0
          0 0 0 0 0 0
          0 0 0 0 0 0
          0 0 0 0 0 0
          0 0 0 0 0 0
          0 0 0 0 0 0
          0 0 0 0 0 0
          0 0 0 0 0 0
          0 0 0 0 0 0
          0 0 0 0 0 0
          0 0 0 0 0 0
          0 0 0 0 0 0
          0 0 0 0 0 0
        </DataArray>
        <DataArray type="Float64" Name="gradient_error" format="ascii" RangeMin="3.938526840757602e-10" RangeMax="4.648415015464021e-8">
          2.3519314156575636e-8 1.2147720173819834e-8 4.410960325371004e-9 1.0517251407862314e-8 1.9201362621542945e-9 6.576086401908293e-10
          4.999769200243121e-9 1.6191133685895559e-9 2.1622647455863902e-8 1.7463274579607904e-8 9.526574377616173e-9 8.650175681183214e-9
          3.452775583035693e-8 3.1886626714753565e-8 2.1196039655338025e-8 1.8258469907698295e-8 1.576962173828355e-8 8.452926419914497e-9
          3.204116230962382e-8 3.732574419410975e-8 2.204990594501312e-8 1.929199364033691e-8 5.449171014234959e-9 4.156026671072611e-9
          1.4517382738762099e-9 1.861292249594383e-9 1.0680595526201098e-8 8.56662227119736e-9 4.019901241610157e-9 3.0778121020875507e-9
          3.655343002645992e-9 1.2833008588028178e-9 1.2580690938465817e-8 1.0711943837263815e-8 3.937353738969806e-9 4.6075878699252556e-9
          2.7165117703197558e-8 2.589468714004596e-8 2.0571778704250674e-8 2.210412344334258e-8 1.6567941050038595e-8 1.5722107141324652e-8
          1.1468075348554435e-8 1.3231248520759195e-8 1.302172212648741e-8 9.712693680507104e-9 6.881404354960116e-9 6.324292729714698e-9
          5.3065086504669225e-9 3.8024490863796465e-9 2.615855163617458e-9 3.616803731343701e-8 3.535395177971234e-8 2.9877215101942654e-8
          2.8866782159108058e-8 3.128974006109139e-8 2.504718002496612e-8 3.809178824698272e-8 3.963665591297591e-8 3.469935904296611e-8
          3.8656662238883856e-8 2.3207060294767555e-8 2.2305142554327794e-8 1.7318684511272677e-8 1.6572793866854523e-8 1.9181747542205537e-8
          1.407969735226199e-8 2.8168049372929297e-8 2.7699101510962082e-8 2.0722907932642772e-8 2.4660854194092718e-8 1.8727352930790714e-8
          1.2268480418735691e-8 2.4277798779573274e-8 1.4183393680485605e-8 1.0222446809558349e-8 9.110532727712476e-9 6.433059700509429e-9
          1.849867384139625e-8 1.3499935880877706e-8 1.1842840854966092e-8 3.340109312945244e-8 3.803299160353411e-8 3.367182925324018e-8
          3.604336535982452e-8 4.2103000358398046e-8 3.607411389394048e-8 3.034218523720255e-8 3.6339326321873264e-8 3.5616787142593406e-8
          4.28269009198343e-8 3.0008532590019736e-8 3.05129087287091e-8 2.3072592526023312e-8 2.3074497573799638e-8 2.8417050996858572e-8
          2.107609091548797e-8 3.006841512756125e-8 3.1157456546230046e-8 2.3766604833290602e-8 2.97190208146803e-8 2.8329794718722166e-8
          1.8341637042014025e-8 2.9800426533051488e-8 2.164118763449163e-8 1.588059026085447e-8 1.3849808623314024e-8 9.959151975273587e-9
          2.279674888666814e-8 1.674683927372035e-8 1.4586975452565148e-8 7.343095019604689e-9 9.296471721443376e-9 5.324453218149296e-9
          3.693523864678622e-9 6.804409235230725e-9 4.7529641169854125e-9 1.0717988701166336e-8 1.1238723535413434e-8 7.894405934500095e-9
          5.539887655097077e-9 8.296742395925706e-9 5.831667940893712e-9 8.396518040413665e-9 7.887710543863554e-9 5.100820941978885e-9
          6.47749666313949e-9 3.3284294586111873e-9 3.1082577621761572e-9 1.7912457291703744e-9 2.5212693838478168e-9 4.621646141473857e-9
          2.9438590307478294e-9 2.933066572275128e-9 1.7824200695959515e-9 1.0294965206745362e-9 1.1295816422526742e-9 1.7272768255603666e-9
          1.0960256035913267e-9 6.703220224395884e-10 3.938526840757602e-10 1.2342836844172064e-8 1.1718347904148317e-8 8.227580968183526e-9
          7.754479298247615e-9 9.776608265281295e-9 6.370060575303203e-9 1.549102837469549e-8 1.4990122054085032e-8 1.020410786452973e-8
          1.2914620468231454e-8 5.114873595303937e-9 4.795793086952957e-9 2.978647599669565e-9 2.7832260112698247e-9 3.898296069425264e-9
          2.249011742900526e-9 6.797242618053322e-9 6.433858410036784e-9 3.779783827507786e-9 5.303590625171363e-9 6.961702609363698e-9
          4.472659553364166e-9 4.313084791438754e-9 2.7474275255673416e-9 9.318523482411656e-9 6.044687427139106e-9 5.712391764885644e-9
          2.716123994953946e-9 1.5649502057014298e-9 1.6664506223369023e-9 9.657961019687324e-10 3.689921048510348e-9 2.1273633869227942e-9
          2.2193169595346454e-9 1.7087880433274408e-8 1.6891307980837277e-8 1.2144171722496452e-8 1.178464926416419e-8 1.5070161731726164e-8
          1.0146412045026e-8 1.7480980090501715e-8 1.7453605227525833e-8 1.2297802969634316e-8 1.581827375905945e-8 7.905948144612319e-9
          7.564800667510777e-9 4.747147316717709e-9 4.497659288382353e-9 6.345142681943156e-9 3.7048076198690725e-9 8.272403388993719e-9
          7.954987574056443e-9 4.75369858930386e-9 6.726053528977271e-9 1.1065329439180296e-8 7.2338767293320214e-9 6.769869464692307e-9
          4.347688121901054e-9 1.1706989794213744e-8 7.676671748397652e-9 7.1648487640098296e-9 4.4367063205996354e-9 2.5622523489036344e-9
          2.6432546481467616e-9 1.5271088261123798e-9 4.717094411319785e-9 2.7264498599416333e-9 2.803006916595055e-9 2.4499686165774674e-9
          1.5558791203421835e-9 3.16623837765448e-9 2.013410576070692e-9 9.483257786398682e-10 5.556404714275055e-10 1.2250180131264871e-9
          7.155065681892432e-10 3.701970535364937e-9 2.3572804271821588e-9 3.901390874897009e-9 2.485660118139002e-9 1.4337878318780411e-9
          8.358095719477785e-10 1.5117326178169783e-9 8.80613202639769e-10 2.1350602661753717e-8 1.736564736269432e-8 1.6487930064530847e-8
          2.0324195361841556e-8 3.256469740166424e-8 3.119792546811078e-8 1.3635988679791465e-8 1.2909173038612464e-8 1.4049072394252252e-8
          1.744591413037966e-8 2.6886786801980965e-8 1.0895227482326542e-8 1.0241399290693549e-8 9.657648691881836e-9 7.293091055825725e-9
          6.854905539138491e-9 8.066633285231024e-9 5.677897925054166e-9 1.0724990442920263e-8 1.353436807514382e-8 1.667776064604528e-8
          2.051847241659733e-8 8.182969610566357e-9 5.569342482732585e-9 7.451983828969815e-9 1.131375938908976e-8 5.973205610237048e-9
          4.159839666176607e-9 4.001548444621348e-9 2.756580758804463e-9 3.5393017555554138e-9 4.842794743173212e-9 7.127227696625455e-9
          2.505250589950311e-9 1.7101466684234421e-9 4.0824695941153225e-8 4.057476113773939e-8 3.7094342055069196e-8 3.984226252820645e-8
          4.257469267232419e-8 4.399371494637114e-8 2.3710998366771075e-8 2.879925717832066e-8 1.5783254046795246e-8 3.0519304360502206e-8
          3.652270827283115e-8 2.0125808196095426e-8 3.3888461022744665e-8 3.929031626786764e-8 4.626665300858802e-8 3.1066338944438325e-8
          3.735239997155076e-8 4.648415015464021e-8 3.530350568831672e-8 4.1583471424301346e-8 2.3349892361744438e-8 3.696734158807855e-8
          4.3251711762034984e-8 2.4545796592812944e-8 9.710305192960935e-9 1.2151811614156408e-8 1.3916021178372295e-8 1.4562160535023823e-8
          4.914960373632783e-9 4.608541066420508e-9 3.1362991474951025e-9 2.936207825144325e-9 3.794946307254612e-9 2.4100455081475576e-9
          1.898680130687093e-9 1.7766274605763407e-9 1.4577658438913443e-9 2.7618535577761548e-9 1.749819628643061e-9 1.8199099523240414e-9
          1.1526453034397531e-9 1.0603952031960512e-9 7.014739795257248e-10 1.1230484972367722e-9 7.114048307455167e-10 4.361553983989642e-10
        </DataArray>
        <DataArray type="Float64" Name="gradient_matprop_error" format="ascii" RangeMin="0" RangeMax="0">
          0 0 0 0 0 0
          0 0 0 0 0 0
          0 0 0 0 0 0
          0 0 0 0 0 0
          0 0 0 0 0 0
          0 0 0 0 0 0
          0 0 0 0 0 0
          0 0 0 0 0 0
          0 0 0 0 0 0
          0 0 0 0 0 0
          0 0 0 0 0 0
          0 0 0 0 0 0
          0 0 0 0 0 0
          0 0 0 0 0 0
          0 0 0 0 0 0
          0 0 0 0 0 0
          0 0 0 0 0 0
          0 0 0 0 0 0
          0 0 0 0 0 0
          0 0 0 0 0 0
          0 0 0 0 0 0
          0 0 0 0 0 0
          0 0 0 0 0 0
          0 0 0 0 0 0
          0 0 0 0 0 0
          0 0 0 0 0 0
          0 0 0 0 0 0
          0 0 0 0 0 0
          0 0 0 0 0 0
          0 0 0 0 0 0
          0 0 0 0 0 0
          0 0 0 0 0 0
          0 0 0 0 0 0
          0 0 0 0 0 0
          0 0 0 0 0 0
          0 0 0 0 0 0
          0 0 0 0 0 0
          0 0 0 0 0 0
          0 0 0 0 0 0
          0 0 0 0 0 0
          0 0 0 0 0 0
          0 0 0 0 0 0
          0 0 0 0 0 0
          0 0 0 0 0 0
          0 0 0 0 0 0
          0 0 0 0 0 0
          0 0 0 0 0 0
          0 0 0 0 0 0
          0 0 0 0 0 0
          0 0 0 0 0 0
          0 0 0 0 0 0
        </DataArray>
        <DataArray type="Float64" Name="initial_marker" format="ascii" RangeMin="2" RangeMax="2">
          2 2 2 2 2 2
          2 2 2 2 2 2
          2 2 2 2 2 2
          2 2 2 2 2 2
          2 2 2 2 2 2
          2 2 2 2 2 2
          2 2 2 2 2 2
          2 2 2 2 2 2
          2 2 2 2 2 2
          2 2 2 2 2 2
          2 2 2 2 2 2
          2 2 2 2 2 2
          2 2 2 2 2 2
          2 2 2 2 2 2
          2 2 2 2 2 2
          2 2 2 2 2 2
          2 2 2 2 2 2
          2 2 2 2 2 2
          2 2 2 2 2 2
          2 2 2 2 2 2
          2 2 2 2 2 2
          2 2 2 2 2 2
          2 2 2 2 2 2
          2 2 2 2 2 2
          2 2 2 2 2 2
          2 2 2 2 2 2
          2 2 2 2 2 2
          2 2 2 2 2 2
          2 2 2 2 2 2
          2 2 2 2 2 2
          2 2 2 2 2 2
          2 2 2 2 2 2
          2 2 2 2 2 2
          2 2 2 2 2 2
          2 2 2 2 2 2
          2 2 2 2 2 2
          2 2 2 2 2 2
          2 2 2 2 2 2
          2 2 2 2 2 2
          2 2 2 2 2 2
          2 2 2 2 2 2
          2 2 2 2 2 2
          2 2 2 2 2 2
          2 2 2 2 2 2
          2 2 2 2 2 2
          2 2 2 2 2 2
          2 2 2 2 2 2
          2 2 2 2 2 2
          2 2 2 2 2 2
          2 2 2 2 2 2
          2 2 2 2 2 2
        </DataArray>
        <DataArray type="Float64" Name="markers_norefine" format="ascii" RangeMin="0" RangeMax="2">
          0 0 0 0 0 0
          0 0 0 0 0 0
          0 0 0 0 0 0
          1 0 0 0 0 0
          0 0 0 0 0 0
          0 0 0 0 0 0
          0 0 0 0 0 0
          0 0 0 0 0 0
          0 0 0 0 0 0
          0 0 0 0.5 0.5 0
          0.25 0 0 0 0 0
          0 0 0 0 0 0
          0 0 0 0 0 0
          0 0 0 1.5 1.25 0.5
          0.25 0.5 0 2 1.5 0.5
          0.5 0 0 0 0 0
          0 0 0 0 0 0
          0 0 0 0 0 0
          0 0 0 0 0 0
          0 0 0 0 0 0
          0 0 0 0 0 0
          0 0 0 0 0 0
          0 0 0 0 0 0
          0 0 0 0 0 0
          0 0 0 0 0 0
          0 0 0 0 0 0
          0 0 0 0 0 0
          0 0 0 0 0 0
          0 0 0 0 0 0
          0 0 0 0 0 0
          0 0 0 0 0 0
          0 0 0 0 0 0
          0 0 0 0 0 0
          0 0 0 0 0 0
          0 0 0 0 0 0
          0 0 0 0 0 0
          0 0 0 0 0 0
          0 0 0 0 0 0
          0 0 0 0 0 0
          0 0 0 0 0 0
          0 0 0 0 0 0
          0 0 0 0 0 0
          0 0 0 0 0 0
          0 0 0.5 0.25 0 1.5
          1.25 0.5 0 0 0 0
          0 0 2 2 1 2
          2 1 0 0 0 0
          0 0 0 0 0 0
          0 0 0 0 0 0
          0 0 0 0 0 0
          0 0 0 0 0 0
        </DataArray>
        <DataArray type="Float64" Name="markers_mustrefine" format="ascii" RangeMin="2" RangeMax="2">
          2 2 2 2 2 2
          2 2 2 2 2 2
          2 2 2 2 2 2
          2 2 2 2 2 2
          2 2 2 2 2 2
          2 2 2 2 2 2
          2 2 2 2 2 2
          2 2 2 2 2 2
          2 2 2 2 2 2
          2 2 2 2 2 2
          2 2 2 2 2 2
          2 2 2 2 2 2
          2 2 2 2 2 2
          2 2 2 2 2 2
          2 2 2 2 2 2
          2 2 2 2 2 2
          2 2 2 2 2 2
          2 2 2 2 2 2
          2 2 2 2 2 2
          2 2 2 2 2 2
          2 2 2 2 2 2
          2 2 2 2 2 2
          2 2 2 2 2 2
          2 2 2 2 2 2
          2 2 2 2 2 2
          2 2 2 2 2 2
          2 2 2 2 2 2
          2 2 2 2 2 2
          2 2 2 2 2 2
          2 2 2 2 2 2
          2 2 2 2 2 2
          2 2 2 2 2 2
          2 2 2 2 2 2
          2 2 2 2 2 2
          2 2 2 2 2 2
          2 2 2 2 2 2
          2 2 2 2 2 2
          2 2 2 2 2 2
          2 2 2 2 2 2
          2 2 2 2 2 2
          2 2 2 2 2 2
          2 2 2 2 2 2
          2 2 2 2 2 2
          2 2 2 2 2 2
          2 2 2 2 2 2
          2 2 2 2 2 2
          2 2 2 2 2 2
          2 2 2 2 2 2
          2 2 2 2 2 2
          2 2 2 2 2 2
          2 2 2 2 2 2
        </DataArray>
        <DataArray type="Float64" Name="gradient_marker" format="ascii" RangeMin="1" RangeMax="1">
          1 1 1 1 1 1
          1 1 1 1 1 1
          1 1 1 1 1 1
          1 1 1 1 1 1
          1 1 1 1 1 1
          1 1 1 1 1 1
          1 1 1 1 1 1
          1 1 1 1 1 1
          1 1 1 1 1 1
          1 1 1 1 1 1
          1 1 1 1 1 1
          1 1 1 1 1 1
          1 1 1 1 1 1
          1 1 1 1 1 1
          1 1 1 1 1 1
          1 1 1 1 1 1
          1 1 1 1 1 1
          1 1 1 1 1 1
          1 1 1 1 1 1
          1 1 1 1 1 1
          1 1 1 1 1 1
          1 1 1 1 1 1
          1 1 1 1 1 1
          1 1 1 1 1 1
          1 1 1 1 1 1
          1 1 1 1 1 1
          1 1 1 1 1 1
          1 1 1 1 1 1
          1 1 1 1 1 1
          1 1 1 1 1 1
          1 1 1 1 1 1
          1 1 1 1 1 1
          1 1 1 1 1 1
          1 1 1 1 1 1
          1 1 1 1 1 1
          1 1 1 1 1 1
          1 1 1 1 1 1
          1 1 1 1 1 1
          1 1 1 1 1 1
          1 1 1 1 1 1
          1 1 1 1 1 1
          1 1 1 1 1 1
          1 1 1 1 1 1
          1 1 1 1 1 1
          1 1 1 1 1 1
          1 1 1 1 1 1
          1 1 1 1 1 1
          1 1 1 1 1 1
          1 1 1 1 1 1
          1 1 1 1 1 1
          1 1 1 1 1 1
        </DataArray>
        <DataArray type="Float64" Name="gradient_matprop_marker" format="ascii" RangeMin="0" RangeMax="0">
          0 0 0 0 0 0
          0 0 0 0 0 0
          0 0 0 0 0 0
          0 0 0 0 0 0
          0 0 0 0 0 0
          0 0 0 0 0 0
          0 0 0 0 0 0
          0 0 0 0 0 0
          0 0 0 0 0 0
          0 0 0 0 0 0
          0 0 0 0 0 0
          0 0 0 0 0 0
          0 0 0 0 0 0
          0 0 0 0 0 0
          0 0 0 0 0 0
          0 0 0 0 0 0
          0 0 0 0 0 0
          0 0 0 0 0 0
          0 0 0 0 0 0
          0 0 0 0 0 0
          0 0 0 0 0 0
          0 0 0 0 0 0
          0 0 0 0 0 0
          0 0 0 0 0 0
          0 0 0 0 0 0
          0 0 0 0 0 0
          0 0 0 0 0 0
          0 0 0 0 0 0
          0 0 0 0 0 0
          0 0 0 0 0 0
          0 0 0 0 0 0
          0 0 0 0 0 0
          0 0 0 0 0 0
          0 0 0 0 0 0
          0 0 0 0 0 0
          0 0 0 0 0 0
          0 0 0 0 0 0
          0 0 0 0 0 0
          0 0 0 0 0 0
          0 0 0 0 0 0
          0 0 0 0 0 0
          0 0 0 0 0 0
          0 0 0 0 0 0
          0 0 0 0 0 0
          0 0 0 0 0 0
          0 0 0 0 0 0
          0 0 0 0 0 0
          0 0 0 0 0 0
          0 0 0 0 0 0
          0 0 0 0 0 0
          0 0 0 0 0 0
        </DataArray>
        <DataArray type="Float64" Name="combo" format="ascii" RangeMin="1" RangeMax="2">
          1 1 1 1 1 1
          1 1 1 1 1 1
          1 1 1 1 1 1
          1.5 1 1 1 1 1
          1 1 1 1 1 1
          1 1 1 1 1 1
          1 1 1 1 1 1
          1 1 1 1 1 1
          1 1 1 1 1 1
          1 1 1 1.25 1.25 1
          1.125 1 1 1 1 1
          1 1 1 1 1 1
          1 1 1 1 1 1
          1 1 1 1.75 1.625 1.25
          1.125 1.25 1 2 1.75 1.25
          1.25 1 1 1 1 1
          1 1 1 1 1 1
          1 1 1 1 1 1
          1 1 1 1 1 1
          1 1 1 1 1 1
          1 1 1 1 1 1
          1 1 1 1 1 1
          1 1 1 1 1 1
          1 1 1 1 1 1
          1 1 1 1 1 1
          1 1 1 1 1 1
          1 1 1 1 1 1
          1 1 1 1 1 1
          1 1 1 1 1 1
          1 1 1 1 1 1
          1 1 1 1 1 1
          1 1 1 1 1 1
          1 1 1 1 1 1
          1 1 1 1 1 1
          1 1 1 1 1 1
          1 1 1 1 1 1
          1 1 1 1 1 1
          1 1 1 1 1 1
          1 1 1 1 1 1
          1 1 1 1 1 1
          1 1 1 1 1 1
          1 1 1 1 1 1
          1 1 1 1 1 1
          1 1 1.25 1.125 1 1.75
          1.625 1.25 1 1 1 1
          1 1 2 2 1.5 2
          2 1.5 1 1 1 1
          1 1 1 1 1 1
          1 1 1 1 1 1
          1 1 1 1 1 1
          1 1 1 1 1 1
        </DataArray>
        <DataArray type="Float64" Name="dHdT" format="ascii" RangeMin="25.896439014924233" RangeMax="59.76705239461137">
          36.73945406555507 29.040301259830198 26.780784791873145 28.291551447794344 26.23133439225042 25.949802529424257
          27.16549308063885 26.151297595202905 32.96369419031558 30.903403407566923 28.077032966307282 27.877380610059706
          39.54414817759304 36.141143537326876 34.412215359530414 31.521328820721745 30.122216383676005 27.736587326831014
          47.73962467147092 38.76753632857124 33.58339667222892 31.449359858194526 27.06244029866959 26.714935770409166
          26.118216103864576 26.20795771617608 28.935209918653502 27.895506437541037 26.807283762492972 26.499001316763653
          26.590381618208244 26.079892586765414 30.240382788533108 28.652926505259778 26.728248928790393 26.801173107073193
          34.82160049161276 34.29570289132008 32.39383991828187 32.74851457017946 30.84557483517465 30.377386234030546
          28.753177526631674 29.270843002837672 29.184802022594713 28.114771764634092 27.352628280915766 27.24677742419177
          27.05417030233049 26.675218364136544 26.393709243980837 38.89885402103715 37.893852284438125 36.12062282282646
          35.57316443389369 35.77447456375531 33.83871290308492 46.54067322246723 43.9812362307385 38.41608149894091
          39.106168320912005 34.20723333944824 33.50519619540512 31.59414067656477 31.004046193848037 31.6558947843354
          29.625692119864752 36.60001447592233 36.00187186754495 33.59589984545644 34.04794093982865 31.233556296613035
          28.924750964645682 33.250815916663285 29.518164335034697 28.231597323431224 27.943079136406645 27.241673865019422
          31.147117261976845 29.27979878339887 28.71828671323242 55.799118917379964 51.43718105927718 44.82917312233864
          42.23258214395448 42.75252515755099 37.89633024152325 59.76705239461137 54.5849321068282 44.40694332901404
          44.30016619401677 37.70806733355509 37.20017446141838 36.20219149714114 35.37566740111497 35.480361412616546
          33.036382533401024 38.131877225378474 37.57160843215064 35.93993443085529 35.89815336300951 34.516418990386576
          31.08769627162755 34.92091823779099 32.402000628428546 30.18630767046543 29.371107647971446 28.135803678100547
          32.85158162142226 30.546528831883244 29.633778059757542 27.553255612116942 28.065990248621205 27.022845373170423
          26.62980068633558 27.374305923863123 26.86646057186101 28.466746245303874 28.620294593300166 27.644179400029984
          27.04644987849978 27.746307001110615 27.114445233271628 27.845100337148107 27.674735894474207 26.961119191850287
          27.2653106540809 26.552730263762193 26.49411253771349 26.19860374516517 26.35027208460113 26.812284683971757
          26.437323906324934 26.443919180562872 26.18633558512422 26.026359829314387 26.05008185654656 26.19065942729036
          26.04945184584067 25.955666125759514 25.896439014924233 29.32070326342883 28.97699029638566 27.903675518681812
          27.713219935736465 28.182713908436973 27.261184208747 31.281678741114025 30.67588294606563 28.621843312581557
          29.31134114176013 27.03402647211373 26.927365269820655 26.499032028147568 26.44030345212508 26.66980448605112
          26.297906183577204 27.59905368238189 27.43039998113172 26.716516739611983 27.030869819546897 27.360890575276652
          26.774262690054087 26.742216435204973 26.394815602811164 27.981901957898824 27.14592828662877 27.056917476411744
          26.386516867513876 26.139787845623555 26.162095003312153 26.013385869478746 26.604517317543017 26.262868361490227
          26.2789367107698 33.049078527193025 32.21758210236416 29.85875141307912 29.424580026108973 30.32161288540783
          28.436069901012065 33.74294105061307 32.83614644673921 29.754108906905948 30.735365334317788 28.080339552455825
          27.856131609138128 27.064230303423876 26.945869394796468 27.33013560947491 26.66372618254276 28.272877317444834
          28.026336403346 27.036217712958702 27.44833880668576 28.50308845523468 27.448404678492942 27.305615702869925
          26.74320055059704 28.710104313080947 27.56564157630277 27.4008728077397 26.779697871694363 26.36131052721371
          26.369978833210638 26.131648451467797 26.84732540689421 26.399323090340758 26.40465784962774 26.345556665603
          26.146897204137282 26.500195679961013 26.244312384351968 26.014054058045964 25.929730344557605 26.072675084169713
          25.96320347695675 26.617391943732493 26.31797707285787 26.66154161335013 26.345618094128078 26.11701822732723
          25.988520624805396 26.13366919423986 25.998000163569703 32.89982511793043 31.17201170001551 30.74831254783006
          32.443806433068616 36.61958777626718 36.0005043979728 29.557162484419713 29.256935804969757 29.70460139860064
          31.189640609716328 34.46777763038003 28.543089628035844 28.35459399099246 28.162923784298698 27.507800072054444
          27.384183518511296 27.696173624917236 27.079149648928087 28.550887750184348 29.62707593808793 30.59497326970475
          32.237903083936615 27.757624216316305 27.108429894256773 27.63135822285532 28.726972141670117 27.16508304520586
          26.725450477732423 26.713919832919338 26.420258122974964 26.641134394072687 26.983973976163014 27.55663130808911
          26.384679235639943 26.195894544209995 43.588107703925715 41.662434081746184 38.08059333693831 53.41766089303344
          50.39429183291921 43.49936364573169 33.11290680379764 34.97500060566993 30.253193149986974 35.252452316851326
          37.545109228957585 31.84906100376059 56.70702531986109 55.16804439742497 48.454353365626986 55.7099376801239
          55.48455986175456 50.047667077555154 36.72812464419099 39.77947390886653 32.94142867013238 37.30238355754299
          40.65816914806375 33.30669454791057 28.261561534264267 29.0091562985335 29.615392533179552 29.85412901795484
          26.90922235206979 26.83079307049568 26.495308851695903 26.44717875872874 26.635763348799422 26.326695348425112
          26.219439888851117 26.190967447267592 26.11974525593418 26.407009916087983 26.18422286186459 26.207727287675386
          26.059741876394572 26.03538908162426 25.961627033760333 26.06106325283904 25.968535255397654 25.90751329745172
        </DataArray>
        <DataArray type="Float64" Name="dk/dtemperature" format="ascii" RangeMin="0.007550343739931687" RangeMax="0.028000729712438974">
          0.007637163121926257 0.012304296109317762 0.014622051362421682 0.012901595637289391 0.015370819897829773 0.015794138899959315
          0.014224766295357336 0.015553985564130105 0.009527129584887073 0.01098257594841683 0.013167538095090841 0.01335711789471124
          0.008102023818728541 0.007764740476072491 0.008687315226432712 0.01057504715529739 0.011544212619654933 0.013500217768532623
          0.01625191950992988 0.007820105146070134 0.009123027469332228 0.010666002371299797 0.014314968716011147 0.014702941144997993
          0.015607387916701871 0.015433468594133045 0.012338136469369137 0.013328248355186088 0.014582045076191728 0.015002034605114753
          0.014892775939856861 0.015668841507352767 0.011373631792728916 0.012594518081951606 0.014634883023110307 0.01458280327381015
          0.008360974078452989 0.00866942805818441 0.009946044491561997 0.009718973880296324 0.011089948056985889 0.01137312465898543
          0.012531429083565875 0.012137799333050203 0.01221931727008933 0.013126714104993465 0.013941967406339828 0.014055000937959437
          0.01427112720865836 0.014743261932715416 0.015142114416144334 0.007703952343187347 0.00768401873675199 0.0077528386511801295
          0.008003024656186096 0.007990576863244614 0.009030374348836957 0.011182244696157879 0.009897716606606934 0.007782403906961045
          0.00781632607476062 0.008925958842189712 0.009324730503295247 0.010539194296923331 0.010929616669581872 0.010479627404000127
          0.011901108596434541 0.007649012592138912 0.007814916103501669 0.00923924959278317 0.008915627827118338 0.010732109735453074
          0.012398584503772264 0.009339050935013547 0.01195822206655841 0.013041673751294728 0.013293716091862293 0.01407179446887801
          0.010827592387047821 0.012121384052428723 0.012590114212614951 0.019247007894036657 0.014230130506855143 0.012509694729695112
          0.010321560689783248 0.008392128896237156 0.007649330322250569 0.024576852143348107 0.016773654955699328 0.012426518628376492
          0.008621348086996584 0.007835575905075168 0.007550343739931687 0.00770975125279594 0.00808068939871253 0.007947452220503262
          0.009518810368758757 0.008162254717282259 0.00769509624695488 0.007767682159690821 0.007675189496262748 0.008502802993201546
          0.010912884341936543 0.008290281161701291 0.009910003695728465 0.011473576434082153 0.012068925741634406 0.013068533026836469
          0.009534427094026396 0.01125839505367281 0.011860854103063125 0.013702694674675511 0.013180998758754389 0.014320882192487644
          0.014824466216779197 0.013905547285579108 0.014498387680525708 0.012801080961895176 0.012665595418118973 0.013589788640675133
          0.01426471137831405 0.013478897961730915 0.014184639299605145 0.013401399704146484 0.013567708939230752 0.014415232638727507
          0.014030657674317423 0.014921963374917979 0.015009268987838602 0.015453156387248432 0.015223255799910622 0.014561414627126065
          0.015070344328192414 0.015041410191345524 0.015483285629747698 0.015731490203656044 0.015700165855504405 0.015472844180363819
          0.015700165855504405 0.015794138899959315 0.015804580349343192 0.012069679696692221 0.0123414710336484 0.013339000912008932
          0.013527955102702894 0.013071299791414042 0.014039212114776508 0.010734689496162447 0.011104228432738188 0.012596655843554256
          0.01208100344726524 0.014329184183244624 0.014439513002072031 0.014979831648611766 0.015067137261532387 0.0147648367347556
          0.015303202078024537 0.013648344575080719 0.013829624929480509 0.014698034921793522 0.014304401466032287 0.013934041120343552
          0.014631297706153186 0.014656206223960515 0.015134755081337627 0.013259435429728478 0.01419960957040854 0.014274901226507956