<?xml version="1.0"?>
<VTKFile type="UnstructuredGrid" version="0.1" byte_order="LittleEndian" header_type="UInt32" compressor="vtkZLibDataCompressor">
  <UnstructuredGrid>
    <Piece NumberOfPoints="403" NumberOfCells="234">
      <PointData>
        <DataArray type="Int32" Name="libmesh_node_id" format="ascii" RangeMin="330" RangeMax="3835">
          330 478 479 485 762 763
          764 765 766 767 768 769
          770 771 772 773 774 775
          1074 1075 1077 1078 1080 1081
          1566 1567 1568 1571 1574 1576
          1577 1578 1579 1580 1581 1582
          1583 1584 1585 1586 1587 1588
          1589 1592 1593 1596 1598 1600
          1601 1602 1603 1604 1605 1606
          1607 1608 1609 1610 1611 1612
          1613 1615 1616 1617 1618 1620
          1621 1622 1623 1624 1625 1626
          1627 1628 1629 1631 1633 1635
          1637 1638 1639 1640 1641 1642
          1643 1902 1905 1909 1911 1912
          1913 1914 1918 1919 3291 3292
          3293 3294 3295 3296 3297 3298
          3299 3300 3301 3302 3303 3304
          3315 3316 3317 3318 3319 3320
          3321 3322 3323 3324 3335 3336
          3337 3338 3339 3340 3341 3342
          3343 3344 3352 3353 3354 3355
          3356 3357 3358 3359 3360 3361
          3362 3363 3364 3365 3366 3367
          3368 3369 3370 3371 3372 3373
          3374 3375 3376 3377 3378 3379
          3380 3381 3382 3383 3384 3385
          3386 3387 3388 3389 3390 3391
          3392 3393 3394 3395 3396 3397
          3398 3399 3400 3401 3402 3403
          3404 3405 3406 3417 3418 3419
          3420 3422 3423 3424 3425 3426
          3437 3438 3439 3440 3441 3442
          3443 3444 3445 3446 3455 3457
          3458 3459 3460 3461 3462 3463
          3464 3465 3466 3474 3475 3476
          3477 3478 3479 3480 3483 3484
          3486 3489 3491 3492 3493 3494
          3495 3496 3497 3498 3499 3500
          3508 3509 3510 3511 3512 3513
          3514 3515 3516 3517 3518 3519
          3520 3521 3522 3523 3524 3525
          3526 3527 3528 3529 3530 3531
          3532 3533 3534 3535 3536 3537
          3538 3539 3540 3541 3542 3543
          3544 3545 3546 3547 3548 3549
          3550 3551 3552 3553 3554 3555
          3556 3557 3558 3559 3560 3561
          3562 3563 3564 3565 3566 3567
          3568 3569 3570 3571 3572 3573
          3574 3575 3576 3577 3578 3579
          3580 3581 3582 3590 3591 3592
          3593 3594 3595 3596 3604 3605
          3606 3607 3608 3609 3610 3611
          3612 3613 3621 3622 3623 3624
          3625 3626 3627 3635 3636 3637
          3638 3639 3640 3641 3642 3643
          3644 3645 3646 3647 3648 3649
          3650 3651 3652 3653 3654 3655
          3656 3657 3658 3659 3660 3661
          3662 3663 3664 3665 3666 3667
          3668 3669 3670 3671 3672 3673
          3674 3675 3676 3677 3678 3679
          3680 3681 3682 3683 3684 3685
          3686 3687 3688 3689 3771 3772
          3774 3796 3798 3809 3810 3813
          3815 3816 3818 3829 3831 3833
          3835
        </DataArray>
        <DataArray type="Float64" Name="bounds" format="ascii" RangeMin="0" RangeMax="0">
          0 0 0 0 0 0
          0 0 0 0 0 0
          0 0 0 0 0 0
          0 0 0 0 0 0
          0 0 0 0 0 0
          0 0 0 0 0 0
          0 0 0 0 0 0
          0 0 0 0 0 0
          0 0 0 0 0 0
          0 0 0 0 0 0
          0 0 0 0 0 0
          0 0 0 0 0 0
          0 0 0 0 0 0
          0 0 0 0 0 0
          0 0 0 0 0 0
          0 0 0 0 0 0
          0 0 0 0 0 0
          0 0 0 0 0 0
          0 0 0 0 0 0
          0 0 0 0 0 0
          0 0 0 0 0 0
          0 0 0 0 0 0
          0 0 0 0 0 0
          0 0 0 0 0 0
          0 0 0 0 0 0
          0 0 0 0 0 0
          0 0 0 0 0 0
          0 0 0 0 0 0
          0 0 0 0 0 0
          0 0 0 0 0 0
          0 0 0 0 0 0
          0 0 0 0 0 0
          0 0 0 0 0 0
          0 0 0 0 0 0
          0 0 0 0 0 0
          0 0 0 0 0 0
          0 0 0 0 0 0
          0 0 0 0 0 0
          0 0 0 0 0 0
          0 0 0 0 0 0
          0 0 0 0 0 0
          0 0 0 0 0 0
          0 0 0 0 0 0
          0 0 0 0 0 0
          0 0 0 0 0 0
          0 0 0 0 0 0
          0 0 0 0 0 0
          0 0 0 0 0 0
          0 0 0 0 0 0
          0 0 0 0 0 0
          0 0 0 0 0 0
          0 0 0 0 0 0
          0 0 0 0 0 0
          0 0 0 0 0 0
          0 0 0 0 0 0
          0 0 0 0 0 0
          0 0 0 0 0 0
          0 0 0 0 0 0
          0 0 0 0 0 0
          0 0 0 0 0 0
          0 0 0 0 0 0
          0 0 0 0 0 0
          0 0 0 0 0 0
          0 0 0 0 0 0
          0 0 0 0 0 0
          0 0 0 0 0 0
          0 0 0 0 0 0
          0
        </DataArray>
        <DataArray type="Float64" Name="gradient_error" format="ascii" RangeMin="2.617081690293653e-12" RangeMax="1.7668744092545656e-9">
          3.9244395750133064e-11 1.7771868553865817e-11 1.8633154372971447e-11 1.5811289568926346e-11 3.177572072390427e-11 4.688329393865427e-11
          1.3689841938755613e-10 5.402673623087378e-11 1.4515067847861958e-11 9.19636399908538e-12 7.909727999085553e-12 4.779976116922071e-11
          3.6995305947914666e-11 1.4183702949089935e-11 5.907798846448948e-10 2.2649756570224938e-10 1.459030001645332e-11 3.972560550326907e-11
          2.8184630790345385e-11 4.307823439866255e-11 1.769208010181198e-11 1.6151964839701833e-11 4.6719739718852076e-11 1.5188836387804464e-11
          2.5866859003593715e-11 3.4472393544901497e-11 2.909038090609818e-11 2.4909513236435604e-11 1.0782148475989805e-10 3.093099552181285e-11
          2.6929223747321244e-11 2.0539531715709603e-11 1.7702729014346452e-11 8.730253722383244e-12 6.351711305505889e-12 6.760931019233483e-12
          1.8396743245571457e-11 1.4137512787379837e-11 8.266397650893314e-12 3.770651369957135e-11 2.987774595869589e-11 8.308537343978205e-12
          1.7135930404621993e-11 3.180179943649134e-11 3.317514125339697e-11 3.423498263964815e-11 3.100425024467638e-11 1.1298976416575337e-11
          1.3747524713869845e-11 4.2059659630010604e-12 7.185837007145397e-12 8.731918314837398e-12 1.4077477723836608e-11 4.96575220616061e-12
          1.3951740990802055e-11 8.93954011130038e-12 1.491738994680155e-11 1.3890883989966009e-9 1.0916685897232725e-9 4.417751283121637e-10
          3.4371059605564486e-10 1.568949323467902e-10 1.7668744092545656e-9 1.4924443959873407e-9 4.824908187954997e-10 1.1970462075012808e-10
          9.289626105191947e-11 2.8059397641277436e-11 2.182955317347979e-11 4.279736549864524e-11 1.0267242470223605e-11 1.6491703867866744e-10
          1.3205835663721674e-10 3.111510865642154e-11 6.146394873015863e-11 4.539691506896282e-11 3.2802080325447974e-11 6.235059382056221e-11
          1.7826015535203432e-11 1.0537517266834484e-11 1.6170119129361556e-11 1.378150445501863e-11 2.3561262257653667e-11 1.3196301721935434e-11
          1.952462638922233e-11 2.6791217013489642e-11 3.464802253045262e-11 4.0339698535029215e-11 1.0263956176014436e-11 1.1978092350677129e-11
          5.8243517483720865e-12 6.011700521904241e-12 1.369222852533982e-11 6.199049295436394e-12 1.1794687512916035e-11 1.1353637922799067e-11
          1.8878192950945124e-11 1.8126816012647427e-11 8.962163168196375e-12 1.3686158538715356e-11 1.3132542719525981e-11 1.0121574936908688e-11
          1.607381649296862e-11 1.162465625352603e-11 4.57640570549319e-11 4.370561304852052e-11 2.922337924881351e-11 3.8076693820895975e-11
          8.935240464776633e-12 1.324199265163825e-11 7.116975984118248e-12 9.887249833784444e-12 8.539919388417987e-12 1.1711791391688991e-11
          9.104114060853435e-12 3.006226891021401e-11 2.0211886715948634e-11 2.5268073148782304e-11 1.0955603504978451e-10 1.038785645449448e-10
          6.100057613456267e-11 5.78698637879509e-11 8.861929755642439e-11 4.942663826330552e-11 2.484190172051149e-10 2.33858766870125e-10
          1.2892400336929463e-10 1.9532015395041613e-10 6.824169970460854e-11 3.813672614487429e-11 4.771678397133543e-11 2.6728405835526604e-11
          1.453529552585182e-10 8.04568974447118e-11 9.725462889770682e-11 1.9547620287721627e-11 1.8649850331773586e-11 3.2662050576134354e-11
          3.1001821073820364e-11 9.691191682834546e-12 1.6999880900076186e-11 1.6145562000599794e-11 1.619331210247561e-11 2.6527871254109765e-11
          1.3866504558988102e-11 7.301432235852178e-11 6.880754152176533e-11 3.5567253930333716e-11 5.764859327978806e-11 5.202845163263141e-12
          4.99837434800421e-12 8.642458460220711e-12 8.210168420709233e-12 2.617081690293653e-12 4.323005581927287e-12 4.07277921528324e-12
          4.412537119821117e-12 7.0527892764478014e-12 3.947483308620898e-12 1.8881604813490036e-11 1.7837322422517377e-11 8.634840217181432e-12
          1.5044965756359286e-11 1.2896135345522978e-11 2.056571313819186e-11 6.8748444193714806e-12 1.0744057792240732e-11 9.423732029127571e-12
          1.4479644799226379e-11 8.692820793723561e-12 4.320739909167666e-11 2.2405117587877506e-11 2.916408790299579e-11 3.654697677878402e-12
          5.47767376384872e-12 2.632096932378434e-12 3.751941068825373e-12 3.278224648859849e-12 4.62764735599959e-12 3.306537909066442e-12
          1.1264651412335924e-11 6.5482523719509414e-12 8.70756559762022e-12 2.0262136563461838e-11 3.040972262170644e-11 1.1537357078903008e-11
          1.7108241899678184e-11 2.2831775637215432e-11 1.2918999332779838e-11 5.910190935869146e-11 3.2907360161565034e-11 3.81847710040341e-11
          6.442446485758838e-12 9.357813900569228e-12 4.821731135188276e-12 6.679602741147422e-12 5.195155775182821e-12 7.173613542356258e-12
          5.373442236381486e-12 1.7870579277869442e-11 1.1000523915725359e-11 1.1646118303782794e-11 1.3103129383728816e-9 4.980370522433793e-10
          4.671829542203557e-10 2.7347640594000643e-10 2.565057291209778e-10 3.8531176217193244e-10 2.1158023505796935e-10 8.001109453731049e-10
          7.533373561832276e-10 4.154240272562751e-10 6.249563064667167e-10 2.795410433973549e-10 1.537172005918325e-10 1.797153938497456e-10
          9.916551837661351e-11 4.522002543089985e-10 2.482622608167282e-10 2.8545953702557415e-10 1.7009316097833814e-9 1.6272384994191002e-9
          1.3962623443493061e-9 1.7062778593368807e-9 9.970345697586547e-10 9.497219406422996e-10 5.580277440356678e-10 5.297638084336278e-10
          8.071596787628056e-10 4.4700753564709674e-10 1.046628973226308e-9 1.0046634407139497e-9 5.643991336961809e-10 8.675012265552957e-10
          5.94840610760606e-10 3.274280231560987e-10 3.7655151069658483e-10 2.0688369114445684e-10 6.475644956081773e-10 3.5713651503053326e-10
          4.1207876716307644e-10 1.4480904657639568e-10 1.3585669584544313e-10 7.405686328165858e-11 6.952395571945189e-11 1.1217968158194031e-10
          5.752381357130651e-11 2.3436866968115993e-10 2.2022019693389076e-10 1.1244078252659406e-10 1.819662749042064e-10 3.6622319620996946e-11
          3.443136712458202e-11 1.754498670188216e-11 1.6507333406934997e-11 2.8603023102462423e-11 1.3740938538203816e-11 5.89682100306604e-11
          5.538748832351399e-11 2.6361846786165995e-11 4.579113607093156e-11 8.177380907779745e-11 4.2102189978833986e-11 5.305953284120477e-11
          2.743956917371771e-11 1.3144800248364942e-10 6.721969584795391e-11 8.330949868030076e-11 2.1007691807669615e-11 1.0133087680080596e-11
          1.3708097684076705e-11 6.664845573748107e-12 3.323883403359716e-11 1.5921612052664934e-11 2.1297175265645617e-11 2.990858483421242e-10
          2.8321230679124186e-10 1.5388694356210156e-10 1.4544553774026316e-10 2.377223129708984e-10 1.2165098433961494e-10 3.188002866222235e-10
          3.034363201779249e-10 1.5652284632393954e-10 2.5743668314343247e-10 7.617718197627948e-11 7.190373658742171e-11 3.6348660240320885e-11
          3.4279471158836535e-11 6.001468947255322e-11 2.8586493365851167e-11 8.198144526343027e-11 7.764254842535895e-11 3.7108711865121036e-11
          6.52562629285241e-11 1.7350242098091326e-10 8.865507451181342e-11 1.0967830586709566e-10 5.6177124993775596e-11 1.8947694789763e-10
          9.687817327474201e-11 1.2006406181933293e-10 4.375289103594321e-11 2.0894901743439416e-11 2.7842588168158415e-11 1.3367305911223392e-11
          4.7814844645178523e-11 2.2826268786419903e-11 3.043420780831834e-11 1.0419666157926659e-10 5.7749135116106954e-11 5.539598572376215e-11
          3.087076269305228e-11 1.5985406943697262e-10 8.829366602740449e-11 8.170589785405723e-11 2.2170255577834844e-11 2.784199699865687e-11
          1.2700092468838226e-11 1.5759948452338016e-11 1.590355829018454e-11 1.8641976657008096e-11 1.0754588367233811e-11 3.899927073244602e-11
          2.1883167909262406e-11 2.442747325748839e-11 2.0813551894372026e-10 1.147435667281995e-10 1.0379578488854352e-10 5.755258992437602e-11
          2.2730971213459653e-10 1.252624780311272e-10 1.125480185866276e-10 4.805015720396634e-11 2.6914521917881173e-11 2.944793664666188e-11
          1.6784463004087148e-11 5.161551136251953e-11 2.888251245307534e-11 3.1421321802178626e-11 3.117761692641951e-11 1.6198267213313114e-11
          1.6726978792247742e-11 1.032635107605923e-11 4.73498209809156e-11 2.4492207250379282e-11 2.4497360980161283e-11 6.08958105691428e-12
          8.062625461183229e-12 3.0489887052057986e-12 3.9670712698566656e-12 4.5212880079638846e-12 5.758807592794524e-12 2.8584297879585095e-12
          1.2139622013949633e-11 5.8800336149116495e-12 8.387056038306834e-12 6.772924666268727e-12 8.475042267518802e-12 4.82742305214432e-12
          5.920939496188502e-12 4.8702045382558e-12 5.824895227176459e-12 4.1932198671811864e-12 1.1832101193701654e-11 8.191644063294151e-12
          7.785304373817973e-12 6.138848258970269e-11 3.166102416950677e-11 3.098005257062886e-11 1.903791125612583e-11 6.696457983005396e-11
          3.4502119564846445e-11 3.3526198964521295e-11 1.561844706236855e-11 7.515857259569473e-12 1.0658412113764191e-11 5.1242015292208405e-12
          1.699331996229002e-11 8.156801123823182e-12 1.1539039328539876e-11 1.452139639614885e-11 1.0055814834781836e-11 9.40202235664309e-12
          6.958117129754312e-12 1.555575027366327e-11 1.0742797483208052e-11 1.0013021881747354e-11 1.2910563096928561e-11 1.2137833578720694e-11
          1.0072661601335585e-11 7.408301027056952e-12 4.824346647018493e-12 1.674938645034276e-11 1.5787948493780267e-11 1.3160000695003417e-11
          1.8126778265430004e-11 1.7121503546399537e-11 1.4330930373986056e-11 9.68774026153676e-12 6.251760866250179e-12 1.0573678949942995e-11
          6.809371577692654e-12
        </DataArray>
        <DataArray type="Float64" Name="gradient_matprop_error" format="ascii" RangeMin="0" RangeMax="0">
          0 0 0 0 0 0
          0 0 0 0 0 0
          0 0 0 0 0 0
          0 0 0 0 0 0
          0 0 0 0 0 0
          0 0 0 0 0 0
          0 0 0 0 0 0
          0 0 0 0 0 0
          0 0 0 0 0 0
          0 0 0 0 0 0
          0 0 0 0 0 0
          0 0 0 0 0 0
          0 0 0 0 0 0
          0 0 0 0 0 0
          0 0 0 0 0 0
          0 0 0 0 0 0
          0 0 0 0 0 0
          0 0 0 0 0 0
          0 0 0 0 0 0
          0 0 0 0 0 0
          0 0 0 0 0 0
          0 0 0 0 0 0
          0 0 0 0 0 0
          0 0 0 0 0 0
          0 0 0 0 0 0
          0 0 0 0 0 0
          0 0 0 0 0 0
          0 0 0 0 0 0
          0 0 0 0 0 0
          0 0 0 0 0 0
          0 0 0 0 0 0
          0 0 0 0 0 0
          0 0 0 0 0 0
          0 0 0 0 0 0
          0 0 0 0 0 0
          0 0 0 0 0 0
          0 0 0 0 0 0
          0 0 0 0 0 0
          0 0 0 0 0 0
          0 0 0 0 0 0
          0 0 0 0 0 0
          0 0 0 0 0 0
          0 0 0 0 0 0
          0 0 0 0 0 0
          0 0 0 0 0 0
          0 0 0 0 0 0
          0 0 0 0 0 0
          0 0 0 0 0 0
          0 0 0 0 0 0
          0 0 0 0 0 0
          0 0 0 0 0 0
          0 0 0 0 0 0
          0 0 0 0 0 0
          0 0 0 0 0 0
          0 0 0 0 0 0
          0 0 0 0 0 0
          0 0 0 0 0 0
          0 0 0 0 0 0
          0 0 0 0 0 0
          0 0 0 0 0 0
          0 0 0 0 0 0
          0 0 0 0 0 0
          0 0 0 0 0 0
          0 0 0 0 0 0
          0 0 0 0 0 0
          0 0 0 0 0 0
          0 0 0 0 0 0
          0
        </DataArray>
        <DataArray type="Float64" Name="initial_marker" format="ascii" RangeMin="0" RangeMax="2">
          2 0 0 0 0 0
          2 2 0 2 0.75 0
          0 0 2 2 2 0.5
          0 0 0 0 0 0
          0 1.5 1 0.5 2 0
          0 1 0.5 0 0 0
          0 0 0 2 2 1.75
          1.75 0 0 0 1 0
          0 0 0 0 0 0
          0.25 0 0 2 2 2
          2 2 2 2 2 2
          2 2 2 2 2 2
          2 2 2 2 0 2
          1.25 0.25 0 0 1.5 0.5
          0 0 0 0 0 0
          0 0 0 0 0 0
          1 0.75 0 1 0.5 0
          0.5 0 2 1.75 1.6666666666666667 1.5
          0 0.25 0 0 0 0
          0 1.25 1.3333333333333333 1 2 2
          2 2 2 2 2 2
          2 2 2 2 1.75 1.5
          2 2 2 2 2 2
          2 1.5 2 1.75 2 2
          1.5 2 2 2 2 1
          0.5 1.5 1.25 0 1 1
          0 1 1 2 2 2
          2 1.5 1.75 0.5 1.25 0.5
          1.25 1 2 2 2 0
          0.75 0 0.5 0 0.5 0
          1.75 1.6666666666666667 1.6666666666666667 0.5 1.25 0
          0.75 1 0.5 2 1.75 2
          0 0.5 0 0.5 0 0
          0 1.5 1.3333333333333333 0.6666666666666666 2 2
          2 2 2 2 2 2
          2 2 2 2 2 2
          2 2 2 2 2 2
          2 2 2 2 2 2
          2 2 2 2 2 2
          2 2 2 2 2 2
          2 2 2 2 2 2
          2 2 2 2 2 2
          2 2 2 2 2 2
          2 2 2 2 2 2
          2 2 2 2 2 2
          2 1.75 2 2 2 2
          2 2 2 2 2 2
          2 2 2 2 2 2
          2 2 2 2 2 2
          2 2 2 2 2 2
          2 2 2 2 2 2
          2 2 2 2 2 2
          1.75 2 2 2 1 1
          0.5 0.75 0 0 0 1.25
          1 0.5 2 2 2 2
          2 2 2 1.75 1.25 1.5
          0.5 2 1.5 2 2 1.75
          1.25 1 2 2 1.75 1
          1.25 0.5 0.75 0 0.5 0
          1.75 1.25 1.5 0 0.25 0
          0 0 0 0 0.75 0.5
          0 2 2 2 2 2
          2 2 2 1.5 2 1
          2 1.5 2 1 1 0
          0 1 1 0 2 2
          2 2 1.5 2 2 2
          2 2 2 2 1.75 2
          2
        </DataArray>
        <DataArray type="Float64" Name="markers_norefine" format="ascii" RangeMin="0" RangeMax="0">
          0 0 0 0 0 0
          0 0 0 0 0 0
          0 0 0 0 0 0
          0 0 0 0 0 0
          0 0 0 0 0 0
          0 0 0 0 0 0
          0 0 0 0 0 0
          0 0 0 0 0 0
          0 0 0 0 0 0
          0 0 0 0 0 0
          0 0 0 0 0 0
          0 0 0 0 0 0
          0 0 0 0 0 0
          0 0 0 0 0 0
          0 0 0 0 0 0
          0 0 0 0 0 0
          0 0 0 0 0 0
          0 0 0 0 0 0
          0 0 0 0 0 0
          0 0 0 0 0 0
          0 0 0 0 0 0
          0 0 0 0 0 0
          0 0 0 0 0 0
          0 0 0 0 0 0
          0 0 0 0 0 0
          0 0 0 0 0 0
          0 0 0 0 0 0
          0 0 0 0 0 0
          0 0 0 0 0 0
          0 0 0 0 0 0
          0 0 0 0 0 0
          0 0 0 0 0 0
          0 0 0 0 0 0
          0 0 0 0 0 0
          0 0 0 0 0 0
          0 0 0 0 0 0
          0 0 0 0 0 0
          0 0 0 0 0 0
          0 0 0 0 0 0
          0 0 0 0 0 0
          0 0 0 0 0 0
          0 0 0 0 0 0
          0 0 0 0 0 0
          0 0 0 0 0 0
          0 0 0 0 0 0
          0 0 0 0 0 0
          0 0 0 0 0 0
          0 0 0 0 0 0
          0 0 0 0 0 0
          0 0 0 0 0 0
          0 0 0 0 0 0
          0 0 0 0 0 0
          0 0 0 0 0 0
          0 0 0 0 0 0
          0 0 0 0 0 0
          0 0 0 0 0 0
          0 0 0 0 0 0
          0 0 0 0 0 0
          0 0 0 0 0 0
          0 0 0 0 0 0
          0 0 0 0 0 0
          0 0 0 0 0 0
          0 0 0 0 0 0
          0 0 0 0 0 0
          0 0 0 0 0 0
          0 0 0 0 0 0
          0 0 0 0 0 0
          0
        </DataArray>
        <DataArray type="Float64" Name="markers_mustrefine" format="ascii" RangeMin="0" RangeMax="2">
          2 0 0 0 0 0
          2 2 0 2 0.75 0
          0 0 2 2 2 0.5
          0 0 0 0 0 0
          0 1.5 1 0.5 2 0
          0 1 0.5 0 0 0
          0 0 0 2 2 1.75
          1.75 0 0 0 1 0
          0 0 0 0 0 0
          0.25 0 0 2 2 2
          2 2 2 2 2 2
          2 2 2 2 2 2
          2 2 2 2 0 2
          1.25 0.25 0 0 1.5 0.5
          0 0 0 0 0 0
          0 0 0 0 0 0
          1 0.75 0 1 0.5 0
          0.5 0 2 1.75 1.6666666666666667 1.5
          0 0.25 0 0 0 0
          0 1.25 1.3333333333333333 1 2 2
          2 2 2 2 2 2
          2 2 2 2 1.75 1.5
          2 2 2 2 2 2
          2 1.5 2 1.75 2 2
          1.5 2 2 2 2 1
          0.5 1.5 1.25 0 1 1
          0 1 1 2 2 2
          2 1.5 1.75 0.5 1.25 0.5
          1.25 1 2 2 2 0
          0.75 0 0.5 0 0.5 0
          1.75 1.6666666666666667 1.6666666666666667 0.5 1.25 0
          0.75 1 0.5 2 1.75 2
          0 0.5 0 0.5 0 0
          0 1.5 1.3333333333333333 0.6666666666666666 2 2
          2 2 2 2 2 2
          2 2 2 2 2 2
          2 2 2 2 2 2
          2 2 2 2 2 2
          2 2 2 2 2 2
          2 2 2 2 2 2
          2 2 2 2 2 2
          2 2 2 2 2 2
          2 2 2 2 2 2
          2 2 2 2 2 2
          2 2 2 2 2 2
          2 1.75 2 2 2 2
          2 2 2 2 2 2
          2 2 2 2 2 2
          2 2 2 2 2 2
          2 2 2 2 2 2
          2 2 2 2 2 2
          2 2 2 2 2 2
          1.75 2 2 2 1 1
          0.5 0.75 0 0 0 1.25
          1 0.5 2 2 2 2
          2 2 2 1.75 1.25 1.5
          0.5 2 1.5 2 2 1.75
          1.25 1 2 2 1.75 1
          1.25 0.5 0.75 0 0.5 0
          1.75 1.25 1.5 0 0.25 0
          0 0 0 0 0.75 0.5
          0 2 2 2 2 2
          2 2 2 1.5 2 1
          2 1.5 2 1 1 0
          0 1 1 0 2 2
          2 2 1.5 2 2 2
          2 2 2 2 1.75 2
          2
        </DataArray>
        <DataArray type="Float64" Name="gradient_marker" format="ascii" RangeMin="1" RangeMax="1">
          1 1 1 1 1 1
          1 1 1 1 1 1
          1 1 1 1 1 1
          1 1 1 1 1 1
          1 1 1 1 1 1
          1 1 1 1 1 1
          1 1 1 1 1 1
          1 1 1 1 1 1
          1 1 1 1 1 1
          1 1 1 1 1 1
          1 1 1 1 1 1
          1 1 1 1 1 1
          1 1 1 1 1 1
          1 1 1 1 1 1
          1 1 1 1 1 1
          1 1 1 1 1 1
          1 1 1 1 1 1
          1 1 1 1 1 1
          1 1 1 1 1 1
          1 1 1 1 1 1
          1 1 1 1 1 1
          1 1 1 1 1 1
          1 1 1 1 1 1
          1 1 1 1 1 1
          1 1 1 1 1 1
          1 1 1 1 1 1
          1 1 1 1 1 1
          1 1 1 1 1 1
          1 1 1 1 1 1
          1 1 1 1 1 1
          1 1 1 1 1 1
          1 1 1 1 1 1
          1 1 1 1 1 1
          1 1 1 1 1 1
          1 1 1 1 1 1
          1 1 1 1 1 1
          1 1 1 1 1 1
          1 1 1 1 1 1
          1 1 1 1 1 1
          1 1 1 1 1 1
          1 1 1 1 1 1
          1 1 1 1 1 1
          1 1 1 1 1 1
          1 1 1 1 1 1
          1 1 1 1 1 1
          1 1 1 1 1 1
          1 1 1 1 1 1
          1 1 1 1 1 1
          1 1 1 1 1 1
          1 1 1 1 1 1
          1 1 1 1 1 1
          1 1 1 1 1 1
          1 1 1 1 1 1
          1 1 1 1 1 1
          1 1 1 1 1 1
          1 1 1 1 1 1
          1 1 1 1 1 1
          1 1 1 1 1 1
          1 1 1 1 1 1
          1 1 1 1 1 1
          1 1 1 1 1 1
          1 1 1 1 1 1
          1 1 1 1 1 1
          1 1 1 1 1 1
          1 1 1 1 1 1
          1 1 1 1 1 1
          1 1 1 1 1 1
          1
        </DataArray>
        <DataArray type="Float64" Name="gradient_matprop_marker" format="ascii" RangeMin="0" RangeMax="0">
          0 0 0 0 0 0
          0 0 0 0 0 0
          0 0 0 0 0 0
          0 0 0 0 0 0
          0 0 0 0 0 0
          0 0 0 0 0 0
          0 0 0 0 0 0
          0 0 0 0 0 0
          0 0 0 0 0 0
          0 0 0 0 0 0
          0 0 0 0 0 0
          0 0 0 0 0 0
          0 0 0 0 0 0
          0 0 0 0 0 0
          0 0 0 0 0 0
          0 0 0 0 0 0
          0 0 0 0 0 0
          0 0 0 0 0 0
          0 0 0 0 0 0
          0 0 0 0 0 0
          0 0 0 0 0 0
          0 0 0 0 0 0
          0 0 0 0 0 0
          0 0 0 0 0 0
          0 0 0 0 0 0
          0 0 0 0 0 0
          0 0 0 0 0 0
          0 0 0 0 0 0
          0 0 0 0 0 0
          0 0 0 0 0 0
          0 0 0 0 0 0
          0 0 0 0 0 0
          0 0 0 0 0 0
          0 0 0 0 0 0
          0 0 0 0 0 0
          0 0 0 0 0 0
          0 0 0 0 0 0
          0 0 0 0 0 0
          0 0 0 0 0 0
          0 0 0 0 0 0
          0 0 0 0 0 0
          0 0 0 0 0 0
          0 0 0 0 0 0
          0 0 0 0 0 0
          0 0 0 0 0 0
          0 0 0 0 0 0
          0 0 0 0 0 0
          0 0 0 0 0 0
          0 0 0 0 0 0
          0 0 0 0 0 0
          0 0 0 0 0 0
          0 0 0 0 0 0
          0 0 0 0 0 0
          0 0 0 0 0 0
          0 0 0 0 0 0
          0 0 0 0 0 0
          0 0 0 0 0 0
          0 0 0 0 0 0
          0 0 0 0 0 0
          0 0 0 0 0 0
          0 0 0 0 0 0
          0 0 0 0 0 0
          0 0 0 0 0 0
          0 0 0 0 0 0
          0 0 0 0 0 0
          0 0 0 0 0 0
          0 0 0 0 0 0
          0
        </DataArray>
        <DataArray type="Float64" Name="combo" format="ascii" RangeMin="1" RangeMax="1">
          1 1 1 1 1 1
          1 1 1 1 1 1
          1 1 1 1 1 1
          1 1 1 1 1 1
          1 1 1 1 1 1
          1 1 1 1 1 1
          1 1 1 1 1 1
          1 1 1 1 1 1
          1 1 1 1 1 1
          1 1 1 1 1 1
          1 1 1 1 1 1
          1 1 1 1 1 1
          1 1 1 1 1 1
          1 1 1 1 1 1
          1 1 1 1 1 1
          1 1 1 1 1 1
          1 1 1 1 1 1
          1 1 1 1 1 1
          1 1 1 1 1 1
          1 1 1 1 1 1
          1 1 1 1 1 1
          1 1 1 1 1 1
          1 1 1 1 1 1
          1 1 1 1 1 1
          1 1 1 1 1 1
          1 1 1 1 1 1
          1 1 1 1 1 1
          1 1 1 1 1 1
          1 1 1 1 1 1
          1 1 1 1 1 1
          1 1 1 1 1 1
          1 1 1 1 1 1
          1 1 1 1 1 1
          1 1 1 1 1 1
          1 1 1 1 1 1
          1 1 1 1 1 1
          1 1 1 1 1 1
          1 1 1 1 1 1
          1 1 1 1 1 1
          1 1 1 1 1 1
          1 1 1 1 1 1
          1 1 1 1 1 1
          1 1 1 1 1 1
          1 1 1 1 1 1
          1 1 1 1 1 1
          1 1 1 1 1 1
          1 1 1 1 1 1
          1 1 1 1 1 1
          1 1 1 1 1 1
          1 1 1 1 1 1
          1 1 1 1 1 1
          1 1 1 1 1 1
          1 1 1 1 1 1
          1 1 1 1 1 1
          1 1 1 1 1 1
          1 1 1 1 1 1
          1 1 1 1 1 1
          1 1 1 1 1 1
          1 1 1 1 1 1
          1 1 1 1 1 1
          1 1 1 1 1 1
          1 1 1 1 1 1
          1 1 1 1 1 1
          1 1 1 1 1 1
          1 1 1 1 1 1
          1 1 1 1 1 1
          1 1 1 1 1 1
          1
        </DataArray>
        <DataArray type="Float64" Name="dHdT" format="ascii" RangeMin="25.811703422770485" RangeMax="26.736821760123227">
          25.82734040181706 25.811945429647825 25.81175332079505 25.812208527767993 25.81348987055888 25.81321916027378
          25.855198755641982 25.82844940090186 25.811847928457937 25.81440067933542 25.81273901989552 25.812540318061693
          25.814072377644592 25.811954792037564 26.09360983700227 25.889153759077466 25.8162748409244 25.8164669282053
          25.812098752963546 25.812167219558525 25.81171725944084 25.811703422770485 25.81213603195185 25.811708074238513
          25.81379861503164 25.819487372707684 25.818236110202765 25.815825222315798 25.845553603775834 25.813148242999873
          25.81298169578903 25.814097795905184 25.813730602375102 25.812045563023002 25.81229980614041 25.81220528088756
          25.81262510363222 25.81299353183817 25.812075567151336 25.823434173947327 25.820881726776104 25.813754916158928
          25.816199101044482 25.813476498605176 25.814173419820072 25.813599200512368 25.817724887651586 25.812303097537303
          25.812529949627027 25.81182630301331 25.811955003352026 25.812171136388358 25.812426125179122 25.81186040951011
          25.81338932177523 25.81219525321979 25.812657478426686 26.365963003137676 26.216829281072933 25.979616831637372
          25.93406809936942 25.862207993868658 26.736821760123227 26.475690173620325 26.012778159470905 25.85496459877441
          25.84349725472085 25.821306064359597 25.81881651243343 25.8251511082326 25.814761127317816 25.883380831111793
          25.863160013003665 25.823028375963947 25.832022652504225 25.825915257959572 25.8155699410404 25.831392559809363
          25.81541412921345 25.812669607343206 25.812900281274374 25.81227570396608 25.816767210920403 25.81299478551513
          25.81314700948066 25.81330272773344 25.813662116998547 25.8139568479561 25.812272488316623 25.812350668832334
          25.81196431333855 25.81198540310622 25.812428849348045 25.812006492873888 25.815750024134907 25.81562413857612
          25.81811398209291 25.817878715641818 25.8145911543114 25.81635050209419 25.816181418310453 25.815311345994736
          25.817267942044637 25.815748490385467 25.826313306343884 25.825661184444378 25.82091714436945 25.823924417710984
          25.815008015524484 25.81655479522845 25.814154448075342 25.815252015751486 25.814891592076826 25.81621715555835
          25.815019385258765 25.821646322299024 25.818262983620205 25.820312461881738 25.84618722401087 25.844360414503733
          25.830706314188923 25.82970838055939 25.839516921908526 25.827065958320883 25.891456679743886 25.88650064688352
          25.852524876050854 25.87359829537836 25.833171971277665 25.82360245901926 25.82691784778055 25.820190996692933
          25.857314269516607 25.836729423196616 25.8420853387916 25.81791779838799 25.817628173140232 25.821928605081418
          25.821396513315307 25.814892366594727 25.817049874499475 25.816772819941328 25.81686537389772 25.81998928482068
          25.81603952165835 25.834672861263645 25.833276997745326 25.822726750264025 25.82963375071414 25.813408523071075
          25.813328495954224 25.814379412644474 25.814238604821096 25.81246425273606 25.812951705433402 25.812891120194955
          25.813115553284856 25.813865723536875 25.81287069759416 25.8174728779476 25.81712186838011 25.814237955171922
          25.816207468634477 25.815840013678837 25.81813227431191 25.81393221719954 25.815079357243185 25.814802882140675
          25.816297693460765 25.81448353192823 25.824997208536296 25.81852971327464 25.82062558256471 25.812847164627843