<?xml version="1.0"?>
<VTKFile type="UnstructuredGrid" version="0.1" byte_order="LittleEndian" header_type="UInt32" compressor="vtkZLibDataCompressor">
  <UnstructuredGrid>
    <Piece NumberOfPoints="494" NumberOfCells="245">
      <PointData>
        <DataArray type="Int32" Name="libmesh_node_id" format="ascii" RangeMin="287" RangeMax="1965">
          287 288 289 290 326 327
          329 345 346 351 352 355
          356 358 359 360 361 362
          364 365 366 368 369 370
          371 372 373 374 377 378
          379 380 381 383 384 385
          391 392 397 412 413 414
          415 416 417 418 419 420
          421 422 423 424 425 426
          427 428 429 430 431 432
          433 434 435 436 437 438
          439 440 441 442 443 444
          445 446 447 448 452 453
          458 517 518 520 522 523
          524 525 526 527 528 530
          534 536 538 543 544 549
          550 553 554 555 556 557
          559 560 561 562 563 564
          566 571 572 573 576 587
          588 589 590 591 592 593
          594 595 596 597 598 599
          600 601 602 603 604 605
          606 607 608 609 610 611
          612 613 614 615 616 617
          618 619 620 621 622 623
          624 625 626 627 628 629
          630 631 632 633 634 635
          636 637 638 639 640 641
          642 643 644 645 646 647
          648 649 650 651 652 655
          656 657 658 659 661 676
          677 678 679 680 681 682
          683 684 685 686 687 688
          689 804 805 808 809 811
          813 816 817 819 820 822
          823 826 827 832 846 849
          851 853 864 865 866 867
          868 869 870 871 872 873
          874 875 876 877 878 879
          880 881 882 883 884 885
          886 887 888 889 890 891
          892 893 894 895 896 897
          898 899 900 901 902 903
          904 905 906 909 910 912
          913 914 915 916 917 918
          919 922 925 958 959 960
          961 962 963 964 965 966
          967 968 969 970 971 972
          973 974 975 976 977 978
          979 980 981 982 983 984
          985 986 987 988 989 990
          991 992 993 994 995 996
          997 998 999 1000 1001 1002
          1003 1004 1005 1006 1007 1008
          1009 1010 1011 1012 1013 1014
          1015 1016 1017 1018 1019 1020
          1021 1022 1023 1024 1025 1026
          1027 1028 1029 1030 1031 1112
          1113 1114 1115 1116 1117 1118
          1119 1120 1121 1122 1123 1124
          1125 1126 1127 1128 1129 1130
          1131 1132 1133 1134 1135 1136
          1137 1138 1139 1140 1141 1142
          1143 1144 1145 1149 1150 1152
          1153 1155 1156 1157 1158 1159
          1160 1161 1162 1163 1164 1165
          1166 1167 1170 1171 1173 1175
          1176 1177 1178 1179 1180 1181
          1182 1183 1184 1185 1186 1187
          1190 1192 1193 1195 1196 1197
          1198 1199 1200 1201 1202 1203
          1205 1207 1209 1726 1727 1728
          1729 1730 1731 1732 1733 1734
          1735 1922 1923 1924 1925 1926
          1927 1928 1929 1930 1931 1932
          1933 1934 1935 1936 1937 1938
          1939 1940 1941 1942 1943 1944
          1956 1957 1958 1959 1960 1961
          1962 1963 1964 1965 376 387
          558 565 466 567 454 467
          568 569 570 574 575 907
          908 911 920 921 923 924
          926 927
        </DataArray>
        <DataArray type="Float64" Name="bounds" format="ascii" RangeMin="0" RangeMax="0">
          0 0 0 0 0 0
          0 0 0 0 0 0
          0 0 0 0 0 0
          0 0 0 0 0 0
          0 0 0 0 0 0
          0 0 0 0 0 0
          0 0 0 0 0 0
          0 0 0 0 0 0
          0 0 0 0 0 0
          0 0 0 0 0 0
          0 0 0 0 0 0
          0 0 0 0 0 0
          0 0 0 0 0 0
          0 0 0 0 0 0
          0 0 0 0 0 0
          0 0 0 0 0 0
          0 0 0 0 0 0
          0 0 0 0 0 0
          0 0 0 0 0 0
          0 0 0 0 0 0
          0 0 0 0 0 0
          0 0 0 0 0 0
          0 0 0 0 0 0
          0 0 0 0 0 0
          0 0 0 0 0 0
          0 0 0 0 0 0
          0 0 0 0 0 0
          0 0 0 0 0 0
          0 0 0 0 0 0
          0 0 0 0 0 0
          0 0 0 0 0 0
          0 0 0 0 0 0
          0 0 0 0 0 0
          0 0 0 0 0 0
          0 0 0 0 0 0
          0 0 0 0 0 0
          0 0 0 0 0 0
          0 0 0 0 0 0
          0 0 0 0 0 0
          0 0 0 0 0 0
          0 0 0 0 0 0
          0 0 0 0 0 0
          0 0 0 0 0 0
          0 0 0 0 0 0
          0 0 0 0 0 0
          0 0 0 0 0 0
          0 0 0 0 0 0
          0 0 0 0 0 0
          0 0 0 0 0 0
          0 0 0 0 0 0
          0 0 0 0 0 0
          0 0 0 0 0 0
          0 0 0 0 0 0
          0 0 0 0 0 0
          0 0 0 0 0 0
          0 0 0 0 0 0
          0 0 0 0 0 0
          0 0 0 0 0 0
          0 0 0 0 0 0
          0 0 0 0 0 0
          0 0 0 0 0 0
          0 0 0 0 0 0
          0 0 0 0 0 0
          0 0 0 0 0 0
          0 0 0 0 0 0
          0 0 0 0 0 0
          0 0 0 0 0 0
          0 0 0 0 0 0
          0 0 0 0 0 0
          0 0 0 0 0 0
          0 0 0 0 0 0
          0 0 0 0 0 0
          0 0 0 0 0 0
          0 0 0 0 0 0
          0 0 0 0 0 0
          0 0 0 0 0 0
          0 0 0 0 0 0
          0 0 0 0 0 0
          0 0 0 0 0 0
          0 0 0 0 0 0
          0 0 0 0 0 0
          0 0 0 0 0 0
          0 0
        </DataArray>
        <DataArray type="Float64" Name="gradient_error" format="ascii" RangeMin="9.692291588691606e-11" RangeMax="0.0000010354465481037505">
          2.3069374935429762e-8 2.5384399085270915e-8 1.6016460637144822e-9 3.2998380913055466e-9 1.57594437691157e-7 3.397857141752853e-8
          1.2499129047139693e-9 1.0403493063781098e-8 5.367038888256811e-10 2.5815171137958165e-7 1.7050275171108302e-7 7.512328020488788e-7
          4.801277062707374e-7 3.340276982107664e-8 1.0823703475956214e-7 2.0076631903955734e-7 6.4349731851176e-8 2.3330872445557947e-7
          3.676896266034655e-8 6.111128655123266e-7 9.37777485668024e-7 1.7987764206610887e-7 3.9541772020763484e-7 4.5738161409742786e-9
          1.0092084018575493e-8 5.9491909856440295e-8 8.158044756289264e-8 3.3254391177636224e-9 1.1710922264526847e-8 9.446046608070403e-9
          2.9431178526784346e-9 1.6843588620926666e-7 1.1580560509758873e-7 4.296358800222051e-9 2.7937353378733933e-10 6.990201929484888e-10
          8.011551708624285e-10 5.968267775411675e-10 1.7926921480748256e-10 3.6025976551275724e-7 3.5363525506345645e-7 6.027547809713089e-7
          8.378728345054717e-7 4.195832464768073e-7 5.322030653702914e-7 8.718802971513112e-7 2.099420626753868e-7 2.3257416296210426e-7
          2.9769120091741474e-7 2.73654734225364e-7 4.100567242113725e-7 6.632998668917396e-7 2.543406712163078e-7 1.2142862691069133e-7
          4.505176887459063e-7 8.897943093677518e-7 2.3908249924762644e-7 4.497196550397005e-7 8.730553423624377e-8 1.7773180291598152e-7
          2.8080101412293153e-7 3.0169473211024685e-7 9.684255425541541e-8 2.3789991438282042e-7 2.185278615614445e-7 2.0188720666370735e-7
          2.1608392136407538e-7 1.2688586404919575e-7 2.196116930955424e-7 2.938233532171739e-7 2.64463483136552e-7 1.5368672717235086e-7
          3.347742137996091e-8 2.2052056102905612e-8 1.522495294622642e-7 1.2135554964340082e-7 1.2420872352477754e-8 4.3027197203219e-8
          7.469403545137302e-8 2.1860400664538587e-9 1.7043442218298007e-8 6.767069685423163e-10 1.0173744124603333e-9 5.724325035528052e-9
          3.7790267467268896e-10 2.713343462103649e-9 2.998570376113099e-8 7.506138495922543e-10 1.569780153583617e-9 1.4095990053523266e-10
          9.692291588691606e-11 1.3292701480547593e-10 1.1499195179353688e-10 9.930867561531286e-7 9.299009634758404e-7 9.929360933059002e-7
          0.0000010354465481037505 1.1303397407549472e-8 2.043269760162189e-8 2.2422913021777555e-8 4.0250212333305646e-8 4.663514254994296e-9
          2.0264134654487784e-9 2.4689237847726387e-9 4.107729002185442e-9 1.4287196736265343e-9 3.3542428636005635e-8 6.00677270649894e-8
          2.9114341040964993e-9 7.207244079834424e-10 7.003626665366389e-10 2.182914923035853e-10 6.800009250898352e-10 1.8895371290918232e-7
          1.8325316921722262e-7 1.6389179278605246e-7 1.5714045648190902e-7 1.5940122665094727e-7 1.7025454945990468e-7 1.5983268432911051e-7
          1.9441713174447522e-7 1.692059103478005e-7 1.8972251701249403e-7 1.7755262552526288e-7 1.8110787226886212e-7 1.62524912176312e-7
          1.981070058708107e-7 1.2984874039271224e-7 1.572559297025868e-7 1.5577357587216854e-7 1.659512899551046e-7 1.8466311901246136e-7
          2.1065817283526196e-7 2.0104939538267166e-7 1.858095483700186e-7 2.0820187808181442e-7 2.216378957024065e-7 2.0773856165692064e-7
          2.3114105846226062e-7 1.829630859198702e-7 2.0823810946689746e-7 2.2988092592159094e-7 1.3648157902113032e-7 1.820612743544081e-7
          2.0378544697988472e-7 2.1669848503430376e-7 2.554626166106693e-7 2.415119612992861e-7 2.3718157840919465e-7 2.6099962900963225e-7
          2.625345384788312e-7 2.750536685903521e-7 2.9753757615059277e-7 2.1560618815747557e-7 2.518868101519978e-7 2.758941643843069e-7
          1.837855665825038e-7 2.3328110029667064e-7 2.715614297469437e-7 2.64496281451034e-7 3.0905047304209637e-7 2.853860009028477e-7
          3.232513448642133e-7 3.4242801096042505e-7 2.1409734190405662e-7 2.0245359611199166e-7 2.1109843396474505e-7 2.430958995120641e-7
          3.0277809026706644e-7 2.3626427430653947e-7 2.6796521706437964e-7 3.207979686275014e-7 2.0115855590102763e-7 3.278445430683107e-7
          1.5305204098738652e-7 1.3148222473808686e-7 6.631450740654722e-8 6.649934406034457e-8 1.2877992915444452e-7 1.2793080493697142e-7
          1.5936471194131262e-7 1.622680690800253e-7 3.460342086276722e-9 6.367154515817894e-8 1.8911257367885714e-7 1.0289189742700709e-7
          1.221996012821405e-7 1.7613847844232905e-7 1.7896070669679845e-7 9.196142414175958e-8 1.6785584501143752e-7 5.7365490001205905e-8
          8.881087375959576e-8 1.0270663600920537e-7 7.249560899629299e-8 2.0756979652755075e-7 2.0758434501612853e-7 2.0174535599737894e-7
          1.0258433822359705e-7 5.384584312273444e-8 3.3022888822384614e-8 2.096723649981452e-8 1.3777763846353592e-8 1.2199934522034775e-8
          6.588291192892667e-9 2.759287718723513e-9 2.7367510248205262e-9 9.536097232896112e-10 9.661782010012553e-10 2.7142143309175384e-9
          9.787466787128996e-10 2.039458185586902e-10 2.2247883441331594e-10 2.4101185026794174e-10 4.0807564835557197e-8 1.3051902980197927e-8
          7.385538386282668e-8 2.4238420848011052e-8 3.99406002435209e-8 3.273458508991433e-8 5.054778753039585e-8 9.12044461138726e-8
          7.961829581015584e-8 6.212625471025901e-8 7.262842165546808e-8 1.0525609123334615e-8 6.144085302334606e-8 4.45120623278604e-8
          2.5528569936307773e-8 4.463421361036218e-8 5.4052397197063556e-8 2.758327163237473e-8 7.723597544861372e-8 8.977588457115825e-8
          1.1389437864569796e-7 1.2827450813294745e-7 5.4186312585589915e-8 8.705649249800417e-8 3.8120723502422756e-8 5.557446386192911e-8
          8.541453305836318e-8 1.6110311082380016e-8 1.505527818427822e-7 1.6677313169473661e-7 1.1992667241041845e-7 7.302820422143547e-8
          5.953204857547653e-9 5.646027389696228e-9 4.5373177007865024e-8 2.979382814307732e-8 4.09291953939185e-9 2.701044339536287e-8
          1.657240801624757e-8 5.3388499218448035e-9 1.4214479278289612e-8 6.1343726371322735e-9 2.4826401211354453e-9 2.39358839770978e-9
          1.3369720010237273e-8 8.714847949832553e-9 1.6407128770699673e-9 2.3045366742841155e-9 4.059975889427833e-9 3.486798421044359e-8
          6.260693640432914e-8 6.009109756467496e-9 5.755996472648559e-9 9.034588859821471e-8 5.502883188829622e-9 9.893322048694262e-10
          9.560903038881702e-10 2.485486683128704e-10 9.228484029069141e-10 1.1957268998791863e-7 1.1177153487531324e-7 1.1988569385202704e-7
          1.514369394249841e-7 1.5287575896976783e-7 1.3976392191571793e-7 1.3807480047284292e-7 1.0001298654792748e-7 1.5581694481016187e-7
          1.4239605400405198e-7 1.0397037976270786e-7 1.2665208486166806e-7 1.2471266152070173e-7 1.2897516319794205e-7 1.4228508440148218e-7
          1.382065377554478e-7 1.593481136780662e-7 1.5576345840836846e-7 1.4824594605138867e-7 1.657429005043437e-7 1.185621469035165e-7
          1.3281421621594767e-7 1.3768414655868001e-7 1.262675044331061e-7 1.7641114295465022e-7 1.733203790612891e-7 1.8323985495729873e-7
          1.470662855283788e-7 9.698488337388953e-8 9.357704321705581e-8 1.5866626317967133e-7 1.4394140404651705e-7 8.700861024667322e-8
          1.604621517375032e-7 1.4428198232504692e-7 9.01692030602221e-8 1.2921654491336277e-7 1.2810181291259065e-7 8.072872667192786e-8
          7.849808972158272e-8 1.601461000460368e-7 1.426060191169647e-7 6.72391504277946e-8 1.5723686135685622e-7 1.3876529855296334e-7
          7.626745277123758e-8 1.2506593818789264e-7 1.0177651121732552e-7 1.513500819071787e-7 1.7111834671505298e-7 1.5298671508593582e-7
          1.7557338263624408e-7 1.1100421131773641e-7 1.2328075273618027e-7 1.19379920214708e-7 1.9088661152292733e-7 1.9816005018655238e-7
          1.3555729415462407e-7 1.527190538768267e-7 1.783657970949222e-7 9.959346674465949e-8 1.1278009071234824e-7 2.0401254031301768e-7
          1.2596671468003701e-7 5.662776494491643e-8 5.3034400726962585e-8 1.5095136759109426e-7 1.3178745180405448e-7 3.894832976126132e-8
          1.3953817335120335e-7 1.1996839621203886e-7 4.269349521334655e-8 8.591318105967749e-8 7.40173113425026e-8 5.450151945431816e-8
          5.8712243293444147e-8 5.661968696688811e-8 5.327340033372701e-8 5.4200129444128e-8 4.406787061907185e-8 4.813530530843987e-8
          4.4250940589757805e-8 5.349781093854618e-8 4.52412549853746e-8 4.713043781523779e-8 5.3718965739276915e-8 4.459847122167762e-8
          5.703598917609801e-8 5.5653667518743166e-8 5.927909647291156e-8 5.807665250248154e-8 5.580642954097713e-8 6.071611180484281e-8
          5.9002720234753764e-8 5.867328387885771e-8 6.52454880748362e-8 6.378661535024822e-8 5.06808830175116e-8 5.5072493052139504e-8
          5.8746940986700776e-8 5.873849587002169e-8 5.886872195999027e-8 6.709577693207287e-8 5.9200525566700974e-8 6.440517636742752e-8
          6.189518947771039e-8 7.043976272441123e-8 6.867051215445461e-8 5.4527578349746285e-8 6.251717866778141e-8 7.313930012835803e-8
          7.392845949109563e-8 7.277134988336627e-8 4.376197187887406e-8 4.851477680578731e-8 4.370550584354439e-8 4.981962665419639e-8
          3.969838430219763e-8 4.4173896171960356e-8 4.447311396065149e-8 5.57632525396621e-8 6.019249121032673e-8 5.212440199588112e-8
          4.440376050670087e-8 5.176833023714357e-8 3.913756690190242e-8 4.540356472322232e-8 6.456628725010382e-8 5.83074935873083e-8
          3.8802143620311994e-8 4.663877050683396e-8 3.456793229686574e-8 4.9186877237311645e-8 5.802846230836689e-8 6.580014895024696e-8
          2.336877922534773e-8 3.776715665877597e-8 3.2846457188493926e-8 5.711997657009923e-8 3.775763406431747e-8 4.6791140976902914e-8
          6.523396833269531e-8 2.021928328342901e-9 2.0445969101716497e-8 5.5503150458491436e-8 5.986913429231852e-8 6.553399082262741e-8
          5.8210989116487436e-8 6.316546031864056e-8 6.147934523801342e-8 6.661674668944977e-8 6.082258228293569e-8 7.150099952009948e-8
          6.799617685253636e-8 7.300232450757763e-8 7.104692907499833e-8 2.6635693724131004e-8 3.3971653771735126e-8 4.3856164110518905e-8
          4.994816043160993e-8 1.6902106674491726e-8 3.3429310466257386e-8 1.7325433530577647e-8 2.8509502118697488e-8 3.515425870938424e-8
          1.9222617320383945e-8 5.478633708870448e-9 5.880116748059944e-9 5.855453188959805e-9 6.276759796686436e-9 5.8307896298596635e-9
          5.473041836889928e-9 5.449638654210161e-9 5.4262354715303945e-9 5.420643599549875e-9 5.279517306814491e-9 5.5282504168399906e-9
          4.81452813954262e-9 5.481821648242323e-9 5.77698352686549e-9 6.149115156942026e-9 4.678917865569036e-9 5.2010476447201765e-9
          4.686883499798211e-9 5.723177423871317e-9 6.047516255906929e-9 6.276700433328392e-9 6.099858038335233e-9 6.505884610749856e-9
          4.317495883355532e-9 5.2137586088872454e-9 3.866472640828361e-9 4.846651868789812e-9 6.11002133441896e-9 6.688235442941791e-9
          2.5874755108041344e-9 4.150816784446099e-9 3.5934456992443925e-9 5.714158058088064e-9 1.99579461378132e-8 1.0698158194672877e-9
          1.0046289434037183e-8 1.5429064613080068e-8 1.974293958631033e-8 1.2092413840506747e-9 3.3313434579230816e-8 2.0074256683177776e-8
          3.4853232334331253e-9 6.539539228149531e-10 1.2090955529360798e-9 5.761405082815576e-9 1.7642371830572061e-9 7.094512888915717e-9
          5.5168358735369426e-9 3.939158858158168e-9 3.5311901715337746e-9 2.906045408195274e-9 8.590306314900352e-10 7.375445141990251e-10
          2.280900644856774e-9 6.160583969080149e-10
        </DataArray>
        <DataArray type="Float64" Name="gradient_matprop_error" format="ascii" RangeMin="0" RangeMax="0">
          0 0 0 0 0 0
          0 0 0 0 0 0
          0 0 0 0 0 0
          0 0 0 0 0 0
          0 0 0 0 0 0
          0 0 0 0 0 0
          0 0 0 0 0 0
          0 0 0 0 0 0
          0 0 0 0 0 0
          0 0 0 0 0 0
          0 0 0 0 0 0
          0 0 0 0 0 0
          0 0 0 0 0 0
          0 0 0 0 0 0
          0 0 0 0 0 0
          0 0 0 0 0 0
          0 0 0 0 0 0
          0 0 0 0 0 0
          0 0 0 0 0 0
          0 0 0 0 0 0
          0 0 0 0 0 0
          0 0 0 0 0 0
          0 0 0 0 0 0
          0 0 0 0 0 0
          0 0 0 0 0 0
          0 0 0 0 0 0
          0 0 0 0 0 0
          0 0 0 0 0 0
          0 0 0 0 0 0
          0 0 0 0 0 0
          0 0 0 0 0 0
          0 0 0 0 0 0
          0 0 0 0 0 0
          0 0 0 0 0 0
          0 0 0 0 0 0
          0 0 0 0 0 0
          0 0 0 0 0 0
          0 0 0 0 0 0
          0 0 0 0 0 0
          0 0 0 0 0 0
          0 0 0 0 0 0
          0 0 0 0 0 0
          0 0 0 0 0 0
          0 0 0 0 0 0
          0 0 0 0 0 0
          0 0 0 0 0 0
          0 0 0 0 0 0
          0 0 0 0 0 0
          0 0 0 0 0 0
          0 0 0 0 0 0
          0 0 0 0 0 0
          0 0 0 0 0 0
          0 0 0 0 0 0
          0 0 0 0 0 0
          0 0 0 0 0 0
          0 0 0 0 0 0
          0 0 0 0 0 0
          0 0 0 0 0 0
          0 0 0 0 0 0
          0 0 0 0 0 0
          0 0 0 0 0 0
          0 0 0 0 0 0
          0 0 0 0 0 0
          0 0 0 0 0 0
          0 0 0 0 0 0
          0 0 0 0 0 0
          0 0 0 0 0 0
          0 0 0 0 0 0
          0 0 0 0 0 0
          0 0 0 0 0 0
          0 0 0 0 0 0
          0 0 0 0 0 0
          0 0 0 0 0 0
          0 0 0 0 0 0
          0 0 0 0 0 0
          0 0 0 0 0 0
          0 0 0 0 0 0
          0 0 0 0 0 0
          0 0 0 0 0 0
          0 0 0 0 0 0
          0 0 0 0 0 0
          0 0 0 0 0 0
          0 0
        </DataArray>
        <DataArray type="Float64" Name="initial_marker" format="ascii" RangeMin="0" RangeMax="2">
          0 0 0 0 2 0
          0 0 0 0 0 0
          0 0 0 0 0 0
          0 0 0 0 0 0
          0 0 0 0 0 0
          0 2 0 0 0 0
          0 0 0 0 0 0
          0 0 0 0 0 1
          0 0 0 0 0 2
          0 0 1 0 0 0
          1 0.5 0 1 0.25 0
          0 0 2 1 1 0
          0 0 1 0 0 0
          0 0 0 0 0 0
          0 0 0 0 0 0
          0 0 0 0 0 0
          0 0 0 0 0 0
          0 0 0 0 0 0
          0 0 0 0 0 0
          0 0 0 0.5 0.25 0
          0 1 0.5 0 0 0
          0 1 0.5 0 1 0
          0.5 0.25 1.5 1 0.5 2
          1.5 0 0.25 0.5 2 1.5
          2 0.5 1 0.75 2 1.75
          1 2 2 0.3333333333333333 0.75 1
          2 2 2 1 1 1
          2 2 0.75 2 2 0.6666666666666666
          1 1 2 2 2 1
          1 0.75 2 2 1 0
          1.25 1.5 2 2 1.5 0
          0 0.25 0 0 0.5 0
          0 0 0 0.5 0 1
          0 0 0 0 0 0
          0 0 0 0 0 0
          0 0 0 0 0 0
          0 0 0 0 0 0
          0 0 0 0 0 0
          0 0 0 0 0 0
          0 0 0 0 0 0
          0 0 0 0 0 0
          0 0 0 0 0 0
          0 0 0 0 0 0
          0 0 0 0 0 0
          0 0 0 0 0 0
          0 0 0 0 0 0
          0 0 0 0 0 0
          0 0 0 0 0 0
          0 0 0 0 0 0
          0 0 0 0 0 0
          0 0 0 0 0 0
          0 0 0 0 0 0
          0 0 0 0 0 0
          0 0 0 0 0 0
          0 0 0 0 0 0
          0 0 0 0 0 0
          0 0 0 0 0 0
          0 0 0 0 0 2
          2 2 1.5 2 0 1
          1 2 2 2 2 2
          2 2 2 2 2 2
          2 2 2 2 1 1.5
          1.75 2 2 2 2 2
          2 2 2 2 2 2
          2 2 0 1 0.5 1.25
          0 1 1 2 2 2
          1 1.5 0 1 2 2
          2 2 2 2 2 2
          2 2 2 2 2 2
          2 2 2 2 2 2
          2 2 2 2 2 2
          2 2 2 0 0 0
          0 0 0 0 0 0
          0 2 2 2 2 2
          2 2 2 2 2 2
          2 2 2 2 2 2
          2 2 2 2 2 2
          2 2 2 2 2 2
          2 2 2 2 0 0
          0 0 0 0 0 0
          0 0 0 0 0 0
          0 0 0 0 0 0
          0 0
        </DataArray>
        <DataArray type="Float64" Name="markers_norefine" format="ascii" RangeMin="0" RangeMax="2">
          0 0 0 0 0 0
          0 0 0 0 0 0
          0 0 0 0 0 0
          0 0 0 0 0 0
          0 0 0 0 0 0
          0 0 0 0 0 0
          0 0 0 0 0 0
          0 0 0 0 0 0
          0 0 0 0 0 0
          0 0 0 0 0 0
          0 0 0 0 0 0
          0 0 0 0 0 0
          0 0 0 0 0 0
          0 0 0 0 0 0
          0 0 0 0 0 0
          0 0 0 0 0 0
          0 0 0 0 0 0
          0 0 0 0 0 0
          0 0 0 0 0 0
          0 0 0 0 0 0
          0 0 0 0 0 0
          0 0 0 0 0 0
          0 0 0 0 0 0
          0 0 0 0 0 0
          0 0 0 0 0 0
          0 0 0 0 0 0
          0 0 0 0 0 0
          0 0 0 0 0 0
          0 0 0 0 0 0
          0 0 0 0 0 0
          0 0 2 0 0 0
          0 0 0 0 0 0
          0 0 0 0 0 0
          0 0 0 0 0 0
          0 0 0 0 0 0
          0 0 0 0 0 0
          0 0 0 0 0 0
          0 0 0 0 0 0
          0 0 0 0 0 0
          0 0 0 0 0 0
          0 0 0 0 0 0
          0 0 0 0 0 0
          0 0 0 0 0 0
          0 0 0 0 0 0
          0 0 0 0 0 0
          0 0 0 0 0 0
          0 0 0 0 0 0
          0 0 0 0 0 0
          0 0 0 0 0 0
          0 0 0 0 0 0
          0 0 0 0 0 0
          0 0 0 0 0 0
          0 0 0 0 0 0
          0 0 0 0 0 0
          0 0 0 0 0 0
          0 0 0 0 0 0
          0 0 0 0 0 0
          0 0 0 0 0 0
          0 0 0 0 0 0
          0 0 0 0 0 0
          0 0 0 0 0 0
          0 0 0 0 0 0
          0 0 0 0 0 0
          0 0 0 0 0 0
          0 0 0 0 0 0
          0 0 0 0 0 0
          0 0 0 0 0 0
          0 0 0 0 0 0
          0 0 0.5 0 1 0.25
          0 2 1 0 0 0
          0 0 0 0 0 0
          0 0 0 0 0 0
          0 0 0 0 0 0
          0 0 0 0 0 0
          0 0 0 0 0.5 0.25
          1 0.75 0 0.5 1 0.5
          1.5 0 1 0.5 1.5 0
          1.5 1.25 2 1.75 1 1
          2 2 2 2 0 0
          0 0 0 0 0 0
          0 0 0 0 0 0
          0 0 0 0 0 0
          0 0
        </DataArray>
        <DataArray type="Float64" Name="markers_mustrefine" format="ascii" RangeMin="0" RangeMax="2">
          0 0 0 0 2 0
          0 0 0 0 0 0
          0 0 0 0 0 0
          0 0 0 0 0 0
          0 0 0 0 0 0
          0 2 0 0 0 0
          0 0 0 0 0 0
          0 0 0 0 0 1
          0 0 0 0 0 2
          0 0 1 0 0 0
          1 0.5 0 1 0.25 0
          0 0 2 1 1 0
          0 0 1 0 0 0
          0 0 0 0 0 0
          0 0 0 0 0 0
          0 0 0 0 0 0
          0 0 0 0 0 0
          0 0 0 0 0 0
          0 0 0 0 0 0
          0 0 0 0.5 0.25 0
          0 1 0.5 0 0 0
          0 1 0.5 0 1 0
          0.5 0.25 1.5 1 0.5 2
          1.5 0 0.25 0.5 2 1.5
          2 0.5 1 0.75 2 1.75
          1 2 2 0.3333333333333333 0.75 1
          2 2 2 1 1 1
          2 2 0.75 2 2 0.6666666666666666
          1 1 2 2 2 1
          1 0.75 2 2 1 0
          1.25 1.5 2 2 1.5 0
          0 0.25 0 0 0.5 0
          0 0 0 0.5 0 1
          0 0 0 0 0 0
          0 0 0 0 0 0
          0 0 0 0 0 0
          0 0 0 0 0 0
          0 0 0 0 0 0
          0 0 0 0 0 0
          0 0 0 0 0 0
          0 0 0 0 0 0
          0 0 0 0 0 0
          0 0 0 0 0 0
          0 0 0 0 0 0
          0 0 0 0 0 0
          0 0 0 0 0 0
          0 0 0 0 0 0
          0 0 0 0 0 0
          0 0 0 0 0 0
          0 0 0 0 0 0
          0 0 0 0 0 0
          0 0 0 0 0 0
          0 0 0 0 0 0
          0 0 0 0 0 0
          0 0 0 0 0 0
          0 0 0 0 0 0
          0 0 0 0 0 0
          0 0 0 0 0 2
          2 2 1.5 2 0 1
          1 2 2 2 2 2
          2 2 2 2 2 2
          2 2 2 2 1 1.5
          1.75 2 2 2 2 2
          2 2 2 2 2 2
          2 2 0 1 0.5 1.25
          0 1 1 2 2 2
          1 1.5 0 1 2 2
          2 2 2 2 2 2
          2 2 2 2 2 2
          2 2 2 2 2 2
          2 2 2 2 2 2
          2 2 2 0 0 0
          0 0 0 0 0 0
          0 2 2 2 2 2
          2 2 2 2 2 2
          2 2 2 2 2 2
          2 2 2 2 2 2
          2 2 2 2 2 2
          2 2 2 2 0 0
          0 0 0 0 0 0
          0 0 0 0 0 0
          0 0 0 0 0 0
          0 0
        </DataArray>
        <DataArray type="Float64" Name="gradient_marker" format="ascii" RangeMin="0" RangeMax="1">
          1 1 1 1 1 1
          1 1 1 1 1 1
          1 1 1 1 1 1
          1 1 1 1 1 1
          1 1 0.875 1 1 1
          1 0.5 1 1 1 1
          1 1 1 1 1 1
          1 1 1 1 1 1
          1 1 1 1 1 1
          1 1 1 1 1 1
          1 1 0.75 0.75 0.875 1
          1 0.875 1 1 0.75 1
          0.5 0.5 1 0.75 0.6666666666666666 0.625
          1 1 1 1 1 1
          1 1 1 1 1 1
          1 1 1 1 1 1
          1 1 1 1 1 1
          1 1 1 1 1 1
          1 1 1 1 1 1
          1 1 1 1 1 1
          1 1 1 1 1 1
          1 1 1 1 1 1
          1 1 1 1 1 1
          1 1 1 1 1 1
          1 1 1 1 1 1
          1 1 1 1 1 1
          1 1 1 1 1 1
          1 1 0.75 0.75 0.5 1
          1 0.75 1 1 0.75 1
          1 0.5 1 1 0.75 0.75
          0.625 0.75 0 0.75 1 0.75
          0.8333333333333334 1 1 0.625 0.875 0.5
          1 1 0.75 1 1 1
          1 1 1 1 1 1
          1 1 1 1 1 1
          1 1 1 1 1 1
          1 1 1 1 1 1
          1 1 1 1 1 1
          1 1 1 1 1 1
          1 1 1 1 1 1
          1 1 1 1 1 1
          1 1 1 1 1 1
          1 1 1 1 1 1
          1 1 1 1 1 1
          1 1 1 1 1 1
          1 1 1 1 1 1
          1 1 1 1 1 1
          1 1 1 1 1 1
          1 1 1 1 1 1
          1 1 1 1 1 1
          1 1 1 1 1 1
          1 1 1 1 1 1
          1 1 1 0.75 1 0.875
          1 1 0.6666666666666666 1 1 1
          1 1 1 1 1 1
          1 1 1 1 1 1
          1 0.5 0.25 0.75 0.625 0
          0.5 0.5 0 0.5 0.5 0
          0.5 0.25 0 0.25 0 0
          0 0 0 0 0.25 0
          0.25 0 0.5 0.5 0.25 0.75
          0.5 0.5 1 0.75 0 0.25
          0.5 0.75 0.625 1 0.5 1
          0.75 1 0.875 0.25 0.625 1
          1 1 0 0.125 0 0.25
          0 0 0 0.25 0.625 0
          0 0.25 0 0 0.75 0.5
          0.25 0.25 0.5 0.625 0.5 0.875
          0 0 0.25 0.5 0.5 0.625
          0.875 0 0.25 0.75 0.5 0.875
          0.25 0.75 0.75 1 0.5 1
          1 1 1 0 0 0.25
          0.25 0 0.25 0 0 0
          0 0 0 0 0 0
          0 0 0 0 0 0
          0 0 0 0 0 0
          0 0 0 0 0 0
          0 0 0 0 0 0
          0 0 0 0 0.875 1
          1 1 0.8333333333333334 1 0.625 0.625
          1 1 1 1 1 1
          1 1 1 1 1 1
          1 1
        </DataArray>
        <DataArray type="Float64" Name="gradient_matprop_marker" format="ascii" RangeMin="0" RangeMax="0">
          0 0 0 0 0 0
          0 0 0 0 0 0
          0 0 0 0 0 0
          0 0 0 0 0 0
          0 0 0 0 0 0
          0 0 0 0 0 0
          0 0 0 0 0 0
          0 0 0 0 0 0
          0 0 0 0 0 0
          0 0 0 0 0 0
          0 0 0 0 0 0
          0 0 0 0 0 0
          0 0 0 0 0 0
          0 0 0 0 0 0
          0 0 0 0 0 0
          0 0 0 0 0 0
          0 0 0 0 0 0
          0 0 0 0 0 0
          0 0 0 0 0 0
          0 0 0 0 0 0
          0 0 0 0 0 0
          0 0 0 0 0 0
          0 0 0 0 0 0
          0 0 0 0 0 0
          0 0 0 0 0 0
          0 0 0 0 0 0
          0 0 0 0 0 0
          0 0 0 0 0 0
          0 0 0 0 0 0
          0 0 0 0 0 0
          0 0 0 0 0 0
          0 0 0 0 0 0
          0 0 0 0 0 0
          0 0 0 0 0 0
          0 0 0 0 0 0
          0 0 0 0 0 0
          0 0 0 0 0 0
          0 0 0 0 0 0
          0 0 0 0 0 0
          0 0 0 0 0 0
          0 0 0 0 0 0
          0 0 0 0 0 0
          0 0 0 0 0 0
          0 0 0 0 0 0
          0 0 0 0 0 0
          0 0 0 0 0 0
          0 0 0 0 0 0
          0 0 0 0 0 0
          0 0 0 0 0 0
          0 0 0 0 0 0
          0 0 0 0 0 0
          0 0 0 0 0 0
          0 0 0 0 0 0
          0 0 0 0 0 0
          0 0 0 0 0 0
          0 0 0 0 0 0
          0 0 0 0 0 0
          0 0 0 0 0 0
          0 0 0 0 0 0
          0 0 0 0 0 0
          0 0 0 0 0 0
          0 0 0 0 0 0
          0 0 0 0 0 0
          0 0 0 0 0 0
          0 0 0 0 0 0
          0 0 0 0 0 0
          0 0 0 0 0 0
          0 0 0 0 0 0
          0 0 0 0 0 0
          0 0 0 0 0 0
          0 0 0 0 0 0
          0 0 0 0 0 0
          0 0 0 0 0 0
          0 0 0 0 0 0
          0 0 0 0 0 0
          0 0 0 0 0 0
          0 0 0 0 0 0
          0 0 0 0 0 0
          0 0 0 0 0 0
          0 0 0 0 0 0
          0 0 0 0 0 0
          0 0 0 0 0 0
          0 0
        </DataArray>
        <DataArray type="Float64" Name="combo" format="ascii" RangeMin="0" RangeMax="2">
          1 1 1 1 1 1
          1 1 1 1 1 1
          1 1 1 1 1 1
          1 1 1 1 1 1
          1 1 0.875 1 1 1
          1 0.5 1 1 1 1
          1 1 1 1 1 1
          1 1 1 1 1 1
          1 1 1 1 1 1
          1 1 1 1 1 1
          1 1 0.75 0.75 0.875 1
          1 0.875 1 1 0.75 1
          0.5 0.5 1 0.75 0.6666666666666666 0.625
          1 1 1 1 1 1
          1 1 1 1 1 1
          1 1 1 1 1 1
          1 1 1 1 1 1
          1 1 1 1 1 1
          1 1 1 1 1 1
          1 1 1 1 1 1
          1 1 1 1 1 1
          1 1 1 1 1 1
          1 1 1 1 1 1
          1 1 1 1 1 1
          1 1 1 1 1 1
          1 1 1 1 1 1
          1 1 1 1 1 1
          1 1 0.75 0.75 0.5 1
          1 0.75 1 1 0.75 1
          1 0.5 1 1 0.75 0.75
          0.625 0.75 2 0.75 1 0.75
          0.8333333333333334 1 1 0.625 0.875 0.5