<?xml version="1.0"?>
<VTKFile type="UnstructuredGrid" version="0.1" byte_order="LittleEndian" header_type="UInt32" compressor="vtkZLibDataCompressor">
  <UnstructuredGrid>
    <Piece NumberOfPoints="410" NumberOfCells="236">
      <PointData>
        <DataArray type="Int32" Name="libmesh_node_id" format="ascii" RangeMin="395" RangeMax="3740">
          395 465 468 471 476 481
          486 570 575 578 584 720
          723 726 740 741 744 746
          755 756 761 776 777 778
          779 780 781 782 783 784
          785 1061 1070 1071 1401 1413
          1415 1417 1418 1419 1420 1421
          1436 1437 1441 1449 1450 1451
          1452 1453 1454 1455 1470 1471
          1472 1473 1474 1475 1476 1477
          1478 1479 1493 1509 1511 1512
          1513 1514 1515 1516 1517 1522
          1523 1524 1527 1532 1537 1548
          1549 1550 1551 1552 1553 1554
          1557 1561 1644 1645 1646 1647
          1648 1649 1650 1651 1652 1653
          1654 1655 1656 1657 1658 1659
          1660 1661 1663 1749 1754 1756
          1785 1786 1787 1790 1791 1792
          1793 1794 1795 1796 1797 1798
          1799 1800 1801 1802 1803 1804
          2446 2466 2475 2476 2477 2479
          2481 2483 2485 2486 2487 2488
          2489 2490 2491 2494 2495 2498
          2500 2502 2503 2504 2505 2506
          2507 2508 2509 2510 2511 2603
          2609 2610 2613 2637 2643 2644
          2647 2661 2663 2665 2667 2668
          2669 2670 2671 2672 2673 2675
          2677 2679 2681 2682 2683 2684
          2685 2686 2687 2689 2691 2693
          2695 2696 2697 2698 2699 2700
          2701 2703 2705 2707 2709 2710
          2711 2712 2713 2714 2715 2725
          2726 2729 2731 2733 2734 2735
          2736 2737 2738 2739 2740 2741
          2742 2744 2746 2748 2750 2751
          2752 2753 2754 2755 2756 2831
          2838 2928 2929 2930 2938 2939
          2940 2941 2942 2943 2944 2945
          2946 2947 2948 2949 2950 2951
          2952 2953 2954 2955 2956 2957
          2958 2959 2960 2961 2962 2963
          2964 2965 2966 2967 2968 2969
          2970 2971 2972 2973 2974 3009
          3010 3011 3012 3013 3014 3015
          3016 3017 3018 3051 3052 3055
          3058 3062 3085 3086 3089 3092
          3096 3165 3166 3167 3168 3169
          3170 3171 3172 3173 3174 3175
          3176 3177 3178 3179 3180 3181
          3182 3183 3184 3185 3186 3187
          3188 3189 3190 3191 3192 3193
          3194 3195 3196 3197 3198 3199
          3200 3201 3202 3203 3204 3205
          3206 3207 3208 3209 3210 3211
          3212 3213 3214 3215 3216 3217
          3218 3219 3220 3235 3236 3237
          3238 3239 3240 3241 3263 3264
          3265 3266 3267 3268 3269 3690
          3691 3692 3693 3694 3695 3696
          3697 3698 3699 3700 3701 3702
          3703 3704 3705 3706 3707 3708
          3709 3710 3711 3712 3713 3714
          3715 3716 3717 3718 3719 3720
          3721 3722 3723 3724 3725 3726
          3727 3728 3729 3730 3731 3732
          3733 3734 3735 3736 3737 3738
          3739 3740
        </DataArray>
        <DataArray type="Float64" Name="bounds" format="ascii" RangeMin="0" RangeMax="0">
          0 0 0 0 0 0
          0 0 0 0 0 0
          0 0 0 0 0 0
          0 0 0 0 0 0
          0 0 0 0 0 0
          0 0 0 0 0 0
          0 0 0 0 0 0
          0 0 0 0 0 0
          0 0 0 0 0 0
          0 0 0 0 0 0
          0 0 0 0 0 0
          0 0 0 0 0 0
          0 0 0 0 0 0
          0 0 0 0 0 0
          0 0 0 0 0 0
          0 0 0 0 0 0
          0 0 0 0 0 0
          0 0 0 0 0 0
          0 0 0 0 0 0
          0 0 0 0 0 0
          0 0 0 0 0 0
          0 0 0 0 0 0
          0 0 0 0 0 0
          0 0 0 0 0 0
          0 0 0 0 0 0
          0 0 0 0 0 0
          0 0 0 0 0 0
          0 0 0 0 0 0
          0 0 0 0 0 0
          0 0 0 0 0 0
          0 0 0 0 0 0
          0 0 0 0 0 0
          0 0 0 0 0 0
          0 0 0 0 0 0
          0 0 0 0 0 0
          0 0 0 0 0 0
          0 0 0 0 0 0
          0 0 0 0 0 0
          0 0 0 0 0 0
          0 0 0 0 0 0
          0 0 0 0 0 0
          0 0 0 0 0 0
          0 0 0 0 0 0
          0 0 0 0 0 0
          0 0 0 0 0 0
          0 0 0 0 0 0
          0 0 0 0 0 0
          0 0 0 0 0 0
          0 0 0 0 0 0
          0 0 0 0 0 0
          0 0 0 0 0 0
          0 0 0 0 0 0
          0 0 0 0 0 0
          0 0 0 0 0 0
          0 0 0 0 0 0
          0 0 0 0 0 0
          0 0 0 0 0 0
          0 0 0 0 0 0
          0 0 0 0 0 0
          0 0 0 0 0 0
          0 0 0 0 0 0
          0 0 0 0 0 0
          0 0 0 0 0 0
          0 0 0 0 0 0
          0 0 0 0 0 0
          0 0 0 0 0 0
          0 0 0 0 0 0
          0 0 0 0 0 0
          0 0
        </DataArray>
        <DataArray type="Float64" Name="gradient_error" format="ascii" RangeMin="4.054504288989407e-11" RangeMax="2.6059329864408248e-8">
          3.6513687556241763e-9 2.093290630740178e-9 1.9744207500018423e-9 2.1176582640154755e-9 1.312645174155336e-10 3.844954658057421e-10
          5.495597867556625e-10 1.2090955529360798e-9 1.7642371830572061e-9 3.6377316935263277e-10 4.6491887935052183e-10 7.044610553681182e-9
          1.4921535549144907e-9 2.0429185806320788e-8 1.8494920719076401e-9 2.192887700711076e-9 3.1318159426545795e-9 2.978180077881287e-9
          5.548160721171711e-10 3.8712151756573345e-10 6.100533789256286e-10 5.472015461860152e-10 6.381217731995452e-10 1.3585874993622277e-10
          1.4949152639043518e-10 5.468979257366369e-10 9.80468466338362e-10 2.418014998522708e-10 8.433835133160298e-10 1.8944665022707953e-10
          1.2025271939507363e-9 1.4880071064776502e-9 4.2682667597634293e-10 1.2024604383670091e-10 1.0088572740949877e-8 2.7856899667173484e-9
          1.5365020506173553e-9 3.606460623528514e-9 1.9179302753541564e-9 4.570608556865831e-9 2.884144639509566e-9 2.6150374089552423e-9
          2.1251602193845835e-8 1.5989039420907593e-8 2.6059329864408248e-8 8.842371545521263e-9 6.084232111854098e-9 2.8269377025622063e-9
          1.7000176936597553e-9 1.1114851497104856e-8 7.839402008635965e-9 3.442908814110413e-9 2.9507112724722846e-9 2.213977290171823e-9
          1.4609127195132048e-9 1.1504293404091443e-9 2.9277693115287097e-9 3.436545553486879e-9 1.7593256649304364e-9 2.3872187984860713e-9
          1.3119785126373953e-9 3.5891718835300115e-9 4.408869078590934e-9 8.097574666935409e-10 3.989956234627346e-10 8.589281725583353e-10
          9.805254992420576e-10 4.80653853715039e-10 1.6705472498374356e-9 8.626689829318998e-10 7.870257224495203e-10 1.930577587053095e-10
          2.1860780407665918e-10 9.267420958923003e-11 2.1546815472169475e-10 1.0752972421505106e-8 1.4022348651239288e-8 3.771784320364015e-9
          2.047452158266844e-9 9.491998491033705e-10 4.783051592265796e-10 4.994994231702271e-9 2.7706722243247156e-9 1.1991738061507414e-9
          2.5190154126278774e-10 2.7704104762086946e-10 7.311939192396381e-10 5.807681678030468e-10 3.568580360660692e-10 2.817562848822746e-10
          6.051206289180733e-10 8.763992807592953e-10 4.2613426226211234e-10 6.716289066651105e-10 3.249926474700225e-10 9.981891364950622e-10
          2.0563279340081814e-10 1.7206775832517237e-10 1.3423690423566654e-10 1.424609518839666e-10 1.3161675800394757e-10 1.8883585525717274e-10
          7.612261589036626e-11 1.463476295617136e-10 2.1758216317381637e-10 1.4732188389423063e-9 4.224235802301411e-10 1.1241175187534151e-10
          2.962919936820701e-9 9.31883802177296e-10 1.435932695622495e-9 7.917401419837292e-10 4.55422487440738e-10 7.160209812305952e-10
          2.263970970808726e-10 3.5211747489479115e-10 2.93243902365194e-10 3.744378675889061e-10 1.8535470318096653e-10 1.0450128895054198e-10
          1.6084219582436917e-10 4.793221879664024e-11 7.154037324187627e-11 6.762406066227514e-11 8.538401466482062e-11 4.054504288989407e-11
          8.528818351479574e-9 2.4249770461433493e-9 1.864450750374547e-9 1.4236945173312671e-9 1.4088540519935243e-9 4.293455885733397e-9
          2.848880666219808e-9 7.021873547801872e-9 3.4277221022961286e-9 2.693657050618301e-9 2.214848714875083e-9 1.7066886989321899e-9
          5.797800262698533e-9 4.6920980016828466e-9 3.6553003189982125e-9 1.3272286697782658e-9 1.7574136830373004e-9 1.3104638974387523e-9
          2.768449845318175e-9 9.916289976646976e-10 1.3329297737745317e-9 7.417796427941083e-10 1.0091045668625425e-9 7.599369790269977e-10
          9.817857351868718e-10 7.368600367142752e-10 2.146159677664834e-9 1.655012769591445e-9 1.339232562789115e-9 1.5579670328232618e-8
          1.3469720926363364e-8 1.1352859572117398e-8 1.8701351797693056e-8 2.4959669300568077e-8 2.231677692388044e-8 1.931944692728845e-8
          2.3470022472484505e-8 1.053430905961667e-8 6.68913133698191e-9 1.4253848176348743e-8 8.926212149410464e-9 7.401583817117504e-9
          5.4915983337931e-9 4.433415469119412e-9 1.2271922119921041e-8 1.0318895599229605e-8 7.404482426189989e-9 3.971864341987839e-9
          2.193116046980037e-9 5.153266623333525e-9 3.1486812597262534e-9 2.468772254767511e-9 1.688423150942171e-9 1.2902470817948349e-9
          4.163963744380945e-9 3.310940441082147e-9 2.2060873620797575e-9 1.7103584594048593e-8 1.049237934472542e-8 1.814614227954786e-8
          1.4845987417442055e-8 1.2563565381953728e-8 8.867943780869123e-9 7.360974075744269e-9 1.5793791267229166e-8 1.3394376026032305e-8
          9.41549633716459e-9 6.044802275537515e-9 3.2770334095123223e-9 6.37749899404364e-9 4.938781227000108e-9 3.964407854634315e-9
          2.5820204427715204e-9 2.004016818512368e-9 5.228908679245531e-9 4.210883288387443e-9 2.7216808647575675e-9 1.0027311241437023e-9
          1.1738249374431844e-9 8.348407753362068e-10 1.4854703105612215e-9 7.542925498179965e-10 8.807428517134353e-10 5.598875094583461e-10
          6.568511268430446e-10 5.74192280854367e-10 6.202435269697642e-10 4.555034921375637e-10 1.1145632794432116e-9 8.37043639400395e-10
          7.317091192933165e-10 1.7066802019100481e-9 1.1345141873736158e-9 1.787338533440319e-9 1.2857106335258766e-9 9.695723001587226e-10
          8.36907781471025e-10 6.205262214159637e-10 1.3494878617742042e-9 1.018872065744398e-9 8.766920974405783e-10 5.6609143054677906e-9
          3.31953216779988e-9 1.0669436898935416e-9 7.820650843381935e-10 7.913017966993072e-10 5.592517426558859e-10 3.901386059521105e-10
          4.093844891726537e-10 2.0685230885242756e-9 1.5465514358423746e-9 1.2893399691847652e-9 9.511785910833665e-10 3.6974577728809948e-9
          2.828025560600488e-9 2.2249579303090978e-9 1.1240031667056665e-9 7.935824282411613e-10 6.837813278191518e-10 4.788063417095428e-10
          2.095324584273928e-9 1.5022311675806412e-9 1.218489686631323e-9 5.452043288414564e-10 7.49959297897724e-10 3.950314357250349e-10
          5.46765561713102e-10 4.102391922205309e-10 5.417536277076908e-10 3.922371371059479e-10 1.2505039907385418e-9 9.223930627517853e-10
          7.556242068359078e-10 2.7837539268545154e-10 3.8866605850921306e-10 1.924077708657736e-10 2.700712688231074e-10 2.0710922281944415e-10
          2.765664089201734e-10 1.9124756758916842e-10 6.63338570852323e-10 4.6476254703765405e-10 3.913322245757838e-10 1.297157798053058e-10
          1.8292969559989707e-10 8.608017324965065e-11 1.2116248073360163e-10 9.575757289689514e-11 1.2903119092024233e-10 8.549963838787154e-11
          3.170788525654608e-10 2.102284570843015e-10 1.8370957247342937e-10 9.323179192697065e-9 7.440384986794635e-9 1.32917554881876e-8
          5.7418461306498e-9 8.446285173508858e-9 1.6203157092109933e-8 1.3180828320331021e-8 1.72071802567575e-8 1.043525897162834e-8
          1.1120130864542759e-8 5.972817459268819e-9 4.67088862351388e-9 3.488345165795191e-9 2.664938042211692e-9 8.459193183066976e-9
          6.732423808974908e-9 4.865590582839597e-9 3.530052600152035e-9 2.5737229856713473e-9 1.972498318493253e-9 1.413079785072774e-9
          5.17655668780085e-9 3.8326715622077505e-9 2.827769194388171e-9 1.893631680333834e-9 1.4147540270055612e-9 9.667233042307887e-10
          7.087078076912075e-10 2.5713334480133644e-9 1.942083380143417e-9 1.2854598769137897e-9 1.0279710212169844e-9 7.260633237468381e-10
          5.070266657871027e-10 3.5359832804541776e-10 1.4235996860533166e-9 1.0122948013972002e-9 6.830959315180805e-10 1.0371159642558934e-8
          8.335114097153408e-9 5.948727597992078e-9 4.657056646514613e-9 1.1076140989449875e-8 8.926305190014777e-9 6.35796367239355e-9
          6.483968035691148e-9 4.85338100219489e-9 3.52165739531983e-9 2.568711880583002e-9 6.972386069397626e-9 5.2398466511276656e-9
          3.788596613946175e-9 3.1040170993978515e-9 2.3610184540598e-9 1.5239672310626747e-9 1.1306629823721823e-9 3.306336948913551e-9
          2.5210917640414874e-9 1.6136590381029107e-9 1.740856030245973e-9 1.2432440533552025e-9 8.167585590861133e-10 5.738029929295717e-10
          1.8627343134476104e-9 1.3322348241148137e-9 8.673920473570466e-10 4.991642813484065e-10 3.3263125788506326e-10 2.392235957688093e-10
          1.8487822161505546e-10 6.993842972763082e-10 4.680657854735209e-10 3.2525702474472504e-10 8.603237036448989e-10 5.767637539898892e-10
          3.917184967614845e-10 2.587254682951265e-10 9.22193281697561e-10 6.184463268518127e-10 4.169581813327882e-10 4.0724553617445696e-10
          4.818673434998249e-10 2.938905303236277e-10 3.482660206292709e-10 3.0217407387590416e-10 3.30516316155904e-10 2.3720348222529153e-10
          6.196577124248061e-10 4.4966349098209925e-10 3.963017335299985e-10 2.063262121564316e-10 2.453763628163888e-10 1.4233274113438512e-10
          1.6924461303116583e-10 1.5079948152514904e-10 1.6526896071861748e-10 1.1381471834442037e-10 3.182639638897201e-10 2.1998134771716105e-10
          1.9932265082035248e-10 7.204670692613805e-10 5.247609886113104e-10 4.5548895853344436e-10 3.289315619861461e-10 7.581078644983417e-10
          5.528365061933365e-10 4.772330084427956e-10 3.724176830071976e-10 2.5801608109039803e-10 2.3038172074233682e-10 1.583001937893553e-10
          3.927339517113011e-10 2.7222595167442046e-10 2.418565797560546e-10 9.525495532875153e-11 1.1329238447563951e-10 7.745219821618638e-11
          9.056314851942709e-11 7.15510434014242e-11 7.98003299157216e-11 6.791276900352926e-11 1.4801771152720832e-10 1.0654049262029322e-10
          9.651729718254835e-11 1.7466074245693066e-10 1.1519330183246416e-10 1.085253700427873e-10 7.519004091719257e-11 1.846158754819722e-10
          1.2241291414582239e-10 1.1206576215049687e-10
        </DataArray>
        <DataArray type="Float64" Name="gradient_matprop_error" format="ascii" RangeMin="0" RangeMax="0">
          0 0 0 0 0 0
          0 0 0 0 0 0
          0 0 0 0 0 0
          0 0 0 0 0 0
          0 0 0 0 0 0
          0 0 0 0 0 0
          0 0 0 0 0 0
          0 0 0 0 0 0
          0 0 0 0 0 0
          0 0 0 0 0 0
          0 0 0 0 0 0
          0 0 0 0 0 0
          0 0 0 0 0 0
          0 0 0 0 0 0
          0 0 0 0 0 0
          0 0 0 0 0 0
          0 0 0 0 0 0
          0 0 0 0 0 0
          0 0 0 0 0 0
          0 0 0 0 0 0
          0 0 0 0 0 0
          0 0 0 0 0 0
          0 0 0 0 0 0
          0 0 0 0 0 0
          0 0 0 0 0 0
          0 0 0 0 0 0
          0 0 0 0 0 0
          0 0 0 0 0 0
          0 0 0 0 0 0
          0 0 0 0 0 0
          0 0 0 0 0 0
          0 0 0 0 0 0
          0 0 0 0 0 0
          0 0 0 0 0 0
          0 0 0 0 0 0
          0 0 0 0 0 0
          0 0 0 0 0 0
          0 0 0 0 0 0
          0 0 0 0 0 0
          0 0 0 0 0 0
          0 0 0 0 0 0
          0 0 0 0 0 0
          0 0 0 0 0 0
          0 0 0 0 0 0
          0 0 0 0 0 0
          0 0 0 0 0 0
          0 0 0 0 0 0
          0 0 0 0 0 0
          0 0 0 0 0 0
          0 0 0 0 0 0
          0 0 0 0 0 0
          0 0 0 0 0 0
          0 0 0 0 0 0
          0 0 0 0 0 0
          0 0 0 0 0 0
          0 0 0 0 0 0
          0 0 0 0 0 0
          0 0 0 0 0 0
          0 0 0 0 0 0
          0 0 0 0 0 0
          0 0 0 0 0 0
          0 0 0 0 0 0
          0 0 0 0 0 0
          0 0 0 0 0 0
          0 0 0 0 0 0
          0 0 0 0 0 0
          0 0 0 0 0 0
          0 0 0 0 0 0
          0 0
        </DataArray>
        <DataArray type="Float64" Name="initial_marker" format="ascii" RangeMin="0" RangeMax="2">
          0 0 0 2 0 0
          0 0 0 0 0 2
          1.5 2 0 0 0 0
          0 1 2 0 0 0
          0 0 0 0 0 0
          0 0 0 0 2 1.5
          1.5 0 0 2 2 1.5
          2 2 2 2 2 2
          2 2 2 2 0 0
          0 0 0 0 0 1
          0.5 0 2 1.5 1.25 0
          0 0 2 2 1.5 0
          0 0 0.75 2 2 2
          2 2 2 2 2 2
          1.75 2 0 0 0 0
          0 0 0 0 0 0
          0 0 0 0 0 0
          0 0 0 0 0 0
          0 0 0 0 0 0
          0 0 0 0 0 0
          0 0 0 0 0 0
          2 2 2 2 2 2
          2 2 2 2 2 2
          2 2 2 1 1.5 1
          2 1 1.5 1 1.5 0
          1 1 2 2 2 2
          2 2 2 2 2 2
          2 2 2 2 2 2
          2 2 2 2 2 2
          2 2 2 2 2 2
          2 2 2 2 2 2
          2 2 2 2 2 2
          2 2 2 2 2 2
          2 2 2 2 2 1
          1 0 1 1 1 1
          1 0 0 0 1 1
          0 1.5 1 2 1.5 1.25
          1 0.5 2 1.5 2 2
          2 2 2 2 2 1.75
          2 2 2 2 2 2
          2 2 2 2 2 2
          2 2 2 1 1.5 1
          1.5 0 1 1 2 2
          2 1 1.5 1 1.5 0
          1 1 2 2 1.6666666666666667 1
          1.5 0.5 1 0 1 0.5
          2 1.75 1.3333333333333333 2 2 2
          2 2 2 2 2 2
          2 2 2 2 2 2
          2 2 2 2 2 2
          2 2 2 2 2 2
          2 2 2 2 2 2
          1.75 1.5 2 2 2 2
          2 2 2 2 2 2
          2 2 2 2 2 2
          2 2 2 2 2 2
          2 2 2 2 2 2
          2 2 2 2 2 1.5
          1.6666666666666667 2 2 2 2 2
          2 2 2 2 2 1
          1 1 1 0 0 0
          1 1 0 0.5 0.75 0
          0.5 0 0 0 1 1
          0 1 1 0 0 1
          1 0 1 1 0 0
          1 1 0 0 0.5 0
          0.5 0 0 0 1 1
          0 1 1 0 0 1
          1 0
        </DataArray>
        <DataArray type="Float64" Name="markers_norefine" format="ascii" RangeMin="0" RangeMax="0.5">
          0 0 0 0 0 0
          0 0 0 0 0 0
          0 0 0 0 0 0
          0 0 0 0 0 0
          0 0 0 0 0 0
          0 0 0 0 0 0
          0 0 0 0 0 0
          0 0 0.5 0 0 0
          0 0 0 0 0 0
          0 0 0 0 0 0
          0 0 0 0 0 0
          0 0 0 0 0 0
          0 0 0 0 0 0
          0 0 0 0 0 0
          0 0 0 0 0 0
          0 0 0 0 0 0
          0 0 0 0 0 0
          0 0 0 0 0 0
          0 0 0 0 0 0
          0 0 0 0 0 0
          0 0 0 0 0 0
          0 0 0 0 0 0
          0 0 0 0 0 0
          0 0 0 0 0 0
          0 0 0 0 0 0
          0 0 0 0 0 0
          0 0 0 0.25 0 0
          0 0 0 0 0 0
          0 0 0 0 0 0
          0 0 0 0 0 0
          0 0 0 0 0 0
          0 0 0 0 0 0
          0 0 0 0 0 0
          0 0 0 0 0 0
          0 0 0 0 0 0
          0 0 0 0 0 0
          0 0 0 0 0 0
          0 0 0 0 0 0
          0 0 0 0 0 0
          0 0 0 0 0 0
          0 0 0 0 0 0
          0 0 0 0 0 0
          0 0 0 0 0 0
          0 0 0 0 0 0
          0 0 0 0 0 0
          0 0 0 0 0 0
          0 0 0 0 0 0
          0 0 0 0 0 0
          0 0 0 0 0 0
          0 0 0 0 0 0
          0 0 0 0 0 0
          0 0 0 0 0 0
          0 0 0 0 0 0
          0 0 0 0 0 0
          0 0 0 0 0 0
          0 0 0 0 0 0
          0 0 0 0 0 0
          0 0 0 0 0 0
          0 0 0 0 0 0
          0 0 0 0 0 0
          0 0 0 0 0 0
          0 0 0 0 0 0
          0 0 0 0 0 0
          0 0 0 0 0 0
          0 0 0 0 0 0
          0 0 0 0 0 0
          0 0 0 0 0 0
          0 0 0 0 0 0
          0 0
        </DataArray>
        <DataArray type="Float64" Name="markers_mustrefine" format="ascii" RangeMin="0" RangeMax="2">
          0 0 0 2 0 0
          0 0 0 0 0 2
          1.5 2 0 0 0 0
          0 1 2 0 0 0
          0 0 0 0 0 0
          0 0 0 0 2 1.5
          1.5 0 0 2 2 1.5
          2 2 2 2 2 2
          2 2 2 2 0 0
          0 0 0 0 0 1
          0.5 0 2 1.5 1.25 0
          0 0 2 2 1.5 0
          0 0 0.75 2 2 2
          2 2 2 2 2 2
          1.75 2 0 0 0 0
          0 0 0 0 0 0
          0 0 0 0 0 0
          0 0 0 0 0 0
          0 0 0 0 0 0
          0 0 0 0 0 0
          0 0 0 0 0 0
          2 2 2 2 2 2
          2 2 2 2 2 2
          2 2 2 1 1.5 1
          2 1 1.5 1 1.5 0
          1 1 2 2 2 2
          2 2 2 2 2 2
          2 2 2 2 2 2
          2 2 2 2 2 2
          2 2 2 2 2 2
          2 2 2 2 2 2
          2 2 2 2 2 2
          2 2 2 2 2 2
          2 2 2 2 2 1
          1 0 1 1 1 1
          1 0 0 0 1 1
          0 1.5 1 2 1.5 1.25
          1 0.5 2 1.5 2 2
          2 2 2 2 2 1.75
          2 2 2 2 2 2
          2 2 2 2 2 2
          2 2 2 1 1.5 1
          1.5 0 1 1 2 2
          2 1 1.5 1 1.5 0
          1 1 2 2 1.6666666666666667 1
          1.5 0.5 1 0 1 0.5
          2 1.75 1.3333333333333333 2 2 2
          2 2 2 2 2 2
          2 2 2 2 2 2
          2 2 2 2 2 2
          2 2 2 2 2 2
          2 2 2 2 2 2
          1.75 1.5 2 2 2 2
          2 2 2 2 2 2
          2 2 2 2 2 2
          2 2 2 2 2 2
          2 2 2 2 2 2
          2 2 2 2 2 1.5
          1.6666666666666667 2 2 2 2 2
          2 2 2 2 2 1
          1 1 1 0 0 0
          1 1 0 0.5 0.75 0
          0.5 0 0 0 1 1
          0 1 1 0 0 1
          1 0 1 1 0 0
          1 1 0 0 0.5 0
          0.5 0 0 0 1 1
          0 1 1 0 0 1
          1 0
        </DataArray>
        <DataArray type="Float64" Name="gradient_marker" format="ascii" RangeMin="1" RangeMax="1">
          1 1 1 1 1 1
          1 1 1 1 1 1
          1 1 1 1 1 1
          1 1 1 1 1 1
          1 1 1 1 1 1
          1 1 1 1 1 1
          1 1 1 1 1 1
          1 1 1 1 1 1
          1 1 1 1 1 1
          1 1 1 1 1 1
          1 1 1 1 1 1
          1 1 1 1 1 1
          1 1 1 1 1 1
          1 1 1 1 1 1
          1 1 1 1 1 1
          1 1 1 1 1 1
          1 1 1 1 1 1
          1 1 1 1 1 1
          1 1 1 1 1 1
          1 1 1 1 1 1
          1 1 1 1 1 1
          1 1 1 1 1 1
          1 1 1 1 1 1
          1 1 1 1 1 1
          1 1 1 1 1 1
          1 1 1 1 1 1
          1 1 1 1 1 1
          1 1 1 1 1 1
          1 1 1 1 1 1
          1 1 1 1 1 1
          1 1 1 1 1 1
          1 1 1 1 1 1
          1 1 1 1 1 1
          1 1 1 1 1 1
          1 1 1 1 1 1
          1 1 1 1 1 1
          1 1 1 1 1 1
          1 1 1 1 1 1
          1 1 1 1 1 1
          1 1 1 1 1 1
          1 1 1 1 1 1
          1 1 1 1 1 1
          1 1 1 1 1 1
          1 1 1 1 1 1
          1 1 1 1 1 1
          1 1 1 1 1 1
          1 1 1 1 1 1
          1 1 1 1 1 1
          1 1 1 1 1 1
          1 1 1 1 1 1
          1 1 1 1 1 1
          1 1 1 1 1 1
          1 1 1 1 1 1
          1 1 1 1 1 1
          1 1 1 1 1 1
          1 1 1 1 1 1
          1 1 1 1 1 1
          1 1 1 1 1 1
          1 1 1 1 1 1
          1 1 1 1 1 1
          1 1 1 1 1 1
          1 1 1 1 1 1
          1 1 1 1 1 1
          1 1 1 1 1 1
          1 1 1 1 1 1
          1 1 1 1 1 1
          1 1 1 1 1 1
          1 1 1 1 1 1
          1 1
        </DataArray>
        <DataArray type="Float64" Name="gradient_matprop_marker" format="ascii" RangeMin="0" RangeMax="0">
          0 0 0 0 0 0
          0 0 0 0 0 0
          0 0 0 0 0 0
          0 0 0 0 0 0
          0 0 0 0 0 0
          0 0 0 0 0 0
          0 0 0 0 0 0
          0 0 0 0 0 0
          0 0 0 0 0 0
          0 0 0 0 0 0
          0 0 0 0 0 0
          0 0 0 0 0 0
          0 0 0 0 0 0
          0 0 0 0 0 0
          0 0 0 0 0 0
          0 0 0 0 0 0
          0 0 0 0 0 0
          0 0 0 0 0 0
          0 0 0 0 0 0
          0 0 0 0 0 0
          0 0 0 0 0 0
          0 0 0 0 0 0
          0 0 0 0 0 0
          0 0 0 0 0 0
          0 0 0 0 0 0
          0 0 0 0 0 0
          0 0 0 0 0 0
          0 0 0 0 0 0
          0 0 0 0 0 0
          0 0 0 0 0 0
          0 0 0 0 0 0
          0 0 0 0 0 0
          0 0 0 0 0 0
          0 0 0 0 0 0
          0 0 0 0 0 0
          0 0 0 0 0 0
          0 0 0 0 0 0
          0 0 0 0 0 0
          0 0 0 0 0 0
          0 0 0 0 0 0
          0 0 0 0 0 0
          0 0 0 0 0 0
          0 0 0 0 0 0
          0 0 0 0 0 0
          0 0 0 0 0 0
          0 0 0 0 0 0
          0 0 0 0 0 0
          0 0 0 0 0 0
          0 0 0 0 0 0
          0 0 0 0 0 0
          0 0 0 0 0 0
          0 0 0 0 0 0
          0 0 0 0 0 0
          0 0 0 0 0 0
          0 0 0 0 0 0
          0 0 0 0 0 0
          0 0 0 0 0 0
          0 0 0 0 0 0
          0 0 0 0 0 0
          0 0 0 0 0 0
          0 0 0 0 0 0
          0 0 0 0 0 0
          0 0 0 0 0 0
          0 0 0 0 0 0
          0 0 0 0 0 0
          0 0 0 0 0 0
          0 0 0 0 0 0
          0 0 0 0 0 0
          0 0
        </DataArray>
        <DataArray type="Float64" Name="combo" format="ascii" RangeMin="1" RangeMax="1.25">
          1 1 1 1 1 1
          1 1 1 1 1 1
          1 1 1 1 1 1
          1 1 1 1 1 1
          1 1 1 1 1 1
          1 1 1 1 1 1
          1 1 1 1 1 1
          1 1 1.25 1 1 1
          1 1 1 1 1 1
          1 1 1 1 1 1
          1 1 1 1 1 1
          1 1 1 1 1 1
          1 1 1 1 1 1
          1 1 1 1 1 1
          1 1 1 1 1 1
          1 1 1 1 1 1
          1 1 1 1 1 1
          1 1 1 1 1 1
          1 1 1 1 1 1
          1 1 1 1 1 1
          1 1 1 1 1 1
          1 1 1 1 1 1
          1 1 1 1 1 1
          1 1 1 1 1 1
          1 1 1 1 1 1
          1 1 1 1 1 1
          1 1 1 1.125 1 1
          1 1 1 1 1 1
          1 1 1 1 1 1
          1 1 1 1 1 1
          1 1 1 1 1 1
          1 1 1 1 1 1
          1 1 1 1 1 1
          1 1 1 1 1 1
          1 1 1 1 1 1
          1 1 1 1 1 1
          1 1 1 1 1 1
          1 1 1 1 1 1
          1 1 1 1 1 1
          1 1 1 1 1 1
          1 1 1 1 1 1
          1 1 1 1 1 1
          1 1 1 1 1 1
          1 1 1 1 1 1
          1 1 1 1 1 1
          1 1 1 1 1 1
          1 1 1 1 1 1
          1 1 1 1 1 1
          1 1 1 1 1 1
          1 1 1 1 1 1
          1 1 1 1 1 1
          1 1 1 1 1 1
          1 1 1 1 1 1
          1 1 1 1 1 1
          1 1 1 1 1 1
          1 1 1 1 1 1
          1 1 1 1 1 1
          1 1 1 1 1 1
          1 1 1 1 1 1
          1 1 1 1 1 1
          1 1 1 1 1 1
          1 1 1 1 1 1
          1 1 1 1 1 1
          1 1 1 1 1 1
          1 1 1 1 1 1
          1 1 1 1 1 1
          1 1 1 1 1 1
          1 1 1 1 1 1
          1 1
        </DataArray>
        <DataArray type="Float64" Name="dHdT" format="ascii" RangeMin="25.812250367574585" RangeMax="41.62473192995584">
          25.83485012385802 25.90104159909395 25.8232030899214 26.61639056570592 25.816133284999665 25.81334144316174
          25.814480157502764 25.813918451257308 25.814877169146264 25.812250367574585 25.81246956322256 28.7012013120593
          26.1584857147914 36.40935890453808 25.841181206335687 25.869480505792673 25.843929507263915 25.895010284876616
          25.833820570594 25.897176509058987 26.02578228800696 25.82056568251398 25.827854406613802 25.81409278985652
          25.815715425723074 25.81844108082805 25.822736238614034 25.81502746153344 25.834510492322117 25.817003114627767
          25.82501889425283 25.833258616800485 25.818018768205388 25.813347054229382 30.695666564205315 26.475686626213996
          26.172737448886288 26.13490131005232 25.97765561668321 27.67582783868128 26.8954484652152 26.452360008995534
          36.865334927967226 33.765085194673674 41.62473192995584 29.952510972882337 28.24260496193935 26.949404296867037
          26.4588298784415 31.52668027709257 29.168016424584756 27.204078113608304 26.06373240150115 26.131037917147047
          25.938633216811812 25.982136907555542 25.97637093560624 26.02114532465605 25.92430286643593 26.174624389736383
          26.009576169674148 26.04166191656271 27.41854297236752 25.99801847682953 25.900776945510444 25.865799270926033
          25.895038298771713 25.851815428922247 26.406862703506253 26.10758493857218 25.990357234651224 25.8236135107944
          25.829805874101115 25.81944389173041 25.848692345765695 30.780023387446175 33.30085589234142 27.17997617287236
          26.515461348128248 26.157640980121574 25.979589797191345 27.69294486020669 26.785324311717673 26.2478899347613
          25.883523257657515 25.905965612551725 25.87584746627043 25.89851108390399 25.842801509113666 25.853619219829458
          25.85483616748022 25.869975584813304 25.840406020771233 25.912896831168656 25.860676037421378 25.877089568949764
          25.826663781576585 25.83101599757603 25.81968503948491 25.821607168407184 25.821683599942972 25.8249470573727
          25.817698474386265 25.833608780131343 25.826598242225522 25.826821349591256 25.816669995428736 25.813172736411502
          25.995838642973293 25.877321388300434 25.90349096111271 25.868508951299393 25.844986689731233 25.858047485288203
          25.828203708562228 25.83441140988547 25.83521837899834 25.84101455664097 25.82641026665426 25.819523563828504
          25.822332797344934 25.815321559159777 25.816541290390433 25.817575052374963 25.818823189870518 25.815137511610192
          29.60785167815898 26.801680137777904 26.553052371480174 26.362890785825762 26.388959453239675 27.562663930347796
          26.96169952255608 28.880928505929532 27.148573469059798 26.825380610258662 26.678699855890123 26.46098819912951
          28.16685228216572 27.61386055544974 27.23647301508366 26.38956915813401 26.54766686716927 26.38238862868657
          26.92673851190324 26.23541399045985 26.35782243566268 26.120256977564765 26.213697306041023 26.146933153065255
          26.23128893309997 26.116840548801626 26.65288342222542 26.441143371195885 26.36442552777591 33.72756286498435
          32.416373385279826 31.103128004421425 35.232772864725845 40.065171418993266 37.61743131960971 35.67349199396254
          38.77832003838735 30.961393915802745 28.691531843918696 33.175206416736586 29.83347908729084 28.883363775943483
          28.02472595376348 27.50802869642775 31.873097759971795 30.59390412488966 28.987592757514747 27.415746038633294
          26.710537328427165 27.944610303168208 27.036468125432357 26.740407863896774 26.48566036040254 26.312572437408555