<?xml version="1.0"?>
<VTKFile type="UnstructuredGrid" version="0.1" byte_order="LittleEndian" header_type="UInt32" compressor="vtkZLibDataCompressor">
  <UnstructuredGrid>
    <Piece NumberOfPoints="424" NumberOfCells="226">
      <PointData>
        <DataArray type="Int32" Name="libmesh_node_id" format="ascii" RangeMin="372" RangeMax="3511">
          372 373 381 449 451 454
          457 527 528 533 667 684
          685 688 690 699 700 705
          720 721 724 725 727 729
          827 828 831 940 941 942
          945 953 954 1264 1265 1268
          1269 1270 1271 1299 1300 1301
          1302 1303 1304 1305 1320 1321
          1322 1323 1324 1325 1326 1327
          1328 1329 1358 1359 1360 1361
          1362 1363 1364 1365 1366 1367
          1398 1399 1400 1401 1402 1403
          1404 1494 1495 1496 1497 1498
          1499 1500 1501 1502 1503 1598
          1599 1602 1603 1604 1607 1608
          1636 1637 1640 1641 1642 1643
          1644 1645 1646 1647 1648 1652
          1653 1684 1685 1686 1689 1695
          1696 1699 1700 1701 1702 1703
          1707 1708 1720 1721 1722 1723
          1724 1725 1726 1727 1729 1731
          1732 1733 2227 2234 2237 2239
          2240 2241 2242 2251 2255 2256
          2259 2260 2261 2262 2412 2414
          2416 2418 2419 2420 2421 2422
          2423 2424 2426 2428 2430 2432
          2433 2434 2435 2436 2437 2438
          2440 2442 2444 2446 2447 2448
          2449 2450 2451 2452 2454 2456
          2458 2460 2461 2462 2463 2464
          2465 2466 2476 2477 2480 2482
          2484 2485 2486 2487 2488 2489
          2490 2491 2492 2493 2495 2497
          2499 2501 2502 2503 2504 2505
          2506 2507 2679 2680 2681 2689
          2691 2692 2693 2694 2695 2696
          2697 2698 2699 2701 2702 2703
          2705 2706 2707 2708 2709 2710
          2711 2712 2713 2714 2715 2716
          2717 2718 2719 2720 2721 2722
          2723 2724 2725 2760 2761 2764
          2765 2767 2769 2916 2917 2918
          2919 2920 2921 2922 2923 2925
          2926 2927 2929 2930 2931 2932
          2933 2934 2935 2936 2937 2938
          2939 2940 2941 2942 2943 2944
          2945 2946 2947 2948 2949 2950
          2951 2953 2954 2955 2957 2958
          2959 2960 2961 2962 2963 2964
          2965 2966 2967 2968 2969 2970
          2971 2986 2988 2990 2992 3014
          3016 3018 3020 3451 3452 3453
          3454 3455 3456 3457 3458 3459
          3460 3461 3462 3463 3464 3465
          3466 3467 3468 3469 3470 3471
          3472 3473 3474 3475 3476 3477
          3478 3479 3480 3481 3482 3483
          3484 3485 3486 3489 3490 3492
          3494 3505 3507 3509 3511 466
          535 467 536 472 542 722
          723 726 728 834 835 459
          460 840 946 947 948 949
          950 952 955 1504 1508 1505
          1509 1511 1513 1605 1606 1609
          462 1372 1373 1649 1650 1374
          1651 1654 1377 1506 1704 1705
          1706 1709 1717 1718 1728 1719
          1730 1368 1370 2762 2763 2766
          2768 2987 2989 2991 1407 3015
          3017 3019 1411 3487 3488 3491
          3493 3506 3508 3510
        </DataArray>
        <DataArray type="Float64" Name="bounds" format="ascii" RangeMin="0" RangeMax="0">
          0 0 0 0 0 0
          0 0 0 0 0 0
          0 0 0 0 0 0
          0 0 0 0 0 0
          0 0 0 0 0 0
          0 0 0 0 0 0
          0 0 0 0 0 0
          0 0 0 0 0 0
          0 0 0 0 0 0
          0 0 0 0 0 0
          0 0 0 0 0 0
          0 0 0 0 0 0
          0 0 0 0 0 0
          0 0 0 0 0 0
          0 0 0 0 0 0
          0 0 0 0 0 0
          0 0 0 0 0 0
          0 0 0 0 0 0
          0 0 0 0 0 0
          0 0 0 0 0 0
          0 0 0 0 0 0
          0 0 0 0 0 0
          0 0 0 0 0 0
          0 0 0 0 0 0
          0 0 0 0 0 0
          0 0 0 0 0 0
          0 0 0 0 0 0
          0 0 0 0 0 0
          0 0 0 0 0 0
          0 0 0 0 0 0
          0 0 0 0 0 0
          0 0 0 0 0 0
          0 0 0 0 0 0
          0 0 0 0 0 0
          0 0 0 0 0 0
          0 0 0 0 0 0
          0 0 0 0 0 0
          0 0 0 0 0 0
          0 0 0 0 0 0
          0 0 0 0 0 0
          0 0 0 0 0 0
          0 0 0 0 0 0
          0 0 0 0 0 0
          0 0 0 0 0 0
          0 0 0 0 0 0
          0 0 0 0 0 0
          0 0 0 0 0 0
          0 0 0 0 0 0
          0 0 0 0 0 0
          0 0 0 0 0 0
          0 0 0 0 0 0
          0 0 0 0 0 0
          0 0 0 0 0 0
          0 0 0 0 0 0
          0 0 0 0 0 0
          0 0 0 0 0 0
          0 0 0 0 0 0
          0 0 0 0 0 0
          0 0 0 0 0 0
          0 0 0 0 0 0
          0 0 0 0 0 0
          0 0 0 0 0 0
          0 0 0 0 0 0
          0 0 0 0 0 0
          0 0 0 0 0 0
          0 0 0 0 0 0
          0 0 0 0 0 0
          0 0 0 0 0 0
          0 0 0 0 0 0
          0 0 0 0 0 0
          0 0 0 0
        </DataArray>
        <DataArray type="Float64" Name="gradient_error" format="ascii" RangeMin="5.539979518409334e-11" RangeMax="1.703953958578685e-8">
          2.039810968626399e-9 1.7136388196562258e-9 5.668659984782644e-9 1.5824872681719439e-9 2.693417052385833e-9 3.1951802511924518e-9
          2.3361353497555275e-9 1.246396944201162e-9 2.1537430101520143e-9 3.0610890761028666e-9 1.7748694536735202e-9 2.5716190347680186e-9
          3.076895663980493e-9 4.482604492146842e-9 4.121533518251511e-9 7.503653191470941e-10 4.868058513684267e-10 7.112665398353472e-10
          7.925579890470626e-10 9.38677626988403e-10 8.131661436233765e-10 1.449831754687304e-9 1.2269601799479179e-9 1.7738236383317625e-9
          1.2085267902464276e-9 9.826354054241339e-10 7.567440206018404e-10 1.8700188921515637e-9 1.5716371702709277e-9 1.3904765285458409e-9
          2.033228147126387e-9 4.695550088399828e-10 6.055026382888062e-10 1.834251061168683e-9 1.7686585189557556e-9 2.353847620341233e-9
          4.621174647293996e-9 2.991003690174762e-9 3.020520515528531e-9 8.652104297554972e-9 6.0873606121578164e-9 3.0561383920709797e-9
          1.8956915899942577e-9 1.0784541938615703e-8 7.777313184297303e-9 3.683939709893057e-9 3.618247174157872e-9 2.774486402340243e-9
          1.8665503009130792e-9 1.4989465498310275e-9 3.6593729451730682e-9 4.362446842054956e-9 2.3265964739481848e-9 2.9976286331268536e-9
          1.7007063796233322e-9 4.591044259502294e-9 9.592899376214856e-10 9.578823278676527e-10 4.808186183670878e-10 4.84082395947687e-10
          1.0993323773047213e-9 1.2410852432710065e-9 6.250750403864278e-10 1.7741886249670859e-9 9.3812795930827e-10 9.629794955967265e-10
          3.857366995741102e-9 2.142371672952671e-9 1.0885544000144966e-9 5.635945467670148e-10 5.060981636563762e-9 2.8725472846881506e-9
          1.3609646377106468e-9 9.689061512721764e-10 7.835464507752094e-10 4.876802652723741e-10 3.9124927838640137e-10 8.446877008867437e-10
          1.2029688916757302e-9 6.038346770814631e-10 8.990167377726766e-10 4.4773412349995494e-10 1.361164252002071e-9 9.644839812093388e-10
          2.014608464357876e-9 1.1625192071463818e-9 2.975877603356112e-10 6.06612874884004e-10 2.387651972447991e-10 3.696288067243533e-10
          1.2208572458936163e-9 1.8340016492663135e-9 1.062024510000252e-9 6.192506527418719e-10 9.477685134776574e-10 3.1667791711299276e-10
          4.801126939859542e-10 4.1160504951526147e-10 5.281034599696799e-10 2.7029523613038114e-10 1.492796774051131e-10 1.0020669996907887e-10
          1.2770052571257491e-10 1.1213436007596704e-9 2.46228239707069e-9 2.2618994206385426e-9 1.7569764509290423e-9 6.909674149832166e-10
          1.1690729177666876e-9 8.857093778816864e-10 5.55167514454434e-10 5.201225013727967e-10 1.2585172732894164e-9 1.1532855030722665e-9
          4.277593183158531e-10 8.904295802085989e-10 3.3360679997083554e-10 5.914337033020378e-10 1.6800278673037482e-10 2.962213999111058e-10
          2.9677245160112445e-10 4.500619790419948e-10 2.3037013219296216e-10 8.031389435876004e-11 5.539979518409334e-11 7.132871804114785e-11
          1.0660919811338462e-10 7.32412914860636e-11 1.525444062246207e-9 6.824742996166374e-9 2.7634431294852887e-9 1.828925655403674e-9
          5.693505854856742e-9 4.654187117655166e-9 3.744295087234335e-9 2.933279365774534e-9 8.554090304126993e-10 1.136391156066344e-9
          8.576074967472838e-10 2.310263107849039e-9 1.8070275631173472e-9 1.511958893668335e-9 1.0043509139426988e-8 6.623709233249773e-9
          1.3469039952464581e-8 8.592384283475363e-9 7.191726307523385e-9 5.504528559986704e-9 4.494757259383929e-9 1.1697166844673693e-8
          9.926740087267148e-9 7.329458414883223e-9 4.121679894259915e-9 2.403665152692656e-9 5.276031298731876e-9 3.3161744602374502e-9
          2.6360814426516086e-9 1.8818663526013944e-9 1.4598571486233006e-9 4.323141590488876e-9 3.4837083701991492e-9 2.4233023097452853e-9
          1.6090764819962766e-8 1.020228829731195e-8 1.703953958578685e-8 1.4093722097531587e-8 1.2029801043091326e-8 8.722629930123422e-9
          7.317074922653899e-9 1.4976949770140725e-8 1.2804620810328332e-8 9.242481738295512e-9 6.1432827877695895e-9 3.5155651412992343e-9
          6.4657964943742845e-9 5.087646576701378e-9 4.137947868968415e-9 2.8135045456396527e-9 2.2165929424549206e-9 5.373164992151261e-9
          4.383960038327042e-9 2.9579264319905046e-9 1.179038581017202e-9 1.3654434056308546e-9 1.0067583691573746e-9 1.7039714871928516e-9
          9.015044168103743e-10 1.042483658895988e-9 6.791952426339976e-10 7.895022952965311e-10 7.039141361120454e-10 7.605763923174601e-10
          5.67300084696404e-10 1.301867717010022e-9 9.933673538205734e-10 8.925883993658881e-10 1.9428675197093706e-9 1.3471879032032655e-9
          2.029640295277545e-9 1.490257419567896e-9 1.1420346053241998e-9 1.013473878491361e-9 7.640609958797613e-10 1.560242306097349e-9
          1.1971438509663176e-9 1.0590096067738208e-9 1.1576346162700538e-9 8.590991392509242e-10 8.874747664300593e-10 6.218871920645661e-10
          4.709908303172601e-10 2.146470786340658e-9 1.6233275893993718e-9 1.3991456812684007e-9 1.0450025755085068e-9 3.7054662123993684e-9
          2.8641329572884747e-9 2.3351717240769575e-9 1.193508307184594e-9 7.60417159589714e-10 5.389974643371757e-10 2.1450629320718187e-9
          1.3094893527907862e-9 6.374913237396632e-10 8.559278891163504e-10 4.681104298301739e-10 6.322200851678758e-10 4.940091205007909e-10
          6.393577240630343e-10 4.692480172531185e-10 1.3834383765760395e-9 1.0335776078617923e-9 8.77980561704317e-10 3.341131198799544e-10
          4.5510128553243946e-10 2.33972804430461e-10 3.202585156436755e-10 2.5617807683202473e-10 3.3519852374001397e-10 2.3485072839313483e-10
          7.526521957190509e-10 5.338283493866794e-10 4.670678197881285e-10 1.5983403564615073e-10 2.1963025165104226e-10 1.2177048554829357e-10
          1.6037573039606372e-10 3.682664211046614e-10 2.2553811109517158e-10 5.858014161488732e-9 4.625433457398386e-9 3.5769792701015307e-9
          2.7640274653614475e-9 8.211110807703955e-9 6.5947661491212715e-9 4.921097679193271e-9 3.5308809478143014e-9 2.0695460174455904e-9
          1.499882536443037e-9 5.118830264485533e-9 2.924968694234387e-9 2.048484615545784e-9 1.5500215516090074e-9 1.1093255312091318e-9
          8.243584395860525e-10 2.7406946624907418e-9 2.096521809876019e-9 1.4540772874128079e-9 1.1403646670800925e-9 8.150987976059915e-10
          5.976843881629754e-10 4.22657431038966e-10 1.556188793013174e-9 1.119977862666285e-9 7.939550033257476e-10 1.0018668290212998e-8
          8.12571668807543e-9 5.975492939553192e-9 4.728989935339768e-9 1.0681498367301069e-8 8.688485302492556e-9 6.3732380687520364e-9
          6.378942705736261e-9 3.616850192255282e-9 2.668873705704451e-9 6.848036816914704e-9 3.882516788049876e-9 3.281897993694013e-9
          2.528440720143198e-9 1.7100721753616363e-9 1.2864721641657228e-9 3.486863594839069e-9 2.693055448534365e-9 1.8060231595720835e-9
          1.888098745329552e-9 1.365382108898952e-9 9.419577842218808e-10 6.70702019746184e-10 2.0153342985397632e-9 1.4598936157608483e-9
          9.978820937600259e-10 5.657361936942754e-10 2.908305948201522e-10 7.815082839013495e-10 3.8932998257778146e-10 9.561632556502246e-10
          4.6427329241338093e-10 1.0236759563329124e-9 4.927311302906629e-10 5.016220363281019e-10 5.878819268673772e-10 3.671180659397597e-10
          4.309398723213831e-10 3.8219924538106994e-10 4.180660796195371e-10 3.043861964744537e-10 7.464232224502494e-10 5.494105836639142e-10
          4.98813104842899e-10 2.613129037205882e-10 3.0778794493140504e-10 1.82821895207242e-10 2.1533467744213804e-10 1.9599547643543953e-10
          2.1479371693075295e-10 1.489214841141461e-10 3.9411421633183643e-10 2.761543927587551e-10 2.577079130341268e-10 8.615366383553325e-10
          6.365404839699285e-10 5.69616110075281e-10 4.173115878280913e-10 9.043686492168192e-10 6.690214793150349e-10 5.955389243227683e-10
          4.578198759301626e-10 3.2142034764709046e-10 2.959946556530471e-10 2.0545490168151778e-10 4.816743053388742e-10 3.383793694537046e-10
          3.1016544266390697e-10 1.2467864600987631e-10 1.4731830577763419e-10 9.27095477776012e-11 1.0176371220225222e-10 1.8948973957124136e-10
          1.224062316932289e-10 2.207565465394779e-10 1.4079555696575915e-10 2.3249157948186515e-10 1.4759652717196377e-10 3.975728420788087e-10
          4.511747686826535e-10 6.621548345712481e-10 6.482495354954903e-10 9.529388589137838e-10 8.453243023083272e-10 2.0996906743984583e-10
          2.341910288158445e-10 3.813899068626491e-10 2.937737123405229e-10 2.651254030662413e-10 2.572021875502244e-10 3.295847782378183e-10
          2.7413178188173935e-10 2.492789720342076e-10 8.222082037163253e-10 7.024539489849338e-10 5.501762460606305e-10 4.578769509693684e-10
          1.7424147333339093e-10 1.3581045753028204e-10 1.7983116746264397e-10 2.2760515760863695e-10 2.0023429991769074e-10 1.8157117846132273e-10
          2.8016157116942355e-10 2.076128215906524e-10 3.150488939595365e-10 1.0043922364147085e-10 1.7183786943721412e-10 1.2686037777996108e-10
          1.885517371690084e-10 2.599117776259507e-10 2.917673771057114e-10 2.2523191468293377e-10 7.031309864527454e-11 1.2526028336900285e-10
          1.0043605721714229e-10 6.035017414244134e-11 2.2522648827717635e-10 1.2130345209206335e-10 2.604277968330829e-10 6.295936910155356e-10
          5.762045681610031e-10 4.4244405646786e-10 1.0333369381908987e-10 2.0740895268916307e-10 1.3786632821441146e-10 1.0561695205658054e-10
          8.820741786302367e-11 2.2297808924010085e-10 1.4359065058773082e-10 1.0744379959450406e-10 1.474127614667929e-10 1.0771996936640838e-10
          2.4744106137447545e-10 3.8159756254146714e-10 1.9505936433406006e-10 5.291189880500258e-10 2.614593128112717e-10 6.489834097654118e-10
          3.1225469301751485e-10 6.954235691038371e-10 3.3153850749279277e-10 8.399523566462922e-11 9.886312088980297e-11 6.889810230063413e-11
          1.2693040238517356e-10 1.480080328384253e-10 9.556009713033601e-11 1.5588626702148024e-10
        </DataArray>
        <DataArray type="Float64" Name="gradient_matprop_error" format="ascii" RangeMin="0" RangeMax="0">
          0 0 0 0 0 0
          0 0 0 0 0 0
          0 0 0 0 0 0
          0 0 0 0 0 0
          0 0 0 0 0 0
          0 0 0 0 0 0
          0 0 0 0 0 0
          0 0 0 0 0 0
          0 0 0 0 0 0
          0 0 0 0 0 0
          0 0 0 0 0 0
          0 0 0 0 0 0
          0 0 0 0 0 0
          0 0 0 0 0 0
          0 0 0 0 0 0
          0 0 0 0 0 0
          0 0 0 0 0 0
          0 0 0 0 0 0
          0 0 0 0 0 0
          0 0 0 0 0 0
          0 0 0 0 0 0
          0 0 0 0 0 0
          0 0 0 0 0 0
          0 0 0 0 0 0
          0 0 0 0 0 0
          0 0 0 0 0 0
          0 0 0 0 0 0
          0 0 0 0 0 0
          0 0 0 0 0 0
          0 0 0 0 0 0
          0 0 0 0 0 0
          0 0 0 0 0 0
          0 0 0 0 0 0
          0 0 0 0 0 0
          0 0 0 0 0 0
          0 0 0 0 0 0
          0 0 0 0 0 0
          0 0 0 0 0 0
          0 0 0 0 0 0
          0 0 0 0 0 0
          0 0 0 0 0 0
          0 0 0 0 0 0
          0 0 0 0 0 0
          0 0 0 0 0 0
          0 0 0 0 0 0
          0 0 0 0 0 0
          0 0 0 0 0 0
          0 0 0 0 0 0
          0 0 0 0 0 0
          0 0 0 0 0 0
          0 0 0 0 0 0
          0 0 0 0 0 0
          0 0 0 0 0 0
          0 0 0 0 0 0
          0 0 0 0 0 0
          0 0 0 0 0 0
          0 0 0 0 0 0
          0 0 0 0 0 0
          0 0 0 0 0 0
          0 0 0 0 0 0
          0 0 0 0 0 0
          0 0 0 0 0 0
          0 0 0 0 0 0
          0 0 0 0 0 0
          0 0 0 0 0 0
          0 0 0 0 0 0
          0 0 0 0 0 0
          0 0 0 0 0 0
          0 0 0 0 0 0
          0 0 0 0 0 0
          0 0 0 0
        </DataArray>
        <DataArray type="Float64" Name="initial_marker" format="ascii" RangeMin="0" RangeMax="2">
          0 0 0 0 0 0
          2 0 0 0 1.5 0
          0 0 0 0 1.25 2
          0 0 0 0 0 0
          0 0 0 0 0 0
          0 0 0 0 1.5 0
          2 2 1.5 2 2 2
          2 2 2 2 0 0.5
          0 0.25 0 0 0 1
          1 0 0 1.5 0 1.25
          0 0 0 2 2 1.5
          2 2 2 2 2 2
          2 0 0 0 0 0
          0 0 0 0 0 0
          0 0 0 0 0 0
          0 0 0 0 0 0
          0 0 0 0 0 0
          0 0 0 0 0 0
          0 0 0 0 0 0
          0 0 0 0 0 0
          0 0 0 0 0 0
          0 0 2 2 2 2
          2 2 2 2 1 1.5
          1 2 2 2 2 2
          2 2 2 2 2 2
          2 2 2 2 2 2
          2 2 2 2 2 2
          2 2 2 2 2 2
          2 2 2 2 2 2
          2 2 2 2 2 2
          2 2 1 1 0 1.5
          1 1 1 1 0 0
          0 1.5 1.25 1 2 2
          2 2 1.75 2 1.5 2
          2 2 2 2 2 2
          2 2 2 2 2 2
          2 2 2 2 2 2
          2 1 1.5 1 1.5 0
          1 1 2 2 2 1
          1.5 1 1.5 0 1 1
          2 2 2 1 1.5 0
          1 2 1.3333333333333333 2 2 2
          2 2 2 2 2 2
          2 2 2 2 2 2
          2 2 2 2 2 2
          2 1.75 2 2 2 2
          2 2 2 2 2 2
          2 2 2 2 2 2
          2 2 2 2 2 2
          2 2 2 2 2 2
          2 2 1.5 2 2 2
          2 2 2 1 1 1
          1 0 0 0 1 1
          0 1 1 0.5 0.75 0
          0 0 1 1 0 1.25
          1 0.5 0 1.5 1 1
          1 1 0 0 1 1
          0 0 0.5 0 0 1
          0 1 0 1 0 0
          0 0 0 0 0 0
          0 0 0 0 0 0
          0 0 0 0 0 0
          0 0 0 0 0 0
          0 0 0 0 0 0
          0 0 0 0 0 0
          0 0 0.75 0 0 0
          0 0 0 0 0 0
          0 0 0 0.5 1 0.5
          1.75 2 1.5 2 2 2
          2 2 2 0 0.5 0
          1 1 0 1
        </DataArray>
        <DataArray type="Float64" Name="markers_norefine" format="ascii" RangeMin="0" RangeMax="0">
          0 0 0 0 0 0
          0 0 0 0 0 0
          0 0 0 0 0 0
          0 0 0 0 0 0
          0 0 0 0 0 0
          0 0 0 0 0 0
          0 0 0 0 0 0
          0 0 0 0 0 0
          0 0 0 0 0 0
          0 0 0 0 0 0
          0 0 0 0 0 0
          0 0 0 0 0 0
          0 0 0 0 0 0
          0 0 0 0 0 0
          0 0 0 0 0 0
          0 0 0 0 0 0
          0 0 0 0 0 0
          0 0 0 0 0 0
          0 0 0 0 0 0
          0 0 0 0 0 0
          0 0 0 0 0 0
          0 0 0 0 0 0
          0 0 0 0 0 0
          0 0 0 0 0 0
          0 0 0 0 0 0
          0 0 0 0 0 0
          0 0 0 0 0 0
          0 0 0 0 0 0
          0 0 0 0 0 0
          0 0 0 0 0 0
          0 0 0 0 0 0
          0 0 0 0 0 0
          0 0 0 0 0 0
          0 0 0 0 0 0
          0 0 0 0 0 0
          0 0 0 0 0 0
          0 0 0 0 0 0
          0 0 0 0 0 0
          0 0 0 0 0 0
          0 0 0 0 0 0
          0 0 0 0 0 0
          0 0 0 0 0 0
          0 0 0 0 0 0
          0 0 0 0 0 0
          0 0 0 0 0 0
          0 0 0 0 0 0
          0 0 0 0 0 0
          0 0 0 0 0 0
          0 0 0 0 0 0
          0 0 0 0 0 0
          0 0 0 0 0 0
          0 0 0 0 0 0
          0 0 0 0 0 0
          0 0 0 0 0 0
          0 0 0 0 0 0
          0 0 0 0 0 0
          0 0 0 0 0 0
          0 0 0 0 0 0
          0 0 0 0 0 0
          0 0 0 0 0 0
          0 0 0 0 0 0
          0 0 0 0 0 0
          0 0 0 0 0 0
          0 0 0 0 0 0
          0 0 0 0 0 0
          0 0 0 0 0 0
          0 0 0 0 0 0
          0 0 0 0 0 0
          0 0 0 0 0 0
          0 0 0 0 0 0
          0 0 0 0
        </DataArray>
        <DataArray type="Float64" Name="markers_mustrefine" format="ascii" RangeMin="0" RangeMax="2">
          0 0 0 0 0 0
          2 0 0 0 1.5 0
          0 0 0 0 1.25 2
          0 0 0 0 0 0
          0 0 0 0 0 0
          0 0 0 0 1.5 0
          2 2 1.5 2 2 2
          2 2 2 2 0 0.5
          0 0.25 0 0 0 1
          1 0 0 1.5 0 1.25
          0 0 0 2 2 1.5
          2 2 2 2 2 2
          2 0 0 0 0 0
          0 0 0 0 0 0
          0 0 0 0 0 0
          0 0 0 0 0 0
          0 0 0 0 0 0
          0 0 0 0 0 0
          0 0 0 0 0 0
          0 0 0 0 0 0
          0 0 0 0 0 0
          0 0 2 2 2 2
          2 2 2 2 1 1.5
          1 2 2 2 2 2
          2 2 2 2 2 2
          2 2 2 2 2 2
          2 2 2 2 2 2
          2 2 2 2 2 2
          2 2 2 2 2 2
          2 2 2 2 2 2
          2 2 1 1 0 1.5
          1 1 1 1 0 0
          0 1.5 1.25 1 2 2
          2 2 1.75 2 1.5 2
          2 2 2 2 2 2
          2 2 2 2 2 2
          2 2 2 2 2 2
          2 1 1.5 1 1.5 0
          1 1 2 2 2 1
          1.5 1 1.5 0 1 1
          2 2 2 1 1.5 0
          1 2 1.3333333333333333 2 2 2
          2 2 2 2 2 2
          2 2 2 2 2 2
          2 2 2 2 2 2
          2 1.75 2 2 2 2
          2 2 2 2 2 2
          2 2 2 2 2 2
          2 2 2 2 2 2
          2 2 2 2 2 2
          2 2 1.5 2 2 2
          2 2 2 1 1 1
          1 0 0 0 1 1
          0 1 1 0.5 0.75 0
          0 0 1 1 0 1.25
          1 0.5 0 1.5 1 1
          1 1 0 0 1 1
          0 0 0.5 0 0 1
          0 1 0 1 0 0
          0 0 0 0 0 0
          0 0 0 0 0 0
          0 0 0 0 0 0
          0 0 0 0 0 0
          0 0 0 0 0 0
          0 0 0 0 0 0
          0 0 0.75 0 0 0
          0 0 0 0 0 0
          0 0 0 0.5 1 0.5
          1.75 2 1.5 2 2 2
          2 2 2 0 0.5 0
          1 1 0 1
        </DataArray>
        <DataArray type="Float64" Name="gradient_marker" format="ascii" RangeMin="1" RangeMax="1">
          1 1 1 1 1 1
          1 1 1 1 1 1
          1 1 1 1 1 1
          1 1 1 1 1 1
          1 1 1 1 1 1
          1 1 1 1 1 1
          1 1 1 1 1 1
          1 1 1 1 1 1
          1 1 1 1 1 1
          1 1 1 1 1 1
          1 1 1 1 1 1
          1 1 1 1 1 1
          1 1 1 1 1 1
          1 1 1 1 1 1
          1 1 1 1 1 1
          1 1 1 1 1 1
          1 1 1 1 1 1
          1 1 1 1 1 1
          1 1 1 1 1 1
          1 1 1 1 1 1
          1 1 1 1 1 1
          1 1 1 1 1 1
          1 1 1 1 1 1
          1 1 1 1 1 1
          1 1 1 1 1 1
          1 1 1 1 1 1
          1 1 1 1 1 1
          1 1 1 1 1 1
          1 1 1 1 1 1
          1 1 1 1 1 1
          1 1 1 1 1 1
          1 1 1 1 1 1
          1 1 1 1 1 1
          1 1 1 1 1 1
          1 1 1 1 1 1
          1 1 1 1 1 1
          1 1 1 1 1 1
          1 1 1 1 1 1
          1 1 1 1 1 1
          1 1 1 1 1 1
          1 1 1 1 1 1
          1 1 1 1 1 1
          1 1 1 1 1 1
          1 1 1 1 1 1
          1 1 1 1 1 1
          1 1 1 1 1 1
          1 1 1 1 1 1
          1 1 1 1 1 1
          1 1 1 1 1 1
          1 1 1 1 1 1
          1 1 1 1 1 1
          1 1 1 1 1 1
          1 1 1 1 1 1
          1 1 1 1 1 1
          1 1 1 1 1 1
          1 1 1 1 1 1
          1 1 1 1 1 1
          1 1 1 1 1 1
          1 1 1 1 1 1
          1 1 1 1 1 1
          1 1 1 1 1 1
          1 1 1 1 1 1
          1 1 1 1 1 1
          1 1 1 1 1 1
          1 1 1 1 1 1
          1 1 1 1 1 1
          1 1 1 1 1 1
          1 1 1 1 1 1
          1 1 1 1 1 1
          1 1 1 1 1 1
          1 1 1 1
        </DataArray>
        <DataArray type="Float64" Name="gradient_matprop_marker" format="ascii" RangeMin="0" RangeMax="0">
          0 0 0 0 0 0
          0 0 0 0 0 0
          0 0 0 0 0 0
          0 0 0 0 0 0
          0 0 0 0 0 0
          0 0 0 0 0 0
          0 0 0 0 0 0
          0 0 0 0 0 0
          0 0 0 0 0 0
          0 0 0 0 0 0
          0 0 0 0 0 0
          0 0 0 0 0 0
          0 0 0 0 0 0
          0 0 0 0 0 0
          0 0 0 0 0 0
          0 0 0 0 0 0
          0 0 0 0 0 0
          0 0 0 0 0 0
          0 0 0 0 0 0
          0 0 0 0 0 0
          0 0 0 0 0 0
          0 0 0 0 0 0
          0 0 0 0 0 0
          0 0 0 0 0 0
          0 0 0 0 0 0
          0 0 0 0 0 0
          0 0 0 0 0 0
          0 0 0 0 0 0
          0 0 0 0 0 0
          0 0 0 0 0 0
          0 0 0 0 0 0
          0 0 0 0 0 0
          0 0 0 0 0 0
          0 0 0 0 0 0
          0 0 0 0 0 0
          0 0 0 0 0 0
          0 0 0 0 0 0
          0 0 0 0 0 0
          0 0 0 0 0 0
          0 0 0 0 0 0
          0 0 0 0 0 0
          0 0 0 0 0 0
          0 0 0 0 0 0
          0 0 0 0 0 0
          0 0 0 0 0 0
          0 0 0 0 0 0
          0 0 0 0 0 0
          0 0 0 0 0 0
          0 0 0 0 0 0
          0 0 0 0 0 0
          0 0 0 0 0 0
          0 0 0 0 0 0
          0 0 0 0 0 0
          0 0 0 0 0 0
          0 0 0 0 0 0
          0 0 0 0 0 0
          0 0 0 0 0 0
          0 0 0 0 0 0
          0 0 0 0 0 0
          0 0 0 0 0 0
          0 0 0 0 0 0
          0 0 0 0 0 0
          0 0 0 0 0 0
          0 0 0 0 0 0
          0 0 0 0 0 0
          0 0 0 0 0 0
          0 0 0 0 0 0
          0 0 0 0 0 0
          0 0 0 0 0 0
          0 0 0 0 0 0
          0 0 0 0
        </DataArray>
        <DataArray type="Float64" Name="combo" format="ascii" RangeMin="1" RangeMax="1">
          1 1 1 1 1 1
          1 1 1 1 1 1
          1 1 1 1 1 1
          1 1 1 1 1 1
          1 1 1 1 1 1
          1 1 1 1 1 1
          1 1 1 1 1 1
          1 1 1 1 1 1
          1 1 1 1 1 1
          1 1 1 1 1 1
          1 1 1 1 1 1
          1 1 1 1 1 1
          1 1 1 1 1 1
          1 1 1 1 1 1
          1 1 1 1 1 1
          1 1 1 1 1 1
          1 1 1 1 1 1
          1 1 1 1 1 1
          1 1 1 1 1 1
          1 1 1 1 1 1
          1 1 1 1 1 1
          1 1 1 1 1 1
          1 1 1 1 1 1
          1 1 1 1 1 1
          1 1 1 1 1 1
          1 1 1 1 1 1
          1 1 1 1 1 1
          1 1 1 1 1 1
          1 1 1 1 1 1
          1 1 1 1 1 1
          1 1 1 1 1 1
          1 1 1 1 1 1
          1 1 1 1 1 1
          1 1 1 1 1 1
          1 1 1 1 1 1
          1 1 1 1 1 1
          1 1 1 1 1 1
          1 1 1 1 1 1
          1 1 1 1 1 1
          1 1 1 1 1 1
          1 1 1 1 1 1
          1 1 1 1 1 1
          1 1 1 1 1 1
          1 1 1 1 1 1
          1 1 1 1 1 1
          1 1 1 1 1 1
          1 1 1 1 1 1
          1 1 1 1 1 1
          1 1 1 1 1 1
          1 1 1 1 1 1
          1 1 1 1 1 1
          1 1 1 1 1 1
          1 1 1 1 1 1
          1 1 1 1 1 1
          1 1 1 1 1 1
          1 1 1 1 1 1
          1 1 1 1 1 1
          1 1 1 1 1 1
          1 1 1 1 1 1
          1 1 1 1 1 1
          1 1 1 1 1 1
          1 1 1 1 1 1
          1 1 1 1 1 1
          1 1 1 1 1 1
          1 1 1 1 1 1
          1 1 1 1 1 1
          1 1 1 1 1 1
          1 1 1 1 1 1
          1 1 1 1 1 1
          1 1 1 1 1 1
          1 1 1 1
        </DataArray>
        <DataArray type="Float64" Name="dHdT" format="ascii" RangeMin="25.81200660709935" RangeMax="35.329331598442955">
          25.82441835328537 25.815292020426 25.848349761053157 25.82034286726656 25.93192677683809 25.830375655756264
          26.77857325550135 25.814396629938166 25.816106610010962 25.81781659008376 26.24821389532509 25.855131501535574
          25.89659894327285 25.861666875580884 25.932061190581205 25.84327409570217 25.925626657752108 26.082120253613887
          25.825561196246316 25.83700988799874 25.8227063606084 25.829653207891898 25.846813883349007 25.833359745223238
          25.812946814593282 25.812644034101982 25.812341253610686 25.832290264405223 25.863402352974873 25.853868402101355
          25.843194759211354 25.817623912164876 25.821535582870162 25.984190037973626 26.251871690971235 26.029831135032165
          27.877818304055147 27.038616289460244 26.5931266213691 30.242094339381268 28.45496236974839 27.157229794229803
          26.59775854601772 31.868923750949925 29.434765074680033 27.441823790410307 26.14381293890658 26.23407912912388
          25.986590283819524 26.046097461989277 26.037765263939605 26.098909163514918 25.971839573174147 26.28875576466035
          26.081448940643874 26.126616019760185 25.90015104043296 26.04510025234994 25.855176651448602 25.926060713475024
          25.88625889818243 25.924617107677744 25.867564216627194 26.49924380386041 26.161215597162364 26.043424830077196
          27.324947660329432 26.604799289309618 26.243220213156533 26.026935750246256 27.871018806019443 26.8960700927634
          26.348679469210815 25.903069404935117 25.934782464636836 25.857414522193267 25.87293354788481 25.875734671974737
          25.897202043254854 25.85519609005874 25.953880565082144 25.882428328105703 25.907133350755704 25.8218462423781
          25.834209968017177 25.82558944635723 25.816105587011794 25.819593450343753 25.815508832689723 25.817487441672984
          25.903575521084758 25.938146574355073 25.89377506220589 25.8598571875834 25.877756260456273 25.83630913185432
          25.8450720229895 25.846797404046225 25.855498006120847 25.834372232320874 25.823766939227653 25.821067554767545
          25.82302958344638 25.88742626108987 25.974339812670916 25.961330278233227 25.92944835038889 25.862691396022846
          25.89604418407601 25.881512411169783 25.854111469895393 25.851427703013858 25.895229780066547 25.888299919000765
          25.84491597776207 25.871663728578504 25.838354174215837 25.85498415069077 25.825406545421984 25.83335038131927
          25.835620329039862 25.84801090215951 25.830112485339445 25.818548905176417 25.816329214839833 25.818006340187594
          25.820625338892185 25.817585193709597 26.457545713336614 29.067723083995237 26.946759203237 26.57138021306256
          28.33485235053411 27.759153976463605 27.408781439768482 27.10607265053931 26.198816591442736 26.305555219821763
          26.198495057185188 26.801456405226638 26.56190241746506 26.491126173324307 31.15871475021112 28.93541429536119