<?xml version="1.0"?>
<VTKFile type="UnstructuredGrid" version="0.1" byte_order="LittleEndian" header_type="UInt32" compressor="vtkZLibDataCompressor">
  <UnstructuredGrid>
    <Piece NumberOfPoints="414" NumberOfCells="224">
      <PointData>
        <DataArray type="Int32" Name="libmesh_node_id" format="ascii" RangeMin="359" RangeMax="2445">
          455 456 644 645 646 647
          649 650 651 652 654 655
          656 657 672 673 676 677
          679 681 926 927 928 929
          933 934 1142 1143 1146 1147
          1148 1149 1151 1154 1156 1157
          1158 1159 1160 1161 1162 1163
          1164 1165 1166 1167 1168 1169
          1170 1171 1172 1173 1174 1175
          1176 1178 1179 1180 1181 1182
          1183 1184 1185 1186 1187 1188
          1189 1192 1193 1195 1198 1200
          1201 1202 1203 1204 1205 1206
          1207 1208 1209 1211 1212 1213
          1215 1216 1217 1218 1219 1221
          1222 1223 1272 1273 1278 1279
          1281 1928 1929 1930 1931 1935
          1936 1937 1938 1939 1940 1941
          1942 1943 1944 1945 1946 1947
          1948 1949 1950 1951 1962 1963
          1964 1965 1966 1967 1968 1969
          1970 1971 1979 1980 1981 1982
          1983 1984 1985 1996 1997 1998
          1999 2000 2001 2002 2003 2004
          2005 2013 2014 2015 2016 2017
          2018 2019 2020 2021 2022 2023
          2024 2025 2026 2027 2028 2029
          2030 2031 2032 2033 2034 2035
          2036 2037 2038 2039 2040 2041
          2042 2043 2044 2045 2046 2047
          2048 2049 2050 2051 2052 2053
          2054 2055 2056 2057 2058 2059
          2060 2061 2062 2063 2064 2065
          2066 2067 2068 2069 2070 2071
          2072 2073 2074 2075 2076 2077
          2078 2079 2080 2081 2082 2083
          2084 2085 2086 2087 2097 2098
          2099 2100 2108 2109 2110 2263
          2264 2265 2266 2267 2268 2269
          2270 2271 2272 2283 2284 2285
          2286 2287 2288 2289 2297 2298
          2299 2300 2301 2302 2303 2304
          2305 2306 2317 2318 2319 2320
          2321 2322 2323 2407 435 446
          452 360 437 448 453 440
          526 516 368 458 532 523
          636 615 637 674 653 675
          640 678 443 642 680 807
          824 825 808 359 445 920
          921 922 930 931 932 925
          935 436 610 447 648 1078
          1079 1144 1145 1080 1150 1083
          1152 1153 1155 1100 1101 1104
          612 1177 1106 1194 1210 1136
          1138 1199 1214 1140 1220 1224
          1225 1226 1227 1231 1232 1234
          1235 1237 1252 1253 1256 1257
          1259 1261 1276 1292 1294 1296
          1277 1293 669 1297 1298 1311
          1307 1317 1309 1926 1954 1955
          1957 1190 1960 1191 1933 1973
          1975 1977 1988 1989 1991 1196
          1994 1197 2007 2009 2011 2104
          2105 2273 2274 2107 2277 2279
          2280 2282 2113 2290 2115 2292
          2294 2296 2307 2308 2311 2313
          2314 2316 2324 2326 2328 2330
          2357 2415 2401 2327 2387 2439
          2405 2391 2443 2441 2406 2445
        </DataArray>
        <DataArray type="Float64" Name="bounds" format="ascii" RangeMin="0" RangeMax="0">
          0 0 0 0 0 0
          0 0 0 0 0 0
          0 0 0 0 0 0
          0 0 0 0 0 0
          0 0 0 0 0 0
          0 0 0 0 0 0
          0 0 0 0 0 0
          0 0 0 0 0 0
          0 0 0 0 0 0
          0 0 0 0 0 0
          0 0 0 0 0 0
          0 0 0 0 0 0
          0 0 0 0 0 0
          0 0 0 0 0 0
          0 0 0 0 0 0
          0 0 0 0 0 0
          0 0 0 0 0 0
          0 0 0 0 0 0
          0 0 0 0 0 0
          0 0 0 0 0 0
          0 0 0 0 0 0
          0 0 0 0 0 0
          0 0 0 0 0 0
          0 0 0 0 0 0
          0 0 0 0 0 0
          0 0 0 0 0 0
          0 0 0 0 0 0
          0 0 0 0 0 0
          0 0 0 0 0 0
          0 0 0 0 0 0
          0 0 0 0 0 0
          0 0 0 0 0 0
          0 0 0 0 0 0
          0 0 0 0 0 0
          0 0 0 0 0 0
          0 0 0 0 0 0
          0 0 0 0 0 0
          0 0 0 0 0 0
          0 0 0 0 0 0
          0 0 0 0 0 0
          0 0 0 0 0 0
          0 0 0 0 0 0
          0 0 0 0 0 0
          0 0 0 0 0 0
          0 0 0 0 0 0
          0 0 0 0 0 0
          0 0 0 0 0 0
          0 0 0 0 0 0
          0 0 0 0 0 0
          0 0 0 0 0 0
          0 0 0 0 0 0
          0 0 0 0 0 0
          0 0 0 0 0 0
          0 0 0 0 0 0
          0 0 0 0 0 0
          0 0 0 0 0 0
          0 0 0 0 0 0
          0 0 0 0 0 0
          0 0 0 0 0 0
          0 0 0 0 0 0
          0 0 0 0 0 0
          0 0 0 0 0 0
          0 0 0 0 0 0
          0 0 0 0 0 0
          0 0 0 0 0 0
          0 0 0 0 0 0
          0 0 0 0 0 0
          0 0 0 0 0 0
          0 0 0 0 0 0
        </DataArray>
        <DataArray type="Float64" Name="gradient_error" format="ascii" RangeMin="3.3966089814367415e-9" RangeMax="1.8371379656544254e-7">
          1.1690564845279584e-8 1.0282694064444653e-7 1.0174639635848909e-7 8.035684241369303e-8 7.488866068511005e-8 8.378280653095708e-8
          7.867108654269016e-8 8.156944648267234e-8 8.15706077343271e-8 1.2331068737318555e-7 9.106851346668905e-9 8.46232704286756e-8
          9.831550600027547e-8 1.6619185878743295e-7 7.927693663157726e-8 1.090407677656982e-7 2.7888176638546433e-8 3.256910190753495e-8
          1.3880459889981914e-7 3.725002717652348e-8 1.3547816380188814e-8 1.5414627515547983e-8 7.619432038207021e-8 6.38608035324075e-8
          1.7281438650907155e-8 5.1527286682744787e-8 6.781320012408539e-8 6.336274461477334e-8 6.013616143552492e-8 9.645874862488607e-8
          8.986888806891247e-8 5.191653167353398e-8 7.18923305415922e-8 7.031894975286105e-8 5.908879770243685e-8 5.470625561767176e-8
          9.569463141997606e-8 8.827497013587675e-8 4.733213633803174e-8 9.047311694016279e-8 8.264852075843418e-8 4.3336553292828176e-8
          6.859458250806749e-8 6.246759652712789e-8 7.85107341476719e-8 7.277392883313113e-8 7.169983255782554e-8 8.46733195098362e-8
          3.85812548848749e-8 5.192203520528105e-8 3.473302394100279e-8 4.9121196184533635e-8 3.2241735528143145e-8 4.1254889488389644e-8
          3.773675879882174e-8 8.198894906318012e-8 6.307800581640107e-8 3.013587215463854e-8 4.485056357472961e-8 2.495387984523119e-8
          3.9206917719435446e-8 2.3922351256527406e-8 3.336727098510171e-8 2.830256696132069e-8 8.040325183646616e-8 7.553151453944125e-8
          5.7171249562433854e-8 1.594819034081251e-8 1.7182946205186444e-8 7.926673326467012e-8 1.4255122312339713e-8 2.0145150464761427e-8
          2.1040454688774907e-8 2.410162375875589e-8 2.4834174944910763e-8 8.537640050123658e-8 8.815846810327401e-8 1.0614243380536169e-8
          1.7854783338670696e-8 2.1149969389372457e-8 9.31826111911624e-8 1.1110650768282239e-7 8.362929342087874e-8 8.352095173145884e-8
          1.2174448566734898e-7 9.137061865759146e-8 1.1425075147525542e-7 1.1258069960296543e-7 8.044991337138263e-8 1.2726025427239916e-7
          1.2755832572068808e-7 8.936951833157355e-8 2.74056263174736e-8 2.7786406654693624e-8 1.2720148111199572e-8 2.3501801951710464e-8
          9.802120570579435e-8 2.0012653791038362e-8 1.9930831045895085e-8 2.1441985230328286e-8 1.9597719924495147e-8 1.8397957462530642e-8
          1.9578001613967347e-8 1.74494833768228e-8 2.3075197442585802e-8 2.2987531301399396e-8 2.4545156252187274e-8 2.2428855369521285e-8
          2.636087664717369e-8 2.6017554382232642e-8 2.720087960825994e-8 2.4751040191462183e-8 2.065655937479585e-8 2.1537451162757273e-8
          1.935527317076212e-8 2.2118566705312485e-8 2.2322826157905584e-8 2.0409285144992194e-8 1.7398778765717e-8 1.7565961291881906e-8
          1.9148508515972506e-8 1.9236590274097874e-8 1.813304066770256e-8 1.961961149960054e-8 1.3957162916316337e-8 1.4324352224956183e-8
          1.6261974634663684e-8 1.5422350396851208e-8 1.8412848787056442e-8 1.966079978506574e-8 1.829276005675457e-8 1.9407048603153625e-8
          1.7320084924508066e-8 1.881576818850618e-8 1.848701058890974e-8 1.0694846125624612e-8 1.1629885771331062e-8 1.210900372491172e-8
          1.325170174821236e-8 1.334156302609198e-8 1.520903826346678e-8 8.26027015901219e-9 9.812158630618492e-9 1.1010649544964808e-8
          1.250678666939152e-8 1.559654925109018e-8 1.7288447549379875e-8 1.7074897867033912e-8 1.855321834333919e-8 1.4980668764746463e-8
          1.6688956677911507e-8 1.6311811292934688e-8 2.0979929982063195e-8 2.0994355160781097e-8 2.2833535866538692e-8 2.2776324933440246e-8
          2.116306335749233e-8 2.271256289831508e-8 1.8042731698021037e-8 1.832062960430062e-8 2.0409214417113007e-8 1.9078413147468502e-8
          2.4621568537474197e-8 2.4499212333485942e-8 2.620815499176955e-8 2.60399381150445e-8 2.4189196245387607e-8 2.5473377839490903e-8
          2.2179216152900914e-8 2.2449048015938728e-8 2.437817845317111e-8 2.2990610567252617e-8 2.0892479090518245e-8 2.205713291116013e-8
          2.0467611805550836e-8 2.1408254026031897e-8 2.040332193213198e-8 2.2054421215715077e-8 2.1248345079907166e-8 2.3077605193462034e-8
          2.3844956630208307e-8 2.2153674025646546e-8 2.2614878819754263e-8 2.3704329617920988e-8 2.5212492648587255e-8 2.4146317980313292e-8
          1.3546515515972968e-8 1.492131620464363e-8 1.4979237867405086e-8 1.6587644153754134e-8 1.715882238031281e-8 1.910736996588542e-8
          9.892230157444453e-9 1.220255222084881e-8 1.336435308797546e-8 1.6058089811151992e-8 1.6385157922433932e-8 1.8200142050751507e-8
          1.760645007183775e-8 1.9647570202433996e-8 2.096513818709143e-8 2.265316176851331e-8 1.1294143966840733e-8 1.4483058354364803e-8
          1.541778012035484e-8 1.9576407538990666e-8 1.9100210870363854e-8 2.0968347898690252e-8 2.0178893873416373e-8 2.1918006305712845e-8
          1.852217668270439e-8 2.0404668025513337e-8 1.9441048027357964e-8 2.2804881455897316e-8 2.450204101794458e-8 2.3694612716680857e-8
          2.5386448831892783e-8 2.2237747357564244e-8 2.3946183841225693e-8 2.2994652379036034e-8 2.8599665620787053e-8 2.7903261624935977e-8
          2.789737116049315e-8 2.5693677227212126e-8 2.2166646594204044e-8 2.1602264444554418e-8 2.0152796363068735e-8 2.7497890571074676e-8
          2.7282371420132446e-8 2.8448527075695497e-8 2.8141124897084786e-8 2.6428130842887997e-8 2.6957249808066577e-8 2.586083942282108e-8
          2.613158290767334e-8 2.7624382944774864e-8 2.6454757931539723e-8 2.4247685488737728e-8 2.4186798693564254e-8 2.270596156088968e-8
          2.2292820489469426e-8 2.6396250145623725e-8 2.7187445032692527e-8 2.6285310820693604e-8 1.8612970159536286e-8 2.0893850580062314e-8
          1.9675107825936288e-8 2.2008254484398577e-8 2.4119926660907357e-8 2.5276345675772763e-8 1.1900376994792718e-8 1.6186016560106868e-8
          1.7152621712923852e-8 2.2492921917299137e-8 2.5955015142404256e-8 2.707632859359046e-8 2.684490796358214e-8 2.794136697849627e-8
          2.544625437683248e-8 2.6549100064369965e-8 2.6378321044487705e-8 2.0602821061425137e-8 3.1527543936944e-8 2.2610067419361876e-8
          2.4900105946320354e-8 2.6551804217679257e-8 1.0140102504385964e-7 5.949482906633278e-8 2.693310478138182e-8 4.446503329322251e-8
          6.054021227855734e-9 1.571884843200309e-8 5.0669958077320936e-8 1.9959291549647465e-8 9.388502136815978e-9 2.3332908235715775e-8
          8.056446350940643e-8 1.4269231953195258e-7 1.354221487437618e-7 3.915855529407628e-8 7.79241962623638e-8 6.116362750022275e-8
          4.869405554653685e-8 1.9335386990523377e-8 1.8371379656544254e-7 1.6782549565725977e-7 6.987157316792364e-8 9.782113874112636e-9
          4.480031224614182e-9 3.3966089814367415e-9 7.2703913868336965e-9 2.0467431927636486e-8 7.515462800716114e-9 2.3843761332294587e-8
          1.0133794380339521e-7 8.596367238144479e-8 8.769905671026027e-9 5.044208769124554e-8 4.184018116324293e-8 5.8603245150645916e-8
          2.554472590150132e-8 1.2404023913297982e-7 1.0093834420086087e-7 7.249204672393847e-8 5.5943388746205935e-8 6.448680638541209e-8
          8.934254828384432e-8 9.393415912470127e-8 8.830991755366006e-8 8.464229419544461e-8 7.263742845239565e-8 7.135697950115669e-8
          6.93097084311585e-8 6.572609069206316e-8 8.005590405048587e-8 4.1232503274964735e-8 5.315150235301024e-8 4.353108581075197e-8
          7.477238596995773e-8 8.086926238692443e-8 7.787262054882061e-8 7.15931398219926e-8 1.0480275726731512e-7 9.698657799963874e-8
          8.135730343383158e-8 7.497655464355599e-8 1.1312980528646857e-7 1.03298416332692e-7 5.798713712696202e-8 4.215389126831759e-8
          3.877351283361428e-8 8.055317468397399e-8 7.293900566649102e-8 2.993960328462438e-8 5.3799255080196037e-8 7.383416357837357e-8
          6.624853710297437e-8 7.408130761099188e-8 1.953665606804373e-8 3.259303206004e-8 1.4587239965749664e-8 2.291239060869598e-8
          6.745813731057677e-8 3.613344034705169e-8 8.579057962009632e-8 1.052699382434272e-7 4.478246261521081e-8 1.2127300991773713e-7
          5.234137720653025e-8 5.5601566512522574e-8 6.10064380417249e-8 6.512629629247109e-8 5.098353533566522e-8 1.873290832407954e-8
          2.1493438533130954e-8 2.1273084435092537e-8 2.460991787484246e-8 1.8475332180383033e-8 1.579482677633485e-8 1.6036379583691076e-8
          1.6738376891079383e-8 1.2143664905034428e-8 1.2573297284261441e-8 1.3837790359544956e-8 1.7223665793332175e-8 1.7187524050084147e-8
          1.7176226709056826e-8 1.5941354792917558e-8 9.317934332539004e-9 1.0087212824094219e-8 1.162195775025798e-8 7.373893670679008e-9
          8.625258066664675e-9 1.0849997672005264e-8 1.4087536202781106e-8 1.5787648220695688e-8 1.3443745126563219e-8 2.8053738318720366e-8
          2.7156823936812176e-8 2.889849266835767e-8 2.8497852331927583e-8 2.444849500475546e-8 2.7006896270262066e-8 2.8582080070383114e-8
          2.8710898044084748e-8 2.875339292504928e-8 2.0518056039713792e-8 2.3607268791278777e-8 1.839903162482065e-8 2.129795703753091e-8
          2.7557949590966e-8 2.644882934961983e-8 2.0784835720012033e-8 2.2944581836514724e-8 2.6030499560811696e-8 1.4148758317252818e-8
          1.8306248311902934e-8 2.411951080729351e-8 2.7764939558069267e-8 2.8573207947532543e-8 2.7110461477050283e-8 2.8445639646066595e-8
          2.1226672111921904e-8 1.5264280296917368e-8 1.6179621354035673e-8 2.6157539284050246e-8 2.444919252706123e-8 1.8088339823865327e-8
          1.9120249459471386e-8 2.5395561923955546e-8 1.9311877480548378e-8 1.1929132781302133e-8 1.2892501140514641e-8 1.2710106079559469e-8
        </DataArray>
        <DataArray type="Float64" Name="gradient_matprop_error" format="ascii" RangeMin="0" RangeMax="0">
          0 0 0 0 0 0
          0 0 0 0 0 0
          0 0 0 0 0 0
          0 0 0 0 0 0
          0 0 0 0 0 0
          0 0 0 0 0 0
          0 0 0 0 0 0
          0 0 0 0 0 0
          0 0 0 0 0 0
          0 0 0 0 0 0
          0 0 0 0 0 0
          0 0 0 0 0 0
          0 0 0 0 0 0
          0 0 0 0 0 0
          0 0 0 0 0 0
          0 0 0 0 0 0
          0 0 0 0 0 0
          0 0 0 0 0 0
          0 0 0 0 0 0
          0 0 0 0 0 0
          0 0 0 0 0 0
          0 0 0 0 0 0
          0 0 0 0 0 0
          0 0 0 0 0 0
          0 0 0 0 0 0
          0 0 0 0 0 0
          0 0 0 0 0 0
          0 0 0 0 0 0
          0 0 0 0 0 0
          0 0 0 0 0 0
          0 0 0 0 0 0
          0 0 0 0 0 0
          0 0 0 0 0 0
          0 0 0 0 0 0
          0 0 0 0 0 0
          0 0 0 0 0 0
          0 0 0 0 0 0
          0 0 0 0 0 0
          0 0 0 0 0 0
          0 0 0 0 0 0
          0 0 0 0 0 0
          0 0 0 0 0 0
          0 0 0 0 0 0
          0 0 0 0 0 0
          0 0 0 0 0 0
          0 0 0 0 0 0
          0 0 0 0 0 0
          0 0 0 0 0 0
          0 0 0 0 0 0
          0 0 0 0 0 0
          0 0 0 0 0 0
          0 0 0 0 0 0
          0 0 0 0 0 0
          0 0 0 0 0 0
          0 0 0 0 0 0
          0 0 0 0 0 0
          0 0 0 0 0 0
          0 0 0 0 0 0
          0 0 0 0 0 0
          0 0 0 0 0 0
          0 0 0 0 0 0
          0 0 0 0 0 0
          0 0 0 0 0 0
          0 0 0 0 0 0
          0 0 0 0 0 0
          0 0 0 0 0 0
          0 0 0 0 0 0
          0 0 0 0 0 0
          0 0 0 0 0 0
        </DataArray>
        <DataArray type="Float64" Name="initial_marker" format="ascii" RangeMin="0" RangeMax="2">
          2 2 1 1 2 2
          2 2 0 1.5 2 2
          2 2 0 0.5 0 0
          1 0 0 0 0 0
          0 0 2 2 2 2
          2 2 2 2 2 2
          2 2 2 2 2 2
          2 2 2 2 2 2
          1 1.5 1 1.5 0 1
          1 2 2 1 1.5 1
          1.5 0 1 1 2 2
          2 2 2 2 2 2
          2 2 2 2 2 2
          2 2 2 2 2 2
          2 2 2 2 2 2
          2 2 2 2 2 2
          2 2 2 2 2 2
          2 2 2 2 2 2
          2 2 2 2 2 2
          2 2 2 2 2 2
          2 2 2 2 2 2
          2 2 2 2 2 2
          2 2 2 2 2 2
          2 2 2 2 2 2
          2 2 2 2 2 2
          2 2 2 2 2 2
          2 2 2 2 2 2
          2 2 2 2 2 2
          2 2 2 2 2 2
          2 2 2 2 2 2
          2 2 2 2 2 2
          2 2 2 2 2 2
          2 2 2 2 2 2
          2 2 2 2 2 2
          2 2 2 2 2 2
          2 2 2 2 2 2
          2 2 2 2 2 2
          2 2 2 2 2 2
          2 2 2 2 2 2
          2 2 2 2 2 2
          2 2 2 2 2 2
          2 2 2 2 2 2
          2 2 2 2 2 2
          2 2 2 2 0 0
          0 0 0 0 0 0
          0 0 0 0 0 0
          0 1.5 0.5 0 1.5 0.25
          0 0 2 1 0.5 0
          0 0 0 0 0 0
          0 0 0 0 0 0
          0 1 1 1 1 2
          2 2 2 2 2 2
          2 2 2 1 1.5 1
          2 2 2 2 2 2
          2 2 2 2 2 2
          2 2 2 2 2 2
          2 2 1 1.5 0 1
          2 2 2 2 2 2
          2 2 2 2 2 1
          1 1 1 2 2 2
          2 2 2 2 2 2
          2 2 2 2 2 2
          2 2 2 2 2 2
          2 2 2 2 2 2
          2 2 2 2 2 2
          2 2 2 2 2 2
          2 2 2 2 2 2
          2 2 2 2 2 2
          2 2 2 2 2 2
        </DataArray>
        <DataArray type="Float64" Name="markers_norefine" format="ascii" RangeMin="0" RangeMax="2">
          2 0 0 0 1 0
          1 0 0 0 2 1
          1 0 0 0 0 0
          0 0 0 0 0 0
          0 0 0 0 0 0
          0 0 0 0.5 0 0
          0 0 0 0 0 0
          0 0 1 0.5 0 0
          0 0 0 0 0 0
          0 0 0 0 0 0
          0 0 0 0 0 0
          0 2 2 0.5 2 2
          2 2 2 0.5 0.5 2
          2 2 1 0 0 0
          0 0 0 0 0 0
          0 0 2 2 2 2
          1 2 1.5 2 0.5 0
          0 0 2 2 2 1
          2 1.5 1 0.5 0 0
          0 0 0 0 2 1.75
          2 2 1.25 1.5 2 2
          2 2 0.5 0.5 0 0
          1.5 1.5 1 2 2 2
          2 2 2 2 2 2
          2 2 2 2 2 2
          2 2 2 2 2 2
          1.5 1.5 2 2 2 2
          2 1.75 2 1.5 1.25 1
          2 2 2 2 0.5 0.5
          0 0 1.5 1.5 1 0.5
          0.5 0 0 1.5 1.5 1
          2 2 2 2 2 2
          2 2 2 2 2 2
          2 2 2 2 2 2
          2 2 2 2 2 2
          2 2 2 2 2 2
          2 2 2 2 1 0.5
          0 0 0 0 0 1.5
          1.25 1 1 1 1 2
          2 2 2 0.5 0.5 0
          0 1.5 1.5 1 2 2
          2 2 2 2 2 2
          2 2 2 2 2 2
          2 2 2 0 0 0
          0 0 0 0 0 0
          0 0 0 0 0 0
          0 0 0 0 0 0
          0 0 0 0 0 0
          0 0 0 0 0 0
          0 0 0 0 0 0
          0 0 0 0 0 0
          0 0 0 0 0 0
          1 0 0 0 0 0
          0 0 0 0.5 0 0
          0 1 0 0 0 0
          0 0 0 0 0 0
          0 0 0 0 0 0
          0 0 0.5 0 0 0
          0.25 0 1 0 0 0
          0 0 0 1 2 1.5
          1 2 2 2 0 0.5
          0 1.5 2 2 2 2
          2 2 2 2 2 0
          0 1 1 0 1 2
          2 2 0 0.5 0 0
          1.5 1 2 2 2 2
          2 2 2 2 2 2
          0 0 0 1 0.25 0
          0 0.5 0 0 0 0
        </DataArray>
        <DataArray type="Float64" Name="markers_mustrefine" format="ascii" RangeMin="0" RangeMax="2">
          2 2 1 1 2 2
          2 2 0 1.5 2 2
          2 2 0 0.5 0 0
          1 0 0 0 0 0
          0 0 2 2 2 2
          2 2 2 2 2 2
          2 2 2 2 2 2
          2 2 2 2 2 2
          1 1.5 1 1.5 0 1
          1 2 2 1 1.5 1
          1.5 0 1 1 2 2
          2 2 2 2 2 2
          2 2 2 2 2 2
          2 2 2 2 2 2
          2 2 2 2 2 2
          2 2 2 2 2 2
          2 2 2 2 2 2
          2 2 2 2 2 2
          2 2 2 2 2 2
          2 2 2 2 2 2
          2 2 2 2 2 2
          2 2 2 2 2 2
          2 2 2 2 2 2
          2 2 2 2 2 2
          2 2 2 2 2 2
          2 2 2 2 2 2
          2 2 2 2 2 2
          2 2 2 2 2 2
          2 2 2 2 2 2
          2 2 2 2 2 2
          2 2 2 2 2 2
          2 2 2 2 2 2
          2 2 2 2 2 2
          2 2 2 2 2 2
          2 2 2 2 2 2
          2 2 2 2 2 2
          2 2 2 2 2 2
          2 2 2 2 2 2
          2 2 2 2 2 2
          2 2 2 2 2 2
          2 2 2 2 2 2
          2 2 2 2 2 2
          2 2 2 2 2 2
          2 2 2 2 0 0
          0 0 0 0 0 0
          0 0 0 0 0 0
          0 1.5 0.5 0 1.5 0.25
          0 0 2 1 0.5 0
          0 0 0 0 0 0
          0 0 0 0 0 0
          0 1 1 1 1 2
          2 2 2 2 2 2
          2 2 2 1 1.5 1
          2 2 2 2 2 2
          2 2 2 2 2 2
          2 2 2 2 2 2
          2 2 1 1.5 0 1
          2 2 2 2 2 2
          2 2 2 2 2 1
          1 1 1 2 2 2
          2 2 2 2 2 2
          2 2 2 2 2 2
          2 2 2 2 2 2
          2 2 2 2 2 2
          2 2 2 2 2 2
          2 2 2 2 2 2
          2 2 2 2 2 2
          2 2 2 2 2 2
          2 2 2 2 2 2
        </DataArray>
        <DataArray type="Float64" Name="gradient_marker" format="ascii" RangeMin="0" RangeMax="1">
          0 0.75 1 0.5 0.5 0.75
          0.5 0.75 0.6666666666666666 0.75 0 0.5
          0.5 1 0.5 0.5 0 0
          0.5 0 0 0 0.5 0.5
          0 0.5 1 0.5 0.5 1
          0.75 0 0.5 0.5 0.5 0.25
          0.75 0.625 0 0.5 0.5 0
          0.5 0.5 0.5 0.5 0.5 0.75
          0 0.25 0 0.25 0 0
          0 0.75 0.5 0 0.25 0
          0.25 0 0 0 0.75 0.75
          0.5 0 0 0.5 0 0
          0 0 0 0.5 0.5 0
          0 0 0.5 1 1 1
          1 1 1 1 1 1
          1 1 0 0 0 0
          0.5 0 0 0 0 0
          0 0 0 0 0 0
          0 0 0 0 0 0
          0 0 0 0 0 0
          0 0 0 0 0 0
          0 0 0 0 0 0
          0 0 0 0 0 0
          0 0 0 0 0 0
          0 0 0 0 0 0
          0 0 0 0 0 0
          0 0 0 0 0 0
          0 0 0 0 0 0
          0 0 0 0 0 0
          0 0 0 0 0 0
          0 0 0 0 0 0
          0 0 0 0 0 0
          0 0 0 0 0 0
          0 0 0 0 0 0
          0 0 0 0 0 0
          0 0 0 0 0 0
          0 0 0 0 0 0
          0 0 0 0 0 0
          0 0 0 0 0 0
          0 0 0 0 0 0
          0 0 0 0 0 0
          0 0 0 0 0 0
          0 0 0 0 0 0
          0 0 0 0 0.625 0.625
          0.8333333333333334 0.875 0.625 0.5 0.625 0.625
          1 1 0.75 0.5 1 1
          0.3333333333333333 0.75 0.625 0.3333333333333333 0.625 0.375
          0.25 0 1 0.75 0.25 1
          1 1 1 0.5 0.5 0
          0.5 0.5 0 0.5 0.375 0.3333333333333333
          0.16666666666666666 1 0.625 0.5 0.375 0.75
          1 1 0.75 0.875 0.5 0.625
          0.5 0.5 0.75 0 0.25 0
          0.75 0.75 0.75 0.5 1 1
          1 0.5 1 1 0.6666666666666666 0
          0 0.5 0.5 0 0.375 0.5
          0.5 0.625 0 0.125 0 0
          0.5 0.16666666666666666 0.5 0.875 0.375 1
          0.25 0.375 0.25 0.5 0.5 0
          0 0 0 0 0 0
          0 0 0 0 0 0
          0 0 0 0 0 0
          0 0 0 0 0 0
          0 0 0 0 0 0
          0 0 0 0 0 0
          0 0 0 0 0 0
          0 0 0 0 0 0
          0.5 0.5 0 0 0.5 0.5
          0 0.5 0.5 0.5 0 0.5
        </DataArray>
        <DataArray type="Float64" Name="gradient_matprop_marker" format="ascii" RangeMin="0" RangeMax="0">
          0 0 0 0 0 0
          0 0 0 0 0 0
          0 0 0 0 0 0
          0 0 0 0 0 0
          0 0 0 0 0 0
          0 0 0 0 0 0
          0 0 0 0 0 0
          0 0 0 0 0 0
          0 0 0 0 0 0
          0 0 0 0 0 0
          0 0 0 0 0 0
          0 0 0 0 0 0
          0 0 0 0 0 0
          0 0 0 0 0 0
          0 0 0 0 0 0
          0 0 0 0 0 0
          0 0 0 0 0 0
          0 0 0 0 0 0
          0 0 0 0 0 0
          0 0 0 0 0 0
          0 0 0 0 0 0
          0 0 0 0 0 0
          0 0 0 0 0 0
          0 0 0 0 0 0
          0 0 0 0 0 0
          0 0 0 0 0 0
          0 0 0 0 0 0
          0 0 0 0 0 0
          0 0 0 0 0 0
          0 0 0 0 0 0
          0 0 0 0 0 0
          0 0 0 0 0 0
          0 0 0 0 0 0
          0 0 0 0 0 0
          0 0 0 0 0 0
          0 0 0 0 0 0
          0 0 0 0 0 0
          0 0 0 0 0 0
          0 0 0 0 0 0
          0 0 0 0 0 0
          0 0 0 0 0 0
          0 0 0 0 0 0
          0 0 0 0 0 0
          0 0 0 0 0 0
          0 0 0 0 0 0
          0 0 0 0 0 0
          0 0 0 0 0 0
          0 0 0 0 0 0
          0 0 0 0 0 0
          0 0 0 0 0 0
          0 0 0 0 0 0
          0 0 0 0 0 0
          0 0 0 0 0 0
          0 0 0 0 0 0
          0 0 0 0 0 0
          0 0 0 0 0 0
          0 0 0 0 0 0
          0 0 0 0 0 0
          0 0 0 0 0 0
          0 0 0 0 0 0
          0 0 0 0 0 0
          0 0 0 0 0 0
          0 0 0 0 0 0
          0 0 0 0 0 0
          0 0 0 0 0 0
          0 0 0 0 0 0
          0 0 0 0 0 0
          0 0 0 0 0 0
          0 0 0 0 0 0
        </DataArray>
        <DataArray type="Float64" Name="combo" format="ascii" RangeMin="0" RangeMax="2">
          2 0.75 1 0.5 1.5 0.75
          1.5 0.75 0.6666666666666666 0.75 2 1.5
          1.5 1 0.5 0.5 0 0
          0.5 0 0 0 0.5 0.5
          0 0.5 1 0.5 0.5 1
          0.75 0 0.5 1 0.5 0.25
          0.75 0.625 0 0.5 0.5 0
          0.5 0.5 1.5 1 0.5 0.75
          0 0.25 0 0.25 0 0
          0 0.75 0.5 0 0.25 0
          0.25 0 0 0 0.75 0.75
          0.5 2 2 1 2 2
          2 2 2 1 1 2
          2 2 1.5 1 1 1
          1 1 1 1 1 1
          1 1 2 2 2 2
          1.5 2 1.5 2 0.5 0
          0 0 2 2 2 1
          2 1.5 1 0.5 0 0
          0 0 0 0 2 1.75
          2 2 1.25 1.5 2 2
          2 2 0.5 0.5 0 0
          1.5 1.5 1 2 2 2
          2 2 2 2 2 2
          2 2 2 2 2 2
          2 2 2 2 2 2
          1.5 1.5 2 2 2 2
          2 1.75 2 1.5 1.25 1
          2 2 2 2 0.5 0.5
          0 0 1.5 1.5 1 0.5
          0.5 0 0 1.5 1.5 1
          2 2 2 2 2 2
          2 2 2 2 2 2
          2 2 2 2 2 2
          2 2 2 2 2 2
          2 2 2 2 2 2
          2 2 2 2 1 0.5
          0 0 0 0 0 1.5
          1.25 1 1 1 1 2
          2 2 2 0.5 0.5 0
          0 1.5 1.5 1 2 2
          2 2 2 2 2 2
          2 2 2 2 2 2
          2 2 2 0 0.625 0.625
          0.8333333333333334 0.875 0.625 0.5 0.625 0.625
          1 1 0.75 0.5 1 1
          0.3333333333333333 0.75 0.625 0.3333333333333333 0.625 0.375
          0.25 0 1 0.75 0.25 1
          1 1 1 0.5 0.5 0
          0.5 0.5 0 0.5 0.375 0.3333333333333333
          0.16666666666666666 1 0.625 0.5 0.375 0.75
          1 1 0.75 0.875 0.5 0.625
          1.5 0.5 0.75 0 0.25 0
          0.75 0.75 0.75 1 1 1
          1 1.5 1 1 0.6666666666666666 0
          0 0.5 0.5 0 0.375 0.5
          0.5 0.625 0 0.125 0 0
          0.5 0.16666666666666666 1 0.875 0.375 1
          0.5 0.375 1.25 0.5 0.5 0
          0 0 0 1 2 1.5
          1 2 2 2 0 0.5
          0 1.5 2 2 2 2
          2 2 2 2 2 0
          0 1 1 0 1 2
          2 2 0 0.5 0 0
          1.5 1 2 2 2 2
          2 2 2 2 2 2
          0.5 0.5 0 1 0.75 0.5
          0 1 0.5 0.5 0 0.5
        </DataArray>
        <DataArray type="Float64" Name="dHdT" format="ascii" RangeMin="25.813949119398732" RangeMax="63.57447143298191">
          46.303862072205675 30.951100382456197 29.930887239699477 28.662604252359937 47.57788401583517 36.42917928363708
          44.032270111230886 35.14955830775392 27.27545575473117 29.94503417267018 46.26317870326615 53.529343329363456
          49.895657932199995 31.877843863321917 26.646630727854554 27.09736230246891 26.11170752451603 26.180414742043517
          27.54809387708327 26.249121959571006 25.977636986041126 25.9754084524099 26.692949914885887 26.53193826821595
          25.973179918778683 26.370926621546005 33.288591459229266 32.66745017458187 31.798386898119134 35.83861649748942
          34.62951503402892 31.01353607853084 32.5123480481447 43.25670091742998 31.329978236008753 30.73895662561806
          34.67999477258046 33.658662402165334 29.642904813853903 33.089427254836366 32.44011731295199 29.415290024390117
          31.75013572966334 30.89435047188053 45.96012023565645 42.3518551993744 40.25949133047548 35.949312363498436
          29.11523932242909 30.955098170341795 28.60317934475646 30.347668326721053 28.249715377731007 29.659877375673023
          29.091054127721126 34.101896078225714 32.58798648966811 28.09159467630781 29.687063351928707 27.602727133215293
          28.972458587217783 27.50054431906274 28.511185276280948 27.94702360174212 33.31583001847234 32.26693533056539
          31.042171427294477 50.584475490378914 56.96496278552167 48.42747429965165 46.15331183713682 49.6570291995922
          54.83196618622149 49.413542604399126 53.298410911014216 47.176469656365214 45.600702720511904 46.288710652535116
          46.14940192236134 46.47274429959764 51.81282722172433 37.99446725912888 34.7222486623708 34.177085325092634
          39.87729967049198 35.33856371902043 37.31812201634988 36.22068430029528 33.46140857275903 39.28711602330469
          38.24968798068005 34.360300524428254 50.84789694145775 52.73626632768061 46.30502012185609 48.87717181252411
          47.50617878109142 56.94892666274166 54.44118337064609 54.005909410380184 48.67848780198991 41.330100799498915
          41.69441499370634 37.23666607356853 54.91973124033079 53.38281936190691 52.392223201556746 48.787398891533286
          52.867974029903564 51.18059178956495 50.03915969583307 46.95717631182586 41.595271431528616 41.424007192769956
          37.46165256347369 40.94240197865577 39.922545651795524 37.463660882886145 57.14979186274802 57.7359910019358
          55.47586907608648 56.326169451518375 55.64662900353889 54.94014548217008 51.71432755355718 53.5123285790204
          52.362290690047146 58.32251649590537 48.72206092787626 48.4650553358506 44.47305398979831 44.22628953431132
          58.63500435758729 57.4164595437331 55.93530532784743 46.15905334435943 46.09527850128771 46.20621910210541
          46.15812949526317 50.515475653758756 49.62785255438064 46.24010864435887 46.196698477760144 46.23810710308864