<?xml version="1.0"?>
<VTKFile type="UnstructuredGrid" version="0.1" byte_order="LittleEndian" header_type="UInt32" compressor="vtkZLibDataCompressor">
  <UnstructuredGrid>
    <Piece NumberOfPoints="394" NumberOfCells="222">
      <PointData>
        <DataArray type="Int32" Name="libmesh_node_id" format="ascii" RangeMin="459" RangeMax="3424">
          459 461 462 469 696 697
          698 704 706 707 708 709
          713 716 717 946 947 948
          949 950 951 952 955 956
          957 958 959 964 1344 1345
          1348 1349 1350 1351 1353 1356
          1368 1370 1371 1390 1391 1393
          1396 1412 1413 1414 1415 1416
          1417 1418 1419 1420 1421 1422
          1423 1424 1425 1440 1441 1442
          1443 1460 1461 1462 1463 1464
          1465 1466 1467 1468 1469 1704
          1705 1706 1709 1710 1711 1712
          1713 1714 1715 1716 1717 1718
          1719 1728 1730 1734 1735 1736
          1737 1738 1739 1740 1741 1742
          1743 2604 2605 2606 2607 2608
          2609 2610 2611 2612 2613 2614
          2615 2616 2617 2628 2629 2630
          2631 2632 2633 2634 2635 2636
          2637 2648 2649 2650 2651 2652
          2653 2656 2665 2666 2667 2668
          2670 2736 2737 2738 2739 2740
          2741 2742 2743 2744 2745 2753
          2754 2758 2860 2861 2863 2866
          2876 2878 2880 2894 2895 2897
          2900 2910 2912 2914 2980 2984
          3008 3012 3028 3029 3030 3031
          3032 3033 3034 3035 3036 3037
          3038 3039 3040 3041 3042 3043
          3044 3045 3046 3047 3048 3049
          3050 3051 3052 3053 3054 3055
          3056 3057 3058 3059 3060 3061
          3062 3063 3064 3065 3066 3067
          3068 3069 3070 3071 3072 3073
          3074 3075 3076 3077 3078 3079
          3080 3081 3082 3083 3084 3085
          3086 3087 3088 3089 3090 3091
          3092 3093 3094 3095 3096 3097
          3098 3099 3100 3101 3102 3103
          3104 3105 3106 3107 3108 3109
          3158 3159 3160 3161 3165 3166
          3168 3169 3170 3171 3175 3176
          3198 3199 3200 3201 3202 3203
          3204 3205 3206 3207 3208 3209
          3210 3211 3212 3213 3214 3215
          3216 3217 3218 3219 3220 3221
          3222 3223 3224 3225 3226 3227
          3228 3229 3230 3231 3232 3233
          3234 3235 3236 3237 3238 3239
          3240 3241 3242 3243 3244 3245
          3246 3247 3248 3249 3250 3251
          3252 3253 3254 3255 3256 3257
          3258 3259 3260 3261 3262 3263
          3264 3265 3334 3335 3338 3339
          3341 3342 3345 3346 3365 3366
          3369 3370 3372 3373 3376 3377
          961 962 464 710 1426 1427
          1428 1429 1433 1434 3110 3111
          3112 3113 3117 3118 3120 3121
          3123 3138 3139 3142 3143 3145
          3147 3188 3189 3195 3266 3267
          3270 3272 3273 3275 3286 3288
          3290 3292 3300 3301 3304 3306
          3307 3309 3320 3322 3324 3326
          3393 3397 3420 3424
        </DataArray>
        <DataArray type="Float64" Name="bounds" format="ascii" RangeMin="0" RangeMax="0">
          0 0 0 0 0 0
          0 0 0 0 0 0
          0 0 0 0 0 0
          0 0 0 0 0 0
          0 0 0 0 0 0
          0 0 0 0 0 0
          0 0 0 0 0 0
          0 0 0 0 0 0
          0 0 0 0 0 0
          0 0 0 0 0 0
          0 0 0 0 0 0
          0 0 0 0 0 0
          0 0 0 0 0 0
          0 0 0 0 0 0
          0 0 0 0 0 0
          0 0 0 0 0 0
          0 0 0 0 0 0
          0 0 0 0 0 0
          0 0 0 0 0 0
          0 0 0 0 0 0
          0 0 0 0 0 0
          0 0 0 0 0 0
          0 0 0 0 0 0
          0 0 0 0 0 0
          0 0 0 0 0 0
          0 0 0 0 0 0
          0 0 0 0 0 0
          0 0 0 0 0 0
          0 0 0 0 0 0
          0 0 0 0 0 0
          0 0 0 0 0 0
          0 0 0 0 0 0
          0 0 0 0 0 0
          0 0 0 0 0 0
          0 0 0 0 0 0
          0 0 0 0 0 0
          0 0 0 0 0 0
          0 0 0 0 0 0
          0 0 0 0 0 0
          0 0 0 0 0 0
          0 0 0 0 0 0
          0 0 0 0 0 0
          0 0 0 0 0 0
          0 0 0 0 0 0
          0 0 0 0 0 0
          0 0 0 0 0 0
          0 0 0 0 0 0
          0 0 0 0 0 0
          0 0 0 0 0 0
          0 0 0 0 0 0
          0 0 0 0 0 0
          0 0 0 0 0 0
          0 0 0 0 0 0
          0 0 0 0 0 0
          0 0 0 0 0 0
          0 0 0 0 0 0
          0 0 0 0 0 0
          0 0 0 0 0 0
          0 0 0 0 0 0
          0 0 0 0 0 0
          0 0 0 0 0 0
          0 0 0 0 0 0
          0 0 0 0 0 0
          0 0 0 0 0 0
          0 0 0 0 0 0
          0 0 0 0
        </DataArray>
        <DataArray type="Float64" Name="gradient_error" format="ascii" RangeMin="8.043919686343183e-12" RangeMax="4.134440158826075e-9">
          3.295847782378183e-10 1.3066093163489728e-10 1.885517371690084e-10 4.134440158826075e-9 1.283672631470146e-10 1.1587141756295526e-9
          4.893370509318976e-10 1.9694491877183137e-9 4.217228186203004e-11 6.558990158783951e-11 1.3891012935790038e-10 5.93134385885007e-11
          7.092012328187854e-11 5.922054631261072e-10 2.381719991485694e-10 8.222082037163253e-10 7.024539489849338e-10 5.501762460606305e-10
          4.578769509693684e-10 1.7424147333339093e-10 1.3015785918496408e-10 1.3581045753028204e-10 1.7983116746264397e-10 4.9757406764177025e-11
          4.445772467645273e-11 4.3547169580010737e-11 6.524609092297216e-11 7.150642639362867e-11 3.0297191539913656e-10 2.727716092227862e-10
          1.1619860246628284e-10 2.3196699671285673e-10 1.962244712141344e-10 2.001776628990432e-10 1.3998051244998796e-10 9.293643859756001e-10
          2.2297808924010085e-10 1.4359065058773082e-10 1.165022777763192e-10 3.4994121233480797e-9 2.825284186945844e-9 1.3905385465400553e-9
          3.6923334611940823e-9 5.2114070672214695e-11 4.581329120831214e-11 8.678061239837458e-11 7.337353933459944e-11 3.34298075451292e-11
          3.975413457448401e-11 3.410263538784114e-11 7.556819755803825e-11 7.511717335384724e-11 3.109834962536637e-11 4.297483304146113e-10
          3.441152097235019e-10 1.1154196469606271e-10 1.8105816737817429e-10 1.1038869033662622e-10 8.138906685088427e-11 4.2281574695544575e-11
          4.3361231856762335e-11 1.3575299906566337e-9 1.0766904147112656e-9 4.416126568015508e-10 3.473145561035425e-10 5.163727309214307e-10
          1.6592182143174857e-10 1.7318144886655041e-9 1.471424741751116e-9 4.873674231379367e-10 7.401307781984911e-10 2.604277968330829e-10
          6.295936910155356e-10 5.762045681610031e-10 4.4244405646786e-10 1.3414364300662593e-10 1.2575597998421672e-10 2.9642280326545647e-10
          2.7105862516417216e-10 5.964386708748636e-11 1.3138098421316174e-10 1.1910982008902037e-10 1.0333369381908987e-10 2.0740895268916307e-10
          1.0561695205658054e-10 1.3786632821441146e-10 8.820741786302367e-11 2.776589574967244e-11 2.777060175761026e-11 5.423419762130562e-11
          4.9393498309253634e-11 1.8456313780653233e-11 3.043213356619253e-11 2.9659939496184233e-11 2.7775307765548088e-11 4.455279899720165e-11
          2.888774542617593e-11 9.584303991791005e-11 9.250800576920636e-11 1.5891611688886757e-10 1.531411620462884e-10 5.902902218655207e-11
          1.0136509116197794e-10 9.760700527817083e-11 8.408402570310596e-11 1.3750681816330048e-10 8.772796729977856e-11 3.639356158023255e-10
          3.4902338753928875e-10 2.2244321007653477e-10 3.080546898324142e-10 7.315541909317772e-11 1.1551577124811816e-10 4.812149046211515e-11
          7.346335089364572e-11 6.009015181304819e-11 9.032528667785942e-11 6.35889535889475e-11 2.512092514572543e-10 1.5928436798763076e-10
          1.8951782611669007e-10 8.250520174873353e-10 7.860451460992966e-10 5.27141835593938e-10 5.020745398577149e-10 6.805146824168323e-10
          4.342890688781986e-10 1.0963120545117745e-9 5.378503850006743e-10 3.43097041276537e-10 3.9036888609973545e-10 2.4888051811325067e-10
          7.08309513614943e-10 4.691130060767256e-11 6.591786150844712e-11 3.9018139626946336e-11 5.208038090448483e-11 4.09580559898949e-11
          5.456926303451997e-11 4.4033274206323206e-11 1.3217117352878394e-10 9.778998141051397e-11 9.932273925625656e-11 2.6186877024939076e-10
          1.6669764348319483e-10 3.1053939689994633e-10 2.26099267939887e-9 2.133643578413649e-9 1.7903438092383082e-9 3.324083926133694e-9
          1.3340144417887673e-9 8.872825643834372e-10 2.1162998426929e-9 4.09846779335883e-9 3.968452238681224e-9 3.51158964523734e-9
          4.058847320830958e-9 2.7197855963135695e-9 1.8109162527632498e-9 2.9248119214919764e-9 5.350125721651453e-10 8.127406823157252e-10
          1.0505279959611317e-9 1.1438026037628412e-9 3.810612260873675e-11 3.677080984628076e-11 6.298147669233358e-11 6.068094948622385e-11
          2.2791216436364285e-11 3.8272215656222626e-11 3.691699441757857e-11 3.342869366864283e-11 5.4472902085256176e-11 3.307311125021563e-11
          1.4384051831744632e-10 1.3792789171459049e-10 8.322044886946361e-11 1.2163271453217937e-10 1.4610517363505396e-11 1.412105300540216e-11
          2.2533999411396433e-11 2.1722762097188244e-11 1.1166037980653841e-11 1.6531904597259296e-11 1.5928265307730682e-11 1.2728954606173635e-11
          1.948064774647029e-11 1.4264452757309308e-11 5.09304074631792e-11 4.885373468283663e-11 3.290695658702036e-11 4.3120946989255156e-11
          3.0153485938018804e-11 4.533206693160429e-11 1.8325241104595604e-11 2.747065522126638e-11 2.888508162257672e-11 4.0098751972810346e-11
          2.435686112103601e-11 9.809435698280317e-11 5.912062373990724e-11 8.449692568219474e-11 1.137974298288778e-11 1.6344130540397667e-11
          9.151787865914302e-12 1.2389070098292413e-11 1.093316540072721e-11 1.463849037083482e-11 1.1573860700168279e-11 3.4775436328956615e-11
          2.358261470443989e-11 2.9825733792463216e-11 3.2623429574872416e-10 3.1070180628454175e-10 1.95873081240569e-10 1.8657396801361666e-10
          2.686915719073364e-10 1.613902617951361e-10 7.183977108183507e-10 6.79420054073308e-10 4.0639719232588005e-10 5.753518427571503e-10
          1.144110019463443e-10 1.0901892285082804e-10 6.466557992528339e-11 6.164912419417622e-11 9.438487683610275e-11 5.343477724330101e-11
          2.4839215613489355e-10 2.3494058854803835e-10 1.314447967896467e-10 1.990763212325435e-10 2.1203753294449847e-10 1.2729861891835526e-10
          1.5344196135328763e-10 9.209436223671329e-11 4.380241636471062e-10 2.6205155596403644e-10 3.024094768952876e-10 7.446014557849982e-11
          4.223988633194857e-11 5.3810197459155185e-11 3.0602270674914377e-11 1.5183722902327207e-10 8.531634495148856e-11 1.0517563390093826e-10
          6.98808757737945e-11 1.0282232313675392e-10 4.201223767908829e-11 6.15114780288807e-11 1.9231968706631026e-10 1.1521458979651465e-10
          2.4544030050894946e-11 3.570390443356581e-11 1.4200437658256176e-11 2.041810460285708e-11 6.673680933678496e-11 3.7734037432116896e-11
          1.4151219291318124e-9 1.333696520837362e-9 8.496557874793057e-10 8.001406137487067e-10 1.1154141555517973e-9 6.679448106397196e-10
          2.2310688836269225e-9 2.11318998304691e-9 1.282954551785728e-9 1.783063684186755e-9 4.905718984748473e-10 4.6182333672019315e-10
          2.7293708384119113e-10 2.569499005909878e-10 3.852906520604541e-10 2.144703953240194e-10 7.904672218462077e-10 7.458494517038996e-10
          4.162548185873411e-10 6.236450470845164e-10 8.278388976148999e-10 4.948680408062303e-10 5.489104485547451e-10 3.279467435585641e-10
          1.3240240660721518e-9 7.948043469377663e-10 8.636009815167493e-10 2.8548991660296136e-10 1.5920735335566112e-10 1.8951149302889484e-10
          1.0608464481466584e-10 4.5883438551063617e-10 2.5523679225843443e-10 2.978013050866495e-10 2.6825330605524063e-9 2.581630270939632e-9
          1.6679279143520198e-9 1.597179280938933e-9 2.2525323650772644e-9 1.3777884447377178e-9 2.749021176116377e-9 2.675572427579621e-9
          1.6736861118391617e-9 2.3886968126224958e-9 9.8809297171491e-10 9.424067788696808e-10 5.593818678834887e-10 5.31877313392083e-10
          8.057632691866263e-10 4.5175942760382697e-10 1.0370296548429299e-9 9.965349982008286e-10 5.665382570373916e-10 8.654253064405029e-10
          1.718448013864017e-9 1.0389385913185938e-9 1.1303327832923508e-9 6.777937978450748e-10 1.8568743633678983e-9 1.1268735181408758e-9
          1.2322602922149232e-9 6.025243277843263e-10 3.359571389253284e-10 3.9126888514622395e-10 2.1782953452607254e-10 6.553631963037525e-10
          3.6614173691470574e-10 4.2766058027514865e-10 3.308151053223577e-10 1.9801137730397867e-10 5.025323136627254e-10 3.001833877928264e-10
          1.1467472084926605e-10 6.448719764189672e-11 1.734900580857441e-10 9.715156814384411e-11 6.507688256509393e-10 3.888573558597303e-10
          7.09227630988236e-10 4.2395222952740905e-10 2.2446892125234266e-10 1.253644388671657e-10 2.4469732817439594e-10 1.3656783341366083e-10
          2.7011948748793578e-11 2.48943021878753e-11 2.48809371270035e-11 2.0985306756121566e-11 3.7952919256293654e-11 3.3471885441293093e-11
          2.4778837755010492e-11 2.1668011290512562e-11 2.383014738108755e-11 1.7964531267110714e-11 2.1906594285561055e-11 2.0991419593562223e-11
          3.5167961783661024e-11 3.354412914647657e-11 1.8473880150154335e-11 2.912898732932857e-11 7.525825449364437e-11 7.126532571984161e-11
          6.058869091573203e-11 1.5038305541891055e-11 2.313999494447717e-11 1.1319698342027017e-11 1.6856575176533284e-11 4.6554678857145155e-11
          3.2555013798049966e-11 8.043919686343183e-12 1.1368333585947639e-11 2.0850379585436752e-11 1.4658028884011651e-10 1.3804645958068827e-10
          1.1538179751661063e-10 2.3726719469483856e-10 2.235188573317053e-10 1.8635034378196992e-10 8.597270952792742e-11 5.7643867993784065e-11
          1.3704019911919385e-10 8.939362928374369e-11 3.0350520661419443e-10 2.8791797035550065e-10 2.434034747250933e-10 3.235494218134171e-10
          3.084573324686749e-10 2.634765695965068e-10 1.8045878898839717e-10 1.1713606069849883e-10 1.9691492542703449e-10 1.2805602323201804e-10
          3.5383677417510704e-11 5.283503733415918e-11 6.784751358305987e-11 7.37842956475014e-11
        </DataArray>
        <DataArray type="Float64" Name="gradient_matprop_error" format="ascii" RangeMin="0" RangeMax="0">
          0 0 0 0 0 0
          0 0 0 0 0 0
          0 0 0 0 0 0
          0 0 0 0 0 0
          0 0 0 0 0 0
          0 0 0 0 0 0
          0 0 0 0 0 0
          0 0 0 0 0 0
          0 0 0 0 0 0
          0 0 0 0 0 0
          0 0 0 0 0 0
          0 0 0 0 0 0
          0 0 0 0 0 0
          0 0 0 0 0 0
          0 0 0 0 0 0
          0 0 0 0 0 0
          0 0 0 0 0 0
          0 0 0 0 0 0
          0 0 0 0 0 0
          0 0 0 0 0 0
          0 0 0 0 0 0
          0 0 0 0 0 0
          0 0 0 0 0 0
          0 0 0 0 0 0
          0 0 0 0 0 0
          0 0 0 0 0 0
          0 0 0 0 0 0
          0 0 0 0 0 0
          0 0 0 0 0 0
          0 0 0 0 0 0
          0 0 0 0 0 0
          0 0 0 0 0 0
          0 0 0 0 0 0
          0 0 0 0 0 0
          0 0 0 0 0 0
          0 0 0 0 0 0
          0 0 0 0 0 0
          0 0 0 0 0 0
          0 0 0 0 0 0
          0 0 0 0 0 0
          0 0 0 0 0 0
          0 0 0 0 0 0
          0 0 0 0 0 0
          0 0 0 0 0 0
          0 0 0 0 0 0
          0 0 0 0 0 0
          0 0 0 0 0 0
          0 0 0 0 0 0
          0 0 0 0 0 0
          0 0 0 0 0 0
          0 0 0 0 0 0
          0 0 0 0 0 0
          0 0 0 0 0 0
          0 0 0 0 0 0
          0 0 0 0 0 0
          0 0 0 0 0 0
          0 0 0 0 0 0
          0 0 0 0 0 0
          0 0 0 0 0 0
          0 0 0 0 0 0
          0 0 0 0 0 0
          0 0 0 0 0 0
          0 0 0 0 0 0
          0 0 0 0 0 0
          0 0 0 0 0 0
          0 0 0 0
        </DataArray>
        <DataArray type="Float64" Name="initial_marker" format="ascii" RangeMin="0" RangeMax="2">
          0 0 0 2 0 2
          2 2 0 0 2 2
          0 2 2 0 0 0
          0 0 0 0 0 0
          0 0 0 0 1 0.25
          0 2 2 0 1.5 2
          0 0 0.5 2 2 2
          2 0 0 2 2 0
          1.5 1 0 1 0.5 2
          2 2 2 0 0 0
          0 2 2 2 2 2
          2 2 2 2 2 0
          0 0 0 0 0 0
          0 0 0 0 0 0
          0 0 0 0 0 0
          0 0 0 0 0 0
          0 1 0.5 1.5 1.25 0
          1 1 0 1 1 2
          2 2 2 0 1 0
          1 0 0.75 0.6666666666666666 2 2
          1.75 2 2 2 2 2
          2 2 2 2 2 2
          2 0 0.25 0 0 0
          0 0 1.25 1.3333333333333333 0.6666666666666666 2
          2 2 2 2 2 2
          2 2 2 2 2 2
          2 2 2 2 2 2
          2 2 0 0 1 1
          0 1 1 0 1 1
          2 2 2 2 0 0
          1 0.75 0 1 0.5 0
          0.5 0 2 1.75 1.6666666666666667 1.5
          0 0.75 0 0.5 0 0.5
          0 1.75 1.5 1.6666666666666667 0 0.25
          0 0 0 0 0 1.25
          1.3333333333333333 1 2 2 2 2
          2 2 2 2 2 2
          2 2 2 2 2 2
          2 2 2 2 2 2
          2 2 2 2 2 2
          2 1.75 1.5 2 2 2
          1.5 1.75 1 1.5 2 2
          0.5 1.25 0 0.75 2 1.75
          2 2 2 2 2 2
          2 2 2 2 2 2
          2 2 2 2 2 2
          2 2 2 2 2 2
          2 2 2 2 2 2
          2 2 2 2 2 2
          2 2 2 2 2 2
          2 2 2 2 2 2
          2 2 2 2 2 2
          2 2 2 2 2 2
          2 2 2 2 2 2
          2 2 2 2 2 2
          2 2 2 2 2 2
          2 2 2 2 2 2
          0 0 0 0 0 0
          1 0.75 0 0 2 2
          2 2 2 2 2 2
          2 1.5 1.75 0.5 1.25 2
          2 0 0.5 1.5 2 2
          2 2 2 2 2 2
          2 2 2 2 2 2
          2 2 2 2 2 2
          2 2 2 2
        </DataArray>
        <DataArray type="Float64" Name="markers_norefine" format="ascii" RangeMin="0" RangeMax="0">
          0 0 0 0 0 0
          0 0 0 0 0 0
          0 0 0 0 0 0
          0 0 0 0 0 0
          0 0 0 0 0 0
          0 0 0 0 0 0
          0 0 0 0 0 0
          0 0 0 0 0 0
          0 0 0 0 0 0
          0 0 0 0 0 0
          0 0 0 0 0 0
          0 0 0 0 0 0
          0 0 0 0 0 0
          0 0 0 0 0 0
          0 0 0 0 0 0
          0 0 0 0 0 0
          0 0 0 0 0 0
          0 0 0 0 0 0
          0 0 0 0 0 0
          0 0 0 0 0 0
          0 0 0 0 0 0
          0 0 0 0 0 0
          0 0 0 0 0 0
          0 0 0 0 0 0
          0 0 0 0 0 0
          0 0 0 0 0 0
          0 0 0 0 0 0
          0 0 0 0 0 0
          0 0 0 0 0 0
          0 0 0 0 0 0
          0 0 0 0 0 0
          0 0 0 0 0 0
          0 0 0 0 0 0
          0 0 0 0 0 0
          0 0 0 0 0 0
          0 0 0 0 0 0
          0 0 0 0 0 0
          0 0 0 0 0 0
          0 0 0 0 0 0
          0 0 0 0 0 0
          0 0 0 0 0 0
          0 0 0 0 0 0
          0 0 0 0 0 0
          0 0 0 0 0 0
          0 0 0 0 0 0
          0 0 0 0 0 0
          0 0 0 0 0 0
          0 0 0 0 0 0
          0 0 0 0 0 0
          0 0 0 0 0 0
          0 0 0 0 0 0
          0 0 0 0 0 0
          0 0 0 0 0 0
          0 0 0 0 0 0
          0 0 0 0 0 0
          0 0 0 0 0 0
          0 0 0 0 0 0
          0 0 0 0 0 0
          0 0 0 0 0 0
          0 0 0 0 0 0
          0 0 0 0 0 0
          0 0 0 0 0 0
          0 0 0 0 0 0
          0 0 0 0 0 0
          0 0 0 0 0 0
          0 0 0 0
        </DataArray>
        <DataArray type="Float64" Name="markers_mustrefine" format="ascii" RangeMin="0" RangeMax="2">
          0 0 0 2 0 2
          2 2 0 0 2 2
          0 2 2 0 0 0
          0 0 0 0 0 0
          0 0 0 0 1 0.25
          0 2 2 0 1.5 2
          0 0 0.5 2 2 2
          2 0 0 2 2 0
          1.5 1 0 1 0.5 2
          2 2 2 0 0 0
          0 2 2 2 2 2
          2 2 2 2 2 0
          0 0 0 0 0 0
          0 0 0 0 0 0
          0 0 0 0 0 0
          0 0 0 0 0 0
          0 1 0.5 1.5 1.25 0
          1 1 0 1 1 2
          2 2 2 0 1 0
          1 0 0.75 0.6666666666666666 2 2
          1.75 2 2 2 2 2
          2 2 2 2 2 2
          2 0 0.25 0 0 0
          0 0 1.25 1.3333333333333333 0.6666666666666666 2
          2 2 2 2 2 2
          2 2 2 2 2 2
          2 2 2 2 2 2
          2 2 0 0 1 1
          0 1 1 0 1 1
          2 2 2 2 0 0
          1 0.75 0 1 0.5 0
          0.5 0 2 1.75 1.6666666666666667 1.5
          0 0.75 0 0.5 0 0.5
          0 1.75 1.5 1.6666666666666667 0 0.25
          0 0 0 0 0 1.25
          1.3333333333333333 1 2 2 2 2
          2 2 2 2 2 2
          2 2 2 2 2 2
          2 2 2 2 2 2
          2 2 2 2 2 2
          2 1.75 1.5 2 2 2
          1.5 1.75 1 1.5 2 2
          0.5 1.25 0 0.75 2 1.75
          2 2 2 2 2 2
          2 2 2 2 2 2
          2 2 2 2 2 2
          2 2 2 2 2 2
          2 2 2 2 2 2
          2 2 2 2 2 2
          2 2 2 2 2 2
          2 2 2 2 2 2
          2 2 2 2 2 2
          2 2 2 2 2 2
          2 2 2 2 2 2
          2 2 2 2 2 2
          2 2 2 2 2 2
          2 2 2 2 2 2
          0 0 0 0 0 0
          1 0.75 0 0 2 2
          2 2 2 2 2 2
          2 1.5 1.75 0.5 1.25 2
          2 0 0.5 1.5 2 2
          2 2 2 2 2 2
          2 2 2 2 2 2
          2 2 2 2 2 2
          2 2 2 2
        </DataArray>
        <DataArray type="Float64" Name="gradient_marker" format="ascii" RangeMin="1" RangeMax="1">
          1 1 1 1 1 1
          1 1 1 1 1 1
          1 1 1 1 1 1
          1 1 1 1 1 1
          1 1 1 1 1 1
          1 1 1 1 1 1
          1 1 1 1 1 1
          1 1 1 1 1 1
          1 1 1 1 1 1
          1 1 1 1 1 1
          1 1 1 1 1 1
          1 1 1 1 1 1
          1 1 1 1 1 1
          1 1 1 1 1 1
          1 1 1 1 1 1
          1 1 1 1 1 1
          1 1 1 1 1 1
          1 1 1 1 1 1
          1 1 1 1 1 1
          1 1 1 1 1 1
          1 1 1 1 1 1
          1 1 1 1 1 1
          1 1 1 1 1 1
          1 1 1 1 1 1
          1 1 1 1 1 1
          1 1 1 1 1 1
          1 1 1 1 1 1
          1 1 1 1 1 1
          1 1 1 1 1 1
          1 1 1 1 1 1
          1 1 1 1 1 1
          1 1 1 1 1 1
          1 1 1 1 1 1
          1 1 1 1 1 1
          1 1 1 1 1 1
          1 1 1 1 1 1
          1 1 1 1 1 1
          1 1 1 1 1 1
          1 1 1 1 1 1
          1 1 1 1 1 1
          1 1 1 1 1 1
          1 1 1 1 1 1
          1 1 1 1 1 1
          1 1 1 1 1 1
          1 1 1 1 1 1
          1 1 1 1 1 1
          1 1 1 1 1 1
          1 1 1 1 1 1
          1 1 1 1 1 1
          1 1 1 1 1 1
          1 1 1 1 1 1
          1 1 1 1 1 1
          1 1 1 1 1 1
          1 1 1 1 1 1
          1 1 1 1 1 1
          1 1 1 1 1 1
          1 1 1 1 1 1
          1 1 1 1 1 1
          1 1 1 1 1 1
          1 1 1 1 1 1
          1 1 1 1 1 1
          1 1 1 1 1 1
          1 1 1 1 1 1
          1 1 1 1 1 1
          1 1 1 1 1 1
          1 1 1 1
        </DataArray>
        <DataArray type="Float64" Name="gradient_matprop_marker" format="ascii" RangeMin="0" RangeMax="0">
          0 0 0 0 0 0
          0 0 0 0 0 0
          0 0 0 0 0 0
          0 0 0 0 0 0
          0 0 0 0 0 0
          0 0 0 0 0 0
          0 0 0 0 0 0
          0 0 0 0 0 0
          0 0 0 0 0 0
          0 0 0 0 0 0
          0 0 0 0 0 0
          0 0 0 0 0 0
          0 0 0 0 0 0
          0 0 0 0 0 0
          0 0 0 0 0 0
          0 0 0 0 0 0
          0 0 0 0 0 0
          0 0 0 0 0 0
          0 0 0 0 0 0
          0 0 0 0 0 0
          0 0 0 0 0 0
          0 0 0 0 0 0
          0 0 0 0 0 0
          0 0 0 0 0 0
          0 0 0 0 0 0
          0 0 0 0 0 0
          0 0 0 0 0 0
          0 0 0 0 0 0
          0 0 0 0 0 0
          0 0 0 0 0 0
          0 0 0 0 0 0
          0 0 0 0 0 0
          0 0 0 0 0 0
          0 0 0 0 0 0
          0 0 0 0 0 0
          0 0 0 0 0 0
          0 0 0 0 0 0
          0 0 0 0 0 0
          0 0 0 0 0 0
          0 0 0 0 0 0
          0 0 0 0 0 0
          0 0 0 0 0 0
          0 0 0 0 0 0
          0 0 0 0 0 0
          0 0 0 0 0 0
          0 0 0 0 0 0
          0 0 0 0 0 0
          0 0 0 0 0 0
          0 0 0 0 0 0
          0 0 0 0 0 0
          0 0 0 0 0 0
          0 0 0 0 0 0
          0 0 0 0 0 0
          0 0 0 0 0 0
          0 0 0 0 0 0
          0 0 0 0 0 0
          0 0 0 0 0 0
          0 0 0 0 0 0
          0 0 0 0 0 0
          0 0 0 0 0 0
          0 0 0 0 0 0
          0 0 0 0 0 0
          0 0 0 0 0 0
          0 0 0 0 0 0
          0 0 0 0 0 0
          0 0 0 0
        </DataArray>
        <DataArray type="Float64" Name="combo" format="ascii" RangeMin="1" RangeMax="1">
          1 1 1 1 1 1
          1 1 1 1 1 1
          1 1 1 1 1 1
          1 1 1 1 1 1
          1 1 1 1 1 1
          1 1 1 1 1 1
          1 1 1 1 1 1
          1 1 1 1 1 1
          1 1 1 1 1 1
          1 1 1 1 1 1
          1 1 1 1 1 1
          1 1 1 1 1 1
          1 1 1 1 1 1
          1 1 1 1 1 1
          1 1 1 1 1 1
          1 1 1 1 1 1
          1 1 1 1 1 1
          1 1 1 1 1 1
          1 1 1 1 1 1
          1 1 1 1 1 1
          1 1 1 1 1 1
          1 1 1 1 1 1
          1 1 1 1 1 1
          1 1 1 1 1 1
          1 1 1 1 1 1
          1 1 1 1 1 1
          1 1 1 1 1 1
          1 1 1 1 1 1
          1 1 1 1 1 1
          1 1 1 1 1 1
          1 1 1 1 1 1
          1 1 1 1 1 1
          1 1 1 1 1 1
          1 1 1 1 1 1
          1 1 1 1 1 1
          1 1 1 1 1 1
          1 1 1 1 1 1
          1 1 1 1 1 1
          1 1 1 1 1 1
          1 1 1 1 1 1
          1 1 1 1 1 1
          1 1 1 1 1 1
          1 1 1 1 1 1
          1 1 1 1 1 1
          1 1 1 1 1 1
          1 1 1 1 1 1
          1 1 1 1 1 1
          1 1 1 1 1 1
          1 1 1 1 1 1
          1 1 1 1 1 1
          1 1 1 1 1 1
          1 1 1 1 1 1
          1 1 1 1 1 1
          1 1 1 1 1 1
          1 1 1 1 1 1
          1 1 1 1 1 1
          1 1 1 1 1 1
          1 1 1 1 1 1
          1 1 1 1 1 1
          1 1 1 1 1 1
          1 1 1 1 1 1
          1 1 1 1 1 1
          1 1 1 1 1 1
          1 1 1 1 1 1
          1 1 1 1 1 1
          1 1 1 1
        </DataArray>
        <DataArray type="Float64" Name="dHdT" format="ascii" RangeMin="25.811913155485964" RangeMax="28.370185910163684">
          25.813436471088053 25.83042794060023 25.818508861832136 28.370185910163684 25.823617199004264 26.22208290947797
          25.981142826677846 26.5756602613397 25.814324400093415 25.81405031541019 25.858627408979878 25.83157821219866
          25.813191915968243 26.101768948736357 25.89760192640394 25.820717358224037 25.81963142060996 25.826881459982893
          25.82405225371226 25.81409795779103 25.815476599040146 25.814922797248226 25.814541269319836 25.812449501128324
          25.812380538831256 25.81255281338833 25.812659198677345 25.812621468865526 25.856285582872026 25.851327035479237
          25.828415276531913 25.894936729689558 25.88218856232183 25.84008188910878 25.85426539897842 26.13773819008347
          25.831687505076495 25.822539570897636 25.832662558591696 27.333521762586017 26.947475550425708 26.312627751556093
          27.66944223215851 25.81891033707717 25.81827378713374 25.842140941592568 25.837620760209287 25.814772078522108
          25.821304601243217 25.819945067974295 25.818357179660524 25.827881760838338 25.817261913168007 25.96008344601096
          25.92930536151314 25.849122913077206 25.873111144942097 25.818238580347327 25.820302467101428 25.814425760710883
          25.815323069532123 26.36832948975987 26.226722509641945 25.984574818448326 25.94029409797597 25.992538455696764
          25.868287377839337 26.74214514014914 26.49058246477965 26.02238328323051 26.088982270588456 25.831688287491318
          25.852992226708157 25.849532396562033 25.8413304218575 25.82205614264781 25.821411363857777 25.831111324733833
          25.829470245006846 25.8163374182518 25.820338744325667 25.81965241385796 25.819929027616496 25.825663568960547
          25.819011443593997 25.822061655766706 25.818343678855552 25.813852497159925 25.81381970909776 25.815261160788197
          25.81508946554779 25.813026254573543 25.813688260864787 25.813682490402392 25.813786921035593 25.814917770307375
          25.81367671994 25.8511139031835 25.849896612292177 25.872575529079697 25.870447525691212 25.83603341673985
          25.850181800421986 25.848868628696177 25.84643510427479 25.86452236403427 25.845177010103388 25.944007597940942
          25.938538649265652 25.891515590579726 25.923597092688535 25.841307296219824 25.85600408085796 25.8306589337192
          25.839902318938908 25.835698265398392 25.84671817241258 25.836491583877102 25.90281380759444 25.869186729956073
          25.88070909146439 26.106816409777508 26.09264276188953 25.997669093264463 25.988669297888272 26.054290533593452
          25.964379950549677 26.19897433510028 26.002562791116357 25.931723666447795 25.94981474171877 25.898548209249526
          26.058217374234673 25.830856045165692 25.83852420575205 25.826774378297216 25.83268369438715 25.82873926482552
          25.834895022629052 25.829904786425814 25.861203188420372 25.847762166980974 25.85049904411878 25.904946090825117
          25.87043545824782 25.919386766978832 26.657846298942577 26.60308325372143 26.46163802794888 27.2246701683595
          26.284690210154352 26.120770288992222 26.611206193157994 28.04831744428033 27.8776449631931 27.447860002108172
          28.170178682179092 26.937336343775097 26.497039621266843 27.079425550215625 25.99657837552894 26.096750218706745
          26.18913372401625 26.22767439898194 25.827261947198956 25.826827294500756 25.83544509641571 25.834654193632737
          25.820887016463743 25.82600003220915 25.825532835424244 25.825547243390222 25.832447470951408 25.824275625768287
          25.862713081670066 25.86063978139933 25.840922582973135 25.85499843067802 25.81730839234925 25.817159588349195
          25.82010061082309 25.819833678026395 25.81577780167281 25.81787297326674 25.81768136555236 25.816794249547364
          25.819140079877222 25.817188750277886 25.829354102173532 25.82865681842981 25.823025133040208 25.826784721136974
          25.823833884337184 25.829480587047584 25.81942280210869 25.822725466291736 25.822965923696476 25.827929523042116
          25.821965319686228 25.84724590130493 25.833162806750284 25.84261216386992 25.81644935916224 25.81833142188948
          25.815278172198767 25.816626626809814 25.8163210035789 25.8179494292542 25.816365510901843 25.824293351840772
          25.82012161722658 25.822855629173926 25.92519309900954 25.919698209802323 25.878984776861376 25.87575594053012