<?xml version="1.0"?>
<VTKFile type="UnstructuredGrid" version="0.1" byte_order="LittleEndian" header_type="UInt32" compressor="vtkZLibDataCompressor">
  <UnstructuredGrid>
    <Piece NumberOfPoints="372" NumberOfCells="226">
      <PointData>
        <DataArray type="Int32" Name="libmesh_node_id" format="ascii" RangeMin="380" RangeMax="2955">
          380 450 662 663 664 670
          1238 1239 1240 1241 1242 1243
          1244 1245 1246 1247 1248 1249
          1250 1251 1282 1283 1284 1285
          1286 1287 1288 1289 1290 1291
          1330 1331 1332 1333 1337 1338
          1340 1341 1343 1378 1379 1382
          1384 1385 1387 1682 1683 1688
          2120 2121 2122 2125 2128 2130
          2131 2132 2133 2134 2135 2136
          2137 2138 2139 2140 2141 2142
          2143 2146 2147 2150 2152 2154
          2155 2156 2157 2158 2159 2160
          2161 2162 2163 2166 2167 2169
          2172 2174 2175 2176 2177 2178
          2179 2180 2181 2182 2183 2185
          2187 2189 2191 2192 2193 2194
          2195 2196 2197 2211 2212 2217
          2219 2220 2221 2222 2225 2226
          2230 2236 2333 2334 2336 2339
          2341 2342 2343 2344 2345 2346
          2347 2348 2349 2350 2352 2354
          2356 2358 2359 2360 2361 2362
          2363 2364 2367 2368 2370 2373
          2375 2376 2377 2378 2379 2380
          2381 2382 2383 2384 2386 2388
          2390 2392 2393 2394 2395 2396
          2397 2398 2508 2509 2510 2511
          2512 2513 2514 2515 2516 2517
          2518 2519 2520 2521 2522 2523
          2524 2525 2529 2530 2536 2537
          2538 2539 2540 2541 2542 2543
          2544 2545 2546 2547 2550 2551
          2556 2557 2558 2559 2560 2561
          2562 2563 2564 2565 2576 2577
          2578 2579 2580 2581 2582 2672
          2673 2674 2675 2676 2677 2678
          2682 2683 2686 2687 2780 2781
          2782 2783 2784 2785 2786 2787
          2788 2789 2800 2801 2802 2803
          2804 2805 2806 2814 2815 2816
          2817 2818 2819 2820 2821 2822
          2823 2834 2835 2836 2837 2838
          2839 2840 1685 1686 1689 1702
          1703 1705 1706 692 1334 1708
          1709 693 1721 1696 1358 1264
          1723 1360 2227 2237 2240 2234
          2241 2418 2412 2419 2422 2416
          2423 2446 2440 2447 2450 2444
          2451 2526 2527 2528 2531 2532
          2533 1335 2534 2535 1336 2548
          2549 2552 2553 2554 2555 1339
          2566 2567 2570 2572 2573 2575
          2583 2585 2587 2589 2679 2680
          2681 1265 1359 2684 2685 2688
          2689 2690 2691 1361 2692 2693
          2696 2697 2699 2703 2790 2791
          2794 2796 2797 2799 2807 2809
          2811 2813 2824 2825 2828 2830
          2831 2833 2841 2843 2845 2847
          2916 2917 2920 2921 2923 2927
          2944 2945 2948 2949 2951 2955
        </DataArray>
        <DataArray type="Float64" Name="bounds" format="ascii" RangeMin="0" RangeMax="0">
          0 0 0 0 0 0
          0 0 0 0 0 0
          0 0 0 0 0 0
          0 0 0 0 0 0
          0 0 0 0 0 0
          0 0 0 0 0 0
          0 0 0 0 0 0
          0 0 0 0 0 0
          0 0 0 0 0 0
          0 0 0 0 0 0
          0 0 0 0 0 0
          0 0 0 0 0 0
          0 0 0 0 0 0
          0 0 0 0 0 0
          0 0 0 0 0 0
          0 0 0 0 0 0
          0 0 0 0 0 0
          0 0 0 0 0 0
          0 0 0 0 0 0
          0 0 0 0 0 0
          0 0 0 0 0 0
          0 0 0 0 0 0
          0 0 0 0 0 0
          0 0 0 0 0 0
          0 0 0 0 0 0
          0 0 0 0 0 0
          0 0 0 0 0 0
          0 0 0 0 0 0
          0 0 0 0 0 0
          0 0 0 0 0 0
          0 0 0 0 0 0
          0 0 0 0 0 0
          0 0 0 0 0 0
          0 0 0 0 0 0
          0 0 0 0 0 0
          0 0 0 0 0 0
          0 0 0 0 0 0
          0 0 0 0 0 0
          0 0 0 0 0 0
          0 0 0 0 0 0
          0 0 0 0 0 0
          0 0 0 0 0 0
          0 0 0 0 0 0
          0 0 0 0 0 0
          0 0 0 0 0 0
          0 0 0 0 0 0
          0 0 0 0 0 0
          0 0 0 0 0 0
          0 0 0 0 0 0
          0 0 0 0 0 0
          0 0 0 0 0 0
          0 0 0 0 0 0
          0 0 0 0 0 0
          0 0 0 0 0 0
          0 0 0 0 0 0
          0 0 0 0 0 0
          0 0 0 0 0 0
          0 0 0 0 0 0
          0 0 0 0 0 0
          0 0 0 0 0 0
          0 0 0 0 0 0
          0 0 0 0 0 0
        </DataArray>
        <DataArray type="Float64" Name="gradient_error" format="ascii" RangeMin="1.504582610948841e-10" RangeMax="2.863398572795445e-8">
          1.5146635670376824e-8 2.4498184710787437e-9 1.6636705809392183e-9 1.3328539378809461e-8 6.743391530305089e-9 1.905510059448471e-8
          4.0904355880673394e-9 3.7204020660299607e-9 5.720779151997261e-9 5.018904059701596e-9 2.2223331203032506e-9 3.735816500605564e-9
          3.2332503146842813e-9 2.877716319239018e-9 3.3945337888120665e-9 2.1051459314509763e-9 1.788501216007181e-8 1.517836763751219e-8
          1.1198067846107008e-8 9.49609478808016e-9 2.8549253300274104e-8 2.8117678016224205e-8 2.5592323592028327e-8 2.3955522164296856e-8
          1.95815234825655e-8 1.495315590287676e-8 1.6783026758151048e-8 2.3809759314678377e-8 2.2219090498127167e-8 2.3975589512724177e-8
          1.3040488712682852e-9 1.177174367360639e-9 2.2284436232807635e-9 1.9088295402469803e-9 8.711271085918753e-10 1.2079238708688157e-9
          8.919393272533878e-9 7.434607929728686e-9 4.2946452072775424e-9 2.0383421356346714e-8 1.771343140076435e-8 1.0222003992280193e-8
          1.6032073604595324e-8 1.9336413835613492e-8 1.3258424887419549e-8 4.7084385429572625e-9 4.304582384465132e-9 3.4076628007580737e-9
          1.951589828961705e-9 3.020336881075651e-9 2.9310800263026426e-9 2.67501565026953e-9 5.537144251518251e-9 1.5411793975023088e-9
          1.4944276638779039e-9 2.358965924497221e-9 2.284406086462341e-9 1.1443717347983822e-9 1.8315491522646372e-9 1.7720285813753634e-9
          1.3631645469534573e-9 2.075029417662828e-9 1.604543291217079e-9 4.656646977940756e-9 4.49883722583182e-9 3.603038154587357e-9
          4.056878987937428e-9 1.5524262453625337e-9 2.297978538870295e-9 1.8625983652663623e-9 4.262278740729922e-9 1.1750171291937687e-9
          1.7712593893032036e-9 8.94051844266157e-10 1.361878646524401e-9 9.597037566454593e-10 1.4230018598997393e-9 1.0852696527307116e-9
          3.416309006358622e-9 2.7020191764340457e-9 2.689555826766235e-9 1.026361857567557e-8 9.896293690069625e-9 8.875910728141954e-9
          1.7162032506448896e-8 8.71922179265978e-9 8.395290591544512e-9 7.24825489818231e-9 6.9711757951644765e-9 7.500829109180463e-9
          6.201907194837312e-9 1.5626897940238062e-8 1.4982393430596307e-8 1.275753462285027e-8 1.3208116702765146e-8 7.4340185210480945e-9
          5.8353850018533644e-9 1.2425842614340446e-8 6.229309627501371e-9 5.104330500645906e-9 4.814437807775331e-9 3.8915765336562305e-9
          1.0733912302714423e-8 9.04336129038877e-9 8.095018440023923e-9 1.0253916980122627e-9 1.4170087515139739e-9 2.5270851505222685e-9
          7.647351595133747e-10 1.0710096180199339e-9 5.718743876837243e-10 8.096483860745495e-10 6.759361877884092e-10 1.97162198402632e-9
          4.3020510301490566e-9 3.4760211493569214e-9 2.670325451952287e-8 2.594452893316342e-8 2.3462265847629193e-8 2.863398572795445e-8
          2.4480989956719322e-8 2.3621188357316353e-8 2.165287755752755e-8 2.0784442206896782e-8 2.1026619850887756e-8 1.8285931324238895e-8
          2.734715102691846e-8 2.731661547422215e-8 2.5377530778199443e-8 2.6366722791760148e-8 1.9293496876683745e-8 1.4424011571253178e-8
          2.5192305353521717e-8 1.702888033834414e-8 1.4628208284569044e-8 1.2567313160275048e-8 1.0679325983579248e-8 2.2947128659461354e-8
          2.0242193788710473e-8 1.7346567056325266e-8 2.1562128197324417e-8 2.3142315402779315e-8 2.6102157502495865e-8 1.9210521303825115e-8
          2.096747686928183e-8 2.2439280577128476e-8 2.0087371871563646e-8 2.1548922893010436e-8 2.5264324762497843e-8 2.3925109263902984e-8
          1.6250737798619442e-8 1.8390211299724894e-8 1.75325601068216e-8 2.310700476857889e-8 2.693212223422059e-8 2.297668377307074e-8
          2.6601952679098746e-8 2.5344263465236118e-8 2.3061019856728354e-8 2.0664235524017933e-8 1.8035232704389224e-8 2.5377708574507105e-8
          2.3441674221602676e-8 2.1715990301059796e-8 8.822403706188505e-10 8.550327273471622e-10 1.3928369631851539e-9 1.3463097074250346e-9
          6.259386822479252e-10 1.0345176042451644e-9 9.991771155278663e-10 7.770317945958744e-10 1.2155533632754204e-9 9.000875254752821e-10
          2.925720294139847e-9 2.8177977362603237e-9 2.1436034430033955e-9 2.5182386440344323e-9 4.6214958617361545e-10 4.4744921381805466e-10
          7.488807970970051e-10 7.228664819401139e-10 4.055439232032778e-10 6.501071514637375e-10 6.63913795635886e-10 1.0268002271306587e-9
          4.839801434412943e-10 7.576199094440477e-10 5.353212361092172e-10 8.133323966392849e-10 5.973679783999209e-10 2.090530250543367e-9
          1.5755935285012045e-9 1.6145011188914773e-9 3.4514960122834343e-10 5.458248689135109e-10 2.7681127011839474e-10 4.288800283690696e-10
          5.8770843744788624e-9 5.642220626437223e-9 4.6217373199338084e-9 4.428259813541725e-9 4.991625188869198e-9 3.895545233995679e-9
          1.1047779574711054e-8 1.0566443820386842e-8 8.523223482593686e-9 9.250280506126158e-9 4.070320625174593e-9 3.14972178988447e-9
          3.065948007660278e-9 2.3474887998957936e-9 7.4225277723183004e-9 5.914201674950559e-9 5.465309949662451e-9 4.205675222617209e-10
          6.020913431123848e-10 3.0569571842713633e-10 4.4061102124732714e-10 3.720816584605047e-10 4.997940723215913e-10 3.653874804429118e-10
          2.161311899829385e-10 3.1453243133558295e-10 1.9060003724171268e-10 2.59592407615796e-10 1.8483589614425855e-8 1.7679803357569685e-8
          1.519766957271026e-8 1.4512154290257347e-8 1.5421918782171536e-8 1.260944228074946e-8 2.3341978237938025e-8 2.2901261370052685e-8
          1.9774439001416732e-8 2.1042768202891222e-8 1.2229492816266229e-8 9.94634377676036e-9 8.84462544723291e-9 7.116036878057161e-9
          1.7275983863770874e-8 1.4239991927832912e-8 1.2537135085580743e-8 1.9511872188771445e-8 2.0736094928832843e-8 1.901648591277587e-8
          1.961145459113738e-8 2.2139877420396777e-8 1.9603950863301114e-8 1.5017569697525932e-8 1.7382818659782705e-8 1.759362108465309e-8
          2.113834300872636e-8 2.0206420314953926e-8 1.6921628275107303e-8 1.5238431481314146e-8 1.2487469045324654e-8 2.0824070398149843e-8
          1.760707309638171e-8 1.6155461121314675e-8 2.46228239707069e-9 2.2618994206385426e-9 1.7569764509290423e-9 1.2585172732894164e-9
          1.1532855030722665e-9 6.295936910155356e-10 5.762045681610031e-10 6.522890234004792e-10 5.878616724787558e-10 8.904295802085989e-10
          4.4244405646786e-10 4.3244610018126504e-10 5.914337033020378e-10 1.1690729177666876e-9 9.592899376214856e-10 1.834251061168683e-9
          2.962213999111058e-10 4.808186183670878e-10 1.525444062246207e-9 2.7634431294852887e-9 5.693505854856742e-9 6.824742996166374e-9
          4.654187117655166e-9 8.592384283475363e-9 1.0043509139426988e-8 7.191726307523385e-9 1.1697166844673693e-8 1.3469039952464581e-8
          9.926740087267148e-9 1.4093722097531587e-8 1.6090764819962766e-8 1.2029801043091326e-8 1.4976949770140725e-8 1.703953958578685e-8
          1.2804620810328332e-8 3.1316882477934895e-10 5.285350276587328e-10 5.099653608755484e-10 4.5814316625077626e-10 1.6476620041827627e-9
          1.5832754748335871e-9 1.1815373668596896e-9 1.1344420682704592e-9 1.405602228171139e-9 1.004825671956147e-9 2.414763129994356e-10
          3.840740823338941e-10 3.0101611072429946e-10 1.1548495383898357e-9 8.227328117442286e-10 8.803478930194946e-10 6.244848027225794e-10
          3.513132953186501e-9 3.3603229922821364e-9 2.941943579668341e-9 6.997129520910796e-9 6.674198733368203e-9 5.786725228596087e-9
          2.3613501449529066e-9 1.7437562522307645e-9 4.555626232952402e-9 3.2641174701795398e-9 1.1576346162700538e-9 8.590991392509242e-10
          8.874747664300593e-10 1.7686585189557556e-9 9.578823278676527e-10 1.504582610948841e-10 2.2018057627892513e-10 1.8158645736785118e-10
          6.218871920645661e-10 4.392028890867208e-10 4.709908303172601e-10 4.84082395947687e-10 2.146470786340658e-9 1.6233275893993718e-9
          3.7054662123993684e-9 2.8641329572884747e-9 1.193508307184594e-9 2.1450629320718187e-9 1.2108728943961378e-8 1.1555420064465742e-8
          1.0019602072668653e-8 1.6713621781286285e-8 1.6111889492384484e-8 1.4260268074024063e-8 7.851050051482479e-9 5.536909867050737e-9
          1.1376255263006613e-8 8.092421410477238e-9 1.692606780364942e-8 1.69847842444223e-8 1.6172748610795625e-8 1.54146447968553e-8
          1.606061095122998e-8 1.6258067844406848e-8 1.36021582826405e-8 9.969216037134756e-9 1.4202155026052752e-8 1.0606939552099717e-8
          5.858014161488732e-9 4.625433457398386e-9 8.211110807703955e-9 6.5947661491212715e-9 3.5308809478143014e-9 5.118830264485533e-9
          1.0018668290212998e-8 8.12571668807543e-9 1.0681498367301069e-8 8.688485302492556e-9 6.378942705736261e-9 6.848036816914704e-9
        </DataArray>
        <DataArray type="Float64" Name="gradient_matprop_error" format="ascii" RangeMin="0" RangeMax="0">
          0 0 0 0 0 0
          0 0 0 0 0 0
          0 0 0 0 0 0
          0 0 0 0 0 0
          0 0 0 0 0 0
          0 0 0 0 0 0
          0 0 0 0 0 0
          0 0 0 0 0 0
          0 0 0 0 0 0
          0 0 0 0 0 0
          0 0 0 0 0 0
          0 0 0 0 0 0
          0 0 0 0 0 0
          0 0 0 0 0 0
          0 0 0 0 0 0
          0 0 0 0 0 0
          0 0 0 0 0 0
          0 0 0 0 0 0
          0 0 0 0 0 0
          0 0 0 0 0 0
          0 0 0 0 0 0
          0 0 0 0 0 0
          0 0 0 0 0 0
          0 0 0 0 0 0
          0 0 0 0 0 0
          0 0 0 0 0 0
          0 0 0 0 0 0
          0 0 0 0 0 0
          0 0 0 0 0 0
          0 0 0 0 0 0
          0 0 0 0 0 0
          0 0 0 0 0 0
          0 0 0 0 0 0
          0 0 0 0 0 0
          0 0 0 0 0 0
          0 0 0 0 0 0
          0 0 0 0 0 0
          0 0 0 0 0 0
          0 0 0 0 0 0
          0 0 0 0 0 0
          0 0 0 0 0 0
          0 0 0 0 0 0
          0 0 0 0 0 0
          0 0 0 0 0 0
          0 0 0 0 0 0
          0 0 0 0 0 0
          0 0 0 0 0 0
          0 0 0 0 0 0
          0 0 0 0 0 0
          0 0 0 0 0 0
          0 0 0 0 0 0
          0 0 0 0 0 0
          0 0 0 0 0 0
          0 0 0 0 0 0
          0 0 0 0 0 0
          0 0 0 0 0 0
          0 0 0 0 0 0
          0 0 0 0 0 0
          0 0 0 0 0 0
          0 0 0 0 0 0
          0 0 0 0 0 0
          0 0 0 0 0 0
        </DataArray>
        <DataArray type="Float64" Name="initial_marker" format="ascii" RangeMin="0" RangeMax="2">
          2 1 0.5 2 2 2
          1 1 2 2 1 2
          2 0.5 2 2 2 2
          2 2 2 2 2 2
          2 2 2 2 2 2
          1 1 2 2 0.5 2
          2 2 2 2 2 2
          2 2 2 0 0 0
          2 2 2 2 2 2
          2 2 2 2 2 2
          2 2 2 2 2 2
          2 2 2 1.5 2 2
          2 2 2 1 1.5 1.5
          2 2 2 2 2 2
          2 2 2 2 2 2
          2 2 2 2 2 2
          2 2 2 2 2 2
          2 2 2 0 1 2
          0 1 0 1 1 2
          2 2 2 2 2 2
          2 2 2 2 2 2
          2 2 2 2 2 2
          2 2 2 2 2 2
          2 2 2 2 2 2
          2 2 2 2 2 2
          2 2 2 2 2 2
          2 2 2 2 2 2
          2 2 2 2 2 2
          2 2 2 2 2 2
          2 2 2 2 2 2
          2 2 2 2 2 2
          2 2 1 1.5 1.5 2
          2 2 1.5 1.75 0.5 1.25
          2 2 2 2 2 2
          2 2 2 2 2 2
          2 2 2 2 2 0
          1 0 1 0 1 1
          0 1 0 1 2 2
          2 2 2 2 2 2
          2 2 2 2 2 2
          2 2 2 2 2 2
          2 2 2 2 2 2
          2 2 2 2 2 2
          2 2 0 0 0 0
          0 0 0 1 1 0
          0 0 0 0 0 0
          0 0 2 2 2 2
          2 2 2 2 2 2
          2 2 2 2 2 2
          2 2 2 2 2 2
          2 2 2 2 2 1
          1.5 1 2 2 2 2
          2 2 2 2 2 2
          2 2 2 2 2 2
          2 1.5 1.5 0 0.75 0.5
          2 1.75 2 1.25 2 2
          2 2 2 2 2 2
          2 2 2 2 2 2
          2 2 2 2 2 2
          2 2 2 2 2 2
          2 2 2 2 2 2
          2 2 2 2 2 2
        </DataArray>
        <DataArray type="Float64" Name="markers_norefine" format="ascii" RangeMin="0" RangeMax="2">
          2 0 0 0 0 0
          0 0 0 0 0 0
          0 0 0 0 0 0
          0 0 1.5 1.25 1 0.25
          0 0 2 2 1.5 0
          0 0 0 0 0 0
          0 0 0 0 0 0
          1 0 0 0 0 0
          0 0 0 0 0 0
          0 0 0 0 0 0
          0 0 0 0 0 0
          0 0 0 0 0 0
          0 0 0 0 0 0
          0 0 0 0 0 0
          0 0 0 0 0 0
          0 0 0 0 0 0
          0 0 0 0 0 0
          0 0 0 0 0 0
          0 0 0 0 0 0
          0 0 0.5 0.5 0.25 1.5
          0 0 0 0 0 0
          1 1 0.75 0.75 0 0
          0.5 0 0 0 0 0.25
          0 0 2 2 2 2
          2 2 2 1.75 1.75 1
          2 2 2 2 1 0
          1 0.75 0.25 0 0 1
          0.5 0 0 0 0 0
          0 0 0 0 0 0
          0 0 0 0 0 0
          0 0 0 0 0 0
          0 0 0 0 0 0
          0 0 0 0 0 0
          0 0 0 0 0 0
          0 0 0 0 0 0
          0 0 0 0 0 0
          0 0 0 0 0 0
          0 0 0 0 0 0
          0 0 0 0 0.5 0.25
          0 0 0 0 0 0
          0 0 0 1.5 1 0.5
          0.25 0.25 0 2 1.5 0.5
          0.5 0 0 0 0 0
          0 0 0 0 0 0
          0 0 0 0 0 0
          0 0 0 0 0 0
          0 0 0 0 0 0
          0 0 0 0 0 0
          0 0 0 0 0 0
          0 0 0 0 0 0
          0 0 0 0 0 0
          0 0 0 0 0 0
          0 0 0 0 0 0
          0 0 0 0 0 0
          0 0 0 0 0 0
          0 0 0 0 0 0
          0 0 0 0 0 0
          0 0 0 0 0 0
          0 0 0 0 0 0
          0 0 0 0 0 0
          0 0 0 0 0 0
          0 0 0 0 0 0
        </DataArray>
        <DataArray type="Float64" Name="markers_mustrefine" format="ascii" RangeMin="0" RangeMax="2">
          2 1 0.5 2 2 2
          1 1 2 2 1 2
          2 0.5 2 2 2 2
          2 2 2 2 2 2
          2 2 2 2 2 2
          1 1 2 2 0.5 2
          2 2 2 2 2 2
          2 2 2 0 0 0
          2 2 2 2 2 2
          2 2 2 2 2 2
          2 2 2 2 2 2
          2 2 2 1.5 2 2
          2 2 2 1 1.5 1.5
          2 2 2 2 2 2
          2 2 2 2 2 2
          2 2 2 2 2 2
          2 2 2 2 2 2
          2 2 2 0 1 2
          0 1 0 1 1 2
          2 2 2 2 2 2
          2 2 2 2 2 2
          2 2 2 2 2 2
          2 2 2 2 2 2
          2 2 2 2 2 2
          2 2 2 2 2 2
          2 2 2 2 2 2
          2 2 2 2 2 2
          2 2 2 2 2 2
          2 2 2 2 2 2
          2 2 2 2 2 2
          2 2 2 2 2 2
          2 2 1 1.5 1.5 2
          2 2 1.5 1.75 0.5 1.25
          2 2 2 2 2 2
          2 2 2 2 2 2
          2 2 2 2 2 0
          1 0 1 0 1 1
          0 1 0 1 2 2
          2 2 2 2 2 2
          2 2 2 2 2 2
          2 2 2 2 2 2
          2 2 2 2 2 2
          2 2 2 2 2 2
          2 2 0 0 0 0
          0 0 0 1 1 0
          0 0 0 0 0 0
          0 0 2 2 2 2
          2 2 2 2 2 2
          2 2 2 2 2 2
          2 2 2 2 2 2
          2 2 2 2 2 1
          1.5 1 2 2 2 2
          2 2 2 2 2 2
          2 2 2 2 2 2
          2 1.5 1.5 0 0.75 0.5
          2 1.75 2 1.25 2 2
          2 2 2 2 2 2
          2 2 2 2 2 2
          2 2 2 2 2 2
          2 2 2 2 2 2
          2 2 2 2 2 2
          2 2 2 2 2 2
        </DataArray>
        <DataArray type="Float64" Name="gradient_marker" format="ascii" RangeMin="1" RangeMax="1">
          1 1 1 1 1 1
          1 1 1 1 1 1
          1 1 1 1 1 1
          1 1 1 1 1 1
          1 1 1 1 1 1
          1 1 1 1 1 1
          1 1 1 1 1 1
          1 1 1 1 1 1
          1 1 1 1 1 1
          1 1 1 1 1 1
          1 1 1 1 1 1
          1 1 1 1 1 1
          1 1 1 1 1 1
          1 1 1 1 1 1
          1 1 1 1 1 1
          1 1 1 1 1 1
          1 1 1 1 1 1
          1 1 1 1 1 1
          1 1 1 1 1 1
          1 1 1 1 1 1
          1 1 1 1 1 1
          1 1 1 1 1 1
          1 1 1 1 1 1
          1 1 1 1 1 1
          1 1 1 1 1 1
          1 1 1 1 1 1
          1 1 1 1 1 1
          1 1 1 1 1 1
          1 1 1 1 1 1
          1 1 1 1 1 1
          1 1 1 1 1 1
          1 1 1 1 1 1
          1 1 1 1 1 1
          1 1 1 1 1 1
          1 1 1 1 1 1
          1 1 1 1 1 1
          1 1 1 1 1 1
          1 1 1 1 1 1
          1 1 1 1 1 1
          1 1 1 1 1 1
          1 1 1 1 1 1
          1 1 1 1 1 1
          1 1 1 1 1 1
          1 1 1 1 1 1
          1 1 1 1 1 1
          1 1 1 1 1 1
          1 1 1 1 1 1
          1 1 1 1 1 1
          1 1 1 1 1 1
          1 1 1 1 1 1
          1 1 1 1 1 1
          1 1 1 1 1 1
          1 1 1 1 1 1
          1 1 1 1 1 1
          1 1 1 1 1 1
          1 1 1 1 1 1
          1 1 1 1 1 1
          1 1 1 1 1 1
          1 1 1 1 1 1
          1 1 1 1 1 1
          1 1 1 1 1 1
          1 1 1 1 1 1
        </DataArray>
        <DataArray type="Float64" Name="gradient_matprop_marker" format="ascii" RangeMin="0" RangeMax="0">
          0 0 0 0 0 0
          0 0 0 0 0 0
          0 0 0 0 0 0
          0 0 0 0 0 0
          0 0 0 0 0 0
          0 0 0 0 0 0
          0 0 0 0 0 0
          0 0 0 0 0 0
          0 0 0 0 0 0
          0 0 0 0 0 0
          0 0 0 0 0 0
          0 0 0 0 0 0
          0 0 0 0 0 0
          0 0 0 0 0 0
          0 0 0 0 0 0
          0 0 0 0 0 0
          0 0 0 0 0 0
          0 0 0 0 0 0
          0 0 0 0 0 0
          0 0 0 0 0 0
          0 0 0 0 0 0
          0 0 0 0 0 0
          0 0 0 0 0 0
          0 0 0 0 0 0
          0 0 0 0 0 0
          0 0 0 0 0 0
          0 0 0 0 0 0
          0 0 0 0 0 0
          0 0 0 0 0 0
          0 0 0 0 0 0
          0 0 0 0 0 0
          0 0 0 0 0 0
          0 0 0 0 0 0
          0 0 0 0 0 0
          0 0 0 0 0 0
          0 0 0 0 0 0
          0 0 0 0 0 0
          0 0 0 0 0 0
          0 0 0 0 0 0
          0 0 0 0 0 0
          0 0 0 0 0 0
          0 0 0 0 0 0
          0 0 0 0 0 0
          0 0 0 0 0 0
          0 0 0 0 0 0
          0 0 0 0 0 0
          0 0 0 0 0 0
          0 0 0 0 0 0
          0 0 0 0 0 0
          0 0 0 0 0 0
          0 0 0 0 0 0
          0 0 0 0 0 0
          0 0 0 0 0 0
          0 0 0 0 0 0
          0 0 0 0 0 0
          0 0 0 0 0 0
          0 0 0 0 0 0
          0 0 0 0 0 0
          0 0 0 0 0 0
          0 0 0 0 0 0
          0 0 0 0 0 0
          0 0 0 0 0 0
        </DataArray>
        <DataArray type="Float64" Name="combo" format="ascii" RangeMin="1" RangeMax="2">
          2 1 1 1 1 1
          1 1 1 1 1 1
          1 1 1 1 1 1
          1 1 1.75 1.625 1.5 1.125
          1 1 2 2 1.75 1
          1 1 1 1 1 1
          1 1 1 1 1 1
          1.5 1 1 1 1 1
          1 1 1 1 1 1
          1 1 1 1 1 1
          1 1 1 1 1 1
          1 1 1 1 1 1
          1 1 1 1 1 1
          1 1 1 1 1 1
          1 1 1 1 1 1
          1 1 1 1 1 1
          1 1 1 1 1 1
          1 1 1 1 1 1
          1 1 1 1 1 1
          1 1 1.25 1.25 1.125 1.75
          1 1 1 1 1 1
          1.5 1.5 1.375 1.375 1 1
          1.25 1 1 1 1 1.125
          1 1 2 2 2 2
          2 2 2 1.875 1.875 1.5
          2 2 2 2 1.5 1
          1.5 1.375 1.125 1 1 1.5
          1.25 1 1 1 1 1
          1 1 1 1 1 1
          1 1 1 1 1 1
          1 1 1 1 1 1
          1 1 1 1 1 1
          1 1 1 1 1 1
          1 1 1 1 1 1
          1 1 1 1 1 1
          1 1 1 1 1 1
          1 1 1 1 1 1
          1 1 1 1 1 1
          1 1 1 1 1.25 1.125
          1 1 1 1 1 1
          1 1 1 1.75 1.5 1.25
          1.125 1.125 1 2 1.75 1.25
          1.25 1 1 1 1 1
          1 1 1 1 1 1
          1 1 1 1 1 1
          1 1 1 1 1 1
          1 1 1 1 1 1
          1 1 1 1 1 1
          1 1 1 1 1 1
          1 1 1 1 1 1
          1 1 1 1 1 1
          1 1 1 1 1 1
          1 1 1 1 1 1
          1 1 1 1 1 1
          1 1 1 1 1 1
          1 1 1 1 1 1
          1 1 1 1 1 1
          1 1 1 1 1 1
          1 1 1 1 1 1
          1 1 1 1 1 1
          1 1 1 1 1 1
          1 1 1 1 1 1
        </DataArray>
        <DataArray type="Float64" Name="dHdT" format="ascii" RangeMin="25.83335038131927" RangeMax="60.938627201654896">
          60.45434899046701 26.198066634960917 26.0641651693809 32.7877322878537 28.801045840647987 36.2172271843977
          26.515126440266826 26.444629394218488 28.484142692453958 28.107587221599257 26.157993875910893 27.390446298921777
          27.16547914673507 26.283989038061527 27.318616169576202 26.687544042038905 35.18461402192929 34.10264490741018
          31.570960547174888 30.808546635990325 51.82954432608069 47.57816755399713 46.2509610355337 40.83299161217828
          36.66955427373112 33.847432692081064 46.1712680288506 53.49598186779899 52.6661037421605 40.93158205688522
          26.012959034498692 25.991049740178067 26.69489499584085 26.566241737153753 25.940857103050686 26.290939683559778
          29.978355975876426 29.050284925202444 27.50380215897857 37.87932241051489 35.78598375383026 30.831812421709767
          47.262648853211836 39.47054041758334 33.41064929643273 26.127855039257277 26.102654164871563 26.043368178918303
          26.724594234427872 27.175147154059438 27.133050045719628 27.016039349464442 28.38319791981266 26.521878144331787
          26.5014657617126 26.852468513326023 26.819572483271276 26.324019600468116 26.5968506230238 26.571385211305966
          26.44492805648237 26.728032913866766 26.500622935142403 27.870775975389012 27.792647344616782 27.330169502432224
          27.579139572936313 26.54487304905389 26.847888234099386 26.658080390129197 27.727004473740287 26.361779554697037
          26.595889887142473 26.217413563213285 26.39865097695037 26.266272807961744 26.44716770532287 26.284319769008977
          27.28372195767256 26.936193941131247 26.964801955418043 31.506269699335515 31.233112338523686 30.47862015033435
          34.91446198992031 30.212754085798995 29.983026531723418 29.137641256243626 28.974739306643094 29.39036374888408
          28.54690185457372 34.00981974798763 33.73295676828973 32.48958997384403 32.87609879534977 29.48274383044239
          28.525212915038026 32.69485070125813 28.643036636415875 27.98946171142808 27.914279912256706 27.43016521677926
          31.41347337499583 30.181530729721523 29.7110303942944 26.306523241314462 26.477305885989704 26.941455046189223
          26.17674307605347 26.30764309569024 26.077655605442587 26.177850347833537 26.129037040853177 26.669279970308764
          27.732249125523367 27.293440483863517 42.893275830260976 42.039693400466476 39.4621576297578 51.07984500820015
          40.59162902447193 39.5474395375926 37.64298418406494 36.894516499735396 37.27408387235851 35.33126288877916
          50.318515951703546 48.58826465696839 44.60663247568599 44.24628465993 36.41103299758491 33.82030082948629
          41.485132615764826 34.9467622054405 33.480369071817165 32.49948164404927 31.174197740167894 39.17102090958472
          37.046123707407496 35.294591007373896 50.385180673301 51.84434039445688 52.904965215934524 49.02078828803921
          53.12271559287348 54.11284303547465 56.4486827536542 54.83678369444796 52.10784289388411 48.66407222689582
          50.63903293844871 54.196559874661496 59.37804591987223 55.15267274507239 47.50510798900805 39.47042414626957
          50.13469747168911 44.07072497969866 40.48932058465594 37.35067984906963 35.62839352990142 46.41461537819174
          42.17049436996932 38.21609869926253 26.198384360775897 26.186568651428352 26.394731369516485 26.375319549090193
          26.080848887677455 26.23615105330282 26.221716736865364 26.15391420840853 26.321530711057132 26.181787239350783
          27.004507148212046 26.95867285218056 26.660588524167963 26.83309143015329 26.007243951312415 26.001020028609833
          26.113807555850148 26.103297901852745 25.984014173204923 26.07434110845779 26.10632977226835 26.24429119538805
          26.022288320184288 26.124617072192848 26.05239541480803 26.158103805946567 26.061028884863063 26.657106297190662
          26.434029962522875 26.4662507363289 25.9595163962807 26.03307345318753 25.93203670714802 25.98743670508833
          28.31794050662516 28.199554495808915 27.675845905384083 27.589370248322098 27.884446541549657 27.357128171953697
          31.422116954926413 31.1023128105025 29.715780349469206 30.228051320754798 27.465894678737214 27.045451272231226
          27.03907784349731 26.72443515468089 29.102067560047743 28.243679595211663 28.077074397893437 26.003020166822456
          26.078204893330003 25.947836683219418 26.002534854727678 25.980833573829297 26.04163087209263 25.97595402584126
          25.907195468179573 25.945925797123603 25.896118074121926 25.927231121385375 35.203603812588405 34.86329531926287
          33.78254592192874 33.41115620467448 33.818625547524455 32.28306561790019 41.4902328212345 40.401216600831155
          37.28457810895925 37.915704066605215 32.03614848483165 30.562449601617235 29.927380208794126 28.855838232901895
          35.26609128829416 33.56473888297195 32.369151389660814 53.569087016858305 50.195923177221836 43.534139917602275
          41.71634915529137 42.95019406910768 38.34426326845769 60.938627201654896 56.15721190431084 44.4744418374363
          45.84198589504274 37.548887084749296 35.70583278183351 34.29168541264198 32.68222800337185 38.43358282407893
          36.36951625415236 34.95514607918565 25.974339812670916 25.961330278233227 25.92944835038889 25.895229780066547
          25.888299919000765 25.852992226708157 25.849532396562033 25.909862555472678 25.899011997598798 25.871663728578504
          25.8413304218575 25.874402642972544 25.85498415069077 25.89604418407601 25.90015104043296 25.984190037973626
          25.83335038131927 25.855176651448602 26.457545713336614 26.946759203237 28.33485235053411 29.067723083995237
          27.759153976463605 30.01331819119641 31.15871475021112 29.043532450538702 32.07745491289445 33.396907627452684
          30.77364352387369 33.641299584388435 34.855743415791665 32.301868627213025 34.17148516674908 35.329331598442955
          32.881679224854125 25.94246454163396 26.021555929223663 26.014112513868742 25.993696681060673 26.45075621648008