<?xml version="1.0"?>
<VTKFile type="UnstructuredGrid" version="0.1" byte_order="LittleEndian" header_type="UInt32" compressor="vtkZLibDataCompressor">
  <UnstructuredGrid>
    <Piece NumberOfPoints="383" NumberOfCells="182">
      <PointData>
        <DataArray type="Int32" Name="libmesh_node_id" format="ascii" RangeMin="100" RangeMax="1425">
          100 101 102 103 129 130
          131 132 133 144 145 146
          159 160 161 162 163 174
          175 176 190 191 193 204
          205 206 210 211 214 215
          217 218 219 220 221 223
          224 225 227 228 229 230
          233 236 237 238 242 271
          272 273 274 275 276 277
          278 279 280 281 282 283
          284 285 286 287 288 289
          290 291 292 293 297 298
          300 301 303 346 347 348
          349 350 351 352 353 354
          355 356 357 358 359 370
          371 374 376 377 378 379
          383 408 409 410 411 412
          413 414 415 416 417 418
          419 420 421 422 423 424
          425 426 427 428 429 430
          431 432 433 434 435 436
          437 438 439 440 441 442
          443 444 448 449 451 452
          454 573 574 575 576 577
          578 579 580 581 582 583
          584 585 586 611 612 613
          614 615 616 617 618 619
          620 625 626 631 632 635
          636 637 638 639 640 641
          642 643 644 645 646 647
          648 649 650 651 652 653
          654 655 656 659 660 661
          662 663 664 667 670 671
          672 673 674 675 676 677
          678 709 710 711 712 713
          714 715 716 717 718 719
          720 721 722 723 724 725
          726 727 728 729 730 731
          732 733 734 735 736 737
          738 739 740 741 742 743
          744 745 746 747 748 749
          750 751 752 753 754 758
          759 761 762 763 764 765
          766 767 768 769 770 771
          772 775 776 778 780 857
          858 859 860 861 862 863
          869 876 877 878 879 880
          884 885 889 890 891 892
          893 904 905 906 909 913
          1396 1397 1400 1401 1403 1404
          1406 1407 1408 1409 1410 1411
          1412 1413 1414 1415 1416 1417
          1418 1419 1420 1421 1422 1423
          1424 1425 232 235 294 296
          299 311 312 372 373 313
          375 381 380 382 657 658
          231 665 666 668 669 305
          308 240 755 756 757 760
          295 445 773 450 774 777
          302 779 864 865 866 867
          868 870 871 872 873 875
          881 882 883 886 887 888
          894 895 898 900 901 903
          907 908 910 911 912
        </DataArray>
        <DataArray type="Float64" Name="bounds" format="ascii" RangeMin="0" RangeMax="0">
          0 0 0 0 0 0
          0 0 0 0 0 0
          0 0 0 0 0 0
          0 0 0 0 0 0
          0 0 0 0 0 0
          0 0 0 0 0 0
          0 0 0 0 0 0
          0 0 0 0 0 0
          0 0 0 0 0 0
          0 0 0 0 0 0
          0 0 0 0 0 0
          0 0 0 0 0 0
          0 0 0 0 0 0
          0 0 0 0 0 0
          0 0 0 0 0 0
          0 0 0 0 0 0
          0 0 0 0 0 0
          0 0 0 0 0 0
          0 0 0 0 0 0
          0 0 0 0 0 0
          0 0 0 0 0 0
          0 0 0 0 0 0
          0 0 0 0 0 0
          0 0 0 0 0 0
          0 0 0 0 0 0
          0 0 0 0 0 0
          0 0 0 0 0 0
          0 0 0 0 0 0
          0 0 0 0 0 0
          0 0 0 0 0 0
          0 0 0 0 0 0
          0 0 0 0 0 0
          0 0 0 0 0 0
          0 0 0 0 0 0
          0 0 0 0 0 0
          0 0 0 0 0 0
          0 0 0 0 0 0
          0 0 0 0 0 0
          0 0 0 0 0 0
          0 0 0 0 0 0
          0 0 0 0 0 0
          0 0 0 0 0 0
          0 0 0 0 0 0
          0 0 0 0 0 0
          0 0 0 0 0 0
          0 0 0 0 0 0
          0 0 0 0 0 0
          0 0 0 0 0 0
          0 0 0 0 0 0
          0 0 0 0 0 0
          0 0 0 0 0 0
          0 0 0 0 0 0
          0 0 0 0 0 0
          0 0 0 0 0 0
          0 0 0 0 0 0
          0 0 0 0 0 0
          0 0 0 0 0 0
          0 0 0 0 0 0
          0 0 0 0 0 0
          0 0 0 0 0 0
          0 0 0 0 0 0
          0 0 0 0 0 0
          0 0 0 0 0 0
          0 0 0 0 0
        </DataArray>
        <DataArray type="Float64" Name="gradient_error" format="ascii" RangeMin="1.324236455612151e-10" RangeMax="0.0000016908666132907033">
          1.997739334203452e-9 1.1701807904148567e-9 2.2599053578618365e-10 2.0488493591949878e-10 4.170862080514551e-9 2.8889153807545087e-9
          1.9399649088667147e-9 3.247854561978096e-10 4.3818629197527445e-10 2.9153696760270365e-9 1.6263055095460553e-9 5.637780975435266e-10
          5.389984688462857e-8 1.1295437461981987e-8 1.2083895695359491e-8 1.897820530938831e-9 1.7485846060027736e-9 3.1048043315163146e-9
          1.5594937722123988e-9 4.843144283573709e-10 2.829714837300549e-7 7.088538551143065e-9 8.457227113487707e-10 2.607884777552157e-9
          6.432255888452009e-10 1.4591274918240001e-10 1.2222589609844907e-7 8.816639369523249e-8 7.705471348392073e-7 3.464497302375154e-7
          1.5838181035748113e-8 6.642817210494957e-8 2.2132064244019982e-7 3.786447525662453e-8 3.195020616865654e-8 1.2052209418401839e-8
          0.000001043379978599582 0.0000012000558195683096 3.226831515742116e-7 2.5741264059251473e-8 5.2912570314006356e-9 6.0145993437739465e-9
          2.3305464299741456e-9 5.27620950733398e-9 4.163752458529883e-9 1.5294186679679392e-9 4.179733370957715e-9 3.880167336178509e-7
          3.9795517477381046e-7 7.42780189217587e-7 0.0000012014931353228435 5.748635211510947e-7 7.508247965373675e-7 0.0000012778225507730691
          2.135587857983798e-7 3.519875648665943e-7 4.0248685971488807e-7 3.3626135256521757e-7 6.317444537053315e-7 8.737120793982897e-7
          3.510692971541776e-7 2.156886466491848e-7 7.439533902321075e-7 0.0000014606258959622708 4.072423162414779e-7 7.887322412329829e-7
          5.5211132351832545e-8 1.783555392674392e-7 4.1314912309185364e-7 3.956660923056756e-7 2.2496128134733773e-7 2.7678361754761666e-7
          3.966559264946394e-7 5.075217150196974e-7 2.686012070399642e-7 3.6027246050808363e-10 7.440965453681117e-10 5.501662180521231e-10
          9.704270810655165e-10 1.847925220192267e-10 2.7910955415284997e-10 2.1248946132782455e-10 2.629421383176284e-10 5.280733756465585e-10
          1.324236455612151e-10 7.400599755961625e-10 1.1967576167629214e-9 3.734265862864733e-10 3.133948153074322e-10 1.2638411242070805e-8
          2.5214524382028573e-8 6.149647667267145e-9 1.8131497527327698e-9 2.7180161973119952e-9 5.107077436909473e-9 9.791934142931446e-10
          3.6228826418912215e-9 3.2013867148021093e-7 3.024909946238758e-7 3.046696006707721e-7 2.928978287004942e-7 3.221468199029174e-7
          3.526380516585644e-7 3.215254049007245e-7 3.317321934953797e-7 3.6000988383606673e-7 3.915751238052278e-7 2.802974714291071e-7
          3.476047151992255e-7 3.3069692166322464e-7 3.83946395487003e-7 2.4428522424725634e-7 3.136198389943105e-7 2.8467783506831253e-7
          3.530678990054303e-7 3.6795448447880186e-7 3.81925889487704e-7 3.5743369268567136e-7 4.1031351250326484e-7 4.4207758416463554e-7
          3.8283550220267206e-7 4.7452040217381674e-7 5.037865643948461e-7 3.2611779129480605e-7 4.2106051319030665e-7 4.6166374375553273e-7
          3.311367747325753e-7 4.0678264779963766e-7 4.76960821321658e-7 4.5325843992938665e-7 3.010935401343481e-7 2.7199720287492735e-7
          2.947345382162433e-7 3.0918724634571395e-7 2.7091880676099923e-7 3.652427063516412e-7 2.4577005789811587e-7 2.972192723099819e-7
          4.179348229102212e-7 7.517459576708629e-10 6.595471407567569e-10 1.953596825455312e-9 7.931768089728438e-9 1.9413396612535512e-9
          1.9529461844763655e-9 6.286860539022927e-9 2.9633090319557916e-10 8.521471424785242e-10 8.710564770990769e-10 5.673483238426511e-10
          1.964552707699181e-9 4.641952988317415e-9 8.899658117196296e-10 1.8156120797172797e-9 2.5192621424324473e-9 2.4476155611999003e-9
          6.426836290107422e-9 9.527470999146574e-10 1.0246400020741276e-9 2.0039681003588862e-9 3.0796190426825215e-9 1.03344104377824e-8
          1.0965329042335979e-9 0.0000014982358842257206 0.0000013909447055540838 0.0000016898117769754417 0.0000016908666132907033 9.990757014267173e-8
          1.2890098488737696e-7 1.756744752304744e-7 2.1136345568826294e-7 7.145125297487663e-8 1.398690759744464e-7 1.629624157665423e-8
          2.1198619361244952e-8 3.669933961851905e-8 1.061070965540888e-8 2.514413803182771e-7 2.9382592648914895e-7 2.0828689897401615e-7
          2.6100997145835673e-8 9.091601668296017e-9 7.229888540237592e-9 7.420029016457394e-9 2.658397526928227e-8 2.9656817562276177e-8
          2.4683649861734486e-8 2.1117143732910923e-8 6.529235822955492e-9 5.368175412179166e-9 1.971048216119279e-8 1.565031219653958e-8
          1.98983407834196e-8 5.0892070000804614e-9 4.634872561213028e-9 2.2161441753474595e-9 4.180538122345594e-9 1.4291525400534919e-8
          6.83930782003645e-9 4.540588921875483e-8 1.0109008370377868e-7 4.829522001762623e-9 6.649099720601618e-9 1.5677427818880253e-7
          8.468677439440614e-9 3.2241592286068085e-7 3.088730340005762e-7 2.7667784615638e-7 2.690803674084729e-7 2.7425149926913566e-7
          2.889049556311645e-7 2.7133184870782813e-7 2.9533014514047145e-7 3.035584119931933e-7 2.7358333000718337e-7 2.2608707567759048e-7
          2.6893687726175285e-7 2.6598585125927625e-7 3.1178667884591516e-7 2.2745336852478517e-7 2.1999123618412703e-7 2.6531685437147765e-7
          2.586583512435285e-7 2.376987909063444e-7 2.7698429816820884e-7 1.8370095829733031e-7 2.185535617587158e-7 2.255318996992925e-7
          2.092161691368005e-7 3.031803402181701e-7 2.9732546630292995e-7 3.1626980543007324e-7 2.5340616522010125e-7 7.290931996508899e-8
          7.866755693386878e-8 9.240099409725823e-8 1.7796573305248712e-7 1.7363542433327126e-7 1.58081210887789e-7 1.6289151624149613e-7
          6.724938362732156e-8 1.67056799789061e-7 1.5115404028231575e-7 8.442579390264856e-8 1.4252699744230677e-7 1.478172994305051e-7
          1.352512807755705e-7 4.6891331067980855e-8 5.4937436969251924e-8 1.5806102188999816e-7 1.4202735803386036e-7 6.298354287052298e-8
          1.2599369417772259e-7 2.415893078158576e-7 2.862967130705131e-7 2.4199767201007873e-7 2.934738982631599e-7 1.7070823351457447e-7
          2.0431405558641917e-7 1.9667303563112975e-7 3.310041183251686e-7 3.44950124516241e-7 2.379198776582639e-7 2.3807177721067705e-7
          2.9704883923344466e-7 1.472395459279496e-7 1.8374184057149157e-7 3.560259012562122e-7 2.202441352150336e-7 7.640451630047863e-8
          8.312704364417123e-8 8.054361339611745e-8 7.641753758194512e-8 7.850720383830353e-8 7.946462745692097e-8 7.659956212436448e-8
          7.056258479445197e-8 6.313573073821271e-8 6.963196626209945e-8 6.438904050837235e-8 7.900169787586028e-8 6.256385070416844e-8
          5.773702861124093e-8 6.464998768147868e-8 7.814744002866913e-8 6.404259128592689e-8 6.703428147569789e-8 7.832365006945827e-8
          6.1736865766545e-8 8.548422068148408e-8 8.434711288952051e-8 8.909324739723381e-8 8.915716364933267e-8 9.358239399304353e-8
          9.144264601696363e-9 6.063357598579846e-9 2.8394757889999695e-8 1.9401532237877047e-8 2.9824505954633304e-9 1.0408306585754403e-8
          1.392509440593722e-8 1.1918517288922482e-8 1.626319254454863e-8 2.5732515663048028e-8 2.346934624266848e-8 1.9471207348856828e-8
          2.1585311774107822e-8 9.911940171907746e-9 1.5473068455045178e-8 1.7438107885167616e-8 1.2260805565452935e-7 1.1876052135675016e-7
          1.3691740245470098e-7 1.8299549197620792e-7 1.814384915281864e-7 1.660431231408417e-7 1.6709012750037217e-7 1.1491298705897096e-7
          1.50647754753497e-7 1.511847630245364e-7 1.248498746272733e-7 3.436092911458894e-8 1.3281482524925804e-7 2.4154727595250597e-7
          1.9347346801411944e-7 9.740106039598392e-8 1.1115690914709922e-7 3.1574344038811135e-8 6.246178328205578e-8 4.819949575488944e-8
          1.2998763255284636e-8 9.970904218208298e-8 5.0510276835551464e-8 1.9847878843302122e-8 2.3838508108205608e-8 2.18684244458126e-8
          3.656750346032508e-8 1.5902351324516257e-8 1.5096938362525588e-8 7.50293891035253e-9 7.1711233651944895e-9 8.102235274307044e-8
          3.6449939404198394e-8 1.9731869670586075e-7 4.1955194919361716e-8 1.4646322650343308e-7 1.3056290043244924e-7 1.146625743614654e-7
          1.703967918499743e-7 1.4514168958573305e-7 2.2660964564202485e-7 1.9479298814101066e-7 2.3465182648478412e-7 1.6541484401624317e-7
          1.9735157195843216e-7 2.4485012236933177e-7 8.54754495829156e-8 8.325893839722148e-8 7.797837149038306e-8 9.091078061557125e-8
          8.883245640151785e-8 7.841679866107752e-8 8.262437298180773e-8 8.472475204914312e-8 8.521533424004327e-8 8.650638582730911e-8
          7.022057889605317e-8 6.213268438083436e-8 7.205450343092919e-8 6.561439308570734e-8 8.272714762617197e-8 8.963304855600004e-8
          6.538958621642193e-8 7.120993442161005e-8 8.400999410995662e-8 5.281594004346788e-8 6.190751503321206e-8 8.127822909299808e-8
          9.007343462122386e-8 9.883307915772825e-8 8.88140016928067e-8 9.256988107804172e-8 1.003763836844804e-7
        </DataArray>
        <DataArray type="Float64" Name="gradient_matprop_error" format="ascii" RangeMin="0" RangeMax="0">
          0 0 0 0 0 0
          0 0 0 0 0 0
          0 0 0 0 0 0
          0 0 0 0 0 0
          0 0 0 0 0 0
          0 0 0 0 0 0
          0 0 0 0 0 0
          0 0 0 0 0 0
          0 0 0 0 0 0
          0 0 0 0 0 0
          0 0 0 0 0 0
          0 0 0 0 0 0
          0 0 0 0 0 0
          0 0 0 0 0 0
          0 0 0 0 0 0
          0 0 0 0 0 0
          0 0 0 0 0 0
          0 0 0 0 0 0
          0 0 0 0 0 0
          0 0 0 0 0 0
          0 0 0 0 0 0
          0 0 0 0 0 0
          0 0 0 0 0 0
          0 0 0 0 0 0
          0 0 0 0 0 0
          0 0 0 0 0 0
          0 0 0 0 0 0
          0 0 0 0 0 0
          0 0 0 0 0 0
          0 0 0 0 0 0
          0 0 0 0 0 0
          0 0 0 0 0 0
          0 0 0 0 0 0
          0 0 0 0 0 0
          0 0 0 0 0 0
          0 0 0 0 0 0
          0 0 0 0 0 0
          0 0 0 0 0 0
          0 0 0 0 0 0
          0 0 0 0 0 0
          0 0 0 0 0 0
          0 0 0 0 0 0
          0 0 0 0 0 0
          0 0 0 0 0 0
          0 0 0 0 0 0
          0 0 0 0 0 0
          0 0 0 0 0 0
          0 0 0 0 0 0
          0 0 0 0 0 0
          0 0 0 0 0 0
          0 0 0 0 0 0
          0 0 0 0 0 0
          0 0 0 0 0 0
          0 0 0 0 0 0
          0 0 0 0 0 0
          0 0 0 0 0 0
          0 0 0 0 0 0
          0 0 0 0 0 0
          0 0 0 0 0 0
          0 0 0 0 0 0
          0 0 0 0 0 0
          0 0 0 0 0 0
          0 0 0 0 0 0
          0 0 0 0 0
        </DataArray>
        <DataArray type="Float64" Name="initial_marker" format="ascii" RangeMin="0" RangeMax="2">
          0 0 0 0 0 0
          0 0 0 0 0 0
          0 0 0 0 0 0
          0 0 2 0 0 0
          0 0 0 0 0 0
          0 0 0 0 0 0
          0 0 0 0 0 0
          0 0 0 0 0 0
          0 0 0 0 0 0
          0 0.5 0 0 0 0
          0 1 0 0 1 0
          0 0 1 0.25 0 0
          2 1 0 0 0 0
          0 0 0 0 0 0
          0 0 0 0 0 0
          0 0 0 0 0 0
          0 0 0 0 0.5 1
          0.75 0.25 0.25 1.5 1.25 0
          0.25 0 0.5 2 1.5 0.5
          2 0.5 1 0.5 2 1.5
          0.75 2 1.75 0 0.5 0.75
          2 2 2 1 0.5 0.5
          2 2 0.3333333333333333 0.75 2 2
          1 0 0 0 0 0
          0 0 0 0 0 0
          0 0 0 0 0 0
          0 0 0 0 0 0
          0 0 0 0 0 0
          0 0 0 0 0 0
          0 0 0 0 0 0
          0 0 0 0 0 0
          0 0 0 0 0 0
          0 0 0 0 0 0
          0 0 0 0 0 0
          0 0 0 0 0 0
          0 0 0 0 0 0
          0 0 0 0 0 0
          0 0 0 0 0 0
          0 0 0 0 0 0
          0 0 0 0 0 0
          0 0 0 0 0 0
          0 0 0 0 0 0
          0 0 0 0 0 0
          0 0 0 0 0 0
          0 0 0 0 0 0
          1 1 1 2 0 0
          0 0 0.5 0 1.5 0
          0 0 1 2 2 2
          2 2 2 2 2 2
          0 0 0 0 0 0
          0 0 0 0 0 0
          0 0 0 0 0 0
          0 0 0 0 0 0
          0 0 0 0 0 0
          0 0 0 0 0 0
          0 0 0 0 0 0
          0 0 0 0 0 0
          0 0 0 0 0 0
          0 0 0 0.5 0 0
          1 0 1 1 0 1
          1 1 1 2 2 2
          0.5 0 0.5 0 1.5 1.5
          2 2 2 2 2 2
          2 2 1.3333333333333333 2 2
        </DataArray>
        <DataArray type="Float64" Name="markers_norefine" format="ascii" RangeMin="0" RangeMax="0">
          0 0 0 0 0 0
          0 0 0 0 0 0
          0 0 0 0 0 0
          0 0 0 0 0 0
          0 0 0 0 0 0
          0 0 0 0 0 0
          0 0 0 0 0 0
          0 0 0 0 0 0
          0 0 0 0 0 0
          0 0 0 0 0 0
          0 0 0 0 0 0
          0 0 0 0 0 0
          0 0 0 0 0 0
          0 0 0 0 0 0
          0 0 0 0 0 0
          0 0 0 0 0 0
          0 0 0 0 0 0
          0 0 0 0 0 0
          0 0 0 0 0 0
          0 0 0 0 0 0
          0 0 0 0 0 0
          0 0 0 0 0 0
          0 0 0 0 0 0
          0 0 0 0 0 0
          0 0 0 0 0 0
          0 0 0 0 0 0
          0 0 0 0 0 0
          0 0 0 0 0 0
          0 0 0 0 0 0
          0 0 0 0 0 0
          0 0 0 0 0 0
          0 0 0 0 0 0
          0 0 0 0 0 0
          0 0 0 0 0 0
          0 0 0 0 0 0
          0 0 0 0 0 0
          0 0 0 0 0 0
          0 0 0 0 0 0
          0 0 0 0 0 0
          0 0 0 0 0 0
          0 0 0 0 0 0
          0 0 0 0 0 0
          0 0 0 0 0 0
          0 0 0 0 0 0
          0 0 0 0 0 0
          0 0 0 0 0 0
          0 0 0 0 0 0
          0 0 0 0 0 0
          0 0 0 0 0 0
          0 0 0 0 0 0
          0 0 0 0 0 0
          0 0 0 0 0 0
          0 0 0 0 0 0
          0 0 0 0 0 0
          0 0 0 0 0 0
          0 0 0 0 0 0
          0 0 0 0 0 0
          0 0 0 0 0 0
          0 0 0 0 0 0
          0 0 0 0 0 0
          0 0 0 0 0 0
          0 0 0 0 0 0
          0 0 0 0 0 0
          0 0 0 0 0
        </DataArray>
        <DataArray type="Float64" Name="markers_mustrefine" format="ascii" RangeMin="0" RangeMax="2">
          0 0 0 0 0 0
          0 0 0 0 0 0
          0 0 0 0 0 0
          0 0 2 0 0 0
          0 0 0 0 0 0
          0 0 0 0 0 0
          0 0 0 0 0 0
          0 0 0 0 0 0
          0 0 0 0 0 0
          0 0.5 0 0 0 0
          0 1 0 0 1 0
          0 0 1 0.25 0 0
          2 1 0 0 0 0
          0 0 0 0 0 0
          0 0 0 0 0 0
          0 0 0 0 0 0
          0 0 0 0 0.5 1
          0.75 0.25 0.25 1.5 1.25 0
          0.25 0 0.5 2 1.5 0.5
          2 0.5 1 0.5 2 1.5
          0.75 2 1.75 0 0.5 0.75
          2 2 2 1 0.5 0.5
          2 2 0.3333333333333333 0.75 2 2
          1 0 0 0 0 0
          0 0 0 0 0 0
          0 0 0 0 0 0
          0 0 0 0 0 0
          0 0 0 0 0 0
          0 0 0 0 0 0
          0 0 0 0 0 0
          0 0 0 0 0 0
          0 0 0 0 0 0
          0 0 0 0 0 0
          0 0 0 0 0 0
          0 0 0 0 0 0
          0 0 0 0 0 0
          0 0 0 0 0 0
          0 0 0 0 0 0
          0 0 0 0 0 0
          0 0 0 0 0 0
          0 0 0 0 0 0
          0 0 0 0 0 0
          0 0 0 0 0 0
          0 0 0 0 0 0
          0 0 0 0 0 0
          1 1 1 2 0 0
          0 0 0.5 0 1.5 0
          0 0 1 2 2 2
          2 2 2 2 2 2
          0 0 0 0 0 0
          0 0 0 0 0 0
          0 0 0 0 0 0
          0 0 0 0 0 0
          0 0 0 0 0 0
          0 0 0 0 0 0
          0 0 0 0 0 0
          0 0 0 0 0 0
          0 0 0 0 0 0
          0 0 0 0.5 0 0
          1 0 1 1 0 1
          1 1 1 2 2 2
          0.5 0 0.5 0 1.5 1.5
          2 2 2 2 2 2
          2 2 1.3333333333333333 2 2
        </DataArray>
        <DataArray type="Float64" Name="gradient_marker" format="ascii" RangeMin="0" RangeMax="1">
          1 1 1 1 1 1
          1 1 1 1 1 1
          1 1 1 1 1 1
          1 1 1 1 1 1
          1 1 1 1 1 1
          1 0.75 1 1 1 1
          1 1 1 1 1 1
          1 1 1 1 1 1
          1 1 1 1 1 1
          1 1 1 1 1 1
          1 1 1 1 1 1
          0.5 0.75 1 1 1 1
          1 1 1 1 1 1
          1 1 1 1 1 1
          1 1 1 1 1 1
          1 1 1 1 1 1
          1 1 1 1 1 1
          1 1 1 1 1 1
          1 1 1 1 1 1
          1 1 1 1 1 1
          1 1 1 1 1 1
          1 1 1 1 0.75 0.75
          0.75 0.5 0.8333333333333334 0.75 0.5 0.75
          1 1 1 1 1 1
          1 1 1 1 1 1
          1 1 1 1 1 1
          1 1 1 1 1 1
          1 1 1 1 1 1
          1 1 1 1 1 1
          1 1 1 1 1 1
          1 1 1 1 1 1
          1 1 1 1 1 1
          1 1 1 1 1 1
          1 1 1 1 1 1
          1 1 1 1 1 1
          1 1 1 1 1 1
          1 1 1 1 1 1
          1 1 1 1 1 1
          1 1 1 1 1 0
          0.25 0.75 0.75 0.5 0.625 0.875
          0 0.5 0.5 0.5 0.75 1
          0.5 0 0 0.5 0.5 0
          0.5 1 1 1 1 1
          1 1 1 1 1 1
          1 1 1 1 1 0
          0.5 0.25 0 0.25 0 0
          0 0 0 0 0 0
          0 0 0.25 0 0 0.25
          0 0.5 0.5 1 0.75 1
          1 1 1 1 1 1
          1 1 1 1 1 1
          1 1 1 1 1 1
          1 1 1 1 1 1
          1 1 1 1 0.75 0.75
          1 1 0.875 1 1 0.75
          1 1 1 1 1 1
          0.5 1 1 1 1 0.75
          0.75 1 0 0.5 0.5 0.5
          0.5 0.5 1 0.625 0.875 1
          0.75 0.75 0.5 0.375 0 0.5
          0.5 0.25 0.5 0.75 0.625 0.5
          0.125 0 0.25 0 0.375 0.75
          0.25 0.25 0.5 0 0 0.5
          0.75 1 0.6666666666666666 1 1
        </DataArray>
        <DataArray type="Float64" Name="gradient_matprop_marker" format="ascii" RangeMin="0" RangeMax="0">
          0 0 0 0 0 0
          0 0 0 0 0 0
          0 0 0 0 0 0
          0 0 0 0 0 0
          0 0 0 0 0 0
          0 0 0 0 0 0
          0 0 0 0 0 0
          0 0 0 0 0 0
          0 0 0 0 0 0
          0 0 0 0 0 0
          0 0 0 0 0 0
          0 0 0 0 0 0
          0 0 0 0 0 0
          0 0 0 0 0 0
          0 0 0 0 0 0
          0 0 0 0 0 0
          0 0 0 0 0 0
          0 0 0 0 0 0
          0 0 0 0 0 0
          0 0 0 0 0 0
          0 0 0 0 0 0
          0 0 0 0 0 0
          0 0 0 0 0 0
          0 0 0 0 0 0
          0 0 0 0 0 0
          0 0 0 0 0 0
          0 0 0 0 0 0
          0 0 0 0 0 0
          0 0 0 0 0 0
          0 0 0 0 0 0
          0 0 0 0 0 0
          0 0 0 0 0 0
          0 0 0 0 0 0
          0 0 0 0 0 0
          0 0 0 0 0 0
          0 0 0 0 0 0
          0 0 0 0 0 0
          0 0 0 0 0 0
          0 0 0 0 0 0
          0 0 0 0 0 0
          0 0 0 0 0 0
          0 0 0 0 0 0
          0 0 0 0 0 0
          0 0 0 0 0 0
          0 0 0 0 0 0
          0 0 0 0 0 0
          0 0 0 0 0 0
          0 0 0 0 0 0
          0 0 0 0 0 0
          0 0 0 0 0 0
          0 0 0 0 0 0
          0 0 0 0 0 0
          0 0 0 0 0 0
          0 0 0 0 0 0
          0 0 0 0 0 0
          0 0 0 0 0 0
          0 0 0 0 0 0
          0 0 0 0 0 0
          0 0 0 0 0 0
          0 0 0 0 0 0
          0 0 0 0 0 0
          0 0 0 0 0 0
          0 0 0 0 0 0
          0 0 0 0 0
        </DataArray>
        <DataArray type="Float64" Name="combo" format="ascii" RangeMin="0" RangeMax="1">
          1 1 1 1 1 1
          1 1 1 1 1 1
          1 1 1 1 1 1
          1 1 1 1 1 1
          1 1 1 1 1 1
          1 0.75 1 1 1 1
          1 1 1 1 1 1
          1 1 1 1 1 1
          1 1 1 1 1 1
          1 1 1 1 1 1
          1 1 1 1 1 1
          0.5 0.75 1 1 1 1
          1 1 1 1 1 1
          1 1 1 1 1 1
          1 1 1 1 1 1
          1 1 1 1 1 1
          1 1 1 1 1 1
          1 1 1 1 1 1
          1 1 1 1 1 1
          1 1 1 1 1 1
          1 1 1 1 1 1
          1 1 1 1 0.75 0.75
          0.75 0.5 0.8333333333333334 0.75 0.5 0.75
          1 1 1 1 1 1
          1 1 1 1 1 1
          1 1 1 1 1 1
          1 1 1 1 1 1
          1 1 1 1 1 1
          1 1 1 1 1 1
          1 1 1 1 1 1
          1 1 1 1 1 1
          1 1 1 1 1 1
          1 1 1 1 1 1
          1 1 1 1 1 1
          1 1 1 1 1 1
          1 1 1 1 1 1
          1 1 1 1 1 1
          1 1 1 1 1 1
          1 1 1 1 1 0
          0.25 0.75 0.75 0.5 0.625 0.875
          0 0.5 0.5 0.5 0.75 1
          0.5 0 0 0.5 0.5 0
          0.5 1 1 1 1 1
          1 1 1 1 1 1
          1 1 1 1 1 0
          0.5 0.25 0 0.25 0 0
          0 0 0 0 0 0
          0 0 0.25 0 0 0.25
          0 0.5 0.5 1 0.75 1
          1 1 1 1 1 1
          1 1 1 1 1 1
          1 1 1 1 1 1
          1 1 1 1 1 1
          1 1 1 1 0.75 0.75
          1 1 0.875 1 1 0.75
          1 1 1 1 1 1
          0.5 1 1 1 1 0.75
          0.75 1 0 0.5 0.5 0.5
          0.5 0.5 1 0.625 0.875 1
          0.75 0.75 0.5 0.375 0 0.5
          0.5 0.25 0.5 0.75 0.625 0.5
          0.125 0 0.25 0 0.375 0.75
          0.25 0.25 0.5 0 0 0.5
          0.75 1 0.6666666666666666 1 1
        </DataArray>
        <DataArray type="Float64" Name="dHdT" format="ascii" RangeMin="25.80247870133752" RangeMax="38.6649118963028">
          25.81142710700756 25.81145343778429 25.81147463378785 25.811478624625618 25.811700248075226 25.81159474325895
          25.81152993333553 25.811487400175906 25.811505533266185 25.811544082889895 25.811525563990124 25.811506159943995
          25.818415305205278 25.808523787866918 25.812849831118537 25.811625008920196 25.8116328870644 25.81161812686483
          25.811548390663617 25.81152754363702 37.989890305700555 25.815464951103856 25.811768853908013 25.811320347680915
          25.81157421964302 25.8115255134176 25.830730362214133 25.824228371456776 27.067790728429014 26.193972301721516
          25.812816012545746 26.157644616919292 26.04873717005117 25.816136143125647 25.823495255657104 25.815775809821048
          35.85021502289665 28.181735513927062 27.229241979727536 25.83976314778239 25.811768008452304 25.812908567917237
          25.81192585625239 25.81202868325153 25.813010240275243 25.811940798977098 25.809947777206613 26.66458340685339
          26.47705051094711 27.029893607901595 31.00675562908591 31.5097984546749 29.26430231747498 29.44241585885966
          26.167542730310583 31.792259580336825 29.21499643489584 26.22586263017835 26.983555084619695 27.358197666987444
          26.547086205580204 38.6649118963028 33.48067260548841 32.233456621834556 34.16016453297335 27.775134879223202
          26.034987136576575 26.06042503545461 31.527113886716208 28.955031220875835 26.033157151601383 26.36845710012374
          37.446167657609166 33.98736426733773 26.971756164772305 25.811561113737493 25.811569090321164 25.811573933139666
          25.811543460818456 25.811536623912623 25.811548557286287 25.811521352624126 25.811520566281732 25.811548908718656
          25.81152665095623 25.811586752541842 25.81151783131575 25.81156049065995 25.811519779939342 25.82562341750947
          25.839094376317497 25.818360192874284 25.813669474696162 25.812057820465647 25.81175322133813 25.81220149793164
          25.81044616623513 31.82021907306806 31.130047464024965 31.804530152764745 36.49508450427261 36.45581680556061
          35.387663686062695 35.31694082472839 31.100151197533897 36.32535734219835 35.35733739899604 30.128113704012886
          32.55467795184666 33.01734066683472 32.58529960691447 38.37702027197461 37.27684132007329 37.355344601405136
          37.08964827113627 34.12588182017706 31.693540150646783 30.997855709397072 36.148967097379234 35.23642762288614
          30.838133794525113 35.9906476955388 35.09391815902042 29.966212434303785 32.51741561859848 32.391306055507
          37.64946201363193 36.86340336757303 36.683792469337234 34.102468066252655 31.13141815447209 30.28225565790301
          36.50398751943289 36.02074835898922 29.13641475859715 32.362784865699474 37.15720900361562 36.81299420792966
          34.18360767106502 25.811489190227896 25.811542905850146 25.811787835433396 25.810117707638568 25.811178741428137
          25.811229382883496 25.810532418089984 25.811526019952993 25.811383219101636 25.81140181049765 25.811596621472393
          25.811280024338863 25.81094712854139 25.811420401893663 25.811486956463142 25.811479157450183 25.81157195489673
          25.81214680446696 25.81157342140996 25.81158478156327 25.811467203440316 25.81165695333032 25.81281445148373
          25.811596141716574 30.95206125005012 29.68849084318054 33.57918571325876 31.672999935010903 25.926823803618486
          25.967122758699695 26.029280906775135 26.08918574104472 25.890581609942327 25.973093787508084 25.830127768268714
          25.835340547956168 25.855047967258848 25.82072548840057 26.131738009931787 26.211248723389748 26.055605965073845
          25.840553327643622 25.809688982243486 25.812796062437236 25.811662894646098 25.81552259859945 25.80957183270748
          25.806592307620754 25.812793602158354 25.814474264206538 25.815903142630983 25.80361278253403 25.810064605717255
          25.80247870133752 25.81289624801532 25.813927862533482 25.81248940168823 25.81495947705165 25.805021827015686
          25.808589905590285 25.860706190235234 25.920499092315243 25.81754510352494 25.813390045894955 25.980291994395255
          25.80923498826497 34.00476944214725 32.9633652509857 32.757989415888325 35.877170855453855 36.18243598099686
          35.015367910269205 34.766133179481514 31.921961059824156 33.84829983954156 33.65509550350919 38.360102519846464
          37.06737056955271 36.77427694307471 35.77463861925895 28.48587022087273 28.527615716399673 29.349394746226327
          29.386006623570722 28.37840095617977 29.263616307565226 27.46715103967056 27.90894415532413 27.997585537005662
          27.745950857095234 30.212919271579924 30.244397530741765 30.14883165895067 28.350737270977692 26.37720225557946
          26.354664765458928 26.46148367579158 27.708299627542644 27.557905187873235 27.370462153026903 27.518379772001783
          26.248580435385016 27.389809814972836 27.21040208786582 26.332127275338394 27.183019118180567 27.328459916460915
          27.030994360758804 26.14698754808864 26.145500768028878 27.20865003855736 27.038102880800043 26.144013987969117
          26.867555723042727 28.235124193588895 29.148034543331672 28.065933045508068 28.994335168411336 27.17595362056116
          27.58512599785943 27.403246848310715 30.060944893074442 29.92273729131461 27.994298375157697 27.862369027372015