<?xml version="1.0"?>
<VTKFile type="UnstructuredGrid" version="0.1" byte_order="LittleEndian" header_type="UInt32" compressor="vtkZLibDataCompressor">
  <UnstructuredGrid>
    <Piece NumberOfPoints="372" NumberOfCells="182">
      <PointData>
        <DataArray type="Int32" Name="libmesh_node_id" format="ascii" RangeMin="0" RangeMax="3313">
          0 1 2 3 4 5
          6 7 8 9 10 11
          12 13 14 15 16 17
          18 19 20 21 22 23
          24 25 26 27 28 29
          30 31 32 33 34 35
          36 37 38 39 40 41
          42 43 44 45 46 47
          48 49 50 51 52 53
          54 55 56 57 58 59
          60 61 62 63 64 65
          66 67 68 69 70 71
          72 73 74 75 76 77
          78 79 80 81 82 83
          84 85 86 87 88 89
          96 97 98 99 104 105
          106 107 108 109 113 114
          115 116 117 118 119 126
          127 128 134 135 136 137
          138 139 143 147 148 149
          156 157 158 173 186 187
          188 189 203 212 213 216
          222 226 597 598 599 600
          601 602 603 604 605 606
          607 608 609 610 621 622
          623 624 627 628 629 630
          633 634 1398 1399 1402 1405
          2916 2917 2923 2924 2925 2926
          2929 2934 2935 2936 2937 2938
          2939 2978 2979 2980 2981 2982
          2983 2984 2985 2986 2987 2988
          2989 2990 2991 2992 2993 2994
          2995 2996 2997 2998 2999 3000
          3001 3002 3003 3004 3005 3006
          3007 3008 3009 3010 3011 3012
          3013 3014 3015 3016 3017 3018
          3019 3020 3021 3022 3023 3024
          3025 3026 3027 3028 3029 3030
          3031 3032 3033 3034 3035 3036
          3037 3038 3039 3040 3041 3042
          3043 3044 3045 3046 3047 3048
          3049 3050 3051 3052 3053 3054
          3055 3056 3057 3058 3059 3273
          3274 3275 3276 3277 3278 3279
          3280 3281 3308 3310 3311 3313
          90 91 92 93 94 95
          100 101 102 103 110 111
          112 124 125 129 130 131
          142 144 145 133 146 155
          172 159 174 210 211 214
          215 220 221 611 612 613
          614 228 618 619 625 626
          273 274 277 283 631 632
          287 225 1396 1397 1400 1401
          1403 1404 2918 2919 2920 2921
          2922 2927 2928 2930 2931 2933
          2973 2974 617 204 636 638
          643 646 3104 3105 3106 3107
          2977 3108 3109 3263 3264 3265
          3268 2972 3271 3284 3292 3293
          3285 3294 3287 3295 3296 3297
          3300 3309 3301 3304 3312 3306
        </DataArray>
        <DataArray type="Float64" Name="bounds" format="ascii" RangeMin="0" RangeMax="0">
          0 0 0 0 0 0
          0 0 0 0 0 0
          0 0 0 0 0 0
          0 0 0 0 0 0
          0 0 0 0 0 0
          0 0 0 0 0 0
          0 0 0 0 0 0
          0 0 0 0 0 0
          0 0 0 0 0 0
          0 0 0 0 0 0
          0 0 0 0 0 0
          0 0 0 0 0 0
          0 0 0 0 0 0
          0 0 0 0 0 0
          0 0 0 0 0 0
          0 0 0 0 0 0
          0 0 0 0 0 0
          0 0 0 0 0 0
          0 0 0 0 0 0
          0 0 0 0 0 0
          0 0 0 0 0 0
          0 0 0 0 0 0
          0 0 0 0 0 0
          0 0 0 0 0 0
          0 0 0 0 0 0
          0 0 0 0 0 0
          0 0 0 0 0 0
          0 0 0 0 0 0
          0 0 0 0 0 0
          0 0 0 0 0 0
          0 0 0 0 0 0
          0 0 0 0 0 0
          0 0 0 0 0 0
          0 0 0 0 0 0
          0 0 0 0 0 0
          0 0 0 0 0 0
          0 0 0 0 0 0
          0 0 0 0 0 0
          0 0 0 0 0 0
          0 0 0 0 0 0
          0 0 0 0 0 0
          0 0 0 0 0 0
          0 0 0 0 0 0
          0 0 0 0 0 0
          0 0 0 0 0 0
          0 0 0 0 0 0
          0 0 0 0 0 0
          0 0 0 0 0 0
          0 0 0 0 0 0
          0 0 0 0 0 0
          0 0 0 0 0 0
          0 0 0 0 0 0
          0 0 0 0 0 0
          0 0 0 0 0 0
          0 0 0 0 0 0
          0 0 0 0 0 0
          0 0 0 0 0 0
          0 0 0 0 0 0
          0 0 0 0 0 0
          0 0 0 0 0 0
          0 0 0 0 0 0
          0 0 0 0 0 0
        </DataArray>
        <DataArray type="Float64" Name="gradient_error" format="ascii" RangeMin="4.536869029749659e-11" RangeMax="0.0000016908666132907033">
          1.2674447564511464e-10 1.1819935178065678e-10 8.570336156256316e-11 8.954402714967953e-11 4.044633470349257e-10 3.6972691424197705e-10
          2.0986707654201156e-10 2.2491601866621114e-10 9.36743683333568e-11 7.477104788639583e-11 2.6193331800697537e-10 1.6220075017908858e-10
          9.64984485087705e-11 7.657290866949605e-11 1.9792195320987196e-10 1.32402523243484e-10 1.1637880502561674e-10 8.509629621029599e-11
          2.111307506297459e-10 1.342858066223226e-10 8.484758457135183e-11 6.828244037504285e-11 1.3001953814374076e-10 9.041415917522334e-11
          5.124920338688114e-11 5.111691174898534e-11 4.738410792670722e-11 4.872992381223179e-11 5.0108330208028054e-11 5.024076481764272e-11
          5.0458085258132333e-11 5.031088612631619e-11 5.0072740780519535e-11 5.015469608845687e-11 5.071928963848645e-11 5.0539028905425645e-11
          5.018728056024874e-11 5.0222980168458056e-11 5.054529773131135e-11 5.043774753027812e-11 5.320737134446955e-11 5.2343578654244425e-11
          5.0007238842046146e-11 4.536869029749659e-11 5.5867727439434876e-11 6.246818235120183e-11 5.66473688302216e-11 6.6883093277096e-11
          5.3813787394975235e-11 5.7440862614899266e-11 5.171729617873386e-11 5.0808780206705944e-11 5.098462011108954e-11 5.007573969775635e-11
          5.037319942725737e-11 5.016368699450006e-11 5.0236651396394195e-11 5.0358768172364847e-11 5.0258679776667364e-11 5.0330197329244877e-11
          1.6485964566954478e-9 1.4744443072142634e-9 8.088989834726968e-10 8.827399947609828e-10 9.831593999666489e-10 5.930702909927758e-10
          7.648803695993826e-10 4.889817011279837e-10 8.746191426011486e-10 5.115241295878e-10 4.908636483182315e-10 2.9258185425210845e-10
          7.722552231482384e-11 7.332867392683933e-11 5.326434151321409e-11 5.34339663201633e-11 4.851579942716968e-11 4.93111470504246e-11
          4.87308520248466e-11 4.941546753075749e-11 1.4335365973113024e-10 1.1688353282651772e-10 2.029811820189028e-10 2.1308303265658505e-10
          1.4842911657445138e-10 9.430006018598543e-11 6.94318255388548e-11 5.3603591127112495e-11 5.010649467367952e-11 5.010008303666837e-11
          3.0267064055137766e-9 1.988602074053322e-9 3.6150979090707114e-9 2.121792056410641e-9 6.949585430519334e-11 7.540784466740202e-11
          5.173916985202639e-11 5.482040954139692e-11 5.253305385703561e-11 5.533953249455756e-11 9.50497742592868e-10 6.284862037505694e-10
          3.4262224662626125e-10 1.8377933605281397e-10 8.131983502961069e-11 5.790164923076743e-11 5.814601113207952e-11 8.681682794650794e-9
          4.467640801503084e-9 1.1997395342238924e-8 7.391392177958876e-11 1.3445444218039514e-10 8.350863329725233e-11 8.685675264488285e-11
          8.597256421360005e-11 8.747193547644429e-11 2.9525324604185337e-9 1.9153394316379525e-10 9.020487199251339e-11 8.897130673928853e-11
          8.580679855798322e-8 1.0848284598871643e-7 3.0432895062244214e-7 2.7142383283386414e-9 8.182342459979811e-7 1.4581640162689193e-7
          0.0000014250657074019221 5.7048580037063285e-8 1.2858418027351163e-8 2.0395231467045808e-7 8.7916956153292e-7 4.6635615626494935e-7
          6.327042198278521e-8 0.0000010809576537805783 2.4479643788823704e-7 1.9668751760549816e-7 1.4391790468513562e-7 5.845539289707438e-7
          7.573357907422414e-7 4.586099623797113e-7 4.15749002340299e-7 1.058040072109061e-7 1.0254494977490601e-7 1.4816087327148284e-7
          0.000001056684241106533 9.542032303545688e-7 8.389124723632301e-7 9.898209873415857e-8 0.0000013066599914759998 0.0000010910227978174635
          0.0000010584088658197631 0.0000013360976126861272 0.0000012667520340039302 5.744985691418293e-7 8.599139278338017e-7 8.35109360110215e-7
          0.0000014750952021880975 0.0000011453292865257741 1.1636909598067989e-8 5.7828123302340684e-8 3.804514642446866e-8 1.8262169546596627e-8
          7.858546277411763e-9 7.392505116413239e-9 9.841434407498665e-9 5.387022488656908e-8 4.205042928771793e-8 6.926463955414716e-9
          3.023063368886678e-8 1.9812441581527066e-8 1.320105645763598e-8 6.890366615518011e-8 4.7162743999819544e-8 6.589671333744892e-9
          2.542182184445897e-8 2.6812785933037604e-9 5.959463070519668e-9 1.5043157452587873e-8 3.01421141486129e-8 1.156359756542176e-9
          3.946347237347137e-9 6.966889000393957e-9 2.7405036311871987e-8 5.432476522670614e-8 6.736334718152097e-9 1.5695138188408558e-7
          1.8226165554867648e-7 2.456150138526847e-7 2.7433753641508777e-7 4.029122964343972e-8 5.505569892021224e-8 7.586280793147852e-8
          3.3427864582128384e-7 3.66413417281499e-7 6.982016819698476e-8 8.808699976993366e-8 7.515413567920965e-8 6.907517566266679e-8
          1.4375979721753364e-7 1.2904684267550336e-7 1.109603836639952e-7 1.2518610321934466e-7 7.937685371345149e-8 1.213149283475472e-7
          1.0347862855774119e-7 6.222127158848564e-8 9.287392465248706e-8 1.066124092211557e-7 8.564232876793518e-8 6.036803410934177e-7
          5.328831723361194e-7 5.219153319680793e-7 6.921031732186821e-7 4.3141824552271993e-7 8.881180124533958e-7 9.817014692450206e-7
          9.740931040138368e-7 8.937016247522149e-7 0.0000010869341962332065 0.0000010630670648773957 7.400891508258234e-7 7.059792592716409e-7
          7.740077495695945e-7 9.260489418842788e-7 0.0000010291864950042162 9.248696163442936e-7 0.0000011517695716277837 8.948142222258111e-7
          0.000001185701703556193 0.0000010202505778897515 0.0000012026210503143585 0.0000011593059070304343 5.954120726760031e-7 8.060108609959266e-7
          0.0000012195403970725245 0.000001298361236171117 0.00000101660964931585 2.376581547765254e-7 2.4980974247959244e-7 3.267212734259867e-7
          3.3544528345569043e-7 2.2251379229579626e-7 3.1411740067860516e-7 1.0523358014253292e-7 1.3974898398298018e-7 1.5821728541913291e-7
          1.194192357396061e-7 4.15784392075448e-7 4.2108082443178847e-7 4.057210090614141e-7 1.7426438782342742e-7 2.0411144588954992e-7
          2.969075808690741e-7 7.219819865040396e-8 9.778420349280506e-8 3.8970371584859835e-7 1.2337020833520618e-7 7.019101568160352e-8
          6.714121694283277e-8 1.5676140482317086e-7 1.3775327278880902e-7 6.409141820406201e-8 1.1874514075444722e-7 5.652475186526281e-7
          5.094642527279929e-7 4.3037888192235306e-7 2.5925510238010204e-7 1.3473553259986047e-7 1.745300195958205e-7 2.1432450659178054e-7
          6.662480065546479e-9 5.858844910977602e-9 3.2699382355102605e-9 3.6121137015939193e-9 3.754985384446381e-9 2.344244458224625e-9
          1.997739334203452e-9 1.1701807904148567e-9 2.2599053578618365e-10 2.0488493591949878e-10 6.810315600429193e-10 5.617473376413594e-10
          9.335035320028685e-10 7.742050667586844e-9 4.38348965851949e-9 4.170862080514551e-9 2.8889153807545087e-9 1.9399649088667147e-9
          2.760557602751761e-9 2.9153696760270365e-9 1.6263055095460553e-9 4.3818629197527445e-10 5.637780975435266e-10 1.652263692393163e-7
          3.5438049714228397e-9 5.389984688462857e-8 3.1048043315163146e-9 1.2222589609844907e-7 8.816639369523249e-8 7.705471348392073e-7
          3.464497302375154e-7 3.786447525662453e-8 3.195020616865654e-8 1.8156120797172797e-9 2.5192621424324473e-9 2.4476155611999003e-9
          6.426836290107422e-9 2.5741264059251473e-8 3.0796190426825215e-9 1.03344104377824e-8 0.0000014982358842257206 0.0000013909447055540838
          7.42780189217587e-7 0.0000012014931353228435 0.0000012778225507730691 8.737120793982897e-7 0.0000016898117769754417 0.0000016908666132907033
          0.0000014606258959622708 0.0000012000558195683096 9.144264601696363e-9 6.063357598579846e-9 2.8394757889999695e-8 1.9401532237877047e-8
          2.9824505954633304e-9 1.0408306585754403e-8 7.774628145234004e-9 3.308132782063071e-8 3.806886940430201e-8 3.5421798068697654e-8
          3.307591329447628e-8 3.277472673309329e-8 3.3070498768321846e-8 6.814164872233071e-8 1.6413448283958454e-7 1.8186375685085596e-7
          4.3460475412671806e-7 1.977568782897975e-7 2.0039681003588862e-9 2.607884777552157e-9 1.2890098488737696e-7 2.1136345568826294e-7
          3.669933961851905e-8 2.9382592648914895e-7 1.3656383091525625e-8 5.069769265132613e-8 1.9110640210132747e-9 1.0390673673541136e-8
          1.931580149171205e-7 8.773900221112665e-8 1.8870283326069e-8 6.803663767504257e-8 1.6776742215847096e-7 1.4844926766226112e-7
          1.2913111316605129e-7 5.456290479498018e-7 4.957313581205476e-7 7.369213692376044e-7 8.071993503747922e-7 8.22747210048919e-7
          7.598699487811956e-7 6.728005489880928e-7 6.408221084258676e-7 7.272354574090665e-7 8.349312432766378e-7 7.867322067450722e-7
          2.663183060328683e-7 3.4091802392448007e-7 3.437027992032909e-7 1.8857990987963315e-7 4.22580945468858e-7 4.210872923737134e-7
        </DataArray>
        <DataArray type="Float64" Name="gradient_matprop_error" format="ascii" RangeMin="0" RangeMax="0">
          0 0 0 0 0 0
          0 0 0 0 0 0
          0 0 0 0 0 0
          0 0 0 0 0 0
          0 0 0 0 0 0
          0 0 0 0 0 0
          0 0 0 0 0 0
          0 0 0 0 0 0
          0 0 0 0 0 0
          0 0 0 0 0 0
          0 0 0 0 0 0
          0 0 0 0 0 0
          0 0 0 0 0 0
          0 0 0 0 0 0
          0 0 0 0 0 0
          0 0 0 0 0 0
          0 0 0 0 0 0
          0 0 0 0 0 0
          0 0 0 0 0 0
          0 0 0 0 0 0
          0 0 0 0 0 0
          0 0 0 0 0 0
          0 0 0 0 0 0
          0 0 0 0 0 0
          0 0 0 0 0 0
          0 0 0 0 0 0
          0 0 0 0 0 0
          0 0 0 0 0 0
          0 0 0 0 0 0
          0 0 0 0 0 0
          0 0 0 0 0 0
          0 0 0 0 0 0
          0 0 0 0 0 0
          0 0 0 0 0 0
          0 0 0 0 0 0
          0 0 0 0 0 0
          0 0 0 0 0 0
          0 0 0 0 0 0
          0 0 0 0 0 0
          0 0 0 0 0 0
          0 0 0 0 0 0
          0 0 0 0 0 0
          0 0 0 0 0 0
          0 0 0 0 0 0
          0 0 0 0 0 0
          0 0 0 0 0 0
          0 0 0 0 0 0
          0 0 0 0 0 0
          0 0 0 0 0 0
          0 0 0 0 0 0
          0 0 0 0 0 0
          0 0 0 0 0 0
          0 0 0 0 0 0
          0 0 0 0 0 0
          0 0 0 0 0 0
          0 0 0 0 0 0
          0 0 0 0 0 0
          0 0 0 0 0 0
          0 0 0 0 0 0
          0 0 0 0 0 0
          0 0 0 0 0 0
          0 0 0 0 0 0
        </DataArray>
        <DataArray type="Float64" Name="initial_marker" format="ascii" RangeMin="0" RangeMax="0">
          0 0 0 0 0 0
          0 0 0 0 0 0
          0 0 0 0 0 0
          0 0 0 0 0 0
          0 0 0 0 0 0
          0 0 0 0 0 0
          0 0 0 0 0 0
          0 0 0 0 0 0
          0 0 0 0 0 0
          0 0 0 0 0 0
          0 0 0 0 0 0
          0 0 0 0 0 0
          0 0 0 0 0 0
          0 0 0 0 0 0
          0 0 0 0 0 0
          0 0 0 0 0 0
          0 0 0 0 0 0
          0 0 0 0 0 0
          0 0 0 0 0 0
          0 0 0 0 0 0
          0 0 0 0 0 0
          0 0 0 0 0 0
          0 0 0 0 0 0
          0 0 0 0 0 0
          0 0 0 0 0 0
          0 0 0 0 0 0
          0 0 0 0 0 0
          0 0 0 0 0 0
          0 0 0 0 0 0
          0 0 0 0 0 0
          0 0 0 0 0 0
          0 0 0 0 0 0
          0 0 0 0 0 0
          0 0 0 0 0 0
          0 0 0 0 0 0
          0 0 0 0 0 0
          0 0 0 0 0 0
          0 0 0 0 0 0
          0 0 0 0 0 0
          0 0 0 0 0 0
          0 0 0 0 0 0
          0 0 0 0 0 0
          0 0 0 0 0 0
          0 0 0 0 0 0
          0 0 0 0 0 0
          0 0 0 0 0 0
          0 0 0 0 0 0
          0 0 0 0 0 0
          0 0 0 0 0 0
          0 0 0 0 0 0
          0 0 0 0 0 0
          0 0 0 0 0 0
          0 0 0 0 0 0
          0 0 0 0 0 0
          0 0 0 0 0 0
          0 0 0 0 0 0
          0 0 0 0 0 0
          0 0 0 0 0 0
          0 0 0 0 0 0
          0 0 0 0 0 0
          0 0 0 0 0 0
          0 0 0 0 0 0
        </DataArray>
        <DataArray type="Float64" Name="markers_norefine" format="ascii" RangeMin="0" RangeMax="0">
          0 0 0 0 0 0
          0 0 0 0 0 0
          0 0 0 0 0 0
          0 0 0 0 0 0
          0 0 0 0 0 0
          0 0 0 0 0 0
          0 0 0 0 0 0
          0 0 0 0 0 0
          0 0 0 0 0 0
          0 0 0 0 0 0
          0 0 0 0 0 0
          0 0 0 0 0 0
          0 0 0 0 0 0
          0 0 0 0 0 0
          0 0 0 0 0 0
          0 0 0 0 0 0
          0 0 0 0 0 0
          0 0 0 0 0 0
          0 0 0 0 0 0
          0 0 0 0 0 0
          0 0 0 0 0 0
          0 0 0 0 0 0
          0 0 0 0 0 0
          0 0 0 0 0 0
          0 0 0 0 0 0
          0 0 0 0 0 0
          0 0 0 0 0 0
          0 0 0 0 0 0
          0 0 0 0 0 0
          0 0 0 0 0 0
          0 0 0 0 0 0
          0 0 0 0 0 0
          0 0 0 0 0 0
          0 0 0 0 0 0
          0 0 0 0 0 0
          0 0 0 0 0 0
          0 0 0 0 0 0
          0 0 0 0 0 0
          0 0 0 0 0 0
          0 0 0 0 0 0
          0 0 0 0 0 0
          0 0 0 0 0 0
          0 0 0 0 0 0
          0 0 0 0 0 0
          0 0 0 0 0 0
          0 0 0 0 0 0
          0 0 0 0 0 0
          0 0 0 0 0 0
          0 0 0 0 0 0
          0 0 0 0 0 0
          0 0 0 0 0 0
          0 0 0 0 0 0
          0 0 0 0 0 0
          0 0 0 0 0 0
          0 0 0 0 0 0
          0 0 0 0 0 0
          0 0 0 0 0 0
          0 0 0 0 0 0
          0 0 0 0 0 0
          0 0 0 0 0 0
          0 0 0 0 0 0
          0 0 0 0 0 0
        </DataArray>
        <DataArray type="Float64" Name="markers_mustrefine" format="ascii" RangeMin="0" RangeMax="0">
          0 0 0 0 0 0
          0 0 0 0 0 0
          0 0 0 0 0 0
          0 0 0 0 0 0
          0 0 0 0 0 0
          0 0 0 0 0 0
          0 0 0 0 0 0
          0 0 0 0 0 0
          0 0 0 0 0 0
          0 0 0 0 0 0
          0 0 0 0 0 0
          0 0 0 0 0 0
          0 0 0 0 0 0
          0 0 0 0 0 0
          0 0 0 0 0 0
          0 0 0 0 0 0
          0 0 0 0 0 0
          0 0 0 0 0 0
          0 0 0 0 0 0
          0 0 0 0 0 0
          0 0 0 0 0 0
          0 0 0 0 0 0
          0 0 0 0 0 0
          0 0 0 0 0 0
          0 0 0 0 0 0
          0 0 0 0 0 0
          0 0 0 0 0 0
          0 0 0 0 0 0
          0 0 0 0 0 0
          0 0 0 0 0 0
          0 0 0 0 0 0
          0 0 0 0 0 0
          0 0 0 0 0 0
          0 0 0 0 0 0
          0 0 0 0 0 0
          0 0 0 0 0 0
          0 0 0 0 0 0
          0 0 0 0 0 0
          0 0 0 0 0 0
          0 0 0 0 0 0
          0 0 0 0 0 0
          0 0 0 0 0 0
          0 0 0 0 0 0
          0 0 0 0 0 0
          0 0 0 0 0 0
          0 0 0 0 0 0
          0 0 0 0 0 0
          0 0 0 0 0 0
          0 0 0 0 0 0
          0 0 0 0 0 0
          0 0 0 0 0 0
          0 0 0 0 0 0
          0 0 0 0 0 0
          0 0 0 0 0 0
          0 0 0 0 0 0
          0 0 0 0 0 0
          0 0 0 0 0 0
          0 0 0 0 0 0
          0 0 0 0 0 0
          0 0 0 0 0 0
          0 0 0 0 0 0
          0 0 0 0 0 0
        </DataArray>
        <DataArray type="Float64" Name="gradient_marker" format="ascii" RangeMin="1" RangeMax="1">
          1 1 1 1 1 1
          1 1 1 1 1 1
          1 1 1 1 1 1
          1 1 1 1 1 1
          1 1 1 1 1 1
          1 1 1 1 1 1
          1 1 1 1 1 1
          1 1 1 1 1 1
          1 1 1 1 1 1
          1 1 1 1 1 1
          1 1 1 1 1 1
          1 1 1 1 1 1
          1 1 1 1 1 1
          1 1 1 1 1 1
          1 1 1 1 1 1
          1 1 1 1 1 1
          1 1 1 1 1 1
          1 1 1 1 1 1
          1 1 1 1 1 1
          1 1 1 1 1 1
          1 1 1 1 1 1
          1 1 1 1 1 1
          1 1 1 1 1 1
          1 1 1 1 1 1
          1 1 1 1 1 1
          1 1 1 1 1 1
          1 1 1 1 1 1
          1 1 1 1 1 1
          1 1 1 1 1 1
          1 1 1 1 1 1
          1 1 1 1 1 1
          1 1 1 1 1 1
          1 1 1 1 1 1
          1 1 1 1 1 1
          1 1 1 1 1 1
          1 1 1 1 1 1
          1 1 1 1 1 1
          1 1 1 1 1 1
          1 1 1 1 1 1
          1 1 1 1 1 1
          1 1 1 1 1 1
          1 1 1 1 1 1
          1 1 1 1 1 1
          1 1 1 1 1 1
          1 1 1 1 1 1
          1 1 1 1 1 1
          1 1 1 1 1 1
          1 1 1 1 1 1
          1 1 1 1 1 1
          1 1 1 1 1 1
          1 1 1 1 1 1
          1 1 1 1 1 1
          1 1 1 1 1 1
          1 1 1 1 1 1
          1 1 1 1 1 1
          1 1 1 1 1 1
          1 1 1 1 1 1
          1 1 1 1 1 1
          1 1 1 1 1 1
          1 1 1 1 1 1
          1 1 1 1 1 1
          1 1 1 1 1 1
        </DataArray>
        <DataArray type="Float64" Name="gradient_matprop_marker" format="ascii" RangeMin="0" RangeMax="0">
          0 0 0 0 0 0
          0 0 0 0 0 0
          0 0 0 0 0 0
          0 0 0 0 0 0
          0 0 0 0 0 0
          0 0 0 0 0 0
          0 0 0 0 0 0
          0 0 0 0 0 0
          0 0 0 0 0 0
          0 0 0 0 0 0
          0 0 0 0 0 0
          0 0 0 0 0 0
          0 0 0 0 0 0
          0 0 0 0 0 0
          0 0 0 0 0 0
          0 0 0 0 0 0
          0 0 0 0 0 0
          0 0 0 0 0 0
          0 0 0 0 0 0
          0 0 0 0 0 0
          0 0 0 0 0 0
          0 0 0 0 0 0
          0 0 0 0 0 0
          0 0 0 0 0 0
          0 0 0 0 0 0
          0 0 0 0 0 0
          0 0 0 0 0 0
          0 0 0 0 0 0
          0 0 0 0 0 0
          0 0 0 0 0 0
          0 0 0 0 0 0
          0 0 0 0 0 0
          0 0 0 0 0 0
          0 0 0 0 0 0
          0 0 0 0 0 0
          0 0 0 0 0 0
          0 0 0 0 0 0
          0 0 0 0 0 0
          0 0 0 0 0 0
          0 0 0 0 0 0
          0 0 0 0 0 0
          0 0 0 0 0 0
          0 0 0 0 0 0
          0 0 0 0 0 0
          0 0 0 0 0 0
          0 0 0 0 0 0
          0 0 0 0 0 0
          0 0 0 0 0 0
          0 0 0 0 0 0
          0 0 0 0 0 0
          0 0 0 0 0 0
          0 0 0 0 0 0
          0 0 0 0 0 0
          0 0 0 0 0 0
          0 0 0 0 0 0
          0 0 0 0 0 0
          0 0 0 0 0 0
          0 0 0 0 0 0
          0 0 0 0 0 0
          0 0 0 0 0 0
          0 0 0 0 0 0
          0 0 0 0 0 0
        </DataArray>
        <DataArray type="Float64" Name="combo" format="ascii" RangeMin="1" RangeMax="1">
          1 1 1 1 1 1
          1 1 1 1 1 1
          1 1 1 1 1 1
          1 1 1 1 1 1
          1 1 1 1 1 1
          1 1 1 1 1 1
          1 1 1 1 1 1
          1 1 1 1 1 1
          1 1 1 1 1 1
          1 1 1 1 1 1
          1 1 1 1 1 1
          1 1 1 1 1 1
          1 1 1 1 1 1
          1 1 1 1 1 1
          1 1 1 1 1 1
          1 1 1 1 1 1
          1 1 1 1 1 1
          1 1 1 1 1 1
          1 1 1 1 1 1
          1 1 1 1 1 1
          1 1 1 1 1 1
          1 1 1 1 1 1
          1 1 1 1 1 1
          1 1 1 1 1 1
          1 1 1 1 1 1
          1 1 1 1 1 1
          1 1 1 1 1 1
          1 1 1 1 1 1
          1 1 1 1 1 1
          1 1 1 1 1 1
          1 1 1 1 1 1
          1 1 1 1 1 1
          1 1 1 1 1 1
          1 1 1 1 1 1
          1 1 1 1 1 1
          1 1 1 1 1 1
          1 1 1 1 1 1
          1 1 1 1 1 1
          1 1 1 1 1 1
          1 1 1 1 1 1
          1 1 1 1 1 1
          1 1 1 1 1 1
          1 1 1 1 1 1
          1 1 1 1 1 1
          1 1 1 1 1 1
          1 1 1 1 1 1
          1 1 1 1 1 1
          1 1 1 1 1 1
          1 1 1 1 1 1
          1 1 1 1 1 1
          1 1 1 1 1 1
          1 1 1 1 1 1
          1 1 1 1 1 1
          1 1 1 1 1 1
          1 1 1 1 1 1
          1 1 1 1 1 1
          1 1 1 1 1 1
          1 1 1 1 1 1
          1 1 1 1 1 1
          1 1 1 1 1 1
          1 1 1 1 1 1
          1 1 1 1 1 1
        </DataArray>
        <DataArray type="Float64" Name="dHdT" format="ascii" RangeMin="25.798752983978847" RangeMax="33.57918571325876">
          25.811449080429473 25.811449952921123 25.811453877050745 25.811453419465437 25.81147253260753 25.81147124471078
          25.811466784970648 25.81146744657405 25.81145282269915 25.811455369550742 25.811467462554575 25.811464850836007
          25.811458287658176 25.811458109477663 25.81146125131098 25.811461768006474 25.81146182874506 25.811459803921604
          25.81145760789266 25.81146006222678 25.811459821229406 25.811458742850814 25.811460035832802 25.811461368527475
          25.8114576391759 25.811457622764234 25.811462614803567 25.811462710082164 25.811457524009416 25.81145753841527
          25.81146288561628 25.811462884289135 25.81145752222286 25.811457530965676 25.811462925828074 25.81146291544096
          25.811457534479178 25.81145753828099 25.81146291982359 25.8114629121584 25.811457801180367 25.8114577585014
          25.811462325230515 25.811462360540567 25.811457916402336 25.811462239117432 25.81145793129715 25.811462284701967
          25.811457779098152 25.81146251656091 25.811457664472222 25.811462701222148 25.81145760635257 25.811462805360758
          25.811457552821118 25.811462882961983 25.811457539708496 25.811462905053833 25.811457542082806 25.81146290449321
          25.81143347469452 25.8114395448766 25.811458305572213 25.811455228997243 25.811456631364834 25.81146693896933
          25.8114829389506 25.8114798796255 25.811497484480213 25.811486554511365 25.811486626972417 25.811480646147913
          25.81147528559783 25.81147469634564 25.811473773248544 25.811473748268895 25.811473492427954 25.81147354960752
          25.811473494339857 25.8114735486359 25.811477066267827 25.811476983299965 25.81147724657383 25.811476820300406
          25.811475624542513 25.811474665323416 25.811474107093456 25.811473723289247 25.811473606787086 25.81147360293194
          25.811434275091923 25.811451640544274 25.81138064386559 25.811427813510594 25.811482454569706 25.811483448869843
          25.811484140402953 25.811484585473742 25.811484255356433 25.811484666922354 25.81146900599663 25.811474983155605
          25.811479768561032 25.811482615463387 25.81148444316998 25.81148503054452 25.811485078488275 25.81347422340029
          25.811862421910543 25.813706578902046 25.811492960245413 25.811497911446494 25.811498431909474 25.811499467795883
          25.811498947917556 25.811499766731984 25.81151722710097 25.811501654764065 25.811500503682296 25.811500585546412
          25.82452682591637 25.828706352593674 25.862679673473018 25.811492194799428 31.209647179082616 25.97382378785593
          33.18735178630888 25.876293150570373 25.809485404420318 25.84401352938414 27.131229072271296 26.293953808349983
          25.837142933618455 28.219940941528552 25.851876088297537 25.8406770179065 25.83246160036362 27.284058773877067
          27.19490268586616 26.381162062482318 26.466192518514802 25.82675291631419 25.85587351870851 25.87808380636661
          32.12820058825514 28.178859522700684 28.131802146694355 25.923523142882505 28.324936786841484 27.703981751350184
          27.74311783448597 30.756009768131577 29.578342214798596 26.622810450193356 27.424253434751368 27.458262350261933
          31.413566595111217 28.225696419309376 25.814343286351598 25.8018812021754 25.80552324370761 25.809165285239825
          25.813416043292207 25.813211628525337 25.81431495287396 25.79893398437005 25.802949776086496 25.813007213758475
          25.80696556780294 25.817240811503503 25.815061302173397 25.798752983978847 25.803373995818696 25.812881792843292
          25.807995007658548 25.81183351797534 25.81268881777354 25.81376286544208 25.816617485595458 25.81155664092521
          25.811074593201333 25.810443174658232 25.815692212908818 25.820546153417382 25.810592545477455 26.01046465262963
          26.054830600819304 26.151363271589144 26.21200985665909 25.85833512073142 25.879140109986512 25.908169674259927
          26.29226189054865 26.369189112498876 25.8999450992416 25.869634285423036 25.86234984132407 25.862530979947124
          26.100613929411395 26.075433501977894 26.030951073477983 26.055815900287694 25.86345715648479 26.06318528504964
          26.01869616689744 25.855065397225104 25.986468644978075 26.011017871164 25.974207048745235 27.26693093434099
          26.99153629943732 27.021211449261354 27.239567258996143 26.614145881826 29.72165205533037 29.93780232617292
          29.114060588233 28.98877079458395 30.201991635083964 29.262886728692692 27.509789651657854 27.519062714189616
          27.4957725628715 31.622975502196624 30.444600883223256 30.184219511273458 30.75339015754621 28.15729642694223
          28.303151653600686 27.761625803882772 30.490962694418457 29.425614945612043 26.7582898483943 27.478681002536746
          32.67877373523623 31.08960408734132 28.199072156679193 26.18088586108056 26.219014242975547 26.37047192786951
          26.41472040229323 26.14096947817207 26.321833170083266 25.951617405750444 26.011683402716386 26.04720491004476
          25.975903036724954 26.56005799465845 26.610426561610915 26.502696861994465 26.07174939968232 26.09862975239735
          26.269019855007553 25.90077976217097 25.940944901747255 26.439409957617755 25.98111004132354 25.86926900064256
          25.866805388150496 26.126443212496635 26.08096384860285 25.864341775658435 26.035484484709066 27.29909222359985
          27.04706324573899 26.698589628287312 26.255669032700414 26.005637716295176 26.08208645708369 26.158535197872204
          25.811637898880946 25.81161115592961 25.81153835536809 25.811551679328364 25.811538752780155 25.811502352753546
          25.81142710700756 25.81145343778429 25.81147463378785 25.811478624625618 25.811465554806567 25.811465459775782
          25.811465952726934 25.811780323086307 25.811838687548192 25.811700248075226 25.81159474325895 25.81152993333553
          25.81145933424376 25.811544082889895 25.811525563990124 25.811505533266185 25.811506159943995 25.842958314903072
          25.81122025694567 25.818415305205278 25.81161812686483 25.830730362214133 25.824228371456776 27.067790728429014
          26.193972301721516 25.816136143125647 25.823495255657104 25.811486956463142 25.811479157450183 25.81157195489673
          25.81214680446696 25.83976314778239 25.81165695333032 25.81281445148373 30.95206125005012 29.68849084318054
          27.029893607901595 31.00675562908591 29.44241585885966 27.358197666987444 33.57918571325876 31.672999935010903
          32.233456621834556 28.181735513927062 25.813523058797756 25.81278186268389 25.80682514423125 25.808530882655525