<?xml version="1.0"?>
<VTKFile type="UnstructuredGrid" version="0.1" byte_order="LittleEndian" header_type="UInt32" compressor="vtkZLibDataCompressor">
  <UnstructuredGrid>
    <Piece NumberOfPoints="326" NumberOfCells="172">
      <PointData>
        <DataArray type="Int32" Name="libmesh_node_id" format="ascii" RangeMin="90" RangeMax="3312">
          90 91 92 93 94 95
          110 111 112 120 121 122
          123 124 125 140 141 142
          150 151 152 153 154 155
          170 171 172 180 181 182
          183 184 185 200 201 202
          2918 2919 2920 2921 2922 2927
          2928 2930 2931 2932 2933 2940
          2941 2942 2943 2944 2945 2946
          2947 2948 2949 2950 2951 2952
          2953 2954 2955 2956 2957 2958
          2959 2960 2961 2962 2963 2964
          2965 2966 2967 2968 2969 2970
          2971 2972 2973 2974 2975 2976
          2977 3060 3061 3062 3063 3064
          3065 3066 3067 3068 3069 3070
          3071 3072 3073 3074 3075 3076
          3077 3078 3079 3080 3081 3082
          3083 3084 3085 3086 3087 3088
          3089 3090 3091 3092 3093 3094
          3095 3096 3097 3098 3099 3100
          3101 3102 3103 3104 3105 3106
          3107 3108 3109 3110 3111 3112
          3113 3114 3115 3116 3117 3118
          3119 3120 3121 3122 3123 3124
          3125 3126 3127 3128 3129 3130
          3131 3132 3133 3134 3135 3136
          3137 3138 3139 3140 3141 3142
          3143 3144 3145 3146 3147 3148
          3149 3150 3151 3152 3153 3154
          3155 3156 3157 3158 3159 3160
          3161 3162 3163 3164 3165 3166
          3167 3168 3169 3170 3171 3172
          3173 3174 3175 3176 3177 3178
          3179 3180 3181 3182 3183 3184
          3185 3186 3187 3188 3189 3190
          3191 3192 3193 3194 3195 3196
          3197 3198 3199 3200 3201 3202
          3203 3204 3205 3206 3207 3208
          3209 3210 3211 3212 3213 3214
          3215 3216 3217 3218 3219 3220
          3221 3222 3223 3224 3225 3226
          3227 3228 3229 3230 3231 3232
          3233 3234 3235 3236 3237 3238
          3239 3240 3241 3242 3243 3244
          3245 3246 3247 3248 3249 3250
          3251 3252 3253 3254 3255 3256
          3257 3258 3259 3260 3261 3262
          3263 3264 3265 3266 3267 3268
          3269 3270 3271 3272 3282 3283
          3284 3285 3286 3287 3288 3289
          3290 3291 3292 3293 3294 3295
          3296 3297 3298 3299 3300 3301
          3302 3303 3304 3305 3306 3307
          3309 3312
        </DataArray>
        <DataArray type="Float64" Name="bounds" format="ascii" RangeMin="0" RangeMax="0">
          0 0 0 0 0 0
          0 0 0 0 0 0
          0 0 0 0 0 0
          0 0 0 0 0 0
          0 0 0 0 0 0
          0 0 0 0 0 0
          0 0 0 0 0 0
          0 0 0 0 0 0
          0 0 0 0 0 0
          0 0 0 0 0 0
          0 0 0 0 0 0
          0 0 0 0 0 0
          0 0 0 0 0 0
          0 0 0 0 0 0
          0 0 0 0 0 0
          0 0 0 0 0 0
          0 0 0 0 0 0
          0 0 0 0 0 0
          0 0 0 0 0 0
          0 0 0 0 0 0
          0 0 0 0 0 0
          0 0 0 0 0 0
          0 0 0 0 0 0
          0 0 0 0 0 0
          0 0 0 0 0 0
          0 0 0 0 0 0
          0 0 0 0 0 0
          0 0 0 0 0 0
          0 0 0 0 0 0
          0 0 0 0 0 0
          0 0 0 0 0 0
          0 0 0 0 0 0
          0 0 0 0 0 0
          0 0 0 0 0 0
          0 0 0 0 0 0
          0 0 0 0 0 0
          0 0 0 0 0 0
          0 0 0 0 0 0
          0 0 0 0 0 0
          0 0 0 0 0 0
          0 0 0 0 0 0
          0 0 0 0 0 0
          0 0 0 0 0 0
          0 0 0 0 0 0
          0 0 0 0 0 0
          0 0 0 0 0 0
          0 0 0 0 0 0
          0 0 0 0 0 0
          0 0 0 0 0 0
          0 0 0 0 0 0
          0 0 0 0 0 0
          0 0 0 0 0 0
          0 0 0 0 0 0
          0 0 0 0 0 0
          0 0
        </DataArray>
        <DataArray type="Float64" Name="gradient_error" format="ascii" RangeMin="5.617473376413594e-10" RangeMax="8.349312432766378e-7">
          6.662480065546479e-9 5.858844910977602e-9 3.2699382355102605e-9 3.6121137015939193e-9 3.754985384446381e-9 2.344244458224625e-9
          6.810315600429193e-10 5.617473376413594e-10 9.335035320028685e-10 1.4513565441930424e-8 1.2206967726252704e-8 4.913868728612885e-9
          5.3978103803607045e-9 7.742050667586844e-9 4.38348965851949e-9 3.67401442176566e-9 4.317923479897702e-9 2.760557602751761e-9
          8.017044996226545e-8 6.976071861532247e-8 2.1257590814846917e-7 2.3579729889102675e-7 6.393945350226085e-8 1.652263692393163e-7
          5.282970750681735e-9 5.999054460038697e-9 3.5438049714228397e-9 2.898986642053864e-7 3.68734631819005e-7 3.15522482407771e-7
          3.551928157695073e-7 5.281198382790341e-7 2.3822098674134333e-7 2.2703872412687794e-8 1.9261241112877447e-8 2.2952966704822054e-8
          7.774628145234004e-9 3.308132782063071e-8 3.806886940430201e-8 3.5421798068697654e-8 3.307591329447628e-8 3.277472673309329e-8
          3.3070498768321846e-8 6.814164872233071e-8 1.6413448283958454e-7 1.8658961111994322e-7 1.8186375685085596e-7 7.633921233187e-8
          2.3780639173952575e-7 2.434863089044795e-7 3.8272099220926603e-7 3.9984819528836293e-7 4.5029483369808967e-7 4.475376194858193e-7
          2.241697900416993e-7 4.321533247965118e-7 4.5272389633275604e-7 3.032173668730834e-7 3.702484534406316e-7 3.839549637741816e-7
          3.3682148947863865e-7 3.1618739202186556e-7 4.6548776863139887e-7 4.3910113174654756e-7 5.171449736510396e-7 3.434881238070715e-7
          6.525222377190583e-8 2.0685103515018127e-7 4.6807561245711696e-7 4.515061386785093e-7 5.062652698540943e-7 4.459625433887305e-7
          2.524423519316708e-7 2.9435257491565993e-7 2.4740841953336426e-7 4.3751314882731126e-7 5.791651035452614e-7 6.522614413081117e-7
          2.793513511457888e-7 5.456290479498018e-7 4.3460475412671806e-7 1.977568782897975e-7 6.50115381979078e-7 7.383145259859214e-7
          1.931580149171205e-7 1.733062747418705e-8 9.776989189618568e-9 1.0281313286627332e-8 3.641171319204296e-8 3.498450232853441e-8
          2.907957747416461e-8 2.8992770324621697e-8 8.970635077482841e-9 3.231617843690857e-8 2.9676672438658885e-8 2.2233509050500845e-9
          2.3174652619794812e-8 2.1573827457200436e-8 2.70371664404092e-8 1.2368558611791077e-8 8.445414599577285e-9 3.1582561900562486e-8
          3.1264683454532673e-8 4.52227058736349e-9 3.0946805008502854e-8 6.129565576667181e-8 6.598654352012682e-8 1.396407492005879e-7
          1.4725232538678506e-7 4.9943147462537564e-8 1.2094290062470375e-7 4.339039495184956e-9 1.2348996616900025e-8 1.1775812242364936e-8
          1.3521973988741574e-8 2.17985842634504e-7 2.285181072534433e-7 1.9194265378686997e-7 2.0358953738615098e-8 3.66680278526904e-8
          9.792439145517846e-8 2.419013022268598e-8 7.396675061223738e-8 3.978747176632415e-9 1.4059744294407284e-8 1.3024787389697556e-8
          1.5918075505766654e-7 1.237433710017888e-7 2.414074141218215e-8 1.3656383091525625e-8 5.069769265132613e-8 1.9110640210132747e-9
          1.0390673673541136e-8 8.773900221112665e-8 1.8870283326069e-8 1.0418455645790279e-7 1.0728268902838645e-7 1.0873743966113215e-7
          2.0387555212911054e-7 2.0367749435463543e-7 1.8662527172682356e-7 1.8701710462781933e-7 1.0361370433749401e-7 2.0305078054613067e-7
          1.8553733714860807e-7 1.1038082159887011e-7 1.695730490990117e-7 1.7015865712652815e-7 1.680238937510855e-7 3.8760614114090376e-7
          3.6786814696323165e-7 3.6379424001359173e-7 3.780868508183583e-7 3.439968828544234e-7 9.503239231057341e-8 9.905338948568684e-8
          2.019930430952691e-7 1.8396923071940243e-7 9.422604794466509e-8 2.00370509381235e-7 1.8188425088765887e-7 1.0307438666080026e-7
          1.6594541834353576e-7 1.6339799239408273e-7 4.1536246056921155e-7 3.911945679524216e-7 4.0544533241069375e-7 3.608240409640552e-7
          3.7671209967693823e-7 3.847411107717467e-7 4.234617052921247e-7 4.1551572166888344e-7 4.0491113449359413e-7 4.4350985804002675e-7
          4.240959829124013e-7 4.1819477373970023e-7 4.3900514287514085e-7 2.974403715130539e-7 3.771549710830467e-7 3.6873973290508995e-7
          3.983069844030591e-7 4.4657927984274426e-7 4.311648645987437e-7 4.697124149973525e-7 4.6110661138733093e-7 4.99468717063323e-7
          4.583663005677999e-7 4.79888519701566e-7 3.405585019390292e-7 4.2592076604297995e-7 4.5758922313591136e-7 4.899047647026527e-7
          2.690939936987289e-7 2.684922836122787e-7 3.1168945233192906e-7 3.1005417181446616e-7 2.7055469189826104e-7 3.157554650897044e-7
          2.0245764440530707e-7 2.3736923865155823e-7 2.380381398103605e-7 2.3560922601558655e-7 3.542849109651292e-7 3.516160600166536e-7
          3.6095623828114764e-7 2.722808328978094e-7 2.7257064544765646e-7 3.2108247563096855e-7 2.746149995343473e-7 3.267349153931115e-7
          1.9672251867441052e-7 2.3369231552229852e-7 2.31523614122406e-7 3.6959430581428063e-7 3.788548312518757e-7 2.7066211237018654e-7
          8.473023532519098e-8 8.921814343195597e-8 1.979470867062088e-7 1.790613219218919e-7 8.417285524980248e-8 1.9456546784413683e-7
          1.7536561663731566e-7 9.370605153872095e-8 1.6017555713757504e-7 1.5616576543049448e-7 4.497798415259082e-7 4.2022903928315253e-7
          4.353569636259255e-7 3.8157979978852665e-7 7.507671252925761e-8 7.923023858410482e-8 1.900442589562095e-7 1.7063101676409007e-7
          7.465086584032263e-8 1.8420787499695762e-7 1.6469534560116301e-7 8.338376463895202e-8 1.5121777457197062e-7 1.451828162053684e-7
          4.869429263151493e-7 4.506786759737913e-7 4.660112208525234e-7 4.0163072039073703e-7 4.946206186036094e-7 5.324148801298717e-7
          5.321206602038746e-7 5.688247521060341e-7 5.02962602783551e-7 5.275156628130192e-7 4.0084549224262904e-7 4.932761821052663e-7
          5.334939549850459e-7 5.468780372525266e-7 5.742304865776838e-7 6.091519446689467e-7 6.217305682275506e-7 6.539608471075745e-7
          5.535666921256983e-7 5.811384556514439e-7 4.795869259082304e-7 5.789783323343858e-7 6.306390778721056e-7 6.142131959177856e-7
          2.760627373936511e-7 3.3201944068653043e-7 2.76691665941033e-7 3.366801778545587e-7 1.88742549502516e-7 2.28322817462093e-7
          2.238578740912727e-7 3.8797614397940985e-7 3.9666868976808453e-7 2.6790308542166997e-7 2.7625907226562597e-7 3.404569254813747e-7
          2.7454721578497533e-7 3.43091798726232e-7 1.7645483462390724e-7 2.1785386947156213e-7 2.1009781213717477e-7 4.046547786971234e-7
          4.116363816674888e-7 2.59252904319217e-7 6.863317579301297e-8 7.075262024510891e-8 1.7684696177179658e-7 1.573652901641195e-7
          6.803663767504257e-8 1.6776742215847096e-7 1.4844926766226112e-7 7.287206469720485e-8 1.378836185564424e-7 1.2913111316605129e-7
          5.258924102803841e-7 4.811304282911028e-7 4.957313581205476e-7 4.189150906256652e-7 6.755716412429674e-7 7.039308814241007e-7
          7.369213692376044e-7 7.598699487811956e-7 6.102380334633786e-7 6.408221084258676e-7 5.844192096757466e-7 6.89578866349126e-7
          7.571390789707755e-7 6.935510171960992e-7 8.071993503747922e-7 8.22747210048919e-7 6.728005489880928e-7 7.272354574090665e-7
          8.349312432766378e-7 7.867322067450722e-7 2.7132261098549124e-7 3.442922169834319e-7 2.663183060328683e-7 3.437027992032909e-7
          1.5863684269762918e-7 2.0039848864534063e-7 1.8857990987963315e-7 4.172618229813725e-7 4.210872923737134e-7 2.4216013459305213e-7
          3.4091802392448007e-7 4.22580945468858e-7
        </DataArray>
        <DataArray type="Float64" Name="gradient_matprop_error" format="ascii" RangeMin="0" RangeMax="0">
          0 0 0 0 0 0
          0 0 0 0 0 0
          0 0 0 0 0 0
          0 0 0 0 0 0
          0 0 0 0 0 0
          0 0 0 0 0 0
          0 0 0 0 0 0
          0 0 0 0 0 0
          0 0 0 0 0 0
          0 0 0 0 0 0
          0 0 0 0 0 0
          0 0 0 0 0 0
          0 0 0 0 0 0
          0 0 0 0 0 0
          0 0 0 0 0 0
          0 0 0 0 0 0
          0 0 0 0 0 0
          0 0 0 0 0 0
          0 0 0 0 0 0
          0 0 0 0 0 0
          0 0 0 0 0 0
          0 0 0 0 0 0
          0 0 0 0 0 0
          0 0 0 0 0 0
          0 0 0 0 0 0
          0 0 0 0 0 0
          0 0 0 0 0 0
          0 0 0 0 0 0
          0 0 0 0 0 0
          0 0 0 0 0 0
          0 0 0 0 0 0
          0 0 0 0 0 0
          0 0 0 0 0 0
          0 0 0 0 0 0
          0 0 0 0 0 0
          0 0 0 0 0 0
          0 0 0 0 0 0
          0 0 0 0 0 0
          0 0 0 0 0 0
          0 0 0 0 0 0
          0 0 0 0 0 0
          0 0 0 0 0 0
          0 0 0 0 0 0
          0 0 0 0 0 0
          0 0 0 0 0 0
          0 0 0 0 0 0
          0 0 0 0 0 0
          0 0 0 0 0 0
          0 0 0 0 0 0
          0 0 0 0 0 0
          0 0 0 0 0 0
          0 0 0 0 0 0
          0 0 0 0 0 0
          0 0 0 0 0 0
          0 0
        </DataArray>
        <DataArray type="Float64" Name="initial_marker" format="ascii" RangeMin="0" RangeMax="0">
          0 0 0 0 0 0
          0 0 0 0 0 0
          0 0 0 0 0 0
          0 0 0 0 0 0
          0 0 0 0 0 0
          0 0 0 0 0 0
          0 0 0 0 0 0
          0 0 0 0 0 0
          0 0 0 0 0 0
          0 0 0 0 0 0
          0 0 0 0 0 0
          0 0 0 0 0 0
          0 0 0 0 0 0
          0 0 0 0 0 0
          0 0 0 0 0 0
          0 0 0 0 0 0
          0 0 0 0 0 0
          0 0 0 0 0 0
          0 0 0 0 0 0
          0 0 0 0 0 0
          0 0 0 0 0 0
          0 0 0 0 0 0
          0 0 0 0 0 0
          0 0 0 0 0 0
          0 0 0 0 0 0
          0 0 0 0 0 0
          0 0 0 0 0 0
          0 0 0 0 0 0
          0 0 0 0 0 0
          0 0 0 0 0 0
          0 0 0 0 0 0
          0 0 0 0 0 0
          0 0 0 0 0 0
          0 0 0 0 0 0
          0 0 0 0 0 0
          0 0 0 0 0 0
          0 0 0 0 0 0
          0 0 0 0 0 0
          0 0 0 0 0 0
          0 0 0 0 0 0
          0 0 0 0 0 0
          0 0 0 0 0 0
          0 0 0 0 0 0
          0 0 0 0 0 0
          0 0 0 0 0 0
          0 0 0 0 0 0
          0 0 0 0 0 0
          0 0 0 0 0 0
          0 0 0 0 0 0
          0 0 0 0 0 0
          0 0 0 0 0 0
          0 0 0 0 0 0
          0 0 0 0 0 0
          0 0 0 0 0 0
          0 0
        </DataArray>
        <DataArray type="Float64" Name="markers_norefine" format="ascii" RangeMin="0" RangeMax="0">
          0 0 0 0 0 0
          0 0 0 0 0 0
          0 0 0 0 0 0
          0 0 0 0 0 0
          0 0 0 0 0 0
          0 0 0 0 0 0
          0 0 0 0 0 0
          0 0 0 0 0 0
          0 0 0 0 0 0
          0 0 0 0 0 0
          0 0 0 0 0 0
          0 0 0 0 0 0
          0 0 0 0 0 0
          0 0 0 0 0 0
          0 0 0 0 0 0
          0 0 0 0 0 0
          0 0 0 0 0 0
          0 0 0 0 0 0
          0 0 0 0 0 0
          0 0 0 0 0 0
          0 0 0 0 0 0
          0 0 0 0 0 0
          0 0 0 0 0 0
          0 0 0 0 0 0
          0 0 0 0 0 0
          0 0 0 0 0 0
          0 0 0 0 0 0
          0 0 0 0 0 0
          0 0 0 0 0 0
          0 0 0 0 0 0
          0 0 0 0 0 0
          0 0 0 0 0 0
          0 0 0 0 0 0
          0 0 0 0 0 0
          0 0 0 0 0 0
          0 0 0 0 0 0
          0 0 0 0 0 0
          0 0 0 0 0 0
          0 0 0 0 0 0
          0 0 0 0 0 0
          0 0 0 0 0 0
          0 0 0 0 0 0
          0 0 0 0 0 0
          0 0 0 0 0 0
          0 0 0 0 0 0
          0 0 0 0 0 0
          0 0 0 0 0 0
          0 0 0 0 0 0
          0 0 0 0 0 0
          0 0 0 0 0 0
          0 0 0 0 0 0
          0 0 0 0 0 0
          0 0 0 0 0 0
          0 0 0 0 0 0
          0 0
        </DataArray>
        <DataArray type="Float64" Name="markers_mustrefine" format="ascii" RangeMin="0" RangeMax="0">
          0 0 0 0 0 0
          0 0 0 0 0 0
          0 0 0 0 0 0
          0 0 0 0 0 0
          0 0 0 0 0 0
          0 0 0 0 0 0
          0 0 0 0 0 0
          0 0 0 0 0 0
          0 0 0 0 0 0
          0 0 0 0 0 0
          0 0 0 0 0 0
          0 0 0 0 0 0
          0 0 0 0 0 0
          0 0 0 0 0 0
          0 0 0 0 0 0
          0 0 0 0 0 0
          0 0 0 0 0 0
          0 0 0 0 0 0
          0 0 0 0 0 0
          0 0 0 0 0 0
          0 0 0 0 0 0
          0 0 0 0 0 0
          0 0 0 0 0 0
          0 0 0 0 0 0
          0 0 0 0 0 0
          0 0 0 0 0 0
          0 0 0 0 0 0
          0 0 0 0 0 0
          0 0 0 0 0 0
          0 0 0 0 0 0
          0 0 0 0 0 0
          0 0 0 0 0 0
          0 0 0 0 0 0
          0 0 0 0 0 0
          0 0 0 0 0 0
          0 0 0 0 0 0
          0 0 0 0 0 0
          0 0 0 0 0 0
          0 0 0 0 0 0
          0 0 0 0 0 0
          0 0 0 0 0 0
          0 0 0 0 0 0
          0 0 0 0 0 0
          0 0 0 0 0 0
          0 0 0 0 0 0
          0 0 0 0 0 0
          0 0 0 0 0 0
          0 0 0 0 0 0
          0 0 0 0 0 0
          0 0 0 0 0 0
          0 0 0 0 0 0
          0 0 0 0 0 0
          0 0 0 0 0 0
          0 0 0 0 0 0
          0 0
        </DataArray>
        <DataArray type="Float64" Name="gradient_marker" format="ascii" RangeMin="1" RangeMax="1">
          1 1 1 1 1 1
          1 1 1 1 1 1
          1 1 1 1 1 1
          1 1 1 1 1 1
          1 1 1 1 1 1
          1 1 1 1 1 1
          1 1 1 1 1 1
          1 1 1 1 1 1
          1 1 1 1 1 1
          1 1 1 1 1 1
          1 1 1 1 1 1
          1 1 1 1 1 1
          1 1 1 1 1 1
          1 1 1 1 1 1
          1 1 1 1 1 1
          1 1 1 1 1 1
          1 1 1 1 1 1
          1 1 1 1 1 1
          1 1 1 1 1 1
          1 1 1 1 1 1
          1 1 1 1 1 1
          1 1 1 1 1 1
          1 1 1 1 1 1
          1 1 1 1 1 1
          1 1 1 1 1 1
          1 1 1 1 1 1
          1 1 1 1 1 1
          1 1 1 1 1 1
          1 1 1 1 1 1
          1 1 1 1 1 1
          1 1 1 1 1 1
          1 1 1 1 1 1
          1 1 1 1 1 1
          1 1 1 1 1 1
          1 1 1 1 1 1
          1 1 1 1 1 1
          1 1 1 1 1 1
          1 1 1 1 1 1
          1 1 1 1 1 1
          1 1 1 1 1 1
          1 1 1 1 1 1
          1 1 1 1 1 1
          1 1 1 1 1 1
          1 1 1 1 1 1
          1 1 1 1 1 1
          1 1 1 1 1 1
          1 1 1 1 1 1
          1 1 1 1 1 1
          1 1 1 1 1 1
          1 1 1 1 1 1
          1 1 1 1 1 1
          1 1 1 1 1 1
          1 1 1 1 1 1
          1 1 1 1 1 1
          1 1
        </DataArray>
        <DataArray type="Float64" Name="gradient_matprop_marker" format="ascii" RangeMin="0" RangeMax="0">
          0 0 0 0 0 0
          0 0 0 0 0 0
          0 0 0 0 0 0
          0 0 0 0 0 0
          0 0 0 0 0 0
          0 0 0 0 0 0
          0 0 0 0 0 0
          0 0 0 0 0 0
          0 0 0 0 0 0
          0 0 0 0 0 0
          0 0 0 0 0 0
          0 0 0 0 0 0
          0 0 0 0 0 0
          0 0 0 0 0 0
          0 0 0 0 0 0
          0 0 0 0 0 0
          0 0 0 0 0 0
          0 0 0 0 0 0
          0 0 0 0 0 0
          0 0 0 0 0 0
          0 0 0 0 0 0
          0 0 0 0 0 0
          0 0 0 0 0 0
          0 0 0 0 0 0
          0 0 0 0 0 0
          0 0 0 0 0 0
          0 0 0 0 0 0
          0 0 0 0 0 0
          0 0 0 0 0 0
          0 0 0 0 0 0
          0 0 0 0 0 0
          0 0 0 0 0 0
          0 0 0 0 0 0
          0 0 0 0 0 0
          0 0 0 0 0 0
          0 0 0 0 0 0
          0 0 0 0 0 0
          0 0 0 0 0 0
          0 0 0 0 0 0
          0 0 0 0 0 0
          0 0 0 0 0 0
          0 0 0 0 0 0
          0 0 0 0 0 0
          0 0 0 0 0 0
          0 0 0 0 0 0
          0 0 0 0 0 0
          0 0 0 0 0 0
          0 0 0 0 0 0
          0 0 0 0 0 0
          0 0 0 0 0 0
          0 0 0 0 0 0
          0 0 0 0 0 0
          0 0 0 0 0 0
          0 0 0 0 0 0
          0 0
        </DataArray>
        <DataArray type="Float64" Name="combo" format="ascii" RangeMin="1" RangeMax="1">
          1 1 1 1 1 1
          1 1 1 1 1 1
          1 1 1 1 1 1
          1 1 1 1 1 1
          1 1 1 1 1 1
          1 1 1 1 1 1
          1 1 1 1 1 1
          1 1 1 1 1 1
          1 1 1 1 1 1
          1 1 1 1 1 1
          1 1 1 1 1 1
          1 1 1 1 1 1
          1 1 1 1 1 1
          1 1 1 1 1 1
          1 1 1 1 1 1
          1 1 1 1 1 1
          1 1 1 1 1 1
          1 1 1 1 1 1
          1 1 1 1 1 1
          1 1 1 1 1 1
          1 1 1 1 1 1
          1 1 1 1 1 1
          1 1 1 1 1 1
          1 1 1 1 1 1
          1 1 1 1 1 1
          1 1 1 1 1 1
          1 1 1 1 1 1
          1 1 1 1 1 1
          1 1 1 1 1 1
          1 1 1 1 1 1
          1 1 1 1 1 1
          1 1 1 1 1 1
          1 1 1 1 1 1
          1 1 1 1 1 1
          1 1 1 1 1 1
          1 1 1 1 1 1
          1 1 1 1 1 1
          1 1 1 1 1 1
          1 1 1 1 1 1
          1 1 1 1 1 1
          1 1 1 1 1 1
          1 1 1 1 1 1
          1 1 1 1 1 1
          1 1 1 1 1 1
          1 1 1 1 1 1
          1 1 1 1 1 1
          1 1 1 1 1 1
          1 1 1 1 1 1
          1 1 1 1 1 1
          1 1 1 1 1 1
          1 1 1 1 1 1
          1 1 1 1 1 1
          1 1 1 1 1 1
          1 1 1 1 1 1
          1 1
        </DataArray>
        <DataArray type="Float64" Name="dHdT" format="ascii" RangeMin="25.8001613314433" RangeMax="30.86497931363784">
          25.811637898880946 25.81161115592961 25.81153835536809 25.811551679328364 25.811538752780155 25.811502352753546
          25.811465554806567 25.811465459775782 25.811465952726934 25.809878935261494 25.81060717361903 25.81163545059404
          25.811469336727043 25.811780323086307 25.811838687548192 25.8114146790869 25.811398673910638 25.81145933424376
          25.902623774215655 25.877017253794584 25.858742786746507 25.868032420218878 25.843842139720604 25.842958314903072
          25.81099973151449 25.810929813662312 25.81122025694567 29.023042389578805 29.40023756816438 26.148166777890037
          26.19155963945154 30.089921746938742 26.068456532478336 25.805636353550213 25.805339237038613 25.807037573581063
          25.812352018698288 25.801149945184946 25.8001613314433 25.803151403710203 25.803369023971342 25.806141475977114
          25.80558810275774 25.831360452864036 25.84318924783302 25.855727614495144 25.84343669616827 25.89385636063744
          25.895306233784098 25.90088170905569 27.27868192749321 27.28966866843584 26.66146592145641 26.668074575561118
          25.883103945548644 27.303652847337275 26.642365275681932 25.88329775236153 25.995973350366704 26.00452160873245
          25.97626183233277 29.1470224218652 27.81806674856727 27.78383719674448 27.88151918726839 26.17823878668764
          25.859625473189993 25.869305324683186 27.31448187090431 26.613087861490467 27.317896112195143 26.575614723778806
          25.864032474324166 25.952488045672506 25.92751046024568 29.70863586126049 27.948117013873514 28.014486009604873
          26.110680633525238 27.30923884854719 26.52878220051207 25.902483187716342 30.572026713032287 28.07538578007796
          26.022619431091904 25.808305935044984 25.80984592552018 25.809514101646492 25.805670605359918 25.805053696614042
          25.8054205526517 25.805802982855194 25.810627637113733 25.80367212082442 25.804589052865488 25.811385915995377
          25.805787408689362 25.80593536035047 25.805505984906546 25.810624994074296 25.811509962974295 25.802277490484673
          25.80383088900037 25.812394931874294 25.805384287516063 25.824218932322488 25.82533579893646 25.843772031095956
          25.84609979556393 25.821579343925887 25.838205366836362 25.810531261167576 25.807967320511146 25.807922716036664
          25.80812514238177 25.86332512986942 25.866863792191396 25.854831389746828 25.80540337985472 25.818644410334826
          25.831796941106177 25.816082112066297 25.825812864373493 25.810761915106916 25.80845779140937 25.80900169656181
          25.84494947187753 25.835543616680685 25.806153667711826 25.81408959869571 25.820679072441482 25.811191959289275
          25.809703744822308 25.827268546187263 25.80821553035534 25.9972323524685 25.98662979063236 25.990593596098037
          26.335872141304428 26.331045702943026 26.28161817528359 26.28619847964179 25.976674043218946 26.318791388070917
          26.269937676578426 25.97602722879622 26.232190647624158 26.236524817979152 26.22108396508594 27.28214121829801
          27.11383817020468 27.112435646369626 27.116637273146413 26.88248560272558 25.971486051455216 25.96375735643007
          26.302825950101223 26.25440261096803 25.949739062608657 26.285002831797108 26.23681471078393 25.956028661404922
          26.20597927183484 26.18862658977074 27.296939738918137 27.117987021718374 27.117499499050847 26.870261683919484
          28.455210668516198 28.478673128790035 28.166963450136524 28.149683944428062 28.537344122843415 28.21042881046468
          27.436540662607264 27.43160889648007 27.448867080977642 29.057922874401612 28.682857119798506 28.65629995930241
          28.75078438457444 27.793529954352202 28.612826463220408 28.26557217157422 28.69680322690831 28.32591048340094
          27.463207256180777 27.476687498513428 29.26593929735177 28.84021816521768 28.94071232765938 27.8489869276147
          26.49067382579337 26.49481083727499 26.67747816910693 26.680617367642956 26.479898171884646 26.66915354677782
          26.224961087632693 26.33712878448234 26.3421741626657 26.32408642968631 26.864282512420495 26.866423898010925
          26.858408921671007 26.449296481331984 26.464442822946673 26.657008232799367 26.44571689965934 26.641398054134427
          26.19616920317211 26.305919833165216 26.284438851135565 26.84957364265206 26.837079208609516 26.415670463158325
          25.940551735242607 25.935544671284873 26.265775257645494 26.21787043693261 25.921520876956436 26.245269709137276
          26.19766297152656 25.930537607327143 26.16996561621972 26.150056233915844 27.309560987356257 27.115393088337036
          27.111081106699007 26.845426759769097 25.91077134021991 25.9080122083161 26.223571404710484 26.176271695222916
          25.895331698936253 26.200763866883563 26.153694394859645 25.905253076412293 26.128971985735348 26.106624922835742
          27.318290636100528 27.104818731811186 27.095821689033457 26.808622100642523 28.787173188967728 28.389934026167133
          28.886190572139746 28.45799033702568 27.488922333202524 27.499749231513295 29.546223183271337 29.04927807824054
          29.16762352675004 27.91440133930756 28.994367736544987 28.530533724833475 29.110742463782593 28.60843724713008
          27.509060956671846 27.517693021225035 29.888525670089976 29.29596116817431 29.437288206976287 27.9815342099091
          26.424575001337928 26.622958783116438 26.401138506777308 26.60237896001733 26.155320102004197 26.260767763194362
          26.235049558919673 26.821342564894955 26.803619413257344 26.366215424384535 26.37589334486865 26.579464868657848
          26.349105378369448 26.55384787852779 26.108614042853404 26.207507537093967 26.178441745083077 26.78303639244704
          26.758590378686137 26.30640103133453 25.88544102570406 25.88389368555521 26.176897304903434 26.130126477516406
          25.87417090373436 26.152021896300887 26.10583134069851 25.88234634540636 26.083355650129384 26.059640785096136
          27.31453254303923 27.08395700327143 27.06817544294174 26.76312285150288 29.238892939063245 28.6928543019017
          29.381137451829282 28.78264147265541 27.524432643427204 27.526274800285016 30.317074376150835 29.59415386673814
          29.76642383709 28.04636348702629 29.539773168243414 28.87988420205923 27.524144296316152 30.86497931363784
          29.960764221695676 28.10371774708119 26.320613092106754 26.524949775434905 26.289717226852957 26.492075588219684
          26.058620556712146 26.147849928755562 26.115747069350878 26.729286458763056 26.694433949586415 26.237079300798978
          26.455189906920474 26.654710781140537
        </DataArray>
        <DataArray type="Float64" Name="dk/dtemperature" format="ascii" RangeMin="0.010806774311719773" RangeMax="0.015804580349343195">
          0.015804580349343195 0.015804580349343192 0.015804580349343192 0.015804580349343195 0.015804580349343195 0.015804580349343192
          0.015804580349343192 0.015804580349343195 0.015804580349343195 0.015804580349343192 0.015804580349343192 0.015804580349343192
          0.015804580349343192 0.015804580349343192 0.015804580349343192 0.015804580349343192 0.015804580349343192 0.015804580349343192
          0.015804580349343192 0.015804580349343192 0.015762814551807676 0.015762814551807676 0.015804580349343192 0.015794138899959315
          0.015804580349343192 0.015804580349343192 0.015804580349343192 0.012116106904339235 0.01174725955983883 0.015438249016742534
          0.01539648321920702 0.011221916275175206 0.015637517159201135 0.015804580349343192 0.01580458034934319 0.015804580349343192
          0.015804580349343192 0.015804580349343192 0.015804580349343192 0.015804580349343192 0.015804580349343192 0.015804580349343192
          0.015804580349343192 0.015804580349343192 0.015804580349343192 0.015794138899959315 0.01580458034934319 0.015804580349343192
          0.015762814551807676 0.015762814551807676 0.014050913267134493 0.014050913267134497 0.014735271897909517 0.014735271897909519
          0.015762814551807676 0.014008266865434068 0.014735271897909517 0.015748892619295837 0.015679282956736647 0.015679282956736647
          0.015679282956736647 0.012008924797410742 0.013367306045880895 0.013425929123144598 0.013277358620465547 0.015396483219207016
          0.015804580349343192 0.015773256001191553 0.013966375267303573 0.014793140171603303 0.013938699136406546 0.014911266930295618
          0.015762814551807676 0.01572104875427216 0.0157523731024238 0.01154446900072058 0.013233328412220264 0.013213582809880147
          0.015556375775434844 0.014019840520172834 0.014980079855753229 0.015762814551807676 0.010994217198249655 0.013190940399806832
          0.015637517159201135 0.015804580349343192 0.015804580349343192 0.01580458034934319 0.015804580349343192 0.015804580349343192
          0.015804580349343192 0.015804580349343192 0.015804580349343192 0.01580458034934319 0.015804580349343192 0.015804580349343192
          0.015804580349343192 0.015804580349343192 0.015804580349343192 0.01580458034934319 0.01580458034934319 0.015804580349343192