<?xml version="1.0"?>
<VTKFile type="UnstructuredGrid" version="0.1" byte_order="LittleEndian" header_type="UInt32" compressor="vtkZLibDataCompressor">
  <UnstructuredGrid>
    <Piece NumberOfPoints="646" NumberOfCells="323">
      <PointData>
        <DataArray type="Int32" Name="libmesh_node_id" format="ascii" RangeMin="0" RangeMax="5667">
          0 1 2 3 4 5
          6 7 8 9 10 11
          12 13 14 15 16 17
          18 19 20 21 22 23
          24 25 26 27 28 29
          30 31 32 33 34 35
          36 37 38 39 40 41
          42 43 44 45 46 47
          48 49 50 51 52 53
          54 55 56 57 58 59
          60 61 62 63 64 65
          66 67 68 69 70 71
          72 73 74 75 76 77
          78 79 80 81 82 83
          84 85 86 87 88 89
          90 91 92 93 94 95
          96 97 98 99 100 101
          102 103 104 105 106 107
          108 109 110 111 112 113
          114 115 116 117 118 119
          120 121 122 123 124 125
          126 127 128 129 130 131
          132 133 134 135 136 137
          138 139 140 141 142 143
          144 145 146 147 148 149
          150 151 152 153 154 155
          156 157 158 159 160 161
          162 163 164 165 166 167
          168 169 170 171 172 173
          174 175 176 177 178 179
          180 181 182 183 184 185
          186 187 188 189 190 191
          192 193 194 195 196 197
          198 199 200 201 202 203
          204 205 206 207 208 209
          210 211 212 213 214 215
          216 217 218 219 220 221
          222 223 224 225 226 227
          228 229 230 231 232 233
          234 235 236 237 238 239
          240 241 242 243 244 245
          246 247 248 249 250 251
          252 253 254 255 256 257
          258 259 260 261 262 263
          264 265 266 267 268 269
          270 271 272 273 274 275
          276 277 278 279 280 281
          282 283 284 285 286 287
          288 289 290 291 292 293
          294 295 296 297 298 299
          300 301 302 303 304 305
          306 307 308 309 310 311
          320 321 322 323 324 325
          326 327 328 329 330 331
          336 337 338 339 340 341
          342 343 344 345 346 347
          348 349 350 351 352 353
          354 355 368 369 370 371
          372 373 374 375 376 377
          384 385 386 387 388 389
          390 391 393 395 397 399
          400 401 402 403 416 417
          418 419 420 421 422 423
          424 425 432 433 434 435
          436 437 438 439 449 451
          464 465 466 467 473 480
          481 482 483 484 485 486
          487 512 513 514 515 521
          529 530 535 538 541 548
          554 555 706 707 708 709
          710 711 712 716 717 718
          748 749 753 756 758 759
          762 763 765 767 1263 1264
          1265 1266 1267 1268 1269 1270
          1271 1272 5345 5346 5347 5348
          5349 5350 5351 5352 5353 5354
          5355 5356 5357 5358 5359 5360
          5361 5362 5363 5364 5365 5366
          5367 5368 5369 5370 5371 5372
          5373 5374 5375 5376 5377 5378
          5379 5380 5381 5382 5383 5384
          5385 5386 5387 5388 5389 5390
          5391 5392 5393 5394 5395 5399
          5400 5402 5403 5405 5525 5526
          5527 5528 5531 5532 5533 5535
          5536 5538 5565 5566 5567 5568
          5569 5570 5571 5572 5573 5574
          5575 5576 5577 5578 5579 5580
          5581 5582 5583 5584 5585 5586
          5587 5588 5589 5590 5591 5592
          5593 5594 5595 5596 5597 5598
          5599 5600 5601 5602 5603 5604
          5605 5606 5607 5608 5609 5610
          5611 5612 5613 5614 5615 5616
          5617 5618 5619 5620 5621 5622
          5623 5624 5625 5626 5627 5628
          5629 5630 5631 5632 5633 5634
          5635 5636 5637 5638 5639 5640
          5641 5642 5643 5644 5645 5646
          5647 5648 5649 5650 5651 5652
          5653 5654 5655 5656 5657 5662
          5664 5665 5667 312 313 314
          315 316 317 318 319 332
          333 334 335 356 357 358
          359 360 361 378 379 380
          404 405 426 453 474 713
          714 715 719 551 760 556
          761 764 766 522
        </DataArray>
        <DataArray type="Float64" Name="bounds" format="ascii" RangeMin="0" RangeMax="0">
          0 0 0 0 0 0
          0 0 0 0 0 0
          0 0 0 0 0 0
          0 0 0 0 0 0
          0 0 0 0 0 0
          0 0 0 0 0 0
          0 0 0 0 0 0
          0 0 0 0 0 0
          0 0 0 0 0 0
          0 0 0 0 0 0
          0 0 0 0 0 0
          0 0 0 0 0 0
          0 0 0 0 0 0
          0 0 0 0 0 0
          0 0 0 0 0 0
          0 0 0 0 0 0
          0 0 0 0 0 0
          0 0 0 0 0 0
          0 0 0 0 0 0
          0 0 0 0 0 0
          0 0 0 0 0 0
          0 0 0 0 0 0
          0 0 0 0 0 0
          0 0 0 0 0 0
          0 0 0 0 0 0
          0 0 0 0 0 0
          0 0 0 0 0 0
          0 0 0 0 0 0
          0 0 0 0 0 0
          0 0 0 0 0 0
          0 0 0 0 0 0
          0 0 0 0 0 0
          0 0 0 0 0 0
          0 0 0 0 0 0
          0 0 0 0 0 0
          0 0 0 0 0 0
          0 0 0 0 0 0
          0 0 0 0 0 0
          0 0 0 0 0 0
          0 0 0 0 0 0
          0 0 0 0 0 0
          0 0 0 0 0 0
          0 0 0 0 0 0
          0 0 0 0 0 0
          0 0 0 0 0 0
          0 0 0 0 0 0
          0 0 0 0 0 0
          0 0 0 0 0 0
          0 0 0 0 0 0
          0 0 0 0 0 0
          0 0 0 0 0 0
          0 0 0 0 0 0
          0 0 0 0 0 0
          0 0 0 0 0 0
          0 0 0 0 0 0
          0 0 0 0 0 0
          0 0 0 0 0 0
          0 0 0 0 0 0
          0 0 0 0 0 0
          0 0 0 0 0 0
          0 0 0 0 0 0
          0 0 0 0 0 0
          0 0 0 0 0 0
          0 0 0 0 0 0
          0 0 0 0 0 0
          0 0 0 0 0 0
          0 0 0 0 0 0
          0 0 0 0 0 0
          0 0 0 0 0 0
          0 0 0 0 0 0
          0 0 0 0 0 0
          0 0 0 0 0 0
          0 0 0 0 0 0
          0 0 0 0 0 0
          0 0 0 0 0 0
          0 0 0 0 0 0
          0 0 0 0 0 0
          0 0 0 0 0 0
          0 0 0 0 0 0
          0 0 0 0 0 0
          0 0 0 0 0 0
          0 0 0 0 0 0
          0 0 0 0 0 0
          0 0 0 0 0 0
          0 0 0 0 0 0
          0 0 0 0 0 0
          0 0 0 0 0 0
          0 0 0 0 0 0
          0 0 0 0 0 0
          0 0 0 0 0 0
          0 0 0 0 0 0
          0 0 0 0 0 0
          0 0 0 0 0 0
          0 0 0 0 0 0
          0 0 0 0 0 0
          0 0 0 0 0 0
          0 0 0 0 0 0
          0 0 0 0 0 0
          0 0 0 0 0 0
          0 0 0 0 0 0
          0 0 0 0 0 0
          0 0 0 0 0 0
          0 0 0 0 0 0
          0 0 0 0 0 0
          0 0 0 0 0 0
          0 0 0 0 0 0
          0 0 0 0 0 0
          0 0 0 0
        </DataArray>
        <DataArray type="Float64" Name="gradient_error" format="ascii" RangeMin="2.4081796739283594e-13" RangeMax="0.000001083878541641504">
          8.7744994987694e-13 1.0430548928046358e-12 6.560753049373327e-13 5.721528945851533e-13 3.60394724352128e-12 3.962454534016263e-12
          2.143608547163616e-12 1.9816388969819804e-12 1.2844910502109603e-12 7.798135252666761e-13 4.404539147350889e-12 2.335303960939279e-12
          1.1917389089402829e-12 7.346837953228604e-13 3.9034671026112384e-12 2.0733241286314063e-12 8.23541217013629e-13 5.483914203733369e-13
          2.4151724507329934e-12 1.3322254942079482e-12 6.445699639199742e-13 4.561618754092374e-13 1.395487518455527e-12 8.284253742192434e-13
          6.057276302428415e-13 4.334031651780298e-13 1.1188812472539462e-12 7.050909393478678e-13 4.594582894036945e-13 3.5825143350120256e-13
          9.093446292567909e-13 6.075300427097148e-13 3.5134668730439513e-13 3.047212533938893e-13 8.415487614995475e-13 5.626092050209178e-13
          3.1487401582376694e-13 2.8680466560385617e-13 5.570334440447868e-13 4.132004268373681e-13 2.8196614576694896e-13 2.7083806726425865e-13
          2.724483575298702e-13 2.6845076881766096e-13 2.627513173127818e-13 2.618360382775451e-13 2.5613718568048947e-13 2.58003827043674e-13
          2.6091292257230964e-13 2.6085123366089004e-13 2.59589566768703e-13 2.597995684065351e-13 2.6051470256920315e-13 2.6054052059726315e-13
          2.60519245784283e-13 2.6048488662886685e-13 2.605083713368494e-13 2.6051813549891153e-13 2.6057932225559017e-13 2.6055990894812735e-13
          2.6051381722412864e-13 2.6051922855854255e-13 2.605776306056041e-13 2.6056412189087335e-13 2.690957170700296e-13 2.6685583929336675e-13
          3.247625603109691e-13 3.593305504426804e-13 2.7513600032239217e-13 2.660687745276685e-13 2.77628681705438e-13 2.431811546515745e-13
          2.7324162373304484e-13 2.4927853768290303e-13 2.6775378689850066e-13 2.6136322998295984e-13 2.61078700113218e-13 2.9130063144178937e-13
          2.570445775987107e-13 3.057154561626388e-13 2.5809581948338335e-13 2.8366964854228803e-13 2.587353153839454e-13 2.6936740962994935e-13
          2.5970998876156833e-13 2.644531801054516e-13 2.609207592423084e-13 2.598704684068586e-13 2.6078954474947034e-13 2.600095700443671e-13
          2.6056633862532316e-13 2.6045052747345084e-13 2.605278996609737e-13 2.605404956406645e-13 2.605246398929564e-13 2.605506131761426e-13
          1.9584293167794636e-11 2.0482840022718116e-11 1.0874340841623895e-11 1.0553768140872872e-11 2.094950300950178e-11 1.0871161078285414e-11
          1.7433304820451827e-11 8.984044779926118e-12 1.0190147376703416e-11 5.334661683439441e-12 5.6214521333496876e-12 3.045351234288074e-12
          4.50044673694915e-12 2.5419981132385854e-12 3.4209037645881325e-12 2.019088505935376e-12 2.9261683459439026e-12 1.67656544181848e-12
          1.7545151653766633e-12 1.0292825838599993e-12 5.029848866593364e-13 3.9065863891990015e-13 2.825699197950697e-13 2.72939390416987e-13
          2.648060559744225e-13 2.637328967991377e-13 2.6083834122915434e-13 2.6086833613211855e-13 2.6040425517860836e-13 2.6046293760931755e-13
          2.603661665985663e-13 2.6041837672829336e-13 1.2658416605296745e-12 1.5232431139511087e-12 7.928191470690507e-13 5.347847394004081e-13
          4.791759901754663e-13 4.692503352264597e-13 5.835494895280215e-13 6.172732472826195e-13 4.269625376930577e-13 3.0405000234333523e-13
          2.78332391180464e-13 2.633088610389043e-13 2.6265973762385294e-13 2.6089833103508276e-13 2.6052162004002665e-13 2.6047058685802044e-13
          1.0282644465281692e-10 1.0355358348312916e-10 5.5882199140665464e-11 5.622594951667116e-11 9.870145370268263e-11 5.2037414347053845e-11
          7.754483215376665e-11 4.046127241393416e-11 4.329175331458326e-11 2.2920208620666834e-11 2.255940292976937e-11 1.2369262195264684e-11
          1.7648778820414654e-11 1.005987877918997e-11 1.3334925502663065e-11 7.90382761987035e-12 1.1435970685714321e-11 6.472425112920384e-12
          6.617065919257781e-12 3.721990610573278e-12 1.3112648147922313e-12 9.040987974652252e-13 3.0941183966908157e-13 2.901489460685253e-13
          2.452050208660312e-13 2.504027137434884e-13 2.587114447610603e-13 2.5890543660039064e-13 2.6085031821983077e-13 2.606613325379156e-13
          2.611314613304995e-13 2.609161978727876e-13 8.210814798201764e-12 9.625454380525405e-12 5.3733749914250554e-12 3.3777126741016634e-12
          2.5486639267504047e-12 2.179121460759996e-12 2.4709787379652864e-12 2.4727297370776362e-12 1.5088795401264482e-12 8.269153018887739e-13
          4.96932780138219e-13 2.708860524679691e-13 2.5560040662094565e-13 2.5909942843972097e-13 2.6047234685600033e-13 2.6070093441507567e-13
          5.279646597934872e-10 5.170969214753062e-10 2.838751123355365e-10 2.9308315382369073e-10 4.6564726433290754e-10 2.5025869749096255e-10
          3.478333645651208e-10 1.850556240665513e-10 1.861246696746556e-10 1.0089051861177558e-10 9.05792620049474e-11 5.139539613578088e-11
          6.851077482694139e-11 4.0341152160313735e-11 5.192326128373842e-11 3.164767824123665e-11 4.487946284447808e-11 2.5899222417259743e-11
          2.5628555709400565e-11 1.4639361460212035e-11 4.5292670595459345e-12 3.1347631991125423e-12 8.134305427488697e-13 6.335793048518401e-13
          3.4120503804424575e-13 3.1921933396686467e-13 2.7130705475898044e-13 2.6948012738475504e-13 2.607378918852591e-13 2.6091154118692087e-13
          2.5921785836078777e-13 2.596599897387102e-13 5.0653303195766704e-11 5.820164785389423e-11 3.487013064901757e-11 2.2277883567981883e-11
          1.5656367548895594e-11 1.221153026661436e-11 1.2171529493686091e-11 1.1372095198734882e-11 6.9189819900414054e-12 3.650167211023503e-12
          1.7402593386791501e-12 4.537280669548105e-13 2.972336298894837e-13 2.676532000105296e-13 2.6108519048858265e-13 2.6010212111663263e-13
          2.6706344494162004e-9 2.561410417376617e-9 1.429435548707069e-9 1.5041742709602783e-9 2.2034298334129596e-9 1.207305476996318e-9
          1.5763062470311338e-9 8.566150154627792e-10 8.146390714312882e-10 4.5364704252194447e-10 3.67177538748052e-10 2.1748509824878593e-10
          2.631610080749346e-10 1.619424205885015e-10 2.0247380476961468e-10 1.2775861765350668e-10 1.7713309364634454e-10 1.0474155040611936e-10
          1.0053381772416572e-10 5.877837266366233e-11 1.6614490336741475e-11 1.2162265094951207e-11 2.838372818299675e-12 2.1424722833683867e-12
          5.608031089054659e-13 4.5088581222462854e-13 2.4081796739283594e-13 2.476601954938524e-13 2.5646020508438106e-13 2.559966387296933e-13
          2.6193697816624626e-13 2.5997664852507704e-13 2.9746068003752133e-10 3.377140925043567e-10 2.1118112057967612e-10 1.3692378389442491e-10
          9.265501361260074e-11 6.779265774951986e-11 6.072383310206845e-11 5.304343053739862e-11 3.235000716589422e-11 1.702292760315894e-11
          7.710039853160937e-12 1.4465717484370987e-12 3.4096851554379116e-13 2.545024235948689e-13 2.555330723750055e-13 2.580163188839079e-13
          1.3371097625000155e-8 1.262002647938775e-8 7.155028612889179e-9 7.637722959043947e-9 1.0463804104369556e-8 5.843174775799865e-9
          7.21948354200736e-9 4.009582992622554e-9 3.6281945068143315e-9 2.078328895313429e-9 1.501856781151678e-9 9.356422406012128e-10
          9.938917296560432e-10 6.490100414532041e-10 7.881933903829446e-10 5.189995124886767e-10 7.03987787781694e-10 4.280786052980523e-10
          3.9732755337849126e-10 2.3865380358031487e-10 6.106895820905251e-11 4.840755265916291e-11 1.1109745260526908e-11 8.876546890829526e-12
          1.6900307463906103e-9 1.9043482930877366e-9 1.2225454472301759e-9 7.996824432377478e-10 5.28463283812526e-10 3.694277000507479e-10
          3.0412835325036533e-10 2.498056345944089e-10 1.5216942281441062e-10 7.998005378213851e-11 3.574614710927331e-11 6.6433485211321446e-12
          6.650395781596355e-8 6.199283665299136e-8 3.568751365859394e-8 3.8511715520812805e-8 4.990416481094876e-8 2.8387132627343422e-8
          3.3427461679827807e-8 1.8973501010918418e-8 1.650666495310897e-8 9.723254606854176e-9 6.36316581404434e-9 4.174915368041936e-9
          3.786327152334242e-9 2.65742480260143e-9 3.0975274775551264e-9 2.142516781196022e-9 2.8319846376491415e-9 1.7761475571979327e-9
          1.5865530689514029e-9 9.823468245012455e-10 9.382190664196517e-9 1.0519473225662058e-8 6.870100443738085e-9 4.51954034200903e-9
          2.939844260599381e-9 1.986664922039532e-9 1.5285224528686191e-9 1.1875060848369176e-9 7.203104767467242e-10 3.7814058005108817e-10
          3.1638210975304327e-7 2.9130724711407135e-7 1.6923754647745693e-7 1.8473722527638488e-7 2.2686466437695898e-7 1.3042575580405232e-7
          1.449634662314058e-7 8.319514430678049e-8 3.4391736231710174e-8 7.278902207255091e-9 4.930495869708524e-9 4.5556945173191005e-9
          1.027691326730773e-8 3.959644551442759e-9 1.7619439387922208e-9 1.8545077215064382e-9 4.716784584084241e-8 5.3092340799726533e-8
          3.398684723114565e-8 2.1426822382155187e-8 1.2874669112130225e-8 7.978474563216287e-9 6.106146551121087e-9 5.577515260108872e-9
          4.236551675835928e-9 2.1010738946147164e-9 7.437966452700349e-7 7.261759241831455e-7 4.629430953275777e-7 4.894549241765404e-7
          6.938722600295359e-7 3.965201414788445e-7 6.489740546635717e-7 2.7459664639525235e-7 4.2138261099173394e-8 9.839606890885065e-9
          3.972577636506667e-7 4.272519466893556e-7 3.217111248528049e-7 1.490107580747699e-7 2.0775206281078887e-9 9.781900190460148e-7
          9.005043549387866e-8 8.568631248557134e-7 8.756118053968571e-7 1.055465310978029e-7 8.197520894507335e-7 1.2936461791159576e-7
          7.025652480369897e-7 7.160720405846228e-7 7.661251427615024e-7 5.87105705329433e-7 2.739559326524665e-7 8.99280751269591e-10
          3.139293145498959e-8 1.518135198720472e-7 1.0449917974753011e-8 2.911378186219104e-8 1.0134948925102572e-8 4.217080292601605e-9
          4.7137151234635565e-9 4.001007098392665e-9 5.158898862204483e-10 3.9689309821844013e-10 8.310996376349997e-10 3.093795802961066e-9
          1.329760792401105e-9 1.18372908570673e-9 2.7786619482928847e-9 2.7789631021643185e-10 1.037697379012355e-9 2.463528093624703e-9
          2.008682846964228e-9 2.5000191443168866e-9 7.382832608405364e-10 2.9913554416695452e-9 8.477029342305844e-10 1.0227822380775676e-9
          2.6194213037923026e-10 4.2809407878381144e-10 1.197861541924551e-9 5.942460271883926e-10 7.069446174305507e-9 4.395431484408308e-9
          9.420798377503457e-9 5.1099383153106115e-8 2.168686375270019e-8 1.3798929282281109e-8 3.0690144648531046e-8 1.7214167945111076e-9
          5.9109948118620255e-9 1.028090614395598e-8 9.668187186964395e-7 7.73548959878793e-7 7.73414202136353e-7 9.718714823943388e-7
          7.613883583259604e-7 7.715427421216369e-7 8.775292228377331e-7 7.751971276395974e-7 5.631645972731143e-7 6.745172974481935e-7
          5.802792010611465e-7 7.840621232013321e-7 7.831869632811276e-7 7.876519197938722e-7 5.478620393786425e-7 7.717430835347879e-7
          9.816442435391133e-7 5.749096497027951e-7 9.878450453415177e-7 9.90463209080263e-7 7.827085733463104e-7 5.8046172061431e-7
          6.876798108523566e-7 7.939914044204515e-7 6.019331514823783e-7 7.04871876667012e-7 5.749539376123577e-7 7.977363551204451e-7
          8.119233880339169e-7 9.539914305502433e-8 5.946433214600148e-7 6.189895129275858e-7 0.0000010205187726285325 0.0000010415627297801446
          8.032047313166702e-7 6.241239456890027e-7 7.214355420137395e-7 8.084759163839537e-7 6.462244217895986e-7 7.358301914553636e-7
          5.648467328531955e-7 8.243626372473498e-7 5.750728915516574e-7 1.1702580694918376e-7 6.444435066680198e-7 6.698664682590408e-7
          0.000001083878541641504 0.0000010790497042597925 8.063726457147271e-7 6.676695112810767e-7 6.208947586461496e-7 2.848516584979045e-7
          3.1783318405451053e-7 1.4301891052846484e-7 4.529547370134814e-7 3.5948927617533954e-7 2.3543893994091933e-8 2.900003654087472e-8
          3.990111420207929e-8 4.4195489736987684e-8 1.108005816203674e-8 1.8496416125950728e-8 2.8606233974265425e-8 5.625833441006664e-8
          5.939094293310065e-8 2.591277408986472e-8 1.4107709522537227e-7 1.379418655279607e-7 1.2899598229691082e-7 1.2563001828810924e-7
          1.226182075911535e-7 1.3003863864941307e-7 1.2715456217879833e-7 1.51802647557375e-7 1.218175026109266e-7 1.3645520522185377e-7
          1.3480663583054915e-7 1.3745906970767263e-7 1.286791060694874e-7 1.5109290783278092e-7 1.0415931995693474e-7 1.221354117708654e-7
          1.2531314206068583e-7 1.2110776288633256e-7 1.4011150358479605e-7 1.6260832258157039e-7 1.6032747750631684e-7 1.2690013116471985e-7
          1.4321363307016945e-7 1.6762177811831537e-7 1.3292968760169077e-7 1.498526423957881e-7 1.5804663243106327e-7 1.5952713497561907e-7
          1.6677559718988536e-7 9.119193974786932e-8 1.2609978863402208e-7 1.320835066732608e-7 1.6100763752017483e-7 1.786404411119312e-7
          1.751877860261382e-7 1.3946056816180301e-7 1.5688995169626993e-7 1.8321901043738222e-7 1.4643916385872813e-7 1.643912760639262e-7
          1.717351309403452e-7 1.7431933523073682e-7 1.823433882691243e-7 1.0028069521167483e-7 1.3859211736640163e-7 1.4556354169047015e-7
          1.7690353952112842e-7 1.9664038082188906e-7 1.9180597013024904e-7 1.5389151384529602e-7 1.724136325690111e-7 2.010696626889873e-7
          1.618554842735222e-7 1.8104340100542346e-7 1.8697155943860904e-7 1.9093575129272618e-7 2.0023131773732476e-7 1.1114264686870298e-7
          1.5302129500777318e-7 1.610171393218597e-7 1.948999431468433e-7 2.1758449157574365e-7 2.1114006218399544e-7 1.70357456495349e-7
          1.903676873694057e-7 2.2214692296782685e-7 1.7939627216796264e-7 2.0047209670577718e-7 2.046956327922473e-7 2.103779182434624e-7
          2.215479212435917e-7 1.2313042141495436e-7 1.6959531255481595e-7 1.787972704437275e-7 2.1606020369467751e-7 2.4229831683588353e-7
          2.3424403131729438e-7 1.889414906511625e-7 2.1144512893837064e-7 2.469965420043874e-7 1.9965411441541287e-7 2.220602458266706e-7
          2.2618974579870523e-7 2.3394876722557882e-7 2.1767269196362723e-7 1.3558466446644143e-7 1.886462265594469e-7 1.9712394964895375e-7
          2.4170778865245236e-7 2.716272227456608e-7 2.605170064947715e-7 2.1202696602667837e-7 2.3209003396383347e-7 2.1302136401745114e-7
          1.5242670930769588e-7 2.036630614328955e-7 2.2601737359341144e-7 1.7925657318131465e-12 1.1682069608902995e-12 4.653647705761143e-13
          4.077995717621763e-13 3.3001813578029264e-13 3.098303205142104e-13 3.1125371804659925e-13 2.957573651247511e-13 5.438481899674523e-13
          3.502343729482384e-13 2.896425052481281e-13 2.802610122029029e-13 2.259325900086792e-10 1.971378647934472e-10 4.4729115160076305e-11
          4.006046526764916e-11 6.04637295333071e-12 4.588686337163309e-12 1.6834313957821524e-10 3.5391815375222026e-11 3.1309997209959088e-12
          2.9160435724522923e-10 4.405691607011843e-10 6.183230073940965e-10 1.8326518756542985e-9 5.638486896739316e-10 1.9864247067429826e-10
          6.522718354176608e-10 6.054421930202069e-10 5.586125506227529e-10 2.054436475450592e-9 4.686177605999361e-10 1.8563956423081287e-9
          5.409233182147407e-10 2.1205309392847333e-10 6.132288758295453e-10 2.5521488018106396e-10
        </DataArray>
        <DataArray type="Float64" Name="gradient_matprop_error" format="ascii" RangeMin="0" RangeMax="0">
          0 0 0 0 0 0
          0 0 0 0 0 0
          0 0 0 0 0 0
          0 0 0 0 0 0
          0 0 0 0 0 0
          0 0 0 0 0 0
          0 0 0 0 0 0
          0 0 0 0 0 0
          0 0 0 0 0 0
          0 0 0 0 0 0
          0 0 0 0 0 0
          0 0 0 0 0 0
          0 0 0 0 0 0
          0 0 0 0 0 0
          0 0 0 0 0 0
          0 0 0 0 0 0
          0 0 0 0 0 0
          0 0 0 0 0 0
          0 0 0 0 0 0
          0 0 0 0 0 0
          0 0 0 0 0 0
          0 0 0 0 0 0
          0 0 0 0 0 0
          0 0 0 0 0 0
          0 0 0 0 0 0
          0 0 0 0 0 0
          0 0 0 0 0 0
          0 0 0 0 0 0
          0 0 0 0 0 0
          0 0 0 0 0 0
          0 0 0 0 0 0
          0 0 0 0 0 0
          0 0 0 0 0 0
          0 0 0 0 0 0
          0 0 0 0 0 0
          0 0 0 0 0 0
          0 0 0 0 0 0
          0 0 0 0 0 0
          0 0 0 0 0 0
          0 0 0 0 0 0
          0 0 0 0 0 0
          0 0 0 0 0 0
          0 0 0 0 0 0
          0 0 0 0 0 0
          0 0 0 0 0 0
          0 0 0 0 0 0
          0 0 0 0 0 0
          0 0 0 0 0 0
          0 0 0 0 0 0
          0 0 0 0 0 0
          0 0 0 0 0 0
          0 0 0 0 0 0
          0 0 0 0 0 0
          0 0 0 0 0 0
          0 0 0 0 0 0
          0 0 0 0 0 0
          0 0 0 0 0 0
          0 0 0 0 0 0
          0 0 0 0 0 0
          0 0 0 0 0 0
          0 0 0 0 0 0
          0 0 0 0 0 0
          0 0 0 0 0 0
          0 0 0 0 0 0
          0 0 0 0 0 0
          0 0 0 0 0 0
          0 0 0 0 0 0
          0 0 0 0 0 0
          0 0 0 0 0 0
          0 0 0 0 0 0
          0 0 0 0 0 0
          0 0 0 0 0 0
          0 0 0 0 0 0
          0 0 0 0 0 0
          0 0 0 0 0 0
          0 0 0 0 0 0
          0 0 0 0 0 0
          0 0 0 0 0 0
          0 0 0 0 0 0
          0 0 0 0 0 0
          0 0 0 0 0 0
          0 0 0 0 0 0
          0 0 0 0 0 0
          0 0 0 0 0 0
          0 0 0 0 0 0
          0 0 0 0 0 0
          0 0 0 0 0 0
          0 0 0 0 0 0
          0 0 0 0 0 0
          0 0 0 0 0 0
          0 0 0 0 0 0
          0 0 0 0 0 0
          0 0 0 0 0 0
          0 0 0 0 0 0
          0 0 0 0 0 0
          0 0 0 0 0 0
          0 0 0 0 0 0
          0 0 0 0 0 0
          0 0 0 0 0 0
          0 0 0 0 0 0
          0 0 0 0 0 0
          0 0 0 0 0 0
          0 0 0 0 0 0
          0 0 0 0 0 0
          0 0 0 0 0 0
          0 0 0 0 0 0
          0 0 0 0 0 0
          0 0 0 0
        </DataArray>
        <DataArray type="Float64" Name="initial_marker" format="ascii" RangeMin="0" RangeMax="0">
          0 0 0 0 0 0
          0 0 0 0 0 0
          0 0 0 0 0 0
          0 0 0 0 0 0
          0 0 0 0 0 0
          0 0 0 0 0 0
          0 0 0 0 0 0
          0 0 0 0 0 0
          0 0 0 0 0 0
          0 0 0 0 0 0
          0 0 0 0 0 0
          0 0 0 0 0 0
          0 0 0 0 0 0
          0 0 0 0 0 0
          0 0 0 0 0 0
          0 0 0 0 0 0
          0 0 0 0 0 0
          0 0 0 0 0 0
          0 0 0 0 0 0
          0 0 0 0 0 0
          0 0 0 0 0 0
          0 0 0 0 0 0
          0 0 0 0 0 0
          0 0 0 0 0 0
          0 0 0 0 0 0
          0 0 0 0 0 0
          0 0 0 0 0 0
          0 0 0 0 0 0
          0 0 0 0 0 0
          0 0 0 0 0 0
          0 0 0 0 0 0
          0 0 0 0 0 0
          0 0 0 0 0 0
          0 0 0 0 0 0
          0 0 0 0 0 0
          0 0 0 0 0 0
          0 0 0 0 0 0
          0 0 0 0 0 0
          0 0 0 0 0 0
          0 0 0 0 0 0
          0 0 0 0 0 0
          0 0 0 0 0 0
          0 0 0 0 0 0
          0 0 0 0 0 0
          0 0 0 0 0 0
          0 0 0 0 0 0
          0 0 0 0 0 0
          0 0 0 0 0 0
          0 0 0 0 0 0
          0 0 0 0 0 0
          0 0 0 0 0 0
          0 0 0 0 0 0
          0 0 0 0 0 0
          0 0 0 0 0 0
          0 0 0 0 0 0
          0 0 0 0 0 0
          0 0 0 0 0 0
          0 0 0 0 0 0
          0 0 0 0 0 0
          0 0 0 0 0 0
          0 0 0 0 0 0
          0 0 0 0 0 0
          0 0 0 0 0 0
          0 0 0 0 0 0
          0 0 0 0 0 0
          0 0 0 0 0 0
          0 0 0 0 0 0
          0 0 0 0 0 0
          0 0 0 0 0 0
          0 0 0 0 0 0
          0 0 0 0 0 0
          0 0 0 0 0 0
          0 0 0 0 0 0
          0 0 0 0 0 0
          0 0 0 0 0 0
          0 0 0 0 0 0
          0 0 0 0 0 0
          0 0 0 0 0 0
          0 0 0 0 0 0
          0 0 0 0 0 0
          0 0 0 0 0 0
          0 0 0 0 0 0
          0 0 0 0 0 0
          0 0 0 0 0 0
          0 0 0 0 0 0
          0 0 0 0 0 0
          0 0 0 0 0 0
          0 0 0 0 0 0
          0 0 0 0 0 0
          0 0 0 0 0 0
          0 0 0 0 0 0
          0 0 0 0 0 0
          0 0 0 0 0 0
          0 0 0 0 0 0
          0 0 0 0 0 0
          0 0 0 0 0 0
          0 0 0 0 0 0
          0 0 0 0 0 0
          0 0 0 0 0 0
          0 0 0 0 0 0
          0 0 0 0 0 0
          0 0 0 0 0 0
          0 0 0 0 0 0
          0 0 0 0 0 0
          0 0 0 0 0 0
          0 0 0 0 0 0
          0 0 0 0 0 0
          0 0 0 0
        </DataArray>
        <DataArray type="Float64" Name="markers_norefine" format="ascii" RangeMin="0" RangeMax="0">
          0 0 0 0 0 0
          0 0 0 0 0 0
          0 0 0 0 0 0
          0 0 0 0 0 0
          0 0 0 0 0 0
          0 0 0 0 0 0
          0 0 0 0 0 0
          0 0 0 0 0 0
          0 0 0 0 0 0
          0 0 0 0 0 0
          0 0 0 0 0 0
          0 0 0 0 0 0
          0 0 0 0 0 0
          0 0 0 0 0 0
          0 0 0 0 0 0
          0 0 0 0 0 0
          0 0 0 0 0 0
          0 0 0 0 0 0
          0 0 0 0 0 0
          0 0 0 0 0 0
          0 0 0 0 0 0
          0 0 0 0 0 0
          0 0 0 0 0 0
          0 0 0 0 0 0
          0 0 0 0 0 0
          0 0 0 0 0 0
          0 0 0 0 0 0
          0 0 0 0 0 0
          0 0 0 0 0 0
          0 0 0 0 0 0
          0 0 0 0 0 0
          0 0 0 0 0 0
          0 0 0 0 0 0
          0 0 0 0 0 0
          0 0 0 0 0 0
          0 0 0 0 0 0
          0 0 0 0 0 0
          0 0 0 0 0 0
          0 0 0 0 0 0
          0 0 0 0 0 0
          0 0 0 0 0 0
          0 0 0 0 0 0
          0 0 0 0 0 0
          0 0 0 0 0 0
          0 0 0 0 0 0
          0 0 0 0 0 0
          0 0 0 0 0 0
          0 0 0 0 0 0
          0 0 0 0 0 0
          0 0 0 0 0 0
          0 0 0 0 0 0
          0 0 0 0 0 0
          0 0 0 0 0 0
          0 0 0 0 0 0
          0 0 0 0 0 0
          0 0 0 0 0 0
          0 0 0 0 0 0
          0 0 0 0 0 0
          0 0 0 0 0 0
          0 0 0 0 0 0
          0 0 0 0 0 0
          0 0 0 0 0 0
          0 0 0 0 0 0
          0 0 0 0 0 0
          0 0 0 0 0 0
          0 0 0 0 0 0
          0 0 0 0 0 0
          0 0 0 0 0 0
          0 0 0 0 0 0
          0 0 0 0 0 0
          0 0 0 0 0 0
          0 0 0 0 0 0
          0 0 0 0 0 0
          0 0 0 0 0 0
          0 0 0 0 0 0
          0 0 0 0 0 0
          0 0 0 0 0 0
          0 0 0 0 0 0
          0 0 0 0 0 0
          0 0 0 0 0 0
          0 0 0 0 0 0
          0 0 0 0 0 0
          0 0 0 0 0 0
          0 0 0 0 0 0
          0 0 0 0 0 0
          0 0 0 0 0 0
          0 0 0 0 0 0
          0 0 0 0 0 0
          0 0 0 0 0 0
          0 0 0 0 0 0
          0 0 0 0 0 0
          0 0 0 0 0 0
          0 0 0 0 0 0
          0 0 0 0 0 0
          0 0 0 0 0 0
          0 0 0 0 0 0
          0 0 0 0 0 0
          0 0 0 0 0 0
          0 0 0 0 0 0
          0 0 0 0 0 0
          0 0 0 0 0 0
          0 0 0 0 0 0
          0 0 0 0 0 0
          0 0 0 0 0 0
          0 0 0 0 0 0
          0 0 0 0 0 0
          0 0 0 0 0 0
          0 0 0 0
        </DataArray>
        <DataArray type="Float64" Name="markers_mustrefine" format="ascii" RangeMin="0" RangeMax="0">
          0 0 0 0 0 0
          0 0 0 0 0 0
          0 0 0 0 0 0
          0 0 0 0 0 0
          0 0 0 0 0 0
          0 0 0 0 0 0
          0 0 0 0 0 0
          0 0 0 0 0 0
          0 0 0 0 0 0
          0 0 0 0 0 0
          0 0 0 0 0 0
          0 0 0 0 0 0
          0 0 0 0 0 0
          0 0 0 0 0 0
          0 0 0 0 0 0
          0 0 0 0 0 0
          0 0 0 0 0 0
          0 0 0 0 0 0