<?xml version="1.0"?>
<VTKFile type="UnstructuredGrid" version="0.1" byte_order="LittleEndian" header_type="UInt32" compressor="vtkZLibDataCompressor">
  <UnstructuredGrid>
    <Piece NumberOfPoints="600" NumberOfCells="340">
      <PointData>
        <DataArray type="Int32" Name="libmesh_node_id" format="ascii" RangeMin="453" RangeMax="3041">
          500 552 559 654 655 656
          657 658 659 660 661 662
          663 826 827 830 831 833
          835 1037 1038 1041 1042 1044
          1045 1046 1047 1048 1050 1051
          1052 1054 1055 1060 1061 1064
          1067 1069 1070 1071 1072 1073
          1074 1075 1076 1077 1078 1081
          1082 1083 1084 1085 1087 1088
          1089 1090 1091 1092 1093 1094
          1095 1096 1097 1098 1101 1102
          1107 1109 1110 1112 1128 1131
          1136 1147 1148 1154 1425 1426
          1427 1428 1429 1549 1550 1551
          1552 1553 1572 1573 1574 1577
          1580 1590 1591 1594 1596 1610
          1611 1613 1616 1626 1628 1630
          1632 1633 1634 1635 1636 1637
          1638 1639 1640 1641 1642 1643
          1644 1645 1646 1647 1648 1649
          1650 1651 1652 1653 1654 1655
          1656 1657 1658 1659 1660 1661
          1662 1663 1664 1665 1666 1667
          1668 1669 1670 1671 1672 1673
          1674 1675 1676 1677 1678 1679
          1680 1681 1682 1683 1684 1685
          1686 1687 1688 1689 1690 1691
          1692 1693 1694 1695 1696 1697
          1698 1699 1700 1701 1702 1703
          1704 1705 1706 1707 1708 1709
          1710 1711 1712 1739 1740 1741
          1742 1743 1744 1745 1746 1748
          1759 1760 1761 1762 1763 1764
          1765 1766 1767 1768 1779 1780
          1783 1785 1786 1788 1799 1800
          1801 1802 1803 1804 1805 2536
          2537 2538 2539 2540 2541 2542
          2543 2605 2606 2607 2608 2609
          2610 2611 2612 2613 2614 2615
          2616 2620 2621 2622 2623 2624
          2625 2626 2639 2640 2641 2642
          2645 2646 2654 2655 2656 2657
          2658 2659 2660 2661 2662 2663
          2664 2665 2666 2667 2668 2669
          2670 2671 2672 2673 2674 2675
          2676 2677 2678 2679 2680 2681
          2682 2683 2684 2685 2686 2687
          2688 2689 2690 2691 2692 2693
          2694 2695 2696 2697 2698 2699
          2700 2701 2702 2703 2704 2705
          2706 2707 2708 2709 2710 2711
          2712 2713 2714 2715 2716 2717
          2718 2719 2720 2721 2722 2723
          2724 2725 2726 2727 2728 2729
          2730 2731 2732 2733 2734 2735
          2736 2737 2738 2739 2740 2741
          2742 2743 2744 2745 2746 2747
          2748 2749 2750 2751 2752 2753
          2754 2755 2756 2757 2758 2759
          2760 2761 2762 2763 2764 2765
          2766 2767 2768 2769 2770 2771
          2772 2773 2774 2775 2776 2777
          2778 2779 2780 2781 2782 2783
          2784 2785 2786 2787 2788 2789
          2790 2791 2792 2793 2794 2795
          2796 2797 2798 2799 2800 2801
          2802 2803 2804 2805 2806 2807
          2808 2809 2810 2811 2812 2813
          2814 2815 2816 2817 2818 2819
          2820 2821 2822 2823 2824 2825
          2826 2827 2828 2829 2830 2831
          2832 2833 2834 2835 2836 2837
          2838 2839 2840 2841 2842 2843
          2844 2845 2846 2847 2848 2858
          2859 2860 2861 2866 2867 2868
          2886 2887 2888 2889 2890 2891
          2892 2893 2894 2895 2906 2907
          2908 2909 2910 2911 2912 2920
          2921 2922 2923 2924 2925 2926
          2927 2928 2929 2940 2941 2942
          2943 2944 2945 2946 3022 3023
          3024 3025 3027 3028 3029 3030
          3031 3032 3033 3034 3035 3037
          3039 3041 548 551 453 554
          550 553 556 555 651 653
          761 759 560 501 766 765
          806 810 811 807 650 808
          813 814 640 815 818 645
          819 828 829 822 832 558
          824 834 1039 1040 1043 1049
          652 1053 1062 1079 1063 1080
          1029 1030 1033 1068 1086 1035
          1421 1423 1422 1424 1411 1412
          1416 1568 1569 1570 1571 1575
          1576 1578 1579 1581 1588 1589
          1592 1593 1595 1597 1612 1625
          1627 1617 1629 1631 2534 2597
          2598 2600 1608 2603 1609 2618
          2629 2637 2638 2630 2632 2643
          2644 2635 1615 2648 2650 2652
        </DataArray>
        <DataArray type="Float64" Name="bounds" format="ascii" RangeMin="0" RangeMax="0">
          0 0 0 0 0 0
          0 0 0 0 0 0
          0 0 0 0 0 0
          0 0 0 0 0 0
          0 0 0 0 0 0
          0 0 0 0 0 0
          0 0 0 0 0 0
          0 0 0 0 0 0
          0 0 0 0 0 0
          0 0 0 0 0 0
          0 0 0 0 0 0
          0 0 0 0 0 0
          0 0 0 0 0 0
          0 0 0 0 0 0
          0 0 0 0 0 0
          0 0 0 0 0 0
          0 0 0 0 0 0
          0 0 0 0 0 0
          0 0 0 0 0 0
          0 0 0 0 0 0
          0 0 0 0 0 0
          0 0 0 0 0 0
          0 0 0 0 0 0
          0 0 0 0 0 0
          0 0 0 0 0 0
          0 0 0 0 0 0
          0 0 0 0 0 0
          0 0 0 0 0 0
          0 0 0 0 0 0
          0 0 0 0 0 0
          0 0 0 0 0 0
          0 0 0 0 0 0
          0 0 0 0 0 0
          0 0 0 0 0 0
          0 0 0 0 0 0
          0 0 0 0 0 0
          0 0 0 0 0 0
          0 0 0 0 0 0
          0 0 0 0 0 0
          0 0 0 0 0 0
          0 0 0 0 0 0
          0 0 0 0 0 0
          0 0 0 0 0 0
          0 0 0 0 0 0
          0 0 0 0 0 0
          0 0 0 0 0 0
          0 0 0 0 0 0
          0 0 0 0 0 0
          0 0 0 0 0 0
          0 0 0 0 0 0
          0 0 0 0 0 0
          0 0 0 0 0 0
          0 0 0 0 0 0
          0 0 0 0 0 0
          0 0 0 0 0 0
          0 0 0 0 0 0
          0 0 0 0 0 0
          0 0 0 0 0 0
          0 0 0 0 0 0
          0 0 0 0 0 0
          0 0 0 0 0 0
          0 0 0 0 0 0
          0 0 0 0 0 0
          0 0 0 0 0 0
          0 0 0 0 0 0
          0 0 0 0 0 0
          0 0 0 0 0 0
          0 0 0 0 0 0
          0 0 0 0 0 0
          0 0 0 0 0 0
          0 0 0 0 0 0
          0 0 0 0 0 0
          0 0 0 0 0 0
          0 0 0 0 0 0
          0 0 0 0 0 0
          0 0 0 0 0 0
          0 0 0 0 0 0
          0 0 0 0 0 0
          0 0 0 0 0 0
          0 0 0 0 0 0
          0 0 0 0 0 0
          0 0 0 0 0 0
          0 0 0 0 0 0
          0 0 0 0 0 0
          0 0 0 0 0 0
          0 0 0 0 0 0
          0 0 0 0 0 0
          0 0 0 0 0 0
          0 0 0 0 0 0
          0 0 0 0 0 0
          0 0 0 0 0 0
          0 0 0 0 0 0
          0 0 0 0 0 0
          0 0 0 0 0 0
          0 0 0 0 0 0
          0 0 0 0 0 0
          0 0 0 0 0 0
          0 0 0 0 0 0
          0 0 0 0 0 0
          0 0 0 0 0 0
        </DataArray>
        <DataArray type="Float64" Name="gradient_error" format="ascii" RangeMin="5.409233182147407e-10" RangeMax="1.5264388498954444e-7">
          4.03552628686799e-9 1.344177615189837e-8 2.2885915681911133e-8 4.1999265317661866e-8 1.0546927562549543e-7 9.309924582548107e-8
          3.520904319158608e-8 4.505342602912362e-8 4.29780812749317e-8 1.3256767313225113e-9 1.4680249484186656e-7 1.4605374626903233e-7
          4.4594241517888566e-8 4.119331157025161e-9 1.0947982084969881e-8 1.3319183552417997e-9 2.165292693822718e-9 1.77766330129146e-8
          2.9986670324036356e-9 2.360726666380483e-8 2.4381343707612643e-8 9.925136165306695e-8 8.334001141235694e-8 1.654653813546418e-8
          8.292149905565119e-8 6.877614410239384e-8 2.5155420751420455e-8 6.742866117164694e-8 5.463078914913649e-8 1.1644898746135288e-7
          9.422256528661564e-8 8.338219456238816e-8 9.353282902058303e-8 3.567008851081968e-8 4.640044079428334e-8 1.2038459971850674e-7
          3.3443772343515845e-8 4.225617660727639e-8 5.3694227721891843e-8 5.0704118237491726e-8 6.182331528315124e-8 1.1821410581382776e-7
          1.113689379699896e-7 2.4546939788297974e-9 2.2676297649841536e-8 8.885879167284451e-9 1.4889757493201926e-7 7.731513258676095e-8
          1.2192970084682556e-7 3.904268250324876e-8 5.9522038663585246e-8 4.9794783680849554e-8 1.465529919238873e-7 6.842510563517614e-8
          8.70200487889403e-8 1.1262270735675721e-7 7.394261696495994e-8 9.928881296305559e-8 3.40982304269279e-8 3.893614552199878e-8
          2.8008879552831423e-8 1.382253659245741e-7 1.2463500896115124e-7 4.377406061706966e-8 6.40092945222039e-8 5.2489255520234454e-8
          4.0969216518265e-8 8.856706485574898e-8 6.836336443145332e-8 6.454212742254534e-8 6.893033952195866e-8 9.863074304227159e-8
          1.3540176731758983e-7 5.8820662154730055e-8 8.219078720437041e-8 1.0556091225401078e-7 1.935955530452255e-8 2.8346066762638885e-8
          1.2308899720785944e-8 1.988764651764456e-8 1.9617872336621223e-8 5.943420636202047e-8 5.583313048094397e-8 5.473089052070927e-8
          5.611168547223448e-8 4.6305830848409683e-8 5.109904145099024e-8 5.8887097870620205e-8 5.702727992731546e-8 5.131317507162397e-8
          3.5275758187603226e-8 3.635263500645141e-8 4.221515314170701e-8 3.6971418124176785e-8 5.238002459348105e-8 2.98460874337947e-9
          4.586678952927972e-9 3.4133267436885235e-8 2.2271639307435927e-9 5.7847362585420394e-8 5.447842438638238e-8 5.9012347260841295e-8
          5.602709075511319e-8 5.3067730253529795e-8 6.289875806197466e-8 6.067599318211541e-8 6.716576566568235e-8 6.447055829389233e-8
          4.545221004607248e-8 5.3870018933272844e-8 5.63103191339547e-8 3.876251049878589e-8 3.829360689823974e-8 4.165571942300072e-8
          4.995037143671886e-8 7.154980895556715e-8 6.827560886571119e-8 7.571998270730015e-8 7.180499386416097e-8 5.851694551333314e-8
          6.026436831734252e-8 4.6227202396089784e-8 4.535052547282299e-8 4.928497678564695e-8 5.767829647483774e-8 3.637574484891452e-8
          4.323682312496605e-8 3.589417923507059e-8 4.3867894628974074e-8 3.195543935763048e-8 3.718683668564259e-8 3.689050191214104e-8
          5.5392743665302914e-8 5.839531888887732e-8 4.850574507210381e-8 3.498620755869045e-8 4.411336231771894e-8 3.356460737338992e-8
          4.3823652634502856e-8 2.9592808020429003e-8 3.619424238462683e-8 3.500857365534248e-8 6.133470189708734e-8 6.407043789913991e-8
          5.141631245409418e-8 3.3938791365362343e-9 4.720525196900109e-9 4.263733774134395e-9 5.265553933026996e-9 3.7077299403683417e-8
          3.200586618347267e-8 1.8476384567917734e-9 2.7738637878388524e-9 3.6121525397599294e-9 3.6159588151587275e-8 5.5439101461344785e-9
          6.275312801889137e-9 7.1393256104732595e-9 7.741871697658352e-9 2.6611077614628706e-8 2.9119374320360283e-8 3.184163039946815e-9
          4.709044964417712e-9 6.030992828905561e-9 7.958430264839352e-9 6.219329051058401e-8 5.8599996343457084e-8 5.776486478625755e-8
          6.126503899944027e-8 6.369899509157975e-8 5.2323998569717264e-8 6.093647344196217e-8 5.4690454669749965e-8 5.836610146703315e-8
          6.483054001149649e-8 6.800101733643964e-8 4.0029432194425116e-8 4.2811361864315805e-8 6.962413186362927e-8 5.949608074598208e-8
          5.533040808189462e-8 5.322108902460995e-8 4.437836655608754e-8 7.933133730239079e-8 7.469557855474064e-8 8.185917150741317e-8
          7.645115515918982e-8 6.126454442314163e-8 6.11812628464235e-8 5.5423038699861686e-8 5.326883926855545e-8 6.574559566279464e-8
          3.158834147029107e-8 4.2875866928140306e-8 2.9055738773111927e-8 4.1162598992426755e-8 2.5584685246214203e-8 3.3282464817087813e-8
          3.100581110297297e-8 6.628228063796398e-8 6.7564923392238e-8 5.216689027778173e-8 9.101324883650639e-9 9.616042526627206e-9
          3.1937774662464606e-8 4.994889584682197e-9 7.600653642298276e-9 1.0257576712403524e-8 6.172637588612892e-8 6.43095986627587e-8
          7.033338739802442e-8 7.141529099215082e-8 4.517530252862542e-8 4.6884046919668424e-8 7.731323862844679e-8 7.027354205026722e-9
          7.0619575007815404e-9 7.336610471147608e-9 7.225745325173217e-9 6.999451377643665e-9 7.26627772974921e-9 7.719371433413662e-9
          7.177625605688344e-9 5.588761304689768e-9 5.883635848359221e-9 5.635983669278814e-9 5.9333530614571704e-9 6.592858961170326e-9
          6.697275265330807e-9 2.9350020192626485e-9 3.3843586342309262e-9 3.367489104345785e-9 4.721550595930784e-9 6.952213685632626e-9
          6.948114281260495e-9 7.098842425943807e-9 7.38603220581082e-9 7.190477321575637e-9 7.608236334595557e-9 6.202490677071634e-9
          6.2366112649279515e-9 6.7955954114809064e-9 1.643938075026238e-9 1.8568704439951119e-9 2.818880396556927e-9 2.8009846387518523e-9
          1.5088583310653862e-9 2.1546321984197206e-9 4.968105600780502e-9 4.8997717694084796e-9 6.201838098357538e-9 6.267377074277239e-9
          4.46263696955614e-9 4.379013987169034e-9 6.015814411216193e-9 7.512251199892374e-9 7.613869945248908e-9 7.894506128302528e-9
          7.939853714371097e-9 7.974081255208597e-9 8.170623359788687e-9 8.445445022733918e-9 8.692072630333454e-9 8.10145150840177e-9
          8.507706560496486e-9 8.03868427866679e-9 8.944383166507126e-9 9.418478398562051e-9 8.87178653671612e-9 8.427997785030543e-9
          8.743742179837624e-9 9.122838519836987e-9 9.526097027017926e-9 9.318102440891426e-9 9.625472362255995e-9 1.0254823018521412e-8
          1.0491339439904176e-8 9.928351303730261e-9 1.047274193053692e-8 9.863995128069376e-9 1.1058413728063029e-8 1.169752861281138e-8
          1.106699085993827e-8 5.743683727140602e-9 6.044733883545863e-9 5.91160011582934e-9 6.2121226043652114e-9 6.863271455503111e-9
          7.068440298583603e-9 3.142197050014838e-9 3.4795882355757624e-9 3.6976522622702453e-9 4.604967214598545e-9 6.154816365288821e-9
          6.445572713157988e-9 6.49892403762622e-9 6.766084063511791e-9 7.325531062556833e-9 7.640682525341434e-9 3.766276263210312e-9
          4.025974558270036e-9 4.47424668695753e-9 4.937913457387159e-9 7.677684349493432e-9 7.995859192038788e-9 7.974609827931767e-9
          8.367482879811454e-9 6.34000244122678e-9 6.486253789126162e-9 7.28704987439316e-9 8.34496870711789e-9 8.727231126199373e-9
          8.77520435014927e-9 9.206341291113236e-9 6.6924257936346604e-9 6.9569745464934275e-9 7.794697525824763e-9 1.9468296469541583e-9
          2.153536104092064e-9 2.2833960634706017e-9 2.5031671083764503e-9 2.934886622233714e-9 3.1904956351251568e-9 1.584381448267471e-9
          1.8234935588754194e-9 2.1407687726403075e-9 2.446528011905464e-9 2.666812129412755e-9 2.903626749842537e-9 3.0838268077054805e-9
          3.351503039524684e-9 3.5423337703308943e-9 3.9815540670285574e-9 2.136623207773933e-9 2.475826449672292e-9 2.84123580942397e-9
          3.1678301206676815e-9 4.901798565487986e-9 4.987119889627137e-9 6.2940664477385135e-9 6.316186662286258e-9 4.377509439107505e-9
          4.485744024583038e-9 5.924568523887448e-9 5.167347444864567e-9 5.414979649409077e-9 6.390468719339665e-9 7.450343448567312e-9
          4.695397550188468e-9 4.951994059667991e-9 5.8701645506122255e-9 6.944693077055368e-9 7.1830086852276494e-9 7.49721050294861e-9
          7.706850447583113e-9 8.021761246956337e-9 8.488718092659957e-9 4.862831615134071e-9 5.036769228178411e-9 5.697880620637916e-9
          5.71007742661753e-9 8.166429757263249e-9 8.344877820329706e-9 8.948481842119722e-9 9.095544200166999e-9 9.04953106649764e-9
          9.702815036421897e-9 6.300963154351705e-9 6.447031445257192e-9 7.2884357057568516e-9 6.955977890704202e-9 9.1517054622809e-9
          9.628208161977472e-9 9.681212724049051e-9 1.0195470530852648e-8 7.284660670500747e-9 7.711001496705941e-9 8.783421499549667e-9
          1.0157751956095155e-8 1.0751512731290771e-8 1.0739767662591193e-8 1.1340001947952016e-8 8.238040844564224e-9 8.85905053834396e-9
          9.66049474473441e-9 3.5341708907571602e-9 3.8468508438038614e-9 4.033277784692152e-9 4.394237330366979e-9 4.513613406615295e-9
          5.132599039021814e-9 2.804066920326371e-9 3.242438421868572e-9 3.6835757947873647e-9 4.12449742689028e-9 4.590877862134089e-9
          4.998943413218922e-9 5.208569284062568e-9 5.668608935583062e-9 5.8245313292421684e-9 6.590378733292452e-9 3.59458648919984e-9
          4.16810721432688e-9 4.696611841465007e-9 5.344829570167039e-9 5.7208137203995285e-9 6.163071861216505e-9 8.073644286788977e-9
          8.396411229586098e-9 5.247365720629096e-9 5.687815122439152e-9 7.721371484267813e-9 6.765230802371795e-9 7.488642014279392e-9
          8.828420456783793e-9 9.334784380342684e-9 6.311470099742424e-9 7.064679801641023e-9 8.37237102908803e-9 9.317286085757512e-9
          9.411983564547075e-9 9.444997655602064e-9 9.506681043336639e-9 9.643672662110087e-9 1.0228470796995083e-8 9.65682748354955e-9
          1.0755594240623343e-8 1.1306440669497674e-8 1.0844155534808904e-8 9.668091901779916e-9 1.0167001445804757e-8 9.76282665440091e-9
          1.0357322952868504e-8 9.692511141449743e-9 1.0105532094614432e-8 9.868825825252267e-9 1.066044279675725e-8 1.1176255776668453e-8
          1.095245259050992e-8 1.1608117941728976e-8 1.0565291352891153e-8 1.1046070883839233e-8 1.1060749646210936e-8 1.079706321942737e-8
          1.099488340747383e-8 1.1830144525724679e-8 1.1732351671250294e-8 1.2383522619324633e-8 1.3102594983517654e-8 1.2495045491668968e-8
          9.831781187041822e-9 9.951833263839219e-9 1.0809803226503183e-8 1.0906441469290525e-8 1.0451741057134869e-8 1.1301596548058783e-8
          8.068660934168545e-9 8.228981821127329e-9 9.269483252813686e-9 8.62910612414093e-9 1.1420779709737406e-8 1.2167002409764874e-8
          1.2009962645841692e-8 1.2733891435490049e-8 9.588435047113611e-9 1.0429022320952749e-8 1.0748953230045123e-8 5.887571453801619e-9
          6.408263414214131e-9 6.628708219950485e-9 7.2165987124128126e-9 7.434690238900612e-9 8.353237554479687e-9 4.504320193922422e-9
          5.267346306378214e-9 5.876969332054623e-9 6.782298672538808e-9 8.314833527529903e-9 9.226789294711022e-9 9.936978566740505e-9
          1.0645451012480711e-8 7.910833760982761e-9 8.82694378352864e-9 9.512967188420534e-9 1.1879738812646975e-8 1.2482510876259977e-8
          1.2128539043221526e-8 1.3121833044994348e-8 1.3438407978032823e-8 1.1726040602414949e-8 1.2326478061060823e-8 1.2267366023234115e-8
          1.291364678249803e-8 1.1572342392182927e-8 1.2170445245861665e-8 1.2406193003246701e-8 1.2980778304301176e-8 1.3556118990978721e-8
          1.2839723563608006e-8 1.3673830003924619e-8 4.217080292601605e-9 2.054436475450592e-9 1.8326518756542985e-9 4.7137151234635565e-9
          1.4311087581637958e-8 3.6042396240936675e-8 1.8563956423081287e-9 4.001007098392665e-9 3.943410840147196e-8 1.0416400413693816e-7
          5.409233182147407e-10 1.0227822380775676e-9 3.1592160304895384e-9 1.2536418773378856e-9 6.132288758295453e-10 1.197861541924551e-9
          1.1300365622730946e-8 6.888608066661653e-9 5.656392193554639e-9 8.160485840421125e-9 2.687297258798683e-8 1.3030041733149395e-8
          5.020606058111305e-9 7.405574373740908e-9 2.929616886203999e-8 4.424176320447623e-9 1.1362171690556045e-8 4.1897233898340075e-8
          2.1783408488572682e-8 1.3253877879359259e-9 4.72971337116624e-9 3.187929709322966e-9 1.282975411907592e-9 6.912039320173566e-8
          3.220464528658932e-8 8.134038954396555e-9 3.2845758692635475e-8 1.1178485464486505e-7 9.499591573008149e-8 6.449607160641748e-8
          1.2175650389973409e-7 1.0078472454135604e-7 1.2970600439649935e-7 7.315652668041288e-8 1.5264388498954444e-7 1.2754791532182668e-7
          7.949454807149269e-8 1.3035024431770357e-7 6.79073154858568e-8 1.4135357603934024e-7 1.504747925477709e-7 1.512167949864544e-7
          3.1964392307220193e-8 1.925786647412794e-8 6.38238914478145e-8 3.047494086953565e-8 1.9777126779244764e-8 3.464126463663869e-8
          2.101978409395694e-8 5.116673235006708e-8 4.9086086643337804e-8 5.510857839885249e-8 5.353645593634921e-8 4.346192076350662e-8
          4.864889135955728e-8 3.2930211640855654e-8 3.8160096434212154e-8 4.8560269448129665e-8 3.6014985815242365e-8 4.079334608344214e-8
          3.211157104008002e-8 3.6253242921615646e-8 4.9286739565302155e-8 4.480416156315315e-8 3.7238586085388505e-8 5.3920208939056297e-8
          5.138344925436003e-8 3.105275218147617e-8 5.483864509915021e-8 5.355349018556505e-8 6.7920953596322845e-9 5.586815349990354e-9
          5.862365094048044e-9 6.410714255405409e-9 3.0186144542703447e-9 3.5178764282812393e-9 1.065941924481573e-8 5.99049953563398e-9
          1.2224214215554483e-9 1.374792068969831e-9 1.6390898794401096e-9 1.5683284453376831e-9 2.968126027921333e-9 1.0297485037671784e-9
          1.2147766863552674e-9 1.0335388625766904e-9 2.236271641168429e-9 5.0562345802895725e-9 6.0904525738563965e-9 4.579207853938967e-9
        </DataArray>
        <DataArray type="Float64" Name="gradient_matprop_error" format="ascii" RangeMin="0" RangeMax="0">
          0 0 0 0 0 0
          0 0 0 0 0 0
          0 0 0 0 0 0
          0 0 0 0 0 0
          0 0 0 0 0 0
          0 0 0 0 0 0
          0 0 0 0 0 0
          0 0 0 0 0 0
          0 0 0 0 0 0
          0 0 0 0 0 0
          0 0 0 0 0 0
          0 0 0 0 0 0
          0 0 0 0 0 0
          0 0 0 0 0 0
          0 0 0 0 0 0
          0 0 0 0 0 0
          0 0 0 0 0 0
          0 0 0 0 0 0
          0 0 0 0 0 0
          0 0 0 0 0 0
          0 0 0 0 0 0
          0 0 0 0 0 0
          0 0 0 0 0 0
          0 0 0 0 0 0
          0 0 0 0 0 0
          0 0 0 0 0 0
          0 0 0 0 0 0
          0 0 0 0 0 0
          0 0 0 0 0 0
          0 0 0 0 0 0
          0 0 0 0 0 0
          0 0 0 0 0 0
          0 0 0 0 0 0
          0 0 0 0 0 0
          0 0 0 0 0 0
          0 0 0 0 0 0
          0 0 0 0 0 0
          0 0 0 0 0 0
          0 0 0 0 0 0
          0 0 0 0 0 0
          0 0 0 0 0 0
          0 0 0 0 0 0
          0 0 0 0 0 0
          0 0 0 0 0 0
          0 0 0 0 0 0
          0 0 0 0 0 0
          0 0 0 0 0 0
          0 0 0 0 0 0
          0 0 0 0 0 0
          0 0 0 0 0 0
          0 0 0 0 0 0
          0 0 0 0 0 0
          0 0 0 0 0 0
          0 0 0 0 0 0
          0 0 0 0 0 0
          0 0 0 0 0 0
          0 0 0 0 0 0
          0 0 0 0 0 0
          0 0 0 0 0 0
          0 0 0 0 0 0
          0 0 0 0 0 0
          0 0 0 0 0 0
          0 0 0 0 0 0
          0 0 0 0 0 0
          0 0 0 0 0 0
          0 0 0 0 0 0
          0 0 0 0 0 0
          0 0 0 0 0 0
          0 0 0 0 0 0
          0 0 0 0 0 0
          0 0 0 0 0 0
          0 0 0 0 0 0
          0 0 0 0 0 0
          0 0 0 0 0 0
          0 0 0 0 0 0
          0 0 0 0 0 0
          0 0 0 0 0 0
          0 0 0 0 0 0
          0 0 0 0 0 0
          0 0 0 0 0 0
          0 0 0 0 0 0
          0 0 0 0 0 0
          0 0 0 0 0 0
          0 0 0 0 0 0
          0 0 0 0 0 0
          0 0 0 0 0 0
          0 0 0 0 0 0
          0 0 0 0 0 0
          0 0 0 0 0 0
          0 0 0 0 0 0
          0 0 0 0 0 0
          0 0 0 0 0 0
          0 0 0 0 0 0
          0 0 0 0 0 0
          0 0 0 0 0 0
          0 0 0 0 0 0
          0 0 0 0 0 0
          0 0 0 0 0 0
          0 0 0 0 0 0
          0 0 0 0 0 0
        </DataArray>
        <DataArray type="Float64" Name="initial_marker" format="ascii" RangeMin="0" RangeMax="2">
          2 0 0 0 2 1
          0 0 0 2 2 2
          0 0 0 0 0 0
          0 0 0 0.5 0.25 0
          1 0.5 0 0 0 1.5
          1.25 1.5 1.3333333333333333 2 2 2
          2 2 2 2 2 2
          2 2 2 2 2 0.6666666666666666
          1 0 0 0 1 0
          1 1 1 1 0 0
          0 1 1 0 1 0.5
          0 2 1.5 1.3333333333333333 2 2
          2 1 1 1 0 0
          0 0 0 2 2 2
          2 2 2 2 2 2
          2 2 2 2 2 2
          2 2 2 2 2 2
          2 2 2 2 2 2
          2 2 2 2 2 2
          2 2 2 2 2 2
          2 2 2 2 2 2
          2 2 2 2 2 2
          2 2 2 2 2 2
          2 2 2 2 2 2
          2 2 2 2 2 2
          2 2 2 2 2 2
          2 2 2 2 2 2
          2 2 2 2 2 2
          2 2 2 2 2 2
          2 2 2 2 2 2
          2 2 2 2 2 2
          2 2 2 2 2 2
          2 2 2 2 2 2
          2 2 2 2 2 2
          2 2 2 2 2 2
          2 2 2 2 2 2
          2 2 2 2 2 2
          2 2 2 2 2 2
          2 2 2 2 2 2
          2 2 2 2 2 2
          2 2 2 2 2 2
          2 2 2 2 2 2
          2 2 2 2 2 2
          2 2 2 2 2 2
          2 2 2 2 2 2
          2 2 2 2 2 2
          2 2 2 2 2 2
          2 2 2 2 2 2
          2 2 2 2 2 2
          2 2 2 2 2 2
          2 2 2 2 2 2
          2 2 2 2 2 2
          2 2 2 2 2 2
          2 2 2 2 2 2
          2 2 2 2 2 2
          2 2 2 2 2 2
          2 2 2 2 2 2
          2 2 2 2 2 2
          2 2 2 2 2 2
          2 2 2 2 2 2
          2 2 2 2 2 2
          2 2 2 2 2 2
          2 2 2 2 2 2
          2 2 2 2 2 2
          2 2 2 2 2 2
          2 2 2 2 2 2
          2 2 2 2 2 2
          2 2 2 2 2 2
          2 2 2 2 2 2
          2 2 2 2 2 2
          2 2 2 2 2 2
          2 2 2 2 2 2
          2 2 2 2 2 2
          2 2 2 2 2 2
          2 2 2 2 2 2
          2 2 2 2 2 2
          2 2 2 2 2 2
          2 2 2 2 2 2
          2 2 2 2 2 2
          2 2 2 2 2 2
          2 2 2 2 2 2
          2 2 2 2 2 2
          2 2 2 2 2 2
          2 2 0 0 0 0
          0 0 0 0 0 1
          0 0 0 0 0 0
          0 0 0 0 0 0
          0 0 0 0 0 0
          0 0 0 0 0 0
          0 0 0 0 0 0
          1 1 1 0.5 2 1
          0.5 1 0 2 1 1
          0 0 0 0 0 0
          0 2 2 2 2 2
          2 2 2 2 2 2
          2 2 2 2 2 2
          2 2 2 2 2 2
          2 2 2 2 2 2
          2 2 2 2 2 2
          2 2 2 2 2 2
        </DataArray>
        <DataArray type="Float64" Name="markers_norefine" format="ascii" RangeMin="0" RangeMax="2">
          2 0 0 0 0 0
          0 0 0 2 0 0
          0 0 0 0 0 0
          0 0 0 0 0 0
          0 0 0 0 0 0
          0 0 0 0 0 0
          1 1 0 1 0 0
          0 2 1 2 0 0
          0 0 0 0 0 0
          0 0 0 0 0 0
          0 0 0 0 0 0
          0 0 0 0 0 0
          0 0 0 0 0 0
          0 0 0 0 0 0
          0 0 0 0 0 0
          0 0 0 0 0 2
          2 0.25 2 0 0 0
          0 0 0 0 0 0
          0 0 0 1 0.25 0.5
          0 0 0 0 0 0
          0 1 0.75 1 0 0
          0 0 0 0 0 0
          0 0 0 0 0 0
          0 0 0 0 0 0
          0 2 2 2 2 0.5
          0.75 2 2 2 1 2
          2 2 2 1 1.5 2
          2 2 2 0 0 0
          0 0 0 0 0 0
          0 0 0 0 0 0
          0 0 0 0 0 0
          0 0 0 1 1 0
          0 0 0 0 0 0
          0 0 0 0 2 2
          1.5 2 2 2 0 0
          0 0 0 0 0 0
          0 0 0 0 0 0
          0 1 1 1 1 0.75
          1 2 2 2 1.75 0
          0 0.25 0.5 0 0 0.75
          1.25 0 2 2 2 2
          2 2 1.5 1.75 1 1.5
          2 2 2 1 0.5 1.5
          0 2 2 2 1 0
          0 0 0 0 0 2
          2 2 1 2 2 2
          2 0 0.5 0 1 1
          0 1.5 1.25 2 1.75 1
          1.25 2 2 2 2 2
          2 2 2 1.5 1.5 2
          2 2 2 0.5 0.5 0
          0 1.5 1.5 1 0.5 0.75
          0 0.5 1.5 1.75 1 2
          2 2 2 2 2 2
          2 2 2 2 2 2
          2 2 2 2 2 2
          2 2 2 2 2 2
          2 2 2 2 2 1.3333333333333333
          2 2 2 2 2 2
          2 1.5 1.75 2 2 2
          2 2 2 2 2 2
          2 2 2 2 2 1
          1.25 1 1 2 2 1.3333333333333333
          1.5 1.5 1 1 2 2
          1.6666666666666667 2 2 2 2 2
          2 2 2 2 2 2
          2 2 2 2 2 2
          2 2 2 2 2 1.25
          1.5 2 2 1.5 2 2
          1.75 2 2 2 2 0
          0 0 0 0 0 0
          0.5 1 0 0.25 0.5 0
          0 0.5 1 0 0.75 1
          0 0 1 1 0 2
          2 2 2 1 1 0
          2 2 2 2 2 2
          2 2 2 2 1.5 1.5
          1 1 2 2 2 2
          2 2 2 2 2 2
          2 2 2 2 2 2
          2 2 2 2 1 1
          0 1 0 1 1 0
          0 1 1 0 1 0
          1 0 0 0 0 0
          0 0 0 0 0 0
          0 0 0 0 0 0
          0 0 0 0 0 0
          0 0 0 0 0 0
          0 0 0 0 0 0
          0 0 0 0 0 0
          0 0 0 0 0 0
          0 0 0 0 0 0
          0 0 0 0 0 0
          0 0 0 0 0 0
          0 0 0 0 0 0
          0 0 0 0 0 0
          0 0.5 0 0 0 1
          1 0.6666666666666666 2 2 1.5 0.6666666666666666
          2 2 2 2 2 2
          2 2 2 1.25 0.5 1.5
        </DataArray>
        <DataArray type="Float64" Name="markers_mustrefine" format="ascii" RangeMin="0" RangeMax="2">
          2 0 0 0 2 1
          0 0 0 2 2 2
          0 0 0 0 0 0
          0 0 0 0.5 0.25 0
          1 0.5 0 0 0 1.5
          1.25 1.5 1.3333333333333333 2 2 2
          2 2 2 2 2 2
          2 2 2 2 2 0.6666666666666666
          1 0 0 0 1 0
          1 1 1 1 0 0
          0 1 1 0 1 0.5
          0 2 1.5 1.3333333333333333 2 2
          2 1 1 1 0 0
          0 0 0 2 2 2
          2 2 2 2 2 2
          2 2 2 2 2 2
          2 2 2 2 2 2
          2 2 2 2 2 2
          2 2 2 2 2 2
          2 2 2 2 2 2
          2 2 2 2 2 2
          2 2 2 2 2 2
          2 2 2 2 2 2
          2 2 2 2 2 2
          2 2 2 2 2 2
          2 2 2 2 2 2
          2 2 2 2 2 2
          2 2 2 2 2 2
          2 2 2 2 2 2
          2 2 2 2 2 2
          2 2 2 2 2 2
          2 2 2 2 2 2
          2 2 2 2 2 2
          2 2 2 2 2 2
          2 2 2 2 2 2
          2 2 2 2 2 2
          2 2 2 2 2 2
          2 2 2 2 2 2
          2 2 2 2 2 2
          2 2 2 2 2 2
          2 2 2 2 2 2
          2 2 2 2 2 2
          2 2 2 2 2 2
          2 2 2 2 2 2
          2 2 2 2 2 2
          2 2 2 2 2 2
          2 2 2 2 2 2
          2 2 2 2 2 2
          2 2 2 2 2 2
          2 2 2 2 2 2
          2 2 2 2 2 2
          2 2 2 2 2 2
          2 2 2 2 2 2
          2 2 2 2 2 2
          2 2 2 2 2 2
          2 2 2 2 2 2
          2 2 2 2 2 2
          2 2 2 2 2 2
          2 2 2 2 2 2
          2 2 2 2 2 2
          2 2 2 2 2 2
          2 2 2 2 2 2
          2 2 2 2 2 2
          2 2 2 2 2 2
          2 2 2 2 2 2
          2 2 2 2 2 2
          2 2 2 2 2 2
          2 2 2 2 2 2
          2 2 2 2 2 2
          2 2 2 2 2 2
          2 2 2 2 2 2
          2 2 2 2 2 2
          2 2 2 2 2 2
          2 2 2 2 2 2
          2 2 2 2 2 2
          2 2 2 2 2 2
          2 2 2 2 2 2
          2 2 2 2 2 2
          2 2 2 2 2 2
          2 2 2 2 2 2
          2 2 2 2 2 2
          2 2 2 2 2 2
          2 2 2 2 2 2
          2 2 0 0 0 0
          0 0 0 0 0 1
          0 0 0 0 0 0
          0 0 0 0 0 0
          0 0 0 0 0 0
          0 0 0 0 0 0
          0 0 0 0 0 0
          1 1 1 0.5 2 1
          0.5 1 0 2 1 1