<?xml version="1.0"?>
<VTKFile type="UnstructuredGrid" version="0.1" byte_order="LittleEndian" header_type="UInt32" compressor="vtkZLibDataCompressor">
  <UnstructuredGrid>
    <Piece NumberOfPoints="551" NumberOfCells="328">
      <PointData>
        <DataArray type="Int32" Name="libmesh_node_id" format="ascii" RangeMin="430" RangeMax="4480">
          430 570 571 572 575 576
          1149 1150 1151 1152 1153 1156
          1157 1158 1159 1161 1162 1163
          1164 1165 1166 1167 1168 1169
          1171 1172 1173 1174 1494 1495
          1860 1861 1862 1863 1866 1871
          1872 1875 1877 1878 1879 1880
          1881 1882 1883 1884 1885 1886
          1887 1888 1889 1890 1891 1892
          1893 1894 1895 1896 1897 1898
          1899 1900 1901 1902 1903 1904
          1905 1906 1907 1908 1909 1910
          1911 1912 1913 1914 1915 1916
          1917 1918 1919 1920 1921 1922
          1923 1924 2005 2006 2007 2008
          2020 2021 2022 2023 2070 2078
          2079 2102 2103 2104 2105 2109
          2110 2130 2131 2137 2360 2361
          2366 2378 2379 2380 2381 2382
          2383 2384 2385 2386 2387 2388
          2389 2390 2391 2392 2393 2394
          2395 2396 2397 2398 2399 2400
          2401 2402 2403 2404 2405 2409
          2410 2422 2423 2424 2425 2426
          2427 2428 2477 2478 2480 2481
          3213 3214 3215 3216 3217 3218
          3219 3220 3221 3222 3223 3224
          3225 3226 3227 3228 3229 3230
          3231 3232 3233 3234 3235 3236
          3237 3238 3239 3240 3241 3242
          3243 3244 3245 3246 3247 3248
          3249 3250 3251 3252 3253 3254
          3255 3256 3257 3258 3259 3260
          3261 3262 3263 3264 3265 3266
          3267 3268 3269 3270 3271 3272
          3273 3274 3275 3276 3277 3278
          3279 3280 3281 3282 3283 3284
          3285 3286 3287 3288 3289 3290
          3291 3292 3293 3294 3295 3296
          3297 3298 3299 3300 3301 3302
          3303 3304 3305 3306 3307 3308
          3309 3310 3311 3312 3313 3314
          3315 3316 3317 3318 3319 3320
          3321 3322 3323 3324 3325 3326
          3327 3328 3329 3330 3331 3332
          3333 3334 3335 3336 3337 3338
          3339 3340 3341 3342 3343 3344
          3345 3346 3347 3348 3349 3350
          3351 3352 3353 3354 3355 3356
          3357 3358 3359 3360 3361 3362
          3363 3364 3365 3366 3367 3368
          3369 3370 3371 3372 3373 3374
          3375 3699 3700 3702 3707 3708
          3709 3710 3711 3712 3715 3716
          3718 3720 3724 3725 3726 3727
          3728 3729 3730 3778 3780 3782
          3784 3785 3786 3787 3788 3789
          3790 3792 3794 3796 3798 3799
          3800 3801 3802 3803 3804 4088
          4089 4090 4091 4092 4093 4094
          4095 4096 4097 4098 4099 4100
          4101 4102 4103 4104 4105 4109
          4110 4116 4117 4118 4119 4120
          4121 4122 4123 4124 4125 4126
          4127 4130 4131 4136 4137 4138
          4139 4140 4141 4142 4143 4145
          4156 4157 4158 4159 4160 4162
          4235 4236 4237 4238 4239 4240
          4241 4242 4243 4244 4245 4246
          4247 4248 4249 4250 4251 4256
          4262 4263 4264 4265 4266 4267
          4268 4269 4271 4316 4317 4320
          4322 4323 4325 4336 4338 4340
          4342 4452 4454 4455 4456 4458
          4466 4468 4470 4472 574 1496
          1170 1497 2080 2081 1218 2132
          2111 2133 2134 2135 1223 2136
          2138 1228 2139 2363 2364 2367
          2370 2371 1215 1216 2376 1222
          2406 2407 2408 2411 1217 2106
          2453 2186 2454 2482 2483 2487
          2488 4106 4107 4108 4111 4112
          4113 2107 4114 4115 2108 4128
          4129 4132 4133 4134 4135 2112
          4144 2113 4146 4147 4150 4152
          4153 4155 4161 2115 4163 4165
          4167 4169 4252 4253 4257 4254
          4255 4258 4259 4261 4270 4318
          4319 4321 2164 4324 2165 4337
          4339 4341 2168 4453 4457 2184
          4345 4459 4461 4463 4465 4467
          4469 4471 4473 4474 4480
        </DataArray>
        <DataArray type="Float64" Name="bounds" format="ascii" RangeMin="0" RangeMax="0">
          0 0 0 0 0 0
          0 0 0 0 0 0
          0 0 0 0 0 0
          0 0 0 0 0 0
          0 0 0 0 0 0
          0 0 0 0 0 0
          0 0 0 0 0 0
          0 0 0 0 0 0
          0 0 0 0 0 0
          0 0 0 0 0 0
          0 0 0 0 0 0
          0 0 0 0 0 0
          0 0 0 0 0 0
          0 0 0 0 0 0
          0 0 0 0 0 0
          0 0 0 0 0 0
          0 0 0 0 0 0
          0 0 0 0 0 0
          0 0 0 0 0 0
          0 0 0 0 0 0
          0 0 0 0 0 0
          0 0 0 0 0 0
          0 0 0 0 0 0
          0 0 0 0 0 0
          0 0 0 0 0 0
          0 0 0 0 0 0
          0 0 0 0 0 0
          0 0 0 0 0 0
          0 0 0 0 0 0
          0 0 0 0 0 0
          0 0 0 0 0 0
          0 0 0 0 0 0
          0 0 0 0 0 0
          0 0 0 0 0 0
          0 0 0 0 0 0
          0 0 0 0 0 0
          0 0 0 0 0 0
          0 0 0 0 0 0
          0 0 0 0 0 0
          0 0 0 0 0 0
          0 0 0 0 0 0
          0 0 0 0 0 0
          0 0 0 0 0 0
          0 0 0 0 0 0
          0 0 0 0 0 0
          0 0 0 0 0 0
          0 0 0 0 0 0
          0 0 0 0 0 0
          0 0 0 0 0 0
          0 0 0 0 0 0
          0 0 0 0 0 0
          0 0 0 0 0 0
          0 0 0 0 0 0
          0 0 0 0 0 0
          0 0 0 0 0 0
          0 0 0 0 0 0
          0 0 0 0 0 0
          0 0 0 0 0 0
          0 0 0 0 0 0
          0 0 0 0 0 0
          0 0 0 0 0 0
          0 0 0 0 0 0
          0 0 0 0 0 0
          0 0 0 0 0 0
          0 0 0 0 0 0
          0 0 0 0 0 0
          0 0 0 0 0 0
          0 0 0 0 0 0
          0 0 0 0 0 0
          0 0 0 0 0 0
          0 0 0 0 0 0
          0 0 0 0 0 0
          0 0 0 0 0 0
          0 0 0 0 0 0
          0 0 0 0 0 0
          0 0 0 0 0 0
          0 0 0 0 0 0
          0 0 0 0 0 0
          0 0 0 0 0 0
          0 0 0 0 0 0
          0 0 0 0 0 0
          0 0 0 0 0 0
          0 0 0 0 0 0
          0 0 0 0 0 0
          0 0 0 0 0 0
          0 0 0 0 0 0
          0 0 0 0 0 0
          0 0 0 0 0 0
          0 0 0 0 0 0
          0 0 0 0 0 0
          0 0 0 0 0 0
          0 0 0 0 0
        </DataArray>
        <DataArray type="Float64" Name="gradient_error" format="ascii" RangeMin="7.286978527859232e-12" RangeMax="3.093936573432521e-7">
          2.3772680776142564e-10 7.863889200091926e-9 1.509596513044158e-8 2.0116940522642398e-7 4.019860620401332e-9 2.0164113290304512e-10
          1.9093111507864846e-7 1.401286950286558e-7 5.450645945371082e-9 9.038120772704934e-8 6.32669645098057e-8 2.6070818804047257e-8
          3.093936573432521e-7 2.079039470341966e-7 1.1901095990829812e-7 2.655163036169567e-9 1.760050051986118e-9 4.5893355803849214e-9
          2.7192137020736766e-9 1.610705683893289e-10 1.293063567997003e-10 6.858626457601509e-11 1.1598732988960978e-9 1.7945784279121503e-9
          5.9498686089550594e-8 2.7156248259712125e-8 1.119821814133316e-9 3.802900210069682e-9 1.235677276340358e-9 1.7900889715102047e-9
          2.147090959250715e-8 3.425890919831717e-8 2.9327496922989837e-8 1.9114059867402783e-8 1.3957352357032753e-7 7.075068459514658e-9
          1.0559715113747477e-8 3.6494967403908994e-8 1.746211410055175e-8 1.4578548365719391e-8 2.882820623689951e-8 2.4751742034938494e-8
          2.8378189356678283e-9 1.2738103580288145e-8 1.0917974557143652e-8 9.16374281328985e-9 1.578747249752855e-8 6.660431834936458e-9
          1.1744803927275458e-7 9.843893908206541e-8 4.8896455446361335e-8 5.7018817162707075e-8 2.776760434889955e-10 2.377055998208578e-10
          1.095915709370754e-9 8.529121311296161e-10 1.0929867288046323e-10 5.353818622343526e-10 4.02270244346897e-10 1.6034383459259484e-10
          4.162768102638156e-10 1.7944490322759003e-10 7.2319361069963624e-9 5.4311607477303205e-9 2.925931065940547e-9 2.316969476677486e-9
          4.805290015683188e-9 8.02418074709241e-9 1.0490202901196004e-9 2.974571029853705e-9 2.978077035673707e-9 5.148694332105194e-9
          1.3188594125845304e-9 2.358860351227747e-8 1.0350150008653783e-8 9.90735570264205e-9 1.9860069440514016e-10 2.3468527851659044e-10
          7.109228580260186e-11 8.571119008521308e-11 2.6444370530176157e-10 3.0651505562115503e-10 1.0634937449635129e-10 6.61723617434204e-10
          2.7964422971881774e-10 5.125692845457182e-10 1.7424697742899e-8 1.3337410710973035e-8 9.162133105797226e-9 4.963599530762399e-9
          2.2964314955391136e-9 1.0451167245326347e-9 8.381918097174407e-10 5.023584163352446e-10 1.2308714078593647e-9 5.543597575798582e-10
          7.014921441656599e-10 5.1865463530818235e-11 4.311601026056628e-11 2.3329402968611266e-10 1.7252881839488967e-10 3.5562814656086194e-11
          8.092122878624533e-11 3.386039491428133e-11 5.5287659138673375e-11 1.2435742189608665e-10 7.212753060565953e-10 5.073872333298876e-10
          2.934991606031799e-10 3.11521796011189e-10 4.236982947136749e-10 3.6805517383839273e-10 2.6646824278997725e-10 2.505220309500358e-10
          2.1330849145077021e-10 3.0945355786258105e-10 2.6809121794581245e-10 6.97161401959487e-11 1.2933907382886777e-10 1.1199000568869274e-10
          1.476198769295236e-10 1.8989507959035146e-10 7.573137086988389e-11 1.5366872164982575e-10 1.866830872109767e-10 1.528417418051097e-10
          1.0472420873795224e-10 1.3018909482773963e-10 3.558967043056711e-11 4.8181489588672255e-11 9.030361556836193e-11 1.0731690850382037e-10
          3.954117498609447e-11 1.799504513447967e-11 1.755977110083748e-11 4.408685191045551e-11 3.8729507693120134e-11 1.4870223623860505e-11
          2.597297828679822e-11 1.153407141819428e-11 1.5773160668688613e-11 7.66849780133305e-12 8.878444604535274e-12 1.0452192655862842e-11
          1.297252823956554e-11 8.654781709473145e-12 2.815687688685781e-10 4.095820137547972e-10 1.887697232980386e-10 2.7804368477321446e-10
          4.6513337183555115e-10 6.30121219641956e-10 5.940489468747177e-10 5.162440407735316e-10 1.952187490557494e-9 3.2991285691417204e-10
          4.253160873408309e-10 3.2861657777432727e-10 1.2714182740351035e-9 4.257716843842282e-9 4.001254791693561e-9 3.4293437369966356e-9
          1.0373913626391146e-8 2.6463601303569664e-9 1.7288920769239858e-9 6.34314571397868e-9 3.603324496441073e-10 3.4066377241308937e-10
          5.467739389573816e-10 5.161170556585567e-10 1.7768741785228315e-10 3.8476718534458083e-10 3.632960520130986e-10 2.9474207194009404e-10
          4.440820090817798e-10 3.067666612859311e-10 1.6804178192087369e-9 1.579679782836521e-9 1.0290235537013976e-9 1.3342064619533136e-9
          1.2234520620892763e-10 1.157752778293141e-10 2.566398819534295e-10 2.4145060452386087e-10 7.639155280391507e-11 1.7266292396752684e-10
          1.6191524770812926e-10 9.812757626299146e-11 2.0142478518790121e-10 1.338157484397087e-10 7.732377457012396e-10 7.22064515535841e-10
          4.982624458322052e-10 5.889422867666764e-10 2.3951209394507284e-10 3.560572392033901e-10 1.2033382899565158e-10 2.342895192098027e-10
          1.8204012615665121e-10 2.659902970283206e-10 1.6412421057335467e-10 1.011146542226705e-9 6.279110007153969e-10 6.818948286583694e-10
          7.56348090780527e-11 1.505393025128106e-10 4.920163761343211e-11 9.851677566036371e-11 5.38076293229369e-11 1.0243350641320803e-10
          6.560071561243926e-11 4.2317767932279425e-10 2.843106599216044e-10 2.728812308084425e-10 3.8352095384758875e-9 3.595209030813596e-9
          2.968236332184289e-9 2.7685066686225927e-9 3.0187215791740123e-9 2.2482959147116245e-9 9.747832198226331e-9 9.008996132851273e-9
          6.739054164126598e-9 7.333828451923779e-9 2.171895395087194e-9 2.017505166447127e-9 1.5442764670323388e-9 1.4298347152056746e-9
          1.6151631350357568e-9 1.1332271453760413e-9 5.477866188873597e-9 5.087651925620256e-9 3.7196302122601236e-9 4.0486184743811506e-9
          2.2622448788844093e-9 1.5992836613462286e-9 1.4659652078921254e-9 1.0110618375205498e-9 5.358802177907636e-9 3.786472500296946e-9
          3.387362834476121e-9 1.1203285859891903e-9 7.72884082988757e-10 6.878480579991066e-10 4.641515346882866e-10 2.7487461935794175e-9
          1.9474830654515404e-9 1.6224925407456165e-9 1.773914364255203e-10 2.3229115742348426e-10 1.8346992654039199e-10 5.542849043546634e-10
          1.068909414085343e-9 6.439199354495443e-10 2.387491362318481e-9 2.5808626239351345e-10 3.4542686281371636e-10 2.6187405531656235e-10
          6.611880865610231e-10 1.295209474691709e-10 1.835901536070748e-10 6.367583538851738e-11 1.0680156978418135e-10 1.0549678181706836e-10
          1.4461034576046068e-10 8.222535295101293e-11 4.3265720217904604e-10 2.531012701232731e-10 3.060510952594642e-10 3.719783586999553e-11
          6.418317158949779e-11 2.3246833488286387e-11 4.021832230649365e-11 3.1000228173940294e-11 4.79896920966905e-11 2.9804839278150575e-11
          1.6061428833035887e-10 1.0346096420153861e-10 1.0432105979205338e-10 8.868308746158423e-10 5.84346397676904e-10 5.16769934300086e-10
          3.173730527057306e-10 1.9585305631461735e-9 1.2803545712040601e-9 1.0706650391077383e-9 3.8531809186080766e-10 2.537487493094867e-10
          2.0130470057987736e-10 1.2910100426450543e-10 8.638214873643535e-10 5.7958798558791e-10 4.2929348623049913e-10 1.9805100916880803e-10
          2.746392177540163e-10 1.0830611724273459e-10 1.6276517839991442e-10 1.4664204066410548e-10 1.9972502292739316e-10 1.0810587003117959e-10
          5.28714676512618e-10 3.207152124513548e-10 3.7854225159379197e-10 6.435886342778583e-11 9.952213811555738e-11 4.039660379966813e-11
          6.264525600256607e-11 4.541091853243394e-11 6.482078250868998e-11 4.098977132296365e-11 2.0119878541711392e-10 1.2842723333201157e-10
          1.2416159237415197e-10 1.4912430957108134e-8 1.4027248355328634e-8 1.1496823517479888e-8 1.1908755135143226e-8 1.1145909064321796e-8
          9.104656565503074e-9 8.471495368621664e-9 8.979890793474243e-9 6.712786501753481e-9 1.641540969933934e-8 1.729082578558442e-8
          8.051175847301627e-9 4.8442037120348036e-9 6.088613908523049e-9 4.438472312106167e-9 3.511766345792066e-9 2.4817683113195743e-9
          1.1916662243453869e-8 8.953235728531767e-9 6.8542886038103544e-9 2.586780930453562e-9 1.2806051059550983e-9 4.790221867346422e-9
          1.7949657921306912e-9 1.2271622958907088e-9 8.499515506584603e-10 5.628844129890163e-10 3.414486125725833e-9 2.3790362302068436e-9
          1.555974174826549e-9 5.952772875408507e-10 3.652692132016375e-10 1.038513603345287e-9 3.8034458160367153e-10 2.448556443154059e-10
          2.2769417816565027e-10 1.4443622424067545e-10 6.717538302220734e-10 4.351520302700685e-10 3.9511789321847186e-10 5.271215460922171e-11
          4.9591104285143165e-11 1.1393140798772778e-10 1.0657039274213367e-10 3.146230277814077e-11 7.299282807398704e-11 6.814608235285302e-11
          4.158100119415127e-11 8.751927431021369e-11 5.577439610484581e-11 3.5988649694333913e-10 3.341620369553418e-10 2.162655116120115e-10
          2.6786808090021653e-10 2.0766491942559057e-11 1.9446948981463905e-11 4.512510791219925e-11 4.208749362953908e-11 1.6239174481598697e-11
          3.436758115506086e-11 3.198940306027537e-11 6.372694072589717e-11 2.0818585498369698e-11 4.0246353257590116e-11 2.2996250942378032e-11
          4.164675040733664e-11 2.952857856966233e-11 1.8721325370185471e-10 1.1945982297502946e-10 1.1615991707984745e-10 1.3241084873560637e-11
          2.472944437990386e-11 1.2131226804292633e-11 1.9773605796564907e-11 1.0581825079888733e-9 9.772870046320999e-10 6.947009472803676e-10
          6.404060440334552e-10 7.687834035015041e-10 5.010630302056382e-10 2.8208588822312602e-9 2.6015977666794886e-9 2.026849115816971e-9
          5.182937732957939e-10 3.3518922781629244e-10 3.066647951343271e-10 1.9639622008650746e-10 1.3290666324913867e-9 7.50234622689282e-10
          1.5402043834875893e-11 2.5140722204475425e-11 1.3004880168956787e-11 1.9497153197261672e-11 1.2098443478308547e-11 1.861265392218407e-11
          1.4895072559951508e-11 6.593069530576025e-11 4.94681681205982e-11 4.2350253716830943e-11 1.6486655466635805e-10 1.040979789258036e-10
          8.183021971759392e-11 5.944905126031638e-11 3.810728312299662e-10 2.4300044909271654e-10 1.7961112185445284e-10 2.6125039806808246e-11
          2.5888060871924904e-11 3.8998728215929874e-11 2.1104162458718665e-11 3.007243655232973e-11 1.8064318638249716e-11 2.6152776924640084e-11
          2.1331826696597603e-11 8.076637180480693e-11 5.075860145862561e-11 6.5868937592710905e-9 6.09830162163183e-9 4.768167863292437e-9
          1.305178555079301e-8 1.2226522414001596e-8 9.767606997956999e-9 3.0926001938145393e-9 1.6899238447447998e-9 6.3908465280853095e-9
          3.441009531365254e-9 8.165449148297023e-10 3.6643365676443083e-10 2.320262753945424e-10 1.602478072124163e-9 6.858958427133199e-10
          1.5619262761002986e-10 9.133422689777555e-11 2.788221937137368e-10 1.565281209854544e-10 3.24358779089396e-10 2.70256328232062e-10
          1.5305313137889353e-10 2.3242838313929574e-10 2.1380141016167429e-10 4.5047535825220923e-10 2.4575585864072798e-11 2.840797004045366e-11
          3.814687884876766e-11 4.4527801492003814e-11 2.952093085548592e-11 5.126841829945256e-11 2.74364618135052e-11 4.2214216374236006e-11
          5.820281632532852e-11 5.2716186218033115e-11 9.33709194911181e-11 2.82363976673839e-10 1.9624988284770324e-10 1.1013578902156745e-10
          2.291027684386476e-11 2.4606890608397642e-11 1.4179330626314119e-11 1.8751482048556193e-11 2.6303504372930523e-11 3.13093004018393e-11
          7.286978527859232e-12 1.6492833512128206e-11 1.445387245452103e-11 1.1310643431141704e-11 1.921529818390366e-11 1.5766175334693312e-11
          8.49233333654492e-11 2.0252613546611855e-10 1.862107335923107e-10 6.225630544754141e-11 9.710897629593081e-11 2.0860813933908835e-11
          3.2922736871380314e-11 1.189750918313907e-11 2.681957215704156e-11 2.501225419678914e-11 2.0398442516626658e-11 1.451977960374914e-10
          1.3446616766403557e-10 8.6518949265616e-11 8.008928231516246e-11 1.0697432288439023e-10 6.362629539055617e-11 8.096592237509795e-12
          1.4718612528979412e-11 1.1845276261242225e-11 7.347817362042727e-11 4.357368126631047e-11 5.3787088447819526e-11 1.8821142484609316e-9
          1.7310461918038447e-9 1.3387361483027965e-9 4.35606924923452e-10 4.010223267007236e-10 3.1265555708435843e-10 1.190907693800445e-9
          1.0932158914811014e-9 8.413470645999474e-10 8.688275593707211e-10 4.844995087314801e-10 2.0807580761410952e-10 1.210356885276071e-10
          5.426176020262039e-10 3.0060957609263034e-10 3.7000911812479627e-11 6.332559689744349e-11 4.185804627717015e-11 2.1648000810223966e-11
          3.7341075595875565e-11 2.4529638928280937e-11 1.492872925226468e-10 8.210721516619718e-11 5.821275038433066e-11 4.494927727580623e-9
          4.145408259879796e-9 3.207503933046694e-9 9.221314100151752e-9 8.578722560028432e-9 6.736423620221741e-9 2.0502410825209115e-9
          1.1025413761216232e-9 4.313980812740733e-9 2.272827333987669e-9 5.249162398499751e-10 1.0375828077440468e-9 4.3673961631871514e-10
          6.875981793578399e-10 3.2456320029595566e-10 1.4200195671143744e-10 6.443052100495249e-10 2.687910354873681e-10 9.756766234774498e-11
          5.719559249051368e-11 1.750750045957146e-10 4.092927611827371e-11 5.937381145547808e-11 1.0697143928479074e-10
        </DataArray>
        <DataArray type="Float64" Name="gradient_matprop_error" format="ascii" RangeMin="0" RangeMax="0">
          0 0 0 0 0 0
          0 0 0 0 0 0
          0 0 0 0 0 0
          0 0 0 0 0 0
          0 0 0 0 0 0
          0 0 0 0 0 0
          0 0 0 0 0 0
          0 0 0 0 0 0
          0 0 0 0 0 0
          0 0 0 0 0 0
          0 0 0 0 0 0
          0 0 0 0 0 0
          0 0 0 0 0 0
          0 0 0 0 0 0
          0 0 0 0 0 0
          0 0 0 0 0 0
          0 0 0 0 0 0
          0 0 0 0 0 0
          0 0 0 0 0 0
          0 0 0 0 0 0
          0 0 0 0 0 0
          0 0 0 0 0 0
          0 0 0 0 0 0
          0 0 0 0 0 0
          0 0 0 0 0 0
          0 0 0 0 0 0
          0 0 0 0 0 0
          0 0 0 0 0 0
          0 0 0 0 0 0
          0 0 0 0 0 0
          0 0 0 0 0 0
          0 0 0 0 0 0
          0 0 0 0 0 0
          0 0 0 0 0 0
          0 0 0 0 0 0
          0 0 0 0 0 0
          0 0 0 0 0 0
          0 0 0 0 0 0
          0 0 0 0 0 0
          0 0 0 0 0 0
          0 0 0 0 0 0
          0 0 0 0 0 0
          0 0 0 0 0 0
          0 0 0 0 0 0
          0 0 0 0 0 0
          0 0 0 0 0 0
          0 0 0 0 0 0
          0 0 0 0 0 0
          0 0 0 0 0 0
          0 0 0 0 0 0
          0 0 0 0 0 0
          0 0 0 0 0 0
          0 0 0 0 0 0
          0 0 0 0 0 0
          0 0 0 0 0 0
          0 0 0 0 0 0
          0 0 0 0 0 0
          0 0 0 0 0 0
          0 0 0 0 0 0
          0 0 0 0 0 0
          0 0 0 0 0 0
          0 0 0 0 0 0
          0 0 0 0 0 0
          0 0 0 0 0 0
          0 0 0 0 0 0
          0 0 0 0 0 0
          0 0 0 0 0 0
          0 0 0 0 0 0
          0 0 0 0 0 0
          0 0 0 0 0 0
          0 0 0 0 0 0
          0 0 0 0 0 0
          0 0 0 0 0 0
          0 0 0 0 0 0
          0 0 0 0 0 0
          0 0 0 0 0 0
          0 0 0 0 0 0
          0 0 0 0 0 0
          0 0 0 0 0 0
          0 0 0 0 0 0
          0 0 0 0 0 0
          0 0 0 0 0 0
          0 0 0 0 0 0
          0 0 0 0 0 0
          0 0 0 0 0 0
          0 0 0 0 0 0
          0 0 0 0 0 0
          0 0 0 0 0 0
          0 0 0 0 0 0
          0 0 0 0 0 0
          0 0 0 0 0 0
          0 0 0 0 0
        </DataArray>
        <DataArray type="Float64" Name="initial_marker" format="ascii" RangeMin="0" RangeMax="2">
          0 0 0 2 2 0
          1 1 0 1 1 0.3333333333333333
          2 2 2 0 0 1
          0.5 0 1 0 0 0
          2 2 2 0.5 0 0
          2 2 2 2 2 1
          1.5 2 2 2 2 2
          1.3333333333333333 2 2 2 2 2
          2 2 2 2 1 1
          2 2 1 2 2 0
          2 2 2 2 2 2
          1 1.5 0.3333333333333333 1 0 1
          0.3333333333333333 2 2 1.3333333333333333 0 0.5
          0 0.5 0 0 0 2
          2 0 2 2 2 2
          2 2 1 1 0 0
          0 1 0.5 2 2 0
          1.5 0 0.25 1.5 0 0
          0 0 0 0 0 0
          0 0 0 0 0 0
          0 0 0 0 0 0
          0 0 0 0 0 0
          0 0 0 0 0 0
          0 0 0 0 0 0
          0 0 0 0 0 0
          2 2 2 2 2 1
          1.5 1 2 2 2 2
          2 2 2 2 2 2
          2 2 2 2 2 2
          2 2 2 2 2 2
          2 2 2 2 2 2
          2 2 2 2 2 2
          2 2 1 1.5 1 1.5
          0 1 1 2 2 2
          1 1.5 1 1.5 0 1
          1 2 2 2 2 2
          2 2 2 2 2 2
          2 2 2 2 2 2
          2 2 2 2 2 2
          2 2 2 2 2 2
          2 2 2 2 2 2
          2 2 0 0.5 0 1.5
          2 1.5 2 0 0.5 0
          1 0 0.5 0 0.5 0
          0 0 1.5 1.5 0.6666666666666666 0
          0.5 0 0.5 0 0 0
          1.5 1.5 0.6666666666666666 2 2 1.5
          1.5 2 2 2 2 2
          1.5 1.5 2 2 2 0
          0.5 0 0.5 0 0 0
          1 1 0 0 0.5 0
          0.5 0 0 0 1 1
          0 2 2 2 2 2
          2 2 2 2 2 2
          2 2 2 2 2 2
          2 2 2 2 2 2
          2 2 2 2 2 2
          2 1.5 1 2 1.5 1.5
          1 1 2 2 2 2
          2 2 2 2 2 2
          1.5 1.75 1.5 2 2 2
          2 1 1 1.5 1.5 0.5
          1.25 0.5 1.25 0 1 0
          0.75 0.6666666666666666 2 2 1.75 0
          1 0 1 2 2 2
          2 2 2 2 2 2
          2 2 2 2 2 2
          0 0.25 0 0 0 0
          0 1.25 1 0.6666666666666666 2 1.75
          1.25 1 2 2 1.75 0
          0 0.25 0 0 0 0
          0 0.75 0 2 2 2
          2 2 2 2 2 2
          2 2 2 2 2 2
          1.5 1 2 2 0 0
          0 0 0 0 0 0
          1.25 0 0 0 0 0
          1.25 0 0 0 0 0
          0 0 0 0 0 0
          0 0 0 0 0 0
          0 0.75 0 0 0 0
          0 0 1 1 1 2
          2 2 2 2 2 0
          0.75 0.5 2 1.75 2 2
          2 2 2 2 2 2
          2 2 2 2 2 2
          2 2 1 1.5 1 1
          1.5 1 2 2 0.6666666666666666 2
          2 2 2 2 2 2
          2 2 2 2 2 2
          2 2 2 2 2 1.25
          0.5 1.75 1 1 1.5
        </DataArray>
        <DataArray type="Float64" Name="markers_norefine" format="ascii" RangeMin="0" RangeMax="0">
          0 0 0 0 0 0
          0 0 0 0 0 0
          0 0 0 0 0 0
          0 0 0 0 0 0
          0 0 0 0 0 0
          0 0 0 0 0 0
          0 0 0 0 0 0
          0 0 0 0 0 0
          0 0 0 0 0 0
          0 0 0 0 0 0
          0 0 0 0 0 0
          0 0 0 0 0 0
          0 0 0 0 0 0
          0 0 0 0 0 0
          0 0 0 0 0 0
          0 0 0 0 0 0
          0 0 0 0 0 0
          0 0 0 0 0 0
          0 0 0 0 0 0
          0 0 0 0 0 0
          0 0 0 0 0 0
          0 0 0 0 0 0
          0 0 0 0 0 0
          0 0 0 0 0 0
          0 0 0 0 0 0
          0 0 0 0 0 0
          0 0 0 0 0 0
          0 0 0 0 0 0
          0 0 0 0 0 0
          0 0 0 0 0 0
          0 0 0 0 0 0
          0 0 0 0 0 0
          0 0 0 0 0 0
          0 0 0 0 0 0
          0 0 0 0 0 0
          0 0 0 0 0 0
          0 0 0 0 0 0
          0 0 0 0 0 0
          0 0 0 0 0 0
          0 0 0 0 0 0
          0 0 0 0 0 0
          0 0 0 0 0 0
          0 0 0 0 0 0
          0 0 0 0 0 0
          0 0 0 0 0 0
          0 0 0 0 0 0
          0 0 0 0 0 0
          0 0 0 0 0 0
          0 0 0 0 0 0
          0 0 0 0 0 0
          0 0 0 0 0 0
          0 0 0 0 0 0
          0 0 0 0 0 0
          0 0 0 0 0 0
          0 0 0 0 0 0
          0 0 0 0 0 0
          0 0 0 0 0 0
          0 0 0 0 0 0
          0 0 0 0 0 0
          0 0 0 0 0 0
          0 0 0 0 0 0
          0 0 0 0 0 0
          0 0 0 0 0 0
          0 0 0 0 0 0
          0 0 0 0 0 0
          0 0 0 0 0 0
          0 0 0 0 0 0
          0 0 0 0 0 0
          0 0 0 0 0 0
          0 0 0 0 0 0
          0 0 0 0 0 0
          0 0 0 0 0 0
          0 0 0 0 0 0
          0 0 0 0 0 0
          0 0 0 0 0 0
          0 0 0 0 0 0
          0 0 0 0 0 0
          0 0 0 0 0 0
          0 0 0 0 0 0
          0 0 0 0 0 0
          0 0 0 0 0 0
          0 0 0 0 0 0
          0 0 0 0 0 0
          0 0 0 0 0 0
          0 0 0 0 0 0
          0 0 0 0 0 0
          0 0 0 0 0 0
          0 0 0 0 0 0
          0 0 0 0 0 0
          0 0 0 0 0 0
          0 0 0 0 0 0
          0 0 0 0 0
        </DataArray>
        <DataArray type="Float64" Name="markers_mustrefine" format="ascii" RangeMin="0" RangeMax="2">
          0 0 0 2 2 0
          1 1 0 1 1 0.3333333333333333
          2 2 2 0 0 1
          0.5 0 1 0 0 0
          2 2 2 0.5 0 0
          2 2 2 2 2 1
          1.5 2 2 2 2 2
          1.3333333333333333 2 2 2 2 2
          2 2 2 2 1 1
          2 2 1 2 2 0
          2 2 2 2 2 2
          1 1.5 0.3333333333333333 1 0 1
          0.3333333333333333 2 2 1.3333333333333333 0 0.5
          0 0.5 0 0 0 2
          2 0 2 2 2 2
          2 2 1 1 0 0
          0 1 0.5 2 2 0
          1.5 0 0.25 1.5 0 0
          0 0 0 0 0 0
          0 0 0 0 0 0
          0 0 0 0 0 0
          0 0 0 0 0 0
          0 0 0 0 0 0
          0 0 0 0 0 0
          0 0 0 0 0 0
          2 2 2 2 2 1
          1.5 1 2 2 2 2
          2 2 2 2 2 2
          2 2 2 2 2 2
          2 2 2 2 2 2
          2 2 2 2 2 2
          2 2 2 2 2 2
          2 2 1 1.5 1 1.5
          0 1 1 2 2 2
          1 1.5 1 1.5 0 1
          1 2 2 2 2 2
          2 2 2 2 2 2
          2 2 2 2 2 2
          2 2 2 2 2 2
          2 2 2 2 2 2
          2 2 2 2 2 2
          2 2 0 0.5 0 1.5
          2 1.5 2 0 0.5 0
          1 0 0.5 0 0.5 0
          0 0 1.5 1.5 0.6666666666666666 0
          0.5 0 0.5 0 0 0
          1.5 1.5 0.6666666666666666 2 2 1.5
          1.5 2 2 2 2 2
          1.5 1.5 2 2 2 0
          0.5 0 0.5 0 0 0
          1 1 0 0 0.5 0
          0.5 0 0 0 1 1
          0 2 2 2 2 2
          2 2 2 2 2 2
          2 2 2 2 2 2
          2 2 2 2 2 2
          2 2 2 2 2 2
          2 1.5 1 2 1.5 1.5
          1 1 2 2 2 2
          2 2 2 2 2 2
          1.5 1.75 1.5 2 2 2
          2 1 1 1.5 1.5 0.5
          1.25 0.5 1.25 0 1 0
          0.75 0.6666666666666666 2 2 1.75 0
          1 0 1 2 2 2
          2 2 2 2 2 2
          2 2 2 2 2 2
          0 0.25 0 0 0 0
          0 1.25 1 0.6666666666666666 2 1.75
          1.25 1 2 2 1.75 0
          0 0.25 0 0 0 0
          0 0.75 0 2 2 2
          2 2 2 2 2 2
          2 2 2 2 2 2
          1.5 1 2 2 0 0
          0 0 0 0 0 0
          1.25 0 0 0 0 0
          1.25 0 0 0 0 0
          0 0 0 0 0 0
          0 0 0 0 0 0
          0 0.75 0 0 0 0
          0 0 1 1 1 2
          2 2 2 2 2 0
          0.75 0.5 2 1.75 2 2
          2 2 2 2 2 2
          2 2 2 2 2 2
          2 2 1 1.5 1 1
          1.5 1 2 2 0.6666666666666666 2
          2 2 2 2 2 2
          2 2 2 2 2 2
          2 2 2 2 2 1.25
          0.5 1.75 1 1 1.5
        </DataArray>
        <DataArray type="Float64" Name="gradient_marker" format="ascii" RangeMin="0" RangeMax="1">
          1 0.25 0.5 0.75 1 1
          0.5 0.375 0 0.25 0.125 0
          1 0.625 0.375 0.5 0.5 0.25
          0.25 1 1 1 0.5 0.5
          0.25 0 1 0.25 0.5 0.5
          0 0 0 0 0.6666666666666666 0
          0 0 0 0 0 0
          0.3333333333333333 0 0 0 0 0
          0.5 0.375 0.125 0.125 1 1
          1 1 1 1 1 1
          1 1 1 1 1 1
          0 0 0.5 0.125 0 0
          0.5 0 0 0 1 1
          1 1 1 1 1 1
          1 1 1 1 1 1
          1 1 1 1 0.6666666666666666 1
          1 1 1 1 1 1
          1 1 1 1 0.5 0.5
          0.5 1 1 1 1 1
          1 1 1 1 1 1
          1 1 1 1 1 1
          1 1 1 1 1 1
          1 1 1 1 1 1
          1 1 1 1 1 1
          1 1 1 1 1 1
          0 0 0 0 0 0
          0 0 0 0 0 0
          0 0 0 0 0.5 0.5
          0.5 0.5 1 1 1 0.5
          0.5 1 0.5 0.5 1 0.5
          1 1 1 1 1 1
          1 1 1 1 1 1
          1 1 0.5 0.5 1 1
          0.5 0.5 1 0.5 1 0.5
          1 1 1 1 1 1
          1 1 1 1 0.5 0.5
          1 1 0.5 1 0.5 0.5
          1 0.5 1 1 1 1
          1 1 1 1 1 1
          0.5 1 0.5 1 0.5 1
          0.5 1 1 1 1 1
          1 1 0 0 0 0
          0 0 0 0 0 0
          0 0.5 0.5 1 1 0.5
          0.5 1 0.5 1 0.5 1
          1 1 1 1 1 1
          1 1 1 0.5 1 0.5
          1 0.5 1 0.5 1 1