<?xml version="1.0"?>
<VTKFile type="UnstructuredGrid" version="0.1" byte_order="LittleEndian" header_type="UInt32" compressor="vtkZLibDataCompressor">
  <UnstructuredGrid>
    <Piece NumberOfPoints="623" NumberOfCells="342">
      <PointData>
        <DataArray type="Int32" Name="libmesh_node_id" format="ascii" RangeMin="292" RangeMax="2909">
          292 346 416 417 421 423
          542 543 544 545 546 547
          548 549 550 551 552 553
          554 555 724 725 726 727
          728 729 730 731 732 733
          1009 1010 1013 1015 1017 1018
          1019 1020 1021 1022 1023 1024
          1025 1026 1027 1028 1029 1030
          1031 1032 1033 1034 1035 1036
          1037 1038 1039 1040 1041 1042
          1043 1044 1045 1046 1047 1048
          1049 1050 1051 1052 1053 1054
          1055 1056 1057 1058 1059 1060
          1061 1062 1063 1064 1065 1067
          1069 1070 1071 1072 1074 1075
          1077 1078 1079 1080 1081 1082
          1083 1084 1085 1086 1087 1088
          1512 1513 1514 1515 1516 1517
          1518 1519 1520 1521 1522 1523
          1524 1525 1600 1601 1602 1603
          1614 1615 1616 1617 1618 1619
          1620 1621 1622 1623 1624 1625
          1626 1627 1628 1629 1630 1631
          1632 1633 1634 1635 1636 1637
          1638 1639 1640 1641 1642 1643
          1644 1645 1646 1647 1648 1649
          1650 1651 1652 1653 1654 1655
          1656 1657 1658 1659 1660 1661
          1662 1663 1664 1665 1666 1667
          1668 1669 1670 1671 1672 1673
          1674 1675 1676 1677 1678 1679
          1680 1681 1682 1683 1684 1685
          1686 1687 1688 1689 1690 1691
          1692 1693 1694 1695 1696 1697
          1698 1699 1700 1701 1702 1703
          1704 1705 1706 1707 1708 1709
          1710 1711 1712 1713 1714 1715
          1716 1717 1718 1719 1720 1721
          1722 1723 1724 1725 1726 1727
          1728 1729 1730 1731 1732 1733
          1734 1735 1736 1737 1738 1739
          1740 1741 1742 1743 1744 1745
          1746 1747 1748 1749 1750 1751
          1752 1753 1754 1755 1756 1757
          2613 2614 2615 2616 2617 2618
          2619 2620 2621 2622 2623 2624
          2625 2626 2627 2628 2629 2630
          2631 2632 2633 2634 2635 2636
          2637 2638 2639 2640 2641 2642
          2643 2644 2645 2646 2647 2648
          2649 2650 2651 2652 2653 2654
          2655 2656 2657 2658 2659 2660
          2661 2662 2663 2664 2665 2666
          2667 2668 2669 2670 2671 2672
          2673 2674 2675 2676 2677 2678
          2679 2680 2681 2682 2683 2684
          2685 2686 2687 2688 2689 2690
          2691 2692 2693 2694 2695 2696
          2697 2698 2699 2700 2701 2702
          2703 2704 2705 2706 2707 2708
          2709 2710 2711 2712 2713 2714
          2715 2716 2717 2718 2719 2720
          2721 2722 2723 2724 2725 2726
          2727 2728 2729 2730 2731 2732
          2733 2734 2735 2736 2737 2738
          2739 2740 2741 2742 2743 2744
          2745 2746 2747 2748 2749 2750
          2751 2752 2753 2754 2755 2756
          2757 2758 2759 2760 2761 2762
          2763 2764 2765 2766 2767 2768
          2769 2770 2771 2772 2773 2774
          2775 2776 2777 2778 2779 2780
          2781 2782 2783 2784 2785 2786
          2787 2788 2789 2790 2791 2792
          2793 2794 2795 2796 2797 2798
          2799 2800 2801 2802 2803 2804
          2805 2806 2807 2808 2809 2810
          2811 2812 2813 2814 2815 2816
          2817 2818 2819 2820 2821 2822
          2823 2824 2825 2826 2827 2828
          2829 2830 2831 2832 2833 2834
          2835 2836 2837 2838 2839 2840
          2841 2842 2843 2844 2845 2846
          2847 2848 2849 2850 2851 2852
          2853 2854 2855 2856 2857 2858
          2859 2860 2861 2862 2863 2864
          2865 2866 2867 2868 2869 2870
          2871 2872 2873 2874 2875 2876
          2877 2878 2879 2880 2881 2882
          2883 2884 2885 2886 2887 2888
          2889 2890 2891 2892 2893 2894
          2895 2896 2897 2898 2899 2900
          2901 2902 2903 2904 2905 2906
          2907 2908 2909 412 415 293
          418 414 420 419 614 617
          618 615 411 718 719 720
          723 413 532 734 735 537
          736 737 738 739 422 744
          745 746 993 533 995 994
          1007 1008 534 996 1012 1011
          1014 540 1016 987 988 989
          992 1066 1068 1073 1076 1494
          1495 1498 1604 1606 1607 1605
          1610 1612 1611 1598 1609
        </DataArray>
        <DataArray type="Float64" Name="bounds" format="ascii" RangeMin="0" RangeMax="0">
          0 0 0 0 0 0
          0 0 0 0 0 0
          0 0 0 0 0 0
          0 0 0 0 0 0
          0 0 0 0 0 0
          0 0 0 0 0 0
          0 0 0 0 0 0
          0 0 0 0 0 0
          0 0 0 0 0 0
          0 0 0 0 0 0
          0 0 0 0 0 0
          0 0 0 0 0 0
          0 0 0 0 0 0
          0 0 0 0 0 0
          0 0 0 0 0 0
          0 0 0 0 0 0
          0 0 0 0 0 0
          0 0 0 0 0 0
          0 0 0 0 0 0
          0 0 0 0 0 0
          0 0 0 0 0 0
          0 0 0 0 0 0
          0 0 0 0 0 0
          0 0 0 0 0 0
          0 0 0 0 0 0
          0 0 0 0 0 0
          0 0 0 0 0 0
          0 0 0 0 0 0
          0 0 0 0 0 0
          0 0 0 0 0 0
          0 0 0 0 0 0
          0 0 0 0 0 0
          0 0 0 0 0 0
          0 0 0 0 0 0
          0 0 0 0 0 0
          0 0 0 0 0 0
          0 0 0 0 0 0
          0 0 0 0 0 0
          0 0 0 0 0 0
          0 0 0 0 0 0
          0 0 0 0 0 0
          0 0 0 0 0 0
          0 0 0 0 0 0
          0 0 0 0 0 0
          0 0 0 0 0 0
          0 0 0 0 0 0
          0 0 0 0 0 0
          0 0 0 0 0 0
          0 0 0 0 0 0
          0 0 0 0 0 0
          0 0 0 0 0 0
          0 0 0 0 0 0
          0 0 0 0 0 0
          0 0 0 0 0 0
          0 0 0 0 0 0
          0 0 0 0 0 0
          0 0 0 0 0 0
          0 0 0 0 0 0
          0 0 0 0 0 0
          0 0 0 0 0 0
          0 0 0 0 0 0
          0 0 0 0 0 0
          0 0 0 0 0 0
          0 0 0 0 0 0
          0 0 0 0 0 0
          0 0 0 0 0 0
          0 0 0 0 0 0
          0 0 0 0 0 0
          0 0 0 0 0 0
          0 0 0 0 0 0
          0 0 0 0 0 0
          0 0 0 0 0 0
          0 0 0 0 0 0
          0 0 0 0 0 0
          0 0 0 0 0 0
          0 0 0 0 0 0
          0 0 0 0 0 0
          0 0 0 0 0 0
          0 0 0 0 0 0
          0 0 0 0 0 0
          0 0 0 0 0 0
          0 0 0 0 0 0
          0 0 0 0 0 0
          0 0 0 0 0 0
          0 0 0 0 0 0
          0 0 0 0 0 0
          0 0 0 0 0 0
          0 0 0 0 0 0
          0 0 0 0 0 0
          0 0 0 0 0 0
          0 0 0 0 0 0
          0 0 0 0 0 0
          0 0 0 0 0 0
          0 0 0 0 0 0
          0 0 0 0 0 0
          0 0 0 0 0 0
          0 0 0 0 0 0
          0 0 0 0 0 0
          0 0 0 0 0 0
          0 0 0 0 0 0
          0 0 0 0 0 0
          0 0 0 0 0 0
          0 0 0 0 0 0
          0 0 0 0 0
        </DataArray>
        <DataArray type="Float64" Name="gradient_error" format="ascii" RangeMin="1.2212374221107955e-9" RangeMax="7.566292334206201e-7">
          5.3356466761175045e-9 2.6321702550329487e-9 8.226075004746489e-8 7.450827613728365e-8 3.505502380824358e-9 7.626953590281575e-8
          1.2151536992434506e-7 7.217152247225288e-8 3.826221310072231e-7 4.932333120632802e-7 1.0467742101761796e-7 4.1263529903272487e-7
          3.048047198880379e-7 2.5358803322271458e-8 7.434361508744665e-8 1.0622540556333088e-7 1.301111727982542e-9 3.907145218666395e-7
          4.010800068207824e-7 1.2200907033846304e-7 9.832536689877191e-9 7.0236739538591235e-9 3.7723088548410656e-8 2.539448689987551e-8
          5.6142889548083034e-9 2.3199175316367925e-8 1.8476491181238436e-8 4.214811217841057e-9 1.3065885251340354e-8 1.3753807046108947e-8
          4.644495156691732e-7 6.559594465853809e-7 2.636339590019293e-8 4.980309169881161e-7 1.9823140744873584e-7 1.7222389879747635e-7
          4.0671178013735065e-7 3.5441967122447214e-7 1.5416769573267115e-7 4.0734928258982403e-7 3.504323196103595e-7 1.1105168933139708e-7
          2.2303974079720533e-7 2.1057757669133727e-7 5.542968026478605e-7 6.005734196125906e-7 5.254292561501233e-7 4.915567899273838e-7
          1.5277392586346762e-7 1.3397590632106187e-7 4.045182703185374e-7 3.431840183273773e-7 1.1150269134236445e-7 3.9699111993648497e-7
          3.3163656788358677e-7 9.165122002865312e-8 1.948986955892134e-7 2.0987345374626447e-7 3.9861224167061877e-7 4.3831749460739397e-7
          3.434116870242022e-7 3.816856978089004e-7 2.7516011199120914e-7 4.925983711616826e-7 7.015031255581306e-8 3.1907578994309696e-7
          6.137411973620928e-7 5.264689016310868e-7 1.8196977324908944e-9 2.9540699740883907e-7 7.699563335253905e-8 5.815144283795098e-7
          7.666472361517652e-8 2.1102971276691233e-7 8.36676825742635e-8 1.290768378241118e-7 4.3262843625480077e-7 3.277970843246629e-7
          1.3320774937802708e-9 8.536935280297201e-8 9.506540571109345e-8 3.98676497649209e-7 2.2262766984681414e-7 3.579269142541841e-7
          2.0741062216304475e-7 3.467316101222997e-7 1.1087145553626738e-7 1.7076291673069463e-7 1.482601621240145e-7 4.1500427397299303e-7
          4.0694678949314134e-7 1.9657764265630432e-7 1.887347056887612e-7 3.3055855413505455e-7 1.9659667236752656e-7 3.0842482441695507e-7
          9.027419799703116e-8 1.2428337441070026e-7 9.912082682126645e-8 3.929484293626835e-7 3.7139885963701107e-7 1.3884912136176276e-7
          5.3421640057704184e-8 9.891371260797865e-8 4.999569309927894e-8 8.915025333695519e-8 3.095629159883106e-8 5.387550593314041e-8
          5.06607099221309e-8 4.8938446293135803e-8 7.911958938161635e-8 4.9117709723542896e-8 7.400307421616226e-8 2.9752339307621475e-8
          5.0291553921023027e-8 5.0949818854908274e-8 8.794907536739105e-8 9.147751463399591e-8 9.712198841184134e-8 9.500595390060075e-8
          4.798908869274594e-8 7.144386825237002e-8 5.067035991136575e-8 7.579594506066279e-8 9.466684259386318e-8 1.0052649015201448e-7
          4.844985678398622e-9 5.142396748963622e-8 5.440841344666403e-8 9.432773128712561e-8 1.1484178803542616e-7 1.2168011635382373e-7
          1.1855376870647545e-7 1.2529414449830268e-7 1.1542742105912717e-7 1.3435288828504623e-7 1.3134650414123874e-7 1.37510976073967e-7
          1.2834011999743125e-7 1.4813345736348157e-7 1.4395834190887553e-7 1.5105815338149242e-7 1.3009001583093643e-7 1.0788226391920853e-7
          1.0932032294456712e-7 1.1186929159449018e-7 9.824384068153089e-8 1.1930382799787446e-7 1.1664262211106475e-7 1.1398141622425502e-7
          9.766570914152396e-8 1.0190659080643956e-7 9.549073501274602e-8 1.0614747247135517e-7 1.2167446727089684e-7 1.2028906589478747e-7
          1.2723711247646956e-7 1.2721177955172834e-7 1.1890366451867809e-7 1.271864466269871e-7 6.753584851940806e-8 9.359127145583054e-8
          9.874354400562089e-8 1.2222211621954053e-7 1.2119478946190533e-7 1.2546966930279166e-7 1.32941248482842e-7 1.231278871575202e-7
          5.2481244061963044e-8 7.932517813636365e-8 3.0800049830245294e-8 5.906806954632811e-8 1.0551415023060479e-7 9.947732452640925e-8
          2.6057961996184752e-9 5.648714302512644e-8 3.3454805058655203e-8 1.048808279898544e-7 7.063329930980113e-9 3.752194167206684e-8
          5.852341070560617e-9 3.857582033575881e-8 9.781278034287352e-8 1.0317480060781246e-7 1.4992250124950217e-9 8.50631030606558e-9
          7.466985413557103e-9 7.33695136602654e-8 1.2486785479366805e-7 1.235078248721232e-7 1.2854092012543074e-7 1.284777632795316e-7
          1.3544778511826237e-7 1.269655271297433e-7 1.3343777982580667e-7 1.314858572562715e-7 1.379543217536827e-7 1.308031671019664e-7
          1.33659538928106e-7 1.3372064787165469e-7 1.4036997774721144e-7 1.4042444632155998e-7 1.337817568152034e-7 1.3740959763142736e-7
          7.339791122428845e-8 8.946786982555217e-8 7.965577108206238e-8 1.1799145215571969e-7 1.4764635494448092e-7 1.4763872438281373e-7
          1.5567423011967936e-7 1.5556171225734496e-7 1.412224428293081e-7 1.4835962250294259e-7 8.006294737243963e-8 8.38170518064436e-8
          8.832262740889184e-8 1.214260136533743e-7 1.2041162321825367e-7 1.0955228333404234e-7 1.393638967794561e-7 1.41817046072939e-7
          1.3539524325095613e-7 1.2264957631626744e-7 1.26816557121018e-7 1.1048536079506529e-7 1.1236306363116144e-7 1.448876688608934e-7
          1.5176862220708253e-7 1.3412936986707318e-7 4.9084253430600026e-9 2.500493219266531e-8 4.210296838028738e-9 1.0044614029762226e-8
          9.425458270427534e-8 8.519523569718629e-8 1.2212374221107955e-9 6.560645080618076e-9 5.853906207543757e-9 8.109945435385513e-8
          3.977635443120981e-9 9.34915352567461e-9 4.4678918999189555e-9 8.986215624108905e-9 9.035719461672322e-8 9.597451673528087e-8
          1.9471552089004525e-9 5.501130595314567e-9 5.812160249833244e-9 8.996285674680072e-8 1.4221645984488871e-7 1.4938913089252757e-7
          1.394844103231013e-7 1.4552794081923907e-7 1.450690229103213e-7 1.525231839342961e-7 1.435735773952465e-7 1.5719603146360123e-7
          1.6565016449183287e-7 1.5153934465926628e-7 1.5796257045974132e-7 1.6059555489338345e-7 1.695269072170465e-7 1.575468304929859e-7
          7.062034661945634e-9 6.853440333337256e-9 7.014578044583876e-9 7.175715755830496e-9 6.96712142722212e-9 7.483300580340865e-9
          7.56873011094422e-9 8.26090723623175e-9 7.654159641547576e-9 8.175991131584033e-9 8.473142741657036e-9 8.411169899071785e-9
          8.770294351730037e-9 6.70328483704403e-9 7.2207467348173415e-9 6.437043848249725e-9 7.471750960752234e-9 7.738208632590655e-9
          8.506458073254747e-9 5.923269093747197e-9 6.872763358690464e-9 6.682594685272721e-9 7.822257623633733e-9 6.136542389155813e-9
          7.450305022776997e-9 5.760816110975402e-9 7.25276890258616e-9 8.76406765639818e-9 8.744721694196918e-9 4.0970936467275936e-9
          6.427467303896959e-9 6.094367906100534e-9 8.757840961066324e-9 1.3331465932932406e-8 1.2912606504233796e-8 1.3446883019531318e-8
          1.3622124637819968e-8 1.398115953482884e-8 1.370561222490191e-8 1.375590229037272e-8 1.3878540250055336e-8 1.3806192355843534e-8
          7.701490530239311e-9 8.216794322273266e-9 7.951740962561604e-9 8.732098114307223e-9 1.202314532145894e-8 1.2767053976671943e-8
          1.3510962631884946e-8 6.781194945524178e-9 7.584000346652803e-9 8.793075307827415e-9 8.38680574778143e-9 1.4428128567872887e-8
          5.372481993566744e-9 6.9769506395295985e-9 4.951287591010304e-9 6.650684046285043e-9 8.581419285492454e-9 8.350080501559783e-9
          3.0434734568941772e-9 5.7371069567859305e-9 5.349627130008482e-9 8.430740456677685e-9 4.477534947449031e-9 6.253022230548248e-9
          3.923100082051425e-9 5.757689676710035e-9 8.028509513647465e-9 9.476854101269922e-9 2.173874949373883e-9 4.922044114443692e-9
          4.42708740188469e-9 7.670213279513501e-9 1.3756451852401348e-8 1.426689994373022e-8 1.3084775136929808e-8 1.1874111886168755e-8
          1.2645907981384208e-8 1.1658834333740784e-8 1.2425124172633618e-8 1.341770407659966e-8 1.3191414011526451e-8 7.938544817131451e-9
          9.173912167618126e-9 8.599477410617147e-9 1.1508500756083805e-8 1.1441557085296144e-8 1.2237783294851149e-8 1.113416082435392e-8
          1.2054496206004968e-8 1.3034009504406152e-8 1.2974831587656018e-8 6.417629609551667e-9 8.08941470667444e-9 7.579450681323024e-9
          1.0883859998150988e-8 1.430358148324607e-8 1.4068830477977268e-8 1.4900219734450329e-8 1.3967073792287701e-8 1.398942843704299e-8
          1.4804967197716861e-8 3.332199746211929e-9 5.197748978099561e-9 2.855547528909926e-9 4.7028852279447376e-9 1.0009572917638678e-8
          9.520985117452493e-9 1.6229271262646663e-9 3.8926065641999656e-9 3.4349393421024467e-9 9.183519010336888e-9 2.520554097894376e-9
          4.271798453702613e-9 2.2633343278135622e-9 3.863734417581107e-9 9.084444860176819e-9 8.627002578105208e-9 1.3833509223757985e-9
          3.0844317933859234e-9 2.799019634470766e-9 7.974013049611539e-9 1.3695760747102348e-8 1.3587526951582504e-8 1.4435673868914539e-8
          1.4683306595239569e-8 1.308794001095863e-8 1.310622342518774e-8 1.397112800337875e-8 1.3510603329671808e-8 1.3450559407681526e-8
          1.4875359748500832e-8 1.5111248166501288e-8 1.3054132867055917e-8 1.2911690378320062e-8 1.4945752299284805e-8 1.3836534088093925e-8
          1.398828210527958e-8 1.4081209543830432e-8 1.4140030122465235e-8 1.3728216944751203e-8 1.4097778041312909e-8 1.4044806360234047e-8
          1.5681115828150062e-8 1.663704106911256e-8 1.71228680641628e-8 1.7825576933610356e-8 1.735084360990009e-8 1.330236484352344e-8
          1.3949694950498033e-8 1.3786534432989528e-8 1.6161248147469228e-8 1.2540658746468567e-8 1.3526687526795448e-8 1.3210794650176249e-8
          1.6455598899954278e-8 1.8163911047725414e-8 1.8478362290868376e-8 1.8602350857985e-8 1.8932911594789583e-8 1.945337834621654e-8
          1.9467341696792944e-8 1.0825911400547165e-8 1.1871789714040105e-8 1.0508098025836082e-8 1.1638139441922158e-8 1.2917668027533048e-8
          1.389332437857037e-8 5.351083420839852e-9 7.1055850411018016e-9 6.636569769466014e-9 1.0156542143447449e-8 1.0163416935871879e-8
          1.1301233435487858e-8 9.793884819024676e-9 1.0947326336883443e-8 1.4248672245875608e-8 1.4061802319651505e-8 4.524347623429184e-9
          6.155282978568489e-9 5.724118664301329e-9 1.0623570433374748e-8 1.645045448797531e-8 1.675729755625598e-8 1.4030829566449055e-8
          1.4760377039244619e-8 1.5312206025283256e-8 1.6678855202054548e-8 1.70533632521996e-8 1.729941584746172e-8 1.80838897198384e-8
          1.5046728224816704e-8 1.4995718998753505e-8 1.6632533916591707e-8 2.067250562400205e-9 3.5116537898931106e-9 1.9257624669848595e-9
          3.233038158278698e-9 8.188066037184579e-9 7.753115137330292e-9 1.2476229961211082e-9 2.5674348203832506e-9 2.388006117639248e-9
          6.9889718254984105e-9 1.8433815688990893e-9 3.036744615539964e-9 1.8581309176745124e-9 2.9201687065490477e-9 7.306949682251952e-9
          6.896577611368485e-9 1.2366848179323641e-9 2.2676121036057527e-9 2.241946398028272e-9 6.1829871613555585e-9 1.3394829650539991e-8
          1.330455471031959e-8 1.536958424409684e-8 1.5643192995551127e-8 1.2758829734630928e-8 1.2600477815191282e-8 1.542696246291043e-8
          1.3150139445068254e-8 1.2993542409603289e-8 1.591648718781344e-8 1.6176136091893187e-8 1.2441664780449396e-8 1.227679639248841e-8
          1.581589462746682e-8 9.419113659841213e-9 1.0631259603268034e-8 9.070932240988074e-9 1.0328256121235861e-8 1.397202648689545e-8
          1.3871980469632402e-8 4.008701229037122e-9 5.404447197875857e-9 5.2313875631707065e-9 9.664154774350177e-9 8.79145737133904e-9
          1.0049954810857147e-8 8.633587823184096e-9 9.85035750208475e-9 1.3769120524905802e-8 1.3696728310313294e-8 4.142008854806176e-9
          5.234341103433758e-9 5.41166836573839e-9 9.109110516988774e-9 1.7285347370097938e-8 1.7493896418844168e-8 1.8470047313099834e-8
          1.882941189990717e-8 1.5019112715325885e-8 1.503741916681953e-8 1.7510109048666004e-8 1.7781588272101742e-8 1.8118622432187692e-8
          1.9333387744767142e-8 1.99109154247342e-8 1.5062705352790466e-8 1.511413068164866e-8 1.8233863023664723e-8 2.0290066715131545e-9
          2.9323703901845814e-9 2.3636019162825972e-9 3.12923403008218e-9 6.576350764232034e-9 6.3852367317671145e-9 1.5764733611110538e-9
          2.3686706406554896e-9 2.6656707433051403e-9 5.607196806085384e-9 2.777651379893117e-9 3.481160012669747e-9 3.1880439733555225e-9
          3.916199061724789e-9 6.3529533113438e-9 6.48555928100532e-9 2.313541046383392e-9 3.0668599133908248e-9 3.4989817459660486e-9
          5.5703277385673836e-9 1.2868728933491457e-8 1.2757581171594495e-8 1.6420490447374852e-8 1.6639555023536524e-8 1.2106016128801606e-8
          1.1949754556369881e-8 1.615850656563237e-8 1.2665508637653653e-8 1.2621065693461161e-8 1.6809779298066082e-8 1.691536697500573e-8
          1.1835871519140282e-8 1.1797736541783845e-8 1.6351266341544057e-8 8.354419086224188e-9 5.220050373071241e-9 4.0163833610450085e-9
          7.402188916264494e-9 3.462200911455342e-8 5.164686537080647e-9 7.971616101827469e-9 4.497410354238774e-9 2.4068821159289568e-9
          1.8682485615591083e-9 3.1345062349735187e-9 1.1494223256279038e-8 1.0987416915402675e-8 6.565007262195032e-8 4.492054058526112e-8
          2.419100854857193e-8 1.6550223730610316e-7 1.0025321711175613e-7 1.4419114924761182e-8 2.652219638451377e-8 1.0653884686125338e-7
          2.8188560424439902e-8 5.037358902461539e-8 1.5564025480706286e-8 2.1143762680623515e-8 1.7636775578324403e-7 4.195800592411863e-8
          7.422498166471702e-8 2.6723499880540747e-8 6.704351002651959e-7 7.13757746418925e-7 6.687414945288995e-7 6.332233562460134e-7
          4.261912541818173e-7 6.068215681876537e-7 4.852143537054386e-7 4.750314104739626e-7 6.914036351892121e-7 6.566503522189113e-7
          4.564997903971e-7 7.566292334206201e-7 7.127378762393513e-7 1.8768128005055805e-7 4.0359770710121724e-7 3.558345948078873e-7
          2.329517202107329e-7 2.3493085067339274e-7 3.6492996109317346e-7 1.90724630879275e-7 4.1839036688576637e-7 5.830079036607261e-8
          1.0834646820613877e-7 5.886097850536902e-8 6.14590027634186e-8 5.359305866797433e-8 7.035670334359837e-8 6.889880579621697e-8
          5.11063217167701e-8 5.649725585532134e-8 6.342828545077708e-8 8.429351608568186e-8 8.714087272608645e-8
        </DataArray>
        <DataArray type="Float64" Name="gradient_matprop_error" format="ascii" RangeMin="0" RangeMax="0">
          0 0 0 0 0 0
          0 0 0 0 0 0
          0 0 0 0 0 0
          0 0 0 0 0 0
          0 0 0 0 0 0
          0 0 0 0 0 0
          0 0 0 0 0 0
          0 0 0 0 0 0
          0 0 0 0 0 0
          0 0 0 0 0 0
          0 0 0 0 0 0
          0 0 0 0 0 0
          0 0 0 0 0 0
          0 0 0 0 0 0
          0 0 0 0 0 0
          0 0 0 0 0 0
          0 0 0 0 0 0
          0 0 0 0 0 0
          0 0 0 0 0 0
          0 0 0 0 0 0
          0 0 0 0 0 0
          0 0 0 0 0 0
          0 0 0 0 0 0
          0 0 0 0 0 0
          0 0 0 0 0 0
          0 0 0 0 0 0
          0 0 0 0 0 0
          0 0 0 0 0 0
          0 0 0 0 0 0
          0 0 0 0 0 0
          0 0 0 0 0 0
          0 0 0 0 0 0
          0 0 0 0 0 0
          0 0 0 0 0 0
          0 0 0 0 0 0
          0 0 0 0 0 0
          0 0 0 0 0 0
          0 0 0 0 0 0
          0 0 0 0 0 0
          0 0 0 0 0 0
          0 0 0 0 0 0
          0 0 0 0 0 0
          0 0 0 0 0 0
          0 0 0 0 0 0
          0 0 0 0 0 0
          0 0 0 0 0 0
          0 0 0 0 0 0
          0 0 0 0 0 0
          0 0 0 0 0 0
          0 0 0 0 0 0
          0 0 0 0 0 0
          0 0 0 0 0 0
          0 0 0 0 0 0
          0 0 0 0 0 0
          0 0 0 0 0 0
          0 0 0 0 0 0
          0 0 0 0 0 0
          0 0 0 0 0 0
          0 0 0 0 0 0
          0 0 0 0 0 0
          0 0 0 0 0 0
          0 0 0 0 0 0
          0 0 0 0 0 0
          0 0 0 0 0 0
          0 0 0 0 0 0
          0 0 0 0 0 0
          0 0 0 0 0 0
          0 0 0 0 0 0
          0 0 0 0 0 0
          0 0 0 0 0 0
          0 0 0 0 0 0
          0 0 0 0 0 0
          0 0 0 0 0 0
          0 0 0 0 0 0
          0 0 0 0 0 0
          0 0 0 0 0 0
          0 0 0 0 0 0
          0 0 0 0 0 0
          0 0 0 0 0 0
          0 0 0 0 0 0
          0 0 0 0 0 0
          0 0 0 0 0 0
          0 0 0 0 0 0
          0 0 0 0 0 0
          0 0 0 0 0 0
          0 0 0 0 0 0
          0 0 0 0 0 0
          0 0 0 0 0 0
          0 0 0 0 0 0
          0 0 0 0 0 0
          0 0 0 0 0 0
          0 0 0 0 0 0
          0 0 0 0 0 0
          0 0 0 0 0 0
          0 0 0 0 0 0
          0 0 0 0 0 0
          0 0 0 0 0 0
          0 0 0 0 0 0
          0 0 0 0 0 0
          0 0 0 0 0 0
          0 0 0 0 0 0
          0 0 0 0 0 0
          0 0 0 0 0 0
          0 0 0 0 0
        </DataArray>
        <DataArray type="Float64" Name="initial_marker" format="ascii" RangeMin="0" RangeMax="2">
          0 2 1 0 2 0
          0 0 2 1 0 2
          1 0 0 0 2 2
          2 0 0 0 0 0
          0 0 0 0 0 0
          2 2 2 2 0 0
          1 1 0 1 1 0
          0.5 0.5 2 2 2 1
          1 0.5 1.5 1.25 1 2
          1.5 0 0.5 0.6666666666666666 2 2
          2 1 2 2 2 2
          1.25 1.5 2 2 2 1.5
          2 2 2 2 1.5 1.5
          2 2 2 2 0 0.25
          0 0.5 0 0 0 0.5
          1 0 0 0.5 0 0.5
          0 0 0 1 1 0
          0 0 0 0 0 0
          0 0 0 0 0 0
          0 0 2 2 2 2
          2 2 2 2 2 2
          2 2 2 2 2 2
          2 2 2 2 2 2
          2 2 2 2 2 2
          2 2 2 2 2 2
          2 2 2 2 2 2
          2 2 2 2 2 2
          2 2 2 2 2 2
          2 2 2 2 2 2
          2 2 2 2 2 2
          2 2 2 2 2 2
          2 2 2 2 2 2
          2 2 2 2 2 2
          2 2 2 2 2 2
          2 2 2 2 2 2
          2 2 2 2 2 2
          2 2 2 2 2 2
          2 2 2 2 2 2
          2 2 2 2 2 2
          2 2 2 2 2 2
          2 2 2 2 2 2
          2 2 2 2 2 2
          2 2 2 2 2 2
          2 2 2 2 2 2
          2 2 2 2 2 2
          2 2 2 2 2 2
          2 2 2 2 2 2
          2 2 2 2 2 2
          2 2 2 2 2 2
          2 2 2 2 2 2
          2 2 2 2 2 2
          2 2 2 2 2 2
          2 2 2 2 2 2
          2 2 2 2 2 2
          2 2 2 2 2 2
          2 2 2 2 2 2
          2 2 2 2 2 2
          2 2 2 2 2 2
          2 2 2 2 2 2
          2 2 2 2 2 2
          2 2 2 2 2 2
          2 2 2 2 2 2
          2 2 2 2 2 2
          2 2 2 2 2 2
          2 2 2 2 2 2
          2 2 2 2 2 2
          2 2 2 2 2 2
          2 2 2 2 2 2
          2 2 2 2 2 2
          2 2 2 2 2 2
          2 2 2 2 2 2
          2 2 2 2 2 2
          2 2 2 2 2 2
          2 2 2 2 2 2
          2 2 2 2 2 2
          2 2 2 2 2 2
          2 2 2 2 2 2
          2 2 2 2 2 2
          2 2 2 2 2 2
          2 2 2 2 2 2
          2 2 2 2 2 2
          2 2 2 2 2 2
          2 2 2 2 2 2
          2 2 2 2 2 2
          2 2 2 2 2 2
          2 2 2 2 2 2
          2 2 2 2 2 2
          2 2 2 2 2 2
          2 2 2 2 2 2
          2 2 2 2 2 2
          2 2 2 2 2 2
          2 2 2 2 2 2
          2 2 2 2 2 2
          2 2 2 0 0 0
          0 0 0 0 0 0
          0 0 0 0 0 0
          0 0 0 0 0 0
          0 0 0 0 0 0
          0 0 2 2 2 2
          2 2 1 1 1 1
          2 1 1 0 1 1
          0.5 0 0 0 0 0
          0 0 2 2 2 2
          2 2 2 2 2
        </DataArray>
        <DataArray type="Float64" Name="markers_norefine" format="ascii" RangeMin="0" RangeMax="2">
          0 2 0 0 2 0
          0 0 0 0 0 0
          0 0 0 0 2 0
          0 0 0 0 0 0
          0 0 0 0 0 0
          0 0 0 0 0 0
          0 0 0 0 0 0
          0 0 0 0 0 0
          0 0 0 0 0 0
          0 0 0 0 0 0
          0 0 0 0 0 0
          0 0 2 0 0 0
          1 0 1 0 0 0
          2 0 1 0 0 0
          0 0 0 0 0 0
          0 0 0 0 0 0
          0 0 0 0 0 0
          0 0 0 0 0 0
          0 0 0 0 0 0
          0 0 0 0 0 0
          0 0 1 0 0 0
          2 0 1 0 0 0
          0 0 0 0 0 0
          0 0 0 0 0 0
          0 0 0 0 0 0
          0 0 0 0 0 0
          0 0 0 0 0 0
          0 0 0 0 0 0
          1 0.25 1.5 0.5 0 0
          2 1 1 0 2 0.75
          2 1.5 0 0 2 2
          2 0 0 0 0 0
          0 0 0 0 0 0
          0 0 0 0 0 0
          0 0 0 0 0 0
          0 0 0 0 1 0.5
          0.5 0 0 0 0 0
          0 0 0 0 0 0
          0 0 2 1.5 2 2
          0 0 2 2 2 0
          2 2 2 2 0 0.5
          2 2 2 1 0 0
          0 0 0 0 0 0
          0 0 0 0 0 0
          0 0 0 0 0 0
          0 0 0 1 0.5 1
          0 0.5 0.25 1 0.5 0
          0 1 0.5 1 0 1.5
          1 2 1.5 0.5 1 2
          1.5 2 1 0 0 0
          0 0 0 0 0 0
          2 1 1.5 0 1 0.5
          0 2 2 1.6666666666666667 2 0
          2 1.5 2 1.75 1 1.5
          2 2 2 2 2 2
          2 2 2 1.3333333333333333 2 2
          2 2 0 0 0 1
          0.5 1 0.75 0 0.5 2
          1.5 1.75 0.6666666666666666 1 1 1
          1 1 1 2 2 2
          1.6666666666666667 0 0 0 0.5 1
          0 2 2 2 2 1.25
          1.5 2 2 2 1.5 2
          2 2 2 1.75 2 2
          2 2 2 0.25 0.5 0
          0 0.5 1 0 0.75 1
          0 0 1 1 0 0
          0 0 0 1 0.5 1
          0 0 0 0 0 2
          1.5 2 0.5 2 2 2
          1 0 0 0 0 0
          0 1 1 1 1 1
          0.6666666666666666 2 2 2 2 1.5
          1.25 2 1.5 0.75 1 2
          2 2 1.75 0 0 1
          0.6666666666666666 0 0.25 0.5 0 0
          0.75 1 0 2 2 2
          2 2 2 2 2 2
          2 2 2 2 2 2
          2 2 2 2 2 1
          1 0 0 1 1 0
          1 1 0 0 1 1
          0 2 1.75 2 2 1.25
          1.5 2 2 2 2 2
          2 2 2 1.5 1.5 2
          2 2 2 0.5 0.5 0
          0 1 1 0 0.5 0.5
          0 0 1.25 1.5 0.5 2
          2 2 2 2 2 2
          2 2 2 2 2 2
          2 2 2 2 2 2
          2 1.25 1.5 0.5 1 1.5
          2 1 1.75 2 1.5 2
          2 2 2 0 0 0
          0 0 0 0 0 0
          0 0 0 0 0 0
          0 0 0 0 0 0
          0 0 0 0 0 0
          0 0 0 0 0 0
          0 0 0 0 0 0
          0 0 0 0 0 0
          0 0 0 0 0 0
          0 0 0 0 0 0
          0 0 0 0 0
        </DataArray>
        <DataArray type="Float64" Name="markers_mustrefine" format="ascii" RangeMin="0" RangeMax="2">
          0 2 1 0 2 0
          0 0 2 1 0 2
          1 0 0 0 2 2
          2 0 0 0 0 0
          0 0 0 0 0 0
          2 2 2 2 0 0
          1 1 0 1 1 0
          0.5 0.5 2 2 2 1
          1 0.5 1.5 1.25 1 2
          1.5 0 0.5 0.6666666666666666 2 2
          2 1 2 2 2 2
          1.25 1.5 2 2 2 1.5
          2 2 2 2 1.5 1.5
          2 2 2 2 0 0.25
          0 0.5 0 0 0 0.5
          1 0 0 0.5 0 0.5
          0 0 0 1 1 0
          0 0 0 0 0 0
          0 0 0 0 0 0
          0 0 2 2 2 2
          2 2 2 2 2 2
          2 2 2 2 2 2
          2 2 2 2 2 2
          2 2 2 2 2 2
          2 2 2 2 2 2
          2 2 2 2 2 2
          2 2 2 2 2 2
          2 2 2 2 2 2
          2 2 2 2 2 2
          2 2 2 2 2 2
          2 2 2 2 2 2
          2 2 2 2 2 2
          2 2 2 2 2 2
          2 2 2 2 2 2
          2 2 2 2 2 2
          2 2 2 2 2 2
          2 2 2 2 2 2
          2 2 2 2 2 2
          2 2 2 2 2 2
          2 2 2 2 2 2
          2 2 2 2 2 2