<?xml version="1.0"?>
<VTKFile type="UnstructuredGrid" version="0.1" byte_order="LittleEndian" header_type="UInt32" compressor="vtkZLibDataCompressor">
  <UnstructuredGrid>
    <Piece NumberOfPoints="648" NumberOfCells="331">
      <PointData>
        <DataArray type="Int32" Name="libmesh_node_id" format="ascii" RangeMin="28" RangeMax="2442">
          32 33 34 35 36 37
          38 39 40 41 42 43
          44 45 46 47 48 49
          50 51 52 53 54 55
          56 57 58 59 60 61
          62 63 64 65 66 67
          68 69 70 71 88 89
          90 91 92 93 94 95
          96 97 98 99 100 101
          102 103 104 105 106 107
          124 125 126 127 128 129
          130 131 132 133 134 135
          136 137 138 139 140 141
          142 143 152 153 154 155
          156 157 158 159 160 161
          182 183 184 185 186 187
          188 189 190 191 192 193
          194 195 196 197 208 209
          210 211 212 213 214 215
          236 237 238 239 240 241
          242 243 244 245 246 247
          248 249 250 251 262 263
          264 265 266 267 268 269
          290 291 293 294 295 296
          297 298 299 300 301 302
          303 304 305 316 317 318
          319 320 321 322 323 344
          345 347 351 352 353 354
          355 356 357 358 359 370
          371 372 373 374 375 376
          377 401 402 403 406 409
          411 412 413 414 415 418
          419 420 422 424 425 426
          429 432 433 434 439 440
          442 443 444 445 446 447
          448 451 452 514 515 516
          517 518 519 520 521 522
          523 524 525 526 527 528
          529 530 531 532 533 534
          535 536 537 538 539 540
          541 598 599 605 606 607
          608 609 611 612 613 614
          615 616 617 618 619 620
          621 622 623 624 625 626
          627 628 629 630 631 632
          633 634 635 636 637 638
          639 640 641 642 643 644
          645 646 647 648 649 650
          651 652 653 654 655 656
          657 658 659 660 661 662
          663 664 665 666 667 668
          669 670 671 672 673 674
          675 676 677 678 679 680
          681 682 683 684 685 686
          687 688 689 704 705 706
          707 708 709 710 711 712
          713 714 715 716 717 718
          719 720 721 722 723 734
          735 736 737 738 739 740
          741 742 743 744 745 746
          747 792 793 794 797 798
          799 802 805 921 922 923
          924 925 926 927 928 929
          930 931 932 933 934 935
          936 937 938 939 940 941
          942 943 944 945 946 947
          948 949 950 951 952 953
          954 955 956 957 958 959
          960 961 962 963 964 965
          966 967 968 969 970 971
          972 973 974 975 976 977
          978 979 980 981 982 983
          984 985 986 987 988 989
          990 991 992 993 994 995
          996 997 998 999 1000 1001
          1002 1003 1004 1005 1006 1007
          1008 1011 1012 1014 1016 1066
          1068 1073 1076 1347 1348 1349
          1350 1351 1352 1353 1354 1355
          1356 1357 1358 1359 1360 1361
          1362 1445 1447 1449 1450 1451
          1452 1454 1455 1456 1457 1458
          1459 1460 1461 1462 1463 1464
          1465 1466 1467 1468 1469 1470
          1471 1472 1473 1474 1475 1476
          1477 1478 1479 1480 1481 1482
          1483 1484 1485 1486 1487 1488
          1489 1490 1491 1492 1493 1494
          1495 1496 1497 1498 1499 1500
          1501 1502 1503 1504 1505 1506
          1507 1508 1509 1510 1511 1591
          1592 1593 1594 1595 1596 1597
          1598 1599 1604 1605 1606 1607
          1608 1609 1610 1611 1612 1613
          2433 2434 2435 2436 2437 2438
          2439 2440 2441 2442 28 29
          30 31 86 87 122 123
          151 176 178 179 177 180
          181 206 205 207 234 235
          261 289 315 398 404 400
          405 600 601 602 603 604
          610 397 385 697 698 699
          703 399 504 891 892 893
          896 505 899 506 913 914
          916 407 919 512 1307 1308
          1309 1310 410 1311 1312 1339
          509 1340 1343 408 1345 1446
          1448 1453 1437 1438 1441 1443
        </DataArray>
        <DataArray type="Float64" Name="bounds" format="ascii" RangeMin="0" RangeMax="0">
          0 0 0 0 0 0
          0 0 0 0 0 0
          0 0 0 0 0 0
          0 0 0 0 0 0
          0 0 0 0 0 0
          0 0 0 0 0 0
          0 0 0 0 0 0
          0 0 0 0 0 0
          0 0 0 0 0 0
          0 0 0 0 0 0
          0 0 0 0 0 0
          0 0 0 0 0 0
          0 0 0 0 0 0
          0 0 0 0 0 0
          0 0 0 0 0 0
          0 0 0 0 0 0
          0 0 0 0 0 0
          0 0 0 0 0 0
          0 0 0 0 0 0
          0 0 0 0 0 0
          0 0 0 0 0 0
          0 0 0 0 0 0
          0 0 0 0 0 0
          0 0 0 0 0 0
          0 0 0 0 0 0
          0 0 0 0 0 0
          0 0 0 0 0 0
          0 0 0 0 0 0
          0 0 0 0 0 0
          0 0 0 0 0 0
          0 0 0 0 0 0
          0 0 0 0 0 0
          0 0 0 0 0 0
          0 0 0 0 0 0
          0 0 0 0 0 0
          0 0 0 0 0 0
          0 0 0 0 0 0
          0 0 0 0 0 0
          0 0 0 0 0 0
          0 0 0 0 0 0
          0 0 0 0 0 0
          0 0 0 0 0 0
          0 0 0 0 0 0
          0 0 0 0 0 0
          0 0 0 0 0 0
          0 0 0 0 0 0
          0 0 0 0 0 0
          0 0 0 0 0 0
          0 0 0 0 0 0
          0 0 0 0 0 0
          0 0 0 0 0 0
          0 0 0 0 0 0
          0 0 0 0 0 0
          0 0 0 0 0 0
          0 0 0 0 0 0
          0 0 0 0 0 0
          0 0 0 0 0 0
          0 0 0 0 0 0
          0 0 0 0 0 0
          0 0 0 0 0 0
          0 0 0 0 0 0
          0 0 0 0 0 0
          0 0 0 0 0 0
          0 0 0 0 0 0
          0 0 0 0 0 0
          0 0 0 0 0 0
          0 0 0 0 0 0
          0 0 0 0 0 0
          0 0 0 0 0 0
          0 0 0 0 0 0
          0 0 0 0 0 0
          0 0 0 0 0 0
          0 0 0 0 0 0
          0 0 0 0 0 0
          0 0 0 0 0 0
          0 0 0 0 0 0
          0 0 0 0 0 0
          0 0 0 0 0 0
          0 0 0 0 0 0
          0 0 0 0 0 0
          0 0 0 0 0 0
          0 0 0 0 0 0
          0 0 0 0 0 0
          0 0 0 0 0 0
          0 0 0 0 0 0
          0 0 0 0 0 0
          0 0 0 0 0 0
          0 0 0 0 0 0
          0 0 0 0 0 0
          0 0 0 0 0 0
          0 0 0 0 0 0
          0 0 0 0 0 0
          0 0 0 0 0 0
          0 0 0 0 0 0
          0 0 0 0 0 0
          0 0 0 0 0 0
          0 0 0 0 0 0
          0 0 0 0 0 0
          0 0 0 0 0 0
          0 0 0 0 0 0
          0 0 0 0 0 0
          0 0 0 0 0 0
          0 0 0 0 0 0
          0 0 0 0 0 0
          0 0 0 0 0 0
          0 0 0 0 0 0
          0 0 0 0 0 0
          0 0 0 0 0 0
        </DataArray>
        <DataArray type="Float64" Name="gradient_error" format="ascii" RangeMin="1.8980788451962107e-13" RangeMax="7.566292334206201e-7">
          2.623114518971344e-10 1.5170345575403473e-10 6.949756831129561e-10 4.050139413868577e-10 1.4724532690346749e-10 8.911695662682494e-11
          3.86899955773823e-10 2.3584268104521744e-10 2.2407459140235774e-11 1.9866147634361455e-11 5.457072160533038e-11 5.085158398253339e-11
          9.26136088099198e-12 7.371719561666987e-12 2.278679866591748e-11 1.912316383833984e-11 3.3246857869919835e-12 2.866566143995345e-12
          7.503727295817186e-12 6.592928534950452e-12 1.6681047569056493e-12 1.6811130497447563e-12 2.223681407516998e-12 2.228495473012185e-12
          1.6613795307190965e-12 1.6591608513627405e-12 1.6067640537654827e-12 1.606443103808671e-12 1.642042715130413e-12 1.640921111371544e-12
          1.6210761409265573e-12 1.621071484851549e-12 1.6364052856435486e-12 1.6357381642032465e-12 1.627137582708961e-12 1.6268282341255864e-12
          1.6352892970607298e-12 1.6347270460988894e-12 1.6285082180731505e-12 1.6280971890572441e-12 4.109545961093504e-11 1.1505219966075918e-10
          3.098858635018238e-11 8.478540631661193e-11 1.7324836128487132e-11 4.713244635973641e-11 5.4820782423419944e-12 1.54595290107622e-11
          2.408446500998707e-12 5.682129774083717e-12 1.694121342583863e-12 2.2333095385073727e-12 1.6569421720063845e-12 1.6061221538518595e-12
          1.6397995076126745e-12 1.6210668287765406e-12 1.635071042762944e-12 1.6265188855422113e-12 1.634164795137049e-12 1.6276861600413378e-12
          2.841686691258877e-9 1.6822771683010733e-9 1.570694211687858e-9 9.726836300748103e-10 2.1452946437742544e-10 2.1057335272603074e-10
          9.071830369137602e-11 8.061506944579926e-11 2.9434176426158575e-11 2.6853855206094837e-11 5.483136030665309e-12 5.693224860104199e-12
          1.628653146113081e-12 1.6330089520406006e-12 1.6870069030601887e-12 1.6633645592119705e-12 1.7003053068415472e-12 1.6721527984646705e-12
          1.7020647192227816e-12 1.673218997027932e-12 5.228676453432703e-10 3.7467304846176247e-10 2.0661724107463605e-10 7.051183520022252e-11
          2.4273533986031102e-11 5.903313689543088e-12 1.6373647579681203e-12 1.6397222153637527e-12 1.644000290087794e-12 1.6443732748330829e-12
          8.966730345165563e-10 9.01610757806036e-10 3.627697088867095e-10 3.427599673274814e-10 1.239094611040497e-10 1.1829793301549385e-10
          2.4511024789012988e-11 2.5666366816900618e-11 3.5692796092532104e-12 3.6102324530909513e-12 1.897959356155951e-12 1.8468591362096043e-12
          1.5643407704685073e-12 1.4974456756166732e-12 1.5116774466271165e-12 1.4418140471456552e-12 9.065484810955156e-10 3.227502257682533e-10
          1.1268640492693802e-10 2.6821708844788245e-11 3.651185296928692e-12 1.7957589162632576e-12 1.4305505807648391e-12 1.3719506476641942e-12
          1.8039650826533327e-9 2.2977864087617806e-9 6.998914504153639e-10 7.970189518227169e-10 1.6692624156632976e-10 2.776699753542305e-10
          2.4677066364795408e-11 5.749117636291332e-11 6.497062613855917e-12 6.461686290548557e-12 2.275669913091557e-12 2.192331691714833e-12
          1.4692591928699682e-12 1.3792644483358954e-12 1.3401260642378186e-12 1.2487963466688892e-12 3.267926938340636e-9 1.0829390615656518e-9
          3.8148715903497114e-10 8.752915327679167e-11 6.426309967241197e-12 2.1089934703381097e-12 1.2892697038018227e-12 1.1574666290999597e-12
          1.85883313155272e-8 1.4114289273109412e-8 4.0163833610450085e-9 5.675297302464163e-10 1.0941233180779371e-9 1.016630456633486e-11
          5.1249916611242316e-11 4.539887396640812e-12 5.475998401922446e-12 1.9674666576687062e-12 1.8195473877341203e-12 1.125704651673874e-12
          9.855953454784546e-13 1.0017496030128158e-12 8.579695195343305e-13 3.1161216659789766e-9 1.0628038870187985e-9 3.718160695503248e-10
          7.159972817867114e-11 6.392160649981926e-12 1.671628117799534e-12 8.45486039283035e-13 7.141894360558453e-13 3.843961643275789e-7
          1.6821083537345174e-8 5.190645749887823e-9 1.5568541395445862e-11 1.3570909125910641e-12 3.581108975759394e-12 1.4056079620685259e-12
          1.2226424043653955e-12 6.588317246361063e-13 4.8116585263705e-13 5.641996714442356e-13 3.770037779819283e-13 1.75848495920313e-9
          7.998301016643078e-10 1.2493213740405073e-10 7.942074574262302e-12 5.514644579099936e-12 1.0396768466622653e-12 3.0349998063799364e-13
          1.8980788451962107e-13 1.731867524436129e-8 2.52823241716119e-7 8.279570566624188e-8 1.6300205048992944e-8 2.8690368401971403e-7
          1.1494223256279038e-8 8.354419086224188e-9 1.6550223730610316e-7 3.462200911455342e-8 5.220050373071241e-9 7.402188916264494e-9
          7.971616101827469e-9 5.164686537080647e-9 1.7636775578324403e-7 1.0668082743972645e-8 1.9496276003538783e-9 3.1377563543388773e-9
          1.0135832685557112e-9 3.3782684136700117e-9 3.191941093194621e-9 9.93593572586899e-10 7.390867669782836e-11 1.265823203593359e-10
          8.748235435367429e-11 1.9862573992555936e-11 2.1335731270920795e-12 1.2399215335910348e-11 1.5100970444894676e-10 1.1222942289650742e-10
          2.3244897586958698e-11 1.0299840214135823e-11 4.992044211212449e-11 2.909524674631069e-7 2.0263031374462622e-7 4.910001711355645e-7
          4.082868085521645e-7 1.6979696696096706e-7 5.541605318077367e-7 4.363933582469245e-7 1.2852115377093663e-7 2.2927227180466353e-7
          1.895743645203566e-7 3.1025952032614753e-7 5.196898172189788e-7 5.889301389474918e-7 3.353631685658498e-7 2.1062561165005278e-7
          1.350589037635343e-7 6.292237477006573e-7 4.6317163805302437e-7 1.0025321711175613e-7 7.13757746418925e-7 4.852143537054386e-7
          6.745303634029771e-8 1.4779601366131433e-7 1.0653884686125338e-7 2.5637968880368366e-7 6.698628291842931e-7 7.566292334206201e-7
          2.3325537594933263e-7 2.8901026064024096e-9 2.756399522652186e-9 1.6805898374875708e-9 6.4847275784827185e-9 5.150305410431673e-9
          2.622696438901962e-9 8.381730097805917e-9 3.8158832423806285e-9 1.5564075489394178e-9 1.0589102814766018e-9 4.497410354238774e-9
          3.1345062349735187e-9 6.305752456536358e-10 2.4068821159289568e-9 1.8682485615591083e-9 5.614130140137861e-10 1.7716021157082626e-9
          1.3296150071892594e-9 3.3212193625747265e-10 3.3802799716931996e-10 1.0388135891570762e-9 1.0137063787397407e-9 1.40145695079395e-10
          4.0893356356012486e-10 4.0311797634246003e-10 3.439340580811673e-10 9.885991683224052e-10 3.973023891247952e-10 2.2148951592741472e-11
          2.6637344435751528e-11 7.543178043565933e-11 7.299245142052757e-11 1.0781808112469813e-11 1.4355610911763462e-11 2.160211614707859e-11
          3.1125737278761587e-11 7.055312240539583e-11 2.8848621382393717e-11 2.2493898831938632e-12 2.043630862273732e-12 2.011598730778242e-12
          2.1359449297933762e-12 1.020247505459072e-12 8.183898349439092e-13 9.835798220799563e-13 1.8378718413536006e-12 2.26029112880851e-12
          1.1487698092160034e-12 1.7738075783626204e-12 2.2282589973130204e-12 9.469121387008407e-13 2.6827104162634204e-12 1.595954226487459e-9
          3.4303347396421978e-9 2.6998889242236988e-9 4.276547605686359e-9 1.2925441573097658e-9 1.7401568738614235e-9 5.398044117546533e-10
          9.881226876242751e-10 1.465838475556278e-9 6.447367567429225e-10 3.8038236219599385e-9 5.122760471730522e-9 2.1877695904130814e-9
          1.4364409634938967e-9 1.0149548207294207e-9 1.012065061793907e-9 4.0129720139305196e-10 3.836835860965779e-10 4.0877077706511396e-10
          3.75580153317098e-10 1.4568575668187036e-10 1.009175302858393e-9 3.660699708001038e-10 3.423895295690821e-10 6.120140390951039e-11
          5.260831946933594e-11 2.7228085853578026e-11 1.94131050507383e-11 2.923117932731122e-11 2.1332355492661323e-11 1.132538488131074e-11
          4.401523502916149e-11 1.1598124247898572e-11 1.3433531658011423e-11 2.803744572983837e-8 2.1593897281951836e-8 1.754969489276312e-7
          1.2949600520965323e-7 1.9557821555735254e-8 1.3964059781532487e-7 1.0134110353693774e-7 1.51503488340653e-8 8.349506149167529e-8
          6.304160925855059e-8 2.188573950836883e-8 1.5884665060866347e-8 1.0196710078079888e-7 7.250670982554887e-8 1.0987416915402675e-8
          6.565007262195032e-8 4.492054058526112e-8 9.88359061336386e-9 4.304631887029888e-8 2.419100854857193e-8 1.4419114924761182e-8
          2.652219638451377e-8 2.8188560424439902e-8 5.037358902461539e-8 1.5564025480706286e-8 2.1143762680623515e-8 4.432967192474145e-9
          6.949543944780653e-9 1.0827720901506228e-8 5.8382488924355076e-9 4.195800592411863e-8 7.422498166471702e-8 2.6723499880540747e-8
          9.466120697087162e-9 1.842996571035761e-11 1.581167816734169e-11 2.2212764926614746e-11 2.8613851685887797e-11 1.613045116642911e-12
          3.989226148447777e-12 2.6102624019450793e-12 6.316796852434628e-12 2.599566687877959e-7 2.3616848431202098e-7 3.52742569538922e-7
          3.2734430252763144e-7 2.3398096006994514e-7 3.617651003081515e-7 3.339809844712571e-7 1.7227452548110643e-7 2.525096767011101e-7
          2.5344333119315484e-7 4.634137139747956e-7 4.560549744803598e-7 4.806541982311921e-7 3.942703429210962e-7 2.5662255488947044e-7
          2.3057091027865086e-7 3.7049376895518046e-7 3.400837882184929e-7 2.2573046367617942e-7 3.7875078609862716e-7 3.454797180077364e-7
          1.6264852924168836e-7 2.534543535389782e-7 2.5239365713176347e-7 5.211792634696961e-7 5.071831525549766e-7 5.357536780547492e-7
          4.223602003774106e-7 3.8199171171354353e-7 4.435596564587503e-7 4.1383907239088164e-7 4.773038543579217e-7 4.7257306749238386e-7
          4.98619643144448e-7 2.826844657675438e-7 3.935294847000229e-7 4.27280321126028e-7 4.893502770636892e-7 4.50758100417619e-7
          5.156079468591479e-7 4.939725300312167e-7 5.59288812490085e-7 5.266474415294786e-7 5.566995447908039e-7 3.43522656916736e-7
          4.6644625476667765e-7 5.122992412099649e-7 5.528346601404043e-7 2.470498749396059e-7 2.1928871749589814e-7 3.862978935613132e-7
          3.4993525166870694e-7 2.109800317859009e-7 3.9304552006387734e-7 3.532829833762011e-7 1.4925399449790124e-7 2.500557217830418e-7
          2.462138486596234e-7 5.902939016624654e-7 5.665001927888146e-7 5.991184341812837e-7 4.5013174073085294e-7 2.2876148555402808e-7
          2.0052405673717587e-7 3.989111277071023e-7 3.553502525014265e-7 1.8768128005055805e-7 4.0359770710121724e-7 3.558345948078873e-7
          1.3172154310348872e-7 2.4061076792647126e-7 2.329517202107329e-7 6.704351002651959e-7 6.332233562460134e-7 6.687414945288995e-7
          4.750314104739626e-7 5.434421996455713e-7 6.086255908975888e-7 4.867698155035487e-7 6.073037102628256e-7 5.888014662713102e-7
          6.223837304539662e-7 4.3184250814923236e-7 5.64832582059064e-7 5.120364671820557e-7 6.281969001490968e-7 4.261912541818173e-7
          6.068215681876537e-7 6.566503522189113e-7 6.914036351892121e-7 4.564997903971e-7 7.127378762393513e-7 2.3493085067339274e-7
          3.6492996109317346e-7 1.90724630879275e-7 4.1839036688576637e-7 9.288981706780547e-8 1.4979465861613727e-7 6.973901858141222e-8
          1.1640534203539913e-7 1.3336441895631029e-8 1.9295114823902623e-8 1.8449152700250632e-8 2.0669950016446903e-7 1.6307166548938607e-7
          2.5253787752174218e-8 4.737643446110816e-8 8.24217979231361e-8 9.53470449445467e-9 1.5455830216066827e-8 1.1746716138516404e-7
          2.1376955937678988e-8 9.950085378901035e-8 1.526055697812864e-7 9.399604314411994e-8 1.4857108295566502e-7 6.68329564520539e-8
          1.0213782167669351e-7 9.645237215938298e-8 2.615671881186222e-7 2.6225786648923216e-7 1.8328992538097595e-7 8.83969688823277e-8
          1.4392121375452918e-7 8.25203546245642e-8 1.3850337033765759e-7 5.601614494910995e-8 9.060752791290733e-8 8.442807632863399e-8
          2.6183565785755494e-7 2.6011354493112655e-7 1.721379566005458e-7 3.4841649789379286e-7 3.550997143723733e-7 2.5681446200677496e-7
          2.537287787808124e-7 3.7940890532390374e-7 3.888298185334924e-7 2.8449176015293117e-7 3.6088859216309585e-7 3.6548963389418136e-7
          2.489400945679113e-7 2.4218527315570793e-7 3.9755132723781255e-7 4.052385639768607e-7 2.788031868114357e-7 7.634720841452349e-8
          1.3222356566239434e-7 7.007635050732343e-8 1.2508782081652335e-7 4.5713987885434894e-8 7.79082975348057e-8 7.126839100232498e-8
          2.568476695565566e-7 2.5176720856828094e-7 1.5613834156657143e-7 6.396917830991918e-8 1.1711881666581853e-7 5.830079036607261e-8
          1.0834646820613877e-7 3.6781898333184624e-8 6.480547477444532e-8 5.886097850536902e-8 2.445735566463219e-7 1.3509590457154935e-7
          3.685288456568492e-7 3.6969104389005316e-7 2.3326374092068476e-7 2.218785119560551e-7 4.114622751108505e-7 4.1594696176926765e-7
          2.6435340589240323e-7 3.686605887392397e-7 2.0775191684188442e-7 4.1844251920755347e-7 2.3814107575637612e-7 6.843853946655204e-8
          6.16903739071322e-8 6.571815667753413e-8 6.974593944793605e-8 6.29977738885162e-8 7.181168381006708e-8 7.436932614165684e-8
          8.429351608568186e-8 7.69269684732466e-8 6.14590027634186e-8 6.889880579621697e-8 5.359305866797433e-8 7.035670334359837e-8
          7.633860882901533e-8 8.714087272608645e-8 5.11063217167701e-8 6.342828545077708e-8 5.649725585532134e-8 7.575024918478407e-8
          3.6145719208176612e-12 3.996086289562009e-12 3.0968845910035415e-12 4.245499555796662e-12 2.2143490656508344e-12 1.442607503758266e-12
          2.3823384759902294e-12 4.377600658306357e-12 5.394114520589781e-12 3.322069448222193e-12 2.3834054396588514e-10 1.4604119153655605e-10
          6.058347515656542e-10 3.7888123670158296e-10 5.374183910722694e-11 1.5192772183751177e-10 2.4031753296063117e-9 1.5515668653003169e-9
          6.999584009943216e-10 9.515254891776974e-9 1.1500520388526903e-8 6.934448969265092e-9 6.365121548301851e-9 6.356221435665292e-9
          4.005256371226255e-9 2.368377550003282e-9 3.2149882048267276e-9 1.6542913067872184e-9 7.917248522289773e-9 7.991221606929328e-9
          8.502728399718219e-9 5.749394134196425e-8 9.42208881735683e-9 3.367748710904982e-8 3.839269060558601e-8 1.3898731706697972e-7
          3.2323725392278984e-8 5.199354303831164e-9 1.842392914144375e-8 9.299800402497003e-9 8.840765250151462e-9 1.68964388510029e-8
          1.536894856056205e-8 2.1295572639619288e-8 6.13854430055355e-8 2.1591831005202147e-8 2.0756747247643733e-7 1.535805099802219e-7
          9.959354748400648e-8 3.2399351398350156e-7 2.313379622653132e-7 2.377266210915392e-7 3.435449750832636e-7 3.203686262139715e-7
          2.5080374972500614e-7 4.3822673932495144e-7 4.33229777306145e-7 3.798309640031778e-7 3.542634125044778e-7 4.1381603475831683e-7
          4.4840321474875603e-7 2.594295664308045e-7 3.641831462407474e-7 4.6164526536578396e-7 7.552832044712792e-9 7.835650643060358e-9
          2.6260275805178836e-9 2.4407606532853736e-9 1.7756619659708076e-8 8.118469241407923e-9 2.255493726052863e-9 1.125829397350898e-7
          2.642384124532116e-7 1.7895475574675035e-7 1.790397165747898e-8 3.769098039763225e-7 2.453265717584109e-7 1.0605537251155727e-7
          1.5660902688948178e-7 1.0880283167363059e-7 2.5995019889470933e-7 3.411318741808447e-7 2.5882597587633315e-7 3.69526031839677e-7
        </DataArray>
        <DataArray type="Float64" Name="gradient_matprop_error" format="ascii" RangeMin="0" RangeMax="0">
          0 0 0 0 0 0
          0 0 0 0 0 0
          0 0 0 0 0 0
          0 0 0 0 0 0
          0 0 0 0 0 0
          0 0 0 0 0 0
          0 0 0 0 0 0
          0 0 0 0 0 0
          0 0 0 0 0 0
          0 0 0 0 0 0
          0 0 0 0 0 0
          0 0 0 0 0 0
          0 0 0 0 0 0
          0 0 0 0 0 0
          0 0 0 0 0 0
          0 0 0 0 0 0
          0 0 0 0 0 0
          0 0 0 0 0 0
          0 0 0 0 0 0
          0 0 0 0 0 0
          0 0 0 0 0 0
          0 0 0 0 0 0
          0 0 0 0 0 0
          0 0 0 0 0 0
          0 0 0 0 0 0
          0 0 0 0 0 0
          0 0 0 0 0 0
          0 0 0 0 0 0
          0 0 0 0 0 0
          0 0 0 0 0 0
          0 0 0 0 0 0
          0 0 0 0 0 0
          0 0 0 0 0 0
          0 0 0 0 0 0
          0 0 0 0 0 0
          0 0 0 0 0 0
          0 0 0 0 0 0
          0 0 0 0 0 0
          0 0 0 0 0 0
          0 0 0 0 0 0
          0 0 0 0 0 0
          0 0 0 0 0 0
          0 0 0 0 0 0
          0 0 0 0 0 0
          0 0 0 0 0 0
          0 0 0 0 0 0
          0 0 0 0 0 0
          0 0 0 0 0 0
          0 0 0 0 0 0
          0 0 0 0 0 0
          0 0 0 0 0 0
          0 0 0 0 0 0
          0 0 0 0 0 0
          0 0 0 0 0 0
          0 0 0 0 0 0
          0 0 0 0 0 0
          0 0 0 0 0 0
          0 0 0 0 0 0
          0 0 0 0 0 0
          0 0 0 0 0 0
          0 0 0 0 0 0
          0 0 0 0 0 0
          0 0 0 0 0 0
          0 0 0 0 0 0
          0 0 0 0 0 0
          0 0 0 0 0 0
          0 0 0 0 0 0
          0 0 0 0 0 0
          0 0 0 0 0 0
          0 0 0 0 0 0
          0 0 0 0 0 0
          0 0 0 0 0 0
          0 0 0 0 0 0
          0 0 0 0 0 0
          0 0 0 0 0 0
          0 0 0 0 0 0
          0 0 0 0 0 0
          0 0 0 0 0 0
          0 0 0 0 0 0
          0 0 0 0 0 0
          0 0 0 0 0 0
          0 0 0 0 0 0
          0 0 0 0 0 0
          0 0 0 0 0 0
          0 0 0 0 0 0
          0 0 0 0 0 0
          0 0 0 0 0 0
          0 0 0 0 0 0
          0 0 0 0 0 0
          0 0 0 0 0 0
          0 0 0 0 0 0
          0 0 0 0 0 0
          0 0 0 0 0 0
          0 0 0 0 0 0
          0 0 0 0 0 0
          0 0 0 0 0 0
          0 0 0 0 0 0
          0 0 0 0 0 0
          0 0 0 0 0 0
          0 0 0 0 0 0
          0 0 0 0 0 0
          0 0 0 0 0 0
          0 0 0 0 0 0
          0 0 0 0 0 0
          0 0 0 0 0 0
          0 0 0 0 0 0
          0 0 0 0 0 0
          0 0 0 0 0 0
        </DataArray>
        <DataArray type="Float64" Name="initial_marker" format="ascii" RangeMin="0" RangeMax="2">
          0 0 0 0 0 0
          0 0 0 0 0 0
          0 0 0 0 0 0
          0 0 0 0 0 0
          0 0 0 0 0 0
          0 0 0 0 0 0
          0 0 0 0 0 0
          0 0 0 0 0 0
          0 0 0 0 0 0
          0 0 0 0 0 0
          0 0 0 0 0 0
          0 0 0 0 0 0
          0 0 0 0 0 0
          0 0 0 0 0 0
          0 0 0 0 0 0
          0 0 0 0 0 0
          0 0 0 0 0 0
          0 0 0 0 0 0
          0 0 0 0 0 0
          0 0 0 0 0 0
          0 0 0 0 0 0
          0 0 0 0 0 0
          0 0 0 0 0 0
          0 0 0 0 0 0
          0 0 0 0 0 0
          0 0 0 0 0 0
          0 0 0 0 0 2
          0 0 0 0 0 0
          0 0 0 0 0 0
          0 0 0 0 0 0
          0 0 0 0 0 0
          0 0 0 0 0 0
          0 0 0 0 0 0
          0 0 0 0 0 0
          0 0 0 0 0 0
          0 0 0 0 0 2
          1 0 2 1 0 0
          0 2 1 1 0 0
          0 2 1 0 2 1
          0 0 0 2 1 1
          0 0 0 0 0 0
          0 0 0 0 0 0
          0 0 0 0 0 0
          0 0 0 0 0 0
          0 0 0 0 0 0
          0 0 0 0 0 0
          0 0 0 0 0 0
          0 0 0 0 0 0
          0 0 0 0 0 0
          0 0 0 0 0 0
          0 0 0 0 0 0
          0 0 0 0 0 0
          0 0 0 0 0 0
          0 0 0 0 0 0
          0 0 0 0 0 0
          0 0 0 0 0 0
          0 0 0 0 0 0
          0 0 0 0 0 0
          0 0 0 0 0 0
          0 0 0 0 0 0
          0 0 0 0 0 0
          0 0 0 0 0 1
          0.75 0 1 1 0 0.25
          0.5 2 1.75 2 0.75 0
          0 1 1 0 1 1
          0 0.5 0.5 2 2 2
          1 2 2 2 2 1
          1 2 2 2 1 2
          2 2 2 1 1 2
          2 2 1 0 0 1
          1 0 1 1 0 0.5
          0.5 2 2 2 1 0
          0 1 1 0 1 1
          0 0.5 0.5 2 2 2
          1 2 2 2 2 1
          1 2 2 2 1 2
          2 1 1 2 1 0
          0 0 0 0 0 0
          0 0 0 0 0 0
          0 0 0 0 0 0
          0 0 0 0 0 0
          0 0 0 0 0 0
          0 0 0 0 0 0
          0 0 0 0 0 0
          0 0 0 0 0 0
          0 0 0 0 0 0
          0 0 0 0 0 0
          0 0 0 0 0 0
          0 0 0 0 0 0
          0 0 0 0 0 0
          0 0 0 0 0 2
          2 2 2 2 2 2
          2 2 2 2 2 2
          2 2 2 2 2 2
          0 0 0 0 0 0
          0 0 0 0 0 0
          0 0 0 0 0 0
          0 0 0 0 0 0
          0 0 0 0 0 0
          0 0 0 0 0 0
          0 0 0 0 0 0
          0 0 0 0 0 0
          0 0 0 0 1 0.5
          0 2 1.5 0.5 2 2
          1 2 2 1 0 0
          0 0 0 0 0 0
          0 0 0 0 0 0
          0 0 0 0 0 0
        </DataArray>
        <DataArray type="Float64" Name="markers_norefine" format="ascii" RangeMin="0" RangeMax="0">
          0 0 0 0 0 0
          0 0 0 0 0 0
          0 0 0 0 0 0
          0 0 0 0 0 0
          0 0 0 0 0 0
          0 0 0 0 0 0
          0 0 0 0 0 0
          0 0 0 0 0 0
          0 0 0 0 0 0
          0 0 0 0 0 0
          0 0 0 0 0 0
          0 0 0 0 0 0
          0 0 0 0 0 0
          0 0 0 0 0 0
          0 0 0 0 0 0
          0 0 0 0 0 0
          0 0 0 0 0 0
          0 0 0 0 0 0
          0 0 0 0 0 0
          0 0 0 0 0 0
          0 0 0 0 0 0
          0 0 0 0 0 0
          0 0 0 0 0 0
          0 0 0 0 0 0
          0 0 0 0 0 0
          0 0 0 0 0 0
          0 0 0 0 0 0
          0 0 0 0 0 0
          0 0 0 0 0 0
          0 0 0 0 0 0
          0 0 0 0 0 0
          0 0 0 0 0 0
          0 0 0 0 0 0
          0 0 0 0 0 0
          0 0 0 0 0 0
          0 0 0 0 0 0
          0 0 0 0 0 0
          0 0 0 0 0 0
          0 0 0 0 0 0
          0 0 0 0 0 0
          0 0 0 0 0 0
          0 0 0 0 0 0
          0 0 0 0 0 0
          0 0 0 0 0 0
          0 0 0 0 0 0
          0 0 0 0 0 0
          0 0 0 0 0 0
          0 0 0 0 0 0
          0 0 0 0 0 0
          0 0 0 0 0 0
          0 0 0 0 0 0
          0 0 0 0 0 0
          0 0 0 0 0 0
          0 0 0 0 0 0
          0 0 0 0 0 0
          0 0 0 0 0 0
          0 0 0 0 0 0
          0 0 0 0 0 0
          0 0 0 0 0 0
          0 0 0 0 0 0
          0 0 0 0 0 0
          0 0 0 0 0 0
          0 0 0 0 0 0
          0 0 0 0 0 0
          0 0 0 0 0 0
          0 0 0 0 0 0
          0 0 0 0 0 0
          0 0 0 0 0 0
          0 0 0 0 0 0
          0 0 0 0 0 0
          0 0 0 0 0 0
          0 0 0 0 0 0
          0 0 0 0 0 0
          0 0 0 0 0 0
          0 0 0 0 0 0
          0 0 0 0 0 0
          0 0 0 0 0 0
          0 0 0 0 0 0
          0 0 0 0 0 0
          0 0 0 0 0 0
          0 0 0 0 0 0
          0 0 0 0 0 0
          0 0 0 0 0 0
          0 0 0 0 0 0
          0 0 0 0 0 0
          0 0 0 0 0 0
          0 0 0 0 0 0
          0 0 0 0 0 0
          0 0 0 0 0 0
          0 0 0 0 0 0
          0 0 0 0 0 0
          0 0 0 0 0 0
          0 0 0 0 0 0
          0 0 0 0 0 0
          0 0 0 0 0 0
          0 0 0 0 0 0
          0 0 0 0 0 0
          0 0 0 0 0 0
          0 0 0 0 0 0
          0 0 0 0 0 0
          0 0 0 0 0 0
          0 0 0 0 0 0
          0 0 0 0 0 0
          0 0 0 0 0 0
          0 0 0 0 0 0
          0 0 0 0 0 0
          0 0 0 0 0 0
          0 0 0 0 0 0
        </DataArray>
        <DataArray type="Float64" Name="markers_mustrefine" format="ascii" RangeMin="0" RangeMax="2">
          0 0 0 0 0 0
          0 0 0 0 0 0
          0 0 0 0 0 0
          0 0 0 0 0 0
          0 0 0 0 0 0
          0 0 0 0 0 0
          0 0 0 0 0 0
          0 0 0 0 0 0
          0 0 0 0 0 0
          0 0 0 0 0 0
          0 0 0 0 0 0
          0 0 0 0 0 0
          0 0 0 0 0 0
          0 0 0 0 0 0
          0 0 0 0 0 0
          0 0 0 0 0 0
          0 0 0 0 0 0
          0 0 0 0 0 0