<?xml version="1.0"?>
<VTKFile type="UnstructuredGrid" version="0.1" byte_order="LittleEndian" header_type="UInt32" compressor="vtkZLibDataCompressor">
  <UnstructuredGrid>
    <Piece NumberOfPoints="553" NumberOfCells="331">
      <PointData>
        <DataArray type="Int32" Name="libmesh_node_id" format="ascii" RangeMin="584" RangeMax="5266">
          584 585 586 594 1225 1226
          1227 1228 1229 1230 1231 1235
          1236 1237 1239 1240 1241 1242
          1249 1250 1255 1569 1570 1572
          1573 2196 2197 2198 2201 2204
          2208 2209 2211 2214 2216 2217
          2218 2219 2220 2221 2222 2223
          2224 2225 2226 2227 2228 2229
          2232 2240 2242 2243 2244 2246
          2250 2251 2252 2253 2254 2255
          2256 2257 2258 2259 2260 2261
          2262 2263 2274 2275 2276 2277
          2278 2279 2280 2281 2282 2308
          2309 2310 2311 2314 2315 2316
          2332 2333 2336 2338 2339 2341
          2356 2507 2508 2509 2510 2511
          2512 2513 2514 2515 2516 2535
          4331 4332 4333 4336 4339 4353
          4354 4357 4359 4371 4372 4373
          4374 4375 4376 4377 4378 4379
          4380 4388 4389 4390 4391 4392
          4393 4394 4395 4396 4397 4398
          4399 4400 4401 4402 4403 4404
          4405 4406 4407 4408 4409 4410
          4411 4412 4413 4414 4415 4416
          4417 4418 4419 4420 4421 4422
          4423 4424 4425 4426 4427 4428
          4429 4430 4431 4432 4433 4434
          4435 4436 4437 4438 4439 4440
          4441 4442 4443 4444 4445 4446
          4447 4448 4449 4450 4451 4452
          4453 4454 4455 4456 4457 4458
          4459 4460 4461 4462 4463 4464
          4465 4466 4467 4468 4469 4470
          4471 4472 4473 4474 4475 4476
          4495 4504 4505 4508 4509 4531
          4532 4533 4534 4535 4536 4537
          4538 4539 4541 4542 4543 4544
          4545 4546 4547 4548 4549 4550
          4551 4552 4553 4554 4555 4556
          4557 4558 4559 4560 4561 4562
          4563 4564 4565 4566 4567 4568
          4569 4570 4571 4572 4573 4574
          4575 4576 4577 4578 4579 4580
          4581 4582 4583 4584 4585 4586
          4587 4588 4601 4602 4604 4617
          4619 4657 4658 4659 4660 4661
          4662 4663 4664 4665 4666 4667
          4668 4669 4670 4671 4672 4673
          4674 4675 4676 4677 4678 4679
          4680 4681 4682 4683 4684 4685
          4686 4687 4688 4689 4690 4691
          4692 4693 4694 4695 4696 4699
          4701 4702 4703 4704 4705 4706
          4707 4708 4709 4710 4712 4716
          4718 4719 4722 4723 4733 4781
          4782 4788 4789 4790 4791 4906
          4907 4909 4912 4914 4915 4916
          4917 4918 4919 4920 4921 4922
          4923 4925 4929 4931 4932 4935
          4936 4940 4941 4943 4946 4948
          4949 4950 4951 4952 4953 4954
          4955 4956 4957 4959 4963 4965
          4966 4969 4970 5084 5085 5086
          5087 5088 5089 5090 5091 5092
          5093 5104 5105 5106 5107 5108
          5109 5110 5121 5122 5123 5124
          5125 5126 5127 5128 5129 5130
          5141 5142 5143 5144 5145 5146
          5147 5179 5180 5181 5182 5183
          5184 5186 5187 5188 5189 5190
          5206 5207 5210 5212 5213 5215
          5226 5228 5230 5232 5240 5241
          5244 5246 5247 5249 5260 5262
          5264 5266 1232 1234 1233 2241
          2233 2245 2236 2247 2248 587
          2249 4507 4506 2238 4510 4540
          4599 4600 4603 4605 2266 4607
          4606 2267 4608 4616 4618 4621
          4620 2269 4622 4635 4636 4638
          1253 4697 4698 4641 4700 2272
          4711 4651 4713 4653 4714 4715
          4655 2283 4717 4720 4721 4724
          1256 4732 4735 4734 4737 4736
          2285 4738 4783 4784 4785 4786
          4787 2291 4792 4793 4794 2292
          4805 4761 4806 4812 4813 4904
          4905 4908 4910 4911 4913 4924
          4927 4926 4928 2312 4930 4933
          4934 4937 2313 4938 4939 4942
          4944 4945 4947 4958 4961 4960
          4962 2317 4964 4967 4968 4971
          1261
        </DataArray>
        <DataArray type="Float64" Name="bounds" format="ascii" RangeMin="0" RangeMax="0">
          0 0 0 0 0 0
          0 0 0 0 0 0
          0 0 0 0 0 0
          0 0 0 0 0 0
          0 0 0 0 0 0
          0 0 0 0 0 0
          0 0 0 0 0 0
          0 0 0 0 0 0
          0 0 0 0 0 0
          0 0 0 0 0 0
          0 0 0 0 0 0
          0 0 0 0 0 0
          0 0 0 0 0 0
          0 0 0 0 0 0
          0 0 0 0 0 0
          0 0 0 0 0 0
          0 0 0 0 0 0
          0 0 0 0 0 0
          0 0 0 0 0 0
          0 0 0 0 0 0
          0 0 0 0 0 0
          0 0 0 0 0 0
          0 0 0 0 0 0
          0 0 0 0 0 0
          0 0 0 0 0 0
          0 0 0 0 0 0
          0 0 0 0 0 0
          0 0 0 0 0 0
          0 0 0 0 0 0
          0 0 0 0 0 0
          0 0 0 0 0 0
          0 0 0 0 0 0
          0 0 0 0 0 0
          0 0 0 0 0 0
          0 0 0 0 0 0
          0 0 0 0 0 0
          0 0 0 0 0 0
          0 0 0 0 0 0
          0 0 0 0 0 0
          0 0 0 0 0 0
          0 0 0 0 0 0
          0 0 0 0 0 0
          0 0 0 0 0 0
          0 0 0 0 0 0
          0 0 0 0 0 0
          0 0 0 0 0 0
          0 0 0 0 0 0
          0 0 0 0 0 0
          0 0 0 0 0 0
          0 0 0 0 0 0
          0 0 0 0 0 0
          0 0 0 0 0 0
          0 0 0 0 0 0
          0 0 0 0 0 0
          0 0 0 0 0 0
          0 0 0 0 0 0
          0 0 0 0 0 0
          0 0 0 0 0 0
          0 0 0 0 0 0
          0 0 0 0 0 0
          0 0 0 0 0 0
          0 0 0 0 0 0
          0 0 0 0 0 0
          0 0 0 0 0 0
          0 0 0 0 0 0
          0 0 0 0 0 0
          0 0 0 0 0 0
          0 0 0 0 0 0
          0 0 0 0 0 0
          0 0 0 0 0 0
          0 0 0 0 0 0
          0 0 0 0 0 0
          0 0 0 0 0 0
          0 0 0 0 0 0
          0 0 0 0 0 0
          0 0 0 0 0 0
          0 0 0 0 0 0
          0 0 0 0 0 0
          0 0 0 0 0 0
          0 0 0 0 0 0
          0 0 0 0 0 0
          0 0 0 0 0 0
          0 0 0 0 0 0
          0 0 0 0 0 0
          0 0 0 0 0 0
          0 0 0 0 0 0
          0 0 0 0 0 0
          0 0 0 0 0 0
          0 0 0 0 0 0
          0 0 0 0 0 0
          0 0 0 0 0 0
          0 0 0 0 0 0
          0
        </DataArray>
        <DataArray type="Float64" Name="gradient_error" format="ascii" RangeMin="1.4711730275080433e-12" RangeMax="1.5187589364938525e-8">
          9.781309463441624e-12 4.862403223068524e-11 9.807855592020939e-11 2.8195146962867926e-9 1.1454468761509518e-11 1.829372638917246e-11
          3.9083291120450844e-11 2.6096877416815095e-11 1.2579720428645733e-11 1.0565906990073908e-11 1.0972324834845319e-11 1.128957131725037e-9
          2.595720040068692e-10 2.5813150959897136e-11 5.346443762075184e-12 4.841293752308686e-12 4.530738948584726e-12 4.424305039768642e-12
          1.0921339783260846e-11 1.026575107170863e-11 1.2708033844443347e-9 2.768206976355452e-11 2.761372504102131e-11 1.3780991982271066e-11
          1.5564557349669914e-11 5.3549778630925815e-12 2.7721905297800333e-11 2.412166644962898e-11 1.8932153659501446e-11 3.158547305319604e-11
          1.6510797034985e-10 1.1793933101518604e-10 4.9905761244370415e-11 7.812320133980375e-10 1.4543938885606605e-11 1.1598314090947364e-11
          5.408886726156851e-11 3.873545012065896e-11 9.169377643721148e-12 1.869224925965025e-11 1.3882610212978463e-11 1.6918870528452427e-11
          2.183560456719957e-11 1.0605302501976712e-11 3.679683334701003e-10 2.536250045194961e-10 6.809382800309387e-11 8.518614467623875e-11
          2.5002123841668104e-11 2.1676719257383283e-11 7.675960995108602e-12 1.0683924486533583e-11 9.731977469091854e-12 8.963132818903067e-12
          1.3215553709798632e-11 1.0487010433907024e-11 9.074188912741028e-12 9.085906751419533e-12 3.1433934504557292e-12 3.5142741037511252e-12
          5.005501763504999e-12 5.570330939030753e-12 9.075635776559555e-12 5.6493154363658035e-12 2.1808149692772446e-11 1.6775511723777552e-11
          1.0312961299081492e-11 1.3108288611777835e-11 1.6654345084994598e-9 1.1460426850011376e-9 4.410964242245293e-10 3.017949809699034e-10
          3.479090024319723e-10 9.467534153857455e-11 4.653343634861473e-9 3.332246860023505e-9 8.829512700503895e-10 8.098041546861516e-9
          6.167945887547156e-9 2.3268933923821536e-9 1.6692304589816073e-9 9.556784660288834e-9 7.516099746856042e-9 2.0577318860457843e-9
          9.461644836570685e-11 6.529319814037233e-11 2.3795750493492412e-11 2.70763919666201e-10 1.8709095458734168e-10 5.860603395530398e-11
          1.1886632564079255e-11 2.534230327171231e-12 2.9877445817449125e-12 1.125324751452133e-11 9.657911653686736e-12 2.004051289559225e-12
          5.720699906523169e-12 5.070131785297829e-12 3.441258836318593e-12 8.062575792852138e-12 4.4195636640724904e-12 6.29808713228756e-12
          2.511752643492156e-11 5.581688518339491e-11 5.159164071644256e-11 4.0961163023055365e-11 1.517636676904134e-10 1.5020681651463432e-11
          2.8224981032709216e-11 1.9767785989714847e-11 7.826246781640385e-11 7.372347693196653e-10 6.754647549252436e-10 4.5236299142894464e-10
          4.1398615129633486e-10 5.176437038744377e-10 3.1645083297874015e-10 1.828103200938537e-9 1.6739866952571566e-9 1.0317477897286407e-9
          1.2730806266914823e-9 3.3334769821363283e-10 2.0340504983874352e-10 1.8577359792454026e-10 1.1316240571599641e-10 7.992996688362612e-10
          4.884358138377088e-10 4.260180209091596e-10 1.5777327483167105e-11 1.4662168366400934e-11 3.261461677690603e-11 3.016506723230549e-11
          8.491165397759867e-12 1.834775011116189e-11 1.698954523162464e-11 1.187727756299903e-11 2.3986563491194927e-11 1.353018629815187e-11
          9.662494800851995e-11 8.880499036171766e-11 4.97358805223113e-11 6.903424491160201e-11 5.424021271885144e-12 5.037413703643508e-12
          9.874001810618298e-12 9.143343414696852e-12 3.8918801530075595e-12 6.772140199270957e-12 6.267086522568031e-12 4.058869711736102e-12
          7.309921724558165e-12 5.0209429292899686e-12 2.895518293782584e-11 2.6650945395037455e-11 1.6680242755555646e-11 2.0832421723999902e-11
          8.985115196613098e-12 1.6509904242903386e-11 5.160819488325641e-12 9.342345166521049e-12 7.762684516862904e-12 1.2762199191121846e-11
          7.255658088825753e-12 4.569414182984583e-11 2.5715391471321046e-11 3.1748545011148515e-11 3.0210178864315633e-12 5.112937761226344e-12
          2.335745143424174e-12 3.6156197626407885e-12 2.575102484792794e-12 4.018717092111762e-12 2.9513865125667436e-12 1.3952746611067122e-11
          8.899362381836875e-12 9.854628191345644e-12 2.6455857637455996e-10 2.419909870231763e-10 1.4759442096722676e-10 1.3501843836267502e-10
          1.8487730661667726e-10 1.0328433065380808e-10 6.614543356196889e-10 6.037197744826669e-10 3.3566714321515635e-10 4.5613761781399515e-10
          7.873494065061721e-11 7.207944484384154e-11 4.008233202353454e-11 3.6742621084039316e-11 5.529388277454343e-11 2.8310569500570024e-11
          1.9462810653547086e-10 1.7758006045894452e-10 8.957232270660303e-11 1.3445159689579026e-10 1.1889740789822336e-10 6.664349605105036e-11
          6.615371277032412e-11 3.7186689767354146e-11 2.8508833165919656e-10 1.590626689691844e-10 1.518113846140953e-10 3.590517642957509e-11
          1.8479131918357448e-11 2.0080221788455682e-11 1.2221647203501887e-11 8.497962133753809e-11 4.342560290866562e-11 4.588394129960881e-11
          2.8667809319543685e-11 9.371404937676263e-11 5.683380416783687e-11 2.0366584417650508e-10 1.2393126706408305e-10 2.0211825297756474e-11
          3.3148270944444366e-11 1.1451008856502652e-11 1.8722566306825144e-11 1.3787668664873518e-11 2.1452716583125223e-11 1.2232539631549848e-11
          7.261397672102677e-11 4.097271906388161e-11 6.466833220363436e-12 1.0159039680069671e-11 4.808186359064926e-12 7.064054790768284e-12
          4.544497119456963e-12 6.8041721303572155e-12 4.9432379312687805e-12 2.2120472765179895e-11 1.3619668801220571e-11 1.4061126197055987e-11
          1.073764270588679e-11 9.999067419886544e-12 1.937739844913096e-11 1.7790032123140678e-11 4.722441725033537e-12 8.995996045730926e-12
          8.223108479780573e-12 7.987440957001635e-12 1.3755607830753341e-11 7.365932429067239e-12 4.7212863335486364e-11 4.3201043792419037e-11
          1.988937046693387e-11 3.3025138991625274e-11 2.21772989077771e-12 2.237619119135555e-12 3.994875748230182e-12 3.702167080574202e-12
          1.4711730275080433e-12 2.381477516758514e-12 2.337713455939162e-12 2.2575083474933996e-12 3.4094584129182224e-12 2.29394939511981e-12
          9.761885377648817e-12 8.85165564779897e-12 5.48095987796828e-12 7.891781174473722e-12 5.5499909792501235e-12 9.043438163542757e-12
          3.796482080673598e-12 5.875890373551688e-12 4.385592178383275e-12 6.778326462729224e-12 4.554425287562105e-12 2.1216520415317304e-11
          1.1999807585153009e-11 1.3905265781322394e-11 2.519266556915667e-9 2.307689831690412e-9 1.7462840708497623e-9 1.0743455245815007e-9
          5.509276971037662e-10 1.4866016839215273e-9 1.3582356677636982e-9 8.288637317486849e-10 7.560261629161696e-10 1.0226015879299119e-9
          5.678510215637145e-10 2.9628004996578883e-9 2.719733190080479e-9 1.5236507145317293e-9 2.0582836732574423e-9 4.375534480787216e-10
          3.988107381588737e-10 2.1926008259935401e-10 1.9989220194485436e-10 2.9961990714801903e-10 1.505988787068615e-10 8.816733062649692e-10
          8.048622836803727e-10 4.022482053091462e-10 6.037024367653063e-10 6.271459656951265e-10 3.486948064037324e-10 3.2174744752857294e-10
          1.7993713865005236e-10 1.2511419468689879e-9 6.949279407226148e-10 6.240614239131166e-10 1.850360309612067e-10 9.38997199713568e-11
          9.653539528123157e-11 4.960972589707669e-11 3.6697681758070196e-10 1.8475808826477322e-10 1.8545275243794535e-10 5.1912670126003354e-9
          4.807321452673126e-9 2.9618966836738424e-9 2.726790240885423e-9 3.690187195124665e-9 2.069370052885492e-9 4.323969073491809e-9
          1.5808968135668829e-9 1.4494074068735663e-9 7.931167555369051e-10 7.252605729494071e-10 1.0923396818706332e-9 5.449595223396615e-10
          2.5158773411388184e-9 2.3223336906787913e-9 1.1676949493236831e-9 1.7682980565899949e-9 1.250064717103976e-9 2.0201804972100733e-9
          6.589967874882888e-10 3.3015813556332374e-10 1.0656791914108919e-9 5.324901295311343e-10 2.502610496830147e-10 1.4678014323117606e-10
          8.269792656458348e-11 4.467795768111014e-11 2.3201070641734973e-11 2.7185400665158196e-11 1.430869330866186e-11 6.4853678390154654e-9
          6.095165267250155e-9 4.789202765130799e-9 7.698601780363535e-9 3.5621594945644637e-9 3.3159611985718915e-9 1.816464528356769e-9
          1.6794273453070837e-9 2.55990529831511e-9 1.2819300856064324e-9 4.518354928928448e-9 4.241995895741467e-9 2.164947138378797e-9
          3.321311029704598e-9 2.9281855454784693e-9 3.809005422040125e-9 1.548272515739431e-9 7.730470393455351e-10 2.019906452026278e-9
          1.0088515594082666e-9 9.179756602116823e-9 8.803690704472557e-9 7.156841678836143e-9 9.195620368590364e-9 5.182517754151082e-9
          4.8970297045619676e-9 2.68893332837718e-9 2.513808038365629e-9 3.8751654066226005e-9 1.9532269370536462e-9 5.4190711527618195e-9
          5.132980507236804e-9 2.640637110178298e-9 4.078018243839813e-9 4.45456471086171e-9 4.692046581815952e-9 2.367857507848051e-9
          1.1833489217347164e-9 2.4963512366361725e-9 1.2479138404590727e-9 1.0458877500865348e-10 9.549345167394511e-11 4.764823405258023e-11
          4.35757765138173e-11 7.235662710504314e-11 3.322505645788977e-11 2.093295507599754e-10 1.9088579970196295e-10 8.635122369890755e-11
          1.436088178926933e-10 4.5693718871430265e-11 2.1213750745736665e-11 2.4392585645865917e-11 1.3683096233921246e-11 8.899542294149634e-11
          4.100930368517912e-11 4.6388932012432717e-11 3.7580468625100797e-10 3.432230265774274e-10 1.6901465445678442e-10 1.5435028035306345e-10
          2.580133115405436e-10 1.1642053756168078e-10 6.033291572217895e-10 5.528299387519595e-10 2.4777989037984327e-10 4.1694672707265636e-10
          1.5777739841466728e-10 7.214652790170984e-11 8.036040984937213e-11 3.7450701868994626e-11 2.5305689117544697e-10 1.1486628673475321e-10
          1.2637593924734217e-10 7.960017846106537e-12 1.156291635011252e-11 5.49772666257236e-12 7.632351876818806e-12 5.348212541717395e-12
          7.412973280504205e-12 2.1266154787466092e-11 1.1892539705362935e-11 1.2969704291623322e-11 3.589191980074978e-11 1.707371582400505e-11
          8.664004229152901e-10 7.97416184157317e-10 6.050817971654836e-10 1.1160152187935908e-9 1.0319185542877786e-9 7.884762426085787e-10
          3.6625938601141926e-10 1.8039734934806287e-10 4.771684541648251e-10 2.3290634400328627e-10 1.2953745491520847e-9 1.2020178924078622e-9
          9.234889971938849e-10 1.360580440624763e-9 1.2642114333912584e-9 9.732913875833083e-10 5.592632022246893e-10 2.7161900530734904e-10
          5.896497189980763e-10 2.859239014767317e-10 3.8623974678977885e-11 1.7559361082748235e-11 3.775485683174188e-11 2.272401367137618e-11
          2.960361802143592e-11 2.470399009059587e-11 3.037322459907532e-11 3.372947379642283e-11 2.1081817333777712e-11 2.748533397850888e-11
          3.534089252286132e-11 3.110288403407912e-11 4.377846462801675e-11 6.01458643560749e-11 9.079263432430403e-11 3.841569384727688e-11
          4.026395815541545e-9 3.7015192514176288e-9 2.823540986812521e-9 7.74115933897219e-9 4.94742180613126e-9 4.563067947957984e-9
          7.181663841750955e-9 3.4874461620097286e-9 5.562095210654492e-9 1.7506956537398273e-9 9.025243625428255e-10 2.1367011683323045e-9
          3.4546969443593515e-9 1.0686788904316252e-9 1.7449588448509595e-9 8.479232426927416e-9 7.911816452048366e-9 6.1712527588315954e-9
          1.2657777872672613e-8 7.991266216682745e-9 7.492583511233234e-9 1.2013448073297474e-8 5.8778816576680595e-9 9.661335720297976e-9
          2.246005129621355e-9 3.810326194977156e-9 1.0999666123780598e-9 1.880376817738443e-9 6.12428622749348e-10 3.6126199580372262e-9
          6.071078511091607e-9 9.762971936847246e-10 1.7530414019555857e-9 3.2520382009870015e-10 1.6509212894604312e-10 5.172093278212818e-10
          2.613901019058599e-10 4.109050029263968e-10 1.0589195506975043e-10 1.74768521425919e-10 4.6541578991398893e-10 7.638207574106614e-10
          1.8839615518449713e-10 3.1044974101274305e-10 6.172251568873336e-11 4.165425560130686e-11 2.726951212592681e-10 1.5341352317202096e-10
          1.103622710383618e-10 6.849438852744413e-11 8.269893197485774e-11 4.285039657439715e-11 4.0168675551843865e-11 3.249671255103734e-11
          4.640912874346125e-10 7.934362334122771e-10 2.60378608409054e-10 1.402894357628513e-10 7.250798732483432e-11 1.0872881612774275e-8
          1.03530721631959e-8 8.34212507193739e-9 1.323696870588893e-8 1.2813195606051231e-8 1.0613969376181756e-8 5.203383268558814e-9
          1.405018319169941e-9 2.519253334220094e-9 6.726859601756171e-9 1.8227888128543699e-9 3.261815436098375e-9 7.436302094836479e-10
          3.7475174348272157e-10 9.646123149691748e-10 4.852856108667049e-10 1.4702874549621016e-8 1.4418322026655085e-8 1.2203233561591208e-8
          1.5187589364938525e-8 1.4967478416301524e-8 1.2771532156153387e-8 7.832387151410446e-9 2.1308409510262085e-9 3.806605717296352e-9
          8.236864579354263e-9 2.2446306860133128e-9 4.00725239464043e-9 1.1278156991645095e-9 5.66892220880103e-10 1.1881632421397646e-9
          5.970712606843027e-10
        </DataArray>
        <DataArray type="Float64" Name="gradient_matprop_error" format="ascii" RangeMin="0" RangeMax="0">
          0 0 0 0 0 0
          0 0 0 0 0 0
          0 0 0 0 0 0
          0 0 0 0 0 0
          0 0 0 0 0 0
          0 0 0 0 0 0
          0 0 0 0 0 0
          0 0 0 0 0 0
          0 0 0 0 0 0
          0 0 0 0 0 0
          0 0 0 0 0 0
          0 0 0 0 0 0
          0 0 0 0 0 0
          0 0 0 0 0 0
          0 0 0 0 0 0
          0 0 0 0 0 0
          0 0 0 0 0 0
          0 0 0 0 0 0
          0 0 0 0 0 0
          0 0 0 0 0 0
          0 0 0 0 0 0
          0 0 0 0 0 0
          0 0 0 0 0 0
          0 0 0 0 0 0
          0 0 0 0 0 0
          0 0 0 0 0 0
          0 0 0 0 0 0
          0 0 0 0 0 0
          0 0 0 0 0 0
          0 0 0 0 0 0
          0 0 0 0 0 0
          0 0 0 0 0 0
          0 0 0 0 0 0
          0 0 0 0 0 0
          0 0 0 0 0 0
          0 0 0 0 0 0
          0 0 0 0 0 0
          0 0 0 0 0 0
          0 0 0 0 0 0
          0 0 0 0 0 0
          0 0 0 0 0 0
          0 0 0 0 0 0
          0 0 0 0 0 0
          0 0 0 0 0 0
          0 0 0 0 0 0
          0 0 0 0 0 0
          0 0 0 0 0 0
          0 0 0 0 0 0
          0 0 0 0 0 0
          0 0 0 0 0 0
          0 0 0 0 0 0
          0 0 0 0 0 0
          0 0 0 0 0 0
          0 0 0 0 0 0
          0 0 0 0 0 0
          0 0 0 0 0 0
          0 0 0 0 0 0
          0 0 0 0 0 0
          0 0 0 0 0 0
          0 0 0 0 0 0
          0 0 0 0 0 0
          0 0 0 0 0 0
          0 0 0 0 0 0
          0 0 0 0 0 0
          0 0 0 0 0 0
          0 0 0 0 0 0
          0 0 0 0 0 0
          0 0 0 0 0 0
          0 0 0 0 0 0
          0 0 0 0 0 0
          0 0 0 0 0 0
          0 0 0 0 0 0
          0 0 0 0 0 0
          0 0 0 0 0 0
          0 0 0 0 0 0
          0 0 0 0 0 0
          0 0 0 0 0 0
          0 0 0 0 0 0
          0 0 0 0 0 0
          0 0 0 0 0 0
          0 0 0 0 0 0
          0 0 0 0 0 0
          0 0 0 0 0 0
          0 0 0 0 0 0
          0 0 0 0 0 0
          0 0 0 0 0 0
          0 0 0 0 0 0
          0 0 0 0 0 0
          0 0 0 0 0 0
          0 0 0 0 0 0
          0 0 0 0 0 0
          0 0 0 0 0 0
          0
        </DataArray>
        <DataArray type="Float64" Name="initial_marker" format="ascii" RangeMin="0" RangeMax="2">
          0 0 2 2 0 0
          1 0 0 0 0 2
          2 1.75 0 0 0 0
          0.5 0 2 0 0 0
          0 0 0 0 0 0.75
          2 2 1.75 2 0 0
          2 2 0 1.5 1 0
          1 0.25 2 2 2 2
          0 0 0 0 0 0
          0 0 0 0 0 0
          0 0 0 0 2 1.5
          0 0.25 2 2 2 2
          2 2 2 2 2 2
          2 2 2 2 2 2
          2 2 1.75 2 2 2
          0 0 0 0 0 0
          0 0 0 0 0 0
          2 2 2 1.75 2 0.5
          1.25 1 2 2 2 2
          2 2 2 2 2 2
          2 2 2 2 2 2
          2 2 1 1 1.5 1.5
          0 1 1 0.5 1.25 1
          2 2 2 2 0 0
          1 0.75 0 1 0.5 0
          0.5 0 2 1.75 1.6666666666666667 1.5
          0 1 0 0.75 0 1
          0.5 2 1.75 2 0 0.25
          0 0 0 0 0 1.25
          1 0.6666666666666666 2 2 2 2
          2 2 2 2 2 2
          2 2 2 2 2 2
          2 2 2 2 2 2
          2 1.75 2 2 2 2
          1.75 1.5 1.3333333333333333 2 2 2
          1.3333333333333333 2 1.75 2 2 1
          1.5 0.5 1 0 1 0.5
          2 1.75 0 0.5 0 0.5
          0 0 0 1.25 1 0.5
          1 1 1.5 1.5 0 1
          0.75 1 1.5 0.6666666666666666 2 2
          1.75 2 0 0 0.5 0.25
          0 0 0 0 0 0
          1.5 1 0.5 0.6666666666666666 0.5 1
          0 0.5 0 0.5 0 1.75
          1.3333333333333333 1.3333333333333333 2 2 2 2
          2 2 2 2 2 2
          2 2 2 2 2 2
          2 2 2 2 2 2
          2 2 2 2 2 2
          2 2 2 2 2 2
          2 2 2 2 2 2
          2 2 2 2 2 2
          2 2 2 2 2 2
          2 2 2 2 2 2
          2 2 2 2 2 2
          2 1.75 1.5 1.5 1 2
          2 2 2 2 2 2
          2 2 2 2 2 2
          2 2 2 2 2 2
          2 2 2 2 2 2
          2 2 2 2 2 2
          2 2 2 2 2 2
          2 2 2 2 2 2
          2 2 2 2 2 2
          2 2 1.75 1.75 1.3333333333333333 2
          2 2 2 2 2 2
          2 2 2 2 2 2
          2 2 2 2 2 2
          2 0.5 1 0 0.5 0
          0.5 1.5 1 1 1.75 1.25
          2 2 2 2 2 2
          2 2 2 2 2 2
          2 2 2 2 2 2
          2 2 0 0 0 0
          0.25 0 0 0.75 0 0
          0 1 1.25 1.5 1.75 1.6666666666666667
          2 2 2 2 2 2
          2 2 2 2 2 2
          2 2 2 2 2 2
          2 2 2 2 2 2
          2 2 2 2 2 2
          2 2 2 2 2 2
          2 2 2 2 2 2
          2 2 1.75 1.6666666666666667 2 2
          2 1.75 2 2 1.6666666666666667 1
          2 2 2 2 2 2
          2 2 2 2 2 2
          2 2 2 2 2 2
          2 2 2 2 2 2
          2 2 2 2 2 2
          2 2 2 2 2 2
          2
        </DataArray>
        <DataArray type="Float64" Name="markers_norefine" format="ascii" RangeMin="0" RangeMax="0">
          0 0 0 0 0 0
          0 0 0 0 0 0
          0 0 0 0 0 0
          0 0 0 0 0 0
          0 0 0 0 0 0
          0 0 0 0 0 0
          0 0 0 0 0 0
          0 0 0 0 0 0
          0 0 0 0 0 0
          0 0 0 0 0 0
          0 0 0 0 0 0
          0 0 0 0 0 0
          0 0 0 0 0 0
          0 0 0 0 0 0
          0 0 0 0 0 0
          0 0 0 0 0 0
          0 0 0 0 0 0
          0 0 0 0 0 0
          0 0 0 0 0 0
          0 0 0 0 0 0
          0 0 0 0 0 0
          0 0 0 0 0 0
          0 0 0 0 0 0
          0 0 0 0 0 0
          0 0 0 0 0 0
          0 0 0 0 0 0
          0 0 0 0 0 0
          0 0 0 0 0 0
          0 0 0 0 0 0
          0 0 0 0 0 0
          0 0 0 0 0 0
          0 0 0 0 0 0
          0 0 0 0 0 0
          0 0 0 0 0 0
          0 0 0 0 0 0
          0 0 0 0 0 0
          0 0 0 0 0 0
          0 0 0 0 0 0
          0 0 0 0 0 0
          0 0 0 0 0 0
          0 0 0 0 0 0
          0 0 0 0 0 0
          0 0 0 0 0 0
          0 0 0 0 0 0
          0 0 0 0 0 0
          0 0 0 0 0 0
          0 0 0 0 0 0
          0 0 0 0 0 0
          0 0 0 0 0 0
          0 0 0 0 0 0
          0 0 0 0 0 0
          0 0 0 0 0 0
          0 0 0 0 0 0
          0 0 0 0 0 0
          0 0 0 0 0 0
          0 0 0 0 0 0
          0 0 0 0 0 0
          0 0 0 0 0 0
          0 0 0 0 0 0
          0 0 0 0 0 0
          0 0 0 0 0 0
          0 0 0 0 0 0
          0 0 0 0 0 0
          0 0 0 0 0 0
          0 0 0 0 0 0
          0 0 0 0 0 0
          0 0 0 0 0 0
          0 0 0 0 0 0
          0 0 0 0 0 0
          0 0 0 0 0 0
          0 0 0 0 0 0
          0 0 0 0 0 0
          0 0 0 0 0 0
          0 0 0 0 0 0
          0 0 0 0 0 0
          0 0 0 0 0 0
          0 0 0 0 0 0
          0 0 0 0 0 0
          0 0 0 0 0 0
          0 0 0 0 0 0
          0 0 0 0 0 0
          0 0 0 0 0 0
          0 0 0 0 0 0
          0 0 0 0 0 0
          0 0 0 0 0 0
          0 0 0 0 0 0
          0 0 0 0 0 0
          0 0 0 0 0 0
          0 0 0 0 0 0
          0 0 0 0 0 0
          0 0 0 0 0 0
          0 0 0 0 0 0
          0
        </DataArray>
        <DataArray type="Float64" Name="markers_mustrefine" format="ascii" RangeMin="0" RangeMax="2">
          0 0 2 2 0 0
          1 0 0 0 0 2
          2 1.75 0 0 0 0
          0.5 0 2 0 0 0
          0 0 0 0 0 0.75
          2 2 1.75 2 0 0
          2 2 0 1.5 1 0
          1 0.25 2 2 2 2
          0 0 0 0 0 0
          0 0 0 0 0 0
          0 0 0 0 2 1.5
          0 0.25 2 2 2 2
          2 2 2 2 2 2
          2 2 2 2 2 2
          2 2 1.75 2 2 2
          0 0 0 0 0 0
          0 0 0 0 0 0
          2 2 2 1.75 2 0.5
          1.25 1 2 2 2 2
          2 2 2 2 2 2
          2 2 2 2 2 2
          2 2 1 1 1.5 1.5
          0 1 1 0.5 1.25 1
          2 2 2 2 0 0
          1 0.75 0 1 0.5 0
          0.5 0 2 1.75 1.6666666666666667 1.5
          0 1 0 0.75 0 1
          0.5 2 1.75 2 0 0.25
          0 0 0 0 0 1.25
          1 0.6666666666666666 2 2 2 2
          2 2 2 2 2 2
          2 2 2 2 2 2
          2 2 2 2 2 2
          2 1.75 2 2 2 2
          1.75 1.5 1.3333333333333333 2 2 2
          1.3333333333333333 2 1.75 2 2 1
          1.5 0.5 1 0 1 0.5
          2 1.75 0 0.5 0 0.5
          0 0 0 1.25 1 0.5
          1 1 1.5 1.5 0 1
          0.75 1 1.5 0.6666666666666666 2 2
          1.75 2 0 0 0.5 0.25
          0 0 0 0 0 0
          1.5 1 0.5 0.6666666666666666 0.5 1
          0 0.5 0 0.5 0 1.75
          1.3333333333333333 1.3333333333333333 2 2 2 2
          2 2 2 2 2 2
          2 2 2 2 2 2
          2 2 2 2 2 2
          2 2 2 2 2 2
          2 2 2 2 2 2
          2 2 2 2 2 2
          2 2 2 2 2 2
          2 2 2 2 2 2
          2 2 2 2 2 2
          2 2 2 2 2 2
          2 1.75 1.5 1.5 1 2
          2 2 2 2 2 2
          2 2 2 2 2 2
          2 2 2 2 2 2
          2 2 2 2 2 2
          2 2 2 2 2 2
          2 2 2 2 2 2
          2 2 2 2 2 2
          2 2 2 2 2 2
          2 2 1.75 1.75 1.3333333333333333 2
          2 2 2 2 2 2
          2 2 2 2 2 2
          2 2 2 2 2 2
          2 0.5 1 0 0.5 0
          0.5 1.5 1 1 1.75 1.25
          2 2 2 2 2 2
          2 2 2 2 2 2
          2 2 2 2 2 2
          2 2 0 0 0 0
          0.25 0 0 0.75 0 0
          0 1 1.25 1.5 1.75 1.6666666666666667
          2 2 2 2 2 2
          2 2 2 2 2 2
          2 2 2 2 2 2
          2 2 2 2 2 2
          2 2 2 2 2 2
          2 2 2 2 2 2
          2 2 2 2 2 2
          2 2 1.75 1.6666666666666667 2 2
          2 1.75 2 2 1.6666666666666667 1
          2 2 2 2 2 2
          2 2 2 2 2 2
          2 2 2 2 2 2
          2 2 2 2 2 2
          2 2 2 2 2 2
          2 2 2 2 2 2
          2
        </DataArray>
        <DataArray type="Float64" Name="gradient_marker" format="ascii" RangeMin="1" RangeMax="1">
          1 1 1 1 1 1
          1 1 1 1 1 1
          1 1 1 1 1 1
          1 1 1 1 1 1
          1 1 1 1 1 1
          1 1 1 1 1 1
          1 1 1 1 1 1
          1 1 1 1 1 1
          1 1 1 1 1 1
          1 1 1 1 1 1
          1 1 1 1 1 1
          1 1 1 1 1 1
          1 1 1 1 1 1
          1 1 1 1 1 1
          1 1 1 1 1 1
          1 1 1 1 1 1
          1 1 1 1 1 1
          1 1 1 1 1 1
          1 1 1 1 1 1
          1 1 1 1 1 1
          1 1 1 1 1 1
          1 1 1 1 1 1
          1 1 1 1 1 1
          1 1 1 1 1 1
          1 1 1 1 1 1
          1 1 1 1 1 1
          1 1 1 1 1 1
          1 1 1 1 1 1
          1 1 1 1 1 1
          1 1 1 1 1 1
          1 1 1 1 1 1
          1 1 1 1 1 1
          1 1 1 1 1 1
          1 1 1 1 1 1
          1 1 1 1 1 1
          1 1 1 1 1 1
          1 1 1 1 1 1
          1 1 1 1 1 1
          1 1 1 1 1 1
          1 1 1 1 1 1
          1 1 1 1 1 1
          1 1 1 1 1 1
          1 1 1 1 1 1
          1 1 1 1 1 1
          1 1 1 1 1 1