<?xml version="1.0"?>
<VTKFile type="UnstructuredGrid" version="0.1" byte_order="LittleEndian" header_type="UInt32" compressor="vtkZLibDataCompressor">
  <UnstructuredGrid>
    <Piece NumberOfPoints="993" NumberOfCells="562">
      <PointData>
        <DataArray type="Int32" Name="libmesh_node_id" format="ascii" RangeMin="560" RangeMax="9350">
          640 641 642 643 644 645
          646 647 680 681 682 683
          700 701 702 703 720 721
          722 723 724 725 726 727
          728 729 730 731 760 761
          762 763 764 765 780 781
          782 783 784 785 800 801
          802 803 804 805 806 807
          808 809 810 811 812 813
          814 815 840 841 842 843
          844 845 846 847 860 861
          862 863 864 865 866 867
          880 881 882 883 884 885
          886 887 888 889 890 891
          892 893 894 895 896 898
          900 902 904 920 921 922
          923 924 925 926 927 940
          941 942 943 944 945 946
          947 960 961 962 963 964
          965 966 967 968 969 970
          971 972 973 974 975 976
          977 978 979 980 981 982
          983 985 1000 1001 1002 1003
          1004 1005 1006 1007 1008 1009
          1010 1011 1012 1020 1021 1022
          1023 1024 1025 1026 1027 1028
          1029 1030 1031 1032 1033 1040
          1041 1042 1043 1044 1045 1046
          1047 1048 1049 1050 1051 1052
          1053 1054 1055 1056 1057 1058
          1059 1060 1061 1062 1063 1080
          1081 1082 1083 1084 1085 1086
          1087 1088 1089 1090 1091 1092
          1093 1100 1101 1102 1103 1104
          1105 1106 1107 1108 1109 1110
          1111 1112 1113 1120 1121 1122
          1123 1124 1125 1126 1127 1130
          1131 1132 1135 1136 1138 1181
          1182 1183 1184 1187 1188 1189
          1190 1191 1192 1194 1207 1211
          1217 1330 1331 1334 1340 1352
          1353 1354 1355 1356 1357 1358
          1359 1360 1361 1362 1363 1364
          1365 1380 1381 1382 1383 1384
          1385 1386 1387 1388 1389 1400
          1401 1402 1403 1404 1405 1406
          1407 1408 1409 1411 1412 1413
          1415 1417 1422 1425 1955 1956
          1957 1958 1959 1960 1961 1962
          1963 1964 1977 1978 1981 1984
          8735 8736 8737 8738 8739 8740
          8741 8742 8743 8744 8745 8746
          8747 8748 8749 8750 8751 8752
          8753 8754 8755 8756 8757 8758
          8759 8760 8761 8762 8763 8764
          8765 8766 8767 8768 8769 8770
          8771 8772 8773 8774 8775 8776
          8777 8778 8779 8780 8781 8782
          8783 8784 8785 8786 8787 8788
          8789 8790 8791 8792 8793 8794
          8795 8796 8797 8798 8799 8800
          8801 8802 8803 8804 8805 8806
          8807 8808 8809 8810 8811 8812
          8813 8814 8815 8816 8817 8818
          8819 8820 8821 8822 8823 8824
          8825 8826 8827 8828 8829 8830
          8831 8832 8833 8834 8835 8836
          8837 8838 8839 8840 8841 8842
          8843 8844 8845 8846 8847 8848
          8849 8850 8851 8852 8853 8854
          8855 8856 8857 8858 8859 8860
          8861 8862 8863 8864 8865 8866
          8867 8868 8869 8870 8871 8872
          8873 8874 8875 8876 8877 8878
          8879 8880 8881 8882 8883 8884
          8885 8886 8887 8888 8889 8890
          8891 8892 8893 8894 8895 8896
          8897 8898 8899 8900 8901 8902
          8903 8904 8905 8906 8907 8908
          8909 8910 8911 8912 8913 8914
          8915 8916 8917 8918 8919 8920
          8921 8922 8923 8924 8925 8926
          8927 8928 8929 8930 8931 8932
          8933 8934 8935 8936 8937 8938
          8939 8940 8941 8942 8943 8944
          8945 8946 8947 8948 8949 8950
          8951 8952 8953 8954 8955 8956
          8957 8958 8959 8960 8961 8962
          8963 8964 8965 8966 8967 8968
          8969 8970 8971 8972 8973 8974
          8975 8976 8977 8978 8979 8980
          8981 8982 8983 8984 8985 8986
          8987 8988 8989 8990 8991 8992
          8993 8994 8995 8996 8997 8998
          8999 9000 9001 9002 9003 9004
          9005 9006 9007 9008 9009 9010
          9011 9012 9013 9014 9015 9016
          9017 9018 9019 9020 9021 9022
          9023 9024 9025 9026 9027 9028
          9029 9030 9031 9032 9033 9034
          9035 9036 9037 9038 9039 9040
          9041 9042 9043 9044 9045 9046
          9047 9048 9049 9050 9051 9052
          9053 9054 9055 9056 9057 9058
          9059 9060 9061 9062 9063 9064
          9065 9066 9067 9068 9069 9070
          9071 9072 9073 9074 9075 9076
          9077 9078 9079 9080 9081 9082
          9083 9084 9085 9086 9087 9088
          9089 9090 9091 9092 9093 9094
          9095 9096 9097 9098 9099 9100
          9101 9102 9103 9104 9105 9106
          9107 9108 9109 9110 9111 9112
          9113 9114 9115 9116 9117 9118
          9119 9120 9121 9122 9123 9124
          9125 9126 9127 9128 9129 9130
          9131 9132 9133 9134 9135 9136
          9137 9138 9139 9140 9141 9142
          9143 9144 9145 9146 9147 9148
          9149 9150 9151 9152 9153 9154
          9155 9156 9157 9158 9159 9160
          9161 9162 9163 9164 9165 9166
          9167 9168 9169 9170 9171 9172
          9173 9174 9175 9176 9177 9178
          9179 9180 9181 9182 9183 9184
          9185 9186 9187 9188 9189 9190
          9191 9192 9193 9194 9195 9196
          9197 9198 9199 9200 9201 9202
          9203 9204 9205 9206 9207 9208
          9209 9210 9211 9212 9213 9214
          9215 9216 9217 9218 9219 9220
          9221 9222 9223 9224 9225 9226
          9227 9228 9229 9230 9231 9232
          9233 9234 9235 9236 9237 9238
          9239 9240 9241 9242 9243 9244
          9245 9246 9247 9248 9249 9250
          9251 9252 9253 9254 9255 9256
          9257 9258 9259 9260 9261 9262
          9263 9264 9265 9266 9267 9268
          9269 9270 9271 9272 9273 9274
          9275 9276 9277 9278 9279 9280
          9281 9282 9283 9284 9285 9286
          9287 9288 9289 9290 9291 9292
          9293 9294 9295 9296 9297 9298
          9299 9300 9301 9302 9303 9304
          9305 9306 9307 9308 9309 9310
          9311 9312 9313 9314 9315 9316
          9317 9318 9319 9320 9321 9322
          9323 9324 9325 9326 9327 9328
          9329 9330 9331 9332 9333 9334
          9335 9336 9337 9338 9339 9340
          9341 9342 9343 9344 9345 9346
          9347 9348 9349 9350 560 561
          562 563 564 565 566 567
          568 569 648 649 600 601
          602 603 604 684 620 621
          622 623 624 704 650 651
          652 653 732 733 685 686
          766 705 706 786 734 735
          736 737 816 817 767 768
          848 787 788 868 897 818
          819 899 820 821 901 822
          823 903 824 825 905 928
          948 929 930 931 932 949
          950 951 952 933 953 1013
          1185 1186 1193
        </DataArray>
        <DataArray type="Float64" Name="bounds" format="ascii" RangeMin="0" RangeMax="0">
          0 0 0 0 0 0
          0 0 0 0 0 0
          0 0 0 0 0 0
          0 0 0 0 0 0
          0 0 0 0 0 0
          0 0 0 0 0 0
          0 0 0 0 0 0
          0 0 0 0 0 0
          0 0 0 0 0 0
          0 0 0 0 0 0
          0 0 0 0 0 0
          0 0 0 0 0 0
          0 0 0 0 0 0
          0 0 0 0 0 0
          0 0 0 0 0 0
          0 0 0 0 0 0
          0 0 0 0 0 0
          0 0 0 0 0 0
          0 0 0 0 0 0
          0 0 0 0 0 0
          0 0 0 0 0 0
          0 0 0 0 0 0
          0 0 0 0 0 0
          0 0 0 0 0 0
          0 0 0 0 0 0
          0 0 0 0 0 0
          0 0 0 0 0 0
          0 0 0 0 0 0
          0 0 0 0 0 0
          0 0 0 0 0 0
          0 0 0 0 0 0
          0 0 0 0 0 0
          0 0 0 0 0 0
          0 0 0 0 0 0
          0 0 0 0 0 0
          0 0 0 0 0 0
          0 0 0 0 0 0
          0 0 0 0 0 0
          0 0 0 0 0 0
          0 0 0 0 0 0
          0 0 0 0 0 0
          0 0 0 0 0 0
          0 0 0 0 0 0
          0 0 0 0 0 0
          0 0 0 0 0 0
          0 0 0 0 0 0
          0 0 0 0 0 0
          0 0 0 0 0 0
          0 0 0 0 0 0
          0 0 0 0 0 0
          0 0 0 0 0 0
          0 0 0 0 0 0
          0 0 0 0 0 0
          0 0 0 0 0 0
          0 0 0 0 0 0
          0 0 0 0 0 0
          0 0 0 0 0 0
          0 0 0 0 0 0
          0 0 0 0 0 0
          0 0 0 0 0 0
          0 0 0 0 0 0
          0 0 0 0 0 0
          0 0 0 0 0 0
          0 0 0 0 0 0
          0 0 0 0 0 0
          0 0 0 0 0 0
          0 0 0 0 0 0
          0 0 0 0 0 0
          0 0 0 0 0 0
          0 0 0 0 0 0
          0 0 0 0 0 0
          0 0 0 0 0 0
          0 0 0 0 0 0
          0 0 0 0 0 0
          0 0 0 0 0 0
          0 0 0 0 0 0
          0 0 0 0 0 0
          0 0 0 0 0 0
          0 0 0 0 0 0
          0 0 0 0 0 0
          0 0 0 0 0 0
          0 0 0 0 0 0
          0 0 0 0 0 0
          0 0 0 0 0 0
          0 0 0 0 0 0
          0 0 0 0 0 0
          0 0 0 0 0 0
          0 0 0 0 0 0
          0 0 0 0 0 0
          0 0 0 0 0 0
          0 0 0 0 0 0
          0 0 0 0 0 0
          0 0 0 0 0 0
          0 0 0 0 0 0
          0 0 0 0 0 0
          0 0 0 0 0 0
          0 0 0 0 0 0
          0 0 0 0 0 0
          0 0 0 0 0 0
          0 0 0 0 0 0
          0 0 0 0 0 0
          0 0 0 0 0 0
          0 0 0 0 0 0
          0 0 0 0 0 0
          0 0 0 0 0 0
          0 0 0 0 0 0
          0 0 0 0 0 0
          0 0 0 0 0 0
          0 0 0 0 0 0
          0 0 0 0 0 0
          0 0 0 0 0 0
          0 0 0 0 0 0
          0 0 0 0 0 0
          0 0 0 0 0 0
          0 0 0 0 0 0
          0 0 0 0 0 0
          0 0 0 0 0 0
          0 0 0 0 0 0
          0 0 0 0 0 0
          0 0 0 0 0 0
          0 0 0 0 0 0
          0 0 0 0 0 0
          0 0 0 0 0 0
          0 0 0 0 0 0
          0 0 0 0 0 0
          0 0 0 0 0 0
          0 0 0 0 0 0
          0 0 0 0 0 0
          0 0 0 0 0 0
          0 0 0 0 0 0
          0 0 0 0 0 0
          0 0 0 0 0 0
          0 0 0 0 0 0
          0 0 0 0 0 0
          0 0 0 0 0 0
          0 0 0 0 0 0
          0 0 0 0 0 0
          0 0 0 0 0 0
          0 0 0 0 0 0
          0 0 0 0 0 0
          0 0 0 0 0 0
          0 0 0 0 0 0
          0 0 0 0 0 0
          0 0 0 0 0 0
          0 0 0 0 0 0
          0 0 0 0 0 0
          0 0 0 0 0 0
          0 0 0 0 0 0
          0 0 0 0 0 0
          0 0 0 0 0 0
          0 0 0 0 0 0
          0 0 0 0 0 0
          0 0 0 0 0 0
          0 0 0 0 0 0
          0 0 0 0 0 0
          0 0 0 0 0 0
          0 0 0 0 0 0
          0 0 0 0 0 0
          0 0 0 0 0 0
          0 0 0 0 0 0
          0 0 0 0 0 0
          0 0 0 0 0 0
          0 0 0 0 0 0
          0 0 0 0 0 0
          0 0 0 0 0 0
          0 0 0
        </DataArray>
        <DataArray type="Float64" Name="gradient_error" format="ascii" RangeMin="2.1340214094444188e-11" RangeMax="5.925320800344873e-7">
          1.7729641097786216e-9 1.7686339431410032e-9 1.1511944762298104e-9 1.1696937932839253e-9 1.7367475537781845e-9 1.0927458538340056e-9
          1.6024982911727418e-9 9.68612199135177e-10 3.4596817577585047e-10 3.6413200517460356e-10 2.972674495449719e-10 2.3044361776977233e-10
          1.581813422330836e-10 1.6184053355997834e-10 1.4579074520011686e-10 1.2616112844193208e-10 7.826191164053167e-9 7.45127422045279e-9
          4.611585028275479e-9 4.916587082996647e-9 6.461096145972197e-9 3.874729821272408e-9 4.961624834138708e-9 2.9944402703290537e-9
          3.2091455543849705e-9 2.1974222109652732e-9 3.7353102934033865e-9 2.674493024437188e-9 1.2236626551761138e-9 1.3562703757123893e-9
          9.415475646548239e-10 7.60968789004882e-10 8.003544403575975e-10 1.0015544774165076e-9 6.754294742540587e-10 7.055577494846519e-10
          5.947316327370288e-10 4.94681871490364e-10 4.1501001316961946e-10 3.8943319936202646e-10 1.976901148371744e-8 1.849738865316869e-8
          1.3999246159364307e-8 1.4266095234469057e-8 1.583275600585001e-8 1.353287224005699e-8 1.5065941641611925e-8 1.4136334446087027e-8
          1.887785043165644e-8 1.6902231533184177e-8 3.0396992476365124e-8 2.3221499829690295e-8 4.3645566542853106e-8 2.9798402331053966e-8
          4.633206346328406e-8 3.018419327493256e-8 5.433868719515947e-9 5.107866044449361e-9 6.196362556991926e-9 7.071390735106776e-9
          7.878144888554443e-9 8.504818863499498e-9 8.574271285472664e-9 7.65223766399042e-9 1.3666337734719685e-9 1.4525531036780512e-9
          1.1597366397198793e-9 9.36054219651423e-10 8.29677142396966e-10 9.636305439835352e-10 1.1973044516904928e-9 1.2681522413997824e-9
          4.420735392205756e-8 4.2270351056743336e-8 1.221773252304591e-7 1.2498864757307062e-7 3.9066489650121174e-8 1.1555447683820419e-7
          3.874666001498272e-8 1.0807258240498246e-7 4.4414210865186634e-8 1.0131331732698428e-7 5.844246374901251e-8 9.634844047649718e-8
          1.8853149690516835e-7 1.5074346521730006e-7 2.785778453812447e-7 1.856241953716881e-7 1.4438742805354754e-7 1.531464989982877e-8
          5.993651262483351e-9 3.805526982698512e-9 1.924232722459932e-9 1.1581956182233922e-7 1.1880898852616085e-7 1.0824527558099027e-7
          9.825191446575832e-8 8.676456632896315e-8 7.430858678820807e-8 6.131459916995124e-8 4.776220118335287e-8 2.929981316737165e-8
          3.15330816641837e-8 2.3903517351381733e-8 1.7619066390115958e-8 1.1768473131094153e-8 6.856731100210437e-9 3.596476357226501e-9
          2.853857004574202e-9 1.9744348524207237e-7 2.0596877810099078e-7 2.3119863199987315e-7 2.2980396286516674e-7 2.2193244660891034e-7
          2.3248007947649041e-7 2.3953227363907346e-7 2.3198492192947384e-7 2.581456838436107e-7 2.293810592596544e-7 2.7758956171561783e-7
          2.2404288094812385e-7 4.0978465444248827e-7 2.735551971885248e-7 5.234403987335832e-7 3.101484659959815e-7 2.9653521181068324e-7
          2.3359827460790479e-7 7.141466831394159e-8 1.6129790498753146e-7 4.9854566658072827e-8 1.2798972027310302e-7 2.928182302286285e-8
          8.946130624120904e-8 3.978581781897729e-8 1.856135931427252e-7 1.919538217200523e-7 1.701731557849669e-7 1.5050662965632858e-7
          1.2863375063903914e-7 1.0545115189030287e-7 8.217055574680924e-8 5.989613107844174e-8 3.872176125357364e-8 2.032697350800941e-8
          8.688250385061793e-9 3.423709652814377e-9 1.4135991494664494e-9 1.2818730383826951e-7 1.3527594668162887e-7 1.1084874176265243e-7
          8.971574920277978e-8 6.797576337939991e-8 4.690763086091895e-8 2.8494717099270862e-8 1.5431657867139917e-8 7.403340856908723e-9
          2.973843144437046e-9 1.2766711788185034e-9 7.288750331732939e-10 4.863983418421415e-10 2.108700734598919e-10 1.510393987319956e-7
          1.6439055801504528e-7 2.3660106231864586e-7 2.2374453740331822e-7 1.9094843413107836e-7 2.6165074429952135e-7 2.2527789658087495e-7
          2.915263623379624e-7 2.696301068500311e-7 3.264851776992245e-7 3.2772184444445226e-7 3.673030655067448e-7 4.060732811019588e-7
          4.1452469777890887e-7 2.739389379929654e-7 3.2849896616065003e-7 5.380679411777495e-8 2.0637336768892795e-7 7.929921661015819e-8
          2.0115714105175788e-7 1.2620013095144156e-7 1.78063006432916e-7 2.260963640691374e-7 1.301566769208275e-7 1.648674844074834e-7
          1.7023255286608365e-7 1.5213520656331493e-7 1.3564450152228968e-7 1.1672081225977276e-7 9.580950492765586e-8 7.376469668429569e-8
          5.211473635361343e-8 3.212855813686023e-8 1.6161352812750964e-8 5.232097236497484e-9 2.8200648037419915e-9 1.4984720087445573e-9
          2.2714968686979122e-10 1.9942471666102864e-7 2.0925438984768533e-7 1.7526474332202773e-7 1.452860830360404e-7 1.1342119904551563e-7
          8.141208553996773e-8 5.1558026503015405e-8 2.7084931964813502e-8 1.0927652995032205e-8 3.817072556362364e-9 1.8434136982420302e-9
          1.0020187264052676e-9 6.070978051765274e-10 2.6095587845464463e-10 1.9615101022081563e-8 6.992048844136104e-8 9.324580801774135e-8
          2.2942146878113392e-7 1.7211441758998574e-7 2.0048225818913138e-7 2.1144522746142493e-7 4.342059026854471e-8 8.463190811467182e-8
          9.883770935635705e-8 1.3909512388868866e-7 2.457149980946693e-7 2.7511230476337857e-7 9.692968168017314e-8 2.825309131279215e-9
          5.958566036970984e-9 6.779855364710679e-9 1.5981243011379773e-8 3.751726137140458e-10 5.645533061640469e-10 1.5903994511233688e-9
          1.6810928978461126e-10 1.0734401598142143e-8 2.600391998578856e-8 7.539339986140481e-10 1.8927632325649297e-7 1.9946766402889332e-7
          2.4585513070129746e-7 2.3313380740409744e-9 8.225917347537136e-9 7.777930748374741e-9 7.329944149212348e-9 3.899203155985319e-8
          1.1089398123743977e-7 1.2537163463734831e-7 1.7019253135185594e-7 1.9765814023154052e-7 2.1328407433071186e-7 2.1005761688483243e-7
          1.4124573520567663e-7 1.7392450901864037e-7 2.0129244507409103e-7 1.659819092856298e-7 2.2442133583001094e-7 1.856968071789044e-7
          1.5743283557836496e-7 1.188742945935098e-8 2.1215107439655845e-8 3.025648796940967e-8 4.776372387135959e-8 1.2418844554088884e-9
          2.704898237048986e-9 3.3196251135092327e-9 4.8625546479468356e-8 7.431234030306333e-8 4.1679120186890836e-9 2.4540663413635636e-7
          2.2351331898041315e-7 2.1090739390486382e-7 2.675387183693711e-7 2.4391227255116063e-7 2.8597775938462326e-7 2.804239239591307e-7
          1.9221907512511028e-7 2.7215662408302633e-7 2.4988827397992464e-7 2.4753407327216545e-7 2.669187934240642e-7 3.062209012906853e-7
          1.193684405358728e-7 1.533988446080573e-7 8.31077132471121e-8 1.8742924868024181e-7 3.676094097436643e-9 3.2073194628237664e-9
          3.500473348266739e-9 1.543774023145989e-8 1.2241719083287077e-8 1.1072323731936375e-8 1.251785355643262e-8 2.7385448282108895e-9
          9.90292838058567e-9 9.597966881405349e-9 2.2967358895304936e-8 7.840205924297043e-8 6.91157865894706e-8 5.982951393597077e-8
          6.091929048443851e-8 6.0628001066484e-8 6.120089922382425e-8 1.0885965241621594e-7 1.0882304670612677e-7 9.937267493831944e-8
          9.952205555686982e-8 5.9214242873280177e-8 1.086753209825573e-7 9.895112640030996e-8 6.033671164852948e-8 8.99223031705121e-8
          9.01844586975237e-8 8.922693181806264e-8 1.998786976954157e-7 1.8953467029521817e-7 1.8750888425205587e-7 1.94604596993403e-7
          1.7526238264631354e-7 5.7892563502761856e-8 5.7570380563648235e-8 1.0837718736329538e-7 9.834096430449e-8 5.5984380065368374e-8
          1.0783201119605636e-7 9.749945941241996e-8 5.724819762453461e-8 8.830474124568463e-8 8.716690762878358e-8 2.1365445020935598e-7
          2.0107904401158526e-7 2.080798718259562e-7 1.8344995932855085e-7 5.5409235003139364e-8 5.449682270590335e-8 1.0690149530036803e-7
          9.629336181121368e-8 5.323558704874334e-8 1.0550648609430396e-7 9.465081698005258e-8 5.358441040866735e-8 8.568522832205934e-8
          8.379514786580125e-8 2.3058578108412583e-7 2.1530151667174935e-7 2.2264387950031537e-7 1.9346325116244557e-7 5.467630778796987e-8
          5.2342566854966544e-8 1.0355553288740789e-7 9.248244638727979e-8 5.206161496416694e-8 1.0097315170047661e-7 8.970631179670168e-8
          5.000882592196321e-8 8.140935988715173e-8 7.843947189292673e-8 2.487310599646717e-7 2.3002882102602944e-7 2.3736461803908837e-7
          2.0300173351143957e-7 5.792946642468507e-8 5.269849536564049e-8 9.767960923596262e-8 8.623016966130868e-8 5.4728154160685043e-8
          9.367108738234104e-8 8.199579142742246e-8 4.74675243065959e-8 7.478073008665473e-8 7.032049547250389e-8 2.6775404369236886e-7
          2.445564738581001e-7 2.5150512840365076e-7 2.1099242285071067e-7 6.923342414794857e-8 5.8749155644893126e-8 8.911159760770566e-8
          7.703816927782265e-8 6.132198695475948e-8 8.67211710740462e-8 7.438650517018538e-8 4.8264887141837675e-8 6.496474094793965e-8
          6.205183926632455e-8 2.8788366171232983e-7 2.582258785433099e-7 3.286901112274435e-7 2.1587530899074643e-7 5.1616805365737826e-9
          3.6960996557747935e-9 4.489916837134907e-9 2.5817336273271576e-8 1.92606792508114e-8 1.3122915546202897e-8 1.635005231083257e-8
          2.230518774975804e-9 6.985151841594398e-9 6.882768348393564e-9 1.948614588857935e-7 1.98950534425544e-7 2.1826491705013002e-7
          2.142599998997862e-7 2.0922336309916224e-7 2.2836362410975218e-7 2.1526595294434168e-7 2.1238121964464766e-7 2.2254460881357397e-7
          1.548704763880716e-7 1.9557784231997857e-7 1.9134544318537598e-7 2.062060641600381e-7 2.2739227926546037e-7 2.2259268178587573e-7
          2.415460319915541e-7 2.3783912740323316e-7 2.564992685980162e-7 2.3197789066161782e-7 2.4244419825195104e-7 1.7673827437686843e-7
          2.2004552400526958e-7 2.3585333230359154e-7 2.484614847638267e-7 2.5491054187334963e-7 2.730463827303962e-7 2.7402565823278784e-7
          2.9133127256038864e-7 2.536502728404026e-7 2.65566113475159e-7 2.0704327717604432e-7 2.5357963303381786e-7 2.7344083303150846e-7
          2.759986920548626e-7 2.9551381959717164e-7 3.1159286073412075e-7 3.197925109192582e-7 3.3413413146062244e-7 2.782094966905057e-7
          2.9160431281757173e-7 2.460002772518457e-7 2.9575040533577574e-7 3.2089003547230444e-7 3.083213400400222e-7 3.473754195716616e-7
          3.5932947992054375e-7 3.7889648627195734e-7 3.8763511946500407e-7 3.0577880289346827e-7 3.207482476424834e-7 2.966725038058257e-7
          3.4930785608186415e-7 3.8152341081686664e-7 3.4611593944422735e-7 4.1513089244542974e-7 4.196282324093033e-7 4.555003069008513e-7
          4.548805863773802e-7 3.365421922578775e-7 3.528426773122585e-7 3.6348423253366254e-7 4.1813189064273916e-7 4.6045151760640075e-7
          3.9010371840665625e-7 5.394181841468503e-7 4.747475647039799e-7 4.99135634768133e-7 4.926225749459854e-7 4.948252322306645e-7
          4.245292590673194e-7 4.003238880256906e-7 2.975915739033048e-7 3.690758446197292e-7 3.129157276265899e-7 4.588530853894157e-7
          5.10497585187991e-7 3.079338764698343e-7 4.405601153361536e-7 5.925320800344873e-7 5.10268832110193e-7 3.418153362744604e-7
          2.9965337832604605e-7 2.75913461761292e-7 2.2728575748076127e-7 2.439412681127969e-7 2.992636946517357e-7 2.4949684586389276e-7
          2.4788026874200995e-7 4.7221626658270044e-8 8.616924247420221e-8 9.872887788271543e-8 2.0432814562506351e-7 7.414648340736659e-8
          1.541900627441586e-7 1.1188016653900629e-7 1.872907957802631e-7 1.4963014358716481e-7 1.2798730256035547e-7 1.956569580593656e-7
          2.0578340711584603e-7 2.4275175121317307e-7 2.343930302017915e-7 6.520915963232106e-8 1.1357325550458099e-7 1.3223806650696438e-7
          2.0550731564595645e-7 6.135592420232737e-8 1.388142315737256e-7 1.4713569112251465e-7 2.037745603082614e-7 1.8065879951554614e-7
          2.2120442917956113e-7 9.871397392008663e-8 1.5573319885725027e-7 1.9234138384239317e-7 1.3323239301696933e-7 1.3296826387333452e-7
          1.5398246626697267e-7 1.5324620769975777e-7 1.3387314501460057e-7 1.5580927412885e-7 9.905892388503931e-8 1.1501232631997804e-7
          1.153885170239991e-7 1.1403321575089426e-7 1.7473253951697597e-7 1.73524151526181e-7 1.7774540324309945e-7 1.3096572875491677e-7
          1.3476628248681966e-7 1.5819726584300388e-7 1.3567942319657052e-7 1.6072694358017028e-7 9.618996261561568e-8 1.1293813256000463e-7
          1.1172490044923762e-7 1.8162824919918808e-7 1.8577446396377001e-7 1.2968630250439356e-7 1.3632946811449848e-7 1.6308868180466647e-7
          1.3662487654336128e-7 1.6517540707226108e-7 9.230368726040589e-8 1.1005904151597054e-7 1.0785547408219358e-7 1.8984789549483443e-7
          1.937259376011609e-7 1.278143957715352e-7 1.3646498292888644e-7 1.6687840349303824e-7 1.3575852757637786e-7 1.6808946798266422e-7
          8.657792949822844e-8 1.0500971547613494e-7 1.0144606233217165e-7 1.9729182405719004e-7 2.0042040838895058e-7 1.2344150145404147e-7
          1.3440727486528567e-7 1.686862022319317e-7 1.32293937544746e-7 1.6851898830726116e-7 7.855508922610206e-8 9.709833894635277e-8
          9.191523398760639e-8 2.0296512959857773e-7 2.0474403906977628e-7 1.1564158866660348e-7 1.2929116028273874e-7 1.6741584659717026e-7
          1.2527493555202624e-7 1.651852198541509e-7 6.809258434181792e-8 8.587288105176238e-8 7.894595093769388e-8 2.0554053291160182e-7
          2.0509550415627551e-7 1.0365317776170683e-7 1.2010711029254036e-7 1.6160399126628256e-7 1.1352530126596692e-7 1.566909830128689e-7
          5.5108018039580756e-8 7.116580841694467e-8 6.247624647120202e-8 2.0310087224002473e-7 1.9985666475977088e-7 8.722359879430859e-8
          1.053689502176257e-7 1.502840167960969e-7 9.603120570221768e-8 1.4186891602493572e-7 4.0216095317678795e-8 5.2914550172726406e-8
          4.283260820842869e-8 1.951990833745681e-7 1.8770662634765374e-7 6.561300502777401e-8 8.565178881890152e-8 1.3122235043604717e-7
          7.375106734063746e-8 1.1810492318858313e-7 2.4313755648699134e-8 3.2561026776309373e-8 2.275049328207501e-8 1.767929120531928e-7
          1.6245877903652883e-7 4.080829790391961e-8 6.052544241194474e-8 1.0247814661967706e-7 4.6746800614747824e-8 8.486982632238017e-8
          1.1054481194234313e-8 1.4170122607841593e-8 7.606140703400492e-9 1.444308508274094e-7 1.229928520300125e-7 1.728576402144887e-8
          3.325180859193755e-8 6.63200483027978e-8 3.635630430223152e-9 4.212587220922888e-9 9.938828801365806e-8 4.7895440116226226e-9
          2.5339835289642696e-8 2.9450151571026988e-8 3.575024993103428e-8 9.099621096366202e-8 8.540826485267969e-8 7.621238229559167e-8
          8.181799162328232e-8 3.356046785241128e-8 6.701649973850365e-8 7.263977228290261e-8 1.2394620712757947e-7 1.2593673932806285e-7
          1.5419435657752062e-7 1.5267091238012473e-7 7.447519652876808e-8 9.235314910445226e-8 9.887440634929059e-8 1.8444250602746172e-7
          1.794050854321866e-7 1.1023110168013643e-7 4.979370217871811e-8 5.1524384017225654e-8 5.5238185522251456e-8 9.726648208261337e-8
          9.750855425841294e-8 8.926161300836075e-8 8.953091893799119e-8 4.69857066379948e-8 9.67654021919853e-8 8.807212164161768e-8
          5.325506585573319e-8 8.101467175830856e-8 8.1795355793369e-8 7.937884109125006e-8 1.8335546699033301e-7 1.7284517882902386e-7
          1.615094797502081e-7 1.8495375011643232e-7 1.5916799548400614e-7 3.8653709387935134e-8 4.1667449923976017e-8 9.472395357276246e-8
          8.569649381625112e-8 4.46811904600169e-8 7.66690340597398e-8 2.130689014678001e-7 1.9772581663049596e-7 1.767791737846534e-7
          1.630630116838778e-7 1.8286427322424983e-7 1.9830903938364196e-7 1.784420499004688e-7 2.0619588525969883e-7 2.2139983843569067e-7
          1.940767305092432e-7 1.7894309041585392e-7 2.1085972024163413e-7 1.4424101880594138e-7 1.77926563108732e-7 1.576887926542524e-7
          2.0205071328375726e-7 2.0378860662291915e-7 2.3392289417596576e-7 2.484080404880225e-7 2.2942476404079787e-7 1.9250218317392105e-7
          2.3108998542357935e-7 2.480092062343469e-7 1.2219699500919258e-7 1.1907659801426804e-7 1.4019843879328418e-7 1.3478261140246036e-7
          1.2461086335754273e-7 1.4520588005856476e-7 9.155978490179616e-8 1.0599722211111606e-7 1.055001300902728e-7 1.0529611124554381e-7
          1.5819988257737577e-7 1.5048862479065272e-7 1.6580089675958684e-7 1.2043465932043594e-7 1.2599975723699932e-7 1.4950860107007797e-7
          8.642745670642203e-8 1.030608608586395e-7 1.7301744490315657e-7 1.1969426501085695e-7 2.038402267061445e-8 1.8056130371102533e-8
          2.8025906967507547e-8 5.627249064533814e-8 5.166641537637176e-8 4.0443713401619546e-8 4.484430034402303e-8 7.027669953254539e-9
          4.303879072442251e-8 3.182705535077082e-8 1.5728238071590613e-8 2.9221011426867337e-8 3.341611004270792e-8 2.0615319977119134e-8
          6.296236137252962e-9 5.5293830304298546e-9 3.4486591940482765e-8 2.339633841827735e-8 4.7625299236067454e-9 1.2306084896071934e-8
          8.017355512759775e-8 7.98318318651339e-8 7.26257323586245e-8 6.675019093500883e-8 6.659907643210974e-8 7.140880742836489e-8
          6.863240926879025e-8 9.14332276476106e-8 6.916010958635177e-8 7.731837730222144e-8 7.977705980712816e-8 8.023454389116589e-8
          7.605077704247471e-8 8.760358350805058e-8 5.302459773662172e-8 6.29857829915959e-8 6.4639086178956e-8 6.320352695683227e-8
          8.069202797520365e-8 9.979785177151962e-8 9.976833752779802e-8 7.47665589783274e-8 8.362747652354083e-8 9.984063669446576e-8
          8.001468624450592e-8 8.973885791096534e-8 9.551315593473395e-8 9.388074397597733e-8 1.0021803152938732e-7 4.97352661851352e-8
          6.748661551928363e-8 7.27850124507839e-8 9.224833201722073e-8 7.089995140771016e-8 6.831574937372252e-8 7.130647591245395e-8
          8.376524495120489e-8 8.441487720375077e-8 7.963597029879795e-8 7.87214896267788e-8 6.43976011343376e-8 8.602309660065476e-8
          8.133166528535338e-8 6.573154733973488e-8 7.485706339384512e-8 7.367773430235272e-8 7.6640233970052e-8 1.0425451882879985e-7
          1.0187939042943935e-7 1.094127831613456e-7 1.0026701894688268e-7 6.381742207380533e-8 6.328786757782938e-8 8.820564703515764e-8
          8.308954638426675e-8 6.274154862137448e-8 9.058704004754773e-8 8.497375375988982e-8 6.275831308185342e-8 7.797344573337584e-8
          7.936046747223192e-8 1.1965471949590045e-7 1.1657465352984e-7 1.2410589211957455e-7 1.1346435003505359e-7 8.489383215803117e-8
          9.59233524813293e-8 9.11337291208141e-8 1.0332797974437744e-7 1.0708296032305058e-7 1.1470841378747285e-7 5.920842965825402e-8
          7.90441153276533e-8 8.60961226024328e-8 1.0575668194975482e-7 9.921323554462089e-8 1.121491153626382e-7 1.0857783182730706e-7
          1.2211232385337104e-7 1.2298663172075796e-7 1.3199242197566477e-7 7.171090409395083e-8 9.404014885630051e-8 1.0321882236599821e-7
          1.2237102758138464e-7 9.16877167798001e-8 8.788732262720672e-8 9.76037095639328e-8 9.303302904932202e-8 9.56094055311124e-8
          1.0240483539707228e-7 8.15829007791098e-8 8.799437128639188e-8 8.50930246172942e-8 9.091507358713962e-8 1.035197023480655e-7
          9.817873547143735e-8 1.0920026526303217e-7 9.440584179367396e-8 9.956626065666658e-8 1.0739768310511308e-7 1.0357562412025258e-7