<?xml version="1.0"?>
<VTKFile type="UnstructuredGrid" version="0.1" byte_order="LittleEndian" header_type="UInt32" compressor="vtkZLibDataCompressor">
  <UnstructuredGrid>
    <Piece NumberOfPoints="307" NumberOfCells="169">
      <PointData>
        <DataArray type="Int32" Name="libmesh_node_id" format="ascii" RangeMin="218" RangeMax="1941">
          218 370 371 373 374 378
          379 380 815 816 819 822
          826 827 829 830 832 833
          834 835 836 837 846 855
          856 860 861 863 866 868
          869 870 871 872 873 874
          875 876 877 879 883 885
          886 889 890 918 919 924
          926 927 929 951 964 965
          968 970 971 973 984 988
          1391 1392 1393 1394 1395 1396
          1397 1398 1399 1400 1401 1402
          1403 1404 1405 1406 1407 1408
          1409 1420 1421 1422 1423 1424
          1425 1426 1427 1428 1429 1433
          1434 1435 1436 1437 1448 1449
          1450 1451 1452 1453 1454 1455
          1456 1457 1465 1466 1467 1468
          1469 1470 1471 1472 1473 1474
          1475 1476 1477 1478 1479 1480
          1481 1482 1483 1484 1485 1486
          1487 1488 1489 1490 1491 1492
          1493 1494 1495 1496 1497 1498
          1499 1500 1501 1502 1503 1504
          1505 1506 1507 1508 1509 1510
          1511 1512 1513 1514 1515 1516
          1517 1518 1519 1520 1521 1522
          1523 1524 1525 1526 1527 1528
          1529 1530 1531 1532 1533 1534
          1535 1536 1537 1538 1539 1544
          1562 1573 1574 1575 1576 1577
          1578 1579 1590 1591 1592 1593
          1594 1700 1776 1777 1778 1779
          1780 1781 1782 1783 1784 1785
          1796 1797 1798 1799 1800 1801
          1802 1810 1811 1812 1813 1814
          1815 1816 1817 1818 1819 1830
          1831 1832 1833 1834 1835 1836
          1912 1913 1914 1932 1933 1934
          812 813 820 821 818 823
          859 862 845 878 867 882
          1389 1412 1413 1415 858 1418
          1440 1441 1443 864 1446 865
          1431 1459 1461 1463 1555 1556
          1580 1581 1558 1584 1586 1587
          1589 1570 1595 1572 1597 1599
          1601 1786 1787 1790 1792 1793
          1795 1803 1805 1807 1809 1820
          1821 1824 1826 1827 1829 1837
          1839 1841 1843 1705 1915 1707
          1917 1919 1921 1935 1937 1939
          1941
        </DataArray>
        <DataArray type="Float64" Name="bounds" format="ascii" RangeMin="0" RangeMax="0">
          0 0 0 0 0 0
          0 0 0 0 0 0
          0 0 0 0 0 0
          0 0 0 0 0 0
          0 0 0 0 0 0
          0 0 0 0 0 0
          0 0 0 0 0 0
          0 0 0 0 0 0
          0 0 0 0 0 0
          0 0 0 0 0 0
          0 0 0 0 0 0
          0 0 0 0 0 0
          0 0 0 0 0 0
          0 0 0 0 0 0
          0 0 0 0 0 0
          0 0 0 0 0 0
          0 0 0 0 0 0
          0 0 0 0 0 0
          0 0 0 0 0 0
          0 0 0 0 0 0
          0 0 0 0 0 0
          0 0 0 0 0 0
          0 0 0 0 0 0
          0 0 0 0 0 0
          0 0 0 0 0 0
          0 0 0 0 0 0
          0 0 0 0 0 0
          0 0 0 0 0 0
          0 0 0 0 0 0
          0 0 0 0 0 0
          0 0 0 0 0 0
          0 0 0 0 0 0
          0 0 0 0 0 0
          0 0 0 0 0 0
          0 0 0 0 0 0
          0 0 0 0 0 0
          0 0 0 0 0 0
          0 0 0 0 0 0
          0 0 0 0 0 0
          0 0 0 0 0 0
          0 0 0 0 0 0
          0 0 0 0 0 0
          0 0 0 0 0 0
          0 0 0 0 0 0
          0 0 0 0 0 0
          0 0 0 0 0 0
          0 0 0 0 0 0
          0 0 0 0 0 0
          0 0 0 0 0 0
          0 0 0 0 0 0
          0 0 0 0 0 0
          0
        </DataArray>
        <DataArray type="Float64" Name="gradient_error" format="ascii" RangeMin="8.620838709398246e-9" RangeMax="1.902353967561023e-7">
          1.7299840968057486e-8 1.0598566687323992e-7 1.4311425300827873e-7 1.1976904719371898e-7 1.2351476139590588e-7 1.3355547344448143e-8
          1.2125952957231555e-7 1.4781847653928535e-7 1.3985238600314244e-7 1.315608070708134e-7 1.0854145159933636e-7 1.2146793684284778e-7
          1.4409324551990917e-7 1.3396008850615138e-7 1.388295620859636e-7 1.2755207813255123e-7 1.0681477813993184e-7 9.84852994755643e-8
          1.1677456125609711e-7 1.081605454020737e-7 1.0904618703319369e-7 1.267849648113365e-7 1.2389781564730444e-7 1.2453755450938001e-7
          1.1732272470740714e-7 2.0870259512851805e-8 4.7189426029075256e-8 1.3416907680492223e-7 1.970548780028243e-8 2.74775887265051e-8
          3.197584320160904e-8 3.4625344771479545e-8 3.922879902937581e-8 1.2593453061078462e-7 1.3120711641704293e-7 1.6297934284258788e-8
          2.7538221084071642e-8 3.4955052632540714e-8 1.383156681271507e-7 1.6145196659535753e-7 1.7485196041124336e-7 1.709744393356439e-7
          1.6898619587956097e-7 1.8894567156559466e-7 1.902353967561023e-7 7.425167087914883e-8 6.758140750371241e-8 5.1082671768673154e-8
          7.634821074695951e-8 6.8287105876884e-8 6.951487538388945e-8 6.162342647132461e-8 4.018166863122537e-8 4.4611669016943815e-8
          8.27630266744013e-8 2.0741216840594223e-8 4.013269685945502e-8 9.591986916288924e-8 9.153513763939563e-8 1.0453432373235258e-7
          2.7240156307673946e-8 2.678290301515304e-8 2.9895633230661415e-8 2.6325649722632128e-8 2.763471563894603e-8 3.378885128157056e-8
          3.322422523314164e-8 3.655407185750818e-8 3.160694141862317e-8 4.0293356822956496e-8 3.94608862998914e-8 4.1504992462235724e-8
          3.681184845769119e-8 2.8854702127446093e-8 3.1029765296291935e-8 2.7155120602358573e-8 3.2546908676475065e-8 3.324261873906256e-8
          3.0098536214394066e-8 2.4457358467115897e-8 2.4984761586003858e-8 2.7034380235059204e-8 2.7581376720871663e-8 2.5512164704891822e-8
          2.8868810196967534e-8 1.8152545917117136e-8 1.9537234988066706e-8 2.215500688585721e-8 2.1791620963344317e-8 2.914114763648217e-8
          2.793261109542999e-8 2.5134671091125364e-8 2.8817793421253864e-8 2.673832741025033e-8 1.2980989843331184e-8 1.4372420845058505e-8
          1.5704151507148495e-8 1.7363661409609212e-8 1.85123167651657e-8 2.1273138135044718e-8 1.1331448478985936e-8 1.2856991870838275e-8
          1.5684429258585915e-8 1.668654192889068e-8 2.414028265087156e-8 2.686974849013113e-8 2.701978361819755e-8 3.021639202224275e-8
          2.3145894210617753e-8 2.583659666539062e-8 2.7301239826144765e-8 3.007944663180831e-8 3.0569683188913186e-8 3.336125302072731e-8
          3.37991301905579e-8 3.135000455312162e-8 3.426462767126431e-8 2.403071250715499e-8 2.5333444353726076e-8 2.8895494978971094e-8
          2.8576619790846697e-8 3.6670427818566305e-8 3.703576997915033e-8 3.971716157209931e-8 3.995462497249279e-8 3.7121738158644946e-8
          3.9555637505470445e-8 3.108648767159789e-8 3.2623557027298094e-8 3.624194977153823e-8 3.566419084576298e-8 3.044660362498697e-8
          3.294375231356803e-8 2.9253117889748744e-8 3.1595256644995944e-8 3.151125488953691e-8 3.464515727960898e-8 3.2505446397677603e-8
          3.5041463794605765e-8 3.6492146252349856e-8 3.3240563411656e-8 3.4065105866645087e-8 3.7791317291712604e-8 4.0579248822923235e-8
          3.841487927489755e-8 1.8367590252979682e-8 2.0581713718635822e-8 2.0884224659084405e-8 2.3823260702391055e-8 2.4760600179596923e-8
          2.8714791827037615e-8 1.5043797473695447e-8 1.841167987450422e-8 2.0899719970447535e-8 2.346102846512054e-8 2.313460447054183e-8
          2.6876385083241282e-8 2.4826930859314408e-8 2.9485634191978525e-8 3.2686964328853906e-8 3.628207376426673e-8 1.7143732412064004e-8
          2.3116309770295626e-8 2.489162632363043e-8 3.147717482578055e-8 3.0035954807901935e-8 3.363553396377346e-8 3.334654644090198e-8
          3.660378101916938e-8 2.9087904959257876e-8 3.2838492699173073e-8 3.303331526358766e-8 3.741697066094685e-8 4.0943330278828354e-8
          4.007817836012661e-8 4.346685055376591e-8 3.6787325651204957e-8 4.0469836677447414e-8 3.970918877937607e-8 1.4542876324990404e-8
          1.1628300343021505e-8 2.356261144600569e-8 2.2576249416690662e-8 2.0542724623069752e-8 4.353190091226092e-8 4.2322143579359123e-8
          3.626989479914881e-8 3.854190148268033e-8 1.772910163876812e-8 1.4278098198181505e-8 3.2861550064291656e-8 2.7739349253238208e-8
          2.9751683409679987e-8 1.576507432305053e-8 4.2107065614631345e-8 4.2160483472017805e-8 4.328433573845074e-8 4.319916638803324e-8
          4.118385033826986e-8 4.16481787876832e-8 3.781386257127655e-8 3.943154893347157e-8 4.1808839634345336e-8 4.2332723151731117e-8
          3.696026142167396e-8 3.63766965863851e-8 3.3766723496212476e-8 2.9741667151515254e-8 4.258743340119636e-8 4.344696364656483e-8
          4.155865579459707e-8 2.64457808790203e-8 3.178063455315555e-8 2.875762356877045e-8 3.400008497378812e-8 3.931918889473258e-8
          4.181385216692939e-8 1.794606693248927e-8 2.6696994604044456e-8 2.9107830274748408e-8 3.779873067986232e-8 4.380381224682477e-8
          4.5553089312398744e-8 4.608473493147517e-8 4.230354206193241e-8 4.3491730470313075e-8 4.548743587548604e-8 4.683392185650116e-8
          2.1473788348766785e-8 1.5474814694260085e-8 2.6317848424237777e-8 3.015731967245611e-8 2.118968554471347e-8 3.2044275349483277e-8
          1.2938989679600254e-7 1.231502333432224e-7 9.20526656675255e-8 1.2797813130111313e-7 1.0510117077533303e-7 1.5086799384881997e-7
          6.083668097197902e-8 1.3645908560853227e-7 1.1766070885702739e-7 1.4582961310075634e-7 1.0194873810316217e-7 1.5493293867339626e-7
          2.3924253960491165e-8 2.2447765112197903e-8 2.2810514902631673e-8 2.3173264693065442e-8 1.632401178134924e-8 1.7706982832454374e-8
          1.051164662626565e-8 1.1952463719600085e-8 1.6600761892840986e-8 8.959440084135338e-9 1.0187737619063597e-8 1.4651334313131263e-8
          2.276788030299039e-8 2.1959099425337912e-8 2.4109955877928376e-8 2.115031854768544e-8 1.3583177707466885e-8 1.3137739621821287e-8
          2.1914400787237274e-8 2.1081899989403232e-8 1.2039479891676474e-8 1.9092866334195173e-8 3.358788598589034e-8 3.2386548219224924e-8
          2.907967735807336e-8 1.046179112377349e-8 1.6324564284511752e-8 8.620838709398246e-9 1.313505651285195e-8 2.4309613029326163e-8
          1.9093416119519682e-8 4.334598401990262e-8 4.304094191963398e-8 4.073187960843689e-8 4.145655861430751e-8 4.3153344017602225e-8
          4.5591633871878866e-8 3.471520432012459e-8 2.6721174821737626e-8 4.2928743925997456e-8 3.40190050452755e-8 3.084915030140437e-8
          3.558751254929768e-8 4.355750758138625e-8 2.429830290683787e-8 3.116411491908262e-8 4.183486435518312e-8 4.6122892674472206e-8
          3.922590334311722e-8 4.648622485959968e-8 4.111476131247886e-8 1.4558850129787639e-8 1.983752339134755e-8 1.066881139208948e-8
          1.4107503433298354e-8 2.4729392121620268e-8 1.719771520752394e-8 2.8528485516706564e-8 1.95251073455223e-8 3.015580328403316e-8
          2.0520940540288416e-8
        </DataArray>
        <DataArray type="Float64" Name="gradient_matprop_error" format="ascii" RangeMin="0" RangeMax="0">
          0 0 0 0 0 0
          0 0 0 0 0 0
          0 0 0 0 0 0
          0 0 0 0 0 0
          0 0 0 0 0 0
          0 0 0 0 0 0
          0 0 0 0 0 0
          0 0 0 0 0 0
          0 0 0 0 0 0
          0 0 0 0 0 0
          0 0 0 0 0 0
          0 0 0 0 0 0
          0 0 0 0 0 0
          0 0 0 0 0 0
          0 0 0 0 0 0
          0 0 0 0 0 0
          0 0 0 0 0 0
          0 0 0 0 0 0
          0 0 0 0 0 0
          0 0 0 0 0 0
          0 0 0 0 0 0
          0 0 0 0 0 0
          0 0 0 0 0 0
          0 0 0 0 0 0
          0 0 0 0 0 0
          0 0 0 0 0 0
          0 0 0 0 0 0
          0 0 0 0 0 0
          0 0 0 0 0 0
          0 0 0 0 0 0
          0 0 0 0 0 0
          0 0 0 0 0 0
          0 0 0 0 0 0
          0 0 0 0 0 0
          0 0 0 0 0 0
          0 0 0 0 0 0
          0 0 0 0 0 0
          0 0 0 0 0 0
          0 0 0 0 0 0
          0 0 0 0 0 0
          0 0 0 0 0 0
          0 0 0 0 0 0
          0 0 0 0 0 0
          0 0 0 0 0 0
          0 0 0 0 0 0
          0 0 0 0 0 0
          0 0 0 0 0 0
          0 0 0 0 0 0
          0 0 0 0 0 0
          0 0 0 0 0 0
          0 0 0 0 0 0
          0
        </DataArray>
        <DataArray type="Float64" Name="initial_marker" format="ascii" RangeMin="1.75" RangeMax="2">
          2 2 2 2 2 2
          2 2 2 2 2 2
          2 2 2 2 2 2
          2 2 2 2 2 2
          2 2 2 2 2 2
          2 2 2 2 2 2
          2 2 2 2 2 2
          2 2 2 2 2 2
          2 2 2 2 2 2
          2 2 2 2 2 2
          2 2 2 2 2 2
          2 2 2 2 2 2
          2 2 2 2 2 2
          2 2 2 2 2 2
          2 2 2 2 2 2
          2 2 2 2 2 2
          2 2 2 2 2 2
          2 2 2 2 2 2
          2 2 2 2 2 2
          2 2 2 2 2 2
          2 2 2 2 2 2
          2 2 2 2 2 2
          2 2 2 2 2 2
          2 2 2 2 2 2
          2 2 2 2 2 2
          2 2 2 2 2 2
          2 2 2 2 2 2
          2 2 2 2 2 2
          2 2 2 2 2 2
          2 2 2 2 2 2
          2 2 2 2 2 2
          2 2 2 2 2 2
          2 2 2 2 2 2
          2 2 2 2 2 2
          2 2 2 2 2 2
          2 2 2 2 2 2
          2 2 2 2 2 2
          2 2 2 2 2 2
          2 2 2 2 2 2
          2 2 2 2 1.75 2
          2 2 2 2 2 2
          2 2 2 2 2 2
          2 2 2 2 2 2
          2 2 2 2 2 2
          2 2 2 2 2 2
          2 2 2 2 2 2
          2 2 2 2 2 2
          2 2 2 2 2 2
          2 2 2 2 2 2
          2 2 2 2 2 2
          2 2 2 2 2 2
          2
        </DataArray>
        <DataArray type="Float64" Name="markers_norefine" format="ascii" RangeMin="0" RangeMax="2">
          2 0 0 0 0 2
          1 1 0 0 0 0
          0 0 0 0 0 0
          0 0 0 0 0 0
          0 2 1.75 0 2 2
          2 2 2 0.5 0.25 2
          2 2 1 0 0 0
          0 0 0 0 0 0
          0 0 0 0 2 1.75
          0 2 2 0.5 0 0
          0 0 0 0 0 0
          0 0 0 0 0 0
          0 0 0 0 0 0
          0 1 1 1 1 1
          1 2 2 2 2 0.5
          0 1 1 0 2 2
          2 2 2 2 2 2
          2 2 1.25 1.5 0.5 1
          1.5 2 1 1 1 1
          1 1 1 2 2 2
          2 1 1 1 1 1
          1 2 2 2 2 0.5
          0.5 0 0 1.25 1.5 0.5
          0.5 0.5 0 0 1.5 1.25
          1 2 2 2 2 2
          2 2 2 2 2 2
          2 2 2 2 2 2
          2 2 2 1.75 2 1.5
          2 2 2 2 2 1.75
          2 1.5 2 2 2 0
          0 0 0 0 0 0
          0 0 0 0 0 0
          0 0 1 1 1 1
          1 0.75 2 2 2 2
          0.5 0.25 0 0 1 0.75
          0 2 2 2 2 2
          2 2 2 2 2 1.5
          1.25 1 0.3333333333333333 2 1.5 2
          0 0 0 0 0 0
          0 0 0 0 0 0
          1.25 0 0 0 0 0
          0 1 0.75 0.5 2 1.75
          2 2 2 2 2 2
          1 1 0 1 0 0
          0 0 0 0 0 0
          0 0 0 0 0 0
          0 1 1 0.5 2 2
          1.5 0 0 0.5 0 2
          2 2 2 2 2 1
          0 1 0 0 0 0
          0 0 0 0 0 0
          0
        </DataArray>
        <DataArray type="Float64" Name="markers_mustrefine" format="ascii" RangeMin="1.75" RangeMax="2">
          2 2 2 2 2 2
          2 2 2 2 2 2
          2 2 2 2 2 2
          2 2 2 2 2 2
          2 2 2 2 2 2
          2 2 2 2 2 2
          2 2 2 2 2 2
          2 2 2 2 2 2
          2 2 2 2 2 2
          2 2 2 2 2 2
          2 2 2 2 2 2
          2 2 2 2 2 2
          2 2 2 2 2 2
          2 2 2 2 2 2
          2 2 2 2 2 2
          2 2 2 2 2 2
          2 2 2 2 2 2
          2 2 2 2 2 2
          2 2 2 2 2 2
          2 2 2 2 2 2
          2 2 2 2 2 2
          2 2 2 2 2 2
          2 2 2 2 2 2
          2 2 2 2 2 2
          2 2 2 2 2 2
          2 2 2 2 2 2
          2 2 2 2 2 2
          2 2 2 2 2 2
          2 2 2 2 2 2
          2 2 2 2 2 2
          2 2 2 2 2 2
          2 2 2 2 2 2
          2 2 2 2 2 2
          2 2 2 2 2 2
          2 2 2 2 2 2
          2 2 2 2 2 2
          2 2 2 2 2 2
          2 2 2 2 2 2
          2 2 2 2 2 2
          2 2 2 2 1.75 2
          2 2 2 2 2 2
          2 2 2 2 2 2
          2 2 2 2 2 2
          2 2 2 2 2 2
          2 2 2 2 2 2
          2 2 2 2 2 2
          2 2 2 2 2 2
          2 2 2 2 2 2
          2 2 2 2 2 2
          2 2 2 2 2 2
          2 2 2 2 2 2
          2
        </DataArray>
        <DataArray type="Float64" Name="gradient_marker" format="ascii" RangeMin="0" RangeMax="1">
          0 0.5 0.875 0.5 0.75 0
          0.5 0.5 1 1 0.75 0.625
          1 1 1 0.875 0.75 0.625
          0.5 0.5 0.5 0.75 1 0.875
          0.75 0 0.125 0.625 0 0
          0 0 0 0.5 0.5 0
          0 0 0.5 1 1 1
          1 1 1 0.5 0.375 0.25
          0.25 0.25 0.375 0.375 0 0
          0.25 0 0 0.25 0.5 0.5
          0 0 0 0 0 0
          0 0 0 0 0 0
          0 0 0 0 0 0
          0 0 0 0 0 0
          0 0 0 0 0 0
          0 0 0 0 0 0
          0 0 0 0 0 0
          0 0 0 0 0 0
          0 0 0 0 0 0
          0 0 0 0 0 0
          0 0 0 0 0 0
          0 0 0 0 0 0
          0 0 0 0 0 0
          0 0 0 0 0 0
          0 0 0 0 0 0
          0 0 0 0 0 0
          0 0 0 0 0 0
          0 0 0 0 0 0
          0 0 0 0 0 0
          0 0 0 0 0 0
          0 0 0 0 0 0
          0 0 0 0 0 0
          0 0 0 0 0 0
          0 0 0 0 0 0
          0 0 0 0 0 0
          0 0 0 0 0 0
          0 0 0 0 0 0
          0 0 0 0 0 0
          0 0 0 0 0 0
          1 1 0.5 0.75 0.875 1
          0.25 0.75 1 1 0.5 1
          0 0 0 0 0 0
          0 0 0 0 0 0
          0 0 0 0 0.5 0.5
          0.5 0.5 0.5 0.5 0.5 0.5
          0.5 0.5 0.5 0.5 0.5 0.5
          0.5 0.5 0.5 0.5 0.5 0.5
          0.5 0.5 0.5 0.5 0.5 0.5
          0.5 0.5 0.5 0.5 0.5 0.5
          0.5 0.5 0.5 0.5 0.5 0.5
          0.5 0.5 0.5 0.5 0.5 0.5
          0.5
        </DataArray>
        <DataArray type="Float64" Name="gradient_matprop_marker" format="ascii" RangeMin="0" RangeMax="0">
          0 0 0 0 0 0
          0 0 0 0 0 0
          0 0 0 0 0 0
          0 0 0 0 0 0
          0 0 0 0 0 0
          0 0 0 0 0 0
          0 0 0 0 0 0
          0 0 0 0 0 0
          0 0 0 0 0 0
          0 0 0 0 0 0
          0 0 0 0 0 0
          0 0 0 0 0 0
          0 0 0 0 0 0
          0 0 0 0 0 0
          0 0 0 0 0 0
          0 0 0 0 0 0
          0 0 0 0 0 0
          0 0 0 0 0 0
          0 0 0 0 0 0
          0 0 0 0 0 0
          0 0 0 0 0 0
          0 0 0 0 0 0
          0 0 0 0 0 0
          0 0 0 0 0 0
          0 0 0 0 0 0
          0 0 0 0 0 0
          0 0 0 0 0 0
          0 0 0 0 0 0
          0 0 0 0 0 0
          0 0 0 0 0 0
          0 0 0 0 0 0
          0 0 0 0 0 0
          0 0 0 0 0 0
          0 0 0 0 0 0
          0 0 0 0 0 0
          0 0 0 0 0 0
          0 0 0 0 0 0
          0 0 0 0 0 0
          0 0 0 0 0 0
          0 0 0 0 0 0
          0 0 0 0 0 0
          0 0 0 0 0 0
          0 0 0 0 0 0
          0 0 0 0 0 0
          0 0 0 0 0 0
          0 0 0 0 0 0
          0 0 0 0 0 0
          0 0 0 0 0 0
          0 0 0 0 0 0
          0 0 0 0 0 0
          0 0 0 0 0 0
          0
        </DataArray>
        <DataArray type="Float64" Name="combo" format="ascii" RangeMin="0" RangeMax="2">
          2 0.5 0.875 0.5 0.75 2
          1.5 1.5 1 1 0.75 0.625
          1 1 1 0.875 0.75 0.625
          0.5 0.5 0.5 0.75 1 0.875
          0.75 2 1.875 0.625 2 2
          2 2 2 1 0.75 2
          2 2 1.5 1 1 1
          1 1 1 0.5 0.375 0.25
          0.25 0.25 0.375 0.375 2 1.75
          0.25 2 2 0.75 0.5 0.5
          0 0 0 0 0 0
          0 0 0 0 0 0
          0 0 0 0 0 0
          0 1 1 1 1 1
          1 2 2 2 2 0.5
          0 1 1 0 2 2
          2 2 2 2 2 2
          2 2 1.25 1.5 0.5 1
          1.5 2 1 1 1 1
          1 1 1 2 2 2
          2 1 1 1 1 1
          1 2 2 2 2 0.5
          0.5 0 0 1.25 1.5 0.5
          0.5 0.5 0 0 1.5 1.25
          1 2 2 2 2 2
          2 2 2 2 2 2
          2 2 2 2 2 2
          2 2 2 1.75 2 1.5
          2 2 2 2 2 1.75
          2 1.5 2 2 2 0
          0 0 0 0 0 0
          0 0 0 0 0 0
          0 0 1 1 1 1
          1 0.75 2 2 2 2
          0.5 0.25 0 0 1 0.75
          0 2 2 2 2 2
          2 2 2 2 2 1.5
          1.25 1 0.3333333333333333 2 1.5 2
          0 0 0 0 0 0
          1 1 0.5 0.75 0.875 1
          1.5 0.75 1 1 0.5 1
          0 1 0.75 0.5 2 1.75
          2 2 2 2 2 2
          1 1 0 1 0.5 0.5
          0.5 0.5 0.5 0.5 0.5 0.5
          0.5 0.5 0.5 0.5 0.5 0.5
          0.5 1.25 1.25 0.875 2 2
          1.625 0.5 0.5 0.875 0.5 2
          2 2 2 2 2 1.25
          0.5 1.25 0.5 0.5 0.5 0.5
          0.5 0.5 0.5 0.5 0.5 0.5
          0.5
        </DataArray>
        <DataArray type="Float64" Name="dHdT" format="ascii" RangeMin="28.481496213623217" RangeMax="73.89327909986292">
          46.273528603599864 42.244085171509276 36.92227742809419 41.413351774430865 34.70796274663838 46.00714969153983
          50.642450778331536 47.306076397990985 34.55192534304207 34.0840276166641 32.79970725888768 39.49978169007811
          33.74494127848849 33.27923272868811 32.74701839160074 32.30428401704629 31.981932616873713 30.992881408211794
          42.63160153582232 39.507684069075786 38.55502933151068 35.45640661604141 33.86768591883577 33.01758454437568
          31.91889465247299 57.82111978327586 60.15280206024286 43.48824999293197 57.506377681953595 54.487201808160755
          57.00544377385868 52.63079701618988 54.36343751627206 43.25184444268954 41.872275313749235 46.23972804886645
          51.140823023721474 50.13916584777753 49.58234811954857 36.97510470455313 38.72479510349457 36.43051419081043
          35.20385099366078 38.414772492385964 37.03727214068985 31.667813961990753 31.07181102055575 29.66278218672518
          40.02938808785946 37.12073542850394 34.06229783008598 30.533119306520074 52.022172088357976 52.59176487211333
          39.49554587775973 46.26779392937437 51.855073852590216 44.56869739442342 33.71049873784756 35.18440899185229
          46.371332750143694 43.61272166293599 46.129561404288594 40.85411057572828 37.471615431705295 48.11398471260767
          47.1035504622906 47.66748293147651 42.484069059603755 49.40212218857819 47.50825022541553 46.335744491744634
          43.260990101374034 38.110288929053155 39.05128832575089 37.34555595087233 39.18196667186799 38.35628829170224
          37.45633140324078 57.108352295296555 54.3155913021076 57.28793212400907 55.35995269636839 51.52283030891864
          50.78997412283872 64.37441396762077 66.09283290471538 60.643419837241964 67.04107275567496 42.54458786389178
          39.58319989672278 56.88344962237696 54.65563031016683 48.26618466134906 53.33036440655589 58.22632903605195
          47.532973556611324 51.363308332800145 66.1237134725197 60.94375110156092 45.757272718319676 49.28545320395233
          46.03012097956455 62.78159283258145 61.03171041200795 61.130232885349045 52.9382875445245 55.56660667656524
          65.17997120163892 64.085800453487 57.61039042769994 56.487448545074415 55.114250189256694 56.08247272947371
          54.55152467924029 50.157569689897294 50.50026020549581 55.38180120876293 57.03137156507644 55.10985644180002
          58.667639501196035 55.17625872113689 53.575598923120936 53.30616076563652 52.11346328392585 49.88671182297542
          48.392675205168864 53.53099617374785 53.97107317546811 53.152441824078004 55.73281751626696 43.07751925684309
          43.75800338020427 39.580950967330566 39.536062978423786 52.95526284203858 52.87232671539323 47.256188603075046
          43.618343715077124 42.58619116729213 39.43820290930839 39.3077977264617 52.08600309880225 50.48482442862637
          47.11752134225896 46.034914383892755 48.50486401429931 46.141402571450534 47.476486905316364 56.74304231079131
          53.768515028862545 46.16713872780081 46.07193481466853 46.168827354036736 53.98187593938139 46.1879147243745
          47.25557582527513 46.20426109387375 47.320355011884075 52.493586082581324 52.16837151361434 46.26423235494889
          46.211952920440375 46.227008451719215 50.03397067720553 58.96828809946287 56.93506702690352 55.425305222048976
          55.14467523526413 60.0708000994816 56.59019905767824 58.15457922173667 55.43181969638444 54.12204353915364
          54.19970415378198 52.34379298097297 54.74635395345061 54.090532263936545 55.58444003842203 30.905836897860027
          29.623961837921293 34.92922957238325 34.717338837539266 33.98911944697976 45.577923964594724 44.55915228577185
          40.51632933242067 40.64895637914979 32.63058249084635 30.969990580089107 37.47607725616028 36.2194884688654
          37.19462236096997 31.693058586622364 51.42395262721193 50.340257521238115 49.78633346984862 48.37540686909723
          46.44716889103697 44.57228282919716 51.69063583401244 52.889048571017085 53.2883036710532 53.42533548980417
          41.18446264992596 39.8892711661024 38.73114993304227 36.939344302650916 48.56591536673335 46.32050964177075
          44.36862106188009 46.19343807643229 47.93846792991483 47.433909236687875 49.376897021138106 52.89069558444086
          53.42129486952273 46.275585774668855 46.22020147449986 46.56161766508324 51.17610159219755 53.32221643632459
          51.87480903556093 50.546539487164814 44.56695720085818 54.40545018287413 53.83745655128848 52.623514355684016
          34.1804563928293 31.39819636348775 35.881225528797906 36.5568301955346 33.962733450215346 36.7041151137732
          35.103658394929745 34.682421911293766 38.92840996324835 38.58609493675007 33.45130349730065 37.78057151440329
          61.0582703852875 40.904931154759836 34.492977815936136 36.90392252100216 46.63530112896041 38.054777005641355
          39.571520544099755 53.263054322615204 50.663654424935906 48.06425452725661 72.62191244284153 70.57820618476109
          63.639100537982486 70.14654111599395 72.6968581592358 47.49690957930834 60.892458168237795 73.89327909986292
          53.707128957812834 58.49369107857553 48.247647532684894 63.28025319933822 30.412512411200762 30.236560097569107
          34.140681349609096 33.8993285199673 29.767420349968408 33.11996384330871 38.37229326683808 37.69199063808266
          36.385380828864854 29.135778960289713 31.801371878569523 28.481496213623217 30.313397521559693 34.98498508682687
          33.10046223077872 47.0056600594054 45.699059219572604 42.26380332110911 53.282009514237004 53.3673772294605
          50.51859657346047 38.342577549040925 35.66324938336063 43.43389030144557 37.87613806206909 49.58692604726456
          51.570392428601245 53.468396191131674 46.22110587572885 48.54782068849279 52.92213430849543 48.816859549714096
          40.6082661374284 51.023863059953285 42.06955208159249 30.958836255954438 33.29784603677422 29.250015417154792
          30.67236992715788 35.12908476685624 32.1460627674993 36.0218815657791 33.180124205456806 36.26945661047874
          33.53724317537732
        </DataArray>
        <DataArray type="Float64" Name="dk/dtemperature" format="ascii" RangeMin="0.005905500000000013" RangeMax="0.07742349843042284">
          0.005983000000000018 0.008361538414173683 0.00787193815715553 0.008400073796843889 0.008305246782470976 0.007848374999999993
          0.02356966519970516 0.038923373015191914 0.008975242374681325 0.009022478773221224 0.009650097941608836 0.008335702610417724
          0.009515933331933277 0.009494626412550899 0.0097122184683451 0.009884185210530892 0.010153820681767997 0.01084351989824507
          0.008580878577404848 0.008491496057096757 0.008547665532850262 0.008026085756359914 0.008744242415142918 0.009455486146042262
          0.010242178780963125 0.02152838926047712 0.03187074079732222 0.008168393589008881 0.021598620716510936 0.02785281389762391
          0.03265084247853589 0.02168774571651096 0.0282492126833171 0.00884227894151154 0.00862466317382479 0.006745000000000001
          0.007944562500000007 0.007603937499999996 0.04407819469689779 0.007823092158095716 0.008057450433142644 0.008190359157734091
          0.008759856991150377 0.00801221221040671 0.008352752575490119 0.010227622431374667 0.01067570681003313 0.011809461477159711
          0.007892026630273939 0.007879212132808452 0.008676964837784892 0.011145867581166575 0.017483316385441667 0.024896200388352288
          0.007915401933096531 0.0061375000000000145 0.019542124999999962 0.017489185596348954 0.009376356497165655 0.008604130619471169
          0.008893729930761722 0.008922218894647546 0.008891535202162855 0.008950707858533372 0.00915613022136835 0.008817909040995678
          0.00886456526073103 0.008860041706313063 0.009003676294713155 0.008833256713584047 0.008883500883777273 0.008936265214182861
          0.009047773086572043 0.008885084210189142 0.008572914969245577 0.008674037311418357 0.008526675144217951 0.008123610061695931
          0.007891549169262314 0.027154123123005223 0.02855909825479327 0.021741306551573535 0.026947729344199912 0.029964073386581323
          0.024920926010733063 0.027137758157624366 0.03475242630746954 0.02681058674311848 0.046041407360620235 0.009774481962874712
          0.009094490167202814 0.03111276549307053 0.024020773817505076 0.008835497818909759 0.008616500000000004 0.01492518750000004
          0.00813524999999999 0.008340312499999992 0.039004756150063345 0.026217315346749565 0.008372000000000001 0.008541500000000002
          0.008063374999999992 0.03443612071651096 0.03313332585168609 0.03374409786067503 0.009491014403245571 0.023598940027850922
          0.03515388621030165 0.036653451847282977 0.010146530987581382 0.04052820452049784 0.0300504299307632 0.02845921712645157
          0.026646801892286628 0.020798913120618316 0.030852216510880697 0.04011212499999999 0.029724553550397683 0.026150468539130094
          0.025370846041596715 0.009359375470926832 0.021694029339274168 0.022583342911498074 0.02183147330566506 0.03735036955866799
          0.027379862000763686 0.008590622114134803 0.02105796639738552 0.02109068444857362 0.03967551426538202 0.015426383797277569
          0.022695944823693755 0.008827596694347075 0.008521843283747815 0.020348212477828326 0.025605760345864124 0.009291714973258591
          0.02457112444651744 0.020885432516363295 0.008470192983320416 0.008090744731031278 0.02828616675881533 0.022872435011085965