<?xml version="1.0"?>
<VTKFile type="UnstructuredGrid" version="0.1" byte_order="LittleEndian" header_type="UInt32" compressor="vtkZLibDataCompressor">
  <UnstructuredGrid>
    <Piece NumberOfPoints="369" NumberOfCells="163">
      <PointData>
        <DataArray type="Int32" Name="libmesh_node_id" format="ascii" RangeMin="12" RangeMax="1216">
          16 17 18 19 20 21
          22 23 24 25 26 27
          28 29 30 31 32 33
          34 35 44 45 46 47
          48 49 50 51 52 53
          62 63 64 65 66 67
          68 69 70 71 76 77
          78 79 80 89 90 91
          92 93 94 95 96 97
          98 103 104 105 106 107
          118 119 120 121 122 123
          124 125 131 132 133 134
          145 146 147 148 149 150
          151 152 158 159 160 161
          173 175 176 177 178 179
          185 186 187 188 196 198
          202 208 209 211 212 214
          215 216 217 219 221 222
          223 224 225 226 227 228
          229 230 231 232 233 234
          235 259 264 276 278 287
          288 289 290 291 292 295
          296 297 298 299 300 301
          302 303 304 305 306 307
          308 309 310 311 312 313
          314 315 316 317 318 319
          320 321 322 323 324 325
          326 327 328 329 330 331
          332 333 334 386 465 466
          467 471 472 473 474 475
          476 477 478 479 480 481
          482 483 484 485 486 487
          488 489 490 491 516 517
          518 519 520 521 522 523
          524 525 533 534 535 539
          564 565 566 567 568 569
          570 571 572 573 574 575
          578 581 582 583 584 585
          588 589 590 591 592 593
          594 595 596 597 598 599
          600 601 602 603 665 704
          705 706 707 708 710 711
          1144 1145 1146 1147 1148 1149
          1150 1151 1152 1153 1154 1155
          1156 1157 1158 1159 1160 1161
          1162 1163 1164 1165 1166 1167
          1168 1169 1170 1171 1184 1185
          1188 1189 1191 1193 1194 1195
          1196 1198 1199 1200 1201 1202
          1203 1204 1207 1208 1209 1210
          1211 1212 1215 1216 12 13
          14 15 42 43 60 61
          75 87 88 102 283 284
          285 286 273 275 294 277
          282 220 434 436 438 435
          437 440 439 576 577 579
          580 270 586 587 451 702
          452 453 703 457 709 442
          679 680 1190 681 1192 424
          428 426 689 690 1197 691
          417 448 449 1205 1206 450
          1213 1214 456
        </DataArray>
        <DataArray type="Float64" Name="bounds" format="ascii" RangeMin="0" RangeMax="0">
          0 0 0 0 0 0
          0 0 0 0 0 0
          0 0 0 0 0 0
          0 0 0 0 0 0
          0 0 0 0 0 0
          0 0 0 0 0 0
          0 0 0 0 0 0
          0 0 0 0 0 0
          0 0 0 0 0 0
          0 0 0 0 0 0
          0 0 0 0 0 0
          0 0 0 0 0 0
          0 0 0 0 0 0
          0 0 0 0 0 0
          0 0 0 0 0 0
          0 0 0 0 0 0
          0 0 0 0 0 0
          0 0 0 0 0 0
          0 0 0 0 0 0
          0 0 0 0 0 0
          0 0 0 0 0 0
          0 0 0 0 0 0
          0 0 0 0 0 0
          0 0 0 0 0 0
          0 0 0 0 0 0
          0 0 0 0 0 0
          0 0 0 0 0 0
          0 0 0 0 0 0
          0 0 0 0 0 0
          0 0 0 0 0 0
          0 0 0 0 0 0
          0 0 0 0 0 0
          0 0 0 0 0 0
          0 0 0 0 0 0
          0 0 0 0 0 0
          0 0 0 0 0 0
          0 0 0 0 0 0
          0 0 0 0 0 0
          0 0 0 0 0 0
          0 0 0 0 0 0
          0 0 0 0 0 0
          0 0 0 0 0 0
          0 0 0 0 0 0
          0 0 0 0 0 0
          0 0 0 0 0 0
          0 0 0 0 0 0
          0 0 0 0 0 0
          0 0 0 0 0 0
          0 0 0 0 0 0
          0 0 0 0 0 0
          0 0 0 0 0 0
          0 0 0 0 0 0
          0 0 0 0 0 0
          0 0 0 0 0 0
          0 0 0 0 0 0
          0 0 0 0 0 0
          0 0 0 0 0 0
          0 0 0 0 0 0
          0 0 0 0 0 0
          0 0 0 0 0 0
          0 0 0 0 0 0
          0 0 0
        </DataArray>
        <DataArray type="Float64" Name="gradient_error" format="ascii" RangeMin="8.115278963382085e-12" RangeMax="1.9240429968427004e-7">
          1.1228459171766919e-9 1.1230845532771047e-9 1.158257380441522e-9 1.1348822223702776e-9 1.1337710542012696e-9 1.1268549180170527e-9
          1.0834805382312612e-9 1.0989618290815133e-9 1.1190283563454016e-9 1.118617497577388e-9 1.1148910562344615e-9 1.1164591393770064e-9
          1.1175296256721263e-9 1.1177323852344577e-9 1.1195969813015093e-9 1.119266653910017e-9 1.118043051440257e-9 1.1181400623950788e-9
          1.1189130052774242e-9 1.1186769502096414e-9 1.1233231893775178e-9 1.1115070642990332e-9 1.1199387818328359e-9 1.1144431199317652e-9
          1.1182066388093744e-9 1.1180272225195511e-9 1.1179351447967894e-9 1.1189363265185247e-9 1.1182370733499006e-9 1.1184408951418584e-9
          1.7978089166924316e-9 1.5945550517278628e-9 1.2980460521943274e-9 1.24897186503204e-9 1.143564636650586e-9 1.1377811979556882e-9
          1.1112210840198902e-9 1.1140618509586659e-9 1.111033955034273e-9 1.1142976097884825e-9 1.3913011867632936e-9 1.1998976778697528e-9
          1.131997759260791e-9 1.116902617897442e-9 1.117561264542692e-9 4.548965241944028e-9 3.945120791860473e-9 1.7602169653625958e-9
          1.7719797927400137e-9 1.077638825820018e-9 1.1577357033475123e-9 1.1140038284312232e-9 1.137693751047292e-9 1.1309279462151591e-9
          1.148281779718262e-9 3.341276341776918e-9 1.7837426201174313e-9 1.2378325808750071e-9 1.1613836736633604e-9 1.165635613221365e-9
          4.292089020622296e-9 4.218201227575878e-9 5.978524148491502e-10 1.5131680890061994e-9 9.202258729355523e-10 1.1012680795309406e-9
          1.2148239542774028e-9 1.2215494858382936e-9 6.5641592557553444e-9 2.364131855793846e-9 1.2775797693380314e-9 1.2282750173991845e-9
          2.5574078724021816e-8 3.87841081824033e-8 4.291790207906746e-10 2.544259858907257e-9 4.3733163265942956e-10 6.445795702942695e-10
          6.835328336869202e-10 7.930907741218947e-10 6.256487607771026e-9 1.7990559900555705e-9 8.348942487357409e-10 9.089348658895766e-10
          2.2566304639737263e-8 1.8654187063566456e-9 2.4585654337825885e-11 2.534973006901473e-10 3.403761869513367e-11 3.1849774980270956e-10
          9.634995965176301e-10 2.636490373736571e-10 3.329657911491607e-10 5.761131112719466e-10 4.845677215154282e-8 1.8909980607060764e-7
          4.3591228123452607e-8 2.1196633953355868e-9 1.0377891580147361e-8 2.177199886680004e-8 1.5473246525595801e-9 2.1697031192556316e-9
          1.29060199430482e-8 1.1888740520872922e-8 2.264237577629074e-9 7.89750289847493e-8 7.058435445382525e-9 1.9529403242644708e-10
          3.1949372394474144e-10 9.501480817757505e-11 2.674107055107303e-10 1.590713221734224e-10 8.697494331917187e-11 1.1341824902891299e-10
          4.2092165144753763e-10 4.0643645733361395e-10 1.4296276238956034e-10 1.5480248673196194e-11 1.6554062821624177e-10 8.638412733308141e-11
          3.298794208925694e-10 1.5691074076302536e-8 4.5883773280078174e-8 5.369774440838723e-9 2.272990270936421e-9 8.809556484497418e-11
          3.642042847753118e-11 7.294901251684668e-11 3.968432881364963e-10 4.777523286200163e-10 1.3913034017143438e-10 6.952960340746661e-11
          4.791328275077724e-10 1.8313031616284724e-9 2.551888622649327e-9 2.7170849168774766e-9 6.478325093151371e-9 8.453153030124151e-10
          9.778467838726113e-10 5.624419420498394e-10 4.548703852117387e-10 1.3123968215375228e-9 2.3150737767763343e-10 3.6028666721264814e-9
          1.0404761563653416e-8 1.1103782647328073e-9 3.472988283736381e-10 4.709590779329986e-8 8.517392375297021e-8 7.828175025244461e-8
          1.3878911171862012e-7 2.06698752788382e-8 3.410558107721676e-8 1.1654200533746123e-8 1.2156600676233223e-8 2.4257300620321078e-8
          6.425427776246135e-9 1.0946759271158935e-7 1.9240429968427004e-7 4.7541286875595316e-8 1.2659000818720323e-8 6.666589828022445e-9
          1.0888638032092834e-8 1.7024328822747151e-9 2.62525423060369e-9 2.5499989463280147e-9 3.340509389988977e-9 1.385123014883453e-9
          1.511068623616322e-8 3.5480755789326642e-9 4.131019833649939e-9 5.6226519160118436e-8 4.206800371420917e-9 2.190062149058715e-8
          1.4645518905233375e-8 7.390416319879598e-9 1.1873532055524094e-9 9.856030568299353e-10 2.1797301252699226e-9 2.189316149446522e-9
          2.811546026053175e-10 3.52069931347163e-10 4.311532092224435e-10 7.838529081074615e-10 2.198902173623121e-9 5.102364870977239e-10
          1.3993430914357234e-10 1.6263419988816614e-10 2.0070873870651448e-10 2.127309515935758e-10 1.6582790673324524e-10 1.7083556378121538e-10
          1.7874655780484692e-10 1.8533409063275992e-10 2.2475316448063709e-10 1.8665755182847843e-10 2.2723276813294638e-10 2.5942273659265464e-10
          1.0684616128883162e-10 1.1728743081331416e-10 7.324261571306917e-11 9.959168969891093e-11 8.038125844472982e-11 2.916127050523629e-10
          1.277287003377967e-10 1.2594076368475271e-10 1.4891892057636298e-8 5.451797143776336e-8 4.245172199785887e-8 3.038547255795439e-8
          3.227868587900003e-9 5.071278527741665e-9 2.9666415013031217e-8 2.285689432177143e-8 1.8943917866741285e-9 1.1341778723007811e-8
          9.75544241056639e-9 6.914688467583327e-9 1.6047373630511647e-8 8.169106098124968e-9 7.008230126630782e-10 8.476635194672279e-10
          3.929770157232875e-10 9.945040262713775e-10 2.4683606584085864e-9 7.179892778334273e-10 1.4861093387120307e-10 1.431528610206966e-10
          7.64315532892428e-11 7.616272814199005e-11 9.308698817350825e-11 1.376947881701901e-10 1.7804694510289903e-10 1.1001124820502647e-10
          3.72726869642301e-10 5.195466000356494e-10 1.5698270728773798e-10 1.842551942811383e-10 2.988101504664047e-10 4.292239206548975e-10
          1.690639912649442e-10 6.663663304289978e-10 2.1152768127453857e-10 5.596376908433902e-10 3.8818817895385204e-8 1.3360449555216674e-10
          1.3699790868772553e-10 1.8952573669162503e-10 2.185825924013107e-10 1.6648270066178563e-10 1.4039132182328433e-10 2.476394481109964e-10
          1.0165548621749046e-10 9.562309620155971e-11 7.00055770297298e-11 7.363057495780851e-11 9.070254896269163e-11 6.551315949526632e-11
          6.908127623849736e-11 8.959070618562895e-11 7.725557288588721e-11 7.264939298172839e-11 3.835566784196914e-11 5.163805371405732e-11
          4.746000351430309e-11 6.492043958614549e-11 1.732098540322535e-11 2.2021406450971602e-11 1.64991603438728e-11 2.5386569936412652e-11
          1.6309172624912196e-11 8.88916941061683e-12 1.7435391860192133e-11 2.672182749871786e-11 3.4273979528952506e-11 2.598161430976743e-11
          1.567733528452025e-11 2.87517334218537e-11 1.8561611095472066e-11 4.182613155918715e-11 8.256509986162807e-9 2.1054301935483983e-8
          1.1679827631060239e-8 3.963945992874009e-9 1.6447251510782877e-9 2.9410483970694833e-9 5.593564256004952e-9 2.2239162392136318e-9
          6.255201107223948e-10 3.6784353801246355e-10 4.959168271510675e-10 5.789313625949611e-10 8.239970338911431e-10 5.049993186018351e-10
          1.3584272417742999e-11 1.3931697325327352e-11 1.1137709357918733e-11 8.115278963382085e-12 1.1035493220674871e-11 1.4279122232911706e-11
          1.7265036182050717e-11 1.3955707477967657e-11 1.0933277083431008e-11 2.0250950131189727e-11 1.0629112690520474e-9 1.0967232554601091e-9
          1.4077466180311435e-9 1.261199193112637e-9 1.1305352418681707e-9 1.1146517681941306e-9 2.8310740154996932e-9 2.3294935331938248e-9
          1.827913050887956e-9 9.33578186991838e-9 7.93761214328584e-9 6.5394424166533025e-9 1.6888352178212507e-10 2.718290138737888e-10
          5.5056254207173974e-11 2.0808091744969852e-10 8.280995568739208e-10 6.161006959027923e-10 9.804612367726704e-11 1.1802224872348637e-8
          1.869313052190726e-8 3.089946284652277e-9 1.495498257035678e-9 7.268035838499954e-10 1.5595995332441761e-9 1.7012983659616018e-9
          6.767677349117442e-10 7.331642249960127e-10 2.5570853758235734e-9 3.5757466843734684e-9 3.0220536713910274e-9 9.031045382865783e-10
          8.105469080600028e-10 3.866618053754476e-9 2.059996999354882e-10 1.9202332251919363e-10 1.4374245127685328e-10 1.9830520970820901e-10
          1.5000817199106065e-10 7.35344385622279e-11 2.247714321219993e-10 1.628692696049868e-10 2.5123765453578965e-10 5.769601993587421e-10
          6.581374632599788e-9 9.815645304654378e-9 9.81756099255302e-9 3.341277083578247e-9 3.4480330584601335e-9 1.3964265416003176e-8
          1.4175619977993447e-8 4.757970183936873e-9 7.784653038384901e-10 1.02226928592978e-9 1.0412096894382044e-9 4.5741409580810595e-10
          1.115209921176494e-9 5.910675095761199e-11 2.7485228976858746e-11 1.3008461776954234e-11 1.5136748979502474e-11 4.208162268083252e-11
          1.2432651136165465e-11 1.6341800633677596e-11 3.546874013770498e-11
        </DataArray>
        <DataArray type="Float64" Name="gradient_matprop_error" format="ascii" RangeMin="0" RangeMax="0">
          0 0 0 0 0 0
          0 0 0 0 0 0
          0 0 0 0 0 0
          0 0 0 0 0 0
          0 0 0 0 0 0
          0 0 0 0 0 0
          0 0 0 0 0 0
          0 0 0 0 0 0
          0 0 0 0 0 0
          0 0 0 0 0 0
          0 0 0 0 0 0
          0 0 0 0 0 0
          0 0 0 0 0 0
          0 0 0 0 0 0
          0 0 0 0 0 0
          0 0 0 0 0 0
          0 0 0 0 0 0
          0 0 0 0 0 0
          0 0 0 0 0 0
          0 0 0 0 0 0
          0 0 0 0 0 0
          0 0 0 0 0 0
          0 0 0 0 0 0
          0 0 0 0 0 0
          0 0 0 0 0 0
          0 0 0 0 0 0
          0 0 0 0 0 0
          0 0 0 0 0 0
          0 0 0 0 0 0
          0 0 0 0 0 0
          0 0 0 0 0 0
          0 0 0 0 0 0
          0 0 0 0 0 0
          0 0 0 0 0 0
          0 0 0 0 0 0
          0 0 0 0 0 0
          0 0 0 0 0 0
          0 0 0 0 0 0
          0 0 0 0 0 0
          0 0 0 0 0 0
          0 0 0 0 0 0
          0 0 0 0 0 0
          0 0 0 0 0 0
          0 0 0 0 0 0
          0 0 0 0 0 0
          0 0 0 0 0 0
          0 0 0 0 0 0
          0 0 0 0 0 0
          0 0 0 0 0 0
          0 0 0 0 0 0
          0 0 0 0 0 0
          0 0 0 0 0 0
          0 0 0 0 0 0
          0 0 0 0 0 0
          0 0 0 0 0 0
          0 0 0 0 0 0
          0 0 0 0 0 0
          0 0 0 0 0 0
          0 0 0 0 0 0
          0 0 0 0 0 0
          0 0 0 0 0 0
          0 0 0
        </DataArray>
        <DataArray type="Float64" Name="initial_marker" format="ascii" RangeMin="0" RangeMax="0">
          0 0 0 0 0 0
          0 0 0 0 0 0
          0 0 0 0 0 0
          0 0 0 0 0 0
          0 0 0 0 0 0
          0 0 0 0 0 0
          0 0 0 0 0 0
          0 0 0 0 0 0
          0 0 0 0 0 0
          0 0 0 0 0 0
          0 0 0 0 0 0
          0 0 0 0 0 0
          0 0 0 0 0 0
          0 0 0 0 0 0
          0 0 0 0 0 0
          0 0 0 0 0 0
          0 0 0 0 0 0
          0 0 0 0 0 0
          0 0 0 0 0 0
          0 0 0 0 0 0
          0 0 0 0 0 0
          0 0 0 0 0 0
          0 0 0 0 0 0
          0 0 0 0 0 0
          0 0 0 0 0 0
          0 0 0 0 0 0
          0 0 0 0 0 0
          0 0 0 0 0 0
          0 0 0 0 0 0
          0 0 0 0 0 0
          0 0 0 0 0 0
          0 0 0 0 0 0
          0 0 0 0 0 0
          0 0 0 0 0 0
          0 0 0 0 0 0
          0 0 0 0 0 0
          0 0 0 0 0 0
          0 0 0 0 0 0
          0 0 0 0 0 0
          0 0 0 0 0 0
          0 0 0 0 0 0
          0 0 0 0 0 0
          0 0 0 0 0 0
          0 0 0 0 0 0
          0 0 0 0 0 0
          0 0 0 0 0 0
          0 0 0 0 0 0
          0 0 0 0 0 0
          0 0 0 0 0 0
          0 0 0 0 0 0
          0 0 0 0 0 0
          0 0 0 0 0 0
          0 0 0 0 0 0
          0 0 0 0 0 0
          0 0 0 0 0 0
          0 0 0 0 0 0
          0 0 0 0 0 0
          0 0 0 0 0 0
          0 0 0 0 0 0
          0 0 0 0 0 0
          0 0 0 0 0 0
          0 0 0
        </DataArray>
        <DataArray type="Float64" Name="markers_norefine" format="ascii" RangeMin="0" RangeMax="0">
          0 0 0 0 0 0
          0 0 0 0 0 0
          0 0 0 0 0 0
          0 0 0 0 0 0
          0 0 0 0 0 0
          0 0 0 0 0 0
          0 0 0 0 0 0
          0 0 0 0 0 0
          0 0 0 0 0 0
          0 0 0 0 0 0
          0 0 0 0 0 0
          0 0 0 0 0 0
          0 0 0 0 0 0
          0 0 0 0 0 0
          0 0 0 0 0 0
          0 0 0 0 0 0
          0 0 0 0 0 0
          0 0 0 0 0 0
          0 0 0 0 0 0
          0 0 0 0 0 0
          0 0 0 0 0 0
          0 0 0 0 0 0
          0 0 0 0 0 0
          0 0 0 0 0 0
          0 0 0 0 0 0
          0 0 0 0 0 0
          0 0 0 0 0 0
          0 0 0 0 0 0
          0 0 0 0 0 0
          0 0 0 0 0 0
          0 0 0 0 0 0
          0 0 0 0 0 0
          0 0 0 0 0 0
          0 0 0 0 0 0
          0 0 0 0 0 0
          0 0 0 0 0 0
          0 0 0 0 0 0
          0 0 0 0 0 0
          0 0 0 0 0 0
          0 0 0 0 0 0
          0 0 0 0 0 0
          0 0 0 0 0 0
          0 0 0 0 0 0
          0 0 0 0 0 0
          0 0 0 0 0 0
          0 0 0 0 0 0
          0 0 0 0 0 0
          0 0 0 0 0 0
          0 0 0 0 0 0
          0 0 0 0 0 0
          0 0 0 0 0 0
          0 0 0 0 0 0
          0 0 0 0 0 0
          0 0 0 0 0 0
          0 0 0 0 0 0
          0 0 0 0 0 0
          0 0 0 0 0 0
          0 0 0 0 0 0
          0 0 0 0 0 0
          0 0 0 0 0 0
          0 0 0 0 0 0
          0 0 0
        </DataArray>
        <DataArray type="Float64" Name="markers_mustrefine" format="ascii" RangeMin="0" RangeMax="0">
          0 0 0 0 0 0
          0 0 0 0 0 0
          0 0 0 0 0 0
          0 0 0 0 0 0
          0 0 0 0 0 0
          0 0 0 0 0 0
          0 0 0 0 0 0
          0 0 0 0 0 0
          0 0 0 0 0 0
          0 0 0 0 0 0
          0 0 0 0 0 0
          0 0 0 0 0 0
          0 0 0 0 0 0
          0 0 0 0 0 0
          0 0 0 0 0 0
          0 0 0 0 0 0
          0 0 0 0 0 0
          0 0 0 0 0 0
          0 0 0 0 0 0
          0 0 0 0 0 0
          0 0 0 0 0 0
          0 0 0 0 0 0
          0 0 0 0 0 0
          0 0 0 0 0 0
          0 0 0 0 0 0
          0 0 0 0 0 0
          0 0 0 0 0 0
          0 0 0 0 0 0
          0 0 0 0 0 0
          0 0 0 0 0 0
          0 0 0 0 0 0
          0 0 0 0 0 0
          0 0 0 0 0 0
          0 0 0 0 0 0
          0 0 0 0 0 0
          0 0 0 0 0 0
          0 0 0 0 0 0
          0 0 0 0 0 0
          0 0 0 0 0 0
          0 0 0 0 0 0
          0 0 0 0 0 0
          0 0 0 0 0 0
          0 0 0 0 0 0
          0 0 0 0 0 0
          0 0 0 0 0 0
          0 0 0 0 0 0
          0 0 0 0 0 0
          0 0 0 0 0 0
          0 0 0 0 0 0
          0 0 0 0 0 0
          0 0 0 0 0 0
          0 0 0 0 0 0
          0 0 0 0 0 0
          0 0 0 0 0 0
          0 0 0 0 0 0
          0 0 0 0 0 0
          0 0 0 0 0 0
          0 0 0 0 0 0
          0 0 0 0 0 0
          0 0 0 0 0 0
          0 0 0 0 0 0
          0 0 0
        </DataArray>
        <DataArray type="Float64" Name="gradient_marker" format="ascii" RangeMin="0" RangeMax="1">
          1 1 1 1 1 1
          1 1 1 1 1 1
          1 1 1 1 1 1
          1 1 1 1 1 1
          1 1 1 1 1 1
          1 1 1 1 1 1
          1 1 1 1 1 1
          1 1 1 1 1 1
          1 1 1 1 1 1
          1 1 1 1 1 1
          1 1 1 1 1 1
          1 1 1 1 1 1
          1 1 1 1 1 1
          1 1 1 1 1 1
          1 1 1 1 1 1
          1 1 1 1 1 0.875
          1 1 1 0.75 1 1
          1 1 1 0.75 1 1
          1 1 1 1 1 1
          1 1 1 1 1 1
          1 0.5 0.5 1 1 1
          1 1 1 1 1 1
          1 1 1 1 1 1
          1 1 1 1 1 1
          1 1 1 1 1 1
          1 1 1 1 1 1
          1 1 1 1 1 1
          1 1 1 1 1 1
          1 1 1 0.125 1 1
          1 1 1 1 1 1
          1 1 1 1 1 1
          1 1 1 1 1 1
          1 1 1 1 1 1
          1 1 1 1 1 1
          1 1 1 1 1 1
          1 1 1 1 1 1
          1 1 1 1 1 1
          1 1 1 1 1 1
          1 1 1 1 1 1
          1 1 1 1 1 1
          1 1 1 1 0.125 1
          1 1 1 1 1 1
          1 1 1 1 1 1
          1 1 1 1 1 1
          1 1 1 1 1 1
          1 1 1 1 1 1
          1 1 1 1 0 0
          0 0.5 1 0.5 0.5 1
          1 1 1 1 1 1
          1 1 1 1 1 1
          1 1 1 1 1 1
          1 1 1 1 1 1
          1 1 1 1 1 1
          1 1 1 1 1 1
          1 1 1 1 1 1
          1 1 1 1 1 1
          1 1 1 1 1 1
          1 1 1 1 1 1
          0.5 0.5 0.5 1 1 0.5
          0.5 1 1 1 1 1
          1 1 1 1 1 1
          1 1 1
        </DataArray>
        <DataArray type="Float64" Name="gradient_matprop_marker" format="ascii" RangeMin="0" RangeMax="0">
          0 0 0 0 0 0
          0 0 0 0 0 0
          0 0 0 0 0 0
          0 0 0 0 0 0
          0 0 0 0 0 0
          0 0 0 0 0 0
          0 0 0 0 0 0
          0 0 0 0 0 0
          0 0 0 0 0 0
          0 0 0 0 0 0
          0 0 0 0 0 0
          0 0 0 0 0 0
          0 0 0 0 0 0
          0 0 0 0 0 0
          0 0 0 0 0 0
          0 0 0 0 0 0
          0 0 0 0 0 0
          0 0 0 0 0 0
          0 0 0 0 0 0
          0 0 0 0 0 0
          0 0 0 0 0 0
          0 0 0 0 0 0
          0 0 0 0 0 0
          0 0 0 0 0 0
          0 0 0 0 0 0
          0 0 0 0 0 0
          0 0 0 0 0 0
          0 0 0 0 0 0
          0 0 0 0 0 0
          0 0 0 0 0 0
          0 0 0 0 0 0
          0 0 0 0 0 0
          0 0 0 0 0 0
          0 0 0 0 0 0
          0 0 0 0 0 0
          0 0 0 0 0 0
          0 0 0 0 0 0
          0 0 0 0 0 0
          0 0 0 0 0 0
          0 0 0 0 0 0
          0 0 0 0 0 0
          0 0 0 0 0 0
          0 0 0 0 0 0
          0 0 0 0 0 0
          0 0 0 0 0 0
          0 0 0 0 0 0
          0 0 0 0 0 0
          0 0 0 0 0 0
          0 0 0 0 0 0
          0 0 0 0 0 0
          0 0 0 0 0 0
          0 0 0 0 0 0
          0 0 0 0 0 0
          0 0 0 0 0 0
          0 0 0 0 0 0
          0 0 0 0 0 0
          0 0 0 0 0 0
          0 0 0 0 0 0
          0 0 0 0 0 0
          0 0 0 0 0 0
          0 0 0 0 0 0
          0 0 0
        </DataArray>
        <DataArray type="Float64" Name="combo" format="ascii" RangeMin="0" RangeMax="1">
          1 1 1 1 1 1
          1 1 1 1 1 1
          1 1 1 1 1 1
          1 1 1 1 1 1
          1 1 1 1 1 1
          1 1 1 1 1 1
          1 1 1 1 1 1
          1 1 1 1 1 1
          1 1 1 1 1 1
          1 1 1 1 1 1
          1 1 1 1 1 1
          1 1 1 1 1 1
          1 1 1 1 1 1
          1 1 1 1 1 1
          1 1 1 1 1 1
          1 1 1 1 1 0.875
          1 1 1 0.75 1 1
          1 1 1 0.75 1 1
          1 1 1 1 1 1
          1 1 1 1 1 1
          1 0.5 0.5 1 1 1
          1 1 1 1 1 1
          1 1 1 1 1 1
          1 1 1 1 1 1
          1 1 1 1 1 1
          1 1 1 1 1 1
          1 1 1 1 1 1
          1 1 1 1 1 1
          1 1 1 0.125 1 1
          1 1 1 1 1 1
          1 1 1 1 1 1
          1 1 1 1 1 1
          1 1 1 1 1 1
          1 1 1 1 1 1
          1 1 1 1 1 1
          1 1 1 1 1 1
          1 1 1 1 1 1
          1 1 1 1 1 1
          1 1 1 1 1 1
          1 1 1 1 1 1
          1 1 1 1 0.125 1
          1 1 1 1 1 1
          1 1 1 1 1 1
          1 1 1 1 1 1
          1 1 1 1 1 1
          1 1 1 1 1 1
          1 1 1 1 0 0
          0 0.5 1 0.5 0.5 1
          1 1 1 1 1 1
          1 1 1 1 1 1
          1 1 1 1 1 1
          1 1 1 1 1 1
          1 1 1 1 1 1
          1 1 1 1 1 1
          1 1 1 1 1 1
          1 1 1 1 1 1
          1 1 1 1 1 1
          1 1 1 1 1 1
          0.5 0.5 0.5 1 1 0.5
          0.5 1 1 1 1 1
          1 1 1 1 1 1
          1 1 1
        </DataArray>
        <DataArray type="Float64" Name="dHdT" format="ascii" RangeMin="25.808972625597164" RangeMax="26.246316571646947">
          25.811557271747624 25.811557606796892 25.81166236670877 25.811662058461735 25.811558979231897 25.81155832952094
          25.81166090395011 25.811661696079625 25.81155760819273 25.811557568993546 25.81166262772608 25.8116627304107
          25.811557468235158 25.81155748732404 25.811662943941492 25.811662931859555 25.811557516629684 25.81155752576677
          25.811662927978084 25.811662914856733 25.81155794184616 25.8116617502147 25.811557679809976 25.811662488209134
          25.81155752979437 25.811662833095316 25.811557506412928 25.811662919777625 25.811557534903855 25.81166290173539
          25.81188106440838 25.81188159550632 25.811883776081604 25.811880230638135 25.811875124369823 25.81187469330877
          25.8118731050105 25.811873329076324 25.811873007093226 25.81187327865884 25.81188212660426 25.811876685194665
          25.811874262247716 25.811873553142142 25.811873550224455 25.812009053146795 25.812018198017782 25.812024839343273
          25.81204529150566 25.812069942974986 25.812076237205815 25.812082661898994 25.81208530244491 25.812084180111796
          25.81208636929484 25.81202734288877 25.81206574366805 25.81208253143664 25.812087942990825 25.812088558477882
          25.812516961125162 25.8123741425554 25.812207002587815 25.812293528960208 25.81228572825721 25.81230260143834
          25.8123048541524 25.8123093561096 25.812444997812268 25.812344416342544 25.8123166884307 25.8123138580668
          25.811232628534153 25.818983997002107 25.81272767742189 25.81296813564658 25.812518223630104 25.812525212986436
          25.81249307443242 25.812505016185085 25.812736218039667 25.812545083310813 25.81251175773653 25.812513799990732
          25.83525781922833 25.814240022730125 25.81262637044376 25.812656233035888 25.812615305206535 25.81261175468275
          25.81265684060507 25.812640990752588 25.812610084722387 25.81259816892163 25.819741116903746 26.05355200082758
          25.828767706244278 25.812842584705514 25.814624119262174 25.842802690799374 25.812992012406248 25.815112542693097
          25.81507348097804 25.8172354428419 25.813605289495772 26.120578455985562 25.819464195164137 25.812545461538246
          25.812599201875436 25.812721298536037 25.812802565878233 25.812559541837754 25.812607782846666 25.81262647674096
          25.81265123191884 25.81276063226622 25.812640293520403 25.812682099423377 25.812904199201363 25.812659821432618
          25.81281938507648 25.879198282066476 25.964259354112528 25.824246637679966 25.81849917095368 25.812800614594753
          25.8127249988253 25.812796457137267 25.813437661417623 25.813754455391653 25.812934735506264 25.812796077232004
          25.813948474862997 25.813056836045163 25.81341662117145 25.813304271383227 25.81424541208456 25.812772501942792
          25.812844173526123 25.81260180951488 25.81262380873894 25.81269234730746 25.81261349973162 25.813551706721285
          25.81507420299767 25.81291584510946 25.81264580796301 25.872604317825143 25.92494247968706 25.912130731599987
          25.99428817777332 25.839035501068963 25.856250267682107 25.830045323563233 25.831921582069832 25.84914165465216
          25.823001294441244 25.95165714537483 26.063633875859583 25.87346503429525 25.833797840576437 25.821961310769776
          25.82753731048136 25.815499526950994 25.816796693271304 25.81689872196518 25.817890921376737 25.814857161080525
          25.83311331019295 25.818093859591617 25.818883120788293 26.246316571646947 25.812775293232036 25.808972625597164
          25.81034456329745 25.811716500997733 25.81202414005303 25.812188349784236 25.811935494427683 25.812122907362664
          25.81229235969592 25.812334490356132 25.81238997043099 25.812352559515446 25.81231032029764 25.812445450505848
          25.812334449178014 25.812343877625164 25.81240358708579 25.812418070180147 25.81235439561556 25.812412332613626
          25.812420404826277 25.81235330607231 25.812432553274512 25.812428477038928 25.812626101966863 25.812661665672493
          25.812592469259506 25.812620272889216 25.812581947766123 25.81260525589178 25.812599167252092 25.812697229378117
          25.812648076518922 25.812628564017434 25.82121556940303 25.886690733531957 25.874370077017986 25.86204942050401
          25.814055822826443 25.816146174260396 25.85031538317584 25.843828852838797 25.8143896842482 25.828133609831415
          25.825925981265126 25.818236525694353 25.837342322501755 25.823718352698833 25.8135550562236 25.81370723160883
          25.81309474747779 25.813859406994066 25.81646879764797 25.813852814521464 25.812729978446463 25.812755668486275
          25.81265329218907 25.81270197700779 25.81273243648459 25.812781358526085 25.81294755673606 25.812762895961395
          25.813419839910583 25.813649110205024 25.81299355349229 25.813041600135847 25.813265617343667 25.81339545494479
          25.812992600031023 25.81387838049946 25.813089646779403 25.81352529254591 26.110748915951284 25.813985289899044
          25.814010116362795 25.815219822159385 25.815449977263768 25.814235264964164 25.814034942826545 25.81568013236815
          25.812569803350275 25.812573582984676 25.812594167639062 25.812599291564513 25.81257028387068 25.8125912155651
          25.81259530334794 25.812577362619074 25.81260441548996 25.81259939113078 25.81261853192785 25.81262500014435
          25.8126203228252 25.812631468360852 25.81265276246863 25.812667760454897 25.812650043502888 25.812670811546074
          25.81264218238315 25.81263116269293 25.812645065844684 25.812682758441163 25.81269157958925 25.812658968996445
          25.81264732453715 25.81267386263724 25.812647949306218 25.812700400737334 25.880127035655544 25.966269827124783
          25.908934947689268 25.84674383235922 25.82869803693753 25.839539068004946 25.86126650966652 25.834819915069982
          25.819557679243047 25.816717374212097 25.818051895569305 25.819156658125845 25.821882555321917 25.818014532313978
          25.81280406655617 25.812826635401898 25.812752014417388 25.812715160903927 25.812742994430366 25.812849204247627
          25.812853612057886 25.812770827956804 25.812733974443343 25.812858019868145 25.811549303783778 25.81155388155217
          25.811668235130096 25.811664181052343 25.811558459320572 25.811660126974594 25.81186877244653 25.81188137594659
          25.81189397944665 25.811978455460547 25.811962025890978 25.811945596321415 25.813088815201855 25.813240672962507
          25.813086375017193 25.813360088316944 25.815203968261706 25.81882152418354 25.813326813056136 25.847322317401318