<?xml version="1.0"?>
<VTKFile type="UnstructuredGrid" version="0.1" byte_order="LittleEndian" header_type="UInt32" compressor="vtkZLibDataCompressor">
  <UnstructuredGrid>
    <Piece NumberOfPoints="366" NumberOfCells="169">
      <PointData>
        <DataArray type="Int32" Name="libmesh_node_id" format="ascii" RangeMin="213" RangeMax="2645">
          213 269 273 274 283 284
          285 286 293 294 414 444
          445 446 447 448 449 450
          451 452 453 454 455 456
          457 576 577 579 580 586
          587 672 674 677 682 683
          684 685 686 687 688 689
          691 692 693 694 695 696
          697 698 699 700 701 702
          703 709 1002 1012 1013 1015
          1016 1017 1018 1021 1024 1038
          1039 1042 1059 1064 1110 1111
          1112 1113 1114 1115 1116 1117
          1118 1119 1120 1121 1122 1123
          1124 1125 1126 1127 1128 1129
          1130 1131 1132 1133 1134 1135
          1136 1137 1138 1139 1140 1141
          1142 1143 1205 1206 1213 1214
          1251 1252 1253 1254 1255 1256
          1257 1258 1259 1260 1261 1262
          1263 1264 1265 1266 1267 1268
          1269 1270 1271 1303 1309 1310
          1313 1333 1334 1335 1337 1338
          1339 1340 1342 1343 1344 1345
          1346 1347 1348 1349 1350 1351
          1352 1353 1355 1356 1357 1359
          2118 2119 2120 2123 2130 2131
          2138 2139 2140 2141 2142 2143
          2144 2205 2206 2207 2208 2209
          2210 2211 2298 2332 2530 2531
          2532 2533 2534 2535 2536 2537
          2538 2539 2540 2541 2542 2543
          2544 2545 2546 2547 2548 2549
          2550 2551 2552 2553 2554 2555
          2556 2557 2558 2559 2560 2561
          2562 2563 2564 2565 2566 2567
          2568 2569 2570 2571 2572 2573
          2574 2575 2576 2577 2578 2579
          2580 2581 2582 2583 2584 2585
          2586 2587 2588 2589 2590 2591
          2592 2593 2594 2597 2598 2599
          2600 2603 2604 2605 2606 2607
          2608 2609 2610 2611 2612 2613
          2614 2615 2616 2617 2618 2619
          2620 2621 2622 2623 2624 2625
          2626 2627 2628 2629 2630 2631
          2632 2633 2634 2635 2636 2637
          2638 2639 2640 2641 2642 2643
          2644 2645 270 676 673 678
          675 690 681 411 275 417
          436 419 437 281 442 1019
          1020 1036 1037 1040 1041 1043
          1044 1045 1074 1076 1078 416
          1304 1311 1312 1305 1314 1315
          1316 1317 1308 1318 1336 1341
          1328 1354 1329 1358 1332 1005
          1028 1026 1030 2134 2136 2145
          2147 1025 2146 2197 2198 2201
          2212 2203 2213 2214 2311 2313
          2315 1061 2345 2347 2349 422
          2415 2417 2419 2439 2441 2443
        </DataArray>
        <DataArray type="Float64" Name="bounds" format="ascii" RangeMin="0" RangeMax="0">
          0 0 0 0 0 0
          0 0 0 0 0 0
          0 0 0 0 0 0
          0 0 0 0 0 0
          0 0 0 0 0 0
          0 0 0 0 0 0
          0 0 0 0 0 0
          0 0 0 0 0 0
          0 0 0 0 0 0
          0 0 0 0 0 0
          0 0 0 0 0 0
          0 0 0 0 0 0
          0 0 0 0 0 0
          0 0 0 0 0 0
          0 0 0 0 0 0
          0 0 0 0 0 0
          0 0 0 0 0 0
          0 0 0 0 0 0
          0 0 0 0 0 0
          0 0 0 0 0 0
          0 0 0 0 0 0
          0 0 0 0 0 0
          0 0 0 0 0 0
          0 0 0 0 0 0
          0 0 0 0 0 0
          0 0 0 0 0 0
          0 0 0 0 0 0
          0 0 0 0 0 0
          0 0 0 0 0 0
          0 0 0 0 0 0
          0 0 0 0 0 0
          0 0 0 0 0 0
          0 0 0 0 0 0
          0 0 0 0 0 0
          0 0 0 0 0 0
          0 0 0 0 0 0
          0 0 0 0 0 0
          0 0 0 0 0 0
          0 0 0 0 0 0
          0 0 0 0 0 0
          0 0 0 0 0 0
          0 0 0 0 0 0
          0 0 0 0 0 0
          0 0 0 0 0 0
          0 0 0 0 0 0
          0 0 0 0 0 0
          0 0 0 0 0 0
          0 0 0 0 0 0
          0 0 0 0 0 0
          0 0 0 0 0 0
          0 0 0 0 0 0
          0 0 0 0 0 0
          0 0 0 0 0 0
          0 0 0 0 0 0
          0 0 0 0 0 0
          0 0 0 0 0 0
          0 0 0 0 0 0
          0 0 0 0 0 0
          0 0 0 0 0 0
          0 0 0 0 0 0
          0 0 0 0 0 0
        </DataArray>
        <DataArray type="Float64" Name="gradient_error" format="ascii" RangeMin="6.997977843006391e-12" RangeMax="1.0278844440197504e-8">
          8.578257805929735e-10 5.335198444715109e-9 8.280995568739208e-10 2.1657453908378435e-10 1.6888352178212507e-10 2.718290138737888e-10
          5.5056254207173974e-11 2.0808091744969852e-10 1.3480695727311135e-11 9.804612367726704e-11 3.03798666868006e-10 1.0175792622087327e-10
          1.0719496268193779e-10 3.690968897490379e-11 5.1038337327365046e-11 5.910675095761199e-11 2.7485228976858746e-11 4.208162268083252e-11
          1.4374245127685328e-10 1.5000817199106065e-10 7.35344385622279e-11 2.0860029912183395e-11 4.750415257717517e-11 3.546874013770498e-11
          1.628692696049868e-10 3.5757466843734684e-9 3.0220536713910274e-9 9.031045382865783e-10 8.105469080600028e-10 2.059996999354882e-10
          1.9202332251919363e-10 1.0140617190702826e-8 7.632999745704994e-9 2.8106324764755254e-9 1.11612886647776e-9 1.0004753076524559e-9
          7.116216064669471e-10 7.485537596903793e-10 2.6072534643049155e-10 2.2449567496669165e-10 3.3511999964289287e-10 7.784653038384901e-10
          4.5741409580810595e-10 8.382695438774005e-11 8.850848519474248e-11 1.1846536310442873e-10 1.2253518234962347e-10 6.708361957526495e-11
          5.588427031408432e-11 7.322158690255032e-11 9.319001600174491e-11 1.266050015948182e-10 9.055890349101631e-11 1.9830520970820901e-10
          2.247714321219993e-10 2.5123765453578965e-10 5.323657364965547e-10 2.466130408955459e-10 3.428117500185413e-10 3.2062302428979974e-10
          1.9696860509180803e-10 1.475870697773139e-10 1.355932559454351e-10 1.2238017619282314e-10 1.1053694700104251e-10 1.366148377357525e-10
          1.3663006352475272e-10 1.520604440011603e-10 2.4342812734389896e-10 3.2266323913528763e-10 7.21656567762504e-11 6.775496707018978e-11
          5.483845121672327e-11 5.100276948331859e-11 3.5331651961827753e-11 4.551443622007286e-11 4.319105918472474e-11 5.704868431847494e-11
          5.8032389312404955e-11 3.791417455728608e-11 3.6961809354215125e-11 3.2411091058021205e-11 2.47706377443859e-11 4.475678283318083e-11
          5.377667287870649e-11 4.443078240561319e-11 1.709486230054804e-11 1.4718491560389633e-11 3.878884782468903e-11 2.957443206484332e-11
          6.963636152550123e-11 5.7052857287696074e-11 1.7745719505146615e-11 4.6555454877834334e-11 6.805985876250433e-11 6.873833342110429e-11
          4.562156844748454e-11 5.769861282726374e-11 7.417929155312084e-11 9.413491157969656e-11 5.178151368505869e-11 7.616113401923807e-11
          6.304990271716863e-11 1.0266030001744597e-10 1.3008461776954234e-11 1.5136748979502474e-11 1.2432651136165465e-11 1.6341800633677596e-11
          4.5082806837788104e-11 6.001217670628248e-11 3.23891775948904e-11 3.564249577625032e-11 3.9412522402755486e-11 5.108079118352502e-11
          3.6324324587305097e-11 1.3057314711815697e-11 1.2171982007258047e-11 1.5066651177687228e-11 1.3987096120322226e-11 8.903778353020732e-12
          8.418726101458397e-12 9.080013223076803e-12 1.1286649302700398e-11 1.2907541062957228e-11 9.74130034469521e-12 1.7075987643558754e-11
          1.5802210233386405e-11 9.256248093132874e-12 1.4528432823214055e-11 4.848774457047032e-9 2.6761225066762554e-9 2.534796449097682e-9
          1.3265175625550358e-9 6.706921747539185e-10 6.377025029327654e-10 1.2789195762699735e-9 2.976785206699949e-10 5.295664512444398e-10
          4.857297963308522e-10 5.499921482948194e-10 4.52427621755021e-10 1.3113497034704123e-10 1.329861738270364e-10 1.9810678778676802e-10
          1.8913938811097503e-10 8.727679305976156e-11 1.0504120132949041e-10 1.1569167832736897e-10 1.3483737730703156e-10 1.80171988435182e-10
          1.2634215532524753e-10 4.51738750236152e-10 3.1525972160528827e-10 4.332923336444636e-10 4.0820603499427735e-10 3.930880848583931e-10
          5.257545504536464e-11 7.628015047333117e-11 7.338374427929684e-11 6.55804170106293e-11 1.554155849811458e-10 2.1684810674124788e-10
          7.958649260675433e-11 1.102664075699796e-10 4.100448020491318e-11 5.4466102942445315e-11 6.357742878906755e-11 8.550099560095893e-11
          4.89167780956374e-11 4.865518928744697e-11 6.239000117105721e-11 3.6543942986795657e-11 4.418679321027159e-11 4.176469613355223e-11
          5.163457674630991e-11 3.814067203142e-11 1.729689259904254e-10 3.006407939368538e-10 2.6802453807381907e-11 2.6040688946985773e-11
          3.626157955912645e-11 3.503026604913356e-11 1.8881029879218703e-11 2.391388221852754e-11 2.320706130433258e-11 2.3890876490971052e-11
          3.163044723159697e-11 2.1090974549078557e-11 6.031611842064695e-11 5.780107557100788e-11 2.9502063335450874e-11 5.100621355954044e-11
          2.079068673474669e-11 2.658510550670776e-11 1.59285821830396e-11 1.889428643843347e-11 1.907854457414092e-11 2.3708269089362267e-11
          1.8106864168847446e-11 4.144628080828309e-11 2.20346346181608e-11 3.46437327032212e-11 9.311304405720668e-11 8.871906606289432e-11
          3.924213578906136e-11 3.7512575891966576e-11 7.69424348486849e-11 3.286883342532088e-11 1.2960370402021714e-10 1.2311858919400678e-10
          5.124734430732675e-11 1.0567458123134577e-10 1.3206524999980061e-11 1.2698869949354766e-11 1.6197529635117208e-11 1.5534961619091766e-11
          8.643015551357721e-12 9.973034564079646e-12 9.58972123083604e-12 1.1388376686750643e-11 1.3802728777438854e-11 8.589806667062018e-12
          2.18319275833805e-11 2.086337919249579e-11 1.1937007606102193e-11 1.8315068938585334e-11 6.140930297585924e-11 2.6566081317254207e-11
          4.5660117920995376e-11 2.3840189637455295e-11 8.299478052210033e-11 3.520433827063348e-11 6.056906710372565e-11 9.570814379508467e-12
          1.139141156818318e-11 6.997977843006391e-12 7.714141755740011e-12 8.556090284245115e-12 1.0049759184554973e-11 7.455078074948418e-12
          1.47559757591028e-11 9.36027189262039e-12 1.2776644442646006e-11 6.526101224152354e-11 6.210550376777935e-11 1.2911600876481632e-10
          5.355403415203511e-11 6.625492206638528e-11 1.381253156174529e-10 2.61369030879624e-11 2.4927095379929776e-11 1.4864907621775772e-11
          1.419026407059706e-11 2.173139810856414e-11 1.2435261336496544e-11 2.779848527941816e-11 2.6498485663696743e-11 1.504293983930409e-11
          2.3049739208084684e-11 1.0036767104117632e-10 4.1992230348807566e-11 7.197530428230026e-11 3.593405272091622e-11 1.0705134965197317e-10
          4.458599021052904e-11 7.633610794659999e-11 1.727326674291394e-11 1.0851089748018027e-11 1.480102494059674e-11 1.0347277342461315e-11
          1.824659072448017e-11 1.1411941379268907e-11 1.5592189080766295e-11 2.7337777949996586e-11 3.228313142983072e-11 2.0621221810231613e-11
          2.2548964535713635e-11 2.30766922280378e-11 2.650485134060137e-11 1.993238371653827e-11 4.1383305259024156e-11 2.703861147643368e-11
          3.29023492599025e-11 4.8009188327710593e-11 3.1038936218341654e-11 3.7534976430191707e-11 2.5928489649094793e-11 5.048025104703773e-11
          3.2477356745011605e-11 3.919826479374337e-11 3.866618053754476e-9 3.6938930609157662e-9 9.158261433611936e-9 2.4120439572396596e-9
          6.6424429077593675e-9 1.02226928592978e-9 3.341277083578247e-9 8.211385906931063e-10 6.161006959027923e-10 1.115209921176494e-9
          7.268035838499954e-10 4.430755078115129e-10 6.767677349117442e-10 2.263335171661887e-10 5.769601993587421e-10 4.396960374668764e-10
          3.3410760275185625e-10 3.648900223159176e-10 3.398025012164798e-10 2.8413049264110735e-10 4.1667547381358835e-10 2.917963172661777e-10
          1.5614586928133032e-10 4.2747025528878883e-10 1.380917552856904e-10 2.2528386102097164e-10 9.911081472101097e-11 8.013834891159806e-11
          1.0278844440197504e-8 5.6440049393771024e-9 5.254187178908192e-9 9.615760613657304e-9 2.8139511803134444e-9 2.616167408968997e-9
          2.1691982587038345e-9 4.253942874702348e-9 7.873424800902059e-9 2.108813199393354e-9 1.185924384276788e-9 9.518560178540668e-10
          9.308209960181361e-10 6.92742708497466e-10 1.5231915999739693e-9 5.747025735704009e-10 1.2471404387857795e-9 1.0531128029887807e-9
          8.406269324658197e-10 1.1962719211554854e-9 1.1912440017800616e-9 1.6514054458440663e-10 3.738554787874323e-10 1.864440326462449e-10
          1.3861397182015216e-10 2.731355290292515e-10 8.895799517975372e-11 9.256368038067537e-11 1.2042263756073977e-10 1.0072600625464621e-10
          9.607196247481428e-11 1.8882467506536946e-10 5.486873721083992e-11 7.673916174392614e-11 1.3578844916693035e-10 9.853176014225104e-11
          1.8726285099975663e-10 1.325707499535427e-10 2.2916755953120923e-10 1.596682953740565e-10 2.453980507172359e-10 1.7011210842756834e-10
          6.759194175095897e-11 5.446184601946569e-11 8.869490955696315e-11 1.0473990216718775e-10 7.875419470272658e-11 1.1088558462298105e-10
        </DataArray>
        <DataArray type="Float64" Name="gradient_matprop_error" format="ascii" RangeMin="0" RangeMax="0">
          0 0 0 0 0 0
          0 0 0 0 0 0
          0 0 0 0 0 0
          0 0 0 0 0 0
          0 0 0 0 0 0
          0 0 0 0 0 0
          0 0 0 0 0 0
          0 0 0 0 0 0
          0 0 0 0 0 0
          0 0 0 0 0 0
          0 0 0 0 0 0
          0 0 0 0 0 0
          0 0 0 0 0 0
          0 0 0 0 0 0
          0 0 0 0 0 0
          0 0 0 0 0 0
          0 0 0 0 0 0
          0 0 0 0 0 0
          0 0 0 0 0 0
          0 0 0 0 0 0
          0 0 0 0 0 0
          0 0 0 0 0 0
          0 0 0 0 0 0
          0 0 0 0 0 0
          0 0 0 0 0 0
          0 0 0 0 0 0
          0 0 0 0 0 0
          0 0 0 0 0 0
          0 0 0 0 0 0
          0 0 0 0 0 0
          0 0 0 0 0 0
          0 0 0 0 0 0
          0 0 0 0 0 0
          0 0 0 0 0 0
          0 0 0 0 0 0
          0 0 0 0 0 0
          0 0 0 0 0 0
          0 0 0 0 0 0
          0 0 0 0 0 0
          0 0 0 0 0 0
          0 0 0 0 0 0
          0 0 0 0 0 0
          0 0 0 0 0 0
          0 0 0 0 0 0
          0 0 0 0 0 0
          0 0 0 0 0 0
          0 0 0 0 0 0
          0 0 0 0 0 0
          0 0 0 0 0 0
          0 0 0 0 0 0
          0 0 0 0 0 0
          0 0 0 0 0 0
          0 0 0 0 0 0
          0 0 0 0 0 0
          0 0 0 0 0 0
          0 0 0 0 0 0
          0 0 0 0 0 0
          0 0 0 0 0 0
          0 0 0 0 0 0
          0 0 0 0 0 0
          0 0 0 0 0 0
        </DataArray>
        <DataArray type="Float64" Name="initial_marker" format="ascii" RangeMin="0" RangeMax="2">
          0 0 0 0 0 0
          0 0 0 0 0 0
          0 0 0 0 0 0
          0 0 0 1 0 0
          0 0 0 0 0 0
          0 0 0 0 0 0
          0 0 0 0 0 0
          0 0 0 0 0 0
          0 0 0 0 0 0
          0 0 0 0 0 1
          0 0.5 0 0 2 0
          0 0 2 2 0 0
          0 0 0 0 0 0
          0 0 1 0.75 0 0.25
          2 2 1 0.5 1.25 0
          2 2 1 1.5 0 0
          0 0 0 0 0 0
          0 0 0 0 0 0
          0 0 0 0 0 0
          0 0 0 0 0 0
          0 0 0 0 0 0
          0 0 0 0 0 0
          0 0 0 0 0 0
          0 0 0 0 0 0
          0 0 0 0 0 0
          0 0 0 0 0 0
          0.5 1.5 1.25 1 1.5 1.75
          0.5 1.25 0 0.75 0 0.75
          0.3333333333333333 0 0.25 0 0 0
          0 0 2 2 0 0
          0.5 0.5 0 0 0 0
          0.5 0 1.5 1.5 1.3333333333333333 1.5
          0 0.25 0 0 0 0
          0 1.25 0.6666666666666666 1 2 2
          2 2 2 1.75 2 2
          2 2 1 1 1.5 1.25
          0 1 0.5 0.5 0.75 0
          2 1.75 1.5 1.5 2 1.25
          1.75 1 2 1.75 2 0
          0.25 0 0 0 0 0
          1 0.5 0.5 2 2 2
          2 2 2 2 2 2
          2 2 2 2 2 2
          2 2 2 2 2 2
          2 2 1.5 1 1 0
          1.5 1 1 0.5 0.75 0
          0.5 0 0 0 1.25 1
          0.5 1.5 1 1 0 1.5
          1 1 0 0 0 0
          0 0 0 0 0 0
          0 0 0 0 0 0
          0.25 0 0 0 0 0.5
          0 0 0.75 0 1 1.25
          0 0 0 0 0 0
          0 0 0 0 0 0
          0 0 0 0 0 0
          0 0 0 1.25 2 2
          1.75 2 1.75 0 0.5 0
          1 1.5 0.6666666666666666 0.5 2 2
          2 2 2 2 2 2
          1.25 0.5 1.75 2 1.3333333333333333 2
        </DataArray>
        <DataArray type="Float64" Name="markers_norefine" format="ascii" RangeMin="0" RangeMax="0">
          0 0 0 0 0 0
          0 0 0 0 0 0
          0 0 0 0 0 0
          0 0 0 0 0 0
          0 0 0 0 0 0
          0 0 0 0 0 0
          0 0 0 0 0 0
          0 0 0 0 0 0
          0 0 0 0 0 0
          0 0 0 0 0 0
          0 0 0 0 0 0
          0 0 0 0 0 0
          0 0 0 0 0 0
          0 0 0 0 0 0
          0 0 0 0 0 0
          0 0 0 0 0 0
          0 0 0 0 0 0
          0 0 0 0 0 0
          0 0 0 0 0 0
          0 0 0 0 0 0
          0 0 0 0 0 0
          0 0 0 0 0 0
          0 0 0 0 0 0
          0 0 0 0 0 0
          0 0 0 0 0 0
          0 0 0 0 0 0
          0 0 0 0 0 0
          0 0 0 0 0 0
          0 0 0 0 0 0
          0 0 0 0 0 0
          0 0 0 0 0 0
          0 0 0 0 0 0
          0 0 0 0 0 0
          0 0 0 0 0 0
          0 0 0 0 0 0
          0 0 0 0 0 0
          0 0 0 0 0 0
          0 0 0 0 0 0
          0 0 0 0 0 0
          0 0 0 0 0 0
          0 0 0 0 0 0
          0 0 0 0 0 0
          0 0 0 0 0 0
          0 0 0 0 0 0
          0 0 0 0 0 0
          0 0 0 0 0 0
          0 0 0 0 0 0
          0 0 0 0 0 0
          0 0 0 0 0 0
          0 0 0 0 0 0
          0 0 0 0 0 0
          0 0 0 0 0 0
          0 0 0 0 0 0
          0 0 0 0 0 0
          0 0 0 0 0 0
          0 0 0 0 0 0
          0 0 0 0 0 0
          0 0 0 0 0 0
          0 0 0 0 0 0
          0 0 0 0 0 0
          0 0 0 0 0 0
        </DataArray>
        <DataArray type="Float64" Name="markers_mustrefine" format="ascii" RangeMin="0" RangeMax="2">
          0 0 0 0 0 0
          0 0 0 0 0 0
          0 0 0 0 0 0
          0 0 0 1 0 0
          0 0 0 0 0 0
          0 0 0 0 0 0
          0 0 0 0 0 0
          0 0 0 0 0 0
          0 0 0 0 0 0
          0 0 0 0 0 1
          0 0.5 0 0 2 0
          0 0 2 2 0 0
          0 0 0 0 0 0
          0 0 1 0.75 0 0.25
          2 2 1 0.5 1.25 0
          2 2 1 1.5 0 0
          0 0 0 0 0 0
          0 0 0 0 0 0
          0 0 0 0 0 0
          0 0 0 0 0 0
          0 0 0 0 0 0
          0 0 0 0 0 0
          0 0 0 0 0 0
          0 0 0 0 0 0
          0 0 0 0 0 0
          0 0 0 0 0 0
          0.5 1.5 1.25 1 1.5 1.75
          0.5 1.25 0 0.75 0 0.75
          0.3333333333333333 0 0.25 0 0 0
          0 0 2 2 0 0
          0.5 0.5 0 0 0 0
          0.5 0 1.5 1.5 1.3333333333333333 1.5
          0 0.25 0 0 0 0
          0 1.25 0.6666666666666666 1 2 2
          2 2 2 1.75 2 2
          2 2 1 1 1.5 1.25
          0 1 0.5 0.5 0.75 0
          2 1.75 1.5 1.5 2 1.25
          1.75 1 2 1.75 2 0
          0.25 0 0 0 0 0
          1 0.5 0.5 2 2 2
          2 2 2 2 2 2
          2 2 2 2 2 2
          2 2 2 2 2 2
          2 2 1.5 1 1 0
          1.5 1 1 0.5 0.75 0
          0.5 0 0 0 1.25 1
          0.5 1.5 1 1 0 1.5
          1 1 0 0 0 0
          0 0 0 0 0 0
          0 0 0 0 0 0
          0.25 0 0 0 0 0.5
          0 0 0.75 0 1 1.25
          0 0 0 0 0 0
          0 0 0 0 0 0
          0 0 0 0 0 0
          0 0 0 1.25 2 2
          1.75 2 1.75 0 0.5 0
          1 1.5 0.6666666666666666 0.5 2 2
          2 2 2 2 2 2
          1.25 0.5 1.75 2 1.3333333333333333 2
        </DataArray>
        <DataArray type="Float64" Name="gradient_marker" format="ascii" RangeMin="0.5" RangeMax="1">
          1 1 1 1 1 1
          1 1 1 1 1 1
          1 1 1 1 1 1
          1 1 1 1 1 1
          1 1 1 1 1 1
          1 0.5 0.5 1 1 1
          1 1 1 1 1 1
          1 1 1 1 1 1
          1 1 1 1 1 1
          1 1 1 1 1 1
          1 1 1 1 1 1
          1 1 1 1 1 1
          1 1 1 1 1 1
          1 1 1 1 1 1
          1 1 1 1 1 1
          1 1 1 1 1 1
          1 1 1 1 1 1
          1 1 1 1 1 1
          1 1 1 1 1 1
          1 1 1 1 1 1
          1 1 1 1 1 1
          1 1 1 0.5 1 1
          1 1 1 1 1 1
          1 1 1 1 1 1
          1 1 1 1 1 1
          1 1 1 1 1 1
          1 1 1 1 1 1
          1 1 1 1 1 1
          1 1 1 1 1 1
          1 1 1 1 1 1
          1 1 1 1 1 1
          1 1 1 1 1 1
          1 1 1 1 1 1
          1 1 1 1 1 1
          1 1 1 1 1 1
          1 1 1 1 1 1
          1 1 1 1 1 1
          1 1 1 1 1 1
          1 1 1 1 1 1
          1 1 1 1 1 1
          1 1 1 1 1 1
          1 1 1 1 1 1
          1 1 1 1 1 1
          1 1 1 1 1 1
          1 1 1 1 1 1
          1 1 1 1 1 1
          1 1 1 1 1 1
          1 1 1 1 1 1
          1 1 1 1 0.5 1
          0.5 1 1 1 1 1
          1 1 1 1 1 1
          1 1 1 1 1 1
          1 1 1 1 1 1
          0.5 1 1 0.5 1 1
          1 1 0.5 1 1 1
          1 1 1 1 1 1
          1 1 1 1 1 1
          1 1 1 1 1 1
          1 1 1 1 1 1
          1 1 1 1 1 1
          1 1 1 1 1 1
        </DataArray>
        <DataArray type="Float64" Name="gradient_matprop_marker" format="ascii" RangeMin="0" RangeMax="0">
          0 0 0 0 0 0
          0 0 0 0 0 0
          0 0 0 0 0 0
          0 0 0 0 0 0
          0 0 0 0 0 0
          0 0 0 0 0 0
          0 0 0 0 0 0
          0 0 0 0 0 0
          0 0 0 0 0 0
          0 0 0 0 0 0
          0 0 0 0 0 0
          0 0 0 0 0 0
          0 0 0 0 0 0
          0 0 0 0 0 0
          0 0 0 0 0 0
          0 0 0 0 0 0
          0 0 0 0 0 0
          0 0 0 0 0 0
          0 0 0 0 0 0
          0 0 0 0 0 0
          0 0 0 0 0 0
          0 0 0 0 0 0
          0 0 0 0 0 0
          0 0 0 0 0 0
          0 0 0 0 0 0
          0 0 0 0 0 0
          0 0 0 0 0 0
          0 0 0 0 0 0
          0 0 0 0 0 0
          0 0 0 0 0 0
          0 0 0 0 0 0
          0 0 0 0 0 0
          0 0 0 0 0 0
          0 0 0 0 0 0
          0 0 0 0 0 0
          0 0 0 0 0 0
          0 0 0 0 0 0
          0 0 0 0 0 0
          0 0 0 0 0 0
          0 0 0 0 0 0
          0 0 0 0 0 0
          0 0 0 0 0 0
          0 0 0 0 0 0
          0 0 0 0 0 0
          0 0 0 0 0 0
          0 0 0 0 0 0
          0 0 0 0 0 0
          0 0 0 0 0 0
          0 0 0 0 0 0
          0 0 0 0 0 0
          0 0 0 0 0 0
          0 0 0 0 0 0
          0 0 0 0 0 0
          0 0 0 0 0 0
          0 0 0 0 0 0
          0 0 0 0 0 0
          0 0 0 0 0 0
          0 0 0 0 0 0
          0 0 0 0 0 0
          0 0 0 0 0 0
          0 0 0 0 0 0
        </DataArray>
        <DataArray type="Float64" Name="combo" format="ascii" RangeMin="0.5" RangeMax="1">
          1 1 1 1 1 1
          1 1 1 1 1 1
          1 1 1 1 1 1
          1 1 1 1 1 1
          1 1 1 1 1 1
          1 0.5 0.5 1 1 1
          1 1 1 1 1 1
          1 1 1 1 1 1
          1 1 1 1 1 1
          1 1 1 1 1 1
          1 1 1 1 1 1
          1 1 1 1 1 1
          1 1 1 1 1 1
          1 1 1 1 1 1
          1 1 1 1 1 1
          1 1 1 1 1 1
          1 1 1 1 1 1
          1 1 1 1 1 1
          1 1 1 1 1 1
          1 1 1 1 1 1
          1 1 1 1 1 1
          1 1 1 0.5 1 1
          1 1 1 1 1 1
          1 1 1 1 1 1
          1 1 1 1 1 1
          1 1 1 1 1 1
          1 1 1 1 1 1
          1 1 1 1 1 1
          1 1 1 1 1 1
          1 1 1 1 1 1
          1 1 1 1 1 1
          1 1 1 1 1 1
          1 1 1 1 1 1
          1 1 1 1 1 1
          1 1 1 1 1 1
          1 1 1 1 1 1
          1 1 1 1 1 1
          1 1 1 1 1 1
          1 1 1 1 1 1
          1 1 1 1 1 1
          1 1 1 1 1 1
          1 1 1 1 1 1
          1 1 1 1 1 1
          1 1 1 1 1 1
          1 1 1 1 1 1
          1 1 1 1 1 1
          1 1 1 1 1 1
          1 1 1 1 1 1
          1 1 1 1 0.5 1
          0.5 1 1 1 1 1
          1 1 1 1 1 1
          1 1 1 1 1 1
          1 1 1 1 1 1
          0.5 1 1 0.5 1 1
          1 1 0.5 1 1 1
          1 1 1 1 1 1
          1 1 1 1 1 1
          1 1 1 1 1 1
          1 1 1 1 1 1
          1 1 1 1 1 1
          1 1 1 1 1 1
        </DataArray>
        <DataArray type="Float64" Name="dHdT" format="ascii" RangeMin="25.812770778751783" RangeMax="26.254023852565417">
          25.815457685810166 25.833563348893136 25.815203968261706 25.819841680577166 25.813088815201855 25.813240672962507
          25.813086375017193 25.813360088316944 25.81297614745862 25.813326813056136 25.81948477933869 25.814050105745487
          25.814126142290522 25.81427487090748 25.814208017963622 25.81324669112885 25.813057448217606 25.813160572528417
          25.814554725407092 25.814745303319516 25.813426764531215 25.815094140703803 25.81464454751677 25.813142149104642
          25.814930639237986 25.817753615383406 25.817111206515687 25.81399803003023 25.813925422275847 25.812921252514865
          25.812934404625466 25.89274578635945 25.970349080569196 25.86343776467133 25.822927905389893 25.822134056119516
          25.82583962173403 25.82445641803618 25.815865123220092 25.81608501029418 25.816576032244637 25.820649453604695
          25.81736386757754 25.813798683886773 25.813844825612925 25.81395368980765 25.814035052596527 25.813343990433385
          25.81328127586262 25.81336567065852 25.813890967339077 25.814116415385403 25.813450065454415 25.815116601120373
          25.815302445100613 25.81548828908085 25.85189203278384 25.828219216921347 25.829729195204216 25.84767165056424
          25.82133857525908 25.824676581718435 25.82382525260671 25.821814716274453 25.837541428229255 25.819890895423942
          25.820708396078523 25.820689253853978 25.86623661134119 25.885393513627417 25.81619506299001 25.81607157797076
          25.816286544002185 25.81611289961877 25.814572826332412 25.814841036063306 25.81476901432709 25.81588896220874
          25.816111598433864 25.81470688834007 25.81862707269157 25.817979730443593 25.814489664322043 25.816959882281417
          25.82476517166493 25.822745127570016 25.814735773550872 25.814571308377918 25.818865819643882 25.81476926108155
          25.8285354245343 25.825536307170573 25.81485372136602 25.82005948584885 25.816698990428264 25.817290717605715
          25.815054516719968 25.81544371949679 25.81676144721088 25.817421722777475 25.815373288466283 25.817734103111814
          25.815670494716798 25.81775080733971 25.812787422653976 25.81282051735593 25.812770778751783 25.812814399309964
          25.815887028985042 25.81623417780558 25.81487869990709 25.814885394535118 25.815944226504115 25.816187241355316
          25.815054004980965 25.81344717831965 25.813457662356697 25.813487587585588 25.813493650524343 25.813172392996357
          25.813125797287306 25.8131624943642 25.813468146393745 25.813499713463102 25.813199191441093 25.813527996851526
          25.813529638691996 25.81315259573204 25.81353128053246 26.036559686477748 25.944789344766676 25.938184503640567
          25.8783388718358 25.846564719082988 25.8450488611902 25.868124656627096 25.828236776218247 25.836594824140377
          25.835356044673066 25.841348591345195 25.834943779029327 25.820088736736025 25.820083828546966 25.822619534354395
          25.822566792604388 25.817594302370132 25.81859444893491 25.818822344783733 25.820078920357908 25.82251405085438
          25.819050240632556 25.83748752941284 25.829495609097403 25.83492390218139 25.835810879432692 25.833250997686307
          25.82665113047893 25.83101942203787 25.83043874177315 25.828872292093322 25.851589390957336 25.863798631187315
          25.833931686781458 25.83961825381077 25.824277993449858 25.826722511368132 25.830769282106516 25.83470052153336
          25.825885033724855 25.827989093252206 25.830569414424538 25.824036480173838 25.825606715774587 25.82674777362142
          25.828783767837233 25.82467533049069 25.850561319636146 25.87987510261641 25.82005731149314 25.81989694802496
          25.821670217484197 25.821424443251125 25.817586937455317 25.818545546165367 25.818403017559703 25.819471132609895
          25.82077165215807 25.818037746931772 25.826183892138783 25.8256839164181 25.819585042113676 25.824361981638894
          25.81894180540453 25.81996226637325 25.81710519772134 25.817660961481703 25.81867793014606 25.819559897448414
          25.8175069180539 25.822671576919443 25.818244679582225 25.821608528881914 25.8331694866309 25.832224321481792
          25.821586434105257 25.821237924914392 25.829757703294753 25.820325025193334 25.84163308582864 25.840076875997
          25.824202665985627 25.836075879658114 25.816094761982345 25.81600934636362 25.816614512265815 25.816497786716027
          25.81486672713025 25.815128583915545 25.815075977899305 25.815785064059902 25.81618971717555 25.814932987311472
          25.817689784727136 25.817505143944942 25.815539974687084 25.817020740372445 25.82659975117596 25.819141857071674
          25.823616657926483 25.818685192931202 25.831078353748772 25.820880542076544 25.826448290024963 25.815497870285302
          25.815810364813686 25.814642207132174 25.814782460544087 25.81534954319569 25.815622356442503 25.814722318348295
          25.81643511626573 25.81508561860931 25.816149254949327 25.827455192185898 25.826694999203355 25.841433851591066
          25.824743622412186 25.827692501925778 25.843579558883853 25.818610581821957 25.818363486687314 25.816068470724105
          25.815958158085238 25.81772243323849 25.815665632763583 25.81897585673893 25.818702912553157 25.816121595464658
          25.817997756023303 25.834778592178104 25.822292435753894 25.82875094251804 25.82105779719792 25.83623955271364
          25.82284884474576 25.82964675989164 25.816952766522455 25.815356777451637 25.816577058120593 25.815230134822478
          25.81715815985553 25.81546503164066 25.816750776031846 25.82056767855454 25.821381401400153 25.81816934879177
          25.818583060410248 25.81991603298036 25.82049273904243 25.81815670098729 25.823001094285072 25.81946621187504
          25.82163122286689 25.82432641267226 25.82025050887039 25.82257319618327 25.819392491955515 25.824845761020143
          25.820565366019434 25.82295339173725 25.827434417895386 25.841561791634057 25.884209723340454 25.855775495428368