<?xml version="1.0"?>
<VTKFile type="UnstructuredGrid" version="0.1" byte_order="LittleEndian" header_type="UInt32" compressor="vtkZLibDataCompressor">
  <UnstructuredGrid>
    <Piece NumberOfPoints="307" NumberOfCells="166">
      <PointData>
        <DataArray type="Int32" Name="libmesh_node_id" format="ascii" RangeMin="174" RangeMax="2604">
          174 410 412 415 420 998
          1000 1003 1004 1010 1014 1022
          1023 1048 1049 1054 1056 1057
          1058 1062 1063 2012 2013 2014
          2020 2022 2023 2024 2025 2026
          2027 2028 2029 2030 2031 2032
          2033 2034 2035 2046 2047 2048
          2049 2050 2051 2052 2053 2054
          2066 2067 2068 2069 2070 2071
          2072 2073 2074 2075 2083 2084
          2090 2091 2092 2093 2094 2095
          2096 2097 2098 2099 2100 2101
          2102 2103 2104 2105 2106 2107
          2108 2109 2110 2111 2112 2113
          2114 2115 2116 2117 2121 2122
          2124 2125 2126 2127 2128 2129
          2225 2226 2227 2228 2229 2230
          2231 2232 2233 2234 2259 2260
          2261 2262 2263 2264 2265 2266
          2267 2268 2283 2284 2285 2286
          2287 2288 2289 2290 2291 2292
          2293 2294 2295 2296 2297 2299
          2300 2301 2302 2317 2318 2319
          2320 2321 2322 2323 2324 2325
          2326 2327 2328 2329 2330 2331
          2333 2334 2335 2336 2595 2596
          2601 2602 1012 274 1016 1013
          1017 1018 1015 1002 1019 411
          1020 1007 1314 1335 1336 1315
          271 999 934 1338 1339 1342
          1341 1005 1345 1346 2008 2009
          2010 2011 2015 2017 2016 2018
          2019 1001 2021 2038 2039 2042
          2044 2055 1006 2056 2058 2059
          2057 2061 2060 1008 2064 1009
          2077 2085 2079 2086 2087 2081
          2088 2089 1011 413 2118 2119
          2120 2123 1024 2130 2131 2132
          2133 2134 2135 2136 2137 1025
          2138 2139 2140 2141 2145 2146
          2217 2218 2220 1046 2223 1047
          2242 2236 2243 2246 2240 2247
          2251 2252 2254 1052 2257 1053
          2276 2270 2277 2280 2274 2281
          2298 1059 2303 2304 2307 2308
          2310 2311 2314 2315 2332 1064
          2337 2338 2341 2342 2344 2345
          2348 2349 2532 2533 2540 2541
          2538 2543 2554 2555 2558 2560
          2561 2563 1124 2562 2597 2598
          2599 1125 2600 1130 2603 2604
          1131
        </DataArray>
        <DataArray type="Float64" Name="bounds" format="ascii" RangeMin="0" RangeMax="0">
          0 0 0 0 0 0
          0 0 0 0 0 0
          0 0 0 0 0 0
          0 0 0 0 0 0
          0 0 0 0 0 0
          0 0 0 0 0 0
          0 0 0 0 0 0
          0 0 0 0 0 0
          0 0 0 0 0 0
          0 0 0 0 0 0
          0 0 0 0 0 0
          0 0 0 0 0 0
          0 0 0 0 0 0
          0 0 0 0 0 0
          0 0 0 0 0 0
          0 0 0 0 0 0
          0 0 0 0 0 0
          0 0 0 0 0 0
          0 0 0 0 0 0
          0 0 0 0 0 0
          0 0 0 0 0 0
          0 0 0 0 0 0
          0 0 0 0 0 0
          0 0 0 0 0 0
          0 0 0 0 0 0
          0 0 0 0 0 0
          0 0 0 0 0 0
          0 0 0 0 0 0
          0 0 0 0 0 0
          0 0 0 0 0 0
          0 0 0 0 0 0
          0 0 0 0 0 0
          0 0 0 0 0 0
          0 0 0 0 0 0
          0 0 0 0 0 0
          0 0 0 0 0 0
          0 0 0 0 0 0
          0 0 0 0 0 0
          0 0 0 0 0 0
          0 0 0 0 0 0
          0 0 0 0 0 0
          0 0 0 0 0 0
          0 0 0 0 0 0
          0 0 0 0 0 0
          0 0 0 0 0 0
          0 0 0 0 0 0
          0 0 0 0 0 0
          0 0 0 0 0 0
          0 0 0 0 0 0
          0 0 0 0 0 0
          0 0 0 0 0 0
          0
        </DataArray>
        <DataArray type="Float64" Name="gradient_error" format="ascii" RangeMin="3.163044723159697e-11" RangeMax="1.5384264062429053e-8">
          3.9992315068572965e-10 4.708692603300394e-10 2.1023659084255765e-9 1.3242996253774957e-10 6.5068528827852765e-9 1.1990367430892296e-9
          1.583895243515493e-9 5.624891832648191e-10 5.731241629803787e-10 1.7038639629588033e-9 2.4037405105694126e-10 5.806683162662431e-10
          4.750064324899652e-10 5.131027314611708e-9 4.151424258196664e-9 5.511242198497539e-9 1.4153726610937053e-9 1.1299718309439318e-9
          3.017964391532515e-10 1.871059062061316e-9 1.5193113325297678e-9 4.962446373238566e-10 7.778512474168177e-10 7.529641247224051e-10
          1.5237759609080978e-9 3.140229533112933e-10 3.0668303567293174e-10 4.764172887142177e-10 4.608827989117577e-10 1.8867095661065786e-10
          2.8245863614578866e-10 2.709800621727982e-10 2.8582434019045363e-10 4.187145319389161e-10 2.704382861222024e-10 9.657036067026706e-10
          9.298179069069927e-10 5.378711994840922e-10 8.300465150791776e-10 2.6071698840605665e-10 3.575008535617503e-10 2.0760329644764252e-10
          2.733997987385455e-10 2.491284144657762e-10 3.2292095235496604e-10 2.544877155100993e-10 6.830327459548989e-10 4.650672987262177e-10
          1.9303141456902147e-9 1.8447666697343436e-9 1.1128487485266736e-9 1.063969909326829e-9 1.6116049987293991e-9 9.303907801356833e-10
          3.659441514903549e-9 3.472069839309284e-9 1.993960264639187e-9 2.9678085778816974e-9 1.293043789637662e-9 7.46856278767714e-10
          1.105593257735345e-10 1.1391811004557332e-10 1.6028525186431118e-10 1.559408290276905e-10 8.833218191153439e-11 1.1459766377972385e-10
          1.1661388796975372e-10 1.1727689431761214e-10 1.515964061910698e-10 1.186301121597836e-10 3.1507971013998125e-10 2.999739246627943e-10
          1.8995432734339377e-10 2.9762751361386024e-10 6.113263731113501e-10 5.835445535245471e-10 3.185362368578058e-10 3.0447891849981037e-10
          5.090972745107273e-10 2.669779966611654e-10 1.1357170757618095e-9 1.0778681565707003e-9 5.518472060846731e-10 9.23425300278814e-10
          1.0936241129811114e-10 1.0531401599524093e-10 1.5758307409951478e-10 1.511084423031004e-10 9.441471538454301e-11 1.3365503002026595e-10
          2.8298400887142653e-10 2.69533888752201e-10 1.2650044146189915e-10 2.3357432674543173e-10 2.8895896481272356e-10 4.096876530891197e-10
          6.154954396139488e-9 5.837560979771176e-9 3.566930260015584e-9 3.3755465869571862e-9 4.956429739324823e-9 2.8531749419461947e-9
          8.672230009682199e-9 8.295372353859659e-9 4.8812511555762816e-9 7.137044635205747e-9 1.0176700119305205e-8 9.886862763513006e-9
          6.181931185320363e-9 5.944332794552231e-9 8.741869841409665e-9 5.149322469266742e-9 1.0567998683810125e-8 1.0358943188035764e-8
          6.294822510008307e-9 9.301614426281908e-9 1.9233786755853974e-9 1.8187026023764195e-9 9.723753401144045e-10 9.199000847844889e-10
          1.5362970241348274e-9 7.793558271973604e-10 2.796356137169687e-9 2.6508499697653316e-9 1.3394892488755928e-9 2.239916489690089e-9
          4.6479821769120224e-10 4.404144751900667e-10 2.119449489265762e-10 2.0132369268780804e-10 3.753177981456052e-10 6.716734415096453e-10
          6.356598957589966e-10 2.8600057484796345e-10 5.376654790350291e-10 3.4279809370445995e-9 3.2728231982844287e-9 1.7515353243223582e-9
          1.6648094344422774e-9 2.796771174580125e-9 1.4123287882152013e-9 3.6410773032948258e-9 3.490720154382946e-9 1.7832202715315178e-9
          3.0041640551250284e-9 8.332743196069532e-10 7.903256089069078e-10 3.7316195651826495e-10 3.538456934671302e-10 6.693733781401447e-10
          8.926339107350856e-10 8.479954677825131e-10 3.7952877320338046e-10 7.19798085666567e-10 1.5904408946626719e-10 1.5100398662645915e-10
          1.701953274760905e-10 1.6162661899995896e-10 2.466130408955459e-10 2.1657453908378435e-10 1.9696860509180803e-10 3.428117500185413e-10
          1.475870697773139e-10 1.355932559454351e-10 3.2062302428979974e-10 5.323657364965547e-10 4.396960374668764e-10 8.211385906931063e-10
          3.3410760275185625e-10 6.750513030755826e-10 2.8139511803134444e-9 1.2789195762699735e-9 1.185924384276788e-9 2.616167408968997e-9
          2.716739308382416e-9 1.096275859549011e-9 2.4919579449404504e-9 5.295664512444398e-10 4.857297963308522e-10 4.52427621755021e-10
          9.518560178540668e-10 1.0531128029887807e-9 1.9810678778676802e-10 1.8913938811097503e-10 7.975689383859971e-10 7.743663723736998e-10
          1.216756250583948e-9 1.1778386664146026e-9 7.122667870534551e-10 6.850659180170027e-10 1.0704899026842435e-9 2.4722428341726445e-9
          2.3787549504059457e-9 1.3580044721903258e-9 2.121833466087254e-9 4.084938598312388e-10 5.831333476365055e-10 5.186693792885733e-10
          1.1237499647874658e-9 5.946983295525446e-10 1.0539423269624344e-9 4.900578759752289e-9 3.167881678076849e-9 3.025396641451072e-9
          4.68379545166068e-9 2.639562745725559e-9 4.095736578685432e-9 5.960416733409202e-9 5.662744979414443e-9 4.855342163941461e-9
          2.1211075659488884e-9 9.620807112771318e-10 1.58580755847299e-9 5.571222499622611e-10 2.2994672019724813e-9 3.7725231886331275e-9
          1.3219816331842996e-9 1.6413333582740292e-9 2.6957082759514863e-9 9.470299294871105e-10 5.257545504536464e-11 7.628015047333117e-11
          7.338374427929684e-11 6.55804170106293e-11 1.1053694700104251e-10 1.554155849811458e-10 2.1684810674124788e-10 2.2235549615150987e-10
          3.08171298203981e-10 1.6514054458440663e-10 7.203023159192625e-10 3.738554787874323e-10 5.201714180230389e-10 2.731355290292515e-10
          7.958649260675433e-11 1.102664075699796e-10 4.100448020491318e-11 5.4466102942445315e-11 1.864440326462449e-10 8.895799517975372e-11
          9.83488670236886e-9 9.361001859462311e-9 8.013094119978905e-9 1.3402824012690636e-8 1.2925610702634381e-8 1.132057915881595e-8
          3.757442760239283e-9 6.1243472453636525e-9 2.157055898166203e-9 5.403946744947035e-9 8.716721852677474e-9 3.113629882045308e-9
          1.5114111647163544e-8 1.4906650254297227e-8 1.359013243354324e-8 1.5384264062429053e-8 1.5371517836628327e-8 1.432945339115673e-8
          6.7079380731721866e-9 1.0709605258009706e-8 3.886421556916687e-9 7.198240579066877e-9 1.1441902961890128e-8 4.181441639667391e-9
          1.729689259904254e-10 2.4342812734389896e-10 1.1647591871630351e-9 5.955083404215021e-10 1.675874783803538e-9 8.488066134071477e-10
          2.9038795975259357e-10 1.3578844916693035e-10 4.077144026048113e-10 1.8726285099975663e-10 3.006407939368538e-10 3.2266323913528763e-10
          2.093375265772038e-9 1.0565487313912348e-9 2.2543310477900608e-9 1.1370705877376642e-9 5.039430455039329e-10 2.2916755953120923e-10
          5.412914625441455e-10 2.453980507172359e-10 3.626157955912645e-11 3.503026604913356e-11 6.031611842064695e-11 5.780107557100788e-11
          3.163044723159697e-11 5.100621355954044e-11 9.311304405720668e-11 8.871906606289432e-11 7.69424348486849e-11 1.2960370402021714e-10
          1.2311858919400678e-10 1.0567458123134577e-10 5.377667287870649e-11 5.124734430732675e-11 6.526101224152354e-11 6.210550376777935e-11
          1.2911600876481632e-10 4.443078240561319e-11 5.355403415203511e-11 6.963636152550123e-11 6.625492206638528e-11 1.381253156174529e-10
          5.7052857287696074e-11
        </DataArray>
        <DataArray type="Float64" Name="gradient_matprop_error" format="ascii" RangeMin="0" RangeMax="0">
          0 0 0 0 0 0
          0 0 0 0 0 0
          0 0 0 0 0 0
          0 0 0 0 0 0
          0 0 0 0 0 0
          0 0 0 0 0 0
          0 0 0 0 0 0
          0 0 0 0 0 0
          0 0 0 0 0 0
          0 0 0 0 0 0
          0 0 0 0 0 0
          0 0 0 0 0 0
          0 0 0 0 0 0
          0 0 0 0 0 0
          0 0 0 0 0 0
          0 0 0 0 0 0
          0 0 0 0 0 0
          0 0 0 0 0 0
          0 0 0 0 0 0
          0 0 0 0 0 0
          0 0 0 0 0 0
          0 0 0 0 0 0
          0 0 0 0 0 0
          0 0 0 0 0 0
          0 0 0 0 0 0
          0 0 0 0 0 0
          0 0 0 0 0 0
          0 0 0 0 0 0
          0 0 0 0 0 0
          0 0 0 0 0 0
          0 0 0 0 0 0
          0 0 0 0 0 0
          0 0 0 0 0 0
          0 0 0 0 0 0
          0 0 0 0 0 0
          0 0 0 0 0 0
          0 0 0 0 0 0
          0 0 0 0 0 0
          0 0 0 0 0 0
          0 0 0 0 0 0
          0 0 0 0 0 0
          0 0 0 0 0 0
          0 0 0 0 0 0
          0 0 0 0 0 0
          0 0 0 0 0 0
          0 0 0 0 0 0
          0 0 0 0 0 0
          0 0 0 0 0 0
          0 0 0 0 0 0
          0 0 0 0 0 0
          0 0 0 0 0 0
          0
        </DataArray>
        <DataArray type="Float64" Name="initial_marker" format="ascii" RangeMin="0" RangeMax="2">
          2 0 2 2 2 0
          2 2 1.75 2 1 2
          2 2 2 2 2 2
          2 2 2 0 1 1
          2 0 0 1 1 0
          1 1 0 1 1 2
          2 2 2 0 0.75 0
          0.5 0 0.5 0 1.75 1.6666666666666667
          2 2 2 2 2 2
          2 2 2 2 2 2
          0 0 0.5 0.5 0 0
          0 0 0.5 0 1.5 1.5
          1.3333333333333333 1.6666666666666667 2 2 2 2
          2 2 2 2 2 2
          2 1.5 2 1.75 1 1.5
          2 2 2 2 2 2
          2 2 2 2 2 2
          2 2 2 2 2 2
          2 2 2 2 2 2
          2 2 2 2 2 2
          2 2 2 2 2 2
          2 2 2 2 2 2
          2 2 2 2 2 2
          2 2 2 2 2 2
          2 2 2 2 2 2
          2 2 2 2 2 2
          2 2 0 0 0 0
          0.5 0 1 0 0 0
          0.25 1 0 0 0 0
          0.5 0 0 0 0 0
          0 0 0 0 0 0
          1 1 0 1 1 2
          2 2 2 0 1 0.6666666666666666
          2 1.6666666666666667 1.5 2 2 2
          2 2 2 2 2 2
          2 2 2 2 2 2
          2 2 2 2 0.5 1.5
          1.25 1 2 1.5 1.75 1.5
          1.75 1.25 2 2 2 2
          0.5 1.25 0 0.75 2 1.75
          2 2 2 2 2 2
          2 2 2 2 2 2
          2 2 2 2 2 2
          2 2 2 2 2 2
          2 2 2 2 2 2
          2 2 2 2 2 2
          2 2 2 2 2 2
          2 2 0.5 0.5 1.5 1.5
          0.5 1.5 2 2 2 2
          2 2 2 2 2 2
          2 2 2 2 2 2
          2
        </DataArray>
        <DataArray type="Float64" Name="markers_norefine" format="ascii" RangeMin="0" RangeMax="0">
          0 0 0 0 0 0
          0 0 0 0 0 0
          0 0 0 0 0 0
          0 0 0 0 0 0
          0 0 0 0 0 0
          0 0 0 0 0 0
          0 0 0 0 0 0
          0 0 0 0 0 0
          0 0 0 0 0 0
          0 0 0 0 0 0
          0 0 0 0 0 0
          0 0 0 0 0 0
          0 0 0 0 0 0
          0 0 0 0 0 0
          0 0 0 0 0 0
          0 0 0 0 0 0
          0 0 0 0 0 0
          0 0 0 0 0 0
          0 0 0 0 0 0
          0 0 0 0 0 0
          0 0 0 0 0 0
          0 0 0 0 0 0
          0 0 0 0 0 0
          0 0 0 0 0 0
          0 0 0 0 0 0
          0 0 0 0 0 0
          0 0 0 0 0 0
          0 0 0 0 0 0
          0 0 0 0 0 0
          0 0 0 0 0 0
          0 0 0 0 0 0
          0 0 0 0 0 0
          0 0 0 0 0 0
          0 0 0 0 0 0
          0 0 0 0 0 0
          0 0 0 0 0 0
          0 0 0 0 0 0
          0 0 0 0 0 0
          0 0 0 0 0 0
          0 0 0 0 0 0
          0 0 0 0 0 0
          0 0 0 0 0 0
          0 0 0 0 0 0
          0 0 0 0 0 0
          0 0 0 0 0 0
          0 0 0 0 0 0
          0 0 0 0 0 0
          0 0 0 0 0 0
          0 0 0 0 0 0
          0 0 0 0 0 0
          0 0 0 0 0 0
          0
        </DataArray>
        <DataArray type="Float64" Name="markers_mustrefine" format="ascii" RangeMin="0" RangeMax="2">
          2 0 2 2 2 0
          2 2 1.75 2 1 2
          2 2 2 2 2 2
          2 2 2 0 1 1
          2 0 0 1 1 0
          1 1 0 1 1 2
          2 2 2 0 0.75 0
          0.5 0 0.5 0 1.75 1.6666666666666667
          2 2 2 2 2 2
          2 2 2 2 2 2
          0 0 0.5 0.5 0 0
          0 0 0.5 0 1.5 1.5
          1.3333333333333333 1.6666666666666667 2 2 2 2
          2 2 2 2 2 2
          2 1.5 2 1.75 1 1.5
          2 2 2 2 2 2
          2 2 2 2 2 2
          2 2 2 2 2 2
          2 2 2 2 2 2
          2 2 2 2 2 2
          2 2 2 2 2 2
          2 2 2 2 2 2
          2 2 2 2 2 2
          2 2 2 2 2 2
          2 2 2 2 2 2
          2 2 2 2 2 2
          2 2 0 0 0 0
          0.5 0 1 0 0 0
          0.25 1 0 0 0 0
          0.5 0 0 0 0 0
          0 0 0 0 0 0
          1 1 0 1 1 2
          2 2 2 0 1 0.6666666666666666
          2 1.6666666666666667 1.5 2 2 2
          2 2 2 2 2 2
          2 2 2 2 2 2
          2 2 2 2 0.5 1.5
          1.25 1 2 1.5 1.75 1.5
          1.75 1.25 2 2 2 2
          0.5 1.25 0 0.75 2 1.75
          2 2 2 2 2 2
          2 2 2 2 2 2
          2 2 2 2 2 2
          2 2 2 2 2 2
          2 2 2 2 2 2
          2 2 2 2 2 2
          2 2 2 2 2 2
          2 2 0.5 0.5 1.5 1.5
          0.5 1.5 2 2 2 2
          2 2 2 2 2 2
          2 2 2 2 2 2
          2
        </DataArray>
        <DataArray type="Float64" Name="gradient_marker" format="ascii" RangeMin="1" RangeMax="1">
          1 1 1 1 1 1
          1 1 1 1 1 1
          1 1 1 1 1 1
          1 1 1 1 1 1
          1 1 1 1 1 1
          1 1 1 1 1 1
          1 1 1 1 1 1
          1 1 1 1 1 1
          1 1 1 1 1 1
          1 1 1 1 1 1
          1 1 1 1 1 1
          1 1 1 1 1 1
          1 1 1 1 1 1
          1 1 1 1 1 1
          1 1 1 1 1 1
          1 1 1 1 1 1
          1 1 1 1 1 1
          1 1 1 1 1 1
          1 1 1 1 1 1
          1 1 1 1 1 1
          1 1 1 1 1 1
          1 1 1 1 1 1
          1 1 1 1 1 1
          1 1 1 1 1 1
          1 1 1 1 1 1
          1 1 1 1 1 1
          1 1 1 1 1 1
          1 1 1 1 1 1
          1 1 1 1 1 1
          1 1 1 1 1 1
          1 1 1 1 1 1
          1 1 1 1 1 1
          1 1 1 1 1 1
          1 1 1 1 1 1
          1 1 1 1 1 1
          1 1 1 1 1 1
          1 1 1 1 1 1
          1 1 1 1 1 1
          1 1 1 1 1 1
          1 1 1 1 1 1
          1 1 1 1 1 1
          1 1 1 1 1 1
          1 1 1 1 1 1
          1 1 1 1 1 1
          1 1 1 1 1 1
          1 1 1 1 1 1
          1 1 1 1 1 1
          1 1 1 1 1 1
          1 1 1 1 1 1
          1 1 1 1 1 1
          1 1 1 1 1 1
          1
        </DataArray>
        <DataArray type="Float64" Name="gradient_matprop_marker" format="ascii" RangeMin="0" RangeMax="0">
          0 0 0 0 0 0
          0 0 0 0 0 0
          0 0 0 0 0 0
          0 0 0 0 0 0
          0 0 0 0 0 0
          0 0 0 0 0 0
          0 0 0 0 0 0
          0 0 0 0 0 0
          0 0 0 0 0 0
          0 0 0 0 0 0
          0 0 0 0 0 0
          0 0 0 0 0 0
          0 0 0 0 0 0
          0 0 0 0 0 0
          0 0 0 0 0 0
          0 0 0 0 0 0
          0 0 0 0 0 0
          0 0 0 0 0 0
          0 0 0 0 0 0
          0 0 0 0 0 0
          0 0 0 0 0 0
          0 0 0 0 0 0
          0 0 0 0 0 0
          0 0 0 0 0 0
          0 0 0 0 0 0
          0 0 0 0 0 0
          0 0 0 0 0 0
          0 0 0 0 0 0
          0 0 0 0 0 0
          0 0 0 0 0 0
          0 0 0 0 0 0
          0 0 0 0 0 0
          0 0 0 0 0 0
          0 0 0 0 0 0
          0 0 0 0 0 0
          0 0 0 0 0 0
          0 0 0 0 0 0
          0 0 0 0 0 0
          0 0 0 0 0 0
          0 0 0 0 0 0
          0 0 0 0 0 0
          0 0 0 0 0 0
          0 0 0 0 0 0
          0 0 0 0 0 0
          0 0 0 0 0 0
          0 0 0 0 0 0
          0 0 0 0 0 0
          0 0 0 0 0 0
          0 0 0 0 0 0
          0 0 0 0 0 0
          0 0 0 0 0 0
          0
        </DataArray>
        <DataArray type="Float64" Name="combo" format="ascii" RangeMin="1" RangeMax="1">
          1 1 1 1 1 1
          1 1 1 1 1 1
          1 1 1 1 1 1
          1 1 1 1 1 1
          1 1 1 1 1 1
          1 1 1 1 1 1
          1 1 1 1 1 1
          1 1 1 1 1 1
          1 1 1 1 1 1
          1 1 1 1 1 1
          1 1 1 1 1 1
          1 1 1 1 1 1
          1 1 1 1 1 1
          1 1 1 1 1 1
          1 1 1 1 1 1
          1 1 1 1 1 1
          1 1 1 1 1 1
          1 1 1 1 1 1
          1 1 1 1 1 1
          1 1 1 1 1 1
          1 1 1 1 1 1
          1 1 1 1 1 1
          1 1 1 1 1 1
          1 1 1 1 1 1
          1 1 1 1 1 1
          1 1 1 1 1 1
          1 1 1 1 1 1
          1 1 1 1 1 1
          1 1 1 1 1 1
          1 1 1 1 1 1
          1 1 1 1 1 1
          1 1 1 1 1 1
          1 1 1 1 1 1
          1 1 1 1 1 1
          1 1 1 1 1 1
          1 1 1 1 1 1
          1 1 1 1 1 1
          1 1 1 1 1 1
          1 1 1 1 1 1
          1 1 1 1 1 1
          1 1 1 1 1 1
          1 1 1 1 1 1
          1 1 1 1 1 1
          1 1 1 1 1 1
          1 1 1 1 1 1
          1 1 1 1 1 1
          1 1 1 1 1 1
          1 1 1 1 1 1
          1 1 1 1 1 1
          1 1 1 1 1 1
          1 1 1 1 1 1
          1
        </DataArray>
        <DataArray type="Float64" Name="dHdT" format="ascii" RangeMin="25.819841680577166" RangeMax="32.73198951132077">
          25.907594162430755 25.854782918991965 26.282677139324903 25.84205452449157 27.739441072288642 25.92129255155348
          26.190304450926288 25.94426331697207 25.92390739808386 26.19118135254527 25.850718600824376 25.94023541370381
          25.917137981204164 27.111478396347167 26.785285080970894 27.209109773319497 26.146274695409446 26.066780486822125
          25.880600277741507 26.296717967016566 26.171063775197844 25.949217801887094 26.01148714363446 26.00546132243446
          26.176143997813412 25.89951086422984 25.897315655673438 25.93409246413663 25.930440408239328 25.864196769831906
          25.884636659572617 25.882899140399182 25.89114235641428 25.920398506101378 25.88374910978597 26.040401691909494
          26.031752549308298 25.939531107296798 26.008523560481635 25.882860242531873 25.907113866473704 25.86676105064176
          25.884238842452383 25.878556219352213 25.90021907308669 25.879553597998367 25.97746973872196 25.92392746460109
          26.251830336925075 26.231801630633896 26.06312178756763 26.051868275543985 26.178521717867405 26.021930752578935
          26.644968363527138 26.598760977063264 26.257315821099386 26.479384680164642 26.108183470865598 25.982709888433757
          25.843625606113207 25.8435611348342 25.854075801563468 25.85371514728414 25.835823022173734 25.842635329300187
          25.842689929444557 25.84349666355519 25.853354493004815 25.842744529588927 25.885849119495646 25.88384847342442
          25.857644754105763 25.884246100197192 25.948673337123083 25.94291897638351 25.883848736844058 25.881116910955907
          25.92758564324948 25.873763070908716 26.0639655182949 26.050757800930935 25.933843026093037 26.01626930797273
          25.839687275938132 25.83892784262237 25.84914812933056 25.847855673790882 25.836861815769744 25.84437687190893
          25.87487712525307 25.871987799386837 25.840815184429122 25.86438677276131 25.882413530010854 25.90725774134064
          27.296788168059493 27.198969016287442 26.640331712701165 26.587416650088713 26.952176432450557 26.45317680720059
          28.18930158905018 28.00961766056747 27.01828901403765 27.565964848435367 29.062869200284254 28.791535897245232
          27.552612992837712 27.417805419790884 28.136539694105846 27.085447652867643 29.44230618560743 29.127915875260314
          27.58551031694598 28.376384166472803 26.24960942286487 26.22249370663068 26.030076437256866 26.01701838737491
          26.15321259381026 25.983655204750303 26.491265653812075 26.443935545749095 26.123693403703673 26.325022514463118
          25.915208389360764 25.909426874377186 25.859198787883795 25.85679256796238 25.894571042547213 25.966781250210065
          25.95683605188065 25.876549179197603 25.93173048581361 26.713217532692767 26.646062915924787 26.25253366639729
          26.22051457184283 26.478893124791067 26.14080836102807 26.80536599916993 26.72973671740314 26.260538167952934
          26.54203608976135 26.01394097707265 25.99980997837851 25.899738337287083 25.89409238143492 25.964644884658675
          26.033590964663546 26.017609507935816 25.901267524608517 25.97808926531006 25.849005382474544 25.846869078587655
          25.85199890575129 25.849617153785985 25.828219216921347 25.819841680577166 25.82133857525908 25.829729195204216
          25.824676581718435 25.82382525260671 25.84767165056424 25.85189203278384 25.831396407328526 25.84712990185379
          25.83983922889135 25.88828485344565 25.9331313629219 25.868124656627096 25.864469002459497 25.924998082097744
          26.066140017053527 25.911368919333434 26.042761134608558 25.836594824140377 25.835356044673066 25.834943779029327
          25.855869135064218 25.888995954463816 25.822619534354395 25.822566792604388 26.032654967109217 26.02675920395559
          26.126899103200238 26.117310780970506 26.0103781836914 25.988758731247575 26.09085174284793 26.411182975257418
          26.388819878566117 26.137795780376138 26.328144007534352 25.924182481479644 25.96517946313007 25.951846668792225
          26.0846123264825 25.95946266690021 26.022353286598673 26.974301766877968 26.54413519539977 26.510656353248724
          26.920247067445267 26.421689395160534 26.77791732191109 27.21129433860082 27.132085039246093 26.92795710620757
          26.303627969420468 26.037229846085822 26.1837625651172 25.943479339195356 26.328966931912067 26.672657716460506
          26.107076949240483 26.185401967164783 26.431484774170606 26.026515126179774 25.82665113047893 25.83101942203787
          25.83043874177315 25.828872292093322 25.837541428229255 25.851589390957336 25.863798631187315 25.869462990559583
          25.886634781974813 25.85350702305763 25.972328318688117 25.895757859271306 25.930169588109734 25.87506348476706
          25.833931686781458 25.83961825381077 25.824277993449858 25.826722511368132 25.854502388024613 25.833229773672624
          28.370803927848005 28.192214748098348 27.74796809091493 30.103202745445763 29.738865645114 28.871816944830734
          26.655674276875295 27.227995167823916 26.29005593021678 27.05644286240829 27.930495747057904 26.511435551300192
          31.920820278218894 31.34307957299415 29.987273367658137 32.73198951132077 32.059416827317264 30.47739081219541
          27.4120730294106 28.57789143194247 26.704749126360166 27.557469978633883 28.84967400315238 26.78297200916992
          25.850561319636146 25.86623661134119 26.06835736210229 25.942673023954164 26.183972655337122 25.998879554969086
          25.87612698436115 25.84270559114473 25.901620193447638 25.853673049737985 25.87987510261641 25.885393513627417
          26.28444636550146 26.04763203688445 26.325107459827432 26.067343164613746 25.923447044647244 25.862899922229985
          25.93220771591237 25.866572409214623 25.821670217484197 25.821424443251125 25.826183892138783 25.8256839164181
          25.82077165215807 25.824361981638894 25.8331694866309 25.832224321481792 25.829757703294753 25.84163308582864
          25.840076875997 25.836075879658114 25.82476517166493 25.824202665985627 25.827455192185898 25.826694999203355
          25.841433851591066 25.822745127570016 25.824743622412186 25.8285354245343 25.827692501925778 25.843579558883853
          25.825536307170573
        </DataArray>
        <DataArray type="Float64" Name="dk/dtemperature" format="ascii" RangeMin="0.009945289687992093" RangeMax="0.015804580349343192">
          0.015804580349343192 0.015804580349343192 0.015349936999062017 0.015804580349343192 0.013498393659905322 0.015804580349343192
          0.015454351492900805 0.015804580349343192 0.015804580349343192 0.015463597836632311 0.015804580349343192 0.015804580349343192
          0.015804580349343192 0.014184639299605145 0.014604752083586785 0.014096199784305388 0.015553985564130103 0.01566884150735277
          0.015804580349343192 0.015271185826600472 0.015533102665362345 0.015804580349343192 0.015762814551807676 0.015762814551807676
          0.015493727079131575 0.015804580349343192 0.015804580349343192 0.015804580349343192 0.015804580349343192 0.015804580349343192
          0.015804580349343192 0.015804580349343192 0.015804580349343192 0.015804580349343192 0.015804580349343192 0.015700165855504405
          0.015721048754272163 0.015804580349343192 0.0157523731024238 0.015804580349343192 0.015804580349343192 0.015804580349343192
          0.015804580349343192 0.015804580349343192 0.015804580349343192 0.015804580349343192 0.015783697450575434 0.015804580349343192
          0.015370819897829773 0.015402144245981408 0.015679282956736647 0.015689724406120525 0.015493727079131573 0.01573149020365604
          0.014821822707260228 0.014857299323558542 0.015370819897829775 0.01500392161403955 0.015616634260433375 0.015783697450575434
          0.015804580349343192 0.015804580349343192 0.015804580349343192 0.015804580349343192 0.01580458034934319 0.015804580349343192
          0.015804580349343192 0.01580458034934319 0.015804580349343192 0.015804580349343192 0.015804580349343192 0.015804580349343192
          0.015804580349343192 0.015804580349343192 0.015804580349343192 0.015804580349343192 0.015804580349343192 0.015804580349343192
          0.015804580349343192 0.015804580349343192 0.015679282956736647 0.015689724406120525 0.015804580349343192 0.01573149020365604
          0.015804580349343192 0.015804580349343192 0.015804580349343192 0.015804580349343192 0.015804580349343192 0.015804580349343192
          0.015804580349343192 0.015804580349343192 0.015804580349343192 0.015804580349343192 0.015804580349343192 0.015804580349343192
          0.013976435920854001 0.014079845706957146 0.014821822707260228 0.014875100107749133 0.014366548656979866 0.015041410191345523
          0.012969905360367052 0.013160869815044426 0.01430786013388229 0.013651241382813909 0.012209821559507153 0.012435064979294096
          0.013684957639294542 0.013832897441974405 0.01307733737146127 0.014245839592041822 0.011934947259461676 0.01216025442805823
          0.013633503498920814 0.012864734365934091 0.015391702796597531 0.015432273488480674 0.015721048754272163 0.01574193165303992
          0.015534297771014716 0.015773256001191557 0.015019207234842536 0.015086825054647772 0.015585309912281738 0.015262631386141392
          0.015804580349343192 0.015804580349343192 0.015804580349343192 0.015804580349343192 0.015804580349343192 0.015804580349343192
          0.015804580349343192 0.015804580349343192 0.015804580349343192 0.014703446044402194 0.014775908035626537 0.015370819897829773
          0.015431078382828301 0.015020402340494907 0.015564427013513982 0.014597897648184276 0.014667844476021017 0.015370819897829773