<?xml version="1.0"?>
<VTKFile type="UnstructuredGrid" version="0.1" byte_order="LittleEndian" header_type="UInt32" compressor="vtkZLibDataCompressor">
  <UnstructuredGrid>
    <Piece NumberOfPoints="306" NumberOfCells="162">
      <PointData>
        <DataArray type="Int32" Name="libmesh_node_id" format="ascii" RangeMin="220" RangeMax="2461">
          220 275 281 413 416 417
          418 419 421 422 423 434
          435 436 437 438 439 440
          441 442 443 690 1019 1020
          1025 1032 1034 1036 1037 1040
          1041 1043 1044 1045 1051 1060
          1061 1065 1067 1069 1071 1073
          1074 1075 1076 1077 1078 1079
          1102 1103 1106 1108 1197 1234
          1236 1237 1238 1240 1241 1242
          1243 1244 1245 1246 1247 1248
          1249 1250 2086 2087 2088 2089
          2132 2133 2134 2135 2136 2137
          2145 2146 2147 2167 2168 2171
          2172 2173 2174 2185 2186 2187
          2188 2189 2190 2191 2192 2193
          2194 2195 2196 2197 2198 2199
          2200 2201 2202 2203 2204 2212
          2213 2214 2242 2243 2244 2245
          2246 2247 2248 2276 2277 2278
          2279 2280 2281 2282 2303 2304
          2305 2306 2307 2308 2309 2310
          2311 2312 2313 2314 2315 2316
          2337 2338 2339 2340 2341 2342
          2343 2344 2345 2346 2347 2348
          2349 2350 2358 2359 2360 2361
          2362 2363 2364 2372 2373 2374
          2375 2376 2377 2378 2386 2387
          2388 2389 2390 2391 2392 2400
          2401 2402 2403 2404 2405 2406
          2407 2408 2409 2410 2411 2412
          2413 2414 2415 2416 2417 2418
          2419 2420 2421 2422 2423 2424
          2425 2426 2427 2428 2429 2430
          2431 2432 2433 2434 2435 2436
          2437 2438 2439 2440 2441 2442
          2443 2444 2445 2446 2447 2448
          2449 2450 2451 2452 2453 2454
          2455 2456 2457 2458 2459 2460
          2461 426 277 427 430 432
          282 1026 1028 1030 1027 1029
          1031 411 1007 1035 1100 1068
          1101 1104 1105 1072 1107 1109
          681 1192 272 1229 960 1235
          1230 1239 1233 2055 2165 2085
          2166 2169 2170 2079 2159 1011
          2163 2161 1033 2177 2178 2181
          2183 2081 2236 2238 2240 1050
          2270 2272 2274 1055 2352 2354
          2356 1066 2366 2368 2370 2380
          2382 2384 1070 2394 2396 2398
        </DataArray>
        <DataArray type="Float64" Name="bounds" format="ascii" RangeMin="0" RangeMax="0">
          0 0 0 0 0 0
          0 0 0 0 0 0
          0 0 0 0 0 0
          0 0 0 0 0 0
          0 0 0 0 0 0
          0 0 0 0 0 0
          0 0 0 0 0 0
          0 0 0 0 0 0
          0 0 0 0 0 0
          0 0 0 0 0 0
          0 0 0 0 0 0
          0 0 0 0 0 0
          0 0 0 0 0 0
          0 0 0 0 0 0
          0 0 0 0 0 0
          0 0 0 0 0 0
          0 0 0 0 0 0
          0 0 0 0 0 0
          0 0 0 0 0 0
          0 0 0 0 0 0
          0 0 0 0 0 0
          0 0 0 0 0 0
          0 0 0 0 0 0
          0 0 0 0 0 0
          0 0 0 0 0 0
          0 0 0 0 0 0
          0 0 0 0 0 0
          0 0 0 0 0 0
          0 0 0 0 0 0
          0 0 0 0 0 0
          0 0 0 0 0 0
          0 0 0 0 0 0
          0 0 0 0 0 0
          0 0 0 0 0 0
          0 0 0 0 0 0
          0 0 0 0 0 0
          0 0 0 0 0 0
          0 0 0 0 0 0
          0 0 0 0 0 0
          0 0 0 0 0 0
          0 0 0 0 0 0
          0 0 0 0 0 0
          0 0 0 0 0 0
          0 0 0 0 0 0
          0 0 0 0 0 0
          0 0 0 0 0 0
          0 0 0 0 0 0
          0 0 0 0 0 0
          0 0 0 0 0 0
          0 0 0 0 0 0
          0 0 0 0 0 0
        </DataArray>
        <DataArray type="Float64" Name="gradient_error" format="ascii" RangeMin="5.0283424205473065e-11" RangeMax="1.869313052190726e-8">
          3.089946284652277e-9 6.161006959027923e-10 2.263335171661887e-10 9.470299294871105e-10 8.013834891159806e-11 1.115209921176494e-9
          8.471171112223844e-10 4.430755078115129e-10 2.7701294650064936e-9 1.7011210842756834e-10 1.019370998734083e-9 1.495498257035678e-9
          1.7012983659616018e-9 7.268035838499954e-10 6.767677349117442e-10 1.5595995332441761e-9 2.5570853758235734e-9 7.331642249960127e-10
          1.855835573438019e-9 5.769601993587421e-10 3.0640343903461186e-9 1.02226928592978e-9 4.396960374668764e-10 3.3410760275185625e-10
          2.731355290292515e-10 6.971613727429277e-10 4.901702048537585e-10 3.648900223159176e-10 3.398025012164798e-10 2.8413049264110735e-10
          4.1667547381358835e-10 2.917963172661777e-10 1.5614586928133032e-10 4.2747025528878883e-10 2.0890832078685413e-9 5.78832306631297e-10
          1.325707499535427e-10 7.599024173368892e-10 7.793690924337643e-10 8.89956363989753e-10 9.738926793790965e-10 2.737868892337874e-10
          1.380917552856904e-10 3.691252460924175e-10 2.2528386102097164e-10 2.8427989946918677e-10 9.911081472101097e-11 3.6690065877551315e-10
          9.062065404129008e-10 1.0300463343845674e-9 6.130554474464712e-10 1.144759773418338e-9 1.0412096894382044e-9 8.056798716739002e-10
          5.345566322753066e-10 7.112552314062078e-10 6.049472748703139e-10 5.295356418098799e-10 3.4966131497658177e-10 4.0033863800379685e-10
          2.153040410700456e-10 2.2467902118700286e-10 2.517677581859924e-10 2.729073437441162e-10 1.7486915713728855e-10 4.5101596103101183e-10
          2.340540013039601e-10 2.9404692930223987e-10 5.571222499622611e-10 2.2994672019724813e-9 1.3219816331842996e-9 1.6413333582740292e-9
          2.2235549615150987e-10 3.08171298203981e-10 1.6514054458440663e-10 7.203023159192625e-10 3.738554787874323e-10 5.201714180230389e-10
          1.864440326462449e-10 8.895799517975372e-11 1.3861397182015216e-10 2.915035035403212e-10 3.924102599288259e-10 3.022790696502592e-10
          1.105748473203588e-9 6.399881597671385e-10 7.147756511766448e-10 2.3670843553858046e-10 3.0062336189046103e-10 1.8566986841203099e-10
          2.3102265106822263e-10 1.9572458464768798e-10 2.3994000917110624e-10 1.924042678340176e-10 4.481963264974447e-10 2.995334410130444e-10
          3.436869923973041e-10 1.6461295234974552e-10 2.192529778021207e-10 9.256368038067537e-11 1.2042263756073977e-10 1.3928657955155236e-10
          1.7910685029080834e-10 1.0072600625464621e-10 3.5407731697274533e-10 1.8882467506536946e-10 2.5621606778042346e-10 9.607196247481428e-11
          5.486873721083992e-11 7.673916174392614e-11 3.757442760239283e-9 2.157055898166203e-9 2.582819090602846e-9 1.485060466180804e-9
          5.403946744947035e-9 3.113629882045308e-9 3.636591221783827e-9 6.7079380731721866e-9 3.886421556916687e-9 4.487197210843667e-9
          2.58003772510958e-9 7.198240579066877e-9 4.181441639667391e-9 4.814654116124835e-9 1.1647591871630351e-9 5.955083404215021e-10
          8.079253122897919e-10 4.182322282631788e-10 1.675874783803538e-9 8.488066134071477e-10 1.129837484300575e-9 2.9038795975259357e-10
          1.3578844916693035e-10 2.074875407426785e-10 9.853176014225104e-11 4.077144026048113e-10 1.8726285099975663e-10 2.8262917035252634e-10
          2.093375265772038e-9 1.0565487313912348e-9 1.3918713820118602e-9 7.092584960239397e-10 2.2543310477900608e-9 1.1370705877376642e-9
          1.4935626842125293e-9 5.039430455039329e-10 2.2916755953120923e-10 3.4373354594534345e-10 1.596682953740565e-10 5.412914625441455e-10
          2.453980507172359e-10 3.6738045144353725e-10 1.660425379062658e-9 9.601625273134322e-10 1.0259603619366953e-9 5.953967659393459e-10
          2.257291069979395e-9 1.3012966993730738e-9 1.3433932386771174e-9 6.167087413750511e-10 3.61580175741463e-10 4.5890294102811954e-10
          2.74495768208296e-10 7.803260855931168e-10 4.556502321385817e-10 5.675843077428335e-10 2.733395709814464e-9 1.5733636654437494e-9
          1.591128189710664e-9 9.206038200805215e-10 2.9162594450928083e-9 1.6777996835512698e-9 1.6850744271935999e-9 9.076596783485399e-10
          5.261545560405497e-10 6.546218464632003e-10 3.786859316723843e-10 9.562303035084008e-10 5.530565546295024e-10 6.88662408396889e-10
          5.293032949909538e-10 2.7743382123929993e-10 3.305041290632349e-10 2.036594883166127e-10 7.1350923623135e-10 3.709015941414275e-10
          4.335698867448197e-10 1.3868403519424686e-10 6.759194175095897e-11 1.0856404480604449e-10 5.446184601946569e-11 1.8377907070430963e-10
          8.869490955696315e-11 1.2692313340685605e-10 1.680929872219264e-10 1.9928904705041693e-10 1.211834952585458e-10 1.4217058637975004e-10
          1.3070790422238393e-10 1.512766566005448e-10 1.0962879151985996e-10 2.560005266353233e-10 1.5568964225894767e-10 1.894651742304323e-10
          8.577280604404781e-10 4.444421834089945e-10 5.089607206959399e-10 2.678098502370934e-10 9.127826077091686e-10 4.72581065623799e-10
          5.369293848731073e-10 2.2047681397319132e-10 1.0473990216718775e-10 1.3668942147015187e-10 7.875419470272658e-11 2.34744445031296e-10
          1.1088558462298105e-10 1.4557125457167184e-10 2.954474651253234e-10 1.6050752125354325e-10 2.1556048762408454e-10 1.222861477172742e-10
          3.0937898385890786e-10 1.6905941786914225e-10 2.240360357660102e-10 8.131609506246175e-11 8.489292030598512e-11 6.22963491051521e-11
          6.154682896585746e-11 6.595078560731326e-11 6.640976666180091e-11 5.0283424205473065e-11 8.84697455495085e-11 6.079730882656282e-11
          6.686874771628855e-11 4.757970183936873e-9 1.1802224872348637e-8 5.777760436689622e-9 9.283683694982712e-9 7.3351224688499136e-9
          1.869313052190726e-8 1.1962719211554854e-9 8.406269324658197e-10 1.1912440017800616e-9 1.0354415756398296e-9 6.804802456935184e-10
          1.2635971055598998e-9 8.211385906931063e-10 6.750513030755826e-10 1.5376510745329127e-9 1.787891705585486e-9 1.6413402912961578e-9
          1.80999109759112e-9 1.0470078812011905e-9 1.3329822657629202e-9 1.3594870220852638e-9 1.4408171623327399e-9 1.4653981570165051e-9
          3.341277083578247e-9 3.4480330584601335e-9 3.862224235290222e-9 1.731769255956866e-9 2.8371582106313645e-9 1.1028161411768889e-9
          2.3945713198879696e-9 7.4919833138168e-10 1.5592922644211141e-9 5.946983295525446e-10 4.998167189670582e-10 9.620807112771318e-10
          6.77256536335795e-10 3.4652003671573504e-10 4.5687757016107027e-10 1.58580755847299e-9 1.1160450443576544e-9 2.6957082759514863e-9
          1.8108994861535146e-9 7.501942184917054e-10 1.1658339620569802e-9 3.8699935694203554e-10 4.881085519066051e-10 3.823048838710816e-10
          7.241884240014642e-10 3.7725231886331275e-9 6.1243472453636525e-9 4.231514708190218e-9 8.716721852677474e-9 5.93039710039123e-9
          1.0709605258009706e-8 7.284200446824296e-9 1.1441902961890128e-8 7.80082647418383e-9 2.7220684417621945e-9 1.6784846737371545e-9
          3.699896522811972e-9 2.2051475942240427e-9 1.0062542238242486e-9 7.462698346433959e-10 1.2879863013946847e-9 4.4733346935003875e-9
          2.611946309332504e-9 4.769317938224564e-9 2.7662041867194187e-9 1.5048044184984995e-9 9.75593044463637e-10 1.5869855807243727e-9
        </DataArray>
        <DataArray type="Float64" Name="gradient_matprop_error" format="ascii" RangeMin="0" RangeMax="0">
          0 0 0 0 0 0
          0 0 0 0 0 0
          0 0 0 0 0 0
          0 0 0 0 0 0
          0 0 0 0 0 0
          0 0 0 0 0 0
          0 0 0 0 0 0
          0 0 0 0 0 0
          0 0 0 0 0 0
          0 0 0 0 0 0
          0 0 0 0 0 0
          0 0 0 0 0 0
          0 0 0 0 0 0
          0 0 0 0 0 0
          0 0 0 0 0 0
          0 0 0 0 0 0
          0 0 0 0 0 0
          0 0 0 0 0 0
          0 0 0 0 0 0
          0 0 0 0 0 0
          0 0 0 0 0 0
          0 0 0 0 0 0
          0 0 0 0 0 0
          0 0 0 0 0 0
          0 0 0 0 0 0
          0 0 0 0 0 0
          0 0 0 0 0 0
          0 0 0 0 0 0
          0 0 0 0 0 0
          0 0 0 0 0 0
          0 0 0 0 0 0
          0 0 0 0 0 0
          0 0 0 0 0 0
          0 0 0 0 0 0
          0 0 0 0 0 0
          0 0 0 0 0 0
          0 0 0 0 0 0
          0 0 0 0 0 0
          0 0 0 0 0 0
          0 0 0 0 0 0
          0 0 0 0 0 0
          0 0 0 0 0 0
          0 0 0 0 0 0
          0 0 0 0 0 0
          0 0 0 0 0 0
          0 0 0 0 0 0
          0 0 0 0 0 0
          0 0 0 0 0 0
          0 0 0 0 0 0
          0 0 0 0 0 0
          0 0 0 0 0 0
        </DataArray>
        <DataArray type="Float64" Name="initial_marker" format="ascii" RangeMin="0" RangeMax="2">
          0 0 0 2 1.25 0
          0 0 2 2 1 0
          0 0 0 0 0 0
          0 0 0 0 0 0.25
          2 0 1.5 0 0 0
          0 0.5 0 0 2 2
          2 2 2 0.75 2 1.75
          0.75 0 0 2 1 0
          0 0 0 0 0 0
          0 0 0 0 0 0
          0 0 0 0 0 0
          0 0 2 2 2 2
          1.5 1.75 1.25 2 2 2
          2 1.75 1.75 1 1.5 0.6666666666666666
          2 2 1.75 0 0.25 0
          0 0 0 0 0.75 0.6666666666666666
          0 0.5 1 0 0.5 0
          0.5 0 1.75 1.5 1.3333333333333333 1
          0.6666666666666666 0.5 2 2 2 2
          2 2 2 2 2 2
          2 2 2 2 2 2
          2 2 2 2 2 2
          2 2 2 2 2 2
          2 2 2 2 2 2
          2 2 2 2 2 2
          2 2 2 2 2 2
          2 2 2 1.5 1.25 1
          0.5 2 1.75 2 2 2
          2 2 2 2 2 2
          2 2 2 2 2 2
          2 2 1.75 1.6666666666666667 2 2
          2 1.75 1.25 1.5 0.5 2
          1.75 1.6666666666666667 0.5 0.75 0 0.5
          0 0 0 1.25 1 0.5
          2 2 2 2 2 2
          2 2 2 1.5 1.3333333333333333 2
          2 1.5 1.5 1 1 0
          1.5 1 1 0.5 0.5 0
          0 0 0 0 0.5 0
          0 0 0 0 0 0
          0 0 0 0 0.5 0
          0 0 1 0.25 0 1
          0 0 0 1 0 0
          0 0 0 0 0 0
          0 0 0 1.6666666666666667 1.5 2
          1.75 0.5 1 2 2 2
          2 1.5 2 0 0.5 0
          1.25 2 2 2 2 2
          2 2 2 2 2 2
          2 2 1.75 1.5 2 2
          2 2 2 2 1.3333333333333333 2
        </DataArray>
        <DataArray type="Float64" Name="markers_norefine" format="ascii" RangeMin="0" RangeMax="0">
          0 0 0 0 0 0
          0 0 0 0 0 0
          0 0 0 0 0 0
          0 0 0 0 0 0
          0 0 0 0 0 0
          0 0 0 0 0 0
          0 0 0 0 0 0
          0 0 0 0 0 0
          0 0 0 0 0 0
          0 0 0 0 0 0
          0 0 0 0 0 0
          0 0 0 0 0 0
          0 0 0 0 0 0
          0 0 0 0 0 0
          0 0 0 0 0 0
          0 0 0 0 0 0
          0 0 0 0 0 0
          0 0 0 0 0 0
          0 0 0 0 0 0
          0 0 0 0 0 0
          0 0 0 0 0 0
          0 0 0 0 0 0
          0 0 0 0 0 0
          0 0 0 0 0 0
          0 0 0 0 0 0
          0 0 0 0 0 0
          0 0 0 0 0 0
          0 0 0 0 0 0
          0 0 0 0 0 0
          0 0 0 0 0 0
          0 0 0 0 0 0
          0 0 0 0 0 0
          0 0 0 0 0 0
          0 0 0 0 0 0
          0 0 0 0 0 0
          0 0 0 0 0 0
          0 0 0 0 0 0
          0 0 0 0 0 0
          0 0 0 0 0 0
          0 0 0 0 0 0
          0 0 0 0 0 0
          0 0 0 0 0 0
          0 0 0 0 0 0
          0 0 0 0 0 0
          0 0 0 0 0 0
          0 0 0 0 0 0
          0 0 0 0 0 0
          0 0 0 0 0 0
          0 0 0 0 0 0
          0 0 0 0 0 0
          0 0 0 0 0 0
        </DataArray>
        <DataArray type="Float64" Name="markers_mustrefine" format="ascii" RangeMin="0" RangeMax="2">
          0 0 0 2 1.25 0
          0 0 2 2 1 0
          0 0 0 0 0 0
          0 0 0 0 0 0.25
          2 0 1.5 0 0 0
          0 0.5 0 0 2 2
          2 2 2 0.75 2 1.75
          0.75 0 0 2 1 0
          0 0 0 0 0 0
          0 0 0 0 0 0
          0 0 0 0 0 0
          0 0 2 2 2 2
          1.5 1.75 1.25 2 2 2
          2 1.75 1.75 1 1.5 0.6666666666666666
          2 2 1.75 0 0.25 0
          0 0 0 0 0.75 0.6666666666666666
          0 0.5 1 0 0.5 0
          0.5 0 1.75 1.5 1.3333333333333333 1
          0.6666666666666666 0.5 2 2 2 2
          2 2 2 2 2 2
          2 2 2 2 2 2
          2 2 2 2 2 2
          2 2 2 2 2 2
          2 2 2 2 2 2
          2 2 2 2 2 2
          2 2 2 2 2 2
          2 2 2 1.5 1.25 1
          0.5 2 1.75 2 2 2
          2 2 2 2 2 2
          2 2 2 2 2 2
          2 2 1.75 1.6666666666666667 2 2
          2 1.75 1.25 1.5 0.5 2
          1.75 1.6666666666666667 0.5 0.75 0 0.5
          0 0 0 1.25 1 0.5
          2 2 2 2 2 2
          2 2 2 1.5 1.3333333333333333 2
          2 1.5 1.5 1 1 0
          1.5 1 1 0.5 0.5 0
          0 0 0 0 0.5 0
          0 0 0 0 0 0
          0 0 0 0 0.5 0
          0 0 1 0.25 0 1
          0 0 0 1 0 0
          0 0 0 0 0 0
          0 0 0 1.6666666666666667 1.5 2
          1.75 0.5 1 2 2 2
          2 1.5 2 0 0.5 0
          1.25 2 2 2 2 2
          2 2 2 2 2 2
          2 2 1.75 1.5 2 2
          2 2 2 2 1.3333333333333333 2
        </DataArray>
        <DataArray type="Float64" Name="gradient_marker" format="ascii" RangeMin="1" RangeMax="1">
          1 1 1 1 1 1
          1 1 1 1 1 1
          1 1 1 1 1 1
          1 1 1 1 1 1
          1 1 1 1 1 1
          1 1 1 1 1 1
          1 1 1 1 1 1
          1 1 1 1 1 1
          1 1 1 1 1 1
          1 1 1 1 1 1
          1 1 1 1 1 1
          1 1 1 1 1 1
          1 1 1 1 1 1
          1 1 1 1 1 1
          1 1 1 1 1 1
          1 1 1 1 1 1
          1 1 1 1 1 1
          1 1 1 1 1 1
          1 1 1 1 1 1
          1 1 1 1 1 1
          1 1 1 1 1 1
          1 1 1 1 1 1
          1 1 1 1 1 1
          1 1 1 1 1 1
          1 1 1 1 1 1
          1 1 1 1 1 1
          1 1 1 1 1 1
          1 1 1 1 1 1
          1 1 1 1 1 1
          1 1 1 1 1 1
          1 1 1 1 1 1
          1 1 1 1 1 1
          1 1 1 1 1 1
          1 1 1 1 1 1
          1 1 1 1 1 1
          1 1 1 1 1 1
          1 1 1 1 1 1
          1 1 1 1 1 1
          1 1 1 1 1 1
          1 1 1 1 1 1
          1 1 1 1 1 1
          1 1 1 1 1 1
          1 1 1 1 1 1
          1 1 1 1 1 1
          1 1 1 1 1 1
          1 1 1 1 1 1
          1 1 1 1 1 1
          1 1 1 1 1 1
          1 1 1 1 1 1
          1 1 1 1 1 1
          1 1 1 1 1 1
        </DataArray>
        <DataArray type="Float64" Name="gradient_matprop_marker" format="ascii" RangeMin="0" RangeMax="0">
          0 0 0 0 0 0
          0 0 0 0 0 0
          0 0 0 0 0 0
          0 0 0 0 0 0
          0 0 0 0 0 0
          0 0 0 0 0 0
          0 0 0 0 0 0
          0 0 0 0 0 0
          0 0 0 0 0 0
          0 0 0 0 0 0
          0 0 0 0 0 0
          0 0 0 0 0 0
          0 0 0 0 0 0
          0 0 0 0 0 0
          0 0 0 0 0 0
          0 0 0 0 0 0
          0 0 0 0 0 0
          0 0 0 0 0 0
          0 0 0 0 0 0
          0 0 0 0 0 0
          0 0 0 0 0 0
          0 0 0 0 0 0
          0 0 0 0 0 0
          0 0 0 0 0 0
          0 0 0 0 0 0
          0 0 0 0 0 0
          0 0 0 0 0 0
          0 0 0 0 0 0
          0 0 0 0 0 0
          0 0 0 0 0 0
          0 0 0 0 0 0
          0 0 0 0 0 0
          0 0 0 0 0 0
          0 0 0 0 0 0
          0 0 0 0 0 0
          0 0 0 0 0 0
          0 0 0 0 0 0
          0 0 0 0 0 0
          0 0 0 0 0 0
          0 0 0 0 0 0
          0 0 0 0 0 0
          0 0 0 0 0 0
          0 0 0 0 0 0
          0 0 0 0 0 0
          0 0 0 0 0 0
          0 0 0 0 0 0
          0 0 0 0 0 0
          0 0 0 0 0 0
          0 0 0 0 0 0
          0 0 0 0 0 0
          0 0 0 0 0 0
        </DataArray>
        <DataArray type="Float64" Name="combo" format="ascii" RangeMin="1" RangeMax="1">
          1 1 1 1 1 1
          1 1 1 1 1 1
          1 1 1 1 1 1
          1 1 1 1 1 1
          1 1 1 1 1 1
          1 1 1 1 1 1
          1 1 1 1 1 1
          1 1 1 1 1 1
          1 1 1 1 1 1
          1 1 1 1 1 1
          1 1 1 1 1 1
          1 1 1 1 1 1
          1 1 1 1 1 1
          1 1 1 1 1 1
          1 1 1 1 1 1
          1 1 1 1 1 1
          1 1 1 1 1 1
          1 1 1 1 1 1
          1 1 1 1 1 1
          1 1 1 1 1 1
          1 1 1 1 1 1
          1 1 1 1 1 1
          1 1 1 1 1 1
          1 1 1 1 1 1
          1 1 1 1 1 1
          1 1 1 1 1 1
          1 1 1 1 1 1
          1 1 1 1 1 1
          1 1 1 1 1 1
          1 1 1 1 1 1
          1 1 1 1 1 1
          1 1 1 1 1 1
          1 1 1 1 1 1
          1 1 1 1 1 1
          1 1 1 1 1 1
          1 1 1 1 1 1
          1 1 1 1 1 1
          1 1 1 1 1 1
          1 1 1 1 1 1
          1 1 1 1 1 1
          1 1 1 1 1 1
          1 1 1 1 1 1
          1 1 1 1 1 1
          1 1 1 1 1 1
          1 1 1 1 1 1
          1 1 1 1 1 1
          1 1 1 1 1 1
          1 1 1 1 1 1
          1 1 1 1 1 1
          1 1 1 1 1 1
          1 1 1 1 1 1
        </DataArray>
        <DataArray type="Float64" Name="dHdT" format="ascii" RangeMin="25.81882152418354" RangeMax="28.84967400315238">
          25.821503050162836 25.81882152418354 25.822312004715656 26.026515126179774 25.828676261578426 25.834264784489104
          25.861483503424463 25.82228380223484 26.430987613158955 25.850116618092322 25.897952397505964 25.82921138227513
          25.838967475385257 25.819974917234052 25.820656907501576 25.828773718357567 25.837759739123815 25.820899481534465
          25.845916849613218 25.82114407342978 25.84258049405048 25.823571843345157 25.831396407328526 25.83983922889135
          25.87506348476706 25.85010909105533 25.9112965522268 25.829463215283177 25.832903121378877 25.827058258655917
          25.83164824974751 25.844997293339922 25.82384465065601 25.836141755259742 26.27526816659471 25.939361806762097
          25.84230102864676 25.979323758880803 25.99369708613234 25.8870313772195 26.037332260890476 25.86547698884251
          25.82770807398593 25.839431076305605 25.82460424065644 25.87852337472301 25.829204641111843 25.842988723114576
          25.854515283511436 25.859269312020903 25.846915239437116 25.863650815315413 25.822939182988517 25.85539904984031
          25.840636159143358 25.84720319611244 25.848577659384322 25.841557211206933 25.83126064018275 25.832644035513937
          25.824277273851227 25.82457089984189 25.828064476042087 25.828843759957483 25.823325359453136 25.83402743084511
          25.824864525832552 25.82962304387288 25.943479339195356 26.328966931912067 26.107076949240483 26.185401967164783
          25.869462990559583 25.886634781974813 25.85350702305763 25.972328318688117 25.895757859271306 25.930169588109734
          25.854502388024613 25.833229773672624 25.844835788758335 25.88872159970303 25.90959365425871 25.891590008202467
          26.068879446962487 25.96106091642338 25.98420441418134 25.88241903534167 25.896123084508595 25.866798577524094
          25.876266941007486 25.87283270076603 25.883039100452386 25.86656718812099 25.92804654290235 25.89016255542593
          25.906357311131668 25.857903842809055 25.86892182911802 25.839146550762543 25.844615988459203 25.85266611863547
          25.861082906112667 25.840674136428085 25.895916811661856 25.85807508715515 25.87681225277747 25.8370339891647
          25.827439736274854 25.833726104859934 26.655674276875295 26.29005593021678 26.390971084644036 26.14235176929529
          27.05644286240829 26.511435551300192 26.627954140907395 27.4120730294106 26.704749126360166 26.82810801768032
          26.38677563598431 27.557469978633883 26.78297200916992 26.90765264373624 26.06835736210229 25.942673023954164
          25.99108603907659 25.9051417475655 26.183972655337122 25.998879554969086 26.061008117723745 25.87612698436115
          25.84270559114473 25.85900058267297 25.835327615211952 25.901620193447638 25.853673049737985 25.87486457958601
          26.28444636550146 26.04763203688445 26.11957625791321 25.967967619079094 26.325107459827432 26.067343164613746
          26.142775755702687 25.923447044647244 25.862899922229985 25.88788181296022 25.847922761373315 25.93220771591237
          25.866572409214623 25.892995815537887 26.19092042074585 26.029714782697766 26.053946012533306 25.952813974309063
          26.32338108512394 26.104624224143226 26.126021406749093 25.96703237492747 25.90445986859775 25.934216950356834
          25.886277648890967 26.005535596694383 25.926860427307616 25.960772028354267 26.429956936739387 26.164825894195598
          26.181615855532193 26.025278099334994 26.47134474546334 26.188176781467913 26.20282254787204 26.033821637508257
          25.943298279510582 25.97937866688597 25.913741670502873 26.044370879353508 25.94941926070797 25.98617805565248
          25.93182826821973 25.87597732719098 25.891427606939693 25.86179504462972 25.971345040260477 25.895566827454264
          25.912917170499565 25.84570220893459 25.829705053603902 25.840160495544737 25.82742976784202 25.854911935863466
          25.83373550084612 25.843889850732946 25.860418406480914 25.86638350659365 25.84875829170406 25.852266062533268
          25.85272515883338 25.857063784574727 25.846481261480626 25.877991849424237 25.853335798817195 25.865328922356944
          26.00328609456736 25.91135261897686 25.92998549717099 25.875281095513394 26.015644837156493 25.917461489272725
          25.936523334850975 25.862073425582885 25.83679825158573 25.845249887154502 25.83172166238707 25.864809154575504
          25.83796447996241 25.846509269920915 25.88714687986427 25.853908333110493 25.871757219272446 25.84616730399086
          25.890658667586447 25.85569988467644 25.87425900414707 25.83442627316768 25.83504579210511 25.828112797165197
          25.828336988652627 25.83071295688493 25.831258334808062 25.82600308061351 25.83566531104254 25.828561180140053
          25.831803712731187 25.86552503933722 25.847322317401318 25.9096029077672 25.888523434796895 25.941060121807176
          25.876235251867193 25.872897155962875 25.848204124516304 25.86692879960238 25.93099053529119 25.860760222002348
          25.887327874993062 25.84712990185379 25.88828485344565 25.93878509422005 25.892423948113752 25.998991457659717
          25.90729529690679 25.87075989161091 25.88458749361861 26.02788298839229 25.90867082635043 25.890690170547664
          25.847670842742026 25.841314738803824 25.913871649303182 25.89959718685375 25.978904075827174 25.866711029348778
          25.925104940708167 25.85580631295829 25.897914645450925 25.95946266690021 25.938084387801332 26.037229846085822
          25.97609774123353 25.90588883559743 25.929019644599666 26.1837625651172 26.08083847007337 26.431484774170606
          26.23716070378178 26.00188700910679 26.09557371205931 25.92312327029905 25.946642893237595 25.924718237791502
          26.000500394161275 26.672657716460506 27.227995167823916 26.775977767114313 27.930495747057904 27.17848998391752
          28.57789143194247 27.52394454432065 28.84967400315238 27.662615968574947 26.44006679403287 26.21133577542856
          26.661186349114896 26.330688528100623 26.064583290878907 26.008352806904483 26.12760967261188 26.84020697505852
          26.423008741176954 26.909755711009012 26.458088999020667 26.17423776862296 26.059773755432218 26.191584501633574
        </DataArray>
        <DataArray type="Float64" Name="dk/dtemperature" format="ascii" RangeMin="0.012448210292958048" RangeMax="0.015804580349343195">
          0.015804580349343192 0.015804580349343192 0.015804580349343192 0.015741931653039918 0.015804580349343192 0.015804580349343192
          0.015804580349343192 0.015804580349343192 0.015097958407304076 0.015804580349343192 0.015804580349343192 0.015804580349343192
          0.015804580349343192 0.015804580349343195 0.015804580349343195 0.015804580349343195 0.015804580349343192 0.015804580349343195
          0.015804580349343192 0.015804580349343192 0.015804580349343195 0.015804580349343192 0.015804580349343192 0.015804580349343192
          0.015804580349343192 0.015804580349343192 0.015804580349343192 0.015804580349343192 0.015804580349343192 0.015804580349343192
          0.015804580349343192 0.015804580349343192 0.015804580349343192 0.015804580349343192 0.015331444311599001 0.015804580349343192
          0.015804580349343192 0.015762814551807676 0.015773256001191557 0.015804580349343192 0.01574193165303992 0.015804580349343192
          0.015804580349343192 0.015804580349343192 0.015804580349343192 0.015804580349343192 0.015804580349343192 0.015804580349343192
          0.015804580349343192 0.015804580349343192 0.015804580349343192 0.015804580349343192 0.015804580349343192 0.015804580349343192
          0.015804580349343192 0.015804580349343192 0.015804580349343192 0.015804580349343192 0.015804580349343192 0.015804580349343192
          0.015804580349343192 0.015804580349343192 0.015804580349343192 0.015804580349343192 0.015804580349343192 0.015804580349343192
          0.015804580349343192 0.015804580349343192 0.015804580349343192 0.015242943593026007 0.015617829366085745 0.015493727079131573
          0.015804580349343192 0.015804580349343192 0.015804580349343192 0.015783697450575434 0.015804580349343192 0.015804580349343192
          0.015804580349343192 0.015804580349343192 0.015804580349343192 0.015804580349343192 0.015804580349343192 0.015804580349343192
          0.015700165855504405 0.015794138899959315 0.01579413889995931 0.015804580349343192 0.015804580349343192 0.015804580349343192
          0.015804580349343192 0.015804580349343192 0.015804580349343192 0.015804580349343192 0.015804580349343192 0.015804580349343192
          0.015804580349343192 0.015804580349343192 0.015804580349343192 0.015804580349343192 0.015804580349343192 0.015804580349343192
          0.015804580349343192 0.015804580349343192 0.015804580349343192 0.015804580349343192 0.015804580349343192 0.015804580349343192
          0.015804580349343192 0.015804580349343192 0.014773391175214682 0.015303202078024535 0.015162997314912092 0.015565622119166353
          0.014273581168772722 0.014974987477192654 0.014815219873047689 0.013858246261864186 0.01472564900090518 0.014533361094444077
          0.015154442874453012 0.01370067931961935 0.014634883023110303 0.014433222972322706 0.015668841507352767 0.015794138899959315
          0.015773256001191557 0.015804580349343192 0.015493727079131573 0.015762814551807676 0.015689724406120528 0.015804580349343192
          0.015804580349343192 0.015804580349343192 0.015804580349343192 0.015804580349343192 0.015804580349343192 0.015804580349343192