<?xml version="1.0"?>
<VTKFile type="UnstructuredGrid" version="0.1" byte_order="LittleEndian" header_type="UInt32" compressor="vtkZLibDataCompressor">
  <UnstructuredGrid>
    <Piece NumberOfPoints="328" NumberOfCells="162">
      <PointData>
        <DataArray type="Int32" Name="libmesh_node_id" format="ascii" RangeMin="87" RangeMax="3003">
          116 117 130 141 143 144
          157 168 169 170 171 183
          184 189 190 191 192 193
          194 195 199 200 201 203
          204 205 207 236 237 238
          239 240 241 242 246 247
          248 249 250 251 252 254
          337 338 341 347 351 458
          459 460 461 462 463 464
          468 469 470 492 493 494
          495 496 497 498 499 500
          501 502 503 504 505 506
          507 508 509 510 511 512
          513 514 515 526 527 528
          529 530 531 532 536 537
          538 540 541 542 543 544
          545 546 547 548 549 550
          551 552 553 554 555 556
          557 558 559 560 561 562
          563 618 619 620 621 622
          623 624 625 626 627 628
          629 630 631 633 635 640
          643 2646 2647 2650 2651 2653
          2654 2722 2723 2724 2725 2726
          2727 2728 2729 2730 2731 2732
          2733 2734 2735 2736 2737 2738
          2739 2740 2741 2742 2743 2744
          2745 2746 2747 2748 2749 2750
          2751 2752 2753 2754 2755 2756
          2757 2758 2759 2760 2761 2762
          2763 2764 2765 2766 2767 2768
          2769 2770 2771 2772 2773 2774
          2775 2776 2777 2778 2779 2780
          2781 2782 2783 2784 2785 2786
          2787 2788 2789 2790 2791 2792
          2793 2794 2795 2796 2797 2798
          2799 2800 2801 2802 2803 2804
          2805 2806 2807 2808 2809 2810
          2811 2812 2813 2963 2964 2965
          2966 2967 2968 2969 2970 2971
          2982 2983 2984 2985 2986 2987
          2998 2999 3000 3001 3002 3003
          87 89 90 88 114 115
          91 92 118 119 103 102
          129 104 131 142 156 146
          158 196 198 202 465 466
          467 471 145 298 300 305
          173 308 185 533 534 535
          539 312 314 319 322 2648
          2649 2652 2655 2690 2693 2692
          2694 2830 2831 2689 2833 2834
          2835 2836 2837 2697 2838 2839
          2953 2954 2955 2958 2691 2961
          2974 2975 2977 2695 2980 2696
          2990 2991 2994 2996
        </DataArray>
        <DataArray type="Float64" Name="bounds" format="ascii" RangeMin="0" RangeMax="0">
          0 0 0 0 0 0
          0 0 0 0 0 0
          0 0 0 0 0 0
          0 0 0 0 0 0
          0 0 0 0 0 0
          0 0 0 0 0 0
          0 0 0 0 0 0
          0 0 0 0 0 0
          0 0 0 0 0 0
          0 0 0 0 0 0
          0 0 0 0 0 0
          0 0 0 0 0 0
          0 0 0 0 0 0
          0 0 0 0 0 0
          0 0 0 0 0 0
          0 0 0 0 0 0
          0 0 0 0 0 0
          0 0 0 0 0 0
          0 0 0 0 0 0
          0 0 0 0 0 0
          0 0 0 0 0 0
          0 0 0 0 0 0
          0 0 0 0 0 0
          0 0 0 0 0 0
          0 0 0 0 0 0
          0 0 0 0 0 0
          0 0 0 0 0 0
          0 0 0 0 0 0
          0 0 0 0 0 0
          0 0 0 0 0 0
          0 0 0 0 0 0
          0 0 0 0 0 0
          0 0 0 0 0 0
          0 0 0 0 0 0
          0 0 0 0 0 0
          0 0 0 0 0 0
          0 0 0 0 0 0
          0 0 0 0 0 0
          0 0 0 0 0 0
          0 0 0 0 0 0
          0 0 0 0 0 0
          0 0 0 0 0 0
          0 0 0 0 0 0
          0 0 0 0 0 0
          0 0 0 0 0 0
          0 0 0 0 0 0
          0 0 0 0 0 0
          0 0 0 0 0 0
          0 0 0 0 0 0
          0 0 0 0 0 0
          0 0 0 0 0 0
          0 0 0 0 0 0
          0 0 0 0 0 0
          0 0 0 0 0 0
          0 0 0 0
        </DataArray>
        <DataArray type="Float64" Name="gradient_error" format="ascii" RangeMin="9.634995965176301e-10" RangeMax="0.0000014210797125001134">
          1.3247399475663529e-8 1.0005819642528349e-8 1.4677343746672874e-8 1.2473578787394324e-7 7.451465359484181e-7 1.4929410697722175e-7
          1.4257993579173864e-8 4.778253390839554e-7 2.906085495544858e-7 0.0000010608463955772664 1.4144573079638663e-7 9.750396873177915e-9
          6.606823510460303e-9 3.6408500818187817e-7 2.6114766400849016e-7 5.099120873825085e-7 0.0000012572074285695596 0.0000010480529513340464
          5.437535701194124e-7 7.765727035884035e-7 1.1305441631369676e-7 1.071736817086336e-7 1.926775135473136e-7 9.012356220629902e-7
          7.424973685364586e-7 9.379329339115583e-7 6.999925403972435e-8 4.807585334020034e-7 4.77829749945196e-7 8.369641415517196e-7
          0.0000011823339695658718 6.337953926727355e-7 5.941297475422302e-7 0.0000010513627994907832 3.956311368370266e-7 4.459482051698639e-7
          6.755641338138757e-7 2.817935608536284e-7 2.4569016910548244e-7 3.52993625956289e-7 9.237312441494648e-7 3.5751805748792055e-7
          3.309938247661148e-7 3.1827915897667137e-7 3.4318313685959066e-7 3.366326145154309e-7 3.060491351213787e-7 1.5983793431035327e-8
          9.592419006693518e-9 1.1885713519837814e-8 8.227636179819883e-8 5.985048649900865e-8 3.7660121659037316e-8 5.1997464302022126e-8
          3.2010445823517064e-9 1.5469756819065978e-8 2.1718566805845436e-8 4.933533763781745e-7 4.2069496262379666e-7 2.6712740546521627e-7
          5.033625216320495e-7 9.073766197566776e-7 6.746572402424363e-7 5.182257325750986e-7 2.6184204382674383e-7 2.8149144621169817e-7
          3.6206970574485663e-7 6.812112206481655e-7 7.518611333017992e-7 6.058295223263115e-7 2.1955091274127864e-7 4.978844879653109e-9
          1.3813522472920566e-8 1.64781589483286e-8 3.818407601397712e-8 3.32904743538965e-9 3.225941801859474e-9 5.383882212355041e-9
          2.797747301700409e-8 6.255462955503368e-8 3.122836168329299e-9 5.481284789136738e-8 4.6541454023366395e-8 7.07721445898353e-8
          1.1582275671926318e-7 9.126415302542015e-8 7.483435624279898e-8 9.568214549581721e-8 3.827006015536541e-8 5.8404559460177794e-8
          7.554153427237125e-8 0.000001315472032950324 0.0000011223540845016078 0.000001021642766140785 0.0000011148610434794147 0.0000013471093271922443
          0.0000012717168985008607 0.0000010849298051084664 6.37538116838713e-7 8.406004836012043e-7 7.816816907037774e-7 0.0000013787466214341646
          0.0000014210797125001134 0.0000011482168440761476 0.0000010436628503636958 1.3162573533293684e-7 1.7892494797799582e-7 2.0166171365567305e-7
          2.553810079446037e-7 4.119605662422315e-8 4.601208771501326e-8 7.580211764865761e-8 2.7169769197840926e-7 3.318370679112115e-7
          5.082811880580336e-8 3.1767455928756756e-7 3.066767665837614e-7 2.645485011199993e-7 2.554594707508441e-7 2.7214279804121243e-7
          2.84669506803159e-7 2.5766046999400423e-7 2.6730731928030395e-7 2.818455278729862e-7 2.530969873228644e-7 2.266110367948574e-7
          2.626622470225567e-7 2.507724388680091e-7 2.963837364656685e-7 2.268241407918758e-7 2.5392407054597015e-7 2.0267002680358838e-7
          2.8102400030006445e-7 1.639787339153623e-8 1.0505922497647899e-8 6.68887939736531e-8 4.4331984501197936e-8 4.613971603759566e-9
          2.177517502874278e-8 3.164220862945914e-8 5.680525609688609e-8 7.195019217933491e-8 1.1214873092057516e-7 4.2774627105063116e-9
          7.048062593736924e-9 7.763206876274059e-9 1.122581757292107e-7 1.6749220574426422e-7 9.818662476967536e-9 2.1858724537252876e-7
          2.4765090752298856e-7 2.9686818562535174e-7 3.2499235407180776e-7 9.133439312052307e-8 1.0885987385777168e-7 1.4161989347357859e-7
          3.7514912587817477e-7 4.023338006206269e-7 1.2638535459502025e-7 2.106489926891171e-7 2.0088738487958737e-7 2.3499358479610437e-7
          2.254403112373939e-7 1.8236232069758166e-7 2.0349232941134197e-7 2.0454811706622338e-7 2.5933817690309164e-7 2.499932375952005e-7
          2.2462233812510229e-7 1.9673277892448705e-7 1.7163128942801737e-7 1.609493934507231e-7 2.5107556076502447e-7 2.4657208423452024e-7
          2.1736316367017627e-7 2.249519681805844e-7 1.7914922774980782e-7 2.4356512363550234e-7 2.1245281756907054e-7 1.4652979993154766e-7
          1.8815424310583225e-7 1.9882837559614435e-7 1.813405115026387e-7 5.421397738179878e-7 4.980437876589907e-7 4.691954268625908e-7
          6.341906115763568e-7 4.325883745045028e-7 5.798612957441732e-7 6.770740249359351e-7 7.021662442913518e-7 6.130332930791097e-7
          7.963338026341143e-7 8.093558133566711e-7 6.040042600352402e-7 5.523240794237412e-7 6.6081252678546e-7 5.662798917804481e-7
          6.713399511770574e-7 5.76630275343483e-7 7.903039130429738e-7 6.740153014537847e-7 0.0000010367861922554184 9.242733824935455e-7
          9.381214753963791e-7 9.345013217053811e-7 6.013847283547701e-7 7.206289882796159e-7 8.394567585373397e-7 9.447292609172165e-7
          8.398732482044616e-7 2.8543509871400796e-7 2.868439272850331e-7 3.465227842849865e-7 3.4147369302832484e-7 2.7942357032820036e-7
          3.468942345808301e-7 1.8100067691449468e-7 2.1229551214626106e-7 2.2450451762321313e-7 1.9454123966996837e-7 4.076104698559651e-7
          3.9610345877161663e-7 4.143648988334599e-7 2.435903473780275e-7 2.673979125603393e-7 3.4059917994559487e-7 1.4378694114281125e-7
          1.70821551346341e-7 4.1380044733085043e-7 1.9785616154987073e-7 1.6834829154446816e-7 1.5725659000135656e-7 2.526815282756456e-7
          2.2865788009619822e-7 1.4616488845824496e-7 2.0463423191675085e-7 4.6780316507571674e-7 4.4057537863551226e-7 3.982871072464156e-7
          5.02831140074306e-7 5.403958738294958e-7 5.061968809923989e-7 4.070707150040017e-7 4.997001605790068e-7 5.465148888028027e-7
          2.8481062125688667e-7 3.332698594087375e-7 2.0145510516514192e-7 2.3210656441736252e-7 3.817290975605882e-7 2.627580236695832e-7
          9.33578186991838e-9 4.548965241944028e-9 3.945120791860473e-9 7.93761214328584e-9 1.6526254099000877e-8 2.039409236753709e-8
          1.7602169653625958e-9 1.7719797927400137e-9 4.292089020622296e-9 4.218201227575878e-9 3.341276341776918e-9 6.5394424166533025e-9
          2.973542470162354e-8 1.7837426201174313e-9 6.5641592557553444e-9 2.521423595609531e-7 2.7362519628283248e-8 3.87841081824033e-8
          6.256487607771026e-9 4.845677215154282e-8 1.8909980607060764e-7 4.3591228123452607e-8 4.206800371420917e-9 2.190062149058715e-8
          1.4645518905233375e-8 7.390416319879598e-9 2.5574078724021816e-8 2.551888622649327e-9 6.478325093151371e-9 1.3123968215375228e-9
          2.2566304639737263e-8 1.0404761563653416e-8 9.634995965176301e-10 1.4891892057636298e-8 5.451797143776336e-8 4.245172199785887e-8
          3.038547255795439e-8 8.517392375297021e-8 1.3878911171862012e-7 2.4257300620321078e-8 1.9240429968427004e-7 1.2817016456603898e-8
          4.5219377799849884e-8 3.184595906152472e-8 1.847254032319954e-8 2.9890036351206774e-7 3.71304440313314e-7 5.135077211489097e-7
          4.299114736974598e-7 5.970611190772921e-8 4.102494366757491e-8 1.2975945939072602e-7 2.234377542742063e-8 8.598931363992889e-8
          1.5347906614578125e-7 1.0235376212625006e-8 1.0004509732973299e-8 3.485865990071618e-7 2.2096881865163356e-7 9.773643253321592e-9
          1.5707025781520404e-7 2.515791617915353e-7 2.293535220992045e-7 2.0712788240687367e-7 4.34647893921714e-7 4.1261786387370387e-7
          4.4078245966896516e-7 4.802536391756835e-7 4.6493366151553063e-7 3.503134299594237e-7 4.3690833698716413e-7 4.949950956864078e-7
          2.8023977770361286e-7 3.2299392668237875e-7 2.3584534901609797e-7 3.657480756611446e-7
        </DataArray>
        <DataArray type="Float64" Name="gradient_matprop_error" format="ascii" RangeMin="0" RangeMax="0">
          0 0 0 0 0 0
          0 0 0 0 0 0
          0 0 0 0 0 0
          0 0 0 0 0 0
          0 0 0 0 0 0
          0 0 0 0 0 0
          0 0 0 0 0 0
          0 0 0 0 0 0
          0 0 0 0 0 0
          0 0 0 0 0 0
          0 0 0 0 0 0
          0 0 0 0 0 0
          0 0 0 0 0 0
          0 0 0 0 0 0
          0 0 0 0 0 0
          0 0 0 0 0 0
          0 0 0 0 0 0
          0 0 0 0 0 0
          0 0 0 0 0 0
          0 0 0 0 0 0
          0 0 0 0 0 0
          0 0 0 0 0 0
          0 0 0 0 0 0
          0 0 0 0 0 0
          0 0 0 0 0 0
          0 0 0 0 0 0
          0 0 0 0 0 0
          0 0 0 0 0 0
          0 0 0 0 0 0
          0 0 0 0 0 0
          0 0 0 0 0 0
          0 0 0 0 0 0
          0 0 0 0 0 0
          0 0 0 0 0 0
          0 0 0 0 0 0
          0 0 0 0 0 0
          0 0 0 0 0 0
          0 0 0 0 0 0
          0 0 0 0 0 0
          0 0 0 0 0 0
          0 0 0 0 0 0
          0 0 0 0 0 0
          0 0 0 0 0 0
          0 0 0 0 0 0
          0 0 0 0 0 0
          0 0 0 0 0 0
          0 0 0 0 0 0
          0 0 0 0 0 0
          0 0 0 0 0 0
          0 0 0 0 0 0
          0 0 0 0 0 0
          0 0 0 0 0 0
          0 0 0 0 0 0
          0 0 0 0 0 0
          0 0 0 0
        </DataArray>
        <DataArray type="Float64" Name="initial_marker" format="ascii" RangeMin="0" RangeMax="1">
          0 0 0 0 0 0
          0 0 0 0 0 0
          0 0 0 0 0 0
          0 0 0 0 0 0
          0 0 0 0 0 0
          0 0 0 0 0 0
          0 0 1 0 0 0
          0 0.5 0.25 0 0.5 0
          0 0 0 0 0 0
          0 0 0 0 0 0
          0 0 0 0 0 0
          0 0 0 0 0 0
          0 0 0 0 0 0
          0 0 0 0 0 0
          0 0 0 0 0 0
          0 0 0 0 0 0
          0 0 0 0 0 0
          0 0 0 0 0 0
          0 0 0 0 0 0
          0 0 0 0 0 0
          0 0 0 0 0 0
          0 0 0 0 0 0
          0 0 0 0 0 0
          0 0 0 0 0 0
          0 0 0 0 0 0
          0 0 0 0 0 0
          0 0 0 0 0 0
          0 0 0 0 0 0
          0 0 0 0 0 0
          0 0 0 0 0 0
          0 0 0 0 0 0
          0 0 0 0 0 0
          0 0 0 0 0 0
          0 0 0 0 0 0
          0 0 0 0 0 0
          0 0 0 0 0 0
          0 0 0 0 0 0
          0 0 0 0 0 0
          0 0 0 0 0 0
          0 0 0 0 0 0
          0 0 0 0 0 0
          0 0 0 0 0 0
          0 0 0 0 0 0
          0 0 0 0 0 0
          0 0 0 0 0 0
          0 0 0 0 0 0
          0 0 0 0 0 0
          0 0 0 0 0 0
          0 0 0 0 0 0
          0 0 0 0 0 0
          0 0 0 0 0 0
          0 0 0 0 0 0
          0 0 0 0 0 0
          0 0 0 0 0 0
          0 0 0 0
        </DataArray>
        <DataArray type="Float64" Name="markers_norefine" format="ascii" RangeMin="0" RangeMax="0">
          0 0 0 0 0 0
          0 0 0 0 0 0
          0 0 0 0 0 0
          0 0 0 0 0 0
          0 0 0 0 0 0
          0 0 0 0 0 0
          0 0 0 0 0 0
          0 0 0 0 0 0
          0 0 0 0 0 0
          0 0 0 0 0 0
          0 0 0 0 0 0
          0 0 0 0 0 0
          0 0 0 0 0 0
          0 0 0 0 0 0
          0 0 0 0 0 0
          0 0 0 0 0 0
          0 0 0 0 0 0
          0 0 0 0 0 0
          0 0 0 0 0 0
          0 0 0 0 0 0
          0 0 0 0 0 0
          0 0 0 0 0 0
          0 0 0 0 0 0
          0 0 0 0 0 0
          0 0 0 0 0 0
          0 0 0 0 0 0
          0 0 0 0 0 0
          0 0 0 0 0 0
          0 0 0 0 0 0
          0 0 0 0 0 0
          0 0 0 0 0 0
          0 0 0 0 0 0
          0 0 0 0 0 0
          0 0 0 0 0 0
          0 0 0 0 0 0
          0 0 0 0 0 0
          0 0 0 0 0 0
          0 0 0 0 0 0
          0 0 0 0 0 0
          0 0 0 0 0 0
          0 0 0 0 0 0
          0 0 0 0 0 0
          0 0 0 0 0 0
          0 0 0 0 0 0
          0 0 0 0 0 0
          0 0 0 0 0 0
          0 0 0 0 0 0
          0 0 0 0 0 0
          0 0 0 0 0 0
          0 0 0 0 0 0
          0 0 0 0 0 0
          0 0 0 0 0 0
          0 0 0 0 0 0
          0 0 0 0 0 0
          0 0 0 0
        </DataArray>
        <DataArray type="Float64" Name="markers_mustrefine" format="ascii" RangeMin="0" RangeMax="1">
          0 0 0 0 0 0
          0 0 0 0 0 0
          0 0 0 0 0 0
          0 0 0 0 0 0
          0 0 0 0 0 0
          0 0 0 0 0 0
          0 0 1 0 0 0
          0 0.5 0.25 0 0.5 0
          0 0 0 0 0 0
          0 0 0 0 0 0
          0 0 0 0 0 0
          0 0 0 0 0 0
          0 0 0 0 0 0
          0 0 0 0 0 0
          0 0 0 0 0 0
          0 0 0 0 0 0
          0 0 0 0 0 0
          0 0 0 0 0 0
          0 0 0 0 0 0
          0 0 0 0 0 0
          0 0 0 0 0 0
          0 0 0 0 0 0
          0 0 0 0 0 0
          0 0 0 0 0 0
          0 0 0 0 0 0
          0 0 0 0 0 0
          0 0 0 0 0 0
          0 0 0 0 0 0
          0 0 0 0 0 0
          0 0 0 0 0 0
          0 0 0 0 0 0
          0 0 0 0 0 0
          0 0 0 0 0 0
          0 0 0 0 0 0
          0 0 0 0 0 0
          0 0 0 0 0 0
          0 0 0 0 0 0
          0 0 0 0 0 0
          0 0 0 0 0 0
          0 0 0 0 0 0
          0 0 0 0 0 0
          0 0 0 0 0 0
          0 0 0 0 0 0
          0 0 0 0 0 0
          0 0 0 0 0 0
          0 0 0 0 0 0
          0 0 0 0 0 0
          0 0 0 0 0 0
          0 0 0 0 0 0
          0 0 0 0 0 0
          0 0 0 0 0 0
          0 0 0 0 0 0
          0 0 0 0 0 0
          0 0 0 0 0 0
          0 0 0 0
        </DataArray>
        <DataArray type="Float64" Name="gradient_marker" format="ascii" RangeMin="0.875" RangeMax="1">
          1 1 1 1 1 1
          1 1 1 1 1 1
          1 1 1 1 1 1
          1 1 1 1 1 1
          1 1 1 1 1 1
          1 1 1 1 1 1
          1 1 1 1 1 1
          1 1 1 1 1 1
          1 1 1 1 1 1
          1 1 1 1 1 1
          1 1 1 1 1 1
          1 1 1 1 1 1
          1 1 1 1 1 1
          1 1 1 1 1 1
          1 1 1 1 1 1
          1 1 1 1 1 1
          1 1 1 1 1 1
          1 1 1 1 1 1
          1 1 1 1 1 1
          1 1 1 1 1 1
          1 1 1 1 1 1
          1 1 1 1 1 1
          1 1 1 1 1 1
          1 1 1 1 1 1
          1 1 1 1 1 1
          1 1 1 1 1 1
          1 1 1 1 1 1
          1 1 1 1 1 1
          1 1 1 1 1 1
          1 1 1 1 1 1
          1 1 1 1 1 1
          1 1 1 1 1 1
          1 1 1 1 1 1
          1 1 1 1 1 1
          1 1 1 1 1 1
          1 1 1 1 1 1
          1 1 1 1 1 1
          1 1 1 1 1 1
          1 1 1 1 1 1
          1 1 1 1 1 1
          1 1 1 1 1 1
          1 1 1 1 1 1
          1 1 1 1 1 1
          1 1 1 1 1 1
          1 1 1 1 1 1
          1 1 0.875 1 1 1
          1 1 1 1 1 1
          1 1 1 1 1 1
          1 1 1 1 1 1
          1 1 1 1 1 1
          1 1 1 1 1 1
          1 1 1 1 1 1
          1 1 1 1 1 1
          1 1 1 1 1 1
          1 1 1 1
        </DataArray>
        <DataArray type="Float64" Name="gradient_matprop_marker" format="ascii" RangeMin="0" RangeMax="0">
          0 0 0 0 0 0
          0 0 0 0 0 0
          0 0 0 0 0 0
          0 0 0 0 0 0
          0 0 0 0 0 0
          0 0 0 0 0 0
          0 0 0 0 0 0
          0 0 0 0 0 0
          0 0 0 0 0 0
          0 0 0 0 0 0
          0 0 0 0 0 0
          0 0 0 0 0 0
          0 0 0 0 0 0
          0 0 0 0 0 0
          0 0 0 0 0 0
          0 0 0 0 0 0
          0 0 0 0 0 0
          0 0 0 0 0 0
          0 0 0 0 0 0
          0 0 0 0 0 0
          0 0 0 0 0 0
          0 0 0 0 0 0
          0 0 0 0 0 0
          0 0 0 0 0 0
          0 0 0 0 0 0
          0 0 0 0 0 0
          0 0 0 0 0 0
          0 0 0 0 0 0
          0 0 0 0 0 0
          0 0 0 0 0 0
          0 0 0 0 0 0
          0 0 0 0 0 0
          0 0 0 0 0 0
          0 0 0 0 0 0
          0 0 0 0 0 0
          0 0 0 0 0 0
          0 0 0 0 0 0
          0 0 0 0 0 0
          0 0 0 0 0 0
          0 0 0 0 0 0
          0 0 0 0 0 0
          0 0 0 0 0 0
          0 0 0 0 0 0
          0 0 0 0 0 0
          0 0 0 0 0 0
          0 0 0 0 0 0
          0 0 0 0 0 0
          0 0 0 0 0 0
          0 0 0 0 0 0
          0 0 0 0 0 0
          0 0 0 0 0 0
          0 0 0 0 0 0
          0 0 0 0 0 0
          0 0 0 0 0 0
          0 0 0 0
        </DataArray>
        <DataArray type="Float64" Name="combo" format="ascii" RangeMin="0.875" RangeMax="1">
          1 1 1 1 1 1
          1 1 1 1 1 1
          1 1 1 1 1 1
          1 1 1 1 1 1
          1 1 1 1 1 1
          1 1 1 1 1 1
          1 1 1 1 1 1
          1 1 1 1 1 1
          1 1 1 1 1 1
          1 1 1 1 1 1
          1 1 1 1 1 1
          1 1 1 1 1 1
          1 1 1 1 1 1
          1 1 1 1 1 1
          1 1 1 1 1 1
          1 1 1 1 1 1
          1 1 1 1 1 1
          1 1 1 1 1 1
          1 1 1 1 1 1
          1 1 1 1 1 1
          1 1 1 1 1 1
          1 1 1 1 1 1
          1 1 1 1 1 1
          1 1 1 1 1 1
          1 1 1 1 1 1
          1 1 1 1 1 1
          1 1 1 1 1 1
          1 1 1 1 1 1
          1 1 1 1 1 1
          1 1 1 1 1 1
          1 1 1 1 1 1
          1 1 1 1 1 1
          1 1 1 1 1 1
          1 1 1 1 1 1
          1 1 1 1 1 1
          1 1 1 1 1 1
          1 1 1 1 1 1
          1 1 1 1 1 1
          1 1 1 1 1 1
          1 1 1 1 1 1
          1 1 1 1 1 1
          1 1 1 1 1 1
          1 1 1 1 1 1
          1 1 1 1 1 1
          1 1 1 1 1 1
          1 1 0.875 1 1 1
          1 1 1 1 1 1
          1 1 1 1 1 1
          1 1 1 1 1 1
          1 1 1 1 1 1
          1 1 1 1 1 1
          1 1 1 1 1 1
          1 1 1 1 1 1
          1 1 1 1 1 1
          1 1 1 1
        </DataArray>
        <DataArray type="Float64" Name="dHdT" format="ascii" RangeMin="25.79723454758133" RangeMax="38.562186373935106">
          25.81447378934373 25.812571588999297 25.812646465539977 25.93455713025992 25.97388605939765 25.840979560567646
          25.81316981877021 29.758967882361503 26.117025733608912 31.915058371091405 25.96163161217587 25.811361245139636
          25.81198321153316 25.88970693961844 25.86400223519811 25.919685293104905 27.339429093709718 27.36890742703997
          26.35456126908589 26.499531822854564 25.833117918037086 25.854169458139143 25.8931236046395 35.53569965082592
          27.875034392796824 28.12286434965906 25.88492861533716 26.97334973258497 26.70296666641743 27.307289073114088
          31.060220874992023 31.958847580211234 29.48144216654228 29.49612153321809 26.365265963795128 26.81592984523993
          27.220118950876305 26.541805151252447 38.562186373935106 33.77293205779792 32.25030680610905 27.40367278630837
          32.197469963429214 36.65289843837551 35.45712545913878 32.44211870368487 37.26849449803631 25.815626621180577
          25.81424784001797 25.814947062655605 25.79723454758133 25.80251858951657 25.80660639317972 25.803543848562406
          25.812869058855362 25.810694196842874 25.80985314954349 25.96018983997431 25.918188417175287 25.913555240046694
          27.488114038101624 27.404665907608408 26.609094616502365 26.70073125898364 25.87026639236464 25.938288950938016
          25.98340910026136 30.56604040204622 28.036030264263484 27.922822083714962 26.04318857486983 25.81420733470396
          25.81640747316564 25.816477427651623 25.821456309636254 25.81295157018488 25.812737700761954 25.812542954572937
          25.81874752059929 25.826505146106868 25.81252383133903 25.845143248211187 25.843548069854315 25.86226099397253
          26.012282452820706 25.960324337233743 25.935742582651994 25.97805869566138 25.841952891497442 25.911160828070255
          25.943834938502054 28.591277957529257 27.97382720197026 27.970182847783317 30.211844697668738 30.720957576194074
          29.56044618336379 29.27697294175882 26.862721074240387 27.50733211869488 27.5373490218138 32.85063719485889
          31.147065164757315 30.58376303573433 28.151943163149365 25.99471367505923 26.07462176948806 26.093039984520964
          26.196424480291174 25.86874556686364 25.879279611159454 25.922879112115456 26.191366293982696 26.318227191094284
          25.889813655455264 34.12512210857328 33.09580268286848 32.72132195202274 35.72144022268169 36.18551877313953
          34.94305088659681 34.504963193536994 30.887547216329995 32.12217641175252 31.891611233136327 38.24591543770577
          36.79029909032515 36.28860443505124 33.35680560717503 28.665039841592158 29.303891954187307 27.984898980906937
          29.94274406678246 25.81445085461452 25.813531408411414 25.798359072746464 25.8042118172865 25.81261196220831
          25.81006456182654 25.820686664314586 25.826974243350083 25.82992016229523 25.841350480042493 25.81320720845283
          25.812258257020076 25.812474428578465 25.839153660275876 25.855726716734896 25.811309305587326 26.155260536420585
          26.22972753273376 26.295506610627765 26.383738052019893 25.941455370771664 25.976283774399278 26.03487924626109
          26.435752684834945 26.53774857130602 26.01111217802689 28.763299812846363 28.79425393659528 29.34811608702443
          29.36329836599106 27.817988450196417 28.15246235059793 28.231860430101747 29.932932361202493 29.932342795386838
          28.48693625099944 26.05145577439585 26.023276350309995 26.041525689917627 26.423626657378524 26.39648948326307
          26.316524261163654 26.348464083574836 26.015961439092074 26.383010453728133 26.300155895446654 25.995096926224136
          26.236559039064243 26.273301509771148 26.217301337165175 27.502539269027753 27.24914768013884 27.256800228488995
          27.472136596228168 26.891072531665554 28.97742798112261 29.191915794427562 28.66301497985996 28.52163672132732
          29.450234940860913 28.827060427826616 27.539086617002514 27.523555650579944 27.548467702980073 30.1202762429299
          29.437506771459546 29.185075462908692 29.7380911372116 27.980575012458885 28.41753215649066 27.945739568694982
          29.776529823368513 29.025782685271473 27.01461130522828 27.549220798692534 31.135527490246368 30.105825801847967
          28.083830292156783 26.404694620208073 26.448686125206937 26.573949985353778 26.6164481633189 26.353528049662064
          26.522088472562338 26.127683827919366 26.20384090199488 26.251630487009948 26.151127453956853 26.74320535049948
          26.78421020143086 26.69064889546261 26.27999797607039 26.295442870923107 26.458878128604226 26.035610112288953
          26.09435020699782 26.622313386285338 26.153090301706683 26.089174465113253 26.064628792587328 26.45007981186395
          26.37825188299682 26.040083120061404 26.306423954129688 27.4672091544154 27.254918802137688 26.950042813588876
          28.793220653711426 28.39469930806314 27.50176379189419 29.463008157206705 28.971435985257212 27.864845757504057
          26.48611727336059 26.650838961212777 26.207363005674516 26.29432830105202 26.81556064906496 26.38129359642952
          25.811978455460547 25.812009053146795 25.812018198017782 25.811962025890978 25.81071054239721 25.8124768749051
          25.812024839343273 25.81204529150566 25.812516961125162 25.8123741425554 25.81202734288877 25.811945596321415
          25.813038368916438 25.81206574366805 25.812444997812268 25.87261363521107 25.813899660736013 25.818983997002107
          25.812736218039667 25.819741116903746 26.05355200082758 25.828767706244278 25.812775293232036 25.808972625597164
          25.81034456329745 25.811716500997733 25.811232628534153 25.81341662117145 25.81424541208456 25.81269234730746
          25.83525781922833 25.81507420299767 25.81265684060507 25.82121556940303 25.886690733531957 25.874370077017986
          25.86204942050401 25.92494247968706 25.99428817777332 25.84914165465216 26.063633875859583 25.810619390786528
          25.805807747186154 25.80886000936547 25.81191227154479 25.94489502819501 25.914697021433884 26.74087429923444
          26.025719966732062 25.815630971545698 25.81551775635625 25.970051287376606 25.815404541166796 25.834873780614643
          25.854747810975432 25.8145856832462 25.813767371656763 26.179024916145423 25.874621841336225 25.812949060067325
          26.089472080013493 26.4743788833735 26.405092126213237 26.335805369052977 27.442090462456157 27.246321328847152
          28.631682641773313 28.279398455766383 27.474694001931404 29.21374422122195 28.786866426251443 27.80564835308587
          26.51775467325518 26.677143157771724 26.332012581440097 26.83653164228827
        </DataArray>
        <DataArray type="Float64" Name="dk/dtemperature" format="ascii" RangeMin="0.005576681316095005" RangeMax="0.015804580349343195">
          0.015804580349343192 0.015804580349343192 0.015804580349343192 0.01563751715920113 0.01562141468304286 0.01579413889995931
          0.015804580349343192 0.01146697583420889 0.01557486846289786 0.010354646973338315 0.015700165855504405 0.015804580349343192
          0.015804580349343192 0.015741931653039918 0.015773256001191553 0.015702556066809144 0.014104755921788711 0.014185774899008517
          0.015229231328172473 0.015005429524155128 0.015804580349343192 0.015804580349343192 0.015794138899959315 0.008382089345429711
          0.01350330497418254 0.0131752153254335 0.015804580349343192 0.014610477707682916 0.01487642186250861 0.014191730591854046
          0.011170457213886955 0.01048761712760897 0.01217284104953591 0.01219309378561953 0.015237637869921238 0.014626768036221541
          0.014206155443908453 0.01497309792273148 0.005576681316095005 0.009187216377233551 0.010279288570656972 0.01394850818876699
          0.01023052157035813 0.00714493998839469 0.00804813905038419 0.01002662030996589 0.006726401408874611 0.015804580349343192
          0.015804580349343192 0.015804580349343192 0.015804580349343192 0.015804580349343192 0.015804580349343192 0.015804580349343192
          0.015804580349343195 0.015804580349343192 0.015804580349343192 0.015600531784275106 0.01571299751619303 0.0157523731024238
          0.013820691390212208 0.013958825534580133 0.014830880350099248 0.014726025554178011 0.015762814551807676 0.01572104875427216
          0.015679282956736647 0.010971069888772127 0.013203772060495451 0.013311331569208905 0.01563751715920113 0.015804580349343192
          0.015804580349343192 0.015804580349343192 0.015804580349343192 0.015804580349343192 0.015804580349343192 0.015804580349343192
          0.01580458034934319 0.015804580349343192 0.01580458034934319 0.015804580349343192 0.015804580349343192 0.015804580349343192
          0.015679282956736647 0.01574193165303992 0.015762814551807676 0.015721048754272163 0.015804580349343192 0.015783697450575434
          0.015762814551807676 0.012719936184080405 0.013337244794751874 0.013259999835381663 0.011562954900086603 0.01130569160870912
          0.012144406409823375 0.012224037875252749 0.01455500134231812 0.013905554073676099 0.013792771294734328 0.009891447033337834