<?xml version="1.0"?>
<VTKFile type="UnstructuredGrid" version="0.1" byte_order="LittleEndian" header_type="UInt32" compressor="vtkZLibDataCompressor">
  <UnstructuredGrid>
    <Piece NumberOfPoints="1654" NumberOfCells="957">
      <PointData>
        <DataArray type="Int32" Name="libmesh_node_id" format="ascii" RangeMin="1488" RangeMax="14755">
          1610 1611 1612 1613 1614 1615
          1616 1617 1618 1619 1645 1646
          1647 1648 1649 1675 1676 1677
          1678 1679 1722 1723 1724 1725
          1726 1727 1728 1729 1730 1731
          1732 1733 1734 1735 1736 1737
          1738 1739 1761 1762 1763 1764
          1765 1766 1767 1768 1769 1791
          1792 1793 1794 1795 1796 1797
          1798 1799 1840 1841 1842 1843
          1844 1845 1846 1847 1848 1849
          1850 1851 1852 1853 1854 1855
          1856 1857 1858 1859 1880 1881
          1882 1883 1884 1885 1886 1887
          1888 1889 1910 1911 1912 1913
          1914 1915 1916 1917 1918 1919
          1958 1959 1960 1961 1966 1967
          1968 1969 1970 1971 1972 1973
          1974 1975 1976 1977 1978 1979
          1999 2000 2001 2002 2003 2004
          2005 2006 2007 2008 2009 2029
          2030 2031 2032 2033 2034 2035
          2036 2037 2038 2039 2076 2077
          2078 2079 2080 2081 2088 2089
          2090 2091 2092 2093 2094 2095
          2096 2097 2098 2099 2118 2119
          2120 2124 2125 2126 2127 2128
          2129 2148 2149 2150 2154 2155
          2156 2157 2158 2159 2196 2197
          2198 2199 2200 2201 2210 2211
          2212 2213 2214 2215 2216 2217
          2218 2219 2238 2239 2240 2245
          2246 2247 2248 2249 2268 2269
          2270 2275 2276 2277 2278 2279
          2316 2317 2318 2319 2320 2321
          2330 2331 2332 2333 2334 2335
          2336 2337 2338 2339 2358 2359
          2360 2365 2366 2367 2368 2369
          2388 2389 2390 2395 2396 2397
          2398 2399 2400 2401 2402 2403
          2404 2405 2406 2407 2408 2409
          2410 2411 2412 2413 2414 2415
          2416 2417 2418 2419 2420 2421
          2422 2423 2424 2425 2426 2427
          2428 2429 2430 2431 2432 2441
          2475 2476 2479 2480 2482 2483
          2485 2486 2488 2489 2490 2491
          2492 2493 2494 2495 2496 2497
          2498 2499 2500 2501 2502 2503
          2504 2507 2508 2510 2512 2523
          2524 2525 2526 2527 2528 2529
          2530 2531 2532 2533 2534 2535
          2536 2537 2538 2539 2540 2541
          2542 2543 2544 2545 2546 2547
          2548 2549 2550 2551 2552 2553
          2554 2555 2556 2557 2558 2559
          2560 2561 2562 2563 2564 2565
          2566 2567 2568 2569 2570 2571
          2572 2573 2574 2575 2576 2577
          2578 2579 2580 2581 2582 2583
          2584 2585 2586 2587 2588 2589
          2590 2591 2592 2593 2594 2595
          2596 2597 2598 2599 2600 2601
          2602 2603 2604 2605 2606 2607
          2618 2636 2638 2640 2641 2642
          2645 2708 2709 2710 2711 2712
          2713 2714 2715 2716 2717 2718
          2719 2720 2721 2722 2723 2729
          2742 2743 2744 2745 2746 2747
          2748 2749 2750 2751 2752 2753
          2754 2755 2756 2757 2758 2759
          2760 2761 2762 2763 2764 2765
          2766 2767 2768 2769 2770 2771
          2772 2773 2774 2775 2776 2777
          2778 2779 2780 2781 2782 2783
          2784 2785 2786 2787 2788 2789
          2790 2791 2792 2793 2794 2795
          2796 2797 2798 2799 2803 2804
          2836 2837 2838 2839 2840 2841
          2842 2843 2844 2845 2846 2847
          2848 2849 2850 2851 2852 2853
          2854 2855 2856 2857 2858 2859
          2860 2861 2862 2863 2864 2865
          2866 2867 2868 2869 2870 2871
          2872 2873 2874 2875 2876 2877
          2878 2879 2880 2881 2882 2883
          2884 2885 2886 2887 2888 2889
          2890 2891 2892 2893 2894 2895
          2896 2897 2898 2899 2900 2901
          2902 2903 2904 2905 2906 2907
          2908 2909 2910 2911 2912 2913
          2914 2915 2916 2917 2918 2919
          2920 2921 2922 2923 2924 2925
          2926 2927 2928 2929 2930 2931
          2932 2933 2934 2935 2936 2937
          2938 2939 2940 2941 2942 2943
          2944 2945 2946 2947 2948 2949
          2950 2951 2952 2953 2954 2955
          2956 2957 2958 2959 2960 2961
          2962 2963 2964 2965 2966 2967
          2968 2969 2970 2971 2972 2973
          2974 2975 2976 2977 2978 2979
          2980 2981 2982 2983 2984 2985
          2986 2987 2988 2989 2990 2991
          2992 2993 2994 2995 2996 2997
          2998 2999 3000 3001 3002 3003
          3004 3005 3006 3007 3008 3009
          3010 3011 3012 3013 3014 3015
          3016 3017 3018 3019 3020 3021
          3022 3023 3024 3025 3026 3027
          3028 3029 3030 3031 3032 3033
          3034 3035 3036 3037 3038 3039
          3040 3041 3042 3043 3044 3045
          3046 3047 3048 3049 3050 3051
          3052 3053 3054 3055 3056 3057
          3058 3059 3060 3061 3062 3063
          3064 3065 3066 3067 3068 3069
          3070 3071 3072 3073 3074 3075
          3076 3077 3078 3079 3080 3081
          3082 3083 3084 3085 3086 3087
          3088 3089 3090 3091 3092 3093
          3094 3095 3096 3097 3098 3099
          3100 3101 3102 3103 3104 3105
          3106 3107 3108 3109 3110 3111
          3112 3113 3114 3115 3116 3117
          3118 3119 3120 3121 3122 3123
          3124 3173 3174 3175 3177 3179
          3180 3182 3193 3197 3486 3487
          3488 3489 3490 3491 3492 3493
          3494 3495 3496 3497 3498 3499
          3500 3501 3502 3503 3504 3505
          3506 3507 3508 3509 3510 3511
          3512 3513 3514 3515 3516 3517
          3518 3519 3520 3521 3522 3523
          3524 3525 3526 3527 3528 3529
          3530 3531 3532 3533 3534 3537
          3538 3564 3565 3566 3567 3568
          3569 3570 3571 3572 3573 3574
          3575 3576 3577 3578 3579 3580
          3581 3582 3583 3584 3585 3586
          3587 3588 3589 3590 3591 3592
          3593 3594 3595 3596 3597 3598
          3599 3600 3601 3612 3613 3614
          3615 3616 3617 3618 3619 3620
          3621 3622 3623 3624 3625 3626
          3627 3628 3629 3630 3631 3632
          3633 3634 3635 3636 3637 3638
          3639 3640 3641 3642 3643 3644
          3645 3646 3647 3648 3649 3650
          3651 3652 3653 3654 3655 3656
          3657 3658 3659 3660 3661 3662
          3663 3664 3665 3666 3667 3668
          3669 3670 3671 3672 3673 3674
          3675 3676 3773 3774 3775 3776
          3777 3778 3779 3780 3781 3782
          3783 3784 3785 3786 3787 3788
          3789 3790 3791 3792 3803 3804
          3805 3806 3807 3808 3809 3810
          3811 3812 3813 3814 3815 3816
          3817 3818 3819 3820 3821 3822
          3823 3824 3825 3826 3827 3828
          3829 3830 3831 3832 3833 3834
          3835 3836 3837 3838 3839 3840
          3841 3842 3843 3844 3845 3846
          3847 3848 3849 3850 3851 3852
          3853 3854 3855 3856 3857 3858
          3859 3860 3861 3862 3863 3864
          3865 3866 3867 3868 3869 3870
          3871 3872 3873 3874 3875 3876
          3877 3878 3879 3880 3881 3882
          3883 3884 3885 3886 3887 3888
          3889 3890 3891 3892 3893 3894
          3895 3896 3897 3898 3899 3900
          3901 3902 3903 3904 3905 3906
          3907 3908 3909 3910 3911 3912
          3913 3914 3915 3916 3917 3918
          3919 3920 3921 3922 3923 3924
          3925 3926 3927 3928 3929 3930
          3931 3932 3933 3934 3935 3936
          3937 3938 3939 3940 3941 3942
          3943 3944 3945 3946 3947 3948
          3949 3950 3951 3952 3953 3954
          3955 3956 3957 3958 3959 3960
          3961 3962 3963 3964 3965 3966
          3967 3968 3969 3970 3971 3972
          4090 4091 4094 4096 4097 4098
          4099 4106 4107 4108 4109 4110
          4112 4114 4115 4116 4121 4124
          4125 4126 4127 4128 4129 4130
          4131 4132 4133 4134 4135 4136
          4137 4138 4140 4141 4142 4143
          4144 4145 4146 4147 4148 4149
          4150 4151 4155 5518 5519 5520
          5521 5522 5523 5524 5525 5526
          5527 5971 5972 5973 5974 5975
          5976 5977 5978 5979 5980 5981
          5982 5983 5984 5985 5986 5987
          5988 5989 5990 5991 5992 5993
          5994 5995 5996 5997 5998 5999
          6000 6001 6002 6003 6004 6005
          6006 6007 6008 6009 6010 6011
          6012 6013 6014 6015 6016 6017
          6018 6019 6020 6021 6022 6023
          6024 6025 6026 6027 6028 6029
          6030 6031 6032 6033 6034 6035
          6036 6037 6038 6039 6040 6041
          6042 6043 6044 6045 6046 6047
          6048 6049 6050 6051 6052 6053
          6054 6055 6056 6057 6058 6059
          6060 6061 6062 6063 6064 6065
          6066 6067 6068 6069 6070 6071
          6072 6073 6074 6075 6076 6077
          6078 6079 6080 6081 6082 6083
          6084 6085 6086 6087 6088 6089
          6090 6091 6092 6093 6094 6095
          6096 6097 6098 6099 6100 6101
          6102 6103 6104 6105 6106 6107
          6108 6109 6110 6111 6112 6113
          6114 6115 6116 6117 6118 6119
          6120 6121 6122 6123 6124 6125
          6126 6127 6128 6129 6130 6131
          6132 6133 6134 6135 6136 6137
          6138 6139 6140 6141 6142 6143
          6144 6145 6146 6147 6148 6149
          6150 6151 6152 6153 6154 6155
          6156 6157 6158 6159 6160 6161
          6488 6489 6490 6491 6492 6493
          6494 6495 6496 6497 6498 6499
          6500 6501 6502 6503 6504 6505
          6506 6507 6508 6509 6510 6511
          6512 6513 6514 6515 6516 6517
          6518 6519 6520 6521 6522 6523
          6524 6525 6526 6527 6528 6529
          6530 6531 6532 6533 6534 6535
          6536 6537 6538 6539 6540 6541
          6542 6543 6544 6545 6546 6550
          6551 6552 6553 6554 6555 6556
          6557 6558 6559 6560 6561 6562
          6563 6564 6565 6566 6567 6568
          6569 6570 6571 6572 6573 6574
          6575 6576 14335 14336 14339 14340
          14342 14343 14696 14697 14698 14699
          14700 14701 14702 14703 14706 14707
          14709 14710 14711 14712 14713 14715
          14716 14717 14719 14720 14721 14722
          14723 14724 14725 14727 14728 14730
          14732 14733 14735 14736 14738 14740
          14741 14742 14743 14745 14746 14748
          14749 14750 14751 14752 14753 14754
          14755 1488 1490 1491 1489 1608
          1609 1492 1493 1494 1495 1496
          1497 1498 1499 1525 1524 1644
          1526 1527 1528 1529 1555 1554
          1674 1556 1557 1558 1559 1600
          1602 1603 1601 1720 1721 1604
          1605 1606 1607 1641 1640 1760
          1642 1643 1671 1670 1790 1672
          1673 1718 1719 1838 1839 1759
          1879 1789 1909 1836 1837 1956
          1957 1962 1963 1964 1965 1878
          1998 1908 2028 1954 1955 2074
          2075 2082 2083 2084 2086 2087
          2085 1997 2117 2121 2122 2123
          2027 2147 2151 2152 2153 2206
          2208 2209 2207 2195 2237 2203
          2241 2244 2243 2267 2271 2274
          2273 2328 2329 2364 2357 2387
          2361 2391 2394 2477 2481 2484
          2440 2505 2506 2509 2724 2725
          2726 2727 2728 2730 2731 2433
          2434 2800 2801 2802 2805 3535
          3536 3539 14337 14338 14341 14344
          2194 14688 14689 14692 2315 14694
          14704 14705 14708 14714 2478 14718
          14726 14729 14731 2314 14734 2487
          14737 14739 14744 14747
        </DataArray>
        <DataArray type="Float64" Name="bounds" format="ascii" RangeMin="0" RangeMax="0">
          0 0 0 0 0 0
          0 0 0 0 0 0
          0 0 0 0 0 0
          0 0 0 0 0 0
          0 0 0 0 0 0
          0 0 0 0 0 0
          0 0 0 0 0 0
          0 0 0 0 0 0
          0 0 0 0 0 0
          0 0 0 0 0 0
          0 0 0 0 0 0
          0 0 0 0 0 0
          0 0 0 0 0 0
          0 0 0 0 0 0
          0 0 0 0 0 0
          0 0 0 0 0 0
          0 0 0 0 0 0
          0 0 0 0 0 0
          0 0 0 0 0 0
          0 0 0 0 0 0
          0 0 0 0 0 0
          0 0 0 0 0 0
          0 0 0 0 0 0
          0 0 0 0 0 0
          0 0 0 0 0 0
          0 0 0 0 0 0
          0 0 0 0 0 0
          0 0 0 0 0 0
          0 0 0 0 0 0
          0 0 0 0 0 0
          0 0 0 0 0 0
          0 0 0 0 0 0
          0 0 0 0 0 0
          0 0 0 0 0 0
          0 0 0 0 0 0
          0 0 0 0 0 0
          0 0 0 0 0 0
          0 0 0 0 0 0
          0 0 0 0 0 0
          0 0 0 0 0 0
          0 0 0 0 0 0
          0 0 0 0 0 0
          0 0 0 0 0 0
          0 0 0 0 0 0
          0 0 0 0 0 0
          0 0 0 0 0 0
          0 0 0 0 0 0
          0 0 0 0 0 0
          0 0 0 0 0 0
          0 0 0 0 0 0
          0 0 0 0 0 0
          0 0 0 0 0 0
          0 0 0 0 0 0
          0 0 0 0 0 0
          0 0 0 0 0 0
          0 0 0 0 0 0
          0 0 0 0 0 0
          0 0 0 0 0 0
          0 0 0 0 0 0
          0 0 0 0 0 0
          0 0 0 0 0 0
          0 0 0 0 0 0
          0 0 0 0 0 0
          0 0 0 0 0 0
          0 0 0 0 0 0
          0 0 0 0 0 0
          0 0 0 0 0 0
          0 0 0 0 0 0
          0 0 0 0 0 0
          0 0 0 0 0 0
          0 0 0 0 0 0
          0 0 0 0 0 0
          0 0 0 0 0 0
          0 0 0 0 0 0
          0 0 0 0 0 0
          0 0 0 0 0 0
          0 0 0 0 0 0
          0 0 0 0 0 0
          0 0 0 0 0 0
          0 0 0 0 0 0
          0 0 0 0 0 0
          0 0 0 0 0 0
          0 0 0 0 0 0
          0 0 0 0 0 0
          0 0 0 0 0 0
          0 0 0 0 0 0
          0 0 0 0 0 0
          0 0 0 0 0 0
          0 0 0 0 0 0
          0 0 0 0 0 0
          0 0 0 0 0 0
          0 0 0 0 0 0
          0 0 0 0 0 0
          0 0 0 0 0 0
          0 0 0 0 0 0
          0 0 0 0 0 0
          0 0 0 0 0 0
          0 0 0 0 0 0
          0 0 0 0 0 0
          0 0 0 0 0 0
          0 0 0 0 0 0
          0 0 0 0 0 0
          0 0 0 0 0 0
          0 0 0 0 0 0
          0 0 0 0 0 0
          0 0 0 0 0 0
          0 0 0 0 0 0
          0 0 0 0 0 0
          0 0 0 0 0 0
          0 0 0 0 0 0
          0 0 0 0 0 0
          0 0 0 0 0 0
          0 0 0 0 0 0
          0 0 0 0 0 0
          0 0 0 0 0 0
          0 0 0 0 0 0
          0 0 0 0 0 0
          0 0 0 0 0 0
          0 0 0 0 0 0
          0 0 0 0 0 0
          0 0 0 0 0 0
          0 0 0 0 0 0
          0 0 0 0 0 0
          0 0 0 0 0 0
          0 0 0 0 0 0
          0 0 0 0 0 0
          0 0 0 0 0 0
          0 0 0 0 0 0
          0 0 0 0 0 0
          0 0 0 0 0 0
          0 0 0 0 0 0
          0 0 0 0 0 0
          0 0 0 0 0 0
          0 0 0 0 0 0
          0 0 0 0 0 0
          0 0 0 0 0 0
          0 0 0 0 0 0
          0 0 0 0 0 0
          0 0 0 0 0 0
          0 0 0 0 0 0
          0 0 0 0 0 0
          0 0 0 0 0 0
          0 0 0 0 0 0
          0 0 0 0 0 0
          0 0 0 0 0 0
          0 0 0 0 0 0
          0 0 0 0 0 0
          0 0 0 0 0 0
          0 0 0 0 0 0
          0 0 0 0 0 0
          0 0 0 0 0 0
          0 0 0 0 0 0
          0 0 0 0 0 0
          0 0 0 0 0 0
          0 0 0 0 0 0
          0 0 0 0 0 0
          0 0 0 0 0 0
          0 0 0 0 0 0
          0 0 0 0 0 0
          0 0 0 0 0 0
          0 0 0 0 0 0
          0 0 0 0 0 0
          0 0 0 0 0 0
          0 0 0 0 0 0
          0 0 0 0 0 0
          0 0 0 0 0 0
          0 0 0 0 0 0
          0 0 0 0 0 0
          0 0 0 0 0 0
          0 0 0 0 0 0
          0 0 0 0 0 0
          0 0 0 0 0 0
          0 0 0 0 0 0
          0 0 0 0 0 0
          0 0 0 0 0 0
          0 0 0 0 0 0
          0 0 0 0 0 0
          0 0 0 0 0 0
          0 0 0 0 0 0
          0 0 0 0 0 0
          0 0 0 0 0 0
          0 0 0 0 0 0
          0 0 0 0 0 0
          0 0 0 0 0 0
          0 0 0 0 0 0
          0 0 0 0 0 0
          0 0 0 0 0 0
          0 0 0 0 0 0
          0 0 0 0 0 0
          0 0 0 0 0 0
          0 0 0 0 0 0
          0 0 0 0 0 0
          0 0 0 0 0 0
          0 0 0 0 0 0
          0 0 0 0 0 0
          0 0 0 0 0 0
          0 0 0 0 0 0
          0 0 0 0 0 0
          0 0 0 0 0 0
          0 0 0 0 0 0
          0 0 0 0 0 0
          0 0 0 0 0 0
          0 0 0 0 0 0
          0 0 0 0 0 0
          0 0 0 0 0 0
          0 0 0 0 0 0
          0 0 0 0 0 0
          0 0 0 0 0 0
          0 0 0 0 0 0
          0 0 0 0 0 0
          0 0 0 0 0 0
          0 0 0 0 0 0
          0 0 0 0 0 0
          0 0 0 0 0 0
          0 0 0 0 0 0
          0 0 0 0 0 0
          0 0 0 0 0 0
          0 0 0 0 0 0
          0 0 0 0 0 0
          0 0 0 0 0 0
          0 0 0 0 0 0
          0 0 0 0 0 0
          0 0 0 0 0 0
          0 0 0 0 0 0
          0 0 0 0 0 0
          0 0 0 0 0 0
          0 0 0 0 0 0
          0 0 0 0 0 0
          0 0 0 0 0 0
          0 0 0 0 0 0
          0 0 0 0 0 0
          0 0 0 0 0 0
          0 0 0 0 0 0
          0 0 0 0 0 0
          0 0 0 0 0 0
          0 0 0 0 0 0
          0 0 0 0 0 0
          0 0 0 0 0 0
          0 0 0 0 0 0
          0 0 0 0 0 0
          0 0 0 0 0 0
          0 0 0 0 0 0
          0 0 0 0 0 0
          0 0 0 0 0 0
          0 0 0 0 0 0
          0 0 0 0 0 0
          0 0 0 0 0 0
          0 0 0 0 0 0
          0 0 0 0 0 0
          0 0 0 0 0 0
          0 0 0 0 0 0
          0 0 0 0 0 0
          0 0 0 0 0 0
          0 0 0 0 0 0
          0 0 0 0 0 0
          0 0 0 0 0 0
          0 0 0 0 0 0
          0 0 0 0 0 0
          0 0 0 0 0 0
          0 0 0 0 0 0
          0 0 0 0 0 0
          0 0 0 0 0 0
          0 0 0 0 0 0
          0 0 0 0 0 0
          0 0 0 0 0 0
          0 0 0 0 0 0
          0 0 0 0 0 0
          0 0 0 0 0 0
          0 0 0 0 0 0
          0 0 0 0 0 0
          0 0 0 0 0 0
          0 0 0 0 0 0
          0 0 0 0 0 0
          0 0 0 0 0 0
          0 0 0 0 0 0
          0 0 0 0
        </DataArray>
        <DataArray type="Float64" Name="gradient_error" format="ascii" RangeMin="3.013823386079891e-15" RangeMax="1.1057637109304316e-7">
          1.4683513272683008e-14 1.469444597364653e-14 1.4551523017132717e-14 1.4550315885953305e-14 1.4485847355074624e-14 1.448433053479739e-14
          1.4464461847273673e-14 1.4463787544671355e-14 1.446000659978781e-14 1.445961648956225e-14 1.463868540112117e-14 1.451885745265052e-14
          1.4473375319013657e-14 1.446030820713999e-14 1.4457766561933767e-14 1.4571992127632288e-14 1.4488606150527142e-14 1.446393692350715e-14
          1.4457503172210946e-14 1.4456306744530846e-14 1.2248027932604625e-12 1.1904093210070142e-12 2.666719553483536e-13 2.6935774048556396e-13
          5.494775587438927e-14 5.5438407734617e-14 2.0197878000281837e-14 2.005383100842572e-14 1.4954140498455276e-14 1.485136535078661e-14
          1.440383667261493e-14 1.4380349650567714e-14 1.4398188660748e-14 1.4397250227376777e-14 1.4423005801263766e-14 1.4425968726296336e-14
          1.443083259616843e-14 1.4434180148683654e-14 6.276220278859089e-13 1.5728592445310634e-13 3.742862759679804e-14 1.6938517888661197e-14
          1.4430214613846725e-14 1.4348690593833903e-14 1.4411486021259574e-14 1.444126700565422e-14 1.4448405030737228e-14 9.922820701825211e-14
          4.2528323283438356e-14 1.8928195598751367e-14 1.3967251760752784e-14 1.4111839024575499e-14 1.43405185591473e-14 1.4426660248513592e-14
          1.4453602359979533e-14 1.445928236027558e-14 2.2965384396166345e-11 2.2606920574979812e-11 3.717050439440351e-12 3.456468739524613e-12
          9.231241471855913e-13 9.671633981283807e-13 2.2266651789415898e-13 2.3177073014186035e-13 5.3858298868990203e-14 5.3300091362918514e-14
          1.5876867041648533e-14 1.5850878367547123e-14 1.313305261665718e-14 1.3334300790065343e-14 1.432727982341505e-14 1.434700197552072e-14
          1.4651157235345064e-14 1.461692503436929e-14 1.470780244562491e-14 1.4662841305548854e-14 1.5265876867735042e-11 1.887798089421315e-12
          6.193584820777015e-13 1.5552947581746537e-13 3.77822420370458e-14 1.5413390551024545e-14 1.4041147366554403e-14 1.445178595736637e-14
          1.4554837202132504e-14 1.4570558357086625e-14 8.283296981676802e-12 5.797091392337537e-13 2.275143150842325e-13 7.018400924536911e-14
          2.2822600217244793e-14 1.5001891408603383e-14 1.45467457696353e-14 1.4536847787106346e-14 1.452698157087149e-14 1.4523236548700443e-14
          4.572973257931973e-10 4.294360441841028e-10 1.2316239739434626e-10 1.2065092506146756e-10 4.678894231441377e-13 5.521589232870576e-13
          1.4039411258100026e-13 1.534012178395451e-13 4.086939547102444e-14 4.248842367629075e-14 2.017520986162433e-14 2.025779368242607e-14
          1.6446164790928006e-14 1.619100172012809e-14 1.5516412830015083e-14 1.5225304986330014e-14 1.5337479171935595e-14 1.5044806374080155e-14
          2.5760363800903293e-10 7.711567681217951e-11 6.366907560351268e-12 1.6422948724861392e-12 4.737462218874774e-13 1.2608527137341454e-13
          3.6718903711819546e-14 1.881029610527524e-14 1.529229070340483e-14 1.449657656895048e-14 1.435225976216671e-14 1.1363251344305771e-10
          3.609190089577012e-11 3.3175835231007385e-12 1.0354779421247288e-12 3.110640203449772e-13 8.576221964873909e-14 2.933035554208205e-14
          1.728021470732268e-14 1.464874275748148e-14 1.4058955995256017e-14 1.3952385948108707e-14 1.721581975664647e-9 3.318098286243617e-9
          8.030292141289561e-10 1.4742937422856036e-9 1.325909982328399e-10 3.790012843466228e-10 2.8865551494185563e-13 2.722059665276123e-13
          8.073413053156297e-14 7.541211740799624e-14 2.8848975352864683e-14 2.6895923115653474e-14 1.6358989710838464e-14 1.5505334864284454e-14
          1.3667003541050072e-14 1.3128412120316351e-14 1.322916131472436e-14 1.2747136889234447e-14 2.9830045628666823e-9 1.279064925025619e-9
          3.601119230888056e-10 2.2658966368904452e-13 6.012705518861212e-14 2.1434752757496638e-14 1.3241538957447624e-14 1.1769463551292186e-14
          1.15504124742968e-14 7.308315418247572e-10 3.683320033089755e-10 1.1148595220586309e-10 1.9742290926472002e-13 5.016400609279474e-14
          1.7926634636551e-14 1.1831397897164799e-14 1.094910640300174e-14 1.0835712484849066e-14 2.1168730247919806e-8 4.065895612097612e-8
          7.196620789187758e-9 1.3771045847469728e-8 7.532686724476769e-10 5.627987873570949e-10 9.545233210467134e-14 8.280183852391037e-14
          2.5542698383320998e-14 2.2857088949015825e-14 9.86619669791483e-15 9.524443111117765e-15 7.134659562264077e-15 7.233597910601284e-15
          6.903665187814179e-15 7.0142654127534665e-15 3.121926587639118e-9 1.3611908824824403e-9 3.6578102228486486e-10 6.050535602757854e-14
          1.7014744011748716e-14 7.969264875398042e-15 6.578004680702221e-15 6.433785242875139e-15 1.206130504528043e-9 6.197966097961803e-10
          1.7992856246705373e-10 5.085936711200766e-14 1.3858008508786791e-14 6.755840226475383e-15 5.823473102465949e-15 5.742704848057525e-15
          5.110713754412044e-8 3.767357526702022e-8 2.262820729182224e-8 1.6339258440321817e-8 6.728440961663872e-10 2.4718187103605603e-9
          9.418890205010036e-14 8.258737275717911e-14 2.157504945872409e-14 1.9828969878775226e-14 5.526713515574061e-15 6.002194927794028e-15
          3.0447541116795406e-15 3.812923787000763e-15 3.013823386079891e-15 3.7105274051065235e-15 1.676695351126036e-9 8.125815081978418e-10
          1.324955411943474e-10 5.726485093989419e-14 1.478425115320557e-14 5.467725491398591e-15 3.923365294500191e-15 3.773147358268102e-15
          1.2913267854176027e-9 6.864247862224291e-10 1.954483101150244e-10 4.354385841553053e-14 1.1485612007584773e-14 4.4577746427831855e-15
          3.265637126678396e-15 3.1390632924030486e-15 1.3661352180423172e-8 3.4423515837277436e-8 4.5877638870034265e-8 1.0607332191656742e-7
          4.875282262777248e-8 7.397543416843103e-8 9.437319061791204e-8 1.6594169313609023e-8 4.457034555334331e-8 4.0720250034263333e-8
          3.854104707661273e-8 4.007150619443346e-8 5.435244654194668e-8 1.8783530622701235e-8 1.1981917783003481e-8 3.900689554744922e-8
          1.1057637109304316e-7 2.2448343992857213e-8 2.7635360869578742e-8 2.7372705132684743e-9 2.0749141640159165e-9 3.194478415545061e-8
          2.159340270924498e-8 5.803856460188152e-10 1.5025263810401633e-8 7.822013147591345e-9 1.1041031488776304e-9 2.8261736287399916e-9
          9.975673388983117e-10 3.414341692346425e-9 2.477689106284642e-8 2.051931512762201e-8 6.740928326120194e-9 2.0766368382467637e-10
          2.8984198455189703e-8 5.653258316494369e-8 8.98730900523903e-8 9.455017336815048e-8 6.30545321994965e-8 6.676459978123583e-8
          7.107180296851154e-8 9.125759362522563e-8 4.676028520460878e-8 7.933382436761261e-10 1.441387015047033e-9 5.309757895959107e-10
          3.321745561694216e-9 3.978089478133274e-10 2.335981533236424e-10 2.621150922201927e-10 2.876538911597739e-10 7.227355471641801e-10
          7.744104728660597e-11 2.790482309106463e-10 5.362271704807259e-9 5.6471277869950025e-11 3.131926900993551e-10 1.0532274925382013e-10
          6.21400172010052e-11 2.379305344947075e-11 2.0671755826183437e-11 1.3159957244598078e-11 1.755045820289612e-11 7.953355199106897e-8
          8.492756130152668e-8 9.647310203155565e-8 9.361150097140362e-8 5.032524884073515e-8 7.69048335652839e-8 1.0914537760805179e-7
          5.539556346114152e-8 2.342717093854322e-8 3.663913397418043e-8 8.241985904297366e-8 9.19685123630767e-8 1.0139913722298138e-7
          5.3721537278392265e-8 9.80805342195867e-9 4.8349141532690345e-8 9.127033857729007e-8 2.1271091626179726e-8 8.736265659253235e-8
          4.7696160348609397e-8 3.927699159389345e-8 2.86268868205893e-8 2.6843840642500835e-8 3.626284783507267e-8 3.5790740665407215e-8
          3.170367913234375e-8 4.0631373480986135e-8 2.8970427127087623e-8 2.853572893579845e-8 1.5626345321716475e-8 2.610858520882102e-8
          3.341978535254098e-8 2.0452339766986066e-8 3.9220177527298494e-8 3.1587251093888686e-8 4.534839064367257e-8 3.730858732658724e-8
          2.5329090091327873e-8 5.613602075194753e-8 4.257053557421752e-8 2.7173695861542156e-8 2.7195174023719423e-8 2.4426029059812185e-8
          3.579506826119446e-8 4.466863882908212e-8 4.47796100292728e-8 2.406141050645032e-8 2.3457165647356976e-8 1.8186695905323887e-8
          2.6464447729997205e-8 3.6683176226020725e-8 1.1353868230864588e-8 2.3479258719466537e-8 2.5454166026626515e-8 1.5247119943144392e-8
          2.0134593254937985e-8 1.3403469130567252e-8 4.5751672527873374e-10 3.877466546549678e-8 4.210211427059605e-8 2.375549139547327e-8
          1.9571642965928934e-8 2.723268361646193e-8 2.1537402986803586e-8 2.5807325359525724e-8 1.4979501090704552e-8 1.6725359338638456e-8
          5.520938384022425e-9 7.559815195549626e-9 1.2842144637094906e-8 5.1613067630438144e-9 1.291480198546183e-8 1.6030354720282784e-8
          9.651863312531757e-9 9.533442833157838e-9 1.0469790819058648e-8 1.1832947218039048e-8 4.807513714098621e-9 5.808767230618042e-9
          1.9744108522114883e-9 3.229332959611136e-9 1.8243862478980857e-9 6.527609378182436e-9 3.88636863325732e-9 4.326791585085914e-9
          8.002428521305033e-10 8.543114738361819e-10 3.436479400145217e-10 5.418916493311928e-10 7.609405372615568e-10 1.5776159788134584e-10
          9.25245591561177e-10 3.165653148014395e-10 3.4341889302582405e-10 7.913751489900495e-10 3.3478230011652897e-9 1.2876252122718619e-9
          1.038432484779058e-9 2.4917709715831546e-9 7.369899059384781e-11 3.3994699229824113e-10 2.8017654110999496e-10 3.7027247125020863e-10
          7.892397572862545e-10 1.6357189420010194e-9 2.2040608992174881e-10 1.2659013456858523e-11 1.673294005922905e-11 2.0806866661599573e-11
          3.1333690683158356e-9 6.179112221520284e-9 8.192860881178934e-9 1.3281253404750931e-8 7.344514460798657e-10 1.2043036837359676e-9
          1.5509685460331127e-9 1.3252352694042033e-8 2.0383394587981577e-8 1.6741559213920694e-9 4.594266816772511e-8 4.697898956240419e-8
          5.5290503739378275e-8 5.536723742891648e-8 4.3769224955019594e-8 4.307741639992292e-8 2.6024816267371354e-8 2.9899591453527203e-8
          3.2720635284230156e-8 2.6522344236235108e-8 6.463833931103144e-8 6.375548529542879e-8 4.271375134102954e-8 3.377436663968305e-8
          4.0181116528466805e-8 2.9338568476273736e-8 1.8646691095514634e-8 2.277160235434123e-8 1.863135219322269e-8 2.6896513613167825e-8
          5.482465070047403e-9 5.591730688339404e-9 9.031906962004183e-9 3.7119641669433424e-8 3.0261972890839454e-8 2.534268870174668e-8
          3.141085104561124e-8 3.0392848276607925e-9 2.2766785917826514e-8 1.8807556967993837e-8 5.270256271433237e-9 1.4506679415289487e-8
          2.0545141374136943e-8 1.0243230708822222e-8 1.7148030865643076e-9 1.6047538922023874e-9 1.5477246433728448e-8 1.2624816906322335e-8
          8.448363211670624e-10 9.304889934576936e-9 7.491933406734546e-9 1.241360452606124e-9 6.584976505783075e-9 3.770795973128119e-9
          4.784849281073162e-10 4.554595420396355e-10 3.5891917714147683e-9 3.1747627431618765e-9 3.5615191660789095e-10 1.8589049806416545e-9
          2.1396656544255573e-8 2.1274700187360506e-8 1.9492931653021876e-8 1.4296117974455656e-8 1.5541880662401714e-8 1.7703882839907137e-8
          1.62264981088122e-8 2.34316846276326e-8 1.709121986566781e-8 1.9403429218566975e-8 2.103012206474434e-8 2.047058962077024e-8
          1.879481764148131e-8 2.241432097421644e-8 1.0730757923113009e-8 1.4420542414257191e-8 1.3419444727274569e-8 1.572787796669319e-8
          1.9738018410177545e-8 1.9737473599536136e-8 1.863329529194689e-8 2.0323924260668744e-8 1.9435623569303316e-8 2.0740716858544316e-8
          2.1979692774009737e-8 1.869006866577014e-8 1.9572554297209557e-8 1.8800550700500198e-8 1.852531566661037e-8 2.091037492180135e-8
          2.0237951846659746e-8 2.2340531444617888e-8 2.0455039928648975e-8 2.5826812990772463e-8 2.578193847164034e-8 1.9175389439803957e-8
          2.157204383243694e-8 2.8421205071884248e-8 2.1860840985459503e-8 2.4296615843862386e-8 2.4648242822633886e-8 2.4619366122692942e-8
          2.7194725783537562e-8 1.351190368840851e-8 1.756760929606385e-8 2.000145220048076e-8 2.345204723067034e-8 3.192040824709081e-8