<?xml version="1.0"?>
<VTKFile type="UnstructuredGrid" version="0.1" byte_order="LittleEndian" header_type="UInt32" compressor="vtkZLibDataCompressor">
  <UnstructuredGrid>
    <Piece NumberOfPoints="1386" NumberOfCells="952">
      <PointData>
        <DataArray type="Int32" Name="libmesh_node_id" format="ascii" RangeMin="2439" RangeMax="14064">
          2445 2629 2631 2654 3230 3237
          3238 3241 3243 3245 3246 3247
          3248 3249 3250 3252 3253 3254
          3276 3280 3282 3283 3284 3285
          3286 3287 3288 3319 3320 3322
          3323 3324 3326 3327 3328 3364
          3387 3389 3391 3393 3453 3459
          3716 4384 4385 4389 4406 4422
          4423 4428 4430 4431 4432 4433
          4434 4435 4436 4437 4438 4439
          4440 4441 4442 4443 4444 4445
          4446 4447 4448 4449 4547 4551
          4581 4585 4596 4598 4622 4624
          4626 4642 4643 4644 4645 4646
          4647 4648 4649 4650 4651 4652
          4653 4654 4655 4656 4657 4658
          4659 4662 4663 4664 4666 4667
          4668 4669 4670 4671 4672 4673
          4674 4675 4676 4677 4678 4679
          4680 4681 4682 4683 4684 4685
          4686 4687 4688 4689 4690 4691
          4693 4694 4695 4697 4698 4699
          4700 4701 4702 4703 4825 4826
          4829 4831 4833 4834 4835 4836
          4837 4838 4839 4840 4841 4842
          4844 4846 4848 4850 4851 4852
          4853 4854 4855 4856 4929 4930
          4933 4934 4936 4938 5092 5094
          5095 5096 5098 5106 5107 5109
          5110 5111 5112 5113 5114 5115
          5126 5128 5129 5130 5132 5140
          5141 5142 5143 5144 5145 5146
          5440 5441 5442 5443 5444 5445
          5446 5447 5448 5449 5460 5461
          5462 5463 5464 5465 5466 5539
          5545 5677 5678 5679 5680 5683
          5684 5685 5686 5687 5688 5689
          5690 5730 5733 5735 5737 5739
          5740 5741 5742 5743 5744 5745
          5746 5747 5748 5766 5767 5770
          5771 5831 5832 5833 5834 5835
          5836 5837 5838 5839 5840 7797
          7798 7799 7802 7885 7886 7889
          7891 7923 7924 7925 7926 7927
          7928 7929 7930 7931 7932 7933
          7934 7935 7936 7937 7938 7939
          7940 7941 7942 7943 7944 7945
          7946 7947 7948 7949 7950 7951
          7952 7953 7954 7955 7956 7957
          7958 7959 7960 7961 7962 7963
          7964 7965 7966 7967 7968 7969
          7970 7971 7972 7973 7974 7977
          7978 7979 7980 7982 7983 7984
          7985 7986 7987 7988 7989 7990
          7991 7992 7993 7994 7995 7996
          7997 7998 7999 8000 8001 8002
          8708 8736 8956 8984 9073 9075
          9077 9101 9103 9105 9298 9300
          9302 9312 9314 9316 9326 9328
          9330 9340 9342 9344 9458 9459
          9460 9461 9462 9463 9464 9465
          9466 9467 9468 9469 9470 9471
          9472 9473 9474 9475 9476 9477
          9478 9479 9480 9481 9482 9483
          9484 9485 9486 9487 9488 9489
          9490 9491 9492 9493 9494 9495
          9496 9497 9498 9499 9500 9501
          9502 9503 9504 9505 9506 9507
          9508 9509 9510 9511 9512 9513
          9514 9515 9516 9517 9518 9519
          9520 9521 9523 9524 9525 9527
          9528 9529 9530 9531 9532 9533
          9534 9535 9536 9537 9538 9539
          9540 9541 9542 9543 9544 9545
          9546 9547 9548 9549 9551 9552
          9553 9555 9556 9557 9558 9559
          9560 9561 9562 9563 9564 9565
          9566 9567 9568 9569 9570 9571
          9572 9573 9574 9575 9576 9577
          9578 9579 9580 9581 9582 9583
          9584 9585 9586 9587 9588 9589
          9602 9603 9606 9608 9610 9611
          9612 9613 9614 9615 9616 9617
          9618 9619 9620 9621 9622 9623
          9632 9634 9636 9638 9639 9640
          9641 9642 9643 9644 9645 9646
          9647 9648 9649 9650 9651 9652
          9653 9654 9655 9656 9657 9658
          9659 9660 9661 9662 9663 9664
          9665 9666 9667 9668 9669 9670
          9671 9672 9673 9674 9675 9676
          9677 9678 9679 9680 9681 9682
          9683 9684 9685 9686 9687 9688
          9689 9690 9691 9692 9693 9694
          9695 9696 9697 9698 9699 9700
          9701 9702 9703 9704 9705 9706
          9707 9708 9709 9710 9711 9712
          9713 9714 9715 9716 9717 9718
          9719 9720 9721 9722 9723 9724
          9725 9726 9727 9728 9729 9730
          9731 9732 9733 9734 9735 9736
          9737 9738 9739 9740 9741 9742
          9743 9744 9745 9746 9747 9748
          9749 9750 9751 9752 9753 9754
          9755 9756 9757 9758 9759 9760
          9761 9762 9763 9764 9765 9766
          9767 9768 9769 9771 9772 9773
          9775 9776 9777 9778 9779 9780
          9781 9782 9783 9784 9785 9786
          9787 9788 9789 9790 9791 9792
          9793 9794 9795 9796 9797 9799
          9800 9801 9803 9804 9805 9806
          9807 9808 9809 9810 9811 9812
          9813 9814 9815 9816 9817 9818
          9819 9820 9821 9822 9823 9824
          9825 9826 9827 9828 9829 9830
          9831 9840 9842 9844 9846 9847
          9848 9849 9850 9851 9852 9853
          9854 9855 9856 9857 9858 9859
          9868 9870 9872 9874 9875 9876
          9877 9878 9879 9880 9881 9882
          9883 9884 9885 9886 9887 9888
          9889 9890 9891 9892 9893 9894
          9895 9896 9897 9898 9899 9900
          9901 9902 9903 9904 9905 9906
          9907 9908 9909 9910 9911 9912
          9913 9914 9915 9916 9917 9918
          9919 9920 9921 9922 9923 9924
          9925 9926 9927 9928 9929 10448
          10449 10452 10454 10466 10467 10468
          10469 10470 10471 10472 10473 10474
          10475 10476 10477 10478 10479 10480
          10481 10482 10483 10484 10485 10494
          10496 10498 10509 10510 10513 10515
          10525 10527 10529 10539 10541 10543
          10545 10546 10547 10548 10549 10550
          10551 10552 10553 10554 10555 10556
          10557 10558 10559 10560 10561 10562
          10563 10564 10565 10566 10567 10568
          10569 10570 10571 10572 10573 10574
          10575 10576 10577 10578 10579 10580
          10581 10582 10583 10584 10585 10586
          10587 10588 10589 10590 10591 10592
          10593 10594 10595 10596 10597 10598
          10599 10600 10601 10602 10603 10604
          10605 10606 10850 11900 11901 11904
          11912 11913 11914 11915 11916 11917
          11918 11919 11920 11921 11922 11923
          11924 11925 11926 11927 11928 11929
          11930 11931 11934 11935 11938 11946
          11947 11948 11949 11950 11951 11952
          11953 11954 11955 11956 11957 11958
          11959 11977 11978 11981 11982 12025
          12026 12027 12028 12029 12030 12031
          12032 12033 12034 12035 12036 12037
          12038 12039 12040 12041 12042 12043
          12044 12045 12046 12047 12048 12049
          12050 12051 12052 12053 12054 12055
          12056 12057 12058 12059 12060 12061
          12062 12063 12064 12065 12066 12067
          12068 12069 12070 12071 12072 12073
          12074 12075 12076 12077 12078 12079
          12080 12081 12082 12083 12084 12085
          12086 12087 12090 12091 12095 12108
          12112 12120 12121 12124 12125 12127
          12129 12142 12143 12146 12154 12155
          12156 12157 12158 12159 12160 12161
          12162 12163 12164 12165 12166 12167
          12170 12171 12174 12182 12183 12184
          12185 12186 12187 12188 12189 12190
          12191 12192 12193 12194 12195 12252
          12253 12254 12255 12256 12257 12258
          12259 12260 12261 12262 12263 12264
          12265 12266 12267 12268 12269 12270
          12271 12272 12273 12274 12275 12276
          12277 12278 12279 12280 12281 12282
          12283 12284 12285 12286 12287 12288
          12289 12290 12291 12292 12293 12294
          12295 12296 12297 12298 12299 12300
          12301 12302 12303 12304 12305 12306
          12307 12310 12314 12322 12324 12326
          12328 12338 12342 12350 12352 12354
          12356 13956 13957 13958 13959 13960
          13961 13962 13963 13964 13965 13966
          13967 13968 13969 13970 13971 13972
          13973 13974 13975 13976 13977 13978
          13979 13980 13981 13982 13983 13985
          13986 13987 13988 13989 13990 13991
          13992 13993 13994 13995 13996 13997
          13998 13999 14000 14001 14002 14003
          14004 14005 14006 14007 14008 14009
          14010 14011 14012 14013 14014 14015
          14016 14017 14018 14019 14020 14021
          14022 14023 14024 14025 14026 14027
          14028 14029 14030 14031 14032 14033
          14034 14035 14036 14037 14038 14039
          14040 14041 14043 14045 14047 14058
          14060 14062 14064 2809 2812 2815
          2814 2623 2626 2439 3228 3216
          3229 3251 3321 2649 3325 3336
          3357 3337 3358 3361 3362 3452
          3456 3457 3454 2685 3455 3458
          3460 2691 3461 3718 3767 3366
          4374 4402 4338 4375 4403 4376
          4931 4932 4935 5108 5116 5120
          5117 5121 5450 5451 5454 5455
          5457 5459 5467 5469 5471 5473
          5541 5546 5563 5569 5768 5769
          5772 4944 5774 4948 7757 7865
          7633 7758 7866 7759 7869 2625
          7762 7871 4379 4408 7767 7768
          7769 7772 3234 8219 8651 9059
          8652 9061 4480 8655 9063 4540
          4594 8658 8659 8662 4541 8247
          8679 9087 8680 9089 3260 8683
          9091 4544 8686 8687 8690 3269
          8707 8711 8735 8739 8467 8899
          8900 4514 8903 4574 8906 8907
          8910 4575 8495 8927 8928 2633
          8931 4578 8934 8935 8938 3274
          8955 8959 8983 8987 11979 11980
          11983 11984 11986 11985 5101 12011
          12013 12015 12017 12088 12089 12092
          12093 12094 12106 12107 12109 12110
          12111 5123 12122 12123 12126 12128
          5125 12210 12212 12214 12216 12238
          12240 12242 12244 12308 12309 12311
          12312 12313 5147 12323 12325 12327
          5149 12336 12337 12339 12340 12341
          5151 12351 12353 12355 5153 13984
          14042 14044 14046 14059 14061 14063
        </DataArray>
        <DataArray type="Float64" Name="bounds" format="ascii" RangeMin="0" RangeMax="0">
          0 0 0 0 0 0
          0 0 0 0 0 0
          0 0 0 0 0 0
          0 0 0 0 0 0
          0 0 0 0 0 0
          0 0 0 0 0 0
          0 0 0 0 0 0
          0 0 0 0 0 0
          0 0 0 0 0 0
          0 0 0 0 0 0
          0 0 0 0 0 0
          0 0 0 0 0 0
          0 0 0 0 0 0
          0 0 0 0 0 0
          0 0 0 0 0 0
          0 0 0 0 0 0
          0 0 0 0 0 0
          0 0 0 0 0 0
          0 0 0 0 0 0
          0 0 0 0 0 0
          0 0 0 0 0 0
          0 0 0 0 0 0
          0 0 0 0 0 0
          0 0 0 0 0 0
          0 0 0 0 0 0
          0 0 0 0 0 0
          0 0 0 0 0 0
          0 0 0 0 0 0
          0 0 0 0 0 0
          0 0 0 0 0 0
          0 0 0 0 0 0
          0 0 0 0 0 0
          0 0 0 0 0 0
          0 0 0 0 0 0
          0 0 0 0 0 0
          0 0 0 0 0 0
          0 0 0 0 0 0
          0 0 0 0 0 0
          0 0 0 0 0 0
          0 0 0 0 0 0
          0 0 0 0 0 0
          0 0 0 0 0 0
          0 0 0 0 0 0
          0 0 0 0 0 0
          0 0 0 0 0 0
          0 0 0 0 0 0
          0 0 0 0 0 0
          0 0 0 0 0 0
          0 0 0 0 0 0
          0 0 0 0 0 0
          0 0 0 0 0 0
          0 0 0 0 0 0
          0 0 0 0 0 0
          0 0 0 0 0 0
          0 0 0 0 0 0
          0 0 0 0 0 0
          0 0 0 0 0 0
          0 0 0 0 0 0
          0 0 0 0 0 0
          0 0 0 0 0 0
          0 0 0 0 0 0
          0 0 0 0 0 0
          0 0 0 0 0 0
          0 0 0 0 0 0
          0 0 0 0 0 0
          0 0 0 0 0 0
          0 0 0 0 0 0
          0 0 0 0 0 0
          0 0 0 0 0 0
          0 0 0 0 0 0
          0 0 0 0 0 0
          0 0 0 0 0 0
          0 0 0 0 0 0
          0 0 0 0 0 0
          0 0 0 0 0 0
          0 0 0 0 0 0
          0 0 0 0 0 0
          0 0 0 0 0 0
          0 0 0 0 0 0
          0 0 0 0 0 0
          0 0 0 0 0 0
          0 0 0 0 0 0
          0 0 0 0 0 0
          0 0 0 0 0 0
          0 0 0 0 0 0
          0 0 0 0 0 0
          0 0 0 0 0 0
          0 0 0 0 0 0
          0 0 0 0 0 0
          0 0 0 0 0 0
          0 0 0 0 0 0
          0 0 0 0 0 0
          0 0 0 0 0 0
          0 0 0 0 0 0
          0 0 0 0 0 0
          0 0 0 0 0 0
          0 0 0 0 0 0
          0 0 0 0 0 0
          0 0 0 0 0 0
          0 0 0 0 0 0
          0 0 0 0 0 0
          0 0 0 0 0 0
          0 0 0 0 0 0
          0 0 0 0 0 0
          0 0 0 0 0 0
          0 0 0 0 0 0
          0 0 0 0 0 0
          0 0 0 0 0 0
          0 0 0 0 0 0
          0 0 0 0 0 0
          0 0 0 0 0 0
          0 0 0 0 0 0
          0 0 0 0 0 0
          0 0 0 0 0 0
          0 0 0 0 0 0
          0 0 0 0 0 0
          0 0 0 0 0 0
          0 0 0 0 0 0
          0 0 0 0 0 0
          0 0 0 0 0 0
          0 0 0 0 0 0
          0 0 0 0 0 0
          0 0 0 0 0 0
          0 0 0 0 0 0
          0 0 0 0 0 0
          0 0 0 0 0 0
          0 0 0 0 0 0
          0 0 0 0 0 0
          0 0 0 0 0 0
          0 0 0 0 0 0
          0 0 0 0 0 0
          0 0 0 0 0 0
          0 0 0 0 0 0
          0 0 0 0 0 0
          0 0 0 0 0 0
          0 0 0 0 0 0
          0 0 0 0 0 0
          0 0 0 0 0 0
          0 0 0 0 0 0
          0 0 0 0 0 0
          0 0 0 0 0 0
          0 0 0 0 0 0
          0 0 0 0 0 0
          0 0 0 0 0 0
          0 0 0 0 0 0
          0 0 0 0 0 0
          0 0 0 0 0 0
          0 0 0 0 0 0
          0 0 0 0 0 0
          0 0 0 0 0 0
          0 0 0 0 0 0
          0 0 0 0 0 0
          0 0 0 0 0 0
          0 0 0 0 0 0
          0 0 0 0 0 0
          0 0 0 0 0 0
          0 0 0 0 0 0
          0 0 0 0 0 0
          0 0 0 0 0 0
          0 0 0 0 0 0
          0 0 0 0 0 0
          0 0 0 0 0 0
          0 0 0 0 0 0
          0 0 0 0 0 0
          0 0 0 0 0 0
          0 0 0 0 0 0
          0 0 0 0 0 0
          0 0 0 0 0 0
          0 0 0 0 0 0
          0 0 0 0 0 0
          0 0 0 0 0 0
          0 0 0 0 0 0
          0 0 0 0 0 0
          0 0 0 0 0 0
          0 0 0 0 0 0
          0 0 0 0 0 0
          0 0 0 0 0 0
          0 0 0 0 0 0
          0 0 0 0 0 0
          0 0 0 0 0 0
          0 0 0 0 0 0
          0 0 0 0 0 0
          0 0 0 0 0 0
          0 0 0 0 0 0
          0 0 0 0 0 0
          0 0 0 0 0 0
          0 0 0 0 0 0
          0 0 0 0 0 0
          0 0 0 0 0 0
          0 0 0 0 0 0
          0 0 0 0 0 0
          0 0 0 0 0 0
          0 0 0 0 0 0
          0 0 0 0 0 0
          0 0 0 0 0 0
          0 0 0 0 0 0
          0 0 0 0 0 0
          0 0 0 0 0 0
          0 0 0 0 0 0
          0 0 0 0 0 0
          0 0 0 0 0 0
          0 0 0 0 0 0
          0 0 0 0 0 0
          0 0 0 0 0 0
          0 0 0 0 0 0
          0 0 0 0 0 0
          0 0 0 0 0 0
          0 0 0 0 0 0
          0 0 0 0 0 0
          0 0 0 0 0 0
          0 0 0 0 0 0
          0 0 0 0 0 0
          0 0 0 0 0 0
          0 0 0 0 0 0
          0 0 0 0 0 0
          0 0 0 0 0 0
          0 0 0 0 0 0
          0 0 0 0 0 0
          0 0 0 0 0 0
          0 0 0 0 0 0
          0 0 0 0 0 0
          0 0 0 0 0 0
          0 0 0 0 0 0
          0 0 0 0 0 0
          0 0 0 0 0 0
          0 0 0 0 0 0
          0 0 0 0 0 0
          0 0 0 0 0 0
          0 0 0 0 0 0
          0 0 0 0 0 0
          0 0 0 0 0 0
        </DataArray>
        <DataArray type="Float64" Name="gradient_error" format="ascii" RangeMin="5.399690566669372e-13" RangeMax="5.624688692702107e-10">
          7.988054943595192e-12 2.575963106988562e-10 1.5913967537623586e-11 4.548722622050229e-12 6.614960634635167e-11 2.558596378451907e-10
          1.6213380114011432e-10 8.067730981597528e-11 4.7645448241759904e-11 1.2333397993893678e-10 7.794595661653715e-11 5.5605946686974353e-11
          3.4580291662020987e-11 5.417397263054951e-11 5.185761836941065e-11 2.2868459924732882e-11 1.3095844286263831e-11 3.5308964314141323e-11
          9.457763960073374e-11 1.7821494760120086e-10 4.904629020633338e-11 2.289920777271161e-11 1.0326526788385667e-11 4.624902423248257e-12
          9.725743426090056e-11 4.739561948930553e-11 1.730728420832416e-11 3.392786963377692e-11 1.2796542072196218e-11 8.707945875213087e-12
          1.613345921283603e-11 1.1962720159400347e-11 8.139528634930936e-12 3.5289079082273154e-12 1.01548636849783e-11 7.428256343040941e-12
          9.629860933945971e-12 1.877483652985292e-12 2.0648969759978483e-11 3.3344799054812664e-12 5.567660027329398e-12 3.783752145781448e-12
          3.7557548120445114e-11 4.804388613658519e-11 2.9491121949767255e-11 2.2127949519259596e-11 6.543451884780156e-11 4.17611045764743e-11
          6.288870504588028e-11 5.0167035818980804e-11 7.371338058667565e-11 4.481331857323841e-11 5.031930501998698e-11 3.054072777373171e-11
          4.7820407804750226e-11 4.5880232301926706e-11 3.118870029668156e-11 3.012114254356525e-11 2.079152251958263e-11 3.351705112136192e-11
          3.316289872124262e-11 2.0203913066432612e-11 2.125849425591495e-11 1.6282173312720214e-11 2.1298245981532895e-11 2.0546457342365955e-11
          1.652157712231395e-11 1.4012707655599279e-11 1.2171529146723638e-11 1.5240431584529226e-11 5.2481038812374416e-11 1.1809783917499498e-10
          2.1909698580737505e-10 2.4653362963183195e-10 5.09385939700257e-11 1.7856724924482545e-10 2.9902655077995303e-10 1.517470499523237e-10
          3.443590272050215e-10 6.537913198034262e-11 4.600725309028225e-11 3.6389413046994574e-11 2.537599104180271e-11 1.32310375079116e-10
          9.524662437312056e-11 6.901425347332891e-11 3.155689116423458e-11 2.1082946512926172e-11 1.7272347415678747e-11 1.146577728310439e-11
          6.665417641215877e-11 4.536548322645843e-11 3.395285686910339e-11 3.510760524144331e-11 1.8724590200405294e-11 2.379055189618247e-11
          1.292229920857821e-11 1.1330450767244866e-11 3.31042616003401e-11 2.323200604392051e-11 1.5779283627625092e-11 8.717306083689805e-12
          1.0225856712797995e-11 5.7489733349801076e-12 1.277151229136808e-11 7.55817041222531e-12 4.926646074432078e-12 1.5910178652043457e-11
          1.063231512047361e-11 6.988336438133391e-12 2.2708708243306095e-10 1.6720953773158916e-10 1.1290553540072804e-10 8.168396788196404e-11
          2.6386614733163213e-10 1.9594921189482093e-10 1.3354813628014953e-10 1.1942305087498876e-10 8.277762390592185e-11 5.747780152647312e-11
          3.9342481525354505e-11 1.4106424581901173e-10 9.849238029746408e-11 6.88537583623962e-11 5.0827686028256945e-11 3.6188936291739e-11
          1.5018738147630748e-11 5.960556004827803e-11 4.2677021794292526e-11 2.5113731995004524e-11 1.6984759768610063e-11 1.0281636618169824e-11
          6.8747012595810385e-12 2.9769822406579794e-11 2.0230267527928577e-11 1.1901849681610338e-11 1.9384005537122842e-11 1.5560690958832905e-11
          1.343079999127106e-11 8.445347498748952e-12 1.2907184437962561e-11 1.0370321712326874e-11 8.344740647206723e-12 6.6754801199499135e-12
          8.984390568222489e-12 1.1007146084510532e-11 7.041712192738995e-12 5.642777939031873e-12 3.635791118517096e-12 7.191841163326433e-12
          5.994526465261108e-12 7.315759529113745e-12 6.730818102292005e-12 4.043736287844669e-12 2.6676289377827683e-12 4.84675116004312e-12
          3.155815167606895e-12 4.561639811169107e-12 3.02212427702094e-12 5.437349599019312e-12 1.3500434120625169e-11 1.374203334664763e-11
          8.694218483740616e-12 1.4030905106570182e-11 1.0921890693306053e-11 1.1698914100093343e-11 1.3721562713509977e-11 7.41582289838021e-12
          4.67897321484449e-12 3.003962332046611e-11 1.5046234058703195e-11 7.78561242045767e-12 4.8584082227847145e-12 4.278217654768177e-12
          6.954158879676068e-12 4.3846140499554435e-12 4.065352267267819e-12 6.925795642085129e-12 4.398710687336202e-12 2.9840713449358886e-12
          5.5710821097170486e-11 2.6197811092829343e-11 1.6971687145981172e-11 6.673245446656302e-11 3.1723706633315974e-11 1.1192382582884054e-11
          7.184711546661372e-12 4.48314014657708e-12 2.845267901795261e-12 1.3390009407360548e-11 8.629824292076505e-12 5.2312643121100346e-12
          5.2180989968343075e-12 4.187655566666807e-12 3.290859550145866e-12 2.6376354127661553e-12 3.6626305645402245e-12 4.455096338160541e-12
          2.815985838637948e-12 2.9291815677241597e-12 2.4802161663890804e-12 3.767222224378585e-12 2.3029116786843142e-12 2.5401731295435907e-12
          2.6168839610291775e-12 3.220767341290273e-12 1.9570357584665852e-12 2.1548934384717844e-12 2.1705763378510834e-12 8.866232161307015e-12
          9.767388489167573e-12 2.950261500609965e-11 4.418926960347202e-11 2.010733610226079e-11 2.998635257372542e-11 2.173561739613851e-11
          1.3174271193960614e-11 1.980458060948033e-11 8.525370269447449e-12 1.2816510536143532e-11 1.0335055421239355e-11 1.4381908351700229e-11
          9.391717521567354e-12 7.535451103504296e-12 8.521362343652687e-12 5.283895464829951e-12 9.180549547979644e-12 5.310263448463382e-12
          5.731819034537958e-12 3.4992588010561904e-12 3.756298426505328e-12 3.8110242111909266e-12 3.6797645611371746e-12 2.451808762355414e-12
          6.1533746206125346e-12 4.013338051954467e-12 3.5485049110834234e-12 5.548501853958566e-12 8.22193609390931e-12 4.366662587930622e-12
          5.9518889605872925e-12 2.2203187685037856e-12 2.369645435696261e-12 1.746072954435381e-12 1.8223371743640553e-12 1.7050310368620176e-12
          1.6498542298018621e-12 1.3674517084748983e-12 2.518972102888737e-12 1.8986013942927292e-12 1.5946774227417068e-12 1.3377009544150147e-11
          1.7253465135839518e-11 1.411086347770164e-11 2.6976836367039246e-11 1.8234057717775127e-11 2.2296499468220162e-11 1.9375301058950406e-11
          3.29638323065309e-11 2.3620483569152176e-11 2.990869036370038e-11 1.972449859743605e-11 2.5010798562473783e-11 1.9079634371288686e-11
          2.3972866512707087e-11 2.0018243437347993e-11 4.536952280859382e-11 3.8095645488399076e-11 3.5936283216568396e-11 1.6262998741280904e-11
          2.0736344669442666e-11 1.3363431861158233e-11 1.710826519712277e-11 1.3106976155089188e-11 1.6576795615207765e-11 1.3661931647091316e-11
          3.179275689503174e-11 2.637227017443786e-11 2.5099811613580122e-11 1.5284828145253965e-11 1.8701827582557833e-11 1.2729604528177913e-11
          1.55973784799727e-11 1.3701835531373019e-11 1.624741803273669e-11 1.3544877999607966e-11 2.7720282945022456e-11 2.3199730294972536e-11
          2.2949147494122957e-11 1.0472754776110143e-11 1.289376725297855e-11 8.594841365751586e-12 1.0613816965502054e-11 9.376400928033052e-12
          1.1182625810013378e-11 9.199495927595297e-12 1.9297424456779493e-11 1.5960291112293654e-11 1.5946663459101586e-11 1.0985969185138927e-11
          1.4068004041938145e-11 8.997649261446284e-12 1.1504152394652853e-11 8.840112049364693e-12 1.1222839003911269e-11 9.167245474898216e-12
          2.174559888813416e-11 1.7821730601547823e-11 1.7123266739242237e-11 7.294422102916456e-12 9.318082276654294e-12 5.91770030584899e-12
          7.382987368928683e-12 6.313319787870429e-12 1.4525840309999088e-11 1.1384889266686322e-11 7.047107228420266e-12 8.702811538367785e-12
          5.7645488424192534e-12 7.100712613142907e-12 6.3020668561902895e-12 7.532263090507367e-12 6.147082632005504e-12 1.3119561742897378e-11
          1.0723368567617001e-11 1.081411828337069e-11 4.724400014950813e-12 5.71227568854723e-12 4.316482143798059e-12 5.089809776387463e-12
          4.216070238811134e-12 4.9775957289213515e-12 4.4922957820283325e-12 8.682595376004948e-12 7.70377690522026e-12 7.18446703944231e-12
          3.427614507773782e-11 7.939435259619826e-11 1.6892401211574528e-10 2.438344337440117e-10 4.819735619071582e-11 3.616363937100415e-11
          6.863346375769844e-11 9.606406090309942e-11 7.022217996766498e-11 1.3151354818245193e-10 3.2024378868049157e-10 2.395010806705303e-10
          4.0035981681239734e-10 1.7405553869965605e-10 1.2325792489074827e-10 2.1617784607160187e-10 4.427704277307342e-10 3.3511136025949783e-10
          4.502364833839264e-10 2.4402065170953205e-10 1.7162532608426056e-10 2.5245677558810565e-10 6.776576910333754e-11 5.7212543288650895e-11
          5.3085529313093424e-11 4.47236990476224e-11 9.973495203136412e-11 8.470069870851639e-11 7.71782644799918e-11 4.799173557937724e-11
          4.000096068524736e-11 3.7445877814205886e-11 3.1159245336929336e-11 7.144567776671363e-11 5.986155732170985e-11 5.50227547230222e-11
          4.0736875715864687e-11 3.4246101349409204e-11 3.0482049904390305e-11 2.557403217755824e-11 5.835551985433407e-11 4.930616583777055e-11
          4.3182429364908303e-11 2.8617608440878803e-11 2.377078820906214e-11 2.13255590115584e-11 1.7680149432335785e-11 4.1399207174987404e-11
          3.4542454434775125e-11 3.048087144150211e-11 1.444385035996759e-10 1.2346908772382453e-10 1.1026682005722572e-10 9.39655729287092e-11
          2.0490496850062786e-10 1.7641577684271541e-10 1.5426959862561416e-10 1.0478884532120489e-10 8.830703043274898e-11 7.952542186622583e-11
          6.68474953354986e-11 1.5074432518246544e-10 1.2784998489017131e-10 1.1266061242600724e-10 8.215656087938027e-11 6.97968276935519e-11
          5.985726559419858e-11 5.069717351531644e-11 1.131573986301846e-10 9.668932976068329e-11 8.105967512150575e-11 5.890597812219037e-11
          4.938888634925813e-11 4.266642959510705e-11 3.568093123387465e-11 8.205048170954473e-11 6.915327399535363e-11 5.837172143193583e-11
          3.313186125556148e-11 2.7277451843997166e-11 2.5771628999072962e-11 2.1195095396285637e-11 4.982421359677998e-11 4.1199225700345076e-11
          3.822322360928781e-11 2.234100656203691e-11 1.7372960132414772e-11 1.4123055653335852e-11 3.3841769251501153e-11 2.5880359536146235e-11
          1.962528908722885e-11 1.6114520812177244e-11 1.4566728192822802e-11 1.1940520499208417e-11 2.8643154988209622e-11 2.3605762800049372e-11
          2.0999387970146232e-11 1.318209822234037e-11 1.0679946197567562e-11 9.741149922932292e-12 7.884018389476082e-12 1.9327229432041286e-11
          1.571946178526563e-11 1.4117767519549709e-11 7.389892870619696e-11 6.141461715519924e-11 5.5812252555241406e-11 4.6285760046556954e-11
          1.0763653004891018e-10 8.996250554562919e-11 7.995740012941061e-11 5.0689764821066986e-11 3.8129140518151697e-11 3.1201247774181815e-11
          7.465252320323243e-11 5.517936035069603e-11 4.1139416885586845e-11 3.404457980598166e-11 2.965089187298593e-11 2.4484678324869497e-11
          5.7888281142811954e-11 4.813149873532595e-11 4.0941200451141654e-11 2.7990257271533712e-11 2.2862868008761614e-11 2.0091328853750697e-11
          1.6382803747632345e-11 3.975043613290518e-11 3.260928594098952e-11 2.7974501101671017e-11 1.8497354059249627e-11 2.2399547679268665e-11
          1.5460513037169192e-11 1.8751311852241e-11 1.3647093006578999e-11 1.6296286547980456e-11 1.3585056545096998e-11 3.133119343103485e-11
          2.6329983594398367e-11 2.2348376567025365e-11 1.2820014973289187e-11 1.5595231740408284e-11 1.0578722450564389e-11 1.2899333003877483e-11
          9.373092281323805e-12 1.1264123898927854e-11 9.291778601936432e-12 2.1999145683781518e-11 1.8271558089172532e-11 1.560057842253566e-11
          5.5632900309666685e-12 6.5859189072883995e-12 5.48252742065751e-12 8.983857705528757e-12 4.273637816581324e-11 3.6085219571839484e-11
          2.9965948881426795e-11 2.5222861215670082e-11 5.685835914307236e-11 4.8238535318563346e-11 3.9155925846172954e-11 3.02830001529622e-11
          2.5258784104769143e-11 2.1106241057283524e-11 1.755716278782474e-11 4.066624689371772e-11 3.406598288500965e-11 2.7817195323531583e-11
          1.2007060588044927e-11 8.029058347272974e-12 1.558955730067951e-11 8.675465175980207e-12 1.0606723290057106e-11 7.085225553778449e-12
          8.6766225762139e-12 6.301903805213669e-12 7.616044595130829e-12 6.210932728650114e-12 1.508667858815462e-11 1.2383310468363384e-11
          1.0643473230162359e-11 5.744542690020154e-12 7.0531291859666525e-12 4.635715652357252e-12 5.701674052202605e-12 4.142309430839176e-12
          5.0379349239498956e-12 4.067037721742657e-12 1.0105178969571105e-11 8.198324709661289e-12 7.101026008839808e-12 4.485945846544095e-12
          5.355083817245717e-12 3.620681194841873e-12 4.3447665649708486e-12 3.8037663404111e-12 4.425808663085974e-12 3.5759070677109965e-12
          7.377464205365965e-12 6.027055656736101e-12 5.476855886282963e-12 2.9684144019575306e-12 3.5427240287957424e-12 2.4215172187039862e-12
          2.8739893439035104e-12 2.539270098836379e-12 2.933556889988547e-12 2.3951028771166863e-12 4.897626883730935e-12 3.960563371288533e-12
          3.6171945094286918e-12 2.0939606268037007e-11 1.7253466305272494e-11 1.451837389447699e-11 1.1934867912045816e-11 2.8357065117036966e-11
          2.3456316632612057e-11 1.928450408478011e-11 1.4130007629729135e-11 1.150396725115887e-11 9.754017656229652e-12 7.926260187573647e-12
          1.9280670982696018e-11 1.574874956561697e-11 1.3046144773461353e-11 9.905162659079358e-12 8.12413662308074e-12 6.607054286832023e-12
          5.4064315343511844e-12 1.2902987477594297e-11 1.061630360230625e-11 8.5188651154075e-12 6.6208098238722154e-12 5.367285850320882e-12
          4.38960123621176e-12 3.5509302825432606e-12 8.68347790082845e-12 7.060020408213179e-12 5.701500157385237e-12 2.7994052293873677e-10
          2.427826403000469e-10 2.083255255290129e-10 1.7984267907923338e-10 3.5221859075627766e-10 3.073717380155373e-10 2.6159812605865406e-10
          2.0890743967574843e-10 1.7836199419162752e-10 1.5409124857808376e-10 1.3104653203135083e-10 2.6607830406336165e-10 2.2848938978606447e-10
          1.9561175997911712e-10 1.5067302577748189e-10 1.2949423441181612e-10 1.0621038118623389e-10 9.089490416190928e-11 1.8809671443822693e-10
          1.6245615369803414e-10 1.3135513171849522e-10 1.1049800561744891e-10 9.362097278904149e-11 7.725886939894571e-11 6.522388658611966e-11