<?xml version="1.0"?>
<VTKFile type="UnstructuredGrid" version="0.1" byte_order="LittleEndian" header_type="UInt32" compressor="vtkZLibDataCompressor">
  <UnstructuredGrid>
    <Piece NumberOfPoints="1361" NumberOfCells="955">
      <PointData>
        <DataArray type="Int32" Name="libmesh_node_id" format="ascii" RangeMin="2435" RangeMax="9275">
          2435 2443 2610 2611 2613 2614
          2619 2620 3137 3139 3140 3141
          3142 3143 3144 3145 3146 3147
          3149 3150 3151 3152 3163 3164
          3176 3178 3181 3183 3184 3185
          3186 3187 3188 3189 3190 3191
          3192 3978 3979 3980 3983 3989
          3990 3992 3996 3997 3998 3999
          4000 4002 4003 4004 4005 4006
          4007 4008 4009 4010 4011 4012
          4013 4014 4015 4016 4017 4018
          4019 4020 4021 4023 4024 4025
          4027 4028 4029 4030 4031 4032
          4033 4034 4035 4036 4037 4038
          4039 4040 4041 4052 4053 4058
          4060 4061 4062 4063 4067 4068
          4102 4103 4105 4118 4120 4122
          4139 4152 4154 4156 4158 4159
          4160 4161 4162 4163 4164 4165
          4166 4167 4168 4169 4170 4171
          4172 4173 4174 4175 4176 4177
          4178 4179 4180 4181 4182 4183
          4184 4185 4186 4187 4188 4189
          4190 4191 4192 4193 4194 4195
          4196 4197 4198 4199 4200 4201
          4202 4203 4204 4205 4206 4207
          4208 4209 4210 4211 4212 4213
          4214 4215 4216 4217 4218 4219
          4220 4221 4222 4223 4224 4225
          4245 4246 4249 4250 4273 4274
          4277 4278 4459 4474 4476 4488
          4493 4504 4506 4508 4510 5586
          5587 5588 5589 5590 5591 5592
          5593 5594 5595 5627 5628 5629
          5632 5633 5634 5635 5636 5637
          5638 5639 5640 5641 5642 5645
          5646 5649 5650 5651 5652 5653
          5654 5655 5656 5657 5658 5664
          6166 6171 6172 6173 6176 6177
          6178 6179 6180 6184 6187 6188
          6191 6192 6193 6194 6195 6196
          6197 6198 6199 6200 6201 6202
          6203 6204 6205 6206 6207 6208
          6209 6210 6211 6212 6213 6214
          6215 6216 6217 6218 6219 6220
          6221 6222 6223 6224 6225 6226
          6227 6228 6229 6230 6231 6232
          6233 6234 6235 6236 6237 6238
          6239 6240 6241 6242 6243 6244
          6245 6246 6247 6248 6249 6250
          6251 6252 6253 6254 6255 6256
          6257 6258 6259 6260 6261 6262
          6263 6264 6265 6266 6267 6268
          6269 6270 6271 6272 6273 6274
          6275 6276 6277 6278 6279 6280
          6281 6282 6283 6284 6285 6286
          6287 6288 6289 6290 6291 6292
          6293 6294 6295 6296 6297 6298
          6299 6300 6304 6307 6308 6311
          6312 6313 6314 6315 6316 6317
          6318 6319 6320 6321 6322 6323
          6324 6325 6326 6327 6328 6329
          6330 6331 6332 6333 6334 6335
          6336 6337 6338 6339 6340 6341
          6342 6343 6344 6345 6346 6347
          6348 6349 6350 6351 6352 6353
          6354 6355 6356 6357 6358 6359
          6360 6361 6362 6363 6364 6365
          6366 6367 6368 6369 6370 6371
          6372 6373 6374 6375 6376 6377
          6378 6379 6380 6381 6382 6383
          6384 6385 6392 6393 6396 6398
          6414 6415 6416 6417 6418 6419
          6420 6421 6422 6423 6424 6425
          6426 6427 6428 6429 6430 6431
          6432 6433 6547 6548 6549 6577
          6578 6579 6580 6581 6582 6583
          6584 6585 6586 6587 6588 6589
          6590 6591 6592 6593 6594 6595
          6596 6597 6598 6599 6600 6601
          6602 6603 6604 6605 6606 6607
          6608 6609 6610 6611 6612 6613
          6614 6615 6616 6617 6618 6619
          6620 6621 6622 6623 6624 6625
          6626 6627 6628 6629 6630 6631
          6632 6633 6634 6635 6636 6637
          6638 6639 6640 6641 6642 6643
          6644 6645 6646 6647 6648 6649
          6650 6651 6652 6653 6654 6655
          6656 6657 6658 6659 6660 6661
          6662 6663 6664 6665 6666 6667
          6668 6669 6670 6671 6672 6673
          6674 6675 6676 6677 6678 6679
          6680 6681 6682 6683 6684 6685
          6686 6687 6688 6689 6690 6691
          6692 6693 6694 6695 6696 6697
          6698 6699 6700 6701 6702 6703
          6704 6705 6706 6707 6708 6709
          6710 6711 6712 6713 6714 6715
          6716 6717 6718 6719 6720 6721
          6722 6723 6724 6725 6726 6727
          6728 6729 6730 6731 6732 6733
          6734 6735 6736 6737 6738 6739
          6740 6741 6742 6743 6744 6745
          6746 6747 6748 6749 6750 6751
          6752 6753 6754 6755 6756 6757
          6758 6759 6760 6761 6762 6763
          6764 6765 6766 6767 6768 6769
          6770 6771 6772 6773 6774 6775
          6776 6777 6778 6779 6780 6781
          6782 6783 6784 6785 6786 6787
          6788 6789 6790 6791 6792 6793
          6794 6795 6796 6797 6798 6799
          6800 6801 6802 6803 6804 6805
          6806 6807 6808 6809 6810 6811
          6812 6813 6814 6815 6816 6817
          6818 6819 6820 6821 6822 6823
          6824 6825 6826 6827 6828 6829
          6830 6831 6832 6833 6834 6835
          6836 6837 6838 6839 6840 6841
          6842 6843 6844 6845 6846 6847
          6848 6849 6850 6851 6852 6853
          6854 6855 6856 6857 6858 6859
          6860 6861 6862 6863 6864 6865
          6866 6867 6868 6869 6870 6871
          6872 6873 6874 6875 6876 6877
          6878 6879 6880 6881 6882 6883
          6884 6885 6886 6887 6888 6889
          6890 6891 6892 6893 6894 6895
          6896 6897 6898 6899 6900 6901
          6902 6903 6904 6905 6906 6907
          6908 6909 6910 6911 6912 6913
          6914 6915 6916 6917 6918 6919
          6920 6921 6922 6923 6924 6925
          6926 6927 6928 6929 6930 6931
          6932 6933 6934 6935 6936 6937
          6938 6939 6940 6941 6942 6943
          6944 6945 6946 6947 6948 6949
          6950 6951 6952 6953 6954 6955
          6956 6957 6958 6959 6960 6961
          6962 6963 6964 6965 6966 6967
          6968 6969 6970 6971 6972 6973
          6974 6975 6976 6977 6978 6979
          6980 6981 6982 6983 6984 6985
          6986 6987 6988 6989 6990 6991
          6992 6993 6994 6995 6996 6997
          6998 6999 7000 7001 7002 7003
          7004 7005 7006 7007 7008 7009
          7010 7011 7012 7013 7014 7015
          7016 7017 7018 7019 7020 7021
          7022 7027 7031 7047 7051 7063
          7064 7065 7066 7067 7068 7069
          7070 7071 7072 7073 7074 7075
          7076 7091 7092 7094 7095 7096
          7098 7099 7100 7101 7102 7103
          7104 7229 7233 7249 7253 7265
          7266 7268 7269 7270 7272 7273
          7274 7275 7276 7277 7278 7293
          7294 7296 7297 7298 7300 7301
          7302 7303 7304 7305 7306 7417
          7418 7419 7420 7424 7425 7427
          7428 7430 7445 7446 7449 7450
          7452 7454 7465 7466 7469 7471
          7472 7474 7485 7487 7489 7491
          7557 7558 7561 7562 7564 7566
          7577 7578 7581 7582 7584 7586
          7813 7814 7817 7818 7820 7822
          8003 8004 8007 8009 8010 8012
          8023 8025 8027 8029 8037 8038
          8041 8043 8044 8046 8057 8059
          8060 8061 8063 8139 8141 8143
          8145 8153 8155 8157 8159 8167
          8168 8169 8170 8171 8172 8173
          8181 8182 8183 8184 8185 8186
          8187 8188 8190 8192 8194 8251
          8252 8255 8257 8258 8260 8271
          8273 8274 8275 8277 8285 8286
          8289 8291 8292 8294 8305 8307
          8308 8309 8311 8387 8388 8389
          8390 8391 8392 8393 8401 8402
          8403 8404 8405 8406 8407 8408
          8410 8412 8414 8415 8416 8417
          8418 8419 8420 8421 8429 8430
          8431 8432 8433 8434 8435 8436
          8438 8440 8442 8995 8997 8999
          9000 9001 9023 9024 9025 9027
          9028 9029 9030 9034 9234 9235
          9236 9238 9239 9240 9241 9245
          9262 9263 9264 9266 9267 9268
          9269 9273 2612 3165 3148 3166
          3208 3214 3210 3215 4107 4108
          4109 4135 4137 4138 4121 4151
          4143 4155 3175 4136 4301 4322
          4302 4323 4326 4327 4390 4391
          2801 2802 5596 5597 5598 5599
          5603 5604 3207 5659 5660 5661
          5662 5663 5665 5666 4294 4295
          6543 6545 6555 6564 6571 6565
          6573 4141 6569 6575 4142 6542
          6562 6563 2618 6568 7421 7422
          7423 7426 4296 7429 4297 7447
          7448 7451 7453 7467 7468 7470
          4304 7473 4305 7486 7488 7490
          4307 7559 7560 7563 7565 4329
          7579 7580 7583 7585 4331 7815
          7816 7819 7821 4397 8005 8006
          8008 4450 8011 4451 8024 8026
          8028 4454 8039 8040 8042 4456
          8045 4457 8058 8062 8034 8036
          8064 8066 8068 8070 8140 8142
          8144 4470 8154 8156 8158 4472
          8150 8174 8152 8176 8178 8180
          8164 4471 8165 8177 8189 8166
          4473 8191 4475 8193 3259 8253
          8254 8256 4484 8259 4485 8272
          8276 8278 8280 8282 8284 8287
          8288 8290 4490 8293 4491 8306
          8310 8312 8314 8316 8318 8394
          8396 8398 8400 8397 8409 8411
          4505 8413 4507 8422 8424 8426
          8428 8425 8437 8439 4509 8441
          3264 8996 8998 4586 8162 9002
          9006 9004 9008 9026 4590 9007
          9031 9032 4587 9033 9035 9036
          4591 9237 4614 9242 9243 9244
          9246 9247 4615 9265 4618 9270
          9271 9272 9274 9275 4619
        </DataArray>
        <DataArray type="Float64" Name="bounds" format="ascii" RangeMin="0" RangeMax="0">
          0 0 0 0 0 0
          0 0 0 0 0 0
          0 0 0 0 0 0
          0 0 0 0 0 0
          0 0 0 0 0 0
          0 0 0 0 0 0
          0 0 0 0 0 0
          0 0 0 0 0 0
          0 0 0 0 0 0
          0 0 0 0 0 0
          0 0 0 0 0 0
          0 0 0 0 0 0
          0 0 0 0 0 0
          0 0 0 0 0 0
          0 0 0 0 0 0
          0 0 0 0 0 0
          0 0 0 0 0 0
          0 0 0 0 0 0
          0 0 0 0 0 0
          0 0 0 0 0 0
          0 0 0 0 0 0
          0 0 0 0 0 0
          0 0 0 0 0 0
          0 0 0 0 0 0
          0 0 0 0 0 0
          0 0 0 0 0 0
          0 0 0 0 0 0
          0 0 0 0 0 0
          0 0 0 0 0 0
          0 0 0 0 0 0
          0 0 0 0 0 0
          0 0 0 0 0 0
          0 0 0 0 0 0
          0 0 0 0 0 0
          0 0 0 0 0 0
          0 0 0 0 0 0
          0 0 0 0 0 0
          0 0 0 0 0 0
          0 0 0 0 0 0
          0 0 0 0 0 0
          0 0 0 0 0 0
          0 0 0 0 0 0
          0 0 0 0 0 0
          0 0 0 0 0 0
          0 0 0 0 0 0
          0 0 0 0 0 0
          0 0 0 0 0 0
          0 0 0 0 0 0
          0 0 0 0 0 0
          0 0 0 0 0 0
          0 0 0 0 0 0
          0 0 0 0 0 0
          0 0 0 0 0 0
          0 0 0 0 0 0
          0 0 0 0 0 0
          0 0 0 0 0 0
          0 0 0 0 0 0
          0 0 0 0 0 0
          0 0 0 0 0 0
          0 0 0 0 0 0
          0 0 0 0 0 0
          0 0 0 0 0 0
          0 0 0 0 0 0
          0 0 0 0 0 0
          0 0 0 0 0 0
          0 0 0 0 0 0
          0 0 0 0 0 0
          0 0 0 0 0 0
          0 0 0 0 0 0
          0 0 0 0 0 0
          0 0 0 0 0 0
          0 0 0 0 0 0
          0 0 0 0 0 0
          0 0 0 0 0 0
          0 0 0 0 0 0
          0 0 0 0 0 0
          0 0 0 0 0 0
          0 0 0 0 0 0
          0 0 0 0 0 0
          0 0 0 0 0 0
          0 0 0 0 0 0
          0 0 0 0 0 0
          0 0 0 0 0 0
          0 0 0 0 0 0
          0 0 0 0 0 0
          0 0 0 0 0 0
          0 0 0 0 0 0
          0 0 0 0 0 0
          0 0 0 0 0 0
          0 0 0 0 0 0
          0 0 0 0 0 0
          0 0 0 0 0 0
          0 0 0 0 0 0
          0 0 0 0 0 0
          0 0 0 0 0 0
          0 0 0 0 0 0
          0 0 0 0 0 0
          0 0 0 0 0 0
          0 0 0 0 0 0
          0 0 0 0 0 0
          0 0 0 0 0 0
          0 0 0 0 0 0
          0 0 0 0 0 0
          0 0 0 0 0 0
          0 0 0 0 0 0
          0 0 0 0 0 0
          0 0 0 0 0 0
          0 0 0 0 0 0
          0 0 0 0 0 0
          0 0 0 0 0 0
          0 0 0 0 0 0
          0 0 0 0 0 0
          0 0 0 0 0 0
          0 0 0 0 0 0
          0 0 0 0 0 0
          0 0 0 0 0 0
          0 0 0 0 0 0
          0 0 0 0 0 0
          0 0 0 0 0 0
          0 0 0 0 0 0
          0 0 0 0 0 0
          0 0 0 0 0 0
          0 0 0 0 0 0
          0 0 0 0 0 0
          0 0 0 0 0 0
          0 0 0 0 0 0
          0 0 0 0 0 0
          0 0 0 0 0 0
          0 0 0 0 0 0
          0 0 0 0 0 0
          0 0 0 0 0 0
          0 0 0 0 0 0
          0 0 0 0 0 0
          0 0 0 0 0 0
          0 0 0 0 0 0
          0 0 0 0 0 0
          0 0 0 0 0 0
          0 0 0 0 0 0
          0 0 0 0 0 0
          0 0 0 0 0 0
          0 0 0 0 0 0
          0 0 0 0 0 0
          0 0 0 0 0 0
          0 0 0 0 0 0
          0 0 0 0 0 0
          0 0 0 0 0 0
          0 0 0 0 0 0
          0 0 0 0 0 0
          0 0 0 0 0 0
          0 0 0 0 0 0
          0 0 0 0 0 0
          0 0 0 0 0 0
          0 0 0 0 0 0
          0 0 0 0 0 0
          0 0 0 0 0 0
          0 0 0 0 0 0
          0 0 0 0 0 0
          0 0 0 0 0 0
          0 0 0 0 0 0
          0 0 0 0 0 0
          0 0 0 0 0 0
          0 0 0 0 0 0
          0 0 0 0 0 0
          0 0 0 0 0 0
          0 0 0 0 0 0
          0 0 0 0 0 0
          0 0 0 0 0 0
          0 0 0 0 0 0
          0 0 0 0 0 0
          0 0 0 0 0 0
          0 0 0 0 0 0
          0 0 0 0 0 0
          0 0 0 0 0 0
          0 0 0 0 0 0
          0 0 0 0 0 0
          0 0 0 0 0 0
          0 0 0 0 0 0
          0 0 0 0 0 0
          0 0 0 0 0 0
          0 0 0 0 0 0
          0 0 0 0 0 0
          0 0 0 0 0 0
          0 0 0 0 0 0
          0 0 0 0 0 0
          0 0 0 0 0 0
          0 0 0 0 0 0
          0 0 0 0 0 0
          0 0 0 0 0 0
          0 0 0 0 0 0
          0 0 0 0 0 0
          0 0 0 0 0 0
          0 0 0 0 0 0
          0 0 0 0 0 0
          0 0 0 0 0 0
          0 0 0 0 0 0
          0 0 0 0 0 0
          0 0 0 0 0 0
          0 0 0 0 0 0
          0 0 0 0 0 0
          0 0 0 0 0 0
          0 0 0 0 0 0
          0 0 0 0 0 0
          0 0 0 0 0 0
          0 0 0 0 0 0
          0 0 0 0 0 0
          0 0 0 0 0 0
          0 0 0 0 0 0
          0 0 0 0 0 0
          0 0 0 0 0 0
          0 0 0 0 0 0
          0 0 0 0 0 0
          0 0 0 0 0 0
          0 0 0 0 0 0
          0 0 0 0 0 0
          0 0 0 0 0 0
          0 0 0 0 0 0
          0 0 0 0 0 0
          0 0 0 0 0 0
          0 0 0 0 0 0
          0 0 0 0 0 0
          0 0 0 0 0 0
          0 0 0 0 0 0
          0 0 0 0 0 0
          0 0 0 0 0 0
          0 0 0 0 0 0
          0 0 0 0 0 0
          0 0 0 0 0
        </DataArray>
        <DataArray type="Float64" Name="gradient_error" format="ascii" RangeMin="6.76509420951717e-11" RangeMax="2.6157404786078276e-8">
          3.7974233002843347e-10 1.240078824414288e-9 1.2211724541699222e-8 1.1987039461611323e-8 4.0727081455930303e-10 1.9959017701420271e-10
          2.6157404786078276e-8 1.0937923278114952e-9 1.084248922206919e-8 6.82866192314736e-10 6.018550251874177e-10 4.892363838683925e-10
          4.2341912884619076e-10 4.941292076870031e-10 2.6847679632358807e-10 5.248601286050565e-10 1.0896530486408444e-9 1.1499096479785088e-9
          5.892863098019028e-10 5.034593920495628e-10 3.412861497837586e-10 3.125098295004412e-10 1.6892032294207416e-9 1.0807983793628216e-9
          1.4315403953417639e-8 1.9917874122608707e-8 8.641184437739897e-9 1.9446360957157756e-9 1.5942606650254652e-9 1.5531301978784133e-9
          1.2622293959830522e-9 9.153693210373097e-10 6.961371081273752e-10 1.0838918281585454e-9 1.7076744397123385e-9 1.5422879859167867e-9
          1.3490572943165999e-9 3.3658658607655104e-9 3.24468049361623e-9 2.961178522969247e-9 6.1719360861378104e-9 2.5197751478453122e-9
          1.9678011466015013e-9 4.817632411316369e-9 1.872098805395362e-9 1.8051285538368739e-9 4.720516618313042e-10 3.00866280737352e-10
          2.8972739654903256e-10 1.6446642704441408e-9 2.579091843853201e-10 3.1425168996937747e-9 3.031483701947766e-9 5.66507656256775e-10
          2.743917824554376e-9 3.5713639662667356e-10 3.3939352613592194e-10 2.3724667598526543e-10 2.2786068664030242e-10 2.4898323880179193e-10
          1.8784111190949844e-10 1.8002162257082463e-10 3.9615902743196426e-10 2.938736857283706e-10 3.250845161376631e-10 4.928060864849825e-10
          4.725512106025841e-10 3.896683006910764e-10 4.166302617059031e-10 1.5274971165425752e-9 5.863590427844087e-10 4.418348249512372e-10
          1.324293938473056e-9 5.702328084280377e-10 2.345884631753485e-9 4.127818824443079e-10 1.9097843286851473e-9 5.169845735465781e-10
          4.2985655789117973e-10 5.725506768985949e-10 4.302616403228175e-10 5.772983779119089e-10 4.24441195029358e-10 3.241758718228363e-10
          3.3655096639392635e-10 2.728709987458581e-10 2.492489535464299e-10 6.924717869886018e-10 4.13251677848682e-10 2.194052621719186e-10
          5.029903582874049e-10 3.0205253120776595e-10 3.765254555135145e-10 2.2686731000847733e-10 1.702199450602954e-10 1.341595613468075e-10
          1.0436239727314136e-8 1.005111960812381e-8 8.978365824324331e-9 7.41028255181776e-9 5.996453460601344e-9 1.1686943736345149e-8
          1.310154542858912e-8 1.4573871827425331e-8 1.1791884930223906e-8 1.4831067007985817e-8 5.6785524032045295e-9 5.461106437748936e-9
          1.0883993885918438e-9 1.0433149563310583e-9 4.858153190979719e-9 9.192221813456486e-10 9.133299529379087e-9 8.828619848711143e-9
          1.8505626665545958e-9 7.930494210733523e-9 9.52027402102739e-10 9.106335381732069e-10 8.201021638596232e-10 7.830184730535776e-10
          7.970048606351198e-10 6.813899736688798e-10 1.7611356486183228e-9 1.6695177418593814e-9 1.472648556344458e-9 1.429535753972281e-9
          4.003552920589646e-9 7.451153457795578e-10 3.1359573055784063e-9 5.561105973873283e-10 6.439756313391833e-9 1.2566524696525869e-9
          4.705228107816732e-9 6.380703150305327e-10 5.399411636642686e-10 4.668186083273362e-10 3.890445198123212e-10 1.119734767027758e-9
          9.842762129590297e-10 8.030141988922122e-10 6.67745104155664e-9 6.531339861274058e-9 2.541393716471385e-9 2.490993465784969e-9
          7.672613257493327e-9 2.2676528374477917e-9 9.142563927586461e-10 1.1994708793861348e-9 1.3468576521873095e-9 5.2523844112026375e-9
          2.4989924759612275e-9 2.4112476754472135e-9 2.3198943626716585e-9 2.221014663345568e-9 2.1277910573202867e-9 1.9170889789628305e-9
          1.2510914581763351e-9 1.4226477938778526e-9 1.3758525665729699e-9 1.6553308970855683e-9 8.154291550351242e-9 1.8168504397970883e-9
          6.164555291347292e-9 1.296459002682524e-9 8.310369998079753e-9 1.7204657898398293e-9 6.650264033588561e-9 1.6560388671295506e-9
          1.4775847551470226e-9 1.1745504742672123e-9 1.047485894414192e-9 1.5821456113811255e-9 1.4041699864864185e-9 1.2221121687860992e-9
          3.119933030506757e-10 2.549448997582097e-10 5.237732267976069e-10 4.442195485331486e-10 7.622452628709165e-10 6.659051083441972e-10
          8.40020743146272e-10 7.397604047369793e-10 1.0939372638406592e-9 8.471580291675953e-10 5.901627297956611e-10 1.6753950989192566e-9
          1.3722744941469978e-9 1.2994688843204076e-9 9.149715995759256e-10 1.2259587354550772e-9 9.624464335202602e-10 5.231839625496193e-10
          4.909145417605582e-10 7.660956888240474e-10 6.877592315601087e-10 1.987450005146285e-10 3.765368380851172e-10 3.4706591321242643e-10
          4.58645120971497e-10 6.094227742961701e-10 3.1759498833973564e-10 3.4797765976084894e-10 5.823384617759008e-10 5.637733838029839e-10
          5.088158665292506e-10 2.604820808853777e-10 2.587160278078976e-10 4.2323287598967785e-10 4.0692802055875655e-10 1.9937879892559952e-10
          3.1498086602077754e-10 3.0124065805405144e-10 2.461860970347129e-10 3.6142826390991594e-10 2.833649448813589e-10 2.9103156298853784e-10
          4.242450132051446e-10 3.760665991818553e-10 2.2723845140710583e-10 3.019944390281572e-10 2.0793506051251457e-10 2.545445537683939e-10
          2.190546834752033e-10 2.717555153643179e-10 2.339951730673617e-10 1.4008552572139802e-10 1.5212037787990903e-10 1.641552300384201e-10
          3.748624753464369e-10 1.6897826284624564e-10 2.0989632850992331e-10 2.0798096537350203e-10 2.0232931419215092e-10 3.4905732460613553e-10
          3.458711575549367e-10 2.9806053221042304e-10 3.3688517359121244e-10 3.494721613164954e-10 1.5753165229237332e-10 1.9320805155945047e-10
          1.8099814779081304e-10 3.2182496348892954e-10 2.762512327455552e-10 3.015717909896655e-10 4.998022519263997e-10 4.952945514028134e-10
          4.832021659510185e-10 6.791460549382743e-10 4.735783010898602e-10 4.692421910514188e-10 4.2455933387799864e-10 4.2049770506496724e-10
          4.569847057739175e-10 4.0851965556649523e-10 6.507681926567321e-10 6.443427884397952e-10 5.835244297989768e-10 6.267656867418717e-10
          4.6140303760402754e-10 4.3301681293735933e-10 6.31109527456698e-10 4.3611844972243196e-10 3.8938896917423847e-10 4.085551153694667e-10
          3.6375428176896177e-10 5.976466872714201e-10 5.393472150702044e-10 5.594365001673799e-10 1.4665778495646731e-10 1.4508408782181303e-10
          1.8200580812451238e-10 1.801943175627699e-10 1.2663304312399154e-10 1.6017653739989645e-10 1.5842270472329179e-10 1.4143471388992218e-10
          1.75310975683585e-10 1.542768024431796e-10 2.6637253506922975e-10 2.637883790201951e-10 2.348899061692161e-10 2.5610703996148725e-10
          1.1253968621918698e-10 1.1078970323817195e-10 1.412799829065368e-10 1.3957740972491185e-10 9.688832233788621e-11 1.2439672512997615e-10
          1.2279760024036844e-10 1.0835122231099998e-10 1.359975474523307e-10 1.19613530269186e-10 2.1140479034758357e-10 2.0926014489458703e-10
          1.858939435682153e-10 2.0284461847975169e-10 1.371671677348071e-10 1.6731852907818032e-10 1.2295618884804325e-10 1.4723087200158827e-10
          1.313424688769152e-10 1.5606994041360106e-10 1.4128403323125628e-10 2.435261210751755e-10 2.1544002014623208e-10 2.263890141789502e-10
          1.1058236183117983e-10 1.3062016027338593e-10 9.784947677618111e-11 1.155326409227066e-10 1.1350199929751659e-10 1.271200621853973e-10
          1.1303669665780192e-10 1.907616227636017e-10 1.6894456051852552e-10 1.9152724246102194e-10 3.822842347809084e-10 3.784611971762588e-10
          3.450959386794096e-10 3.4154035322153906e-10 3.672646793945753e-10 3.310367171293312e-10 5.391994836292572e-10 5.337047075495095e-10
          4.876345448594166e-10 5.176397012974004e-10 3.109415165326077e-10 3.0764835830141367e-10 2.7908442786090816e-10 2.760571497509041e-10
          2.9788300485753655e-10 2.670674964777913e-10 4.4902761529378976e-10 4.441915085144415e-10 4.027849086044558e-10 4.300794949709958e-10
          3.50085065292403e-10 3.1556343362185774e-10 3.2742730295386966e-10 2.9552655414241013e-10 4.919848422006932e-10 4.4847234209241383e-10
          4.5806961475726937e-10 2.832311991790864e-10 2.53181470835636e-10 2.642603219780796e-10 2.35188763093003e-10 4.075881762480316e-10
          3.6877985544516696e-10 3.779139102448318e-10 2.991211088988763e-10 1.4102053286717476e-10 1.6550301987757547e-10 1.568328211452047e-10
          2.7454585277122015e-10 2.3377349461692596e-10 2.6615217705430913e-10 4.001602183573278e-10 3.6322097035939704e-10 5.454643591281118e-10
          3.764816911195705e-10 3.335412288650241e-10 3.4075389938858044e-10 2.999044839922513e-10 5.143849973374879e-10 4.605381759615806e-10
          4.63988618974775e-10 2.93054611273185e-10 3.2543615857116277e-10 2.857167646427648e-10 4.403991469185577e-10 2.6392198566910434e-10
          3.0301653803154645e-10 2.1934370722857763e-10 2.632589353905974e-10 2.2891355022019453e-10 2.6407580052682687e-10 2.2651534065577848e-10
          4.1165087389653593e-10 3.626260822181414e-10 3.584114932074066e-10 1.24787674084734e-10 1.4223518689319494e-10 1.195791284584657e-10
          1.3235737759403275e-10 1.2186570879256625e-10 1.3472842674940593e-10 1.2601667782130557e-10 2.0441626128443206e-10 1.9763040160999707e-10
          1.973003945089882e-10 2.9928606164876295e-10 2.69293188879556e-10 2.670221525548214e-10 2.387686488924099e-10 4.1750460521292373e-10
          3.786577991271648e-10 3.723766386159181e-10 1.9708702989202612e-10 2.3995920792128717e-10 1.7273949701176538e-10 2.1294945508768823e-10
          1.736558217800391e-10 2.1225196974985805e-10 1.8814179502943878e-10 3.426115204227681e-10 3.086873736124501e-10 3.0362753084743276e-10
          1.927178008965047e-10 2.326253616856236e-10 1.707950344923579e-10 2.0718720077667966e-10 1.6412006105381927e-10 1.9880606766493197e-10
          1.7646348146587393e-10 3.251673607062333e-10 2.926607639918437e-10 2.782312045929986e-10 1.5040769515710514e-10 1.8403331460346323e-10
          1.322616827240714e-10 1.630966352176538e-10 1.2794113659407839e-10 1.565161784257085e-10 1.3856828782281035e-10 2.631926366162636e-10
          2.358919331299901e-10 2.2336201657738744e-10 1.6011523805869856e-10 1.923040475901437e-10 1.6045021214355708e-10 2.642639457655343e-10
          1.3899394423745288e-10 1.676700317243051e-10 1.223298555177654e-10 1.4808264331994925e-10 1.1555878886697306e-10 1.3886224339609586e-10
          1.2193698901790694e-10 2.3344808735666166e-10 2.0802146078385182e-10 1.921605294940613e-10 1.0737459088837727e-10 1.3083665525625768e-10
          9.422875329643689e-11 1.1547379665223177e-10 8.830684963679795e-11 1.0723655825077642e-10 9.43025031493644e-11 1.856620586684267e-10
          1.6533541351407086e-10 1.5122993459344877e-10 2.2054469985273637e-9 2.221859491995234e-9 2.1219425561255187e-9 1.8304385819957184e-9
          1.8496673358930433e-9 1.9188776021974847e-9 1.931788165193888e-9 1.4554301654640727e-9 1.4774751797908525e-9 1.7158126482694506e-9
          9.013919314000088e-10 8.913904998152946e-10 8.674955556696301e-10 1.2090232184352447e-9 8.70057556658182e-10 8.609157476719759e-10
          8.073788271482091e-10 7.992393676408225e-10 8.366280093447514e-10 7.751625057618829e-10 1.1739714674849602e-9 1.1608969683047503e-9
          1.0770067206167875e-9 1.1257450891950904e-9 8.27950425273662e-10 7.763750210742408e-10 1.1123866838049142e-9 7.97186258574685e-10
          7.367064434222248e-10 7.454657150651038e-10 6.860189036789209e-10 1.0679655533129585e-9 9.896445501056602e-10 9.929463345315973e-10
          1.593222589223991e-9 1.5733050544884755e-9 1.525020871029491e-9 2.0309445104603968e-9 1.544474815306723e-9 1.5261196541557047e-9
          1.4552210915059108e-9 1.4386010318175e-9 1.4771497261198958e-9 1.3898958062000558e-9 2.0214225135912204e-9 1.996686949281347e-9
          1.9209195687269702e-9 1.932310633051817e-9 1.4407566490412605e-9 1.33234272909659e-9 1.870769815647978e-9 1.3962040312586585e-9
          1.3135495111543512e-9 1.291912424763773e-9 1.215019296631342e-9 1.8262173927971314e-9 1.7387401423515396e-9 1.6852400502975318e-9
          7.47254488657825e-10 7.39455167083893e-10 6.908658063828058e-10 6.834681875022888e-10 7.165505807998759e-10 6.617369387806711e-10
          1.0188208862946313e-9 1.007809045084463e-9 9.415024649467422e-10 9.755283358116461e-10 6.363812821566715e-10 6.294035428055768e-10
          5.832969620335389e-10 5.767604395574739e-10 6.089149705595495e-10 5.575720771938816e-10 8.859022289876813e-10 8.759052300732422e-10
          8.106715510846974e-10 8.465866124886017e-10 6.799103003190965e-10 6.270088001015243e-10 6.3165622167e-10 5.813260358423034e-10
          9.24063351519827e-10 8.614407431106873e-10 8.565972244547794e-10 5.76194729636972e-10 5.269437134371585e-10 5.332079438507564e-10
          4.867560544822139e-10 7.998816841773616e-10 7.389824870700627e-10 7.387597158747883e-10 1.3752174695103974e-9 1.3591603914530792e-9
          1.2958905215849374e-9 1.2805993599926552e-9 1.312432171475287e-9 1.2360033450748267e-9 1.857521989118192e-9 1.833395250612163e-9
          1.7376619674637297e-9 1.762954385012652e-9 1.2156074104615655e-9 1.201123607784048e-9 1.134522198296064e-9 1.1209024864997735e-9
          1.1588648465381048e-9 1.0811083652169364e-9 1.6584897863492163e-9 1.6362598709685496e-9 1.5324482800349809e-9 1.5719169643054323e-9
          1.2388631409043672e-9 1.1656608849930213e-9 1.1438315713437342e-9 1.0746545166044274e-9 1.6522190277658186e-9 1.5634182448407075e-9
          1.511458887719687e-9 1.0921177601087938e-9 1.0181166142994865e-9 1.0055901081105085e-9 9.362912825477093e-10 1.4721341447071563e-9
          1.3798590632183654e-9 1.3462918192292558e-9 7.151191001020787e-10 6.453359864948366e-10 9.451228750876905e-10 6.840854422312946e-10
          6.259188793454916e-10 6.152818499030845e-10 5.596125524897004e-10 9.059829897435548e-10 8.361870983675233e-10 8.099696314342422e-10
          5.742154797170673e-10 5.009030279197269e-10 7.46862360558507e-10 5.441917420368248e-10 4.902587772750258e-10 4.720887048477958e-10
          4.210830181978541e-10 7.120537746037344e-10 6.502990588934566e-10 6.133743613133288e-10 1.2120663349947663e-9 1.0792923252289407e-9
          1.5682358439922956e-9 1.1734347568152401e-9 1.1003507743143678e-9 1.0437805294121045e-9 9.75922761620567e-10 1.518684964163308e-9
          1.4294753084445116e-9 1.3358696344248034e-9 9.486456318004465e-10 8.150760708865516e-10 1.1972016424643686e-9 9.130127395352121e-10
          8.474447659763391e-10 7.817436563772984e-10 7.207205180327815e-10 1.1569243218686469e-9 1.0833352659329406e-9 9.806545335863876e-10
          5.744731521273007e-10 5.272671471338852e-10 5.114101233767913e-10 4.677830471896969e-10 7.770512857142743e-10 7.211484158374435e-10
          6.8975533866062e-10 4.824452193346603e-10 4.3940359643481854e-10 4.267415227961101e-10 3.8759366401366595e-10 6.669004561537429e-10
          6.137541623222654e-10 5.88343209472502e-10 4.456521743809662e-10 4.059417084710284e-10 3.8020515921000056e-10 3.446334851191535e-10
          5.990947982549109e-10 5.519864448330148e-10 5.091147577321248e-10 3.690226257663268e-10 3.340949364071e-10 3.120221786815543e-10