<?xml version="1.0"?>
<VTKFile type="UnstructuredGrid" version="0.1" byte_order="LittleEndian" header_type="UInt32" compressor="vtkZLibDataCompressor">
  <UnstructuredGrid>
    <Piece NumberOfPoints="1468" NumberOfCells="1061">
      <PointData>
        <DataArray type="Int32" Name="libmesh_node_id" format="ascii" RangeMin="2447" RangeMax="14451">
          2454 2457 2459 2481 3389 3390
          3391 3392 3393 3394 3395 3396
          3397 3398 3399 3400 3401 3404
          3405 3407 3409 3414 3415 3419
          3424 3429 3430 3431 3432 3433
          3434 3435 3436 3437 3439 3441
          3443 3519 3521 3522 3527 3529
          3530 3536 3872 3873 3874 3875
          3879 3880 4979 4980 4981 4982
          4983 4984 4985 4986 4987 4988
          4989 4990 4991 4992 4993 4994
          4995 4996 4997 4998 4999 5000
          5001 5002 5004 5005 5006 5007
          5008 5009 5010 5011 5012 5013
          5014 5015 5016 5017 5018 5019
          5020 5021 5022 5023 5024 5025
          5026 5027 5028 5065 5072 5095
          5096 5099 5102 5103 5106 5130
          5133 5163 5164 5167 5175 5176
          5177 5178 5179 5180 5181 5182
          5183 5184 5185 5186 5187 5188
          5189 5190 5191 5192 5193 5194
          5195 5196 5197 5198 5199 5200
          5201 5202 5203 5204 5205 5206
          5207 5208 5209 5210 5211 5212
          5213 5214 5215 5216 5217 5218
          5219 5220 5221 5222 5223 5224
          5225 5226 5227 5228 5229 5230
          5231 5232 5233 5234 5235 5236
          5237 5245 5246 5247 5248 5249
          5250 5251 5252 5253 5254 5265
          5266 5267 5268 5269 5270 5271
          5279 5280 5281 5282 5283 5284
          5285 5670 5671 5674 5676 5678
          5679 5680 5681 5682 5683 5684
          5685 5686 5687 5689 5693 5695
          5696 5697 5698 5699 5700 5701
          5712 5713 5714 5715 5717 5718
          5719 5720 5721 5722 5723 5724
          5725 5726 5727 5728 5729 5730
          5731 5742 5743 5744 5745 5746
          5747 5748 5756 5757 5758 5759
          5761 5763 5764 5765 6248 6249
          6250 6251 6252 6253 6254 6291
          6293 6298 6300 6432 6433 6436
          6437 6438 6439 6440 6441 6442
          6443 9640 9641 9644 9646 9648
          9649 9650 9651 9652 9653 9654
          9655 9656 9657 9660 9661 9664
          9666 9668 9669 9670 9671 9672
          9673 9674 9675 9676 9677 9678
          9679 9680 9681 9682 9683 9684
          9685 9686 9687 9688 9689 9690
          9691 9692 9693 9694 9695 9696
          9697 9698 9699 9700 9701 9702
          9703 9704 9705 9706 9707 9708
          9709 9710 9711 9712 9713 9714
          9715 9716 9717 9720 9721 9724
          9726 9728 9729 9730 9731 9732
          9733 9734 9735 9736 9737 9738
          9739 9740 9741 9742 9743 9744
          9745 9746 9747 9748 9749 9750
          9751 9752 9753 9754 9755 9756
          9757 9758 9759 9760 9761 9762
          9763 9764 9765 9766 9767 9768
          9769 9770 9771 9772 9773 9774
          9775 9776 9777 9778 9779 9780
          9781 9782 9783 9784 9785 9786
          9787 9788 9789 9790 9791 9792
          9793 9794 9795 9796 9797 10029
          10078 10085 10239 10245 10246 10249
          10267 10273 10274 10277 10294 10295
          10298 10301 10302 10305 10322 10323
          10326 10329 10330 10333 10494 10518
          10522 10525 10734 10735 10738 10741
          10742 10745 10762 10763 10766 10769
          10770 10773 10831 10833 10835 10837
          10838 10839 10840 10841 10842 10843
          10845 10847 10849 10851 10852 10853
          10854 10855 10856 10857 10859 10861
          10863 10865 10866 10867 10868 10869
          10870 10871 10873 10875 10877 10879
          10880 10881 10882 10883 10884 10885
          10886 10887 10888 10889 10890 10891
          10892 10893 10894 10895 10896 10897
          10898 10899 10900 10901 10902 10903
          10904 10905 10906 10907 10908 10909
          10910 10911 10912 10913 10914 10915
          10916 10917 10918 10919 10920 10921
          10922 10923 10924 10925 10926 10927
          10928 10929 10930 10931 10932 10933
          10934 10935 10936 10937 10938 10939
          10940 10941 10943 10945 10947 10949
          10950 10951 10952 10953 10954 10955
          10958 10959 10962 10964 10966 10967
          10968 10969 10970 10971 10972 10973
          10974 10975 10977 10979 10981 10983
          10984 10985 10986 10987 10988 10989
          10991 10993 10995 10997 10998 10999
          11000 11001 11002 11003 11004 11005
          11006 11007 11008 11009 11010 11011
          11012 11013 11014 11015 11016 11017
          11018 11019 11020 11021 11022 11023
          11024 11025 11026 11027 11028 11029
          11030 11031 11032 11033 11034 11035
          11036 11037 11038 11039 11040 11041
          11042 11043 11044 11045 11046 11047
          11048 11049 11050 11051 11052 11053
          11054 11055 11056 11057 11058 11059
          11060 11061 11062 11063 11064 11065
          11067 11069 11071 11073 11074 11075
          11076 11077 11078 11079 11081 11083
          11085 11087 11088 11089 11090 11091
          11092 11093 11095 11097 11099 11101
          11102 11103 11104 11105 11106 11107
          11109 11111 11113 11115 11116 11117
          11118 11119 11120 11121 11122 11123
          11124 11125 11126 11127 11128 11129
          11130 11131 11132 11133 11134 11135
          11136 11137 11138 11139 11140 11141
          11142 11143 11144 11145 11146 11147
          11148 11149 11150 11151 11152 11153
          11154 11155 11156 11157 11158 11159
          11160 11161 11162 11163 11164 11165
          11166 11167 11168 11169 11170 11171
          11172 11173 11174 11175 11176 11177
          11179 11181 11183 11185 11186 11187
          11188 11189 11190 11191 11193 11195
          11197 11199 11200 11201 11202 11203
          11204 11205 11207 11209 11211 11213
          11214 11215 11216 11217 11218 11219
          11221 11223 11225 11227 11228 11229
          11230 11231 11232 11233 11234 11235
          11236 11237 11238 11239 11240 11241
          11242 11243 11244 11245 11246 11247
          11248 11249 11250 11251 11252 11253
          11254 11255 11256 11257 11258 11259
          11260 11261 11262 11263 11264 11265
          11266 11267 11268 11269 11270 11271
          11272 11273 11274 11275 11276 11277
          11278 11279 11280 11281 11282 11283
          11284 11285 11286 11287 11288 11289
          11290 11291 11292 11293 11294 11295
          11296 11297 11298 11299 11300 11301
          11302 11303 11304 11305 11306 11307
          11308 11309 11310 11311 11312 11313
          11314 11315 11316 11317 11318 11319
          11320 11321 11322 11323 11324 11325
          11326 11327 11328 11329 11330 11331
          11332 11333 11334 11335 11336 11337
          11338 11339 11340 11341 11342 11343
          11344 11345 11402 11403 11404 11405
          11406 11407 11408 11409 11410 11411
          11412 11413 11414 11415 11416 11417
          11418 11419 11420 11421 11422 11423
          11424 11425 11426 11427 11428 11429
          11430 11431 11432 11433 11434 11435
          11436 11437 11438 11439 11440 11441
          11442 11443 11444 11445 11446 11447
          11448 11449 11450 11451 11452 11453
          11454 11455 11456 11457 11458 11459
          11460 11461 11462 11463 11464 11465
          11466 11467 11468 11469 11538 11539
          11540 11541 11542 11543 11544 11545
          11546 11547 11548 11549 11550 11551
          11552 11553 11554 11555 11556 11557
          11558 11559 11560 11561 11562 11563
          11564 11565 11566 11567 11568 11569
          11570 11571 11572 11573 11574 11575
          11576 11577 11578 11579 11580 11581
          11582 11583 11584 11585 11586 11587
          11588 11589 11590 11591 11592 11593
          11650 11651 11652 11653 11654 11655
          11656 11657 11658 11659 11660 11661
          11662 11663 11664 11665 11666 11667
          11668 11669 11670 11671 11672 11673
          11674 11675 11676 11677 11678 11679
          11680 11681 11682 11683 11684 11685
          11686 11687 11688 11689 11690 11691
          11692 11693 11694 11695 11696 11697
          11698 11699 11700 11701 11702 11703
          11704 11705 14002 14003 14006 14008
          14018 14020 14022 14036 14037 14042
          14044 14045 14046 14047 14048 14049
          14050 14051 14052 14053 14054 14055
          14056 14057 14058 14059 14060 14061
          14062 14063 14064 14065 14066 14067
          14068 14069 14070 14071 14072 14073
          14074 14075 14076 14077 14078 14079
          14080 14081 14082 14083 14084 14085
          14086 14087 14088 14089 14090 14091
          14092 14093 14094 14095 14096 14097
          14106 14108 14110 14120 14124 14134
          14136 14138 14154 14155 14156 14157
          14158 14159 14160 14161 14162 14163
          14164 14165 14166 14167 14168 14169
          14170 14171 14172 14173 14174 14175
          14176 14177 14178 14179 14180 14181
          14182 14183 14184 14185 14186 14187
          14188 14189 14190 14191 14192 14193
          14194 14195 14196 14197 14198 14199
          14200 14201 14202 14203 14204 14205
          14206 14207 14208 14209 14246 14247
          14250 14252 14254 14255 14256 14257
          14258 14259 14260 14261 14262 14263
          14264 14265 14266 14267 14268 14269
          14270 14271 14272 14273 14274 14275
          14276 14277 14278 14279 14280 14281
          14282 14283 14284 14285 14286 14287
          14288 14289 14290 14291 14292 14293
          14294 14295 14296 14297 14298 14299
          14300 14301 14302 14303 14324 14325
          14326 14327 14328 14329 14330 14331
          14332 14333 14334 14335 14336 14337
          14338 14339 14340 14341 14342 14343
          14344 14345 14346 14347 14348 14349
          14350 14351 14352 14353 14354 14355
          14356 14357 14358 14359 14360 14361
          14362 14363 14364 14365 14366 14367
          14368 14369 14370 14371 14372 14373
          14374 14375 14376 14377 14378 14379
          14442 14443 14444 14445 14446 14447
          14448 14449 14450 14451 3369 2447
          3370 3371 2453 3383 3384 4915
          4916 4917 4925 4926 4927 4963
          4964 4965 9416 9408 9417 9418
          4920 9421 3375 9446 9447 9448
          9451 4930 9456 9457 9458 9461
          2449 9582 9583 9584 9587 4968
          9592 9593 9594 9597 10017 10023
          10025 10019 10021 10027 10024 10026
          10028 10072 10074 10076 10073 10075
          10077 10079 10081 10083 10080 10082
          10084 10237 10243 10244 10241 10247
          10248 10265 10271 10272 10269 10275
          10276 10292 10293 10296 10297 10299
          10300 10303 10304 10320 10321 10324
          10325 10327 10328 10331 10332 10512
          10514 10516 10513 10515 10517 10519
          10521 10523 10732 10733 10736 10737
          10739 10743 10760 10761 10764 10765
          10767 10771 9991 9997 9998 5061
          10001 5062 10046 10047 10050 5068
          10053 10054 10057 5069 10486 10487
          10490 5129 10493 10497
        </DataArray>
        <DataArray type="Float64" Name="bounds" format="ascii" RangeMin="0" RangeMax="0">
          0 0 0 0 0 0
          0 0 0 0 0 0
          0 0 0 0 0 0
          0 0 0 0 0 0
          0 0 0 0 0 0
          0 0 0 0 0 0
          0 0 0 0 0 0
          0 0 0 0 0 0
          0 0 0 0 0 0
          0 0 0 0 0 0
          0 0 0 0 0 0
          0 0 0 0 0 0
          0 0 0 0 0 0
          0 0 0 0 0 0
          0 0 0 0 0 0
          0 0 0 0 0 0
          0 0 0 0 0 0
          0 0 0 0 0 0
          0 0 0 0 0 0
          0 0 0 0 0 0
          0 0 0 0 0 0
          0 0 0 0 0 0
          0 0 0 0 0 0
          0 0 0 0 0 0
          0 0 0 0 0 0
          0 0 0 0 0 0
          0 0 0 0 0 0
          0 0 0 0 0 0
          0 0 0 0 0 0
          0 0 0 0 0 0
          0 0 0 0 0 0
          0 0 0 0 0 0
          0 0 0 0 0 0
          0 0 0 0 0 0
          0 0 0 0 0 0
          0 0 0 0 0 0
          0 0 0 0 0 0
          0 0 0 0 0 0
          0 0 0 0 0 0
          0 0 0 0 0 0
          0 0 0 0 0 0
          0 0 0 0 0 0
          0 0 0 0 0 0
          0 0 0 0 0 0
          0 0 0 0 0 0
          0 0 0 0 0 0
          0 0 0 0 0 0
          0 0 0 0 0 0
          0 0 0 0 0 0
          0 0 0 0 0 0
          0 0 0 0 0 0
          0 0 0 0 0 0
          0 0 0 0 0 0
          0 0 0 0 0 0
          0 0 0 0 0 0
          0 0 0 0 0 0
          0 0 0 0 0 0
          0 0 0 0 0 0
          0 0 0 0 0 0
          0 0 0 0 0 0
          0 0 0 0 0 0
          0 0 0 0 0 0
          0 0 0 0 0 0
          0 0 0 0 0 0
          0 0 0 0 0 0
          0 0 0 0 0 0
          0 0 0 0 0 0
          0 0 0 0 0 0
          0 0 0 0 0 0
          0 0 0 0 0 0
          0 0 0 0 0 0
          0 0 0 0 0 0
          0 0 0 0 0 0
          0 0 0 0 0 0
          0 0 0 0 0 0
          0 0 0 0 0 0
          0 0 0 0 0 0
          0 0 0 0 0 0
          0 0 0 0 0 0
          0 0 0 0 0 0
          0 0 0 0 0 0
          0 0 0 0 0 0
          0 0 0 0 0 0
          0 0 0 0 0 0
          0 0 0 0 0 0
          0 0 0 0 0 0
          0 0 0 0 0 0
          0 0 0 0 0 0
          0 0 0 0 0 0
          0 0 0 0 0 0
          0 0 0 0 0 0
          0 0 0 0 0 0
          0 0 0 0 0 0
          0 0 0 0 0 0
          0 0 0 0 0 0
          0 0 0 0 0 0
          0 0 0 0 0 0
          0 0 0 0 0 0
          0 0 0 0 0 0
          0 0 0 0 0 0
          0 0 0 0 0 0
          0 0 0 0 0 0
          0 0 0 0 0 0
          0 0 0 0 0 0
          0 0 0 0 0 0
          0 0 0 0 0 0
          0 0 0 0 0 0
          0 0 0 0 0 0
          0 0 0 0 0 0
          0 0 0 0 0 0
          0 0 0 0 0 0
          0 0 0 0 0 0
          0 0 0 0 0 0
          0 0 0 0 0 0
          0 0 0 0 0 0
          0 0 0 0 0 0
          0 0 0 0 0 0
          0 0 0 0 0 0
          0 0 0 0 0 0
          0 0 0 0 0 0
          0 0 0 0 0 0
          0 0 0 0 0 0
          0 0 0 0 0 0
          0 0 0 0 0 0
          0 0 0 0 0 0
          0 0 0 0 0 0
          0 0 0 0 0 0
          0 0 0 0 0 0
          0 0 0 0 0 0
          0 0 0 0 0 0
          0 0 0 0 0 0
          0 0 0 0 0 0
          0 0 0 0 0 0
          0 0 0 0 0 0
          0 0 0 0 0 0
          0 0 0 0 0 0
          0 0 0 0 0 0
          0 0 0 0 0 0
          0 0 0 0 0 0
          0 0 0 0 0 0
          0 0 0 0 0 0
          0 0 0 0 0 0
          0 0 0 0 0 0
          0 0 0 0 0 0
          0 0 0 0 0 0
          0 0 0 0 0 0
          0 0 0 0 0 0
          0 0 0 0 0 0
          0 0 0 0 0 0
          0 0 0 0 0 0
          0 0 0 0 0 0
          0 0 0 0 0 0
          0 0 0 0 0 0
          0 0 0 0 0 0
          0 0 0 0 0 0
          0 0 0 0 0 0
          0 0 0 0 0 0
          0 0 0 0 0 0
          0 0 0 0 0 0
          0 0 0 0 0 0
          0 0 0 0 0 0
          0 0 0 0 0 0
          0 0 0 0 0 0
          0 0 0 0 0 0
          0 0 0 0 0 0
          0 0 0 0 0 0
          0 0 0 0 0 0
          0 0 0 0 0 0
          0 0 0 0 0 0
          0 0 0 0 0 0
          0 0 0 0 0 0
          0 0 0 0 0 0
          0 0 0 0 0 0
          0 0 0 0 0 0
          0 0 0 0 0 0
          0 0 0 0 0 0
          0 0 0 0 0 0
          0 0 0 0 0 0
          0 0 0 0 0 0
          0 0 0 0 0 0
          0 0 0 0 0 0
          0 0 0 0 0 0
          0 0 0 0 0 0
          0 0 0 0 0 0
          0 0 0 0 0 0
          0 0 0 0 0 0
          0 0 0 0 0 0
          0 0 0 0 0 0
          0 0 0 0 0 0
          0 0 0 0 0 0
          0 0 0 0 0 0
          0 0 0 0 0 0
          0 0 0 0 0 0
          0 0 0 0 0 0
          0 0 0 0 0 0
          0 0 0 0 0 0
          0 0 0 0 0 0
          0 0 0 0 0 0
          0 0 0 0 0 0
          0 0 0 0 0 0
          0 0 0 0 0 0
          0 0 0 0 0 0
          0 0 0 0 0 0
          0 0 0 0 0 0
          0 0 0 0 0 0
          0 0 0 0 0 0
          0 0 0 0 0 0
          0 0 0 0 0 0
          0 0 0 0 0 0
          0 0 0 0 0 0
          0 0 0 0 0 0
          0 0 0 0 0 0
          0 0 0 0 0 0
          0 0 0 0 0 0
          0 0 0 0 0 0
          0 0 0 0 0 0
          0 0 0 0 0 0
          0 0 0 0 0 0
          0 0 0 0 0 0
          0 0 0 0 0 0
          0 0 0 0 0 0
          0 0 0 0 0 0
          0 0 0 0 0 0
          0 0 0 0 0 0
          0 0 0 0 0 0
          0 0 0 0 0 0
          0 0 0 0 0 0
          0 0 0 0 0 0
          0 0 0 0 0 0
          0 0 0 0 0 0
          0 0 0 0 0 0
          0 0 0 0 0 0
          0 0 0 0 0 0
          0 0 0 0 0 0
          0 0 0 0 0 0
          0 0 0 0 0 0
          0 0 0 0 0 0
          0 0 0 0 0 0
          0 0 0 0 0 0
          0 0 0 0 0 0
          0 0 0 0 0 0
          0 0 0 0 0 0
          0 0 0 0 0 0
          0 0 0 0 0 0
          0 0 0 0
        </DataArray>
        <DataArray type="Float64" Name="gradient_error" format="ascii" RangeMin="8.737128116312606e-13" RangeMax="2.6295536910551044e-9">
          1.4428608877642061e-11 1.2559816404887615e-9 4.4923153626360614e-11 5.302221536471676e-12 2.316739713639645e-11 1.1136037241736715e-10
          7.925493864282799e-11 5.0389056232289265e-11 3.555289136853787e-11 4.0211169835598014e-11 2.6433958191827785e-11 1.4255906971851958e-11
          3.211125814608847e-11 1.9098897741332293e-11 2.1878771821231353e-11 2.114373791106595e-11 1.484358451956768e-11 6.856391253085017e-12
          9.265710474080544e-12 1.0913321081318556e-11 1.0621071655801423e-11 9.139874812633817e-10 5.64734034436715e-10 1.8047870446596471e-9
          3.033320337227906e-10 7.753584105129177e-10 2.419345444578548e-10 1.3565094728360461e-10 3.73981776079865e-11 1.9347802855983992e-11
          5.693035539624227e-10 3.530954069083291e-10 8.079503781925857e-11 6.763883471403608e-11 9.066885979431827e-12 1.9225240080242129e-10
          2.250721217824729e-11 1.3925907675183058e-11 9.130866362649754e-12 5.676247546994479e-12 3.659939283710447e-12 7.90493588975444e-12
          3.9169602886455745e-12 4.484012498476591e-12 1.2560450478894805e-11 1.2130647227625727e-11 4.861535185379557e-12 8.048375181313688e-12
          1.8878825227725905e-12 6.64467966485594e-12 1.1772111757112574e-10 7.536151344073496e-11 8.090004107046994e-11 5.200754746992256e-11
          6.841723930290706e-11 4.331774544348208e-11 2.990188724192941e-11 8.460190554692682e-11 6.133412740094943e-11 4.4795934742299715e-11
          5.4797859723842295e-11 3.537425806863059e-11 3.634698466236982e-11 2.3515729511093533e-11 3.178655148932085e-11 2.0289681510977206e-11
          1.7732922630318768e-11 4.339599610825073e-11 2.9918040047329567e-11 2.244896666512019e-11 3.6540288980229294e-11 3.904004186617416e-11
          2.4957654075622874e-11 2.691221744293584e-11 3.5253970787322073e-11 2.4135601032518244e-11 3.581419060793822e-11 2.5183593117282773e-11
          3.1598766202810305e-11 1.6629281257484933e-11 1.8144559761690578e-11 1.0708046103351084e-11 1.62931345250538e-11 8.572411200866514e-12
          1.6127104574236735e-11 1.2374810170413263e-11 1.73191593785366e-11 1.579013686023e-11 1.467646531971796e-11 2.3630593328644628e-11
          1.5329495575013436e-11 1.505096161401303e-11 9.762281283697503e-12 1.3316368010862723e-11 1.5935910383372568e-11 1.0318846513888163e-11
          2.0101230129183972e-11 1.3168949351372368e-11 1.6721914899684132e-11 1.1095938665421069e-9 7.304052639699629e-10 1.9935662771284013e-9
          1.7057509510125641e-9 2.1217108677207866e-9 1.4288057563897695e-9 1.1638317711232368e-9 1.5184862742588671e-9 8.883335085634903e-11
          4.21485694303534e-10 9.154181838370457e-10 6.925317250660138e-10 1.006109899531443e-9 2.509272834639713e-10 1.9052413672336522e-10
          1.271172370121054e-10 9.481838283834814e-11 6.314770809360035e-10 5.073740582491196e-10 3.095434237541203e-10 1.4069929314854356e-10
          1.009641543082615e-10 6.896603823980175e-11 4.882711264035659e-11 3.954168581507436e-10 2.9841305668206223e-10 1.8382426178539454e-10
          5.736515175805934e-11 4.208030290336571e-11 2.338869609170022e-11 1.6875895711767546e-11 1.3199085161729478e-10 1.0056590961948039e-10
          5.022619278439162e-11 3.0173330650657175e-11 2.108457324218139e-11 1.1907278777259448e-11 1.0175688110894849e-11 7.472005461929058e-11
          5.407864032678059e-11 2.7228355934204445e-11 1.1611802459713926e-9 9.77715656761171e-10 5.748977994378709e-10 4.682736790160382e-10
          1.3216873637019195e-9 1.1266535829632274e-9 6.901723333996401e-10 7.987885465975411e-10 6.312001000637451e-10 3.7014778018467856e-10
          2.8354280052724285e-10 9.331080315515696e-10 7.478898175066907e-10 4.555742818690406e-10 2.387220377545065e-10 1.881479829015252e-10
          8.608256388240155e-11 6.590490055840612e-11 2.9189386436437603e-10 2.3268811797056957e-10 1.0445826626937333e-10 1.4436941289428325e-10
          1.077436456644812e-10 4.928470480723014e-11 3.5951626615443014e-11 1.8047251141738805e-10 1.3604995844297962e-10 6.101268658899304e-11
          7.038702383971159e-11 4.768926400476651e-11 3.365861345520512e-11 2.259196587035495e-11 2.1792481021611038e-10 1.540161302350339e-10
          9.720190385665048e-11 1.469499388130242e-11 1.4359730129452383e-11 9.575240575644195e-12 9.53820207544143e-12 1.1535206747822072e-11
          8.916399988919322e-12 5.84943377176298e-12 3.810801879800352e-11 2.6142441100053033e-11 1.341540659600598e-11 4.814087240245162e-10
          3.541106107559521e-10 2.1037387025593851e-10 1.5117413160611741e-10 5.784904280318346e-10 4.312380125670214e-10 2.648604859872739e-10
          7.81725434565149e-11 5.5120417914468945e-11 2.5562773800617046e-11 1.7704439218928488e-11 9.964137451302482e-11 7.08774995765942e-11
          3.222541838456799e-11 1.3805906012617735e-11 1.0449482115143436e-11 1.1306684523018317e-11 1.2743883697144418e-11 9.237200905107532e-12
          7.241092858519771e-12 9.485658741127636e-12 7.155805366447108e-12 8.445939792140163e-12 7.801295352003289e-12 5.239859085612038e-12
          9.092350050925885e-12 6.341185867076751e-12 8.256749399965026e-12 2.100530213581568e-11 2.517724547251432e-11 1.5323491920329593e-11
          1.0928886179177994e-11 7.668153302335289e-12 5.3282834073561e-12 1.8532343706025764e-11 1.3339357605681065e-11 5.240592565150057e-12
          8.28819747722643e-12 7.093905700507555e-12 5.744628276247822e-12 4.8984347222539115e-12 5.1574482879606926e-12 3.532216823197453e-12
          3.873965258861629e-12 2.6423792886162482e-12 5.867959967485769e-12 1.168329852731891e-11 7.050204113524868e-12 7.678264223018704e-12
          5.402316820091408e-12 4.2235943087577245e-12 3.404290634476966e-12 3.5025621099409576e-12 4.318514245847044e-12 3.56449722359793e-12
          3.7256634012566946e-12 7.609745888146803e-12 5.164341353391426e-12 4.422711916994788e-12 3.785973749459995e-12 9.364967773655715e-12
          6.406595156184824e-12 4.12107431022803e-12 3.8254345262343336e-12 4.1549581429706055e-12 2.8512456621799242e-12 3.6701139874373115e-12
          2.349987279012484e-12 3.544708684797865e-12 4.1745519322441385e-12 2.521199708531086e-12 6.960751974688557e-12 1.514834553249664e-11
          4.606499506139882e-12 9.922525327421167e-12 5.093873336882861e-12 9.72204512474061e-12 6.395946749714445e-12 4.79229190683807e-12
          3.338823946422164e-12 2.2027687692789794e-12 1.714175998001055e-12 6.388038392631567e-12 1.0730705024141432e-11 6.518140470237826e-12
          4.525401399624201e-12 7.205932057845226e-12 3.868610945134904e-12 5.7605300237303516e-12 3.1215911320186708e-12 4.686119287907887e-12
          4.023629403235397e-12 4.283825145751557e-11 6.121421280782845e-11 4.6865722272637703e-11 1.1156751294254426e-10 3.602698940167273e-11
          5.184937019251686e-11 3.0123239383482674e-11 4.366901713160742e-11 2.7697014163472887e-11 3.9605705717043765e-11 3.32883589590559e-11
          9.55307051979138e-11 8.131411122228339e-11 7.224024241851305e-11 2.4772330778131468e-11 3.49466273615527e-11 2.5428054752670255e-11
          6.241077067622635e-11 2.0737691340374197e-11 2.9458636127201135e-11 1.727511742537706e-11 2.4705682080403393e-11 1.521582240727746e-11
          2.1381057139304596e-11 1.78907370575725e-11 5.313843581899722e-11 4.499634608006127e-11 3.80282886598523e-11 2.5115688599073783e-11
          3.659531229321848e-11 2.0822257374222283e-11 3.048132415445252e-11 1.9249004116021146e-11 2.784770952420097e-11 2.3161559860270182e-11
          6.877466107395669e-11 5.7791291440054965e-11 5.175502750570251e-11 1.708395510951549e-11 2.5197360688602097e-11 1.3930367519101734e-11
          2.069949601576487e-11 1.3093984269973707e-11 1.9126115492188426e-11 1.569979463945004e-11 4.824796900392576e-11 4.0017076822517046e-11
          3.615006933728681e-11 1.437852727720792e-11 2.063006147614748e-11 1.1945475129758155e-11 1.71319560745203e-11 1.053203036661722e-11
          1.4907636723651048e-11 1.2345126933714493e-11 3.787310128965316e-11 3.1678282435019923e-11 2.6947961490520356e-11 9.890135084902915e-12
          1.4117945952133784e-11 8.168982835044841e-12 1.153526621693837e-11 7.436999774641624e-12 1.0090165261517704e-11 8.885307443660039e-12
          2.634325861915584e-11 2.173357690149966e-11 1.8525256684195546e-11 1.3292096810461707e-11 1.7894177846421606e-11 1.4600742680224256e-11
          3.117499473405965e-11 1.1085154493083828e-11 1.5009156096537373e-11 9.20919203121951e-12 1.2531901768416039e-11 9.4767204355594e-12
          1.2226416910162344e-11 1.0195452604282094e-11 2.6388292154891607e-11 2.2222427144052186e-11 2.0157537955558108e-11 7.661588806590058e-12
          1.0425252650233618e-11 6.4156922457771616e-12 8.632288586213382e-12 6.543280505034154e-12 8.477294681986095e-12 7.040774633944548e-12
          1.8600298206720296e-11 1.5451109328373054e-11 1.4185575171339339e-11 5.528829986872203e-12 7.0849606827878325e-12 5.205777730542437e-12
          6.374250979175416e-12 4.724176952696615e-12 5.877724985221013e-12 5.386250422683432e-12 1.26758596838058e-11 1.1710989346693741e-11
          9.794929720040373e-12 1.1339148370163719e-11 1.692200603568926e-11 9.18514879760867e-12 1.3752485784470744e-11 8.689380552155695e-12
          1.281672237045476e-11 1.0397972027121965e-11 3.297103022569837e-11 2.6987366270031886e-11 2.4602312286427958e-11 7.35831658093667e-12
          1.1090107924404145e-11 5.8581069077977264e-12 8.887438589854469e-12 5.624160372099878e-12 8.373315521945567e-12 6.702604263763899e-12
          2.1947401807489922e-11 1.7733110281991627e-11 1.6321147022594136e-11 6.689578051700394e-12 9.370706350130557e-12 5.413379411828275e-12
          7.582092648148426e-12 5.9038783263451434e-12 7.792067569075926e-12 6.294473394433893e-12 1.7771153115289852e-11 1.4450544306435567e-11
          1.4251770093589841e-11 4.334548000947961e-12 6.099456193580737e-12 3.446836479329512e-12 4.8774168944747585e-12 3.842085240403907e-12
          5.063459938439487e-12 4.04743782601104e-12 1.170561883457084e-11 9.433345933497903e-12 9.316425606528035e-12 1.0106954842142887e-9
          8.202973021258014e-10 6.450124830327753e-10 1.58624678428988e-9 1.4631249479482417e-9 1.3409528414363981e-9 1.8485498407656697e-9
          2.1364438407550383e-9 1.9781830511874372e-9 1.824530138017281e-9 1.960586088226565e-9 1.2205366319014385e-9 1.1027103326471633e-9
          1.5658213798543765e-9 9.883604784538445e-10 8.783962638979657e-10 1.2946974240727203e-9 1.6774149032242791e-9 1.536426853819143e-9
          1.6574837256929903e-9 1.3999369821741748e-9 1.2665898686992152e-9 1.3854463763186296e-9 4.5816784275661146e-11 4.900895175792335e-10
          1.67840577237114e-10 3.591937722685351e-10 7.73705238326344e-10 6.751493719538276e-10 1.0370294089041951e-9 5.835209455218153e-10
          4.994585525845368e-10 8.002062918626544e-10 1.1362952113431298e-9 1.0100109413327023e-9 1.129293587543206e-9 8.890427698810078e-10
          7.747100124988696e-10 8.876967271821748e-10 1.9716230199832767e-10 1.4817095659480792e-10 3.363529374428138e-10 1.7084578282063942e-10
          1.4708432642240322e-10 1.279306137112655e-10 1.0977267524845185e-10 2.9545441029474363e-10 2.577196771892748e-10 2.193840621875607e-10
          1.0813169512483407e-10 7.670510404516282e-11 1.8133998536761225e-10 9.302334453616043e-11 7.955627666633637e-11 6.57497214919275e-11
          5.604390846779306e-11 1.5780669458977695e-10 1.3645513201562236e-10 1.1011793382093182e-10 5.50024005107072e-10 4.0828556559081663e-10
          8.525792149309377e-10 4.904807611102018e-10 4.3418949164301316e-10 3.619742978846329e-10 3.186393429863592e-10 7.721103758555926e-10
          6.941225403042179e-10 5.681140685885848e-10 2.9272579594829093e-10 2.0294629292135348e-10 4.5040922539732355e-10 2.5800003907362716e-10
          2.2584686324104374e-10 1.7784365200390056e-10 1.5484032883730697e-10 4.023780127230603e-10 3.5690719579260775e-10 2.7459609341300166e-10
          1.2577263353133687e-10 1.068073928739533e-10 9.358142383993986e-11 7.924901219419824e-11 2.231791002817464e-10 1.9184375523660737e-10
          1.6431067696092727e-10 9.007112254758097e-11 7.542811700058852e-11 6.665378767946534e-11 5.567481730064279e-11 1.6368026807177482e-10
          1.3860705096146996e-10 1.1961846702769961e-10 6.761938591928226e-11 5.7120372568178485e-11 4.7488134244923557e-11 4.0006224632409445e-11
          1.1720982108477637e-10 9.999648298716175e-11 8.112857881820408e-11 4.797819111799306e-11 4.003342672748987e-11 3.355878001913538e-11
          2.795876904721404e-11 8.471861360103754e-11 7.127237643839885e-11 5.822845088747297e-11 3.814453148638898e-10 3.3250369600843673e-10
          2.784283315403159e-10 2.4146132476079464e-10 6.192320766158396e-10 5.480225159326439e-10 4.4967854735555693e-10 2.8754827429113214e-10
          2.4667957685869333e-10 2.0780557262443692e-10 1.7746817993077519e-10 4.810126849537896e-10 4.1863687276720957e-10 3.4491349629991605e-10
          1.9630327620352336e-10 1.6939324949345488e-10 1.3390489492707908e-10 1.1500302454028512e-10 3.142328645351908e-10 2.7456599343319813e-10