<?xml version="1.0"?>
<VTKFile type="UnstructuredGrid" version="0.1" byte_order="LittleEndian" header_type="UInt32" compressor="vtkZLibDataCompressor">
  <UnstructuredGrid>
    <Piece NumberOfPoints="1532" NumberOfCells="1072">
      <PointData>
        <DataArray type="Int32" Name="libmesh_node_id" format="ascii" RangeMin="1942" RangeMax="10771">
          1942 2054 2177 2180 2181 2191
          2402 2412 2413 2416 2417 2418
          2446 2447 2448 2449 2450 2453
          2456 2655 2656 2660 2661 2662
          2663 2664 2665 2666 2669 2670
          2671 2672 2673 2675 2676 2678
          3192 3193 3194 3197 3256 3257
          3258 3259 3260 3261 3262 3263
          3264 3265 3270 3271 3272 3273
          3274 3275 3276 3277 3278 3279
          3280 3281 3282 3316 3317 3322
          3362 3363 3364 3365 3366 3367
          3368 3369 3370 3371 3372 3373
          3374 3375 3376 3377 3378 3379
          3383 3384 3410 3411 3412 3413
          3416 3417 3418 4502 4503 4504
          4505 4506 4507 4508 4509 4510
          4511 4512 4513 4514 4515 4516
          4517 4518 4519 4520 4521 4522
          4523 4524 4525 4526 4527 4528
          4529 4530 4531 4532 4533 4537
          4538 4540 4541 4542 4543 4544
          4546 4547 4548 4678 4679 4681
          4684 4694 4698 4712 4713 4715
          4718 4728 4732 4883 4884 4885
          4886 4887 4888 4889 4890 4891
          4892 4893 4894 4895 4896 4897
          4898 4899 4900 4901 4902 4903
          4904 4905 4906 4907 4908 4909
          4910 4911 4912 4913 4914 4915
          4916 4917 4918 4919 4920 4921
          4922 4923 4924 4925 4926 4927
          4928 4929 4930 4931 4932 4933
          4934 4935 4936 4937 4938 4939
          4940 4941 4942 4944 4959 4960
          4961 4962 4963 4964 4965 4966
          4968 5039 5040 5041 5042 5043
          5044 5045 5046 5047 5048 5049
          5050 5051 5052 5053 5054 5055
          5056 5057 5058 5059 5060 5061
          5062 5063 5064 5066 5067 5068
          5069 5070 5071 5073 5074 5075
          5076 5077 5078 5079 5080 5081
          5082 5083 5084 5085 5086 5087
          5088 5089 5090 5091 5092 5093
          5094 5097 5098 5100 5101 5104
          5105 5107 5108 5111 5113 5114
          5116 5127 5129 5131 5141 5142
          5145 5147 5148 5150 5161 5165
          6136 6137 6138 6139 6140 6141
          6142 6143 6144 6145 6146 6147
          6148 6149 6150 6151 6152 6153
          6154 6155 6156 6157 6158 6159
          6194 6195 6196 6197 6198 6199
          6200 6201 6202 6203 6204 6205
          6206 6207 6208 6209 6210 6211
          6212 6213 6214 6215 6216 6217
          6228 6229 6230 6231 6232 6233
          6234 6235 6236 6237 6238 6239
          6240 6241 6242 6243 6244 6245
          6246 6247 7863 7864 7865 7866
          7867 7868 7869 7870 7871 7872
          7873 7874 7875 7876 7877 7878
          7879 7880 7881 7882 7883 7884
          7885 7886 7887 7888 7889 7890
          7891 7892 7893 7894 7895 7896
          7897 7898 7899 7900 7901 7902
          7903 7904 7905 7906 7907 7908
          7909 7910 7911 7912 7913 7914
          7915 7916 7917 7918 7919 7920
          7921 7922 7923 7924 7925 7926
          7927 7928 7929 7930 7931 7932
          7933 7934 7935 7936 7937 7938
          7939 7940 7941 7942 7943 7944
          7945 7946 7947 7948 7949 7950
          7951 7952 7953 7954 7955 7956
          7957 7958 7959 7960 7961 7962
          7963 7964 7965 7966 7967 7972
          7973 7974 7975 7976 7977 7978
          7979 7980 7981 7982 7983 7984
          7985 7986 7987 7988 7989 7990
          7991 7992 7993 7994 7995 7996
          7997 7998 8011 8012 8015 8017
          8391 8392 8394 8399 8400 8401
          8402 8403 8404 8407 8410 8412
          8416 8417 8418 8419 8421 8435
          8436 8438 8441 8451 8453 8455
          8475 8477 8481 8482 8483 8484
          8486 8496 8498 8500 8510 8512
          8514 8524 8528 8610 8611 8613
          8616 8626 8628 8630 8644 8645
          8647 8650 8660 8662 8664 8724
          8726 8728 8738 8742 8752 8754
          8756 8766 8770 9225 9226 9227
          9228 9229 9230 9231 9232 9233
          9234 9235 9236 9237 9238 9239
          9240 9241 9242 9243 9244 9245
          9246 9247 9248 9249 9250 9251
          9252 9253 9254 9255 9256 9257
          9258 9259 9260 9261 9262 9263
          9264 9265 9266 9267 9268 9269
          9270 9271 9272 9273 9274 9275
          9276 9277 9278 9279 9280 9281
          9282 9283 9284 9285 9286 9287
          9288 9289 9290 9291 9292 9293
          9294 9295 9296 9297 9298 9299
          9300 9301 9302 9303 9304 9305
          9306 9307 9308 9309 9310 9311
          9312 9313 9314 9315 9316 9317
          9318 9319 9320 9321 9322 9323
          9324 9325 9326 9327 9328 9329
          9330 9331 9332 9333 9334 9335
          9336 9337 9338 9339 9340 9341
          9342 9343 9344 9345 9346 9347
          9348 9349 9350 9351 9352 9353
          9354 9355 9356 9357 9358 9359
          9360 9361 9362 9363 9364 9365
          9366 9367 9368 9369 9370 9371
          9372 9373 9374 9375 9376 9377
          9378 9379 9380 9381 9382 9383
          9384 9385 9386 9387 9388 9389
          9390 9391 9392 9393 9394 9395
          9396 9397 9398 9399 9400 9401
          9402 9403 9404 9405 9406 9407
          9408 9409 9410 9411 9412 9413
          9414 9415 9416 9417 9418 9419
          9420 9421 9422 9423 9424 9425
          9426 9427 9428 9429 9430 9431
          9432 9433 9434 9435 9436 9437
          9438 9439 9440 9441 9442 9443
          9444 9445 9446 9447 9448 9449
          9450 9451 9452 9453 9454 9455
          9456 9457 9458 9459 9460 9461
          9462 9463 9464 9465 9466 9467
          9468 9469 9470 9471 9472 9473
          9474 9475 9476 9477 9478 9479
          9480 9481 9482 9483 9484 9485
          9486 9487 9489 9490 9491 9492
          9493 9494 9495 9496 9497 9498
          9499 9500 9501 9502 9503 9504
          9505 9506 9507 9509 9558 9559
          9560 9561 9562 9563 9564 9565
          9566 9567 9568 9569 9570 9571
          9572 9573 9574 9575 9577 9578
          9579 9580 9581 9582 9583 9584
          9585 9586 9587 9588 9589 9590
          9591 9592 9593 9594 9595 9597
          9838 9839 9840 9841 9842 9843
          9844 9845 9846 9847 9848 9849
          9850 9851 9852 9853 9854 9855
          9856 9857 9858 9859 9860 9861
          9862 9863 9864 9865 9866 9867
          9868 9869 9870 9871 9872 9873
          9874 9875 9876 9877 9878 9879
          9880 9881 9882 9883 9884 9885
          9886 9887 9888 9889 9890 9891
          9892 9893 9894 9895 9896 9897
          9898 9899 9900 9901 9902 9903
          9904 9905 9906 9907 9908 9909
          9910 9911 9912 9913 9914 9915
          9916 9917 9918 9919 9920 9921
          9922 9923 9924 9925 9926 9927
          9928 9929 9930 9931 9932 9933
          9934 9935 9936 9937 9938 9939
          9940 9941 9942 9943 9944 9945
          9946 9947 9948 9949 9950 9951
          9952 9953 9954 9955 9956 9957
          9958 9959 9960 9961 9962 9963
          9964 9965 9966 9967 9968 9969
          9970 9971 9972 9973 9974 9975
          9976 9977 9978 9979 9980 9981
          9982 9983 9984 9985 9986 9987
          9988 9989 9990 9991 9992 9993
          9995 9996 9997 9998 9999 10000
          10001 10002 10003 10004 10005 10006
          10007 10008 10009 10010 10011 10012
          10013 10014 10015 10016 10017 10019
          10020 10021 10023 10024 10025 10026
          10027 10028 10030 10031 10032 10033
          10034 10035 10036 10037 10038 10039
          10040 10041 10042 10043 10044 10045
          10046 10047 10048 10049 10050 10051
          10052 10053 10054 10055 10056 10057
          10058 10059 10060 10061 10062 10063
          10064 10065 10066 10067 10068 10069
          10070 10071 10072 10073 10074 10075
          10076 10077 10079 10080 10081 10082
          10083 10084 10086 10087 10088 10089
          10090 10091 10092 10093 10094 10095
          10096 10097 10098 10099 10100 10101
          10102 10103 10104 10105 10106 10107
          10108 10109 10110 10111 10112 10113
          10114 10115 10116 10117 10118 10119
          10120 10121 10122 10123 10124 10125
          10126 10127 10128 10129 10130 10131
          10132 10133 10134 10135 10136 10137
          10138 10139 10140 10141 10142 10143
          10144 10145 10146 10147 10148 10149
          10150 10151 10152 10153 10154 10155
          10156 10157 10158 10159 10160 10161
          10162 10163 10164 10165 10166 10167
          10168 10169 10170 10171 10172 10173
          10174 10175 10176 10177 10178 10179
          10180 10181 10182 10183 10184 10185
          10186 10187 10188 10189 10190 10191
          10192 10193 10194 10195 10196 10197
          10198 10199 10200 10201 10202 10203
          10204 10205 10206 10207 10208 10209
          10210 10211 10212 10213 10214 10215
          10216 10217 10218 10219 10220 10221
          10222 10223 10224 10225 10226 10227
          10228 10229 10230 10231 10232 10233
          10234 10235 10236 10237 10240 10241
          10243 10244 10247 10248 10250 10251
          10252 10253 10254 10255 10256 10257
          10258 10259 10260 10261 10262 10263
          10264 10265 10268 10269 10271 10272
          10275 10276 10278 10279 10280 10281
          10282 10283 10284 10285 10286 10287
          10288 10289 10290 10291 10292 10293
          10296 10297 10299 10300 10303 10304
          10306 10307 10308 10309 10310 10311
          10312 10313 10314 10315 10316 10317
          10318 10319 10320 10321 10324 10325
          10327 10328 10331 10332 10334 10335
          10336 10337 10338 10339 10340 10341
          10342 10343 10344 10345 10348 10350
          10351 10353 10354 10355 10356 10357
          10358 10359 10360 10361 10363 10365
          10367 10368 10369 10370 10371 10372
          10373 10374 10375 10376 10377 10378
          10379 10382 10384 10385 10387 10388
          10389 10390 10391 10392 10393 10394
          10395 10397 10399 10401 10470 10471
          10472 10473 10474 10475 10476 10477
          10479 10481 10483 10484 10485 10486
          10487 10488 10489 10490 10491 10493
          10495 10497 10498 10499 10500 10501
          10502 10503 10504 10505 10507 10509
          10511 10512 10513 10514 10515 10516
          10517 10519 10521 10523 10582 10583
          10584 10585 10586 10587 10588 10589
          10590 10591 10592 10593 10596 10598
          10599 10601 10602 10603 10604 10605
          10606 10607 10608 10609 10611 10613
          10615 10616 10617 10618 10619 10620
          10621 10622 10623 10624 10625 10626
          10627 10630 10632 10633 10635 10636
          10637 10638 10639 10640 10641 10642
          10643 10645 10647 10649 10718 10719
          10720 10721 10722 10723 10724 10725
          10727 10729 10731 10732 10733 10736
          10737 10739 10743 10746 10747 10748
          10749 10750 10751 10752 10753 10755
          10757 10759 10760 10761 10764 10765
          10767 10771
        </DataArray>
        <DataArray type="Float64" Name="bounds" format="ascii" RangeMin="0" RangeMax="0">
          0 0 0 0 0 0
          0 0 0 0 0 0
          0 0 0 0 0 0
          0 0 0 0 0 0
          0 0 0 0 0 0
          0 0 0 0 0 0
          0 0 0 0 0 0
          0 0 0 0 0 0
          0 0 0 0 0 0
          0 0 0 0 0 0
          0 0 0 0 0 0
          0 0 0 0 0 0
          0 0 0 0 0 0
          0 0 0 0 0 0
          0 0 0 0 0 0
          0 0 0 0 0 0
          0 0 0 0 0 0
          0 0 0 0 0 0
          0 0 0 0 0 0
          0 0 0 0 0 0
          0 0 0 0 0 0
          0 0 0 0 0 0
          0 0 0 0 0 0
          0 0 0 0 0 0
          0 0 0 0 0 0
          0 0 0 0 0 0
          0 0 0 0 0 0
          0 0 0 0 0 0
          0 0 0 0 0 0
          0 0 0 0 0 0
          0 0 0 0 0 0
          0 0 0 0 0 0
          0 0 0 0 0 0
          0 0 0 0 0 0
          0 0 0 0 0 0
          0 0 0 0 0 0
          0 0 0 0 0 0
          0 0 0 0 0 0
          0 0 0 0 0 0
          0 0 0 0 0 0
          0 0 0 0 0 0
          0 0 0 0 0 0
          0 0 0 0 0 0
          0 0 0 0 0 0
          0 0 0 0 0 0
          0 0 0 0 0 0
          0 0 0 0 0 0
          0 0 0 0 0 0
          0 0 0 0 0 0
          0 0 0 0 0 0
          0 0 0 0 0 0
          0 0 0 0 0 0
          0 0 0 0 0 0
          0 0 0 0 0 0
          0 0 0 0 0 0
          0 0 0 0 0 0
          0 0 0 0 0 0
          0 0 0 0 0 0
          0 0 0 0 0 0
          0 0 0 0 0 0
          0 0 0 0 0 0
          0 0 0 0 0 0
          0 0 0 0 0 0
          0 0 0 0 0 0
          0 0 0 0 0 0
          0 0 0 0 0 0
          0 0 0 0 0 0
          0 0 0 0 0 0
          0 0 0 0 0 0
          0 0 0 0 0 0
          0 0 0 0 0 0
          0 0 0 0 0 0
          0 0 0 0 0 0
          0 0 0 0 0 0
          0 0 0 0 0 0
          0 0 0 0 0 0
          0 0 0 0 0 0
          0 0 0 0 0 0
          0 0 0 0 0 0
          0 0 0 0 0 0
          0 0 0 0 0 0
          0 0 0 0 0 0
          0 0 0 0 0 0
          0 0 0 0 0 0
          0 0 0 0 0 0
          0 0 0 0 0 0
          0 0 0 0 0 0
          0 0 0 0 0 0
          0 0 0 0 0 0
          0 0 0 0 0 0
          0 0 0 0 0 0
          0 0 0 0 0 0
          0 0 0 0 0 0
          0 0 0 0 0 0
          0 0 0 0 0 0
          0 0 0 0 0 0
          0 0 0 0 0 0
          0 0 0 0 0 0
          0 0 0 0 0 0
          0 0 0 0 0 0
          0 0 0 0 0 0
          0 0 0 0 0 0
          0 0 0 0 0 0
          0 0 0 0 0 0
          0 0 0 0 0 0
          0 0 0 0 0 0
          0 0 0 0 0 0
          0 0 0 0 0 0
          0 0 0 0 0 0
          0 0 0 0 0 0
          0 0 0 0 0 0
          0 0 0 0 0 0
          0 0 0 0 0 0
          0 0 0 0 0 0
          0 0 0 0 0 0
          0 0 0 0 0 0
          0 0 0 0 0 0
          0 0 0 0 0 0
          0 0 0 0 0 0
          0 0 0 0 0 0
          0 0 0 0 0 0
          0 0 0 0 0 0
          0 0 0 0 0 0
          0 0 0 0 0 0
          0 0 0 0 0 0
          0 0 0 0 0 0
          0 0 0 0 0 0
          0 0 0 0 0 0
          0 0 0 0 0 0
          0 0 0 0 0 0
          0 0 0 0 0 0
          0 0 0 0 0 0
          0 0 0 0 0 0
          0 0 0 0 0 0
          0 0 0 0 0 0
          0 0 0 0 0 0
          0 0 0 0 0 0
          0 0 0 0 0 0
          0 0 0 0 0 0
          0 0 0 0 0 0
          0 0 0 0 0 0
          0 0 0 0 0 0
          0 0 0 0 0 0
          0 0 0 0 0 0
          0 0 0 0 0 0
          0 0 0 0 0 0
          0 0 0 0 0 0
          0 0 0 0 0 0
          0 0 0 0 0 0
          0 0 0 0 0 0
          0 0 0 0 0 0
          0 0 0 0 0 0
          0 0 0 0 0 0
          0 0 0 0 0 0
          0 0 0 0 0 0
          0 0 0 0 0 0
          0 0 0 0 0 0
          0 0 0 0 0 0
          0 0 0 0 0 0
          0 0 0 0 0 0
          0 0 0 0 0 0
          0 0 0 0 0 0
          0 0 0 0 0 0
          0 0 0 0 0 0
          0 0 0 0 0 0
          0 0 0 0 0 0
          0 0 0 0 0 0
          0 0 0 0 0 0
          0 0 0 0 0 0
          0 0 0 0 0 0
          0 0 0 0 0 0
          0 0 0 0 0 0
          0 0 0 0 0 0
          0 0 0 0 0 0
          0 0 0 0 0 0
          0 0 0 0 0 0
          0 0 0 0 0 0
          0 0 0 0 0 0
          0 0 0 0 0 0
          0 0 0 0 0 0
          0 0 0 0 0 0
          0 0 0 0 0 0
          0 0 0 0 0 0
          0 0 0 0 0 0
          0 0 0 0 0 0
          0 0 0 0 0 0
          0 0 0 0 0 0
          0 0 0 0 0 0
          0 0 0 0 0 0
          0 0 0 0 0 0
          0 0 0 0 0 0
          0 0 0 0 0 0
          0 0 0 0 0 0
          0 0 0 0 0 0
          0 0 0 0 0 0
          0 0 0 0 0 0
          0 0 0 0 0 0
          0 0 0 0 0 0
          0 0 0 0 0 0
          0 0 0 0 0 0
          0 0 0 0 0 0
          0 0 0 0 0 0
          0 0 0 0 0 0
          0 0 0 0 0 0
          0 0 0 0 0 0
          0 0 0 0 0 0
          0 0 0 0 0 0
          0 0 0 0 0 0
          0 0 0 0 0 0
          0 0 0 0 0 0
          0 0 0 0 0 0
          0 0 0 0 0 0
          0 0 0 0 0 0
          0 0 0 0 0 0
          0 0 0 0 0 0
          0 0 0 0 0 0
          0 0 0 0 0 0
          0 0 0 0 0 0
          0 0 0 0 0 0
          0 0 0 0 0 0
          0 0 0 0 0 0
          0 0 0 0 0 0
          0 0 0 0 0 0
          0 0 0 0 0 0
          0 0 0 0 0 0
          0 0 0 0 0 0
          0 0 0 0 0 0
          0 0 0 0 0 0
          0 0 0 0 0 0
          0 0 0 0 0 0
          0 0 0 0 0 0
          0 0 0 0 0 0
          0 0 0 0 0 0
          0 0 0 0 0 0
          0 0 0 0 0 0
          0 0 0 0 0 0
          0 0 0 0 0 0
          0 0 0 0 0 0
          0 0 0 0 0 0
          0 0 0 0 0 0
          0 0 0 0 0 0
          0 0 0 0 0 0
          0 0 0 0 0 0
          0 0 0 0 0 0
          0 0 0 0 0 0
          0 0 0 0 0 0
          0 0 0 0 0 0
          0 0 0 0 0 0
          0 0 0 0 0 0
          0 0 0 0 0 0
          0 0 0 0 0 0
          0 0 0 0 0 0
          0 0 0 0 0 0
          0 0 0 0 0 0
          0 0 0 0 0 0
          0 0
        </DataArray>
        <DataArray type="Float64" Name="gradient_error" format="ascii" RangeMin="1.421106920233909e-12" RangeMax="2.660729249962742e-8">
          1.991079155671584e-11 2.0923513641376405e-9 4.522739588720588e-9 4.672767573617593e-11 1.1175280942033399e-10 2.2392415113034914e-11
          3.1361445948678064e-9 1.6399020514037242e-9 1.1652465285744373e-9 1.949020260176003e-10 4.742852727682438e-10 1.9118752620011825e-10
          3.5711583789796335e-11 6.411599371408336e-11 1.4118050050024407e-10 5.198693823520003e-11 1.4968291688254323e-11 2.4778208868499086e-11
          1.9631544241808124e-9 1.5837158844586663e-9 1.2945506939353744e-9 6.066930162477167e-11 6.152707506421723e-11 4.927584993457064e-10
          4.320322585638257e-10 1.546976404119426e-11 2.098441190256848e-11 6.037459976155376e-11 6.595538919970042e-11 1.421106920233909e-12
          1.7125812390240698e-12 6.196300545839471e-12 1.4575625209099363e-11 6.789797837398417e-12 6.608897160376349e-12 1.7373595519353133e-11
          5.374050559262588e-9 2.660729249962742e-8 2.3342597240229565e-8 1.5394554483914194e-8 3.801366748076389e-9 3.391232904219e-9
          2.0532248088097807e-8 1.788391989484251e-8 1.430604190254782e-9 9.925045801680627e-9 8.592574482125373e-9 2.4680063193107362e-9
          1.1472265049303187e-8 5.388838109788226e-9 5.475425582317324e-10 4.853231665926724e-10 9.076315411772685e-10 7.798258561028567e-10
          8.66462240445116e-11 1.0309863738044168e-10 2.098093660508155e-10 5.09850862777845e-10 6.419970518489588e-10 2.7605314928048797e-10
          3.9053574824499206e-9 3.226714389307961e-9 3.7874306993947303e-10 3.391599165863876e-9 2.677970337759466e-9 2.5803118163542536e-9
          2.527236335839079e-11 8.456628552572598e-11 4.7155542959756204e-11 1.3930740021328051e-10 6.444208856458266e-11 6.088051862601179e-11
          9.983026743388376e-11 1.4623085113819159e-10 1.7046683478919757e-10 7.879584399020435e-11 2.7398887154557967e-10 2.1556770828789846e-10
          1.0977529094141383e-10 1.0478412919934905e-10 6.957603201875567e-11 6.234828486567187e-11 6.287327766781691e-11 5.3740892526487856e-11
          4.3116133362520976e-11 3.350507581114562e-11 2.5072005775301523e-9 1.941773117820504e-9 1.6525700749046112e-9 1.2738867449615476e-9
          1.5907499608045433e-9 2.548897398352038e-9 2.0441836652528323e-9 2.1184662687521846e-9 2.021482642090712e-9 3.019304641597801e-9
          2.88429144340888e-9 5.785401846296986e-10 1.445967021978371e-9 1.380660045612345e-9 1.7554528643560403e-9 2.5308458150948225e-9
          1.1992872748731037e-9 7.482464716303935e-9 7.13479042126039e-9 3.721092689884354e-9 6.215387777329083e-9 1.4589995971129906e-10
          1.3685998139592518e-10 1.9188327562949626e-10 1.8186790216896842e-10 9.417291481882399e-11 1.3863395229452078e-10 1.310782903452202e-10
          1.7362334264409268e-10 2.0400294804632107e-10 1.9893044463894044e-10 6.09854808079772e-10 5.779955441767502e-10 4.483819006067742e-10
          4.920295216917991e-10 1.3541651393345083e-9 2.0054249274489218e-9 4.676745697233546e-10 1.0013834969116763e-9 4.994161256606735e-9
          2.552224175770537e-9 2.4785872061891845e-10 2.63902793883102e-10 2.8061555132620134e-10 2.4224376257263824e-10 2.8844209370928895e-10
          1.7061182466898481e-10 3.752058142559698e-10 2.850679768121946e-10 1.3718266502592003e-9 1.297102111804443e-9 1.0958531272983098e-9
          3.1975742945294103e-9 8.247864762208099e-10 1.9795953022701234e-9 4.509464958298919e-9 4.410805593724636e-9 4.09780442252969e-9
          2.316550658769082e-9 3.3843070158266164e-9 2.9840850876065496e-9 7.0345944757557e-11 6.369194425269296e-11 1.0072529046492279e-10
          9.505190184574363e-11 4.300947746288744e-11 7.171312186295578e-11 6.740803764517558e-11 1.4145625360322384e-10 1.427452339089832e-10
          9.970909160436794e-11 3.6506815173106195e-10 3.4445866872236246e-10 2.5813643311718704e-10 2.891958964228017e-10 2.973006108855625e-11
          4.384392157250774e-11 4.963537727999943e-11 6.056638515585034e-11 6.868804947213557e-11 5.501293500186702e-11 6.693768276592529e-11
          8.558706591399189e-11 8.331959352299605e-11 7.161611106840347e-11 1.9976598549331005e-10 1.8782784223067004e-10 1.325732193420341e-10
          1.5610821835644814e-10 2.649837330911704e-10 1.72516632613991e-10 1.8251953431056104e-10 1.196534197229586e-10 1.8595814184553862e-10
          1.2005428387388156e-10 8.302457723867652e-11 2.1568235847342915e-10 1.5948983143461964e-10 1.4303785278058515e-10 1.2415956573568013e-10
          8.18206567978589e-11 8.33430835943831e-11 5.5007586902333004e-11 8.672075772063184e-11 5.6600742871622253e-11 3.772026795305131e-11
          1.1474961887606907e-10 8.027538852152518e-11 7.479824072952348e-11 8.726360137818033e-11 8.311461842113756e-11 5.875730962506767e-11
          5.5766483540381414e-11 5.315790770507e-11 3.777951890617585e-11 3.5700749644662276e-11 7.128556520663171e-11 4.7501109488400215e-11
          3.018968927882603e-11 9.679668967127507e-11 9.079079592042199e-11 7.49746258933766e-11 5.4579502072302265e-11 3.6115777955139836e-11
          3.456423957378619e-11 2.294369924575259e-11 3.750479522174698e-11 2.4626067155011654e-11 1.5699908928786432e-11 5.4604785378690826e-11
          3.516981961538727e-11 1.1317329299263174e-9 1.0679611523007812e-9 9.091686771072315e-10 8.558591062714555e-10 8.963134506502553e-10
          7.130144476180616e-10 2.952580796858532e-9 2.7791558694174094e-9 2.3508185652295903e-9 2.3078092904952153e-9 7.078881339964587e-10
          6.647421262171833e-10 5.331295829948351e-10 4.99396556230857e-10 5.496970218239714e-10 4.099735990129936e-10 2.0624689205622346e-9
          1.932340040955404e-9 1.5486671673803833e-9 1.593986886730889e-9 6.663956553940192e-10 5.236403696778599e-10 4.3644128949384265e-10
          3.3741329466937955e-10 1.6977075154900988e-9 1.4214842419444371e-9 3.9889172006753073e-10 2.941685757565785e-10 2.5318835690549734e-10
          1.8421031621165492e-10 1.1575910868233113e-9 9.137092506765389e-10 4.249143274863056e-9 4.1585734617437825e-9 4.005119120684346e-9
          3.917908619484125e-9 3.834311004167804e-9 3.508096303263183e-9 1.9262428076124545e-9 2.0107568135285207e-9 1.878846648863574e-9
          2.5018405086764644e-9 3.7443099020186985e-9 3.579572732759873e-9 3.17789973200464e-9 2.98243558977566e-9 3.0177335047687404e-9
          2.4551447630818384e-9 1.8229541903124826e-9 2.126655518150409e-9 2.0426371073762117e-9 2.4328328624037592e-9 3.0490621197158942e-9
          2.6304899598657667e-9 2.8262308622182087e-9 2.5252408885053718e-9 2.194195847421579e-9 1.7988440486349857e-9 2.1103211869175432e-9
          1.7064534135883293e-9 3.8776746336105497e-10 3.6235980564928254e-10 2.9544921770559975e-10 1.2921127741805891e-9 1.2086951231778748e-9
          9.864144100704308e-10 2.0986903640704026e-10 1.2991305230525857e-10 6.965513910336155e-10 2.5135817145368957e-9 2.3576745434819235e-9
          1.9602363278559344e-9 1.6472599894377018e-9 1.6764402285415973e-9 1.6061906717626473e-9 1.4482770849330427e-9 1.3873886340407022e-9
          8.926658233188807e-11 1.349962626964015e-10 1.1472346615118467e-10 9.445066960596784e-11 6.906766620665384e-11 6.169839105175566e-11
          8.566885323710718e-11 7.568126992389313e-11 2.081316775730314e-11 3.101547348951194e-11 2.7933816413045766e-11 5.4329115896857475e-11
          6.569368661067907e-11 2.4852159336579606e-11 4.223373020595315e-12 5.760935330344422e-12 1.7516339281284184e-11 1.3707404439236367e-11
          4.025734917705818e-12 9.34317536135737e-12 8.186249748982773e-12 7.29849764009353e-12 9.898469597188549e-12 7.029324136608176e-12
          1.6705483249834918e-10 2.1515103376417276e-10 2.052602080098135e-10 1.7993587412638344e-10 1.214319876323167e-10 1.19554613798283e-10
          1.720979817922534e-10 1.636322246455614e-10 5.686194807536051e-11 1.053121692832551e-10 9.970975994282787e-11 1.1082910189211642e-10
          1.4078265637798562e-10 9.217000857389741e-11 1.1813172508728094e-10 1.4086413881861254e-10 1.1722591163991247e-10 9.215356770486468e-11
          1.103312129511601e-10 6.617541032244842e-11 7.979828708370764e-11 8.03261715897458e-11 9.426358064521837e-11 7.13012496505243e-11
          2.916167430419781e-11 3.503118166557804e-11 6.801658528260107e-11 6.506341438463411e-11 2.4182380619950764e-11 4.522818174591366e-11
          4.36472173478137e-11 4.090068902695827e-11 6.211024348666714e-11 4.2066252949713744e-11 1.5402866092790924e-11 1.7910012887717173e-11
          2.910014570752306e-11 2.808894605920839e-11 1.5848126814184664e-11 2.2197689742244785e-11 2.1595007587711142e-11 2.0417159682643422e-11
          2.7077746410893713e-11 2.09923254331775e-11 1.1530285956863371e-10 1.36769706939273e-10 1.3527152420838984e-10 1.30860482500253e-10
          2.639682198323005e-10 1.056385347840015e-10 1.2292701292564611e-10 1.1251442006274311e-10 2.379486937632618e-10 4.3671269949883594e-10
          4.3067113388812503e-10 4.147708744603983e-10 7.637794792268079e-10 3.890973694113341e-10 3.5613350148234743e-10 6.89558447638935e-10
          9.645302376073793e-11 9.52656274647765e-11 1.244896821712955e-10 1.2300606557617436e-10 6.788271739672709e-11 1.020147418594417e-10
          1.0059065353634027e-10 9.23954279104293e-11 1.188961878454036e-10 9.715800169079897e-11 2.37887952275579e-10 2.347985121182788e-10
          1.8938138323247035e-10 2.2588971432456195e-10 5.68675948337384e-11 5.5727856578184773e-11 8.460153582269363e-11 8.331440451989492e-11
          4.691767321914341e-11 7.142632868912892e-11 7.03157540192677e-11 5.426459697045509e-11 8.04839425202334e-11 6.791126604032778e-11
          1.6247720208601827e-10 1.603072970360393e-10 1.3675184410402587e-10 1.5380463921633857e-10 8.911496490722656e-11 1.1163809993216195e-10
          6.71010406609496e-11 9.129107101567514e-11 8.491267209381165e-11 1.016833515046605e-10 8.68212765460971e-11 2.1102498937864897e-10
          1.6878166875560288e-10 1.9151891090437526e-10 5.732221422939745e-11 7.610523833146752e-11 4.8925971019030686e-11 6.457760234249373e-11
          6.070335284051585e-11 7.326986483956446e-11 6.253785195373837e-11 1.4184572877180586e-10 1.206027209474804e-10 1.4454905942881722e-10
          4.061737408516364e-10 4.006668142313627e-10 3.4901361263160095e-10 3.4433743461816104e-10 3.8541086359520934e-10 3.305969763027883e-10
          7.117073852631727e-10 7.019972819323349e-10 6.017133847329359e-10 6.753264833542285e-10 3.009567560298044e-10 2.968283865137129e-10
          2.6095373265385766e-10 2.5730668074518567e-10 2.847030652275866e-10 2.46597677808798e-10 5.375481027471575e-10 5.30186328218226e-10
          4.676617029872394e-10 5.087717844424327e-10 3.616945998555243e-10 3.101757236262498e-10 3.3134438596908997e-10 2.8416730358166644e-10
          6.327772077782904e-10 5.405602462121296e-10 5.778236711522969e-10 2.6650002866468636e-10 2.3023428331395233e-10 2.433060589736352e-10
          2.0936341738390436e-10 4.749698104668068e-10 4.1799439692931167e-10 4.3121713269935583e-10 8.832503865362182e-11 9.934638550470395e-11
          9.157033321221466e-11 1.9179410852234309e-10 3.1818721203645905e-10 2.7653026441776873e-10 5.626011534029901e-10 7.872545459923222e-11
          8.998619424029032e-11 6.912587054484263e-11 8.062600297587671e-11 7.514287017325077e-11 8.361195862582956e-11 7.565358403944446e-11
          1.6856990449922885e-10 1.5264389262868772e-10 1.6659719641619777e-10 2.95330368567719e-10 2.520388431915816e-10 2.5563068133577923e-10
          2.1648265290240066e-10 5.141854922887147e-10 4.3571179552818824e-10 4.4480948426371156e-10 1.5365494520849603e-10 2.149268207984118e-10
          1.2954765682510105e-10 1.844257809641446e-10 1.3064133801408193e-10 1.8384674176960444e-10 1.5753555322141225e-10 3.8057566594528517e-10
          3.3340482837291957e-10 3.263956307188777e-10 9.19878540876409e-11 1.3118221461793448e-10 1.0641043845102754e-10 2.367959920766672e-10
          1.0240882648377588e-9 1.0104272003332451e-9 9.704321679232676e-10 9.190524375359209e-10 9.065288311021829e-10 8.256842463857428e-10
          8.142082953180006e-10 8.699243497911195e-10 7.80683883848196e-10 1.3527581903801883e-9 9.07200959511547e-10 8.252832211939064e-10
          8.120264155960438e-10 7.277020812822326e-10 7.371059359167467e-10 6.592181593099755e-10 1.2092583233700637e-9 2.2028790208583127e-9
          2.170251109888794e-9 2.075692157942516e-9 3.3414475387460526e-9 1.928605709389276e-9 1.7423659171736004e-9 2.972059112192043e-9
          7.30350571382598e-10 6.285630959673315e-10 6.504048839385269e-10 5.801200909101138e-10 5.576101963187749e-10 4.956991619918405e-10
          9.64852895341361e-10 4.1110249872121365e-10 3.308300188353431e-10 6.839649989820368e-10 1.531379847586512e-9 1.3084985733588341e-9
          2.3365783763873532e-9 1.0851529274040381e-9 1.633653898685234e-9 4.557400365741975e-9 4.506775824297289e-9 4.350745403681419e-9
          4.485028392605011e-9 4.0859054324527e-9 3.725636656725629e-9 4.2862061208022e-9 3.037599496302375e-9 3.069503040253929e-9