<?xml version="1.0"?>
<VTKFile type="UnstructuredGrid" version="0.1" byte_order="LittleEndian" header_type="UInt32" compressor="vtkZLibDataCompressor">
  <UnstructuredGrid>
    <Piece NumberOfPoints="1532" NumberOfCells="1042">
      <PointData>
        <DataArray type="Int32" Name="libmesh_node_id" format="ascii" RangeMin="2055" RangeMax="14253">
          2055 2178 2184 2186 2187 2188
          2404 2407 2415 2419 2420 2421
          2424 2425 2428 2429 2432 2434
          2436 2437 2438 2439 2440 2441
          2442 2443 2444 2445 2474 2475
          2478 2479 2483 2659 2668 3214
          3215 3218 3220 3252 3269 3283
          3284 3285 3286 3287 3288 3289
          3290 3291 3292 3293 3294 3295
          3296 3297 3298 3299 3300 3301
          3302 3303 3318 3319 3323 3324
          3325 3326 3327 3328 3329 3330
          3331 3332 3333 3334 3335 3336
          3337 3338 3339 3340 3341 3342
          3343 3344 3345 3346 3347 3348
          3349 3350 3351 3352 3353 3354
          3355 3356 3357 3358 3359 3360
          3361 3520 3523 3524 3525 3526
          3528 3682 3684 3689 3727 3729
          3733 3734 3737 3743 3841 3842
          3843 3844 3845 3846 3847 3848
          3849 3850 3851 3852 3853 3854
          3855 3856 3857 3858 3859 3860
          3861 3862 3863 3864 3876 3877
          3878 3886 3887 3888 3889 3890
          3891 3892 3893 3894 3895 4498
          4534 4535 4536 4539 4545 4549
          4550 4551 4552 4553 4554 4555
          4556 4557 4558 4559 4560 4561
          4562 4563 4564 4565 4566 4567
          4568 4569 4570 4571 4572 4573
          4574 4575 4576 4577 4578 4579
          4580 4581 4582 4583 4584 4585
          4586 4587 4588 4589 4590 4591
          4592 4593 4594 4595 4596 4597
          4686 4687 4688 4689 4690 4691
          4692 4693 4695 4696 4697 4699
          4722 4723 4726 4729 4730 4733
          4737 4738 4740 4742 4743 4744
          4753 4755 4757 4759 4760 4761
          4762 4763 4764 4765 4766 4767
          4768 4769 4770 4771 4772 4773
          4774 4775 4776 4777 4778 4779
          4780 4781 4782 4783 4784 4785
          4786 4787 4788 4789 4790 4791
          4792 4793 4794 4795 4796 4797
          4798 4799 4800 4801 4802 4803
          4804 4805 4806 4807 4808 4809
          4810 4811 4812 4813 4814 4815
          4816 4817 4818 4819 4820 4821
          4822 4823 4824 4825 4826 4827
          4828 4829 4830 4831 4832 4833
          4834 4835 4836 4837 4838 4839
          4840 4841 4842 4843 4844 4845
          4846 4847 4848 4849 4850 4851
          4852 4853 4854 4855 4856 4857
          4858 4859 4860 4861 4862 4863
          4864 4865 4866 4867 4868 4869
          4870 4871 4872 4873 4874 4875
          4876 4877 4878 4879 4880 4881
          4882 5003 5668 5669 5672 5673
          5675 5677 5688 5690 5691 5692
          5694 5702 5703 5704 5705 5706
          5707 5708 5709 5710 5711 5716
          6218 6219 6220 6221 6222 6223
          6224 6225 6226 6227 6283 6284
          6285 6286 6287 6288 6289 6290
          6292 6294 6295 6296 6399 6400
          6401 6402 6403 6404 6405 6406
          6407 6408 6430 6431 6434 6435
          7968 7969 7970 7971 7999 8000
          8001 8002 8003 8004 8005 8006
          8007 8008 8009 8010 8013 8014
          8016 8018 8019 8020 8021 8022
          8023 8024 8025 8026 8027 8028
          8029 8030 8031 8032 8033 8034
          8035 8036 8037 8038 8039 8040
          8041 8042 8043 8044 8045 8046
          8047 8048 8049 8050 8051 8052
          8053 8054 8055 8056 8057 8058
          8059 8060 8061 8062 8063 8064
          8065 8066 8067 8068 8069 8070
          8071 8072 8073 8074 8075 8076
          8077 8078 8079 8080 8081 8082
          8083 8084 8085 8086 8087 8088
          8089 8090 8458 8460 8461 8462
          8467 8471 8472 8473 8476 8480
          8487 8488 8489 8490 8491 8492
          8493 8494 8495 8497 8499 8501
          8504 8505 8508 8511 8515 8516
          8517 8518 8519 8520 8521 8522
          8523 8525 8526 8527 8529 8684
          8712 8730 8731 8732 8733 8734
          8735 8736 8737 8739 8740 8741
          8743 8758 8759 8760 8761 8762
          8763 8764 8765 8767 8768 8769
          8771 8772 8773 8774 8775 8776
          8777 8778 8779 8780 8781 8782
          8783 8784 8785 8786 8787 8788
          8789 8790 8791 8792 8793 8794
          8795 8796 8797 8798 8799 8800
          8801 8802 8803 8804 8805 8806
          8807 8808 8809 8810 8811 8812
          8813 8814 8815 8816 8817 8818
          8819 8820 8821 8822 8823 8824
          8825 8826 8827 8828 8829 8830
          8831 8832 8833 8834 8835 8836
          8837 8838 8839 8840 8841 8842
          8843 8844 8845 8846 8847 8848
          8849 8850 8851 8852 8853 8854
          8855 8856 8857 8858 8859 8860
          8861 8862 8863 8864 8865 8866
          8867 8868 8869 8870 8871 8872
          8873 8874 8875 8876 8877 8878
          8879 8880 8881 8882 8883 8884
          8885 8886 8887 8888 8889 8890
          8891 8892 8893 8894 8895 8896
          8897 8898 8899 8900 8901 8902
          8903 8904 8905 8906 8907 8908
          8909 8910 8911 8912 8913 8914
          8915 8916 8917 8918 8919 8920
          8921 8922 8923 8924 8925 8926
          8927 8928 8929 8930 8931 8932
          8933 8934 8935 8936 8937 8938
          8939 8940 8941 8942 8943 8944
          8945 8946 8947 8948 8949 8950
          8951 8952 8953 8954 8955 8956
          8957 8958 8959 8960 8961 8962
          8963 8964 8965 8966 8967 8968
          8969 8970 8971 8972 8973 8974
          8975 8976 8977 8978 8979 8980
          8981 8982 8983 8984 8985 8986
          8987 8988 8989 8990 8991 8992
          8993 8994 8995 8996 8997 8998
          8999 9000 9001 9002 9003 9004
          9005 9006 9007 9008 9009 9010
          9011 9012 9013 9014 9015 9016
          9017 9018 9019 9020 9021 9022
          9023 9024 9025 9026 9027 9028
          9029 9030 9031 9032 9033 9034
          9035 9036 9037 9038 9039 9040
          9041 9042 9043 9044 9045 9046
          9047 9048 9049 9050 9051 9052
          9053 9054 9055 9056 9057 9058
          9059 9060 9061 9062 9063 9064
          9065 9066 9067 9068 9069 9070
          9071 9072 9073 9074 9075 9076
          9077 9078 9079 9080 9081 9082
          9083 9084 9085 9086 9087 9088
          9089 9090 9091 9092 9093 9094
          9095 9096 9097 9098 9099 9100
          9101 9102 9103 9104 9105 9106
          9107 9108 9109 9110 9111 9112
          9113 9114 9115 9116 9117 9118
          9119 9120 9121 9122 9123 9124
          9125 9126 9127 9128 9129 9130
          9131 9132 9133 9134 9135 9136
          9137 9138 9139 9140 9141 9142
          9143 9144 9145 9146 9147 9148
          9149 9150 9151 9152 9153 9154
          9155 9156 9157 9158 9159 9160
          9161 9162 9163 9164 9165 9166
          9167 9168 9169 9170 9171 9172
          9173 9174 9175 9176 9177 9178
          9179 9180 9181 9182 9183 9184
          9185 9186 9187 9188 9189 9190
          9191 9192 9193 9194 9195 9196
          9197 9198 9199 9200 9201 9202
          9203 9204 9205 9206 9207 9208
          9209 9210 9211 9212 9213 9214
          9215 9216 9217 9218 9219 9220
          9221 9222 9223 9224 9638 9639
          9642 9643 9645 9647 9658 9659
          9662 9663 9665 9667 9718 9719
          9722 9723 9725 9727 9994 10018
          10022 10238 10242 10266 10270 10830
          10832 10834 10836 10844 10846 10848
          10850 10858 10860 10862 10864 10872
          10874 10876 10878 10942 10944 10946
          10948 10956 10957 10960 10961 10963
          10965 10976 10978 10980 10982 10990
          10992 10994 10996 11066 11068 11070
          11072 11080 11082 11084 11086 11094
          11096 11098 11100 11108 11110 11112
          11114 11178 11180 11182 11184 11192
          11194 11196 11198 11206 11208 11210
          11212 11220 11222 11224 11226 13990
          13991 13992 13993 13994 13995 13996
          13997 13998 13999 14000 14001 14004
          14005 14007 14009 14010 14011 14012
          14013 14014 14015 14016 14017 14019
          14021 14023 14024 14025 14026 14027
          14028 14029 14030 14031 14032 14033
          14034 14035 14038 14039 14040 14041
          14043 14098 14099 14100 14101 14102
          14103 14104 14105 14107 14109 14111
          14112 14113 14114 14115 14116 14117
          14118 14119 14121 14122 14123 14125
          14126 14127 14128 14129 14130 14131
          14132 14133 14135 14137 14139 14140
          14141 14142 14143 14144 14145 14146
          14147 14148 14149 14150 14151 14152
          14153 14210 14211 14212 14213 14214
          14215 14216 14217 14218 14219 14220
          14221 14222 14223 14224 14225 14226
          14227 14228 14229 14230 14231 14232
          14233 14234 14235 14236 14237 14238
          14239 14240 14241 14242 14243 14244
          14245 14248 14249 14251 14253 2656
          2663 2402 2413 2666 2669 2416
          2181 3263 3197 3264 3265 3277
          3278 3279 3369 3390 3370 3391
          3394 3395 2678 2453 3872 3873
          3874 3875 3519 3521 2481 4530
          4532 4531 4533 4537 4538 4540
          4544 4541 4542 4543 4546 4915
          4979 4916 4980 4983 4984 4999
          5000 5004 5001 5002 5005 5006
          5008 5670 5671 5674 5687 5712
          5697 5713 5717 5714 5715 5718
          5719 5721 5682 5683 6291 5684
          6293 6432 6433 6436 3399 7981
          7966 7984 7985 7988 4547 7993
          7994 8011 7995 8012 8015 7998
          4548 8017 2418 8477 8483 8484
          8496 8498 4694 8500 8512 8524
          4698 8528 8738 8742 8766 8770
          9406 9407 9640 9408 9641 9644
          9411 4920 9646 4986 9660 9661
          9664 9666 4988 9720 9721 9724
          9726 9988 9990 9992 9989 9991
          9993 5061 10016 10017 10019 10020
          10021 5065 10236 10237 10239 10240
          10241 5095 10264 10265 10267 10268
          10269 5099 10831 10833 10835 5175
          10845 10847 10849 5177 10859 10861
          10863 5179 10873 10875 10877 5181
          10943 10945 10947 5189 10958 10959
          10962 10964 5191 10977 10979 10981
          5193 10991 10993 10995 5195 11067
          11069 11071 5203 11081 11083 11085
          5205 11095 11097 11099 5207 11109
          11111 11113 5209 11179 11181 11183
          5217 11193 11195 11197 5219 11207
          11209 11211 5221 11221 11223 11225
          5223 10970 10971 14002 10972 14003
          14006 10975 5192 14008 10999 11000
          14018 14020 11003 3432 14022 5676
          14036 14037 14042 14078 14082 14079
          14083 14085 14087 11201 11202 14106
          14108 11205 5220 14110 5689 14120
          14124 11229 11230 14134 14136 11233
          3436 14138 5693 14168 14170 14172
          14174 14160 14184 14196 14198 14188
          14200 14202 14246 14199 14247 14250
          5701 14252
        </DataArray>
        <DataArray type="Float64" Name="bounds" format="ascii" RangeMin="0" RangeMax="0">
          0 0 0 0 0 0
          0 0 0 0 0 0
          0 0 0 0 0 0
          0 0 0 0 0 0
          0 0 0 0 0 0
          0 0 0 0 0 0
          0 0 0 0 0 0
          0 0 0 0 0 0
          0 0 0 0 0 0
          0 0 0 0 0 0
          0 0 0 0 0 0
          0 0 0 0 0 0
          0 0 0 0 0 0
          0 0 0 0 0 0
          0 0 0 0 0 0
          0 0 0 0 0 0
          0 0 0 0 0 0
          0 0 0 0 0 0
          0 0 0 0 0 0
          0 0 0 0 0 0
          0 0 0 0 0 0
          0 0 0 0 0 0
          0 0 0 0 0 0
          0 0 0 0 0 0
          0 0 0 0 0 0
          0 0 0 0 0 0
          0 0 0 0 0 0
          0 0 0 0 0 0
          0 0 0 0 0 0
          0 0 0 0 0 0
          0 0 0 0 0 0
          0 0 0 0 0 0
          0 0 0 0 0 0
          0 0 0 0 0 0
          0 0 0 0 0 0
          0 0 0 0 0 0
          0 0 0 0 0 0
          0 0 0 0 0 0
          0 0 0 0 0 0
          0 0 0 0 0 0
          0 0 0 0 0 0
          0 0 0 0 0 0
          0 0 0 0 0 0
          0 0 0 0 0 0
          0 0 0 0 0 0
          0 0 0 0 0 0
          0 0 0 0 0 0
          0 0 0 0 0 0
          0 0 0 0 0 0
          0 0 0 0 0 0
          0 0 0 0 0 0
          0 0 0 0 0 0
          0 0 0 0 0 0
          0 0 0 0 0 0
          0 0 0 0 0 0
          0 0 0 0 0 0
          0 0 0 0 0 0
          0 0 0 0 0 0
          0 0 0 0 0 0
          0 0 0 0 0 0
          0 0 0 0 0 0
          0 0 0 0 0 0
          0 0 0 0 0 0
          0 0 0 0 0 0
          0 0 0 0 0 0
          0 0 0 0 0 0
          0 0 0 0 0 0
          0 0 0 0 0 0
          0 0 0 0 0 0
          0 0 0 0 0 0
          0 0 0 0 0 0
          0 0 0 0 0 0
          0 0 0 0 0 0
          0 0 0 0 0 0
          0 0 0 0 0 0
          0 0 0 0 0 0
          0 0 0 0 0 0
          0 0 0 0 0 0
          0 0 0 0 0 0
          0 0 0 0 0 0
          0 0 0 0 0 0
          0 0 0 0 0 0
          0 0 0 0 0 0
          0 0 0 0 0 0
          0 0 0 0 0 0
          0 0 0 0 0 0
          0 0 0 0 0 0
          0 0 0 0 0 0
          0 0 0 0 0 0
          0 0 0 0 0 0
          0 0 0 0 0 0
          0 0 0 0 0 0
          0 0 0 0 0 0
          0 0 0 0 0 0
          0 0 0 0 0 0
          0 0 0 0 0 0
          0 0 0 0 0 0
          0 0 0 0 0 0
          0 0 0 0 0 0
          0 0 0 0 0 0
          0 0 0 0 0 0
          0 0 0 0 0 0
          0 0 0 0 0 0
          0 0 0 0 0 0
          0 0 0 0 0 0
          0 0 0 0 0 0
          0 0 0 0 0 0
          0 0 0 0 0 0
          0 0 0 0 0 0
          0 0 0 0 0 0
          0 0 0 0 0 0
          0 0 0 0 0 0
          0 0 0 0 0 0
          0 0 0 0 0 0
          0 0 0 0 0 0
          0 0 0 0 0 0
          0 0 0 0 0 0
          0 0 0 0 0 0
          0 0 0 0 0 0
          0 0 0 0 0 0
          0 0 0 0 0 0
          0 0 0 0 0 0
          0 0 0 0 0 0
          0 0 0 0 0 0
          0 0 0 0 0 0
          0 0 0 0 0 0
          0 0 0 0 0 0
          0 0 0 0 0 0
          0 0 0 0 0 0
          0 0 0 0 0 0
          0 0 0 0 0 0
          0 0 0 0 0 0
          0 0 0 0 0 0
          0 0 0 0 0 0
          0 0 0 0 0 0
          0 0 0 0 0 0
          0 0 0 0 0 0
          0 0 0 0 0 0
          0 0 0 0 0 0
          0 0 0 0 0 0
          0 0 0 0 0 0
          0 0 0 0 0 0
          0 0 0 0 0 0
          0 0 0 0 0 0
          0 0 0 0 0 0
          0 0 0 0 0 0
          0 0 0 0 0 0
          0 0 0 0 0 0
          0 0 0 0 0 0
          0 0 0 0 0 0
          0 0 0 0 0 0
          0 0 0 0 0 0
          0 0 0 0 0 0
          0 0 0 0 0 0
          0 0 0 0 0 0
          0 0 0 0 0 0
          0 0 0 0 0 0
          0 0 0 0 0 0
          0 0 0 0 0 0
          0 0 0 0 0 0
          0 0 0 0 0 0
          0 0 0 0 0 0
          0 0 0 0 0 0
          0 0 0 0 0 0
          0 0 0 0 0 0
          0 0 0 0 0 0
          0 0 0 0 0 0
          0 0 0 0 0 0
          0 0 0 0 0 0
          0 0 0 0 0 0
          0 0 0 0 0 0
          0 0 0 0 0 0
          0 0 0 0 0 0
          0 0 0 0 0 0
          0 0 0 0 0 0
          0 0 0 0 0 0
          0 0 0 0 0 0
          0 0 0 0 0 0
          0 0 0 0 0 0
          0 0 0 0 0 0
          0 0 0 0 0 0
          0 0 0 0 0 0
          0 0 0 0 0 0
          0 0 0 0 0 0
          0 0 0 0 0 0
          0 0 0 0 0 0
          0 0 0 0 0 0
          0 0 0 0 0 0
          0 0 0 0 0 0
          0 0 0 0 0 0
          0 0 0 0 0 0
          0 0 0 0 0 0
          0 0 0 0 0 0
          0 0 0 0 0 0
          0 0 0 0 0 0
          0 0 0 0 0 0
          0 0 0 0 0 0
          0 0 0 0 0 0
          0 0 0 0 0 0
          0 0 0 0 0 0
          0 0 0 0 0 0
          0 0 0 0 0 0
          0 0 0 0 0 0
          0 0 0 0 0 0
          0 0 0 0 0 0
          0 0 0 0 0 0
          0 0 0 0 0 0
          0 0 0 0 0 0
          0 0 0 0 0 0
          0 0 0 0 0 0
          0 0 0 0 0 0
          0 0 0 0 0 0
          0 0 0 0 0 0
          0 0 0 0 0 0
          0 0 0 0 0 0
          0 0 0 0 0 0
          0 0 0 0 0 0
          0 0 0 0 0 0
          0 0 0 0 0 0
          0 0 0 0 0 0
          0 0 0 0 0 0
          0 0 0 0 0 0
          0 0 0 0 0 0
          0 0 0 0 0 0
          0 0 0 0 0 0
          0 0 0 0 0 0
          0 0 0 0 0 0
          0 0 0 0 0 0
          0 0 0 0 0 0
          0 0 0 0 0 0
          0 0 0 0 0 0
          0 0 0 0 0 0
          0 0 0 0 0 0
          0 0 0 0 0 0
          0 0 0 0 0 0
          0 0 0 0 0 0
          0 0 0 0 0 0
          0 0 0 0 0 0
          0 0 0 0 0 0
          0 0 0 0 0 0
          0 0 0 0 0 0
          0 0 0 0 0 0
          0 0 0 0 0 0
          0 0 0 0 0 0
          0 0 0 0 0 0
          0 0 0 0 0 0
          0 0 0 0 0 0
          0 0 0 0 0 0
          0 0 0 0 0 0
          0 0 0 0 0 0
          0 0 0 0 0 0
          0 0 0 0 0 0
          0 0 0 0 0 0
          0 0 0 0 0 0
          0 0 0 0 0 0
          0 0
        </DataArray>
        <DataArray type="Float64" Name="gradient_error" format="ascii" RangeMin="1.6090523631650617e-12" RangeMax="4.10735797362325e-8">
          3.6298120923924846e-11 3.7907878561959865e-9 2.7533409080698245e-11 4.10735797362325e-8 1.3236364403143215e-10 1.4058857447988536e-9
          3.396791478997906e-8 1.9118944348814364e-8 1.4515856943887048e-8 1.336632369541168e-9 4.74647218237707e-9 4.5377599544793966e-11
          2.435779229741818e-9 1.3256418569574412e-8 3.0141850919325985e-9 1.0863187036139415e-8 7.670631253944132e-10 1.6547394015483414e-8
          1.0400785556874399e-9 1.3975445549123026e-9 4.385761699018859e-11 3.663194445254752e-11 7.946234032518434e-11 2.90655551656121e-10
          3.438669250968052e-11 8.580947973565873e-10 2.5396408094503012e-11 5.222931101404757e-10 1.2962943488544343e-11 8.5546722957492e-12
          9.519470336166394e-12 7.434022924652173e-12 2.713440117678764e-12 6.460206928811931e-10 2.529612575854558e-10 2.362367532214567e-9
          7.629765153985614e-9 4.5483233209745525e-9 3.09066052951986e-8 2.7821143755574777e-8 2.8080859105218347e-8 1.8383821315138032e-9
          1.5261457469405867e-9 5.453078988685413e-9 9.189127546936334e-10 2.5140544553658414e-9 1.097377915621313e-9 3.1972195803516664e-9
          1.1250333843217906e-9 2.5653291094891273e-8 1.2375770763089546e-8 1.0670497101537403e-8 5.088608842446207e-10 3.648470601298202e-10
          2.497512573834706e-10 1.7465858484575617e-10 2.6319470001956e-10 2.3831070914785584e-10 6.496214823782032e-11 7.121950699714935e-10
          6.152269933265804e-11 2.699278306352986e-10 8.397153269664329e-9 1.3109373078742325e-9 7.129357317115568e-9 3.497025692798614e-8
          1.8983708762239827e-8 1.95439929060256e-8 9.745984554075033e-9 2.9266504146287858e-8 1.8284377859704833e-8 2.5730770782286106e-8
          2.977635363204278e-9 3.863114882893641e-10 6.551330571969655e-10 6.631840867633867e-11 4.9604845065913416e-9 8.143043572624239e-10
          1.0744181409667455e-9 3.758277027121955e-9 5.034613115058721e-9 3.6581366312782377e-9 6.310949202995487e-9 3.155114215371281e-9
          4.214965987834738e-9 1.129309824783485e-9 1.88456444296794e-9 1.8597853007643215e-9 2.5091770345956803e-9 5.70574471654543e-10
          5.274817760298195e-9 2.3105729487590623e-9 3.158568768427039e-9 2.3074775748027096e-10 1.5149824858263732e-10 3.472219574419756e-11
          1.3759866767788054e-11 1.7063389679651786e-10 1.0086170548482738e-10 1.9084734560030668e-11 1.390836354978917e-10 1.354017185607908e-11
          4.987506295420327e-11 8.866406769518634e-12 1.0683988816783539e-11 9.045784657426956e-12 4.068406788918696e-12 7.315069464534142e-12
          1.183356016904046e-11 9.410735818258417e-11 2.551303200540324e-11 7.568806539404495e-12 6.400437524590036e-11 2.097251614103037e-11
          1.2020798773546288e-10 3.7273154770166416e-11 2.2490084595726307e-12 2.7492271427484714e-12 2.336555021648171e-10 3.604198829756178e-10
          2.4288986880108206e-10 1.489084019206118e-10 2.1145016449400247e-10 4.1016444509029345e-11 3.835615080191928e-11 9.424181211862379e-11
          1.5607003266395562e-10 4.420808122187649e-11 3.4265853185416107e-11 5.211095573029547e-11 4.290286136674448e-11 6.995605827517484e-11
          2.6162028300468046e-11 3.903341276090993e-11 1.4144499558688649e-11 1.8694365006914692e-11 2.037888344154795e-11 3.0385773791252346e-11
          1.1550144871972026e-11 5.190479722135181e-11 2.3244230455140743e-11 4.039266414095674e-11 7.553249202590889e-12 1.3349864502096377e-11
          5.122025589843389e-12 7.501538948912506e-12 8.304723100981255e-12 3.130849476381763e-12 3.564333581184684e-12 4.685463917593327e-12
          3.850047152901929e-12 1.6090523631650617e-12 9.107907253050007e-12 3.997817685987605e-12 3.014630388210531e-12 1.5796432305233965e-9
          9.262437177783055e-10 1.4126459309765173e-9 7.752300012879591e-10 3.7441676243223285e-9 2.4217291428070924e-10 2.558778819938719e-10
          7.897721341723013e-10 1.0514827766463206e-9 6.757647943082977e-10 2.9713156934257024e-9 2.762834140693362e-10 3.8852934801973385e-10
          2.868926424198317e-10 1.0034416767016153e-9 6.09359672180628e-10 9.38500448251641e-10 3.60129243052717e-10 5.117090687439943e-10
          3.828438518908308e-10 5.887693277260869e-10 3.098625575119055e-10 2.583754726236794e-9 1.2043645718959723e-9 1.5560973642447638e-9
          2.4683074534214907e-10 1.565688089095051e-10 1.708267431959529e-10 1.0843057274845139e-10 1.470670869583145e-10 9.232169398287704e-11
          6.262336427320107e-11 1.5650184899170741e-10 1.1456845301236911e-10 8.606069104801342e-11 2.1244168167893762e-10 3.3046678836243015e-10
          1.233548855084175e-10 1.8796333229560974e-10 1.4735113376703503e-10 2.3354042575109037e-10 1.2357531378000343e-10 8.483865308383841e-10
          3.9534823948886556e-10 5.120497418708511e-10 8.122810343727678e-11 8.421969133855611e-11 5.382278996246101e-11 5.660788636804423e-11
          4.6867977135429355e-11 7.837418821684064e-11 5.1607595195545165e-11 7.303109462569488e-11 5.049226061076325e-11 6.655673910588213e-11
          1.157214208583111e-8 6.050502158484864e-9 8.209588532952086e-9 4.263044206563464e-9 1.4884715509510591e-8 8.356965604520888e-9
          1.5558818104198415e-8 1.0055549017283803e-9 6.840427733192237e-10 5.497329302652918e-10 2.2605900335596004e-9 1.5200968286198912e-9
          1.606167392205403e-8 9.101682650899258e-9 1.1795770135099837e-8 2.5485965625745435e-9 2.2826281059069206e-9 2.695933285268977e-9
          5.989560873048354e-9 3.630593872161539e-9 1.1637079712458792e-8 1.976513602693457e-9 1.0071732832196567e-9 3.1446514365551535e-9
          1.5506094396469038e-8 9.632195292460786e-9 1.7231411113432706e-8 4.5026854150522135e-9 2.2681465589489593e-9 5.1629870909479356e-9
          5.477708778937305e-9 2.740472394064794e-9 3.2492819171814024e-9 1.576045680637303e-9 9.974337783728706e-9 5.327454268756721e-9
          5.649900411602532e-9 4.1232288202803385e-10 3.226474480357659e-10 2.196593989548577e-10 1.669430313337138e-10 9.134002625585364e-10
          7.648843681768832e-10 4.776565511283583e-10 1.7267383217827419e-9 8.08665460036462e-10 8.457937914401649e-10 3.7360029948860445e-10
          2.9099626596960347e-9 1.4745874314565156e-9 1.3935942880140843e-9 1.0425647596917113e-10 7.688603205612087e-11 4.4660341922275545e-11
          3.196997170270146e-11 2.1764756098364744e-10 1.6962529266249943e-10 8.829705442315313e-11 1.4547183769913428e-8 7.84971617070075e-9
          8.105188264086515e-9 4.3924665108193325e-9 1.6201241302093117e-8 8.785508454832233e-9 9.091639614402588e-9 1.5235283656655287e-9
          1.3434240584706967e-9 8.065069109422942e-10 6.870127188252461e-10 1.7065586139736282e-9 1.5142583569659063e-9 9.429797881815597e-10
          4.201185719641839e-9 2.1673572301850425e-9 1.9896523648782652e-9 9.456548651503268e-10 4.787641596826247e-9 2.4650442226499787e-9
          2.2754939826699867e-9 3.6238854305356875e-10 2.957849189297599e-10 1.411575045895361e-10 1.1029028710455888e-10 4.3137142386980314e-10
          3.572653314344503e-10 1.6707083125423933e-10 2.812536117358249e-10 3.849957713231794e-10 2.8250854506764173e-10 5.77085220801145e-10
          7.390683114297448e-10 3.4715064895907125e-10 8.127041121677335e-10 9.425563707603605e-11 1.0691065394171266e-10 8.539347842735341e-11
          1.1956567080738928e-10 2.367423798856812e-10 3.3286118883222896e-10 1.0251741670675552e-10 1.6111688807992356e-10 1.5416677773544573e-10
          2.197514645476188e-10 8.193821258820359e-11 5.246055692424609e-10 2.5875898308997655e-10 2.6645720385372685e-10 4.59204632039498e-11
          3.081632232412061e-11 2.933984837518607e-11 2.0864168791667272e-11 4.2781148378217365e-11 3.5855037885531514e-11 2.355473343986048e-11
          3.2655822065118015e-11 2.368492089837269e-11 1.9711409184544468e-11 6.949948232411811e-10 3.588297403100123e-10 2.8716678894020283e-10
          1.2505547231727097e-10 7.697585057762173e-10 4.0198914324442e-10 3.173158477797114e-10 4.964131251327607e-11 3.723630372384919e-11
          1.6251052978885222e-11 1.1731895687978337e-11 5.772993686725831e-11 4.3839486973149525e-11 1.8577402162657262e-11 8.440336858560478e-11
          9.473808890120803e-11 4.5364383061013814e-11 5.165459101958353e-11 6.380354269261203e-11 6.586985696759565e-11 3.861761718043625e-11
          1.0507280921681127e-10 5.560437465581691e-11 6.793617124257928e-11 2.3968881558866883e-11 1.5715372234439205e-11 1.4436776824585538e-11
          1.02423638966001e-11 2.38337833170485e-11 2.4962794338821578e-11 1.5949883002196453e-11 1.60875261641963e-11 1.122677135925178e-11
          2.4830586887414698e-11 1.8857616100576684e-11 2.006029099961087e-11 1.4797317760591716e-11 1.757745342991288e-11 1.622095575817982e-11
          1.7495465987072137e-11 9.734527858193085e-12 2.8186493480646762e-11 8.587411321752677e-12 8.051130999244066e-12 3.3486742130527445e-11
          1.0011956447554595e-11 9.711990319584801e-12 7.1190454813524024e-12 8.825784085757119e-12 7.140824414049286e-12 7.882781001438363e-12
          1.0896388264060151e-11 7.506264783930119e-12 7.93016985237863e-12 5.564068931375151e-12 1.2110567884259434e-11 3.68283988907403e-12
          2.707563717758228e-11 3.4223125488794776e-11 2.7177349219722676e-11 2.0834909222318736e-11 2.6659585868616094e-11 1.1471372963814769e-11
          1.5517646992954874e-11 1.603981622772673e-11 1.9306190535797634e-11 8.783246963292304e-12 6.958589309674185e-12 1.0046227390281174e-11
          4.641745958198464e-12 6.875752252239358e-12 4.054331737733039e-12 5.068842548374449e-12 3.352809926217459e-12 3.2173375911154246e-12
          2.280542177799624e-12 1.8124956157471638e-12 2.365619392729803e-12 1.7371378579680808e-12 3.800046605770935e-11 5.215856752687567e-11
          3.870604037253295e-11 2.863558836731174e-11 4.083896900952906e-11 1.5337005829092533e-11 2.420590345218632e-11 2.0723976736012838e-11
          2.885059902259217e-11 1.5172048012736996e-11 9.498592956210291e-12 1.5851256184256475e-11 6.22130191686038e-12 9.518305060358937e-12
          2.008064742973509e-10 2.3513268968024753e-10 1.9443366869977421e-10 4.1258483932926327e-10 1.7165975659114635e-10 2.1592321177723006e-10
          1.301206729080315e-10 1.8095667959162074e-10 1.4066117364269735e-10 1.7756729707413854e-10 1.4747234458395228e-10 3.749595388733419e-10
          3.141456837895941e-10 3.0707322213330824e-10 1.0856160477210894e-10 1.5318904440424907e-10 8.814744695108593e-11 1.2442301454648834e-10
          2.720555444986091e-10 2.2048313402868862e-10 1.3314304225657396e-10 1.5757969707759845e-10 1.2420576623949115e-10 2.7218957542444544e-10
          8.017273604794183e-11 9.58129118621487e-11 7.216264753200003e-11 1.6222457887582207e-10 1.1317763017679249e-10 1.4299189032617681e-10
          8.471535650544256e-11 1.1754206507298407e-10 8.881202998787191e-11 1.1217811671286763e-10 9.141895713659495e-11 2.4558835263519624e-10
          2.02793439201911e-10 1.9105871658711214e-10 7.028573343380981e-11 9.869584812224067e-11 5.947668715399596e-11 8.410663145234193e-11
          5.4688628965547544e-11 7.631732832191093e-11 6.474611188929576e-11 1.737758648173401e-10 1.5007127532683868e-10 1.332591028842141e-10
          6.798984355202889e-11 8.595419734178618e-11 5.046001626422861e-11 6.925048274582329e-11 5.087714192745269e-11 6.429550319957991e-11
          5.1191741113047637e-11 1.4506703544826822e-10 1.1761482610916184e-10 1.0726667402394847e-10 4.141041611270697e-11 5.747826371852635e-11
          3.473971992939875e-11 4.8565761854861174e-11 3.0700164458151165e-11 4.2238157865236876e-11 3.5546768782186664e-11 9.94691062369836e-11
          8.510976363953676e-11 7.225961090827851e-11 4.391718101108113e-11 5.246364265124271e-11 4.470316805191542e-11 8.685858132904804e-11
          3.735394607457666e-11 4.6488664055818526e-11 2.769308733144554e-11 3.6592072039396784e-11 3.2033290942171284e-11 3.907205568626952e-11
          3.011303789913315e-11 7.68920583491599e-11 6.102449109252906e-11 6.082101200721187e-11 2.253367183899516e-11 2.99900829393676e-11
          1.879865556723127e-11 2.5146648478601935e-11 1.932954986203859e-11 2.4591460883660258e-11 2.05823351269375e-11 5.084814525245104e-11
          4.310445175762491e-11 3.910191355752024e-11 7.585396967444952e-10 6.432353250022753e-10 5.274110080514527e-10 1.0140693502674318e-9
          1.7366121068825843e-9 1.469027462330407e-9 1.2100078552632716e-9 2.0848341913659506e-9 7.127509029415404e-10 1.128078090584655e-9
          9.106493525740206e-10 6.012367535457083e-10 5.257973126932255e-10 4.916401447476447e-10 4.2739412453571353e-10 9.498636068981509e-10
          8.414288678643104e-10 7.768172944445214e-10 4.6428856603694294e-10 3.753272396483044e-10 7.585287159053885e-10 6.128754353199881e-10
          1.6650685774238595e-9 1.5343838276989475e-9 2.39107337251396e-9 1.4192518532335109e-9 2.120959483266512e-9 1.4035302886232196e-9
          1.2847622221536691e-9 1.1512863166123002e-9 1.045280381674281e-9 2.010985274888388e-9 1.875349418340863e-9 1.6422706774361062e-9
          1.18214674303743e-9 9.553079242310687e-10 8.720673600784609e-10 1.753560661887629e-9 1.4130644960816718e-9 2.29259002741862e-9