<?xml version="1.0"?>
<VTKFile type="UnstructuredGrid" version="0.1" byte_order="LittleEndian" header_type="UInt32" compressor="vtkZLibDataCompressor">
  <UnstructuredGrid>
    <Piece NumberOfPoints="2500" NumberOfCells="1707">
      <PointData>
        <DataArray type="Int32" Name="libmesh_node_id" format="ascii" RangeMin="709" RangeMax="15361">
          709 842 844 845 1032 1130
          1131 1132 1133 1134 1135 1136
          1137 1138 1139 1525 1526 1527
          1528 1529 1530 1531 1532 1533
          1534 1563 1564 1567 1569 1570
          1572 1859 1860 1865 1883 1884
          1886 1887 1888 1889 1890 1891
          1892 1893 1894 1895 1896 1897
          1898 1899 1900 1901 1903 1904
          1905 1906 1911 1912 1913 1914
          1915 1916 1917 1918 1919 1920
          1921 1922 1923 1924 1925 1926
          1927 1928 1929 1930 1931 1932
          1933 1934 1935 1936 1937 1938
          1939 1940 1941 1942 1943 1944
          1945 1946 1947 1948 1949 1950
          1951 1952 1955 1958 1960 1971
          1972 1978 1980 1995 2000 2011
          2013 2015 2017 2700 2702 2703
          2704 2705 2707 2709 2710 2711
          2725 2726 2727 2728 2733 2734
          2735 3779 3780 3782 3785 3813
          3814 3816 3819 3887 3901 3911
          3915 3916 3918 3919 3920 3921
          3922 3928 3931 3933 3934 3935
          3936 3939 3940 3942 3943 3944
          3945 3946 3947 3948 3949 3950
          3951 3952 3953 3954 3955 3956
          3958 3960 3961 3962 3963 3964
          3965 3966 3967 3968 3969 3970
          3971 3972 3973 3974 3975 3976
          3977 3978 3979 3980 3981 3982
          3983 3984 3985 3986 3987 3988
          3989 3990 3991 3992 3993 3994
          3995 3996 3997 3998 3999 4000
          4001 4002 4003 4004 4005 4006
          4007 4008 4009 4010 4011 4012
          4013 4014 4015 4016 4017 4018
          4019 4020 4021 4022 4023 4024
          4025 4026 4027 4028 4029 4030
          4031 4033 4035 4037 4039 4040
          4041 4042 4043 4044 4045 4046
          4047 4048 4049 4050 4051 4052
          4053 4054 4055 4056 4057 4058
          4059 4060 4061 4062 4063 4064
          4065 4066 4067 4069 4070 4071
          4073 4074 4075 4076 4077 4078
          4079 4080 4081 4082 4083 4084
          4085 4086 4087 4088 4089 4090
          4091 4092 4093 4094 4095 4096
          4097 4098 4099 4100 4101 4102
          4103 4104 4105 4106 4107 4108
          4109 4110 4111 4112 4113 4114
          4115 4116 4117 4118 4119 4120
          4121 4122 4123 4124 4125 4126
          4127 4128 4129 4130 4131 4132
          4133 4134 4135 4136 4137 4138
          4139 4140 4141 4142 4143 4144
          4145 4146 4147 4150 4151 4154
          4156 4158 4159 4160 4161 4162
          4163 4164 4165 4166 4168 4170
          4172 4174 4175 4176 4177 4178
          4179 4180 4181 4182 4183 4184
          4185 4186 4187 4188 4189 4190
          4191 4192 4193 4194 4195 4196
          4197 4198 4199 4200 4201 4202
          4203 4204 4205 4206 4207 4208
          4209 4210 4211 4212 4213 4214
          4215 4216 4217 4218 4229 4230
          4231 4232 4233 4234 4235 4243
          4244 4245 4246 4247 4248 4249
          4250 4252 4263 4264 4265 4266
          4267 4268 4269 4348 4351 4353
          4354 4356 4367 4368 4369 4370
          4371 4372 4373 4381 4382 4385
          4387 4388 4390 4401 4402 4403
          4404 4405 4406 4407 4483 4484
          4485 4486 4487 4488 4489 4490
          4491 4492 6135 6137 6138 6139
          6142 6148 6149 6150 6151 6153
          6154 6155 6156 6158 6159 6160
          6161 6162 6163 6164 6165 6166
          6167 6168 6169 6170 6171 6172
          6173 6174 6175 6176 6177 6178
          6179 6180 6181 6182 6183 6184
          6185 6186 6187 6188 6189 6190
          6191 6192 6193 6194 6195 6196
          6197 6198 6199 6200 6201 6202
          6203 6204 6205 6206 6207 6208
          6209 6210 6211 6212 6213 6214
          6215 6216 6217 6218 6219 6220
          6221 6222 6223 6224 6225 6226
          6227 6228 6229 6230 6231 6232
          6233 6234 6235 6236 6237 6238
          6239 6240 6241 6242 6243 6244
          6245 6246 6247 6248 6249 6250
          6251 6252 6253 6254 6255 6256
          6257 6258 6259 6260 6261 6262
          6263 6264 6265 6266 6267 6268
          6269 6270 6271 6272 6273 6274
          6275 6276 6277 6278 6279 6280
          6281 6282 6283 6284 6285 6286
          6287 6288 6289 6290 6291 6292
          6293 6294 6295 6296 6297 6298
          6299 6300 6301 6302 6303 6304
          6305 6306 6307 6308 6309 6310
          6311 6312 6313 6314 6315 6316
          6317 6318 6319 6320 6321 6322
          6323 6324 6325 6326 6327 6328
          6329 6330 6331 6332 6333 6334
          6335 6336 6337 6338 6339 6340
          6341 6342 6343 6344 6345 6346
          6347 6348 6349 6350 6351 6352
          6353 6354 6355 6356 6357 6358
          6359 6360 6361 6362 6363 6364
          6365 6366 6367 6368 6369 6370
          6371 6372 6373 6374 6375 6376
          6377 6378 6379 6380 6381 6382
          6383 6384 6385 6386 6387 6388
          6389 6390 6391 6392 6393 6394
          6395 6396 6397 6398 6399 6400
          6401 6402 6403 6404 6405 6406
          6407 6408 6409 6410 6411 6412
          6413 6414 6415 6416 6417 6418
          6419 6420 6421 6422 6423 6424
          6425 6426 6427 6428 6429 6430
          6431 6432 6433 6434 6435 6436
          6437 6438 6439 6440 6441 6442
          6443 6444 6445 6446 6447 6448
          6449 6450 6451 6452 6453 6454
          6455 6456 6457 6458 6459 6460
          6461 6462 6463 6464 6465 6466
          6467 6468 6469 6470 6471 6472
          6473 6474 6475 6476 6477 6478
          6479 6480 6481 6482 6483 6484
          6485 6486 6487 6488 6489 6490
          6491 6492 6493 6494 6495 6496
          6497 6498 6499 6500 6501 6502
          6503 6504 6505 6506 6507 6508
          6509 6510 6511 6512 6513 6514
          6515 6516 6517 6518 6519 6520
          6521 6522 6523 6524 6525 6526
          6527 6528 6529 6530 6531 6532
          6533 6534 6535 6536 6537 6538
          6539 6540 6541 6542 6543 6544
          6545 6546 6547 6548 6549 6550
          6551 6552 6553 6554 6555 6556
          6557 6558 6559 6560 6561 6562
          6563 6564 6565 6566 6567 6568
          6569 6570 6571 6572 6573 6574
          6575 6576 6577 6578 6579 6580
          6582 6583 6584 6585 6740 6741
          6743 6744 6745 6746 6747 6749
          6762 6763 6764 6772 6773 6776
          6777 6778 6779 6780 6781 6792
          6793 6794 6795 6796 6797 6798
          6874 6875 6876 6877 6878 6879
          6880 6881 6882 6883 6894 6895
          6896 6897 6898 6899 6900 6908
          6909 6910 6911 6912 6913 6914
          6915 6916 6917 6928 6929 6930
          6931 6932 6933 6934 13000 13001
          13002 13003 13004 13005 13006 13007
          13008 13009 13010 13011 13012 13013
          13014 13015 13016 13017 13018 13019
          13020 13021 13022 13023 13024 13025
          13026 13027 13028 13029 13030 13031
          13032 13033 13034 13035 13036 13037
          13038 13039 13040 13041 13042 13043
          13044 13045 13046 13047 13048 13049
          13050 13051 13052 13053 13054 13055
          13056 13057 13058 13059 13060 13061
          13062 13063 13064 13065 13066 13067
          13068 13069 13070 13071 13072 13073
          13074 13075 13076 13077 13078 13079
          13080 13081 13082 13083 13084 13085
          13086 13087 13088 13089 13090 13091
          13092 13093 13094 13095 13096 13097
          13098 13099 13100 13101 13102 13103
          13104 13105 13106 13107 13108 13109
          13110 13111 13112 13113 13114 13115
          13116 13117 13118 13119 13120 13121
          13122 13123 13124 13125 13126 13127
          13128 13129 13130 13131 13132 13133
          13134 13135 13136 13137 13138 13139
          13140 13141 13142 13143 13144 13145
          13146 13147 13148 13149 13150 13151
          13152 13153 13154 13155 13156 13157
          13158 13159 13160 13161 13162 13163
          13164 13165 13166 13167 13168 13169
          13170 13171 13172 13173 13174 13175
          13176 13177 13178 13179 13180 13181
          13182 13183 13184 13185 13186 13187
          13188 13189 13190 13191 13192 13193
          13194 13195 13196 13197 13198 13199
          13200 13201 13202 13203 13204 13205
          13206 13207 13208 13209 13210 13211
          13212 13213 13214 13215 13216 13217
          13218 13219 13220 13221 13222 13223
          13224 13225 13226 13227 13228 13229
          13230 13231 13232 13233 13234 13235
          13236 13237 13238 13239 13240 13241
          13242 13243 13244 13245 13246 13247
          13248 13249 13250 13251 13252 13253
          13254 13255 13256 13257 13258 13259
          13260 13261 13262 13263 13264 13265
          13266 13267 13268 13269 13270 13271
          13272 13273 13274 13275 13276 13277
          13278 13279 13280 13281 13282 13283
          13284 13285 13286 13287 13288 13289
          13290 13291 13292 13293 13294 13295
          13296 13297 13298 13299 13300 13301
          13302 13303 13304 13305 13306 13307
          13308 13309 13310 13311 13312 13313
          13314 13315 13316 13317 13318 13319
          13320 13321 13322 13323 13324 13325
          13326 13327 13328 13329 13330 13331
          13332 13333 13334 13335 13336 13337
          13338 13339 13340 13341 13342 13343
          13344 13345 13346 13347 13348 13349
          13350 13351 13352 13353 13354 13355
          13356 13357 13358 13359 13360 13361
          13362 13363 13364 13365 13366 13367
          13368 13369 13370 13371 13372 13373
          13374 13375 13376 13377 13378 13379
          13380 13381 13382 13383 13384 13385
          13386 13387 13388 13389 13390 13391
          13392 13393 13394 13395 13396 13397
          13398 13399 13400 13401 13402 13403
          13404 13405 13406 13407 13408 13409
          13410 13411 13412 13413 13414 13415
          13416 13417 13418 13419 13420 13421
          13422 13423 13424 13425 13426 13427
          13428 13429 13430 13431 13432 13433
          13434 13435 13436 13437 13438 13439
          13440 13441 13442 13443 13444 13445
          13446 13447 13448 13449 13450 13451
          13452 13453 13454 13455 13456 13457
          13458 13459 13460 13461 13462 13463
          13464 13465 13466 13467 13468 13469
          13470 13471 13472 13473 13474 13475
          13476 13477 13478 13479 13480 13481
          13482 13483 13484 13485 13486 13487
          13488 13489 13490 13491 13492 13493
          13494 13495 13496 13497 13498 13499
          13500 13501 13502 13503 13504 13505
          13506 13507 13508 13509 13510 13511
          13512 13513 13514 13515 13516 13517
          13518 13519 13520 13521 13522 13523
          13524 13525 13526 13527 13528 13529
          13530 13531 13532 13533 13534 13535
          13536 13537 13538 13539 13540 13541
          13542 13543 13544 13545 13546 13547
          13548 13549 13550 13551 13552 13553
          13554 13555 13556 13557 13558 13559
          13560 13561 13562 13563 13564 13565
          13566 13567 13568 13569 13570 13571
          13572 13573 13574 13575 13576 13577
          13578 13579 13580 13581 13582 13583
          13584 13585 13586 13587 13588 13589
          13590 13591 13592 13593 13594 13595
          13596 13597 13598 13599 13600 13601
          13602 13603 13604 13605 13606 13607
          13608 13609 13610 13611 13612 13613
          13614 13615 13616 13617 13618 13619
          13620 13621 13622 13623 13624 13625
          13626 13627 13628 13629 13630 13631
          13632 13633 13634 13635 13636 13637
          13638 13639 13640 13641 13642 13643
          13644 13645 13646 13647 13648 13649
          13650 13651 13652 13653 13654 13655
          13656 13657 13658 13659 13660 13661
          13662 13663 13664 13665 13666 13667
          13668 13669 13670 13671 13672 13673
          13674 13675 13676 13677 13678 13679
          13680 13681 13682 13683 13684 13685
          13686 13687 13688 13689 13690 13691
          13692 13693 13694 13695 13696 13697
          13698 13699 13700 13701 13702 13703
          13704 13705 13706 13707 13708 13709
          13710 13711 13712 13713 13714 13715
          13716 13717 13718 13719 13720 13721
          13722 13723 13724 13725 13726 13727
          13728 13729 13730 13731 13732 13733
          13734 13735 13736 13737 13738 13739
          13740 13741 13742 13743 13744 13745
          13746 13747 13748 13749 13750 13751
          13752 13753 13754 13755 13756 13757
          13758 13759 13760 13761 13762 13763
          13764 13765 13766 13767 13768 13769
          13770 13771 13772 13773 13774 13775
          13776 13777 13778 13779 13780 13781
          13782 13783 13784 13785 13786 13787
          13788 13789 13790 13791 13792 13793
          13794 13795 13796 13797 13798 13799
          13800 13801 13802 13803 13804 13805
          13806 13807 13808 13809 13810 13811
          13812 13813 13814 13815 13816 13817
          13818 13819 13820 13821 13822 13823
          13824 13825 13826 13827 13828 13829
          13830 13831 13832 13833 13834 13835
          13836 13837 13838 13839 13840 13841
          13842 13843 13844 13845 13846 13847
          13848 13849 13850 13851 13852 13853
          13854 13855 13856 13857 13858 13859
          13860 13861 13862 13863 13864 13865
          13866 13867 13868 13869 13870 13871
          13872 13873 13874 13875 13876 13877
          13878 13879 13880 13881 13882 13883
          13884 13885 13886 13887 13888 13889
          13890 13891 13892 13893 13894 13895
          13896 13897 13898 13899 13900 13901
          13902 13903 13904 13905 13906 13907
          13908 13909 13910 13911 13912 13913
          13914 13915 13916 13917 13918 13919
          13920 13921 13922 13923 13924 13925
          13926 13927 13928 13929 13930 13931
          13932 13933 13934 13935 13936 13937
          13938 13939 13940 13941 13942 13943
          13944 13945 13946 13947 13948 13949
          13950 13951 13952 13953 13954 13955
          13956 13957 13958 13959 13960 13961
          13962 13963 13964 13965 13966 13967
          13968 13969 13970 13971 13972 13973
          13974 13975 13976 13977 13978 13979
          13980 13981 13982 13983 13984 13985
          13986 13987 13988 13989 13990 13991
          13992 13993 13994 13995 13996 13997
          13998 13999 14000 14001 14002 14003
          14004 14005 14006 14007 14008 14009
          14010 14011 14012 14013 14014 14015
          14016 14017 14018 14019 14020 14021
          14022 14023 14024 14025 14026 14027
          14028 14029 14030 14031 14032 14033
          14034 14035 14036 14037 14038 14039
          14040 14041 14042 14043 14044 14045
          14046 14047 14048 14049 14050 14051
          14052 14053 14054 14055 14056 14057
          14058 14059 14060 14061 14062 14063
          14064 14065 14066 14067 14068 14069
          14070 14071 14072 14073 14074 14075
          14076 14077 14078 14079 14080 14081
          14082 14083 14084 14085 14086 14087
          14088 14089 14090 14091 14092 14093
          14094 14095 14096 14097 14098 14099
          14100 14101 14102 14103 14104 14105
          14106 14107 14108 14109 14110 14111
          14112 14113 14114 14115 14116 14117
          14118 14119 14120 14121 14122 14123
          14124 14125 14126 14127 14128 14129
          14130 14131 14132 14133 14134 14135
          14136 14137 14138 14139 14140 14141
          14142 14143 14144 14145 14146 14147
          14148 14149 14150 14151 14152 14153
          14154 14155 14156 14157 14158 14159
          14160 14161 14162 14163 14164 14165
          14166 14167 14168 14169 14170 14171
          14172 14173 14174 14175 14176 14177
          14178 14179 14180 14181 14182 14183
          14184 14185 14186 14187 14188 14189
          14190 14191 14192 14193 14194 14195
          14196 14197 14198 14199 14200 14201
          14202 14203 14204 14205 14206 14207
          14208 14209 14210 14211 14212 14213
          14214 14215 14216 14217 14218 14219
          14220 14221 14222 14223 14224 14225
          14226 14227 14228 14229 14230 14231
          14232 14233 14234 14235 14236 14237
          14238 14239 14240 14241 14242 14243
          14244 14245 14246 14247 14248 14249
          14250 14251 14252 14253 14254 14255
          14256 14257 14258 14259 14260 14261
          14262 14263 14264 14265 14266 14267
          14268 14479 14480 14481 14482 14493
          14494 14495 14543 14544 14545 14546
          14547 14548 14549 14550 14551 14552
          14559 14560 14562 14563 14564 14565
          14566 14567 14568 14569 14574 14576
          14577 14578 14579 14580 14581 14582
          14583 14584 14585 14586 14587 14588
          14589 14590 14591 14592 14593 14594
          14595 14596 14597 14598 14599 14600
          14601 14602 14603 14604 14605 14606
          14607 14608 14609 14610 14679 14680
          14681 14682 14683 14684 15006 15007
          15008 15009 15010 15011 15012 15013
          15014 15015 15016 15017 15018 15019
          15020 15021 15022 15023 15024 15025
          15026 15027 15028 15029 15030 15031
          15032 15033 15034 15035 15036 15037
          15038 15039 15040 15041 15042 15043
          15044 15045 15046 15047 15048 15049
          15050 15051 15052 15053 15054 15055
          15056 15057 15058 15059 15060 15061
          15062 15063 15064 15065 15066 15067
          15068 15069 15070 15071 15072 15073
          15142 15143 15144 15145 15146 15147
          15148 15149 15150 15151 15152 15153
          15154 15155 15156 15157 15158 15159
          15160 15161 15162 15163 15164 15165
          15166 15167 15168 15169 15198 15199
          15200 15201 15202 15203 15204 15205
          15206 15207 15208 15209 15210 15211
          15212 15213 15214 15215 15216 15217
          15218 15219 15220 15221 15222 15223
          15224 15225 15226 15227 15228 15229
          15230 15231 15232 15233 15234 15235
          15236 15237 15238 15239 15240 15241
          15242 15243 15244 15245 15246 15247
          15248 15249 15250 15251 15252 15253
          15254 15255 15256 15257 15258 15259
          15260 15261 15262 15263 15264 15265
          15334 15335 15336 15337 15338 15339
          15340 15341 15342 15343 15344 15345
          15346 15347 15348 15349 15350 15351
          15352 15353 15354 15355 15356 15357
          15358 15359 15360 15361
        </DataArray>
        <DataArray type="Float64" Name="bounds" format="ascii" RangeMin="0" RangeMax="0">
          0 0 0 0 0 0
          0 0 0 0 0 0
          0 0 0 0 0 0
          0 0 0 0 0 0
          0 0 0 0 0 0
          0 0 0 0 0 0
          0 0 0 0 0 0
          0 0 0 0 0 0
          0 0 0 0 0 0
          0 0 0 0 0 0
          0 0 0 0 0 0
          0 0 0 0 0 0
          0 0 0 0 0 0
          0 0 0 0 0 0
          0 0 0 0 0 0
          0 0 0 0 0 0
          0 0 0 0 0 0
          0 0 0 0 0 0
          0 0 0 0 0 0
          0 0 0 0 0 0
          0 0 0 0 0 0
          0 0 0 0 0 0
          0 0 0 0 0 0
          0 0 0 0 0 0
          0 0 0 0 0 0
          0 0 0 0 0 0
          0 0 0 0 0 0
          0 0 0 0 0 0
          0 0 0 0 0 0
          0 0 0 0 0 0
          0 0 0 0 0 0
          0 0 0 0 0 0
          0 0 0 0 0 0
          0 0 0 0 0 0
          0 0 0 0 0 0
          0 0 0 0 0 0
          0 0 0 0 0 0
          0 0 0 0 0 0
          0 0 0 0 0 0
          0 0 0 0 0 0
          0 0 0 0 0 0
          0 0 0 0 0 0
          0 0 0 0 0 0
          0 0 0 0 0 0
          0 0 0 0 0 0
          0 0 0 0 0 0
          0 0 0 0 0 0
          0 0 0 0 0 0
          0 0 0 0 0 0
          0 0 0 0 0 0
          0 0 0 0 0 0
          0 0 0 0 0 0
          0 0 0 0 0 0
          0 0 0 0 0 0
          0 0 0 0 0 0
          0 0 0 0 0 0
          0 0 0 0 0 0
          0 0 0 0 0 0
          0 0 0 0 0 0
          0 0 0 0 0 0
          0 0 0 0 0 0
          0 0 0 0 0 0
          0 0 0 0 0 0
          0 0 0 0 0 0
          0 0 0 0 0 0
          0 0 0 0 0 0
          0 0 0 0 0 0
          0 0 0 0 0 0
          0 0 0 0 0 0
          0 0 0 0 0 0
          0 0 0 0 0 0
          0 0 0 0 0 0
          0 0 0 0 0 0
          0 0 0 0 0 0
          0 0 0 0 0 0
          0 0 0 0 0 0
          0 0 0 0 0 0
          0 0 0 0 0 0
          0 0 0 0 0 0
          0 0 0 0 0 0
          0 0 0 0 0 0
          0 0 0 0 0 0
          0 0 0 0 0 0
          0 0 0 0 0 0
          0 0 0 0 0 0
          0 0 0 0 0 0
          0 0 0 0 0 0
          0 0 0 0 0 0
          0 0 0 0 0 0
          0 0 0 0 0 0
          0 0 0 0 0 0
          0 0 0 0 0 0
          0 0 0 0 0 0
          0 0 0 0 0 0
          0 0 0 0 0 0
          0 0 0 0 0 0
          0 0 0 0 0 0
          0 0 0 0 0 0
          0 0 0 0 0 0
          0 0 0 0 0 0
          0 0 0 0 0 0
          0 0 0 0 0 0
          0 0 0 0 0 0
          0 0 0 0 0 0
          0 0 0 0 0 0
          0 0 0 0 0 0
          0 0 0 0 0 0
          0 0 0 0 0 0
          0 0 0 0 0 0
          0 0 0 0 0 0
          0 0 0 0 0 0
          0 0 0 0 0 0
          0 0 0 0 0 0
          0 0 0 0 0 0
          0 0 0 0 0 0
          0 0 0 0 0 0
          0 0 0 0 0 0
          0 0 0 0 0 0
          0 0 0 0 0 0
          0 0 0 0 0 0
          0 0 0 0 0 0
          0 0 0 0 0 0
          0 0 0 0 0 0
          0 0 0 0 0 0
          0 0 0 0 0 0
          0 0 0 0 0 0
          0 0 0 0 0 0
          0 0 0 0 0 0
          0 0 0 0 0 0
          0 0 0 0 0 0
          0 0 0 0 0 0
          0 0 0 0 0 0
          0 0 0 0 0 0
          0 0 0 0 0 0
          0 0 0 0 0 0
          0 0 0 0 0 0
          0 0 0 0 0 0
          0 0 0 0 0 0
          0 0 0 0 0 0
          0 0 0 0 0 0
          0 0 0 0 0 0
          0 0 0 0 0 0
          0 0 0 0 0 0
          0 0 0 0 0 0
          0 0 0 0 0 0
          0 0 0 0 0 0
          0 0 0 0 0 0
          0 0 0 0 0 0
          0 0 0 0 0 0
          0 0 0 0 0 0
          0 0 0 0 0 0
          0 0 0 0 0 0
          0 0 0 0 0 0
          0 0 0 0 0 0
          0 0 0 0 0 0
          0 0 0 0 0 0
          0 0 0 0 0 0
          0 0 0 0 0 0
          0 0 0 0 0 0
          0 0 0 0 0 0
          0 0 0 0 0 0
          0 0 0 0 0 0
          0 0 0 0 0 0
          0 0 0 0 0 0
          0 0 0 0 0 0
          0 0 0 0 0 0
          0 0 0 0 0 0
          0 0 0 0 0 0
          0 0 0 0 0 0
          0 0 0 0 0 0
          0 0 0 0 0 0
          0 0 0 0 0 0
          0 0 0 0 0 0
          0 0 0 0 0 0
          0 0 0 0 0 0
          0 0 0 0 0 0
          0 0 0 0 0 0
          0 0 0 0 0 0
          0 0 0 0 0 0
          0 0 0 0 0 0
          0 0 0 0 0 0
          0 0 0 0 0 0
          0 0 0 0 0 0
          0 0 0 0 0 0
          0 0 0 0 0 0
          0 0 0 0 0 0
          0 0 0 0 0 0
          0 0 0 0 0 0
          0 0 0 0 0 0
          0 0 0 0 0 0
          0 0 0 0 0 0
          0 0 0 0 0 0
          0 0 0 0 0 0
          0 0 0 0 0 0
          0 0 0 0 0 0
          0 0 0 0 0 0
          0 0 0 0 0 0
          0 0 0 0 0 0
          0 0 0 0 0 0
          0 0 0 0 0 0
          0 0 0 0 0 0
          0 0 0 0 0 0
          0 0 0 0 0 0
          0 0 0 0 0 0
          0 0 0 0 0 0
          0 0 0 0 0 0
          0 0 0 0 0 0
          0 0 0 0 0 0
          0 0 0 0 0 0
          0 0 0 0 0 0
          0 0 0 0 0 0
          0 0 0 0 0 0
          0 0 0 0 0 0
          0 0 0 0 0 0
          0 0 0 0 0 0
          0 0 0 0 0 0
          0 0 0 0 0 0
          0 0 0 0 0 0
          0 0 0 0 0 0
          0 0 0 0 0 0
          0 0 0 0 0 0
          0 0 0 0 0 0
          0 0 0 0 0 0
          0 0 0 0 0 0
          0 0 0 0 0 0
          0 0 0 0 0 0
          0 0 0 0 0 0
          0 0 0 0 0 0
          0 0 0 0 0 0
          0 0 0 0 0 0
          0 0 0 0 0 0
          0 0 0 0 0 0
          0 0 0 0 0 0
          0 0 0 0 0 0
          0 0 0 0 0 0
          0 0 0 0 0 0
          0 0 0 0 0 0
          0 0 0 0 0 0
          0 0 0 0 0 0
          0 0 0 0 0 0
          0 0 0 0 0 0
          0 0 0 0 0 0
          0 0 0 0 0 0
          0 0 0 0 0 0
          0 0 0 0 0 0
          0 0 0 0 0 0
          0 0 0 0 0 0
          0 0 0 0 0 0
          0 0 0 0 0 0
          0 0 0 0 0 0
          0 0 0 0 0 0
          0 0 0 0 0 0
          0 0 0 0 0 0
          0 0 0 0 0 0
          0 0 0 0 0 0
          0 0 0 0 0 0
          0 0 0 0 0 0
          0 0 0 0 0 0
          0 0 0 0 0 0
          0 0 0 0 0 0
          0 0 0 0 0 0
          0 0 0 0 0 0
          0 0 0 0 0 0
          0 0 0 0 0 0
          0 0 0 0 0 0
          0 0 0 0 0 0
          0 0 0 0 0 0
          0 0 0 0 0 0
          0 0 0 0 0 0
          0 0 0 0 0 0
          0 0 0 0 0 0
          0 0 0 0 0 0
          0 0 0 0 0 0
          0 0 0 0 0 0
          0 0 0 0 0 0
          0 0 0 0 0 0
          0 0 0 0 0 0
          0 0 0 0 0 0
          0 0 0 0 0 0
          0 0 0 0 0 0
          0 0 0 0 0 0
          0 0 0 0 0 0
          0 0 0 0 0 0
          0 0 0 0 0 0
          0 0 0 0 0 0
          0 0 0 0 0 0
          0 0 0 0 0 0
          0 0 0 0 0 0
          0 0 0 0 0 0
          0 0 0 0 0 0
          0 0 0 0 0 0
          0 0 0 0 0 0
          0 0 0 0 0 0
          0 0 0 0 0 0
          0 0 0 0 0 0
          0 0 0 0 0 0
          0 0 0 0 0 0
          0 0 0 0 0 0
          0 0 0 0 0 0
          0 0 0 0 0 0
          0 0 0 0 0 0
          0 0 0 0 0 0
          0 0 0 0 0 0
          0 0 0 0 0 0
          0 0 0 0 0 0
          0 0 0 0 0 0
          0 0 0 0 0 0
          0 0 0 0 0 0
          0 0 0 0 0 0
          0 0 0 0 0 0
          0 0 0 0 0 0
          0 0 0 0 0 0
          0 0 0 0 0 0
          0 0 0 0 0 0
          0 0 0 0 0 0
          0 0 0 0 0 0
          0 0 0 0 0 0
          0 0 0 0 0 0
          0 0 0 0 0 0
          0 0 0 0 0 0
          0 0 0 0 0 0
          0 0 0 0 0 0
          0 0 0 0 0 0
          0 0 0 0 0 0
          0 0 0 0 0 0
          0 0 0 0 0 0
          0 0 0 0 0 0
          0 0 0 0 0 0
          0 0 0 0 0 0
          0 0 0 0 0 0
          0 0 0 0 0 0
          0 0 0 0 0 0
          0 0 0 0 0 0
          0 0 0 0 0 0
          0 0 0 0 0 0
          0 0 0 0 0 0
          0 0 0 0 0 0
          0 0 0 0 0 0
          0 0 0 0 0 0
          0 0 0 0 0 0
          0 0 0 0 0 0
          0 0 0 0 0 0
          0 0 0 0 0 0
          0 0 0 0 0 0
          0 0 0 0 0 0
          0 0 0 0 0 0
          0 0 0 0 0 0
          0 0 0 0 0 0
          0 0 0 0 0 0
          0 0 0 0 0 0
          0 0 0 0 0 0
          0 0 0 0 0 0
          0 0 0 0 0 0
          0 0 0 0 0 0
          0 0 0 0 0 0
          0 0 0 0 0 0
          0 0 0 0 0 0
          0 0 0 0 0 0
          0 0 0 0 0 0
          0 0 0 0 0 0
          0 0 0 0 0 0
          0 0 0 0 0 0
          0 0 0 0 0 0
          0 0 0 0 0 0
          0 0 0 0 0 0
          0 0 0 0 0 0
          0 0 0 0 0 0
          0 0 0 0 0 0
          0 0 0 0 0 0
          0 0 0 0 0 0
          0 0 0 0 0 0
          0 0 0 0 0 0
          0 0 0 0 0 0
          0 0 0 0 0 0
          0 0 0 0 0 0
          0 0 0 0 0 0
          0 0 0 0 0 0
          0 0 0 0 0 0
          0 0 0 0 0 0
          0 0 0 0 0 0
          0 0 0 0 0 0
          0 0 0 0 0 0
          0 0 0 0 0 0
          0 0 0 0 0 0
          0 0 0 0 0 0
          0 0 0 0 0 0
          0 0 0 0 0 0
          0 0 0 0 0 0
          0 0 0 0 0 0
          0 0 0 0 0 0
          0 0 0 0 0 0
          0 0 0 0 0 0
          0 0 0 0 0 0
          0 0 0 0 0 0
          0 0 0 0 0 0
          0 0 0 0 0 0
          0 0 0 0 0 0
          0 0 0 0 0 0
          0 0 0 0 0 0
          0 0 0 0 0 0
          0 0 0 0 0 0
          0 0 0 0 0 0
          0 0 0 0 0 0
          0 0 0 0 0 0
          0 0 0 0 0 0
          0 0 0 0 0 0
          0 0 0 0 0 0
          0 0 0 0 0 0
          0 0 0 0 0 0
          0 0 0 0 0 0
          0 0 0 0 0 0
          0 0 0 0 0 0
          0 0 0 0 0 0
          0 0 0 0 0 0
          0 0 0 0 0 0
          0 0 0 0 0 0
          0 0 0 0
        </DataArray>
        <DataArray type="Float64" Name="gradient_error" format="ascii" RangeMin="5.549716511160595e-10" RangeMax="7.753059670778462e-7">
          5.326192358459714e-7 1.2089315018772281e-8 1.2671681243190497e-9 4.718808729484532e-8 2.107049701748975e-7 4.03287405968509e-7
          4.4013759782512353e-7 2.916409304307197e-7 4.202071702558946e-7 7.750491642209091e-8 1.820437061019208e-8 6.174880909437501e-10
          4.2592717962675736e-7 3.9681427433199283e-7 1.4090900644761335e-7 5.049609750695502e-7 4.040995026068063e-7 5.02858554412622e-7
          3.8806307004515153e-7 1.8389284991501692e-7 1.5847805287632417e-7 5.210438098374493e-7 4.1817429585769583e-7 4.1150853861788004e-7
          2.533838663870937e-7 5.066789649244989e-7 3.7130217678296555e-7 1.3062209971976797e-7 5.520045183866054e-7 4.0355386789334546e-7
          1.649193196692483e-7 2.1875476876724465e-7 4.80375439056444e-7 5.067395375012141e-7 3.2382714824157484e-7 3.1353441682761663e-7
          4.108195877185128e-7 3.606007031167831e-7 4.480430532141328e-7 4.98335107292129e-7 3.6464208222079136e-7 3.509814494651128e-7
          3.34989091746032e-7 3.842844210597025e-7 3.588803711739559e-7 3.505677531570768e-7 2.793992386120822e-7 3.5007526914705785e-7
          5.585596113159205e-7 6.307476375874681e-7 3.9597557139354903e-7 1.1169385715133242e-7 2.7048845693920384e-7 3.3926610672091975e-7
          7.831071651760628e-8 1.9864433180643527e-7 2.3812405831937056e-7 3.060277325579484e-7 2.5716363412720975e-7 7.350758504090555e-8
          1.1255063816577882e-7 4.823115810372211e-7 2.5579331048627073e-8 4.82754180171394e-7 3.806939168399619e-7 3.8196185970883463e-7
          9.580137580742312e-10 3.416321962636355e-7 3.812674694570415e-7 4.2012776077795595e-7 2.4636409312515687e-9 4.033581887006875e-7
          1.53903607184706e-9 4.550071180950823e-7 3.7077744773120293e-7 4.2116181738915104e-7 5.58081095207157e-10 4.295357737932428e-7
          4.923748169647908e-7 4.2109676289773627e-7 2.6052203994232817e-7 2.242328115157624e-7 1.710801597540902e-7 1.9427443122039256e-7