<?xml version="1.0"?>
<VTKFile type="UnstructuredGrid" version="0.1" byte_order="LittleEndian" header_type="UInt32" compressor="vtkZLibDataCompressor">
  <UnstructuredGrid>
    <Piece NumberOfPoints="2392" NumberOfCells="1731">
      <PointData>
        <DataArray type="Int32" Name="libmesh_node_id" format="ascii" RangeMin="846" RangeMax="22809">
          846 1142 1148 1963 1967 1969
          2001 2003 2004 2006 2007 2008
          2009 4293 4311 4317 4319 4320
          4321 4322 4325 4326 4327 4328
          4417 4418 4423 4425 4426 4427
          4428 4429 4430 4431 4432 4433
          4434 4442 4443 4444 4445 4446
          4447 4448 4451 4452 4454 4457
          4459 4460 4461 4462 4463 4464
          4465 4466 4467 4468 4476 4477
          4478 4479 4480 4481 4482 4505
          4506 4508 4533 4534 4537 4539
          4540 4542 4553 4557 4621 4622
          4625 4627 4628 4630 4641 4645
          4655 4656 4659 4661 4662 4664
          4675 4679 6631 6632 6633 6634
          6635 6636 6637 6638 6639 6644
          6645 6646 6649 6651 6664 6665
          6667 6670 6675 6676 6678 6680
          6681 6682 6683 6684 6685 6686
          6687 6688 6689 6690 6691 6692
          6693 6694 6695 6696 6697 6698
          6699 6700 6701 6702 6703 6704
          6705 6706 6707 6708 6709 6710
          6711 6712 6713 6714 6715 6716
          6717 6718 6719 6720 6721 6722
          6723 6724 6725 6726 6727 6728
          6729 6730 6731 6732 6733 6734
          6735 6736 6737 6738 6739 7022
          7023 7025 7028 7038 7040 7042
          7056 7057 7059 7062 7072 7074
          7076 7078 7079 7080 7081 7082
          7083 7084 7085 7086 7087 7088
          7089 7090 7091 7092 7093 7094
          7095 7096 7097 7098 7099 7100
          7101 7102 7103 7104 7105 7106
          7107 7108 7109 7110 7111 7112
          7113 7114 7115 7116 7117 7118
          7119 7120 7121 7122 7123 7124
          7125 7126 7127 7128 7129 7130
          7131 7132 7133 7134 7135 7136
          7137 7138 7139 7140 7141 7142
          7143 7144 7145 7158 7159 7161
          7162 7163 7164 7165 7174 7176
          7177 7178 7179 7190 7191 7192
          7193 7194 7195 7196 7197 7198
          7199 7207 7208 7209 7210 7211
          7212 7213 7214 7215 7216 7217
          7218 7219 7220 7221 7222 7223
          7224 7225 7226 7227 7228 7229
          7230 7231 7232 7233 7234 7235
          7236 7237 7238 7239 7240 7241
          7242 7243 7244 7245 7246 7247
          7248 7249 7250 7251 7252 7253
          7254 7255 7256 7257 7258 7259
          7260 7261 7262 7263 7264 7265
          7266 7267 7268 7269 7270 7271
          7272 7273 7274 7275 7276 7277
          7278 7279 7280 7281 7309 7310
          7311 7312 7497 7498 7499 7500
          7501 7502 7503 7504 7505 7506
          7519 7520 7521 7529 7530 7531
          7532 7533 7534 7535 7536 7537
          7538 7549 7550 7551 7552 7553
          7554 7555 7969 7970 7971 7972
          7973 7974 7975 7976 7977 7978
          7989 7990 7991 7992 7993 7994
          7995 8003 8004 8005 8006 8007
          8008 8009 8010 8011 8012 8019
          8020 8022 8023 8024 8025 8026
          8027 8028 8029 8034 8201 8202
          8203 8204 8205 8206 8207 8208
          8209 8210 8211 8212 8215 8217
          8218 8220 8221 8222 8223 8224
          8225 8226 8227 8228 8232 8235
          8236 8237 8238 8239 8240 8241
          8242 8243 8244 8245 8246 8249
          8251 8252 8254 8255 8256 8257
          8258 8259 8260 8261 8262 8266
          14315 14316 14317 14318 14329 14330
          14331 14332 14333 14334 14335 14336
          14337 14338 14342 14343 14344 14345
          14346 14347 14348 14349 14350 14351
          14352 14353 14354 14355 14356 14357
          14358 14359 14360 14361 14362 14363
          14364 14365 14366 14367 14368 14369
          14370 14371 14372 14373 14374 14375
          14376 14377 14378 14379 14380 14381
          14382 14383 14384 14385 14386 14387
          14388 14389 14390 14391 14392 14393
          14394 14395 14396 14397 14398 14399
          14400 14401 14402 14403 14404 14405
          14406 14407 14408 14409 14410 14411
          14412 14413 14414 14415 14416 14417
          14418 14419 14420 14421 14422 14423
          14424 14425 14426 14427 14428 14429
          14430 14431 14432 14433 14434 14435
          14436 14437 14438 14439 14440 14441
          14442 14443 14444 14445 14446 14447
          14448 14449 14450 14451 14452 14453
          14454 14455 14456 14457 14458 14459
          14460 14461 14462 14463 14464 14465
          14466 14467 14468 14469 14470 15852
          15853 15854 15855 15856 15857 15858
          15859 15860 15861 15869 15870 15871
          15872 15873 15874 15875 15886 15887
          15888 15889 15890 15891 15892 15893
          15894 15895 15903 15904 15905 15906
          15907 15908 15909 15919 15920 15921
          16000 16001 16002 16003 16004 16005
          16006 16007 16008 16009 16017 16018
          16019 16020 16021 16022 16023 16034
          16035 16036 16037 16038 16039 16040
          16041 16042 16043 16051 16052 16053
          16054 16055 16056 16057 16093 16094
          16095 16096 16097 16098 16099 16107
          16108 16109 16110 16111 16112 16113
          16114 16115 16116 16117 16118 16119
          16120 16121 16122 16123 16124 16125
          16126 16127 16128 16129 16130 16131
          16132 16133 16134 16135 16136 16137
          16138 16139 16140 16141 16142 16143
          16144 16145 16146 16147 16148 16149
          16150 16151 16152 16153 16154 16155
          16156 16157 16158 16159 16160 16161
          16162 16163 16164 16165 16166 16167
          16168 16169 16170 16171 16172 16173
          16174 16175 16176 16177 16178 16179
          16180 16181 16182 16183 16184 16185
          16186 16187 16188 16189 16190 16191
          16192 16193 16194 16195 16196 16197
          16198 16199 16200 16201 16202 16203
          16204 16205 16206 16207 16208 16209
          16210 16211 16212 16213 16214 16215
          16216 16217 16218 16219 16220 16221
          16222 16223 16224 16225 16226 16227
          16228 16229 16230 16231 16232 16233
          16234 16235 16236 16237 16238 16239
          16240 16241 16242 16243 16244 16245
          16246 16247 16248 16249 16250 16251
          16252 16253 16254 16255 16256 16257
          16258 16259 16260 16261 16262 16263
          16264 16265 16266 16267 16268 16269
          16270 16271 16272 16273 16274 16275
          16276 16277 16278 16279 16280 16281
          16282 16283 16284 16285 16286 16287
          16288 16289 16290 16291 16292 16293
          16294 16295 16296 16297 16298 16299
          16300 16301 16302 16303 16304 16305
          16306 16307 16308 16309 16310 16311
          16312 16313 16314 16315 16316 16317
          16318 16319 16320 16321 16322 16323
          16324 16325 16326 16327 16328 16329
          16330 16331 16332 16333 16334 16335
          16336 16337 16338 16339 16340 16341
          16342 16343 16344 16345 16346 16347
          16348 16349 16350 16351 16352 16353
          16354 16355 16356 16357 16358 16359
          16360 16361 16362 16363 16364 16365
          16366 16367 16368 16369 16370 16371
          16372 16373 16374 16375 16376 16377
          16378 16379 16380 16381 16382 16383
          16384 16385 16386 16387 16388 16389
          16390 16391 16392 16393 16394 16395
          16396 16397 16398 16399 16400 16401
          16402 16403 16404 16405 16406 16407
          16408 16409 16410 16411 16412 16413
          16414 16415 16416 16417 16418 16419
          16420 16421 16422 16423 16424 16425
          16426 16427 16428 16429 16430 16431
          16432 16433 16434 16435 16436 16437
          16438 16439 16440 16441 16442 16443
          16444 16445 16446 16447 16448 16449
          16450 16451 16452 16453 16532 16533
          16534 16535 16536 16537 16538 16539
          16540 16541 16549 16550 16551 16552
          16553 16554 16555 16558 16559 16561
          16562 16563 16564 16565 16566 16567
          16568 16569 16570 16571 16572 16573
          16574 16575 16577 16579 16580 16581
          16582 16583 16584 16585 16586 16587
          16588 16589 16625 16626 16627 16628
          16629 16630 16631 16633 16635 16636
          16637 16638 16639 16640 16641 16642
          16643 16644 16645 16714 16715 16716
          16717 16718 16719 16720 16721 16722
          16723 16724 16725 16726 16727 16728
          16729 16730 16731 16732 16733 16734
          16735 16736 16737 16738 16739 16740
          16741 16742 16743 16744 16745 16746
          16747 16748 16749 16750 16751 16752
          16753 16754 16755 16756 16757 16758
          16759 16760 16761 16762 16763 16764
          16765 16766 16767 16768 16769 16770
          16771 16772 16773 16774 16775 16776
          16777 16778 16779 16780 16781 16810
          16811 16812 16813 16814 16815 16816
          16817 16818 16819 16820 16821 16822
          16823 16824 16825 16826 16827 16828
          16829 16830 16831 16832 16833 16834
          16835 16836 16837 16838 16839 16840
          16841 16842 16843 16844 16845 16846
          16847 16848 16849 16850 16851 16852
          16853 16854 16855 16856 16857 16858
          16859 16860 16861 16862 16863 16864
          16865 16866 16867 16868 16869 16870
          16871 16872 16873 16874 16875 16876
          16877 16878 16879 16880 16881 16882
          16883 16884 16885 16886 16887 16888
          16889 16890 16891 16892 16893 16894
          16895 16896 16897 16898 16899 16900
          16901 16902 16903 16904 16905 16906
          16907 16908 16909 16910 16911 16912
          16913 16914 16915 16916 16917 16918
          16919 16920 16921 16922 16923 16924
          16925 16926 16927 16928 16929 16930
          16931 16932 16933 16934 16935 16936
          16937 16938 16939 16940 16941 16942
          16943 16944 16945 16946 16947 16948
          16949 16950 16951 16952 16953 16954
          16955 16956 16957 16958 16959 16960
          16961 16962 16963 16964 16965 16966
          16967 16968 16969 16970 16971 16972
          16973 16974 16975 16976 16977 16978
          16979 16980 16981 16982 16983 16984
          16985 16986 16987 16988 16989 16990
          16991 16992 16993 16994 16995 16996
          16997 16998 16999 17000 17001 17002
          17003 17004 17005 17006 17007 17008
          17009 17010 17011 17012 17013 17014
          17015 17016 17017 17018 17019 17020
          17021 17022 17023 17024 17025 17026
          17027 17028 17029 17030 17031 17032
          17033 17034 17035 17036 17037 17038
          17039 17040 17041 17042 17043 17044
          17045 17046 17047 17048 17049 17050
          17051 17052 17053 17054 17055 17056
          17057 17058 17059 17060 17061 17062
          17063 17064 17065 17066 17067 17068
          17069 17070 17071 17072 17073 17074
          17075 17076 17077 17078 17079 17080
          17081 17082 17083 17084 17085 17086
          17087 17088 17089 17090 17091 17092
          17093 17094 17095 17096 17097 17098
          17099 17100 17101 17102 17103 17104
          17105 17106 17107 17108 17109 17110
          17111 17112 17113 17114 17115 17116
          17117 17118 17119 17120 17121 17122
          17123 17124 17125 17126 17127 17128
          17129 17130 17131 17132 17133 17134
          17135 17136 17137 17138 17139 17140
          17141 17142 17143 17144 17145 17146
          17147 17148 17149 17150 17151 17152
          17153 17154 17155 17156 17157 17158
          17159 17160 17161 17162 17163 17164
          17165 17166 17167 17168 17169 17170
          17171 17172 17173 17174 17175 17176
          17177 17178 17179 17180 17181 17182
          17183 17184 17185 17186 17187 17188
          17189 17190 17191 17192 17193 17194
          17195 17196 17197 17198 17199 17200
          17201 17202 17203 17204 17205 17206
          17207 17208 17209 17210 17211 17212
          17213 17214 17215 17216 17217 17218
          17219 17220 17221 18466 18467 18468
          18469 18470 18471 18472 18473 18565
          18566 18567 18568 18569 18570 18571
          18572 18573 18574 18575 18576 18577
          18578 18579 18580 18581 18582 18583
          18584 18585 18586 18587 18588 18589
          18590 18591 18592 18593 18594 18595
          18596 18597 18598 18599 18600 18601
          18602 18603 18604 18605 18606 18607
          18608 18609 18610 18611 18612 18613
          18614 18615 18616 18617 18618 18619
          18620 18621 18622 18623 18624 18625
          18626 18629 18631 18632 18634 18655
          18656 18659 18661 18662 18664 18677
          18679 20943 20944 20945 20946 20947
          20948 20949 20950 20951 20952 20953
          20954 20955 20956 20957 20958 20959
          20960 20961 20962 20963 20964 20965
          20966 20967 20968 20969 20970 20971
          20972 20973 20974 20975 20976 20977
          20978 20979 20980 20981 20982 20983
          20984 20985 20986 20987 20988 20989
          20990 20991 20992 20993 20994 20995
          20996 20997 20998 20999 21000 21001
          21002 21003 21004 21005 21006 21007
          21008 21009 21010 21011 21012 21015
          21017 21018 21020 21031 21033 21035
          21037 21045 21046 21049 21051 21052
          21054 21065 21067 21069 21071 21119
          21120 21121 21122 21123 21124 21125
          21126 21127 21128 21129 21130 21131
          21132 21133 21134 21135 21136 21137
          21138 21139 21140 21141 21142 21143
          21144 21145 21146 21147 21148 21149
          21150 21151 21152 21153 21154 21155
          21156 21157 21158 21159 21160 21161
          21162 21163 21164 21165 21166 21167
          21168 21169 21170 21171 21172 21173
          21174 21175 21176 21177 21178 21179
          21180 21181 21182 21183 21184 21185
          21186 21187 21188 21191 21193 21194
          21196 21207 21209 21211 21213 21221
          21222 21225 21227 21228 21229 21230
          21237 21238 21240 21241 21243 21245
          21246 21247 21252 21254 21255 21256
          21257 21258 21259 21260 21261 21262
          21263 21264 21265 21266 21267 21290
          21295 21297 22412 22413 22414 22415
          22416 22417 22418 22419 22420 22421
          22422 22423 22424 22425 22426 22427
          22428 22429 22430 22431 22432 22433
          22434 22435 22436 22437 22438 22439
          22440 22441 22442 22443 22444 22445
          22446 22447 22448 22449 22450 22451
          22452 22453 22454 22455 22456 22457
          22458 22459 22460 22461 22462 22463
          22464 22465 22466 22467 22468 22469
          22470 22471 22472 22473 22474 22475
          22476 22477 22478 22479 22480 22481
          22482 22483 22484 22485 22486 22487
          22488 22489 22490 22491 22494 22496
          22497 22499 22500 22501 22502 22503
          22504 22505 22506 22507 22509 22511
          22513 22514 22515 22516 22517 22518
          22519 22520 22521 22522 22523 22524
          22525 22528 22530 22531 22533 22534
          22535 22536 22537 22538 22539 22540
          22541 22543 22545 22547 22548 22549
          22550 22551 22552 22553 22554 22555
          22556 22557 22558 22559 22560 22561
          22562 22563 22564 22565 22566 22567
          22568 22569 22570 22571 22572 22573
          22574 22575 22576 22577 22578 22579
          22581 22583 22585 22596 22597 22598
          22599 22601 22603 22605 22616 22617
          22618 22619 22620 22621 22622 22623
          22624 22625 22626 22627 22628 22629
          22630 22631 22632 22633 22634 22635
          22636 22637 22638 22639 22640 22641
          22642 22643 22644 22645 22646 22647
          22648 22649 22650 22651 22652 22653
          22654 22655 22656 22657 22658 22659
          22660 22661 22662 22663 22664 22665
          22666 22667 22668 22669 22670 22671
          22672 22673 22674 22675 22676 22677
          22678 22679 22680 22681 22682 22683
          22684 22685 22686 22687 22688 22689
          22690 22691 22692 22693 22694 22695
          22698 22700 22701 22703 22704 22705
          22706 22707 22708 22709 22710 22711
          22713 22715 22717 22718 22719 22720
          22721 22722 22723 22724 22725 22726
          22727 22728 22729 22732 22734 22735
          22737 22738 22739 22740 22741 22742
          22743 22744 22745 22747 22749 22751
          22752 22753 22754 22755 22756 22757
          22758 22759 22760 22761 22762 22763
          22764 22765 22766 22767 22768 22769
          22770 22771 22772 22773 22774 22775
          22776 22777 22778 22779 22780 22781
          22782 22783 22785 22787 22789 22800
          22801 22802 22803 22805 22807 22809
          4279 4287 4288 4280 1961 4294
          4285 4289 4290 4295 4283 4284
          4309 4312 4310 4314 4313 4316
          1968 4318 4296 1962 4323 1964
          4324 4336 4330 4340 4334 4337
          4341 4420 4436 4342 1970 4438
          1143 2002 4440 2005 4424 4439
          4453 4470 4469 4458 4474 4473
          4472 2010 6647 6648 6662 6663
          6650 6666 6669 6671 6677 7024
          7037 6679 7039 7029 7041 7043
          7071 7073 7075 7077 7173 7175
          7167 7169 7171 7201 7203 7205
          14313 14321 14322 14324 6668 14327
          15844 15845 15847 7020 15850 7021
          14340 15863 15865 15867 15878 15879
          15881 7026 15884 7027 15897 15899
          15901 15992 15993 15995 7054 15998
          7055 16011 16013 16015 7058 16026
          16027 16029 7060 16032 7061 16045
          16047 16049 7063 15917 16087 16089
          16091 16101 16103 16105 16524 16525
          16527 7156 16530 7157 16543 16545
          16547 7160 16528 16529 16556 16557
          16531 16560 16500 16501 4449 16506
          16503 7154 16546 16576 16548 16578
          16516 16520 16518 4450 16619 16621
          16623 16622 16632 16624 16634 16612
          16616 16614 16658 16659 16661 7182
          16664 7183 16674 16676 16678 7185
          16692 16693 16695 4455 16698 7188
          16708 16710 16712 4456 16790 16792
          16794 16804 16806 16808
        </DataArray>
        <DataArray type="Float64" Name="bounds" format="ascii" RangeMin="0" RangeMax="0">
          0 0 0 0 0 0
          0 0 0 0 0 0
          0 0 0 0 0 0
          0 0 0 0 0 0
          0 0 0 0 0 0
          0 0 0 0 0 0
          0 0 0 0 0 0
          0 0 0 0 0 0
          0 0 0 0 0 0
          0 0 0 0 0 0
          0 0 0 0 0 0
          0 0 0 0 0 0
          0 0 0 0 0 0
          0 0 0 0 0 0
          0 0 0 0 0 0
          0 0 0 0 0 0
          0 0 0 0 0 0
          0 0 0 0 0 0
          0 0 0 0 0 0
          0 0 0 0 0 0
          0 0 0 0 0 0
          0 0 0 0 0 0
          0 0 0 0 0 0
          0 0 0 0 0 0
          0 0 0 0 0 0
          0 0 0 0 0 0
          0 0 0 0 0 0
          0 0 0 0 0 0
          0 0 0 0 0 0
          0 0 0 0 0 0
          0 0 0 0 0 0
          0 0 0 0 0 0
          0 0 0 0 0 0
          0 0 0 0 0 0
          0 0 0 0 0 0
          0 0 0 0 0 0
          0 0 0 0 0 0
          0 0 0 0 0 0
          0 0 0 0 0 0
          0 0 0 0 0 0
          0 0 0 0 0 0
          0 0 0 0 0 0
          0 0 0 0 0 0
          0 0 0 0 0 0
          0 0 0 0 0 0
          0 0 0 0 0 0
          0 0 0 0 0 0
          0 0 0 0 0 0
          0 0 0 0 0 0
          0 0 0 0 0 0
          0 0 0 0 0 0
          0 0 0 0 0 0
          0 0 0 0 0 0
          0 0 0 0 0 0
          0 0 0 0 0 0
          0 0 0 0 0 0
          0 0 0 0 0 0
          0 0 0 0 0 0
          0 0 0 0 0 0
          0 0 0 0 0 0
          0 0 0 0 0 0
          0 0 0 0 0 0
          0 0 0 0 0 0
          0 0 0 0 0 0
          0 0 0 0 0 0
          0 0 0 0 0 0
          0 0 0 0 0 0
          0 0 0 0 0 0
          0 0 0 0 0 0
          0 0 0 0 0 0
          0 0 0 0 0 0
          0 0 0 0 0 0
          0 0 0 0 0 0
          0 0 0 0 0 0
          0 0 0 0 0 0
          0 0 0 0 0 0
          0 0 0 0 0 0
          0 0 0 0 0 0
          0 0 0 0 0 0
          0 0 0 0 0 0
          0 0 0 0 0 0
          0 0 0 0 0 0
          0 0 0 0 0 0
          0 0 0 0 0 0
          0 0 0 0 0 0
          0 0 0 0 0 0
          0 0 0 0 0 0
          0 0 0 0 0 0
          0 0 0 0 0 0
          0 0 0 0 0 0
          0 0 0 0 0 0
          0 0 0 0 0 0
          0 0 0 0 0 0
          0 0 0 0 0 0
          0 0 0 0 0 0
          0 0 0 0 0 0
          0 0 0 0 0 0
          0 0 0 0 0 0
          0 0 0 0 0 0
          0 0 0 0 0 0
          0 0 0 0 0 0
          0 0 0 0 0 0
          0 0 0 0 0 0
          0 0 0 0 0 0
          0 0 0 0 0 0
          0 0 0 0 0 0
          0 0 0 0 0 0
          0 0 0 0 0 0
          0 0 0 0 0 0
          0 0 0 0 0 0
          0 0 0 0 0 0
          0 0 0 0 0 0
          0 0 0 0 0 0
          0 0 0 0 0 0
          0 0 0 0 0 0
          0 0 0 0 0 0
          0 0 0 0 0 0
          0 0 0 0 0 0
          0 0 0 0 0 0
          0 0 0 0 0 0
          0 0 0 0 0 0
          0 0 0 0 0 0
          0 0 0 0 0 0
          0 0 0 0 0 0
          0 0 0 0 0 0
          0 0 0 0 0 0
          0 0 0 0 0 0
          0 0 0 0 0 0
          0 0 0 0 0 0
          0 0 0 0 0 0
          0 0 0 0 0 0
          0 0 0 0 0 0
          0 0 0 0 0 0
          0 0 0 0 0 0
          0 0 0 0 0 0
          0 0 0 0 0 0
          0 0 0 0 0 0
          0 0 0 0 0 0
          0 0 0 0 0 0
          0 0 0 0 0 0
          0 0 0 0 0 0
          0 0 0 0 0 0
          0 0 0 0 0 0
          0 0 0 0 0 0
          0 0 0 0 0 0
          0 0 0 0 0 0
          0 0 0 0 0 0
          0 0 0 0 0 0
          0 0 0 0 0 0
          0 0 0 0 0 0
          0 0 0 0 0 0
          0 0 0 0 0 0
          0 0 0 0 0 0
          0 0 0 0 0 0
          0 0 0 0 0 0
          0 0 0 0 0 0
          0 0 0 0 0 0
          0 0 0 0 0 0
          0 0 0 0 0 0
          0 0 0 0 0 0
          0 0 0 0 0 0
          0 0 0 0 0 0
          0 0 0 0 0 0
          0 0 0 0 0 0
          0 0 0 0 0 0
          0 0 0 0 0 0
          0 0 0 0 0 0
          0 0 0 0 0 0
          0 0 0 0 0 0
          0 0 0 0 0 0
          0 0 0 0 0 0
          0 0 0 0 0 0
          0 0 0 0 0 0
          0 0 0 0 0 0
          0 0 0 0 0 0
          0 0 0 0 0 0
          0 0 0 0 0 0
          0 0 0 0 0 0
          0 0 0 0 0 0
          0 0 0 0 0 0
          0 0 0 0 0 0
          0 0 0 0 0 0
          0 0 0 0 0 0
          0 0 0 0 0 0
          0 0 0 0 0 0
          0 0 0 0 0 0
          0 0 0 0 0 0
          0 0 0 0 0 0
          0 0 0 0 0 0
          0 0 0 0 0 0
          0 0 0 0 0 0
          0 0 0 0 0 0
          0 0 0 0 0 0
          0 0 0 0 0 0
          0 0 0 0 0 0
          0 0 0 0 0 0
          0 0 0 0 0 0
          0 0 0 0 0 0
          0 0 0 0 0 0
          0 0 0 0 0 0
          0 0 0 0 0 0
          0 0 0 0 0 0
          0 0 0 0 0 0
          0 0 0 0 0 0
          0 0 0 0 0 0
          0 0 0 0 0 0
          0 0 0 0 0 0
          0 0 0 0 0 0
          0 0 0 0 0 0
          0 0 0 0 0 0
          0 0 0 0 0 0
          0 0 0 0 0 0
          0 0 0 0 0 0
          0 0 0 0 0 0
          0 0 0 0 0 0
          0 0 0 0 0 0
          0 0 0 0 0 0
          0 0 0 0 0 0
          0 0 0 0 0 0
          0 0 0 0 0 0
          0 0 0 0 0 0
          0 0 0 0 0 0
          0 0 0 0 0 0
          0 0 0 0 0 0
          0 0 0 0 0 0
          0 0 0 0 0 0
          0 0 0 0 0 0
          0 0 0 0 0 0
          0 0 0 0 0 0
          0 0 0 0 0 0
          0 0 0 0 0 0
          0 0 0 0 0 0
          0 0 0 0 0 0
          0 0 0 0 0 0
          0 0 0 0 0 0
          0 0 0 0 0 0
          0 0 0 0 0 0
          0 0 0 0 0 0
          0 0 0 0 0 0
          0 0 0 0 0 0
          0 0 0 0 0 0
          0 0 0 0 0 0
          0 0 0 0 0 0
          0 0 0 0 0 0
          0 0 0 0 0 0
          0 0 0 0 0 0
          0 0 0 0 0 0
          0 0 0 0 0 0
          0 0 0 0 0 0
          0 0 0 0 0 0
          0 0 0 0 0 0
          0 0 0 0 0 0
          0 0 0 0 0 0
          0 0 0 0 0 0
          0 0 0 0 0 0
          0 0 0 0 0 0
          0 0 0 0 0 0
          0 0 0 0 0 0
          0 0 0 0 0 0
          0 0 0 0 0 0
          0 0 0 0 0 0
          0 0 0 0 0 0
          0 0 0 0 0 0
          0 0 0 0 0 0
          0 0 0 0 0 0
          0 0 0 0 0 0
          0 0 0 0 0 0
          0 0 0 0 0 0
          0 0 0 0 0 0
          0 0 0 0 0 0
          0 0 0 0 0 0
          0 0 0 0 0 0
          0 0 0 0 0 0
          0 0 0 0 0 0
          0 0 0 0 0 0
          0 0 0 0 0 0
          0 0 0 0 0 0
          0 0 0 0 0 0
          0 0 0 0 0 0
          0 0 0 0 0 0
          0 0 0 0 0 0
          0 0 0 0 0 0
          0 0 0 0 0 0
          0 0 0 0 0 0
          0 0 0 0 0 0
          0 0 0 0 0 0
          0 0 0 0 0 0
          0 0 0 0 0 0
          0 0 0 0 0 0
          0 0 0 0 0 0
          0 0 0 0 0 0
          0 0 0 0 0 0
          0 0 0 0 0 0
          0 0 0 0 0 0
          0 0 0 0 0 0
          0 0 0 0 0 0
          0 0 0 0 0 0
          0 0 0 0 0 0
          0 0 0 0 0 0
          0 0 0 0 0 0
          0 0 0 0 0 0
          0 0 0 0 0 0
          0 0 0 0 0 0
          0 0 0 0 0 0
          0 0 0 0 0 0
          0 0 0 0 0 0
          0 0 0 0 0 0
          0 0 0 0 0 0
          0 0 0 0 0 0
          0 0 0 0 0 0
          0 0 0 0 0 0
          0 0 0 0 0 0
          0 0 0 0 0 0
          0 0 0 0 0 0
          0 0 0 0 0 0
          0 0 0 0 0 0
          0 0 0 0 0 0
          0 0 0 0 0 0
          0 0 0 0 0 0
          0 0 0 0 0 0
          0 0 0 0 0 0
          0 0 0 0 0 0
          0 0 0 0 0 0
          0 0 0 0 0 0
          0 0 0 0 0 0
          0 0 0 0 0 0
          0 0 0 0 0 0
          0 0 0 0 0 0
          0 0 0 0 0 0
          0 0 0 0 0 0
          0 0 0 0 0 0
          0 0 0 0 0 0
          0 0 0 0 0 0
          0 0 0 0 0 0
          0 0 0 0 0 0
          0 0 0 0 0 0
          0 0 0 0 0 0
          0 0 0 0 0 0
          0 0 0 0 0 0
          0 0 0 0 0 0
          0 0 0 0 0 0
          0 0 0 0 0 0
          0 0 0 0 0 0
          0 0 0 0 0 0
          0 0 0 0 0 0
          0 0 0 0 0 0
          0 0 0 0 0 0
          0 0 0 0 0 0
          0 0 0 0 0 0
          0 0 0 0 0 0
          0 0 0 0 0 0
          0 0 0 0 0 0
          0 0 0 0 0 0
          0 0 0 0 0 0
          0 0 0 0 0 0
          0 0 0 0 0 0
          0 0 0 0 0 0
          0 0 0 0 0 0
          0 0 0 0 0 0
          0 0 0 0 0 0
          0 0 0 0 0 0
          0 0 0 0 0 0
          0 0 0 0 0 0
          0 0 0 0 0 0
          0 0 0 0 0 0
          0 0 0 0 0 0
          0 0 0 0 0 0
          0 0 0 0 0 0
          0 0 0 0 0 0
          0 0 0 0 0 0
          0 0 0 0 0 0
          0 0 0 0 0 0
          0 0 0 0 0 0
          0 0 0 0 0 0
          0 0 0 0 0 0
          0 0 0 0 0 0
          0 0 0 0 0 0
          0 0 0 0 0 0
          0 0 0 0 0 0
          0 0 0 0 0 0
          0 0 0 0 0 0
          0 0 0 0 0 0
          0 0 0 0 0 0
          0 0 0 0 0 0
          0 0 0 0 0 0
          0 0 0 0 0 0
          0 0 0 0 0 0
          0 0 0 0 0 0
          0 0 0 0 0 0
          0 0 0 0 0 0
          0 0 0 0 0 0
          0 0 0 0 0 0
          0 0 0 0 0 0
          0 0 0 0 0 0
          0 0 0 0 0 0
          0 0 0 0 0 0
          0 0 0 0 0 0
          0 0 0 0 0 0
          0 0 0 0
        </DataArray>
        <DataArray type="Float64" Name="gradient_error" format="ascii" RangeMin="4.674561047453574e-23" RangeMax="7.353756880024771e-7">
          1.684588582997184e-8 1.588986929259486e-8 9.939287113401682e-8 4.633047452381817e-7 7.849895573783975e-9 2.136478625016982e-7
          9.576075831892078e-9 2.081027289260236e-8 3.804655338155346e-7 8.404781188711886e-8 8.246599542013447e-9 6.521328122369453e-7
          4.6213352933242143e-7 3.7527394237834204e-7 2.6721715945652355e-7 2.407025221992118e-7 6.775369021781397e-8 3.136561410655619e-7
          8.387710493235345e-8 3.240921287565125e-7 1.0694941286232697e-8 1.1716515125739804e-7 1.2834172830575369e-7 2.862319578294336e-7
          9.46206991583176e-9 6.809666720668442e-8 2.0856784662703808e-8 1.3776488966272274e-8 8.509744658188666e-8 1.917446998094336e-8
          1.3642108822488204e-7 3.924193787147765e-7 2.958239217047019e-7 1.460080416880171e-8 3.048933429660442e-8 4.508445120171275e-8
          4.950471694261728e-7 3.5678323972771437e-7 2.5171193080469563e-7 1.1636329318784197e-7 4.9512108453839666e-8 4.503708563205096e-7
          3.2031328605099493e-7 1.4793118264097977e-7 8.727646148114344e-9 2.2020127210202878e-8 6.290264762305619e-7 2.2198388594666977e-8
          1.4244215192180519e-8 3.2526828983775043e-8 1.6119383322249145e-8 4.755830431405453e-8 5.664552771996114e-7 4.415599410816693e-7
          1.2909383530492526e-8 3.265769928422243e-8 4.696896489633666e-8 5.900202010407837e-7 5.17196173138063e-7 3.7055549111806586e-7
          1.7029184984250006e-7 7.283425768194012e-8 5.407936908299328e-7 3.885542945976425e-7 1.782138744602116e-7 3.2609633465860695e-7
          3.1938973208127936e-7 1.711155385452231e-7 9.94731473050845e-8 2.4577427062121723e-7 1.504569574912274e-7 2.0418589473256813e-8
          1.4468365876161217e-7 1.0652668000602685e-7 4.8571100553616986e-8 7.561182297508776e-8 2.525492087642009e-8 1.5673237691873253e-7
          1.489372856805318e-7 2.810528028637997e-8 1.5526169199992747e-7 1.8893013383308405e-7 1.0590882617171627e-7 1.354158289905642e-7
          8.848373316993293e-9 1.3401764329563618e-7 2.198977086612e-7 1.095254939997547e-8 1.3784019197173634e-7 2.3081895779556198e-7
          1.573478897974358e-7 1.6527823270144418e-7 9.560525353338769e-8 9.790799768971886e-8 1.0064179698242612e-7 1.1256413259601609e-7
          1.0337559627513339e-7 1.1911493202478126e-7 1.272173199376913e-7 1.4303797597613083e-7 1.353197078506013e-7 1.0029664353472359e-7
          1.0252832056766074e-7 1.0475999760059788e-7 1.2495417605086269e-7 1.2643786534547088e-7 6.830145666436808e-8 1.1043027739759789e-7
          1.5095103293840241e-7 5.12573877959883e-8 1.3845101371170286e-7 1.2754074215147404e-7 1.621036115452215e-7 1.0287395880268473e-7
          1.0931424001119115e-7 1.123657430415672e-7 1.2440620885210646e-7 1.1575452121969761e-7 1.364466746626457e-7 8.91886125080305e-8