<?xml version="1.0"?>
<VTKFile type="UnstructuredGrid" version="0.1" byte_order="LittleEndian" header_type="UInt32" compressor="vtkZLibDataCompressor">
  <UnstructuredGrid>
    <Piece NumberOfPoints="1418" NumberOfCells="888">
      <PointData>
        <DataArray type="Int32" Name="libmesh_node_id" format="ascii" RangeMin="1532" RangeMax="6749">
          1532 1632 1735 1736 1743 1744
          1747 1926 1927 1928 1931 1932
          1933 1934 1936 1937 1938 1939
          1943 1944 1946 1947 1949 1952
          1953 1958 1960 1961 1967 2192
          2193 2194 2197 2198 2199 2200
          2201 2202 2205 2206 2208 2209
          2212 2525 2526 2527 2528 2529
          2530 2531 2532 2533 2534 2535
          2536 2537 2538 2552 2553 2554
          2555 2556 2557 2558 2559 2560
          2561 2564 2565 2567 2570 2572
          2573 2574 2575 2576 2577 2578
          2579 2580 2581 2589 2590 2591
          2592 2593 2594 2595 2596 2597
          2598 2599 2600 2601 2602 2603
          2604 2605 2606 2607 2608 2609
          2610 2611 2612 2613 2617 2618
          2620 2621 2623 2624 2625 2626
          2627 2628 2629 2630 2631 2632
          2633 2634 2635 2638 2639 2641
          2643 2644 2645 2646 2647 2648
          2649 2650 2651 2652 2653 2654
          2655 2656 2657 2658 2660 2661
          2662 2663 2664 2665 2666 2667
          2668 2669 2670 2671 2673 2675
          2677 2688 2689 2690 2691 2692
          2693 2694 2695 2696 2697 2698
          2699 2700 2701 2702 2703 2704
          2705 2706 2707 2708 2709 2712
          2713 2715 2717 3178 3179 3183
          3184 3185 3188 3189 3513 3514
          3515 3516 3517 3518 3519 3520
          3521 3526 3527 3528 3529 3530
          3531 3532 3533 3534 3535 3536
          3547 3548 3549 3550 3551 3552
          3553 3554 3555 3556 3557 3558
          3559 3560 3561 3562 3563 3564
          3565 3566 3567 3568 3569 3570
          3571 3572 3573 3574 3575 3576
          3577 3578 3579 3580 3581 3582
          3583 3584 3585 3586 3587 3588
          3589 3590 3591 3592 3593 3594
          3595 3596 3597 3598 3599 3600
          3601 3602 3603 3604 3605 3606
          3607 3608 3609 3610 3611 3612
          3613 3614 3615 3616 3617 3618
          3619 3620 3621 3622 3623 3624
          3625 3626 3627 3628 3629 3630
          3631 3632 3633 3634 3635 3636
          3637 3638 3639 3640 3641 3642
          3643 3644 3645 3646 3647 3648
          3649 3650 3652 3653 3654 3655
          3656 3657 3658 3659 3660 3661
          3662 3663 3664 3665 3666 3667
          3668 3669 3670 3671 3672 3673
          3674 3675 3676 3677 3678 3679
          3680 3681 3682 3683 3684 3685
          3686 3687 3688 3689 3690 3691
          3692 3693 3694 3695 3696 3697
          3698 3699 3700 3701 3702 3703
          3704 3705 3706 3707 3708 3709
          3710 3711 3712 3713 3714 3715
          3716 3717 3718 3719 3720 3721
          3722 3723 3724 3725 3726 3727
          3728 3729 3730 3731 3732 3733
          3735 3736 3737 3738 3739 3740
          3741 3742 3743 3744 3745 3746
          3748 3750 3752 3753 3754 3755
          3756 3757 3758 3759 3760 3761
          3762 3763 3764 3765 3766 3767
          3768 3769 3770 3771 3772 3773
          3774 3775 3776 3777 3778 3779
          3780 3782 3784 3786 3787 3788
          3789 3790 3791 3792 3793 3794
          3796 3797 3798 3799 3800 3801
          3802 3803 3804 3806 3808 3810
          5705 5706 5707 5708 5709 5710
          5711 5712 5713 5714 5715 5716
          5717 5718 5719 5720 5721 5722
          5723 5724 5725 5726 5727 5728
          5729 5730 5731 5732 5733 5734
          5735 5736 5737 5738 5739 5740
          5741 5742 5743 5744 5745 5746
          5747 5748 5749 5750 5751 5752
          5753 5754 5755 5756 5757 5758
          5759 5760 5761 5762 5763 5764
          5765 5766 5767 5768 5769 5770
          5771 5772 5773 5774 5775 5776
          5777 5778 5779 5780 5781 5782
          5783 5784 5785 5786 5787 5788
          5789 5790 5791 5792 5793 5794
          5795 5796 5797 5798 5799 5800
          5801 5802 5803 5804 5805 5806
          5807 5808 5809 5810 5811 5812
          5813 5814 5815 5816 5817 5818
          5819 5820 5821 5822 5823 5824
          5825 5826 5827 5828 5829 5830
          5831 5832 5833 5834 5835 5836
          5837 5838 5839 5840 5841 5842
          5843 5844 5845 5846 5847 5848
          5849 5850 5851 5852 5853 5854
          5855 5856 5857 5858 5859 5860
          5861 5862 5863 5864 5865 5866
          5867 5868 5869 5870 5871 5872
          5873 5874 5875 5876 5877 5878
          5879 5880 5881 5882 5883 5884
          5885 5886 5887 5888 5889 5890
          5891 5892 5893 5894 5895 5896
          5897 5898 5899 5900 5901 5902
          5903 5904 5905 5906 5907 5908
          5909 5910 5911 5912 5913 5914
          5915 5916 5917 5918 5919 5920
          5921 5922 5923 5924 5925 5926
          5927 5928 5929 5930 5931 5932
          5933 5934 5935 5936 5937 5938
          5939 5940 5941 5942 5943 5944
          5945 5946 5947 5948 5949 5950
          5951 5952 5953 5954 5955 5956
          5957 5958 5959 5960 5961 5962
          5963 5964 5965 5966 5967 5968
          5969 5970 5971 5972 5973 5974
          5975 5976 5977 5978 5979 5980
          5981 5982 5983 5984 5985 5986
          5987 5988 5989 5990 5991 5992
          5993 5994 5995 5996 5997 5998
          5999 6000 6001 6002 6003 6004
          6005 6006 6007 6008 6009 6010
          6011 6012 6013 6014 6015 6016
          6017 6018 6019 6020 6021 6022
          6023 6024 6025 6026 6027 6028
          6029 6030 6031 6032 6033 6034
          6035 6036 6037 6038 6039 6040
          6041 6042 6043 6044 6045 6046
          6047 6048 6049 6050 6051 6052
          6053 6054 6055 6056 6057 6058
          6059 6060 6061 6062 6063 6064
          6065 6066 6067 6068 6069 6070
          6071 6072 6073 6074 6075 6076
          6077 6078 6079 6080 6081 6082
          6083 6084 6085 6086 6087 6088
          6089 6090 6091 6092 6093 6094
          6095 6096 6097 6098 6099 6100
          6101 6102 6103 6104 6105 6106
          6107 6108 6109 6110 6111 6112
          6113 6114 6115 6116 6117 6118
          6119 6120 6121 6122 6123 6124
          6125 6126 6127 6128 6129 6130
          6131 6132 6133 6134 6135 6136
          6137 6138 6139 6140 6141 6142
          6143 6144 6145 6146 6147 6148
          6149 6150 6151 6152 6153 6154
          6155 6156 6157 6158 6159 6160
          6161 6162 6163 6164 6165 6166
          6167 6168 6169 6170 6171 6172
          6173 6174 6175 6176 6177 6178
          6179 6180 6181 6182 6183 6184
          6185 6186 6187 6188 6189 6190
          6191 6192 6193 6194 6195 6196
          6197 6198 6199 6200 6201 6202
          6203 6204 6205 6206 6207 6208
          6209 6210 6211 6212 6213 6214
          6215 6216 6217 6218 6220 6221
          6222 6223 6224 6225 6226 6227
          6228 6229 6230 6231 6232 6233
          6234 6235 6236 6237 6238 6239
          6240 6241 6242 6243 6244 6245
          6246 6247 6248 6249 6250 6251
          6252 6253 6254 6255 6256 6257
          6258 6259 6260 6261 6262 6263
          6264 6265 6266 6267 6268 6269
          6270 6271 6272 6273 6274 6275
          6276 6277 6278 6279 6280 6281
          6282 6283 6284 6285 6286 6287
          6288 6289 6290 6291 6292 6293
          6294 6295 6296 6297 6298 6299
          6300 6301 6302 6303 6304 6305
          6306 6307 6308 6309 6310 6311
          6312 6313 6314 6315 6316 6317
          6318 6319 6320 6321 6322 6323
          6324 6325 6326 6327 6328 6329
          6330 6331 6332 6333 6334 6335
          6336 6337 6338 6339 6340 6341
          6342 6343 6344 6345 6346 6347
          6348 6349 6350 6351 6352 6353
          6354 6355 6356 6357 6358 6359
          6360 6361 6362 6363 6364 6365
          6366 6367 6368 6369 6370 6371
          6372 6373 6374 6375 6376 6377
          6378 6379 6380 6381 6382 6383
          6384 6385 6386 6387 6388 6389
          6390 6391 6392 6393 6394 6395
          6396 6397 6398 6399 6400 6401
          6402 6403 6404 6405 6406 6407
          6408 6409 6410 6411 6412 6413
          6414 6416 6417 6418 6419 6420
          6421 6422 6423 6424 6426 6428
          6430 6431 6432 6433 6434 6435
          6436 6437 6438 6439 6440 6442
          6443 6444 6445 6446 6447 6448
          6449 6450 6451 6452 6454 6456
          6458 6459 6460 6462 6467 6469
          6473 6474 6477 6493 6495 1929
          1950 1930 1951 1741 1954 1956
          1955 1957 1746 1959 1739 1962
          1945 1963 1964 1965 1742 1966
          1969 1968 1633 2096 2099 2100
          2097 1733 1737 1734 2103 2102
          1533 1740 2106 2107 1748 2188
          2189 2190 2191 2195 2196 1922
          1923 2203 2204 2207 1738 1940
          2210 2211 2213 2214 2215 2216
          2217 2515 2516 2517 2520 1924
          2523 1925 2543 2544 2548 2550
          2521 2522 2562 2563 2524 2566
          2549 2583 2582 2571 2587 2586
          2585 1935 2614 2615 2616 2619
          1941 2622 1942 2636 2637 2640
          2642 2659 2672 2674 2676 1745
          2680 2681 2684 2686 2710 2711
          2714 2716 3174 3176 3180 3181
          3186 3187 3190 3524 3539 3540
          3542 3545 2569 3734 3651 3747
          3749 3751 3795 3783 3805 3807
          1948 3809 3811 3812 3839 3840
          3814 3843 3859 3848 3863 5689
          5697 5698 5700 2568 5703 6415
          3781 6219 6425 6427 6429 6441
          3785 6453 6455 6457 6461 6475
          6476 6478 6479 6480 3845 6481
          6482 3846 6468 6494 6496 6497
          6498 6499 6579 6580 6583 6585
          6586 6588 6599 6601 6603 6605
          6613 6614 6617 6619 6620 6622
          6633 6635 6637 6639 6555 6715
          6557 6717 6719 6721 6743 6745
          6747 6749
        </DataArray>
        <DataArray type="Float64" Name="bounds" format="ascii" RangeMin="0" RangeMax="0">
          0 0 0 0 0 0
          0 0 0 0 0 0
          0 0 0 0 0 0
          0 0 0 0 0 0
          0 0 0 0 0 0
          0 0 0 0 0 0
          0 0 0 0 0 0
          0 0 0 0 0 0
          0 0 0 0 0 0
          0 0 0 0 0 0
          0 0 0 0 0 0
          0 0 0 0 0 0
          0 0 0 0 0 0
          0 0 0 0 0 0
          0 0 0 0 0 0
          0 0 0 0 0 0
          0 0 0 0 0 0
          0 0 0 0 0 0
          0 0 0 0 0 0
          0 0 0 0 0 0
          0 0 0 0 0 0
          0 0 0 0 0 0
          0 0 0 0 0 0
          0 0 0 0 0 0
          0 0 0 0 0 0
          0 0 0 0 0 0
          0 0 0 0 0 0
          0 0 0 0 0 0
          0 0 0 0 0 0
          0 0 0 0 0 0
          0 0 0 0 0 0
          0 0 0 0 0 0
          0 0 0 0 0 0
          0 0 0 0 0 0
          0 0 0 0 0 0
          0 0 0 0 0 0
          0 0 0 0 0 0
          0 0 0 0 0 0
          0 0 0 0 0 0
          0 0 0 0 0 0
          0 0 0 0 0 0
          0 0 0 0 0 0
          0 0 0 0 0 0
          0 0 0 0 0 0
          0 0 0 0 0 0
          0 0 0 0 0 0
          0 0 0 0 0 0
          0 0 0 0 0 0
          0 0 0 0 0 0
          0 0 0 0 0 0
          0 0 0 0 0 0
          0 0 0 0 0 0
          0 0 0 0 0 0
          0 0 0 0 0 0
          0 0 0 0 0 0
          0 0 0 0 0 0
          0 0 0 0 0 0
          0 0 0 0 0 0
          0 0 0 0 0 0
          0 0 0 0 0 0
          0 0 0 0 0 0
          0 0 0 0 0 0
          0 0 0 0 0 0
          0 0 0 0 0 0
          0 0 0 0 0 0
          0 0 0 0 0 0
          0 0 0 0 0 0
          0 0 0 0 0 0
          0 0 0 0 0 0
          0 0 0 0 0 0
          0 0 0 0 0 0
          0 0 0 0 0 0
          0 0 0 0 0 0
          0 0 0 0 0 0
          0 0 0 0 0 0
          0 0 0 0 0 0
          0 0 0 0 0 0
          0 0 0 0 0 0
          0 0 0 0 0 0
          0 0 0 0 0 0
          0 0 0 0 0 0
          0 0 0 0 0 0
          0 0 0 0 0 0
          0 0 0 0 0 0
          0 0 0 0 0 0
          0 0 0 0 0 0
          0 0 0 0 0 0
          0 0 0 0 0 0
          0 0 0 0 0 0
          0 0 0 0 0 0
          0 0 0 0 0 0
          0 0 0 0 0 0
          0 0 0 0 0 0
          0 0 0 0 0 0
          0 0 0 0 0 0
          0 0 0 0 0 0
          0 0 0 0 0 0
          0 0 0 0 0 0
          0 0 0 0 0 0
          0 0 0 0 0 0
          0 0 0 0 0 0
          0 0 0 0 0 0
          0 0 0 0 0 0
          0 0 0 0 0 0
          0 0 0 0 0 0
          0 0 0 0 0 0
          0 0 0 0 0 0
          0 0 0 0 0 0
          0 0 0 0 0 0
          0 0 0 0 0 0
          0 0 0 0 0 0
          0 0 0 0 0 0
          0 0 0 0 0 0
          0 0 0 0 0 0
          0 0 0 0 0 0
          0 0 0 0 0 0
          0 0 0 0 0 0
          0 0 0 0 0 0
          0 0 0 0 0 0
          0 0 0 0 0 0
          0 0 0 0 0 0
          0 0 0 0 0 0
          0 0 0 0 0 0
          0 0 0 0 0 0
          0 0 0 0 0 0
          0 0 0 0 0 0
          0 0 0 0 0 0
          0 0 0 0 0 0
          0 0 0 0 0 0
          0 0 0 0 0 0
          0 0 0 0 0 0
          0 0 0 0 0 0
          0 0 0 0 0 0
          0 0 0 0 0 0
          0 0 0 0 0 0
          0 0 0 0 0 0
          0 0 0 0 0 0
          0 0 0 0 0 0
          0 0 0 0 0 0
          0 0 0 0 0 0
          0 0 0 0 0 0
          0 0 0 0 0 0
          0 0 0 0 0 0
          0 0 0 0 0 0
          0 0 0 0 0 0
          0 0 0 0 0 0
          0 0 0 0 0 0
          0 0 0 0 0 0
          0 0 0 0 0 0
          0 0 0 0 0 0
          0 0 0 0 0 0
          0 0 0 0 0 0
          0 0 0 0 0 0
          0 0 0 0 0 0
          0 0 0 0 0 0
          0 0 0 0 0 0
          0 0 0 0 0 0
          0 0 0 0 0 0
          0 0 0 0 0 0
          0 0 0 0 0 0
          0 0 0 0 0 0
          0 0 0 0 0 0
          0 0 0 0 0 0
          0 0 0 0 0 0
          0 0 0 0 0 0
          0 0 0 0 0 0
          0 0 0 0 0 0
          0 0 0 0 0 0
          0 0 0 0 0 0
          0 0 0 0 0 0
          0 0 0 0 0 0
          0 0 0 0 0 0
          0 0 0 0 0 0
          0 0 0 0 0 0
          0 0 0 0 0 0
          0 0 0 0 0 0
          0 0 0 0 0 0
          0 0 0 0 0 0
          0 0 0 0 0 0
          0 0 0 0 0 0
          0 0 0 0 0 0
          0 0 0 0 0 0
          0 0 0 0 0 0
          0 0 0 0 0 0
          0 0 0 0 0 0
          0 0 0 0 0 0
          0 0 0 0 0 0
          0 0 0 0 0 0
          0 0 0 0 0 0
          0 0 0 0 0 0
          0 0 0 0 0 0
          0 0 0 0 0 0
          0 0 0 0 0 0
          0 0 0 0 0 0
          0 0 0 0 0 0
          0 0 0 0 0 0
          0 0 0 0 0 0
          0 0 0 0 0 0
          0 0 0 0 0 0
          0 0 0 0 0 0
          0 0 0 0 0 0
          0 0 0 0 0 0
          0 0 0 0 0 0
          0 0 0 0 0 0
          0 0 0 0 0 0
          0 0 0 0 0 0
          0 0 0 0 0 0
          0 0 0 0 0 0
          0 0 0 0 0 0
          0 0 0 0 0 0
          0 0 0 0 0 0
          0 0 0 0 0 0
          0 0 0 0 0 0
          0 0 0 0 0 0
          0 0 0 0 0 0
          0 0 0 0 0 0
          0 0 0 0 0 0
          0 0 0 0 0 0
          0 0 0 0 0 0
          0 0 0 0 0 0
          0 0 0 0 0 0
          0 0 0 0 0 0
          0 0 0 0 0 0
          0 0 0 0 0 0
          0 0 0 0 0 0
          0 0 0 0 0 0
          0 0 0 0 0 0
          0 0 0 0 0 0
          0 0 0 0 0 0
          0 0 0 0 0 0
          0 0 0 0 0 0
          0 0 0 0 0 0
          0 0 0 0 0 0
          0 0 0 0 0 0
          0 0 0 0 0 0
          0 0 0 0 0 0
          0 0
        </DataArray>
        <DataArray type="Float64" Name="gradient_error" format="ascii" RangeMin="3.4099946353222353e-11" RangeMax="9.583699867416848e-8">
          5.344270850022745e-10 7.826155875272175e-10 3.225908661762473e-8 2.727315792528757e-8 1.2511726916531597e-10 5.7637525537550243e-8
          1.029352082997529e-10 2.491592245382505e-8 4.8690930526653144e-8 8.140863823656102e-8 4.8192020976331275e-8 2.249201979993568e-10
          4.906611064235772e-8 5.882622950120192e-8 2.260909931205068e-8 1.7010906756539023e-8 5.1719777774193455e-8 5.955736149941606e-8
          1.9541437436350574e-8 4.1930326124967837e-8 3.892065160972855e-10 3.869173924723987e-8 5.887610934116792e-8 2.1432347298597746e-8
          2.9346361033045157e-8 2.0031956853036356e-8 1.5602989530300737e-8 2.1411874481104265e-8 1.443778863718808e-8 1.765102032919547e-9
          1.6877024618587742e-8 1.3754231884763361e-8 6.383026365256167e-9 1.4388855784265825e-9 1.208247399062329e-9 1.023674957426503e-8
          8.357249099911384e-9 6.726025471648224e-10 6.087065661756126e-10 3.753836898557951e-9 3.006523825447079e-10 3.299758790182953e-10
          1.49052786148415e-10 3.535740202668419e-8 3.285612871268358e-8 5.7540474289939454e-8 5.399073091870212e-8 3.044573127259179e-8
          5.771144062004373e-8 5.385099554143897e-8 2.6337060494884782e-8 4.421782653622076e-8 4.339350314624983e-8 4.6640254426250386e-8
          6.592961019025776e-8 6.951065444237064e-8 7.757911327766043e-8 1.8577810689961273e-8 3.0925300093448e-8 1.6697721250671045e-8
          2.955751878549669e-8 1.4836355788835959e-8 2.3855934661919274e-8 2.2318581741327942e-8 5.8124300359276365e-8 5.92625114840015e-8
          4.083379778084859e-8 3.097121445469696e-8 4.141926891191072e-8 6.789900089756777e-8 5.440728814724278e-9 7.2093327013121736e-9
          3.2939816504553065e-8 8.010914265845275e-9 3.4627871000842076e-8 7.338668225747041e-8 7.950336941815206e-8 1.4231406212621786e-10
          5.804951034274585e-9 8.71502808159151e-10 5.363388792468947e-8 7.821287939097868e-8 8.280023132707245e-8 5.063580211554939e-8
          5.1165461903575804e-8 8.344994756033935e-8 8.949275600646422e-8 5.6458664327327195e-8 2.9850661324832114e-8 2.7474609277230198e-8
          5.721991188809334e-8 5.3066575555830486e-8 2.3986913357623273e-8 5.587605729466061e-8 5.1469735274012705e-8 2.1460542359353376e-8
          4.197893133944509e-8 3.988529173977147e-8 5.0442475794831424e-8 5.941922888140229e-8 4.786310448223608e-8 7.132835357167079e-8
          2.203125737572099e-8 2.00951585808545e-8 5.345197075555758e-8 4.888092692327268e-8 1.5339213713496394e-8 3.705988237168916e-8
          5.224350470190842e-8 4.7905316530558065e-8 5.929047621745094e-8 1.4636923813380043e-8 2.776980478902262e-8 1.2454167038849454e-8
          2.555959946638854e-8 1.1451320137681613e-8 2.0494986122722707e-8 1.841202870659892e-8 5.994460099850105e-8 5.984291009568719e-8
          3.925846568786667e-8 1.0212218687742663e-8 2.296407547558052e-8 7.90506973448055e-9 1.6118269298770503e-8 5.879433858844863e-8
          3.541873788306016e-8 8.833302717779987e-9 2.278321506139725e-8 9.845173497358823e-9 1.008184952899583e-8 7.253482635784883e-8
          5.060554360616165e-8 2.2886437261736965e-10 6.393406695454161e-10 7.009741460579265e-10 6.446748213210362e-8 2.054843012914984e-9
          1.1412105411176074e-8 2.4142120348329676e-9 7.769657528119093e-9 4.013965343800741e-8 5.644172340107763e-10 1.014774951517358e-9
          1.409056593008511e-9 1.0772420325002236e-8 8.74117574532527e-8 7.740042889624671e-8 5.129453908319665e-8 5.090413777852808e-8
          9.583699867416848e-8 7.415955762884683e-8 5.847070568847519e-8 6.576498654138226e-8 4.976285081144425e-8 5.019522562367946e-8
          5.85633292298285e-8 2.257313416598468e-8 2.6160077332295094e-8 2.127676005515358e-8 2.4958345029979684e-8 1.557844019227465e-8
          1.688688067181485e-8 1.5453073240011682e-8 2.97470204986055e-8 2.8639930004805795e-8 1.8195321151355045e-8 1.9744250682903752e-8
          2.347458644340608e-8 1.7979588586947855e-8 2.16877749658203e-8 1.2629950943115513e-8 1.3932824944927774e-8 1.2431335132028109e-8
          2.720492220390841e-8 2.5395961344692754e-8 1.5235698946740036e-8 1.6008317487136038e-8 1.9602475877309086e-8 9.666520784273155e-9
          1.1090728606372318e-8 2.319663426748213e-8 1.251493642847148e-8 1.7345362425124963e-10 1.5349790989280105e-9 9.353446182826623e-10
          1.839441789911504e-10 8.387480595194553e-10 1.2808444532915118e-10 6.475709474807439e-10 1.2282923612748912e-8 1.2858580748092678e-8
          1.2680946271442023e-8 1.3399519815377546e-8 1.2503311794791369e-8 1.4210425497398088e-8 1.4043268237434745e-8 1.470290752963469e-8
          1.3876110977471404e-8 1.23597579175138e-8 1.2220976836553502e-8 1.20821957555932e-8 9.828980958973892e-9 9.791196152705031e-9
          1.0905100318248658e-8 9.987133177395614e-9 9.683683615512983e-9 1.0203562107638968e-8 1.104697125499749e-8 1.0186269206922879e-8
          5.337486835932883e-9 6.264996918571805e-9 5.494094252613417e-9 5.604335465457219e-9 8.522121630044415e-9 8.081306607871174e-9
          3.1922642951173065e-10 2.6302724475427618e-9 6.150520254494404e-10 7.057457407628254e-9 9.70492702872103e-9 9.78164392861562e-9
          9.72617044192908e-9 1.0051776625048271e-8 1.0706783133102522e-8 1.0243938880981401e-8 1.0982975038336921e-8 9.899991142457576e-9
          1.0366595011207552e-8 1.0301608555039924e-8 1.2637312082992546e-8 1.2551318077960203e-8 1.326372182636496e-8 1.3216450656118698e-8
          1.246532407292786e-8 1.3169179485872428e-8 9.131946707762809e-9 1.0343623271439745e-8 8.409218130152225e-9 1.1618178816553271e-8
          1.3967394948629428e-8 1.3896582599583782e-8 1.4682501356966233e-8 1.4598307531606862e-8 1.3825770250538137e-8 1.4514113706247492e-8
          7.616794447782694e-9 7.640715142109772e-9 8.042241739768254e-9 9.382691916431962e-9 1.1659079770220288e-8 1.223133886440535e-8
          1.1588139567754744e-8 1.2825255496545316e-8 1.3485755649471445e-8 1.2787024891264884e-8 3.2131776972481425e-9 4.559757531818102e-9
          8.00941712741707e-10 2.2105230731311575e-9 8.467524949321727e-9 7.548044569534928e-9 1.6729299066822272e-10 4.667910810917988e-10
          3.586599884027151e-10 5.6820837039278715e-9 6.827126458427606e-10 8.997367449217173e-10 5.915935641191698e-10 7.978393787645303e-10
          5.368289709326073e-9 4.308893692252637e-9 1.2913386800724867e-10 2.80475474206659e-10 2.4038943076256403e-10 3.439260746664183e-9
          1.1272264143889836e-8 1.1770345522757853e-8 1.1526684356605324e-8 1.2066332149985947e-8 1.0885448517559384e-8 1.1309352181110357e-8
          1.1465229145455906e-8 1.1090103769003036e-8 1.0479854903418716e-8 1.2700921627325131e-8 1.3484392088949626e-8 9.361581252126492e-9
          7.462419490886786e-9 1.2614818363385379e-8 1.556925571030925e-8 1.5383782587619446e-8 1.6086176313317172e-8 1.5198309464929642e-8
          1.706283770578574e-8 1.6814109445497643e-8 1.758360624182482e-8 1.6103964257650877e-8 1.4585729789570878e-8 1.4894963099358287e-8
          1.546948427012481e-8 1.4147378868624369e-8 1.8721406070486508e-8 1.8397369840960103e-8 1.9239345194207666e-8 1.7462589248807882e-8
          2.052126593557476e-8 2.0077619615704653e-8 2.0872140983722672e-8 1.879616230354456e-8 1.596531918309039e-8 1.6426727025030546e-8
          1.5078793479998714e-8 1.6869492885075776e-8 1.5780634458896977e-8 1.5420779850098676e-8 1.5325786214348006e-8 1.6216521677852084e-8
          1.610886116430511e-8 1.5230792578597336e-8 1.5973345906715826e-8 8.407061404426482e-9 8.450686168735178e-9 8.899523718409833e-9
          1.033374638966358e-8 1.709231356369979e-8 1.6974182589077373e-8 1.8048219317926257e-8 1.7915974640930728e-8 1.6573738943267738e-8
          1.7438017634991652e-8 9.305576633881534e-9 9.405638506849872e-9 9.960604924909554e-9 9.50321254955575e-9 1.5206793915361793e-8
          1.4495951412092379e-8 1.420661882918119e-8 1.3074593483741417e-8 1.4359154108198059e-8 1.5593375062396152e-8 1.636266147852686e-8
          1.4895323852711793e-8 1.5633017651005618e-8 1.2732663515543967e-8 1.3513089855411988e-8 1.5978963166838066e-8 5.339584687268162e-10
          7.120013392860882e-10 5.313338692477635e-10 6.650818492122417e-10 4.420739684183808e-9 2.863870166374515e-9 1.46962966549628e-10
          2.359191832136395e-10 2.969714233045092e-10 7.35539676413332e-10 6.134162119766533e-10 6.949454248501891e-10 7.471294129642018e-10
          8.020209849144512e-10 1.1787457418585697e-9 1.1602754371465201e-9 3.111558173480759e-10 4.0748289201311e-10 5.115223743950926e-10
          6.193191696074505e-10 1.1053209831713415e-8 1.0004289101709178e-8 1.4298022269227285e-8 1.513623945410155e-8 7.879208160294508e-9
          8.270899303102218e-9 1.4236890430256508e-8 8.961980539236753e-9 7.582924075553461e-9 1.612813882455716e-8 1.4476213603728957e-8
          8.695006589616324e-9 5.259219911157815e-9 1.5941620152237406e-8 1.468988206258869e-8 1.673036294291542e-8 1.114825608070213e-8
          1.5487727632310117e-8 1.836880592068114e-8 1.9352661713684963e-8 6.072435014921667e-9 8.377869778032924e-9 6.730110971105165e-9
          1.0718268216894467e-8 1.1690383571653153e-8 1.3795167985468878e-8 1.2236369984933846e-8 1.1945779969588105e-8 1.7842272138519483e-8
          2.213725856449955e-9 4.675454319061379e-9 2.5084226398674303e-9 9.641240900248314e-9 1.713289568363181e-8 1.7907557159550933e-8
          1.6304414710927883e-8 1.6949754957522202e-8 1.4332594204003426e-8 1.5258056924552325e-8 1.7589553424666225e-8 1.866123251693847e-8
          1.7536415720586455e-8 1.3809947766236773e-8 1.6687372139889376e-8 8.975305609372325e-10 9.557935760576118e-10 1.0901019820713048e-9
          1.144973120262686e-9 1.2147957317894516e-9 1.3367856951770692e-9 4.719991276530168e-10 6.193391399058732e-10 7.394392652479429e-10
          8.430700283591377e-10 1.3214143564955444e-9 1.3713966734354522e-9 1.5823644505795007e-9 1.6369840900636e-9 1.5168931414449386e-9
          1.7497637547857038e-9 6.679151043001761e-10 8.741028718875969e-10 1.025002211109436e-9 1.2011015328277712e-9 6.07278731743933e-9
          6.4316454918461974e-9 1.3871636396193776e-8 1.486935868924541e-8 1.5333613983719958e-9 1.5283390426508218e-9 1.0096333013311606e-8
          4.446466484592435e-9 1.3448669362813044e-8 1.5956312136639376e-9 1.1477555011773067e-8 1.5392045106380642e-8 1.6114048599625122e-8
          1.5563230279518946e-8 1.6836052092869598e-8 1.6039720635098018e-8 1.7099509629431424e-8 1.52758664610674e-8 1.7922378496753058e-8
          1.6685330616068562e-8 1.6641064437660002e-8 1.762331660804902e-8 1.5907057769942963e-8 1.6604127439800866e-8 1.7242408240221986e-8
          1.8147123586666613e-8 1.6538249078818522e-8 1.8545106434147864e-8 1.7308969042254156e-8 1.9167834371542674e-8 1.793260746843975e-8
          8.690852668523277e-10 8.603619760094183e-10 8.568417461410425e-10 8.516386851665091e-10 8.068728132285957e-10 8.278439256622248e-10
          7.879636080001736e-10 9.488308963007794e-10 1.0471892506829097e-9 1.0698575251180865e-9 1.0905526690140299e-9 1.0908682957304682e-9
          6.361658604898091e-10 7.172896725794261e-10 5.826095712018021e-10 6.783370918386955e-10 7.984134846690433e-10 8.5319282988248e-10
          4.0324645412729034e-10 5.742173691494339e-10 4.998324375363488e-10 7.451882841715775e-10 5.36268251479685e-10 6.166498084193663e-10
          4.935059757203208e-10 5.577003918432944e-10 8.394230045328773e-10 7.727937545849705e-10 2.656636897307743e-10 4.054556911765079e-10
          3.2743717568641524e-10 7.300151127649753e-10 1.0326375056367517e-9 1.0538257465772414e-9 1.0180857605905936e-9 1.029481961224648e-9
          1.0137563771945483e-9 1.0771492787425891e-9 1.1038200531854234e-9 9.891063973312095e-10 9.369600853750665e-10 1.06343026175471e-9
          1.3501366092608416e-9 1.396955213522957e-9 1.3835088047414664e-9 1.4383909349813636e-9 1.370062395959976e-9 1.4284953857107833e-9
          1.4822573180914131e-9 1.480174843123322e-9 1.5145982770787855e-9 1.4818799766714006e-9 1.5258329635620844e-9 1.5366420265107654e-9
          1.5491125105795575e-9 1.5646989010122414e-9 1.4675293471616526e-9 1.5261273551928889e-9 1.449391109135735e-9 1.5637961230869708e-9
          1.6014214228802298e-9 1.5456455336089047e-9 1.3095820292927747e-9 1.3107028490126023e-9 1.3118236687324298e-9 7.051448946160266e-10
          7.427988625324026e-10 8.798264932258936e-10 9.031017765587913e-10 1.3009316787776171e-9 1.3125975303531914e-9 1.285671371530176e-9
          1.3110414606770198e-9 1.3242633819287657e-9 1.3611042071263546e-9 8.77782234575072e-10 9.250567118550941e-10 8.603043733762006e-10
          9.6810818457548e-10 1.08302967007474e-9 1.0671555729725089e-9 1.1403086174806757e-9 1.4092206883875932e-9 1.4079518550438484e-9
          1.0446821141122619e-9 1.13747271990965e-9 1.1297020527683162e-9 4.4823003594772426e-10 5.098188373162553e-10 4.0013488711999457e-10
          4.6110345497091765e-10 7.190117356115863e-10 6.664737766103957e-10 1.913151772794219e-10 2.76838812100108e-10 2.3810171448517677e-10
          5.349216946643811e-10 3.5151348291779364e-10 4.0910428430042676e-10 3.105193968748793e-10 3.630098886435874e-10 6.109533607446957e-10
          5.531021557464305e-10 1.5237064071772062e-10 2.0978140085558192e-10 1.8910301690744914e-10 4.0897662857494947e-10 9.86906258720504e-10
          9.54370597004842e-10 1.107196684902622e-9 1.0978656636107333e-9 8.907828473662681e-10 8.415856210371749e-10 1.0740847523245681e-9
          9.160352565411644e-10 8.703968544021134e-10 1.0768588772759974e-9 1.0500897777236613e-9 7.873883989700672e-10 7.295576244719525e-10
          1.0240157017836787e-9 1.2695677711282164e-9 1.2994164710693272e-9 1.2478268255950632e-9 1.2815977130923456e-9 1.3691588923351899e-9
          1.3637172553723088e-9 7.398672587452082e-10 7.989019872457975e-10 7.391050038558294e-10 9.653065562099406e-10 1.222296384318996e-9
          1.2600597562946375e-9 1.196163131101175e-9 1.235780634714242e-9 1.357439155830004e-9 1.3452472338089036e-9 6.327178912439349e-10
          6.865331698577316e-10 6.414477946100209e-10 8.474734487107638e-10 1.4235432989079649e-9 1.4473905116500749e-9 1.4380339841559884e-9
          1.4827151131451607e-9 1.1706617745420194e-9 1.1354153218051687e-9 1.2686471524105442e-9 1.4635720836570192e-9 1.4754891911589327e-9
          1.5100889839243093e-9 1.535882053027367e-9 1.099418146922244e-9 1.0600227669655996e-9 1.2905116717100556e-9 2.78737470661439e-10
          3.265291584039536e-10 2.540650021036324e-10 2.9666276335257406e-10 4.947452505662216e-10 4.4202388789610235e-10 1.346186479974811e-10
          1.7391244133164453e-10 1.637126680993953e-10 3.153151967115407e-10 2.361587596974414e-10 2.7327476865275194e-10 2.2476956482915276e-10