<?xml version="1.0"?>
<VTKFile type="UnstructuredGrid" version="0.1" byte_order="LittleEndian" header_type="UInt32" compressor="vtkZLibDataCompressor">
  <UnstructuredGrid>
    <Piece NumberOfPoints="1375" NumberOfCells="877">
      <PointData>
        <DataArray type="Int32" Name="libmesh_node_id" format="ascii" RangeMin="1318" RangeMax="14447">
          1420 1422 1424 1520 1521 1522
          1523 1524 1525 1560 1561 1562
          1585 1586 1587 1620 1621 1622
          1623 1624 1625 1660 1661 1662
          1685 1686 1687 1789 1790 1791
          1792 1793 1794 1795 1796 1797
          1798 1799 1800 1801 1802 2034
          2042 2043 2258 2259 2260 2261
          2262 2263 2264 2265 2266 2267
          2268 2269 2270 2271 2998 2999
          3000 3001 3002 3003 3004 3005
          3006 3009 3010 3011 3013 3014
          3015 3016 3017 3019 3020 3021
          3024 3025 3032 3033 4800 4801
          4802 4805 4808 4812 4813 4816
          4818 4823 4825 4828 4830 4831
          4832 4833 4834 4835 4836 4837
          4838 4839 4840 4841 4842 4843
          4845 4847 4849 4851 4852 4853
          4854 4855 4856 4858 4859 4860
          4864 4866 4869 4871 4872 4873
          4874 4875 4876 4877 4878 4879
          4880 4882 4884 4886 4888 4889
          4890 4891 4892 4893 4894 4895
          4896 4897 4898 4900 4901 4902
          4903 4904 4905 4906 4907 4908
          4923 4924 4930 4931 4943 4944
          4945 4946 4947 4948 4949 4950
          4951 4952 4963 4964 4967 4968
          5374 5375 5376 5377 5378 5379
          5380 5381 5382 5383 5384 5385
          5386 5387 5450 5451 5452 5453
          5454 5455 5456 5457 5458 5459
          5460 5461 5462 5463 5464 5465
          5593 5594 5595 5596 5600 5601
          5613 5614 11237 11257 11284 11297
          11299 11301 11318 11331 11333 11335
          11337 11338 11339 11340 11341 11342
          11343 11344 11345 11346 11347 11348
          11349 11350 11351 11352 11353 11354
          11355 11356 11357 11358 11359 11360
          11361 11362 11363 11364 11365 11366
          11367 11368 11369 11370 11371 11372
          11373 11374 11375 11376 11377 11378
          11379 11380 11381 11382 11383 11384
          11385 11386 11387 11388 11389 11390
          11391 11392 11393 11394 11395 11396
          11397 11398 11399 11400 11401 11402
          11403 11404 11405 11406 11407 11408
          11409 11410 11411 11412 11413 11414
          11415 11416 11417 11418 11427 11429
          11430 11431 11432 11442 11443 11446
          11447 11448 11449 11457 11458 11459
          11460 11461 11462 11463 11471 11472
          11473 11474 11475 11476 11477 11478
          11479 11480 11481 11482 11483 11484
          11485 11486 11487 11488 11489 11490
          11491 11492 11493 11494 11495 11496
          11497 11498 11499 11500 11501 11502
          11503 11504 11505 11506 11507 11508
          11509 11510 11511 11512 11513 11515
          11516 11517 11518 11519 11520 11521
          11522 11523 11524 11525 11526 11527
          11528 11529 11530 11531 11532 11533
          11534 11535 11536 11537 11538 11539
          11540 11541 11542 11543 11544 11545
          11561 11574 11576 11578 11595 11608
          11610 11612 11614 11615 11616 11617
          11618 11619 11620 11621 11622 11623
          11624 11625 11626 11627 11628 11629
          11630 11631 11632 11633 11634 11635
          11636 11637 11638 11639 11640 11641
          11642 11643 11644 11645 11646 11647
          11648 11649 11650 11651 11652 11653
          11654 11655 11656 11657 11658 11659
          11660 11661 11662 11663 11664 11665
          11666 11667 11668 11669 11670 11671
          11672 11673 11674 11675 11676 11677
          11678 11679 11680 11681 11689 11690
          11691 11692 11693 11694 11695 11703
          11704 11705 11706 11707 11708 11709
          11717 11718 11719 11720 11721 11722
          11723 11731 11732 11733 11734 11735
          11736 11737 11738 11739 11740 11741
          11742 11743 11744 11745 11746 11747
          11748 11749 11750 11751 11752 11753
          11754 11755 11756 11757 11758 11759
          11760 11761 11762 11763 11764 11765
          11766 11767 11768 11769 11770 11771
          11772 11773 11774 11775 11776 11777
          11778 11779 11780 11781 11782 11783
          11784 11785 11786 11787 11788 11789
          11790 11791 11792 11793 11794 11795
          11796 11797 11798 11799 11800 11801
          11802 11803 11804 11805 11806 11807
          11808 11809 11810 11811 11812 11813
          11814 11815 11816 11817 11818 11819
          11820 11821 11822 11823 11824 11825
          11826 11827 11828 11829 11830 11831
          11832 11833 11834 11835 11836 11837
          11838 11839 11840 11841 11842 11843
          11844 11845 11846 11847 11848 11849
          11850 11851 11852 11853 11854 11855
          11856 11857 11858 11859 11860 11861
          11862 11863 11864 11865 11866 11867
          11868 11869 11870 11871 11872 11873
          11874 11875 11941 11942 11943 11944
          11945 11946 11947 11948 11949 11950
          11951 11952 11953 11954 11955 11956
          11957 11958 11959 11960 11961 11962
          11963 11964 11968 11969 11971 11972
          11973 11974 11975 11976 11977 11978
          11981 11982 11983 11984 11985 11986
          11987 11988 11989 11990 11991 11992
          11993 11994 11995 11996 11999 12000
          12002 12006 12056 12057 12058 12059
          12060 12061 12062 12063 12064 12065
          12066 12067 12068 12069 12070 12071
          12072 12073 12074 12075 12076 12077
          12078 12079 12080 12081 12082 12083
          12084 12085 12086 12087 12088 12089
          12090 12091 12092 12093 12094 12095
          12096 12097 12098 12099 12100 12101
          12102 12103 12104 12105 12106 12107
          12108 12109 12110 12111 12112 12113
          12114 12115 12116 12117 12118 12119
          12120 12121 12122 12123 12192 12193
          12194 12195 12196 12197 12198 12199
          12200 12201 12202 12203 12204 12205
          12206 12207 12210 12211 12213 12217
          12220 12221 12222 12223 12224 12225
          12226 12227 12228 12229 12230 12231
          12232 12233 12234 12235 12238 12239
          12240 12241 12245 13825 13826 13827
          13828 13829 13830 13831 13832 13833
          13834 13953 13954 13955 13956 13957
          13958 13959 13960 13961 13962 13963
          13964 13965 13966 13967 13968 13969
          13970 13971 13972 13973 13974 13975
          13976 13977 13978 13979 13980 13981
          13982 13983 13984 13985 13986 13987
          13988 13989 14084 14085 14086 14087
          14088 14089 14090 14091 14092 14093
          14094 14095 14096 14097 14098 14099
          14100 14101 14102 14103 14104 14105
          14106 14107 14108 14109 14110 14111
          14112 14113 14114 14115 14116 14117
          14118 14119 14120 14121 14122 14123
          14124 14125 14126 14127 14128 14129
          14130 14131 14132 14133 14134 14135
          14136 14137 14138 14139 14140 14141
          14142 14143 14144 14145 14146 14147
          14148 14149 14150 14151 14152 14153
          14154 14155 14156 14157 14158 14159
          14160 14161 14162 14163 14164 14165
          14166 14167 14168 14169 14170 14171
          14172 14173 14174 14175 14176 14177
          14178 14179 14180 14181 14182 14183
          14184 14185 14186 14187 14188 14189
          14190 14191 14192 14193 14194 14195
          14196 14197 14259 14260 14261 14262
          14263 14264 14265 14266 14267 14268
          14269 14270 14271 14272 14273 14274
          14275 14276 14277 14278 14279 14280
          14281 14282 14283 14284 14285 14286
          14287 14288 14289 14290 14291 14292
          14293 14294 14295 14296 14297 14298
          14299 14300 14301 14303 14305 14306
          14307 14308 14310 14311 14313 14314
          14315 14316 14317 14318 14319 14320
          14321 14322 14323 14324 14325 14326
          14327 14328 14329 14330 14331 14332
          14333 14334 14335 14336 14337 14338
          14339 14340 14341 14342 14343 14344
          14345 14346 14347 14348 14349 14350
          14351 14352 14353 14354 14355 14356
          14357 14358 14359 14360 14361 14362
          14363 14364 14365 14366 14367 14368
          14369 14370 14371 14372 14373 14374
          14375 14376 14377 14378 14379 14380
          14381 14382 14383 14384 14385 14386
          14387 14388 14389 14390 14391 14392
          14393 14394 14395 14396 14397 14398
          14399 14400 14401 14402 14403 14404
          14405 14406 14407 14408 14409 14410
          14411 14412 14413 14414 14415 14416
          14417 14418 14419 14420 14421 14422
          14423 14424 14425 14426 14427 14428
          14429 14430 14431 14432 14433 14434
          14435 14436 14437 14438 14439 14440
          14441 14442 14443 14444 14445 14446
          14447 1318 1320 1321 1319 1418
          1421 1419 1322 1323 1423 1324
          1325 1425 1326 1327 1426 1427
          1460 1459 1519 1559 1461 1462
          1463 1527 1563 1485 1484 1584
          1486 1487 1488 1588 1659 1684
          1663 1688 1526 1702 1703 1706
          1712 1849 1850 1853 1859 1863
          1716 2032 2033 3007 3396 3397
          3398 3399 3403 3404 2274 2275
          2278 2284 1626 2288 5466 2035
          5597 5598 5599 5602 3022 4899
          3023 5615 5616 5617 5618 5619
          4925 4927 3029 11514 4857 11876
          11877 11878 11879 11883 11884 11886
          11887 11889 11890 11891 11894 11895
          11897 11899 11900 11901 11904 11906
          11907 11909 11924 11926 11928 11930
          4926 11965 11966 11967 11970 4928
          11979 11980 4929 11997 11998 12001
          4932 12003 12004 12005 12007 12008
          3030 12009 12010 12013 12014 12016
          12018 12019 12021 12023 12025 12036
          12037 12043 12124 12125 12128 12130
          12131 12133 12144 12146 12148 12150
          12158 12159 12162 12164 12165 12167
          12178 12180 12182 12184 12208 12209
          12212 4965 12214 12215 12216 12218
          12219 4966 12236 12237 4969 12242
          12243 12244 12246 12247 3035 12248
          12250 12252 12254 12262 12266 12276
          12278 12280 12282 12290 12294 12853
          12852 12857 12856 3112 3113 3116
          3119 1518 13943 13944 13945 13948
          14076 14077 14080 1619 14082 2125
          2127 2130 1627 2132 2145 2147
          2152 2155 14249 14250 14251 14254
          1618 14257 13951 14302 14304 14309
          14312
        </DataArray>
        <DataArray type="Float64" Name="bounds" format="ascii" RangeMin="0" RangeMax="0">
          0 0 0 0 0 0
          0 0 0 0 0 0
          0 0 0 0 0 0
          0 0 0 0 0 0
          0 0 0 0 0 0
          0 0 0 0 0 0
          0 0 0 0 0 0
          0 0 0 0 0 0
          0 0 0 0 0 0
          0 0 0 0 0 0
          0 0 0 0 0 0
          0 0 0 0 0 0
          0 0 0 0 0 0
          0 0 0 0 0 0
          0 0 0 0 0 0
          0 0 0 0 0 0
          0 0 0 0 0 0
          0 0 0 0 0 0
          0 0 0 0 0 0
          0 0 0 0 0 0
          0 0 0 0 0 0
          0 0 0 0 0 0
          0 0 0 0 0 0
          0 0 0 0 0 0
          0 0 0 0 0 0
          0 0 0 0 0 0
          0 0 0 0 0 0
          0 0 0 0 0 0
          0 0 0 0 0 0
          0 0 0 0 0 0
          0 0 0 0 0 0
          0 0 0 0 0 0
          0 0 0 0 0 0
          0 0 0 0 0 0
          0 0 0 0 0 0
          0 0 0 0 0 0
          0 0 0 0 0 0
          0 0 0 0 0 0
          0 0 0 0 0 0
          0 0 0 0 0 0
          0 0 0 0 0 0
          0 0 0 0 0 0
          0 0 0 0 0 0
          0 0 0 0 0 0
          0 0 0 0 0 0
          0 0 0 0 0 0
          0 0 0 0 0 0
          0 0 0 0 0 0
          0 0 0 0 0 0
          0 0 0 0 0 0
          0 0 0 0 0 0
          0 0 0 0 0 0
          0 0 0 0 0 0
          0 0 0 0 0 0
          0 0 0 0 0 0
          0 0 0 0 0 0
          0 0 0 0 0 0
          0 0 0 0 0 0
          0 0 0 0 0 0
          0 0 0 0 0 0
          0 0 0 0 0 0
          0 0 0 0 0 0
          0 0 0 0 0 0
          0 0 0 0 0 0
          0 0 0 0 0 0
          0 0 0 0 0 0
          0 0 0 0 0 0
          0 0 0 0 0 0
          0 0 0 0 0 0
          0 0 0 0 0 0
          0 0 0 0 0 0
          0 0 0 0 0 0
          0 0 0 0 0 0
          0 0 0 0 0 0
          0 0 0 0 0 0
          0 0 0 0 0 0
          0 0 0 0 0 0
          0 0 0 0 0 0
          0 0 0 0 0 0
          0 0 0 0 0 0
          0 0 0 0 0 0
          0 0 0 0 0 0
          0 0 0 0 0 0
          0 0 0 0 0 0
          0 0 0 0 0 0
          0 0 0 0 0 0
          0 0 0 0 0 0
          0 0 0 0 0 0
          0 0 0 0 0 0
          0 0 0 0 0 0
          0 0 0 0 0 0
          0 0 0 0 0 0
          0 0 0 0 0 0
          0 0 0 0 0 0
          0 0 0 0 0 0
          0 0 0 0 0 0
          0 0 0 0 0 0
          0 0 0 0 0 0
          0 0 0 0 0 0
          0 0 0 0 0 0
          0 0 0 0 0 0
          0 0 0 0 0 0
          0 0 0 0 0 0
          0 0 0 0 0 0
          0 0 0 0 0 0
          0 0 0 0 0 0
          0 0 0 0 0 0
          0 0 0 0 0 0
          0 0 0 0 0 0
          0 0 0 0 0 0
          0 0 0 0 0 0
          0 0 0 0 0 0
          0 0 0 0 0 0
          0 0 0 0 0 0
          0 0 0 0 0 0
          0 0 0 0 0 0
          0 0 0 0 0 0
          0 0 0 0 0 0
          0 0 0 0 0 0
          0 0 0 0 0 0
          0 0 0 0 0 0
          0 0 0 0 0 0
          0 0 0 0 0 0
          0 0 0 0 0 0
          0 0 0 0 0 0
          0 0 0 0 0 0
          0 0 0 0 0 0
          0 0 0 0 0 0
          0 0 0 0 0 0
          0 0 0 0 0 0
          0 0 0 0 0 0
          0 0 0 0 0 0
          0 0 0 0 0 0
          0 0 0 0 0 0
          0 0 0 0 0 0
          0 0 0 0 0 0
          0 0 0 0 0 0
          0 0 0 0 0 0
          0 0 0 0 0 0
          0 0 0 0 0 0
          0 0 0 0 0 0
          0 0 0 0 0 0
          0 0 0 0 0 0
          0 0 0 0 0 0
          0 0 0 0 0 0
          0 0 0 0 0 0
          0 0 0 0 0 0
          0 0 0 0 0 0
          0 0 0 0 0 0
          0 0 0 0 0 0
          0 0 0 0 0 0
          0 0 0 0 0 0
          0 0 0 0 0 0
          0 0 0 0 0 0
          0 0 0 0 0 0
          0 0 0 0 0 0
          0 0 0 0 0 0
          0 0 0 0 0 0
          0 0 0 0 0 0
          0 0 0 0 0 0
          0 0 0 0 0 0
          0 0 0 0 0 0
          0 0 0 0 0 0
          0 0 0 0 0 0
          0 0 0 0 0 0
          0 0 0 0 0 0
          0 0 0 0 0 0
          0 0 0 0 0 0
          0 0 0 0 0 0
          0 0 0 0 0 0
          0 0 0 0 0 0
          0 0 0 0 0 0
          0 0 0 0 0 0
          0 0 0 0 0 0
          0 0 0 0 0 0
          0 0 0 0 0 0
          0 0 0 0 0 0
          0 0 0 0 0 0
          0 0 0 0 0 0
          0 0 0 0 0 0
          0 0 0 0 0 0
          0 0 0 0 0 0
          0 0 0 0 0 0
          0 0 0 0 0 0
          0 0 0 0 0 0
          0 0 0 0 0 0
          0 0 0 0 0 0
          0 0 0 0 0 0
          0 0 0 0 0 0
          0 0 0 0 0 0
          0 0 0 0 0 0
          0 0 0 0 0 0
          0 0 0 0 0 0
          0 0 0 0 0 0
          0 0 0 0 0 0
          0 0 0 0 0 0
          0 0 0 0 0 0
          0 0 0 0 0 0
          0 0 0 0 0 0
          0 0 0 0 0 0
          0 0 0 0 0 0
          0 0 0 0 0 0
          0 0 0 0 0 0
          0 0 0 0 0 0
          0 0 0 0 0 0
          0 0 0 0 0 0
          0 0 0 0 0 0
          0 0 0 0 0 0
          0 0 0 0 0 0
          0 0 0 0 0 0
          0 0 0 0 0 0
          0 0 0 0 0 0
          0 0 0 0 0 0
          0 0 0 0 0 0
          0 0 0 0 0 0
          0 0 0 0 0 0
          0 0 0 0 0 0
          0 0 0 0 0 0
          0 0 0 0 0 0
          0 0 0 0 0 0
          0 0 0 0 0 0
          0 0 0 0 0 0
          0 0 0 0 0 0
          0 0 0 0 0 0
          0 0 0 0 0 0
          0 0 0 0 0 0
          0 0 0 0 0 0
          0 0 0 0 0 0
          0 0 0 0 0 0
          0
        </DataArray>
        <DataArray type="Float64" Name="gradient_error" format="ascii" RangeMin="4.9836798043992414e-14" RangeMax="3.2208422425232906e-7">
          1.0382511440969054e-8 6.18593276694265e-9 3.6904142477379423e-9 4.677076457134051e-8 1.0999071058225326e-7 3.770905727328162e-8
          9.456992075397414e-8 4.248865858722155e-8 8.106200166484916e-8 7.752963875119306e-9 3.162097597135855e-9 1.2792523906405786e-9
          4.3844131266719904e-9 2.208291940310224e-9 8.685235749996116e-10 6.989357454191023e-8 1.4518150443088644e-7 9.257603989864541e-8
          1.3248692297744484e-7 1.2460744164346333e-7 1.1310379042261745e-7 6.707756126907976e-9 3.6469157088302225e-9 4.4401120348818645e-9
          6.9231018968494705e-9 3.856726201698038e-9 1.4982324629303377e-9 1.683856533171374e-7 1.4871954088133391e-7 8.969113500783519e-8
          1.4477072300716592e-7 2.660205499831967e-7 2.1716210991111297e-7 1.6195144629976744e-7 9.718071982146854e-8 1.1210029368474335e-7
          1.2740270118700896e-7 1.4523798496175338e-7 1.917149738547338e-7 1.707796397243444e-7 1.0077911740334675e-7 9.203096591033306e-13
          3.961171378564929e-11 1.3281218206766987e-11 2.474832665998158e-7 2.3039704249600843e-7 1.6955560835333981e-7 1.8853698877386206e-7
          1.6713779741415364e-7 1.9274639001353266e-7 1.968530602184176e-7 1.7145222797570487e-7 1.873667554114871e-7 1.78250192493061e-7
          8.414398777161808e-8 1.5479326280940867e-7 1.7664910940944208e-7 2.0328128284726935e-7 1.7631318481429046e-12 1.561113341252691e-12
          1.3195833218812706e-12 1.1443678998199492e-12 4.471128996818453e-13 3.7355644650047065e-13 3.297643392263165e-13 1.1095114730050793e-12
          7.715803160364384e-13 1.7298346552756771e-12 7.318588263895583e-13 1.5011490305791936e-12 3.440351122699517e-11 1.1996943683284021e-11
          8.656354729812261e-12 1.3203098898795262e-11 3.291380181167406e-12 1.143414658161682e-10 3.1421024599999105e-11 5.057166945413918e-11
          2.5597341623015534e-12 1.8427409835917587e-12 9.24212530024005e-12 7.154976036582569e-12 8.398355998405237e-13 1.4382760576945194e-12
          1.3653022860771974e-12 1.1660380533031483e-12 2.0684893631683513e-12 5.642099763059029e-13 1.3086526374377116e-12 1.3317414083774479e-12
          1.6602656336919344e-12 8.197577625088523e-12 6.622173434068349e-12 4.3826878126914586e-11 1.846906922313144e-12 1.7429308326941604e-12
          4.415362446468942e-12 4.110151100897022e-12 8.690314354846587e-13 2.131637969682527e-12 1.9837834750359697e-12 1.4682148443845707e-12
          3.3175722105975557e-12 1.6000310125834358e-12 2.4382985402211728e-11 2.2477460423152366e-11 1.1055152366589038e-11 1.7619814461253276e-11
          4.651209092136535e-12 2.8504749693782343e-12 2.3031316895954474e-11 1.1137052503274686e-12 2.3266188488565817e-12 5.512487211055218e-13
          1.1207032925437636e-12 7.653506924466497e-13 1.4219047260332675e-12 1.1769725052593371e-11 5.772113112702721e-12 6.727703943844497e-12
          1.324142484659995e-10 1.043784816850524e-10 1.3346804763754695e-10 7.547177235237362e-11 6.967423795058111e-11 3.793221810673413e-11
          3.497973515330074e-11 5.470557618411268e-11 2.7384032559396474e-11 7.620963513048794e-11 7.261298754099766e-11 3.756119678608108e-11
          6.140420149553398e-11 6.975874799905968e-11 3.936584097062985e-11 8.352160672135225e-11 3.636868529558225e-11 1.8132846333039844e-11
          2.0410060839229293e-11 1.0132163457518994e-11 4.424826872076452e-11 2.238810392485374e-11 2.649497129900766e-11 4.2650862334149326e-13
          4.0284378913713447e-13 9.90570996192642e-13 9.216420016352351e-13 4.415935706270836e-13 4.108008019758447e-13 3.398504466421963e-13
          7.426448571603182e-13 3.305649657537087e-13 5.6596360989458064e-12 5.2137122164735164e-12 2.357427916447265e-12 4.078694210908765e-12
          2.554057655089624e-13 5.186249642396867e-13 2.715876732492177e-12 1.2249143598079613e-12 1.8207616655128914e-11 1.6776286558376114e-11
          8.353419787935557e-12 7.691552723364994e-12 1.310361569568018e-11 5.996712941080275e-12 1.9596958178527158e-11 1.850835310031253e-11
          8.699157621053598e-12 1.534253110059153e-11 8.649656975069577e-12 3.948206041808805e-12 1.0827141240729143e-11 5.006834051122899e-12
          2.4027337425900328e-8 2.4141217733898638e-8 2.224265347044286e-8 1.9732790588993133e-8 1.9349912060143882e-8 2.1178916735570926e-8
          2.061600852035803e-8 2.425509804189695e-8 2.300792141099797e-8 2.149922645172292e-8 1.467248669438744e-8 1.8216615737243213e-8
          1.8989363570273196e-8 2.176074478009899e-8 4.1191321825491014e-13 3.94543439018857e-13 1.5279401688191493e-12 1.4478288767605793e-12
          2.4130261537084137e-13 7.988376433901125e-13 7.574441434250976e-13 3.5081074981196694e-13 1.237449376737692e-12 6.463289996862086e-13
          2.9963153946759256e-13 9.687548882515922e-13 1.7378700972551236e-13 4.983398774701343e-13 2.4683947194014793e-13 6.986672605152525e-13
          1.371780026406477e-13 1.3093931698045307e-13 3.81598500375825e-13 3.618800645844723e-13 1.1438709016742043e-13 3.0909896642897293e-13
          9.293899408261149e-14 2.3671715869307047e-13 1.5424361523635442e-12 1.1874620243798622e-12 3.463379110727997e-12 3.186880279190244e-12
          2.834956545739246e-12 7.499135370692892e-12 1.937267518124041e-11 1.761118735309948e-11 1.5416145161634156e-11 3.961743655270712e-11
          1.538071171210759e-12 1.5136982078482847e-12 2.6072771288157488e-12 2.56405619710446e-12 1.0332762012536924e-12 1.8150745364075116e-12
          1.7849645307594404e-12 1.4426318901781953e-12 2.43860059479036e-12 1.697476679961141e-12 6.264667454584357e-12 6.153622953349166e-12
          4.3369472974465024e-12 5.832420077548338e-12 7.207657474855773e-13 7.093862030971992e-13 1.2573564225445834e-12 1.236468113337902e-12
          4.873649296811513e-13 8.657089693634096e-13 8.512943941418805e-13 6.760743906294214e-13 1.1757848426471447e-12 8.094651804172838e-13
          3.0823967064112883e-12 3.0275564591642092e-12 2.093649371306908e-12 2.868953304288257e-12 1.3322579417673148e-12 2.243448283770366e-12
          9.089925267281011e-13 1.5612523445865094e-12 1.1895115303918531e-12 1.9953657905546687e-12 1.3887712515098557e-12 5.334572988025572e-12
          3.758716812829998e-12 4.709542059812926e-12 6.240293770733071e-13 1.0812972452748526e-12 4.288168871052291e-13 7.443827097306508e-13
          5.579572976741762e-13 9.618682970898807e-13 6.620939705028906e-13 2.6232321261444782e-12 1.813582612038531e-12 2.3148647595020123e-12
          1.49666804958136e-11 1.4682688181969953e-11 1.060679566914108e-11 1.040511050695199e-11 1.3863290306320095e-11 9.823239492990084e-12
          3.42182206242621e-11 3.353075230203887e-11 2.389174722037604e-11 3.155124130306888e-11 7.44265749171995e-12 7.300860775413372e-12
          5.170518958993512e-12 5.07182967131244e-12 6.891801139158147e-12 4.787145662657096e-12 1.719329608636694e-11 1.6846050317320154e-11
          1.1754112718243138e-11 1.5846441460386026e-11 1.2600001356767583e-11 8.926292323296096e-12 1.1026183788577454e-11 7.809133255753353e-12
          2.8511840313821726e-11 2.0306508074086344e-11 2.4748914909040282e-11 6.261334363534974e-12 4.348436078072418e-12 5.476254605686438e-12
          3.8022679277741284e-12 1.4312389021346253e-11 9.982711551023748e-12 1.2414550682357036e-11 2.4370456040176945e-12 2.0254056561941682e-12
          7.869125478108748e-12 5.646732717097287e-12 6.484456427220374e-12 9.87493627606616e-13 1.62870786657118e-12 1.2695746270291048e-12
          5.16484723941163e-12 3.702607336593176e-12 3.978662944481013e-12 1.8004596651832187e-11 1.2998845493258513e-11 1.4638197892352603e-11
          1.056288218947001e-11 3.9520234456241634e-11 2.870902496108155e-11 3.172659544926507e-11 1.147756593449705e-11 8.277035188562332e-12
          8.685820236286367e-12 6.259509779039448e-12 2.4502320037345674e-11 1.777290630896785e-11 1.8218199745893067e-11 1.0250962899710733e-12
          1.715177658527106e-12 7.033339286740369e-13 1.1951242600992237e-12 8.537501410101906e-13 1.4256578040511091e-12 9.950323074974118e-13
          4.014375613499893e-12 2.8269831324737876e-12 3.3050969612694525e-12 4.839217307780087e-13 8.280709268366539e-13 3.325012222268185e-13
          5.698483218192012e-13 4.0654335069321867e-13 6.898027011982492e-13 4.746406286829026e-13 1.972037824359177e-12 1.3626693972241733e-12
          1.6224967073529061e-12 6.886797913828822e-13 1.1470502929889634e-12 4.78451859460446e-13 8.018160901781838e-13 5.424302403785535e-13
          8.954187680390643e-13 6.272773829939865e-13 2.6296557752444706e-12 1.8502763092756427e-12 2.0227826662796616e-12 3.309223913404977e-13
          5.561485185126112e-13 2.287950885658853e-13 3.827236215346101e-13 2.636708341459991e-13 4.3502233388741674e-13 1.2897143050184327e-12
          8.902840904328583e-13 9.901217118246842e-13 9.293618808071815e-12 6.579683518792541e-12 7.548403352461583e-12 5.341733138902474e-12
          2.0641521158949955e-11 1.468863106872054e-11 1.6548947331009424e-11 4.612522838835443e-12 3.2015503736486272e-12 3.743177031819888e-12
          2.5972277509748155e-12 1.0344910505564123e-11 7.210496340304063e-12 8.285004625850777e-12 5.9114435802796525e-12 4.181038653218221e-12
          4.4674212303450346e-12 3.1573394266957566e-12 1.2761412892124775e-11 9.070104022239519e-12 9.472643920231709e-12 2.928428921417089e-12
          2.0313517505974898e-12 2.2098888749144564e-12 1.5322180446210567e-12 6.3809395587875284e-12 4.4432417566865e-12 4.729765539227659e-12
          8.681347200513482e-11 7.828227478316627e-11 6.772373342045869e-11 1.199698742746943e-10 1.4256300247608803e-10 1.3180358316066844e-10
          1.1745761134293647e-10 1.2567393369383993e-10 6.834979870217205e-11 6.694381924510538e-11 4.898592175925211e-11 4.797368506025542e-11
          6.289634512971382e-11 4.50605442142956e-11 1.0459382004016565e-10 1.0254631181601811e-10 7.398136929399119e-11 9.662552810142342e-11
          3.471836791925217e-11 3.399821638498259e-11 2.4335410008316406e-11 2.382898057400113e-11 3.1926158526433515e-11 2.2372138781684276e-11
          5.3817637133538675e-11 5.274685268549118e-11 3.7172640847148945e-11 4.9654071278155e-11 5.66855106568134e-11 4.059282929752032e-11
          4.9005933347871923e-11 3.507286740629135e-11 8.746346745113932e-11 6.301704116333911e-11 7.600600312534953e-11 2.8749787876915135e-11
          2.013970235001691e-11 2.4827780478125288e-11 1.7384665623956738e-11 4.4878729779654066e-11 3.159675794230709e-11 3.89250980496243e-11
          1.1177289729452088e-10 1.1008493495390558e-10 8.1492069164119e-11 8.022646589284023e-11 1.050724267241966e-10 7.647945653332551e-11
          1.037018198334096e-10 1.0257592480551018e-10 7.532704815673301e-11 9.908031465578232e-11 5.868089902726933e-11 5.774672736021394e-11
          4.174262745896426e-11 4.1063497420595454e-11 5.498825549249065e-11 3.906275836295262e-11 5.529113612145271e-11 5.461424014084731e-11
          3.910303331702268e-11 5.254899352517092e-11 9.694586640953522e-11 7.043545322922289e-11 8.618526258253853e-11 6.248046253272882e-11
          9.299763396603261e-11 6.795812976201265e-11 8.430705930028783e-11 5.055896359488132e-11 3.5862860010918153e-11 4.47606462045607e-11
          3.16936407956467e-11 4.905003492984966e-11 3.497584119963229e-11 4.418611489028374e-11 7.689750801376671e-11 5.6212004516977956e-11
          6.1310451178912e-11 4.477032136365677e-11 1.1845221488458184e-10 8.713980947108766e-11 9.498606374434121e-11 4.692426060363437e-11
          3.4226668784425905e-11 3.449318306991138e-11 2.5129906959615297e-11 7.300998408210629e-11 5.352727886967026e-11 5.378444566641396e-11
          1.3575348208296177e-10 1.0054989421644125e-10 1.1164471773850131e-10 8.245735080774551e-11 1.3438342185936534e-10 9.992758874814861e-11
          1.1274530692928426e-10 8.778179498937965e-11 6.46569029696441e-11 6.591899576730943e-11 4.843249040192474e-11 9.019294626883381e-11
          6.658555096033782e-11 6.871009646024876e-11 4.0642612243293945e-11 2.9067019832683617e-11 3.234058639557573e-11 2.3111296835031274e-11
          6.336624804387162e-11 4.555424655843033e-11 5.0652924786335864e-11 2.056382087624559e-11 1.4391356346588965e-11 1.633908195982895e-11
          1.1427737015150629e-11 3.238055388082945e-11 2.275960938836474e-11 2.582294757637713e-11 2.4700024314833624e-11 1.7636001566195635e-11
          1.8116409071916542e-11 1.2923252812189677e-11 3.880935223310484e-11 2.7829055501200158e-11 2.849993562148913e-11 1.2458674413142506e-11
          8.707769537874724e-12 9.121821188028182e-12 6.370710269431726e-12 1.973708950168488e-11 1.3845372741374586e-11 1.4458695469174786e-11
          7.35888784488213e-11 5.322462629085624e-11 6.019277310320478e-11 4.343586740779298e-11 7.341118839481434e-11 5.328985235693987e-11
          6.114715301234671e-11 3.8050441315634586e-11 2.6891613655548204e-11 3.098859318020894e-11 2.1859911654402994e-11 3.8230785762821025e-11
          2.711068592119723e-11 3.16538685762572e-11 4.708439059963363e-11 3.390336928771137e-11 3.519139258360982e-11 2.528938870463294e-11
          4.8596295983140676e-11 3.506712766971573e-11 3.680812865144137e-11 2.4140725231511964e-11 1.6999121788577298e-11 1.797472890191236e-11
          1.263633697543733e-11 2.5021545046846167e-11 1.765534113161448e-11 1.8862086322884578e-11 3.3632362830345447e-13 3.309627663327782e-13
          5.903676718133835e-13 5.805134917092746e-13 2.2337821127467004e-13 3.990411370015276e-13 3.923730938831521e-13 3.1540745538605636e-13
          5.519493302862393e-13 3.7303561727247916e-13 1.4602610436357748e-12 1.4341959331080031e-12 9.72862635505381e-13 1.358809797358648e-12
          1.5209380793729263e-13 1.4970530356171682e-13 2.670015210656746e-13 2.6255419394531936e-13 1.0158432126400661e-13 1.7689353040816915e-13
          1.7396470208973571e-13 1.426147245789215e-13 2.495805914234883e-13 1.6535933457685972e-13 6.651693518930758e-13 6.532611859190887e-13
          4.3368010449086344e-13 6.188185444521994e-13 2.912592231274172e-13 5.075397857613258e-13 1.9654323809541746e-13 3.429661761608532e-13