<?xml version="1.0"?>
<VTKFile type="UnstructuredGrid" version="0.1" byte_order="LittleEndian" header_type="UInt32" compressor="vtkZLibDataCompressor">
  <UnstructuredGrid>
    <Piece NumberOfPoints="1350" NumberOfCells="896">
      <PointData>
        <DataArray type="Int32" Name="libmesh_node_id" format="ascii" RangeMin="1533" RangeMax="7628">
          1738 1739 1745 1749 1750 1755
          1757 1758 1760 1834 1836 1940
          1941 1942 1945 1948 1962 1963
          1968 1970 1971 1972 1973 1974
          1975 1976 1977 1978 1979 1980
          1981 1982 1983 1998 1999 2000
          2001 2002 2003 2004 2005 2006
          2007 2203 2204 2210 2211 2213
          2214 2614 2615 2616 2619 2622
          2636 2637 2640 2642 2659 2672
          2674 2676 2710 2711 2714 2716
          2718 2719 2720 2721 2722 2723
          2724 2725 2726 2727 2728 2729
          2730 2731 2732 2733 2734 2735
          2736 2737 2738 2739 2740 2741
          2742 2743 2744 2745 2746 2747
          2748 2749 2750 2751 2752 2753
          2754 2755 2756 2757 2758 2759
          2760 2761 2762 2763 2764 2765
          2766 2767 2768 2769 2770 2771
          2772 2773 2774 2775 2776 2777
          2778 2779 2780 2781 2782 2783
          2784 2785 2786 2787 2788 2789
          2790 2791 2792 2793 2794 2795
          2796 2797 2798 2799 2800 2801
          2802 2803 2807 2808 2810 2811
          2813 2828 2829 2832 2833 2835
          2837 2848 2849 2852 2854 2855
          2857 2868 2870 2872 2874 2882
          2883 2884 2885 2886 2887 2888
          2889 2890 2891 3250 3251 3252
          3253 3254 3255 3256 3257 3258
          3259 3651 3734 3747 3749 3751
          3781 3783 3785 3795 3805 3807
          3809 3811 3812 3813 3814 3815
          3816 3817 3818 3819 3820 3821
          3822 3823 3824 3825 3826 3827
          3828 3829 3830 3831 3832 3833
          3834 3835 3836 3837 3838 3839
          3840 3841 3842 3843 3844 3845
          3846 3847 3848 3849 3850 3851
          3852 3853 3854 3855 3856 3857
          3858 3859 3860 3861 3862 3863
          3864 3865 3866 3867 3868 3869
          3870 3871 3872 3873 3874 3875
          3876 3877 3878 3879 3880 3881
          3882 3883 3884 3885 3886 3887
          3888 3889 3890 3891 3892 3893
          3894 3895 3896 3897 3898 3899
          3900 3901 3902 3903 3904 3905
          3906 3907 3908 3909 3910 3911
          3912 3913 3914 3915 3916 3917
          3918 3919 3920 3921 3922 3923
          3924 3925 3926 3927 3928 3929
          3930 3931 3932 3933 3934 3935
          3936 3937 3938 3939 3940 3941
          3942 3943 3944 3945 3946 3947
          3948 3949 3950 3951 3952 3953
          3954 3955 3956 3957 3958 3959
          3960 3961 3962 3963 3964 3965
          3966 3967 3968 3969 3970 3971
          3972 3973 3974 3975 3976 3977
          3978 3979 3980 3981 3982 3983
          3984 3985 3986 3987 3988 3989
          3990 3991 3992 3993 3994 3995
          3996 3997 3998 3999 4000 4001
          4002 4003 4004 4005 4006 4007
          4008 4009 4010 4011 4012 4013
          4014 4015 4016 4017 4018 4027
          4028 4029 4108 4109 4110 4111
          4112 4113 4114 4115 4116 4117
          4128 4129 4130 4131 4132 4133
          4134 4142 4143 4144 4145 4146
          4147 4148 4149 4150 4151 4162
          4163 4164 4165 4166 4167 4168
          4244 4245 4246 4256 4257 4258
          4259 4260 4261 4262 6219 6415
          6425 6427 6429 6441 6453 6455
          6457 6461 6463 6464 6465 6466
          6468 6470 6471 6472 6475 6476
          6478 6479 6480 6481 6482 6483
          6484 6485 6486 6487 6488 6489
          6490 6491 6492 6494 6496 6497
          6498 6499 6500 6501 6502 6503
          6504 6505 6506 6507 6508 6509
          6510 6511 6512 6513 6514 6515
          6516 6517 6518 6519 6520 6521
          6522 6523 6524 6525 6526 6527
          6528 6529 6530 6531 6532 6533
          6534 6535 6536 6537 6538 6539
          6540 6541 6542 6543 6544 6545
          6546 6547 6548 6549 6550 6551
          6552 6553 6554 6555 6556 6557
          6558 6559 6560 6561 6562 6563
          6564 6565 6566 6567 6568 6569
          6570 6571 6572 6573 6574 6575
          6576 6577 6578 6579 6580 6581
          6582 6583 6584 6585 6586 6587
          6588 6589 6590 6591 6592 6593
          6594 6595 6596 6597 6598 6599
          6600 6601 6602 6603 6604 6605
          6606 6607 6608 6609 6610 6611
          6612 6613 6614 6615 6616 6617
          6618 6619 6620 6621 6622 6623
          6624 6625 6626 6627 6628 6629
          6630 6631 6632 6633 6634 6635
          6636 6637 6638 6639 6640 6641
          6642 6643 6644 6645 6646 6647
          6648 6649 6650 6651 6652 6653
          6654 6655 6656 6657 6658 6659
          6660 6661 6662 6663 6664 6665
          6666 6667 6668 6669 6670 6671
          6672 6673 6674 6675 6676 6677
          6678 6679 6680 6681 6682 6683
          6684 6685 6686 6687 6688 6689
          6690 6691 6692 6693 6694 6695
          6696 6697 6698 6699 6700 6701
          6702 6703 6704 6705 6706 6707
          6708 6709 6710 6711 6712 6713
          6714 6715 6716 6717 6718 6719
          6720 6721 6722 6723 6724 6725
          6726 6727 6728 6729 6730 6731
          6732 6733 6734 6735 6736 6737
          6738 6739 6740 6741 6742 6743
          6744 6745 6746 6747 6748 6749
          6750 6751 6752 6753 6754 6755
          6756 6757 6758 6759 6760 6761
          6762 6763 6764 6765 6766 6767
          6768 6769 6770 6771 6772 6773
          6774 6775 6776 6777 6778 6779
          6780 6781 6782 6783 6784 6785
          6786 6787 6788 6789 6790 6791
          6792 6793 6794 6795 6796 6797
          6798 6799 6800 6801 6802 6803
          6804 6805 6806 6807 6808 6809
          6810 6811 6812 6813 6814 6815
          6816 6817 6818 6819 6820 6821
          6822 6823 6824 6825 6826 6827
          6828 6829 6830 6831 6832 6833
          6834 6835 6836 6837 6838 6839
          6840 6841 6842 6843 6844 6845
          6846 6847 6848 6849 6850 6851
          6852 6853 6854 6855 6856 6857
          6858 6859 6860 6861 6862 6863
          6864 6865 6866 6867 6868 6869
          6870 6871 6872 6873 6874 6875
          6876 6877 6878 6879 6880 6881
          6882 6883 6884 6885 6886 6887
          6888 6889 6890 6891 6892 6893
          6894 6895 6896 6897 6898 6899
          6900 6901 6902 6903 6904 6905
          6906 6907 6908 6909 6910 6911
          6912 6913 6914 6915 6916 6917
          6918 6919 6920 6921 6922 6923
          6924 6925 6926 6927 6928 6929
          6930 6931 6932 6933 6934 6935
          6936 6937 6938 6939 6940 6941
          6942 6943 6944 6945 6946 6947
          6948 6949 6950 6951 6952 6953
          6954 6955 6956 6957 6958 6959
          6960 6961 6962 6963 6964 6965
          6966 6967 6968 6969 6970 6971
          6972 6973 6974 6975 6976 6977
          6978 6979 6980 6981 6982 6983
          6984 6985 6986 6987 6988 6989
          6990 6991 6992 6993 6994 6995
          6996 6997 6998 6999 7000 7001
          7002 7003 7004 7005 7006 7007
          7008 7009 7010 7011 7012 7013
          7014 7015 7016 7017 7018 7019
          7020 7021 7022 7023 7024 7025
          7026 7027 7028 7029 7030 7031
          7032 7033 7034 7035 7036 7037
          7038 7039 7040 7041 7042 7043
          7044 7045 7046 7047 7048 7049
          7050 7051 7052 7053 7054 7055
          7056 7057 7058 7059 7060 7061
          7062 7063 7064 7065 7066 7067
          7068 7069 7070 7071 7072 7073
          7074 7075 7076 7077 7078 7079
          7080 7081 7082 7083 7084 7085
          7086 7087 7088 7089 7090 7091
          7092 7093 7094 7095 7096 7097
          7098 7099 7100 7101 7102 7103
          7104 7105 7106 7107 7108 7109
          7110 7111 7112 7113 7114 7115
          7116 7117 7118 7119 7120 7121
          7122 7123 7124 7125 7126 7127
          7128 7129 7130 7131 7132 7133
          7134 7135 7136 7137 7138 7139
          7140 7141 7142 7143 7144 7145
          7146 7147 7148 7149 7150 7151
          7152 7153 7154 7155 7156 7157
          7158 7159 7160 7161 7162 7163
          7164 7165 7166 7167 7168 7169
          7170 7171 7172 7173 7174 7175
          7176 7177 7178 7179 7180 7398
          7399 7400 7401 7402 7403 7404
          7405 7406 7407 7408 7409 7410
          7411 7426 7427 7428 7429 7430
          7431 7432 7433 7434 7441 7442
          7443 7444 7445 7446 7447 7448
          7449 7450 7451 7452 7453 7454
          7455 7456 7457 7458 7459 7460
          7461 7462 7463 7464 7465 7466
          7467 7468 7469 7470 7471 7472
          7473 7474 7475 7476 7477 7478
          7479 7480 7481 7482 7483 7484
          7485 7486 7487 7488 7489 7490
          7491 7492 7493 7494 7495 7496
          7497 7498 7499 7500 7501 7502
          7503 7504 7505 7506 7507 7508
          7577 7578 7579 7580 7581 7582
          7583 7584 7585 7586 7587 7588
          7589 7590 7591 7592 7593 7594
          7595 7596 7597 7598 7599 7600
          7601 7602 7603 7604 7605 7606
          7607 7608 7609 7610 7611 7612
          7613 7614 7615 7616 7617 7618
          7619 7620 7621 7622 7623 7624
          7625 7626 7627 7628 1533 1754
          1827 1819 1742 1828 1820 1832
          1823 1825 1666 1966 1633 2216
          2207 2217 3192 3187 3194 3196
          3190 3197 3240 3241 3245 3248
        </DataArray>
        <DataArray type="Float64" Name="bounds" format="ascii" RangeMin="0" RangeMax="0">
          0 0 0 0 0 0
          0 0 0 0 0 0
          0 0 0 0 0 0
          0 0 0 0 0 0
          0 0 0 0 0 0
          0 0 0 0 0 0
          0 0 0 0 0 0
          0 0 0 0 0 0
          0 0 0 0 0 0
          0 0 0 0 0 0
          0 0 0 0 0 0
          0 0 0 0 0 0
          0 0 0 0 0 0
          0 0 0 0 0 0
          0 0 0 0 0 0
          0 0 0 0 0 0
          0 0 0 0 0 0
          0 0 0 0 0 0
          0 0 0 0 0 0
          0 0 0 0 0 0
          0 0 0 0 0 0
          0 0 0 0 0 0
          0 0 0 0 0 0
          0 0 0 0 0 0
          0 0 0 0 0 0
          0 0 0 0 0 0
          0 0 0 0 0 0
          0 0 0 0 0 0
          0 0 0 0 0 0
          0 0 0 0 0 0
          0 0 0 0 0 0
          0 0 0 0 0 0
          0 0 0 0 0 0
          0 0 0 0 0 0
          0 0 0 0 0 0
          0 0 0 0 0 0
          0 0 0 0 0 0
          0 0 0 0 0 0
          0 0 0 0 0 0
          0 0 0 0 0 0
          0 0 0 0 0 0
          0 0 0 0 0 0
          0 0 0 0 0 0
          0 0 0 0 0 0
          0 0 0 0 0 0
          0 0 0 0 0 0
          0 0 0 0 0 0
          0 0 0 0 0 0
          0 0 0 0 0 0
          0 0 0 0 0 0
          0 0 0 0 0 0
          0 0 0 0 0 0
          0 0 0 0 0 0
          0 0 0 0 0 0
          0 0 0 0 0 0
          0 0 0 0 0 0
          0 0 0 0 0 0
          0 0 0 0 0 0
          0 0 0 0 0 0
          0 0 0 0 0 0
          0 0 0 0 0 0
          0 0 0 0 0 0
          0 0 0 0 0 0
          0 0 0 0 0 0
          0 0 0 0 0 0
          0 0 0 0 0 0
          0 0 0 0 0 0
          0 0 0 0 0 0
          0 0 0 0 0 0
          0 0 0 0 0 0
          0 0 0 0 0 0
          0 0 0 0 0 0
          0 0 0 0 0 0
          0 0 0 0 0 0
          0 0 0 0 0 0
          0 0 0 0 0 0
          0 0 0 0 0 0
          0 0 0 0 0 0
          0 0 0 0 0 0
          0 0 0 0 0 0
          0 0 0 0 0 0
          0 0 0 0 0 0
          0 0 0 0 0 0
          0 0 0 0 0 0
          0 0 0 0 0 0
          0 0 0 0 0 0
          0 0 0 0 0 0
          0 0 0 0 0 0
          0 0 0 0 0 0
          0 0 0 0 0 0
          0 0 0 0 0 0
          0 0 0 0 0 0
          0 0 0 0 0 0
          0 0 0 0 0 0
          0 0 0 0 0 0
          0 0 0 0 0 0
          0 0 0 0 0 0
          0 0 0 0 0 0
          0 0 0 0 0 0
          0 0 0 0 0 0
          0 0 0 0 0 0
          0 0 0 0 0 0
          0 0 0 0 0 0
          0 0 0 0 0 0
          0 0 0 0 0 0
          0 0 0 0 0 0
          0 0 0 0 0 0
          0 0 0 0 0 0
          0 0 0 0 0 0
          0 0 0 0 0 0
          0 0 0 0 0 0
          0 0 0 0 0 0
          0 0 0 0 0 0
          0 0 0 0 0 0
          0 0 0 0 0 0
          0 0 0 0 0 0
          0 0 0 0 0 0
          0 0 0 0 0 0
          0 0 0 0 0 0
          0 0 0 0 0 0
          0 0 0 0 0 0
          0 0 0 0 0 0
          0 0 0 0 0 0
          0 0 0 0 0 0
          0 0 0 0 0 0
          0 0 0 0 0 0
          0 0 0 0 0 0
          0 0 0 0 0 0
          0 0 0 0 0 0
          0 0 0 0 0 0
          0 0 0 0 0 0
          0 0 0 0 0 0
          0 0 0 0 0 0
          0 0 0 0 0 0
          0 0 0 0 0 0
          0 0 0 0 0 0
          0 0 0 0 0 0
          0 0 0 0 0 0
          0 0 0 0 0 0
          0 0 0 0 0 0
          0 0 0 0 0 0
          0 0 0 0 0 0
          0 0 0 0 0 0
          0 0 0 0 0 0
          0 0 0 0 0 0
          0 0 0 0 0 0
          0 0 0 0 0 0
          0 0 0 0 0 0
          0 0 0 0 0 0
          0 0 0 0 0 0
          0 0 0 0 0 0
          0 0 0 0 0 0
          0 0 0 0 0 0
          0 0 0 0 0 0
          0 0 0 0 0 0
          0 0 0 0 0 0
          0 0 0 0 0 0
          0 0 0 0 0 0
          0 0 0 0 0 0
          0 0 0 0 0 0
          0 0 0 0 0 0
          0 0 0 0 0 0
          0 0 0 0 0 0
          0 0 0 0 0 0
          0 0 0 0 0 0
          0 0 0 0 0 0
          0 0 0 0 0 0
          0 0 0 0 0 0
          0 0 0 0 0 0
          0 0 0 0 0 0
          0 0 0 0 0 0
          0 0 0 0 0 0
          0 0 0 0 0 0
          0 0 0 0 0 0
          0 0 0 0 0 0
          0 0 0 0 0 0
          0 0 0 0 0 0
          0 0 0 0 0 0
          0 0 0 0 0 0
          0 0 0 0 0 0
          0 0 0 0 0 0
          0 0 0 0 0 0
          0 0 0 0 0 0
          0 0 0 0 0 0
          0 0 0 0 0 0
          0 0 0 0 0 0
          0 0 0 0 0 0
          0 0 0 0 0 0
          0 0 0 0 0 0
          0 0 0 0 0 0
          0 0 0 0 0 0
          0 0 0 0 0 0
          0 0 0 0 0 0
          0 0 0 0 0 0
          0 0 0 0 0 0
          0 0 0 0 0 0
          0 0 0 0 0 0
          0 0 0 0 0 0
          0 0 0 0 0 0
          0 0 0 0 0 0
          0 0 0 0 0 0
          0 0 0 0 0 0
          0 0 0 0 0 0
          0 0 0 0 0 0
          0 0 0 0 0 0
          0 0 0 0 0 0
          0 0 0 0 0 0
          0 0 0 0 0 0
          0 0 0 0 0 0
          0 0 0 0 0 0
          0 0 0 0 0 0
          0 0 0 0 0 0
          0 0 0 0 0 0
          0 0 0 0 0 0
          0 0 0 0 0 0
          0 0 0 0 0 0
          0 0 0 0 0 0
          0 0 0 0 0 0
          0 0 0 0 0 0
          0 0 0 0 0 0
          0 0 0 0 0 0
          0 0 0 0 0 0
          0 0 0 0 0 0
          0 0 0 0 0 0
          0 0 0 0 0 0
        </DataArray>
        <DataArray type="Float64" Name="gradient_error" format="ascii" RangeMin="1.1129152158126884e-11" RangeMax="7.65459081676713e-8">
          1.3721585260799837e-8 1.2955657453038103e-8 5.706767142887888e-8 2.695199491230154e-9 3.3423600695513378e-9 2.0244247450472283e-10
          1.947537439272376e-9 5.6777132297494404e-8 1.7059662359065117e-9 6.330291915765952e-11 3.0957184883557894e-11 1.0115002471879207e-8
          5.1610855621951016e-8 5.8011237613332946e-8 3.385326226319742e-8 1.2225484664400531e-8 1.0610333715441456e-8 1.4263672145751913e-8
          9.90189915051398e-9 6.860170331283992e-9 5.0785687637847666e-9 4.504257140034885e-8 5.0680112791103346e-8 2.0919200670330496e-9
          3.112348260030527e-8 3.665463442483367e-8 7.95944394013096e-9 3.3280411399977083e-8 2.3806138873948242e-8 1.341750693800214e-9
          1.551548272146028e-8 1.764832109120489e-8 6.653594248172445e-8 6.6953647381618595e-9 1.8438403016904953e-8 2.680889762831553e-9
          1.378724995947957e-8 5.456318434231971e-10 1.5199180575392114e-9 9.867965817685227e-10 2.5540507199753042e-8 2.3307366251550808e-8
          2.461338195209701e-9 5.273304648845393e-9 4.384243638114421e-9 2.2818718368402114e-9 2.0195729565849516e-9 8.608986105370665e-10
          8.40388772167443e-10 1.6030966420724185e-8 4.973271201578983e-8 4.513622964142712e-8 3.341404246300545e-8 4.6810804679074094e-8
          8.04807011396686e-9 1.997918718213469e-8 1.3670036705322877e-8 5.68395283469547e-8 3.742884401084353e-8 6.636060584719323e-8
          4.757704317254355e-8 5.1690133641272955e-8 1.3857183795434612e-8 1.7270377317637964e-8 1.0188409534236325e-8 2.068357083984131e-8
          1.3332615591714265e-8 1.2081011932625982e-8 4.459719946608051e-8 4.017434109230928e-8 8.544794058868216e-9 3.8184583023909275e-8
          3.4165121759898156e-8 9.1107795334848e-9 2.8989877612506833e-8 2.4022500443908284e-8 4.9329918128502335e-8 4.4200316192524316e-8
          3.987334703736889e-8 5.5260400921892245e-8 6.237479800700412e-9 5.62145540749393e-9 3.095867872958645e-8 2.7522897773178078e-8
          3.406942514365152e-9 2.3585196005370426e-8 2.0829495387281946e-8 4.276632565865144e-9 1.884750107684187e-8 1.3864446537510845e-8
          3.877136941794124e-8 3.3939462497360983e-8 2.718161482494147e-8 4.434025876799585e-8 6.082468583825742e-9 1.6695224187692512e-8
          4.391096561479564e-9 1.33125968785181e-8 4.772786374219583e-9 1.116217586890941e-8 8.725853365106662e-9 5.3716407525584477e-8
          4.906034982543639e-8 2.8684777872511136e-8 3.0222143725105708e-9 1.0045880087245667e-8 1.9442852263525104e-9 7.111919317130379e-9
          2.496594627578302e-9 6.483874837577304e-9 3.6010212299351254e-9 4.2834619998431954e-8 3.5520988305230586e-8 2.591996446838302e-8
          2.9175249923301365e-9 8.822713137027627e-9 3.6002930726477915e-9 9.894587535934773e-9 3.8532698257161454e-8 3.852323712449642e-8
          1.0452251661003305e-9 1.8932623534836088e-9 2.4558138661705563e-9 1.3821997754949102e-8 4.398256212810174e-9 1.4468918045801097e-8
          1.2991827485670498e-8 1.849437565794958e-8 3.6946674292882594e-8 3.3486531828987076e-8 1.660707427498788e-9 3.0514459145990585e-9
          3.5859231762160876e-9 1.6957659620493297e-8 6.582364431998909e-8 6.324968999183536e-8 4.42094608283433e-8 4.9119079023230944e-8
          5.253881332165233e-8 5.1941786844610354e-8 5.416753752971951e-8 5.797403878472853e-8 5.0483748365060496e-8 5.895734102843051e-8
          3.681197165323187e-8 4.901322088776404e-8 4.413250449923481e-8 7.65459081676713e-8 2.0508543686115493e-9 1.8894535106206444e-9
          1.674018250173415e-8 1.4688955408146626e-8 1.5528193306938732e-9 9.466202710294031e-9 2.3404016482762634e-8 2.0233622799028447e-8
          2.8450036971652883e-8 1.118075953712279e-9 4.63956536872859e-9 7.978771888441158e-10 2.1154472704657534e-9 2.7831018922883717e-8
          9.792374117223903e-9 2.0386997548883608e-8 1.7350916092499155e-8 3.625986950071055e-8 2.2886087736636455e-9 3.931951936845135e-9
          1.7167722548096944e-8 4.1793304735746046e-8 2.4989578660792635e-8 3.8079910262373126e-8 3.382742643922486e-8 1.1564027174919747e-8
          1.474370086692059e-8 1.0390080879912978e-8 1.3435846696985722e-8 7.8663117493442e-9 1.0129990259635572e-8 1.036312275513161e-8
          1.792337455892143e-8 1.6481612514058466e-8 1.2393668769926944e-8 1.5247915354585145e-11 2.1679745192033746e-10 1.541081509824226e-11
          1.702009676067144e-10 1.1129152158126884e-11 7.024609558779676e-11 5.12450911335961e-11 4.1834698848608984e-10 3.249911201151865e-10
          1.293630390174666e-10 1.7245096576536527e-8 1.6178735171216418e-8 1.9380251943203893e-8 1.8066216324118197e-8 1.222218206607451e-8
          2.3074922524236815e-9 1.1903112497009976e-8 1.715497722066965e-9 1.874437069448582e-8 1.9487791716388556e-8 1.7996121978329092e-8
          2.023121273829129e-8 2.2185208633816295e-8 2.1567250537446247e-8 2.2083900012030342e-8 1.984565180525449e-8 2.316130867920107e-8
          2.235411583459326e-8 2.2284712773252554e-8 2.019315967685028e-8 1.749970329438151e-8 1.7595592298670034e-8 1.6257395419330243e-8
          1.7506332337099834e-8 1.719777476708142e-8 1.617326831048456e-8 2.2747138466661218e-8 2.1773959933018353e-8 2.0832209600228522e-8
          1.9367096666101966e-8 2.0521435791736465e-8 1.957676599566776e-8 1.8070233123927568e-8 1.7376823680338465e-8 1.6656369423381996e-8
          1.590064654222103e-8 1.5379326913935546e-8 1.4962964756197423e-8 1.3838481785480981e-8 1.3804378351316974e-8 1.275390079393019e-8
          1.2398238932827054e-8 1.318500379722175e-8 1.2769851236511418e-8 1.681617166122773e-8 1.7369448399796274e-8 2.641552188583513e-9
          2.737563790932328e-9 3.0072053782020833e-9 8.281581538303013e-9 1.3478573438595922e-8 1.3010872641382038e-8 1.3595520083386058e-8
          1.307296036191157e-8 1.7787167914688975e-8 1.801171784196112e-8 3.2428953524696815e-9 3.3178885903134292e-9 3.663222700845342e-9
          9.370199774724887e-9 2.0054371919919e-8 2.0639828009893914e-8 1.853751260821263e-8 1.8912051848126093e-8 1.2886925959964757e-8
          1.3542972171595602e-8 1.505949430202508e-8 2.1081784671614423e-8 2.1324164831196143e-8 1.9144760633144585e-8 1.919365673100931e-8
          1.415760737133325e-8 1.4685355299546933e-8 1.6313438678985914e-8 1.8873980865325133e-9 1.9432399296156128e-9 2.2404050682851225e-9
          2.2922206123270566e-9 2.0330034464756537e-9 2.355729069324445e-9 9.087108372992537e-10 1.1930414119264812e-9 1.3781285006295022e-9
          1.6401490155372207e-9 2.6395785031750596e-9 2.682969708215872e-9 3.0798678830261457e-9 3.1128365798916747e-9 2.7141729999843742e-9
          3.102261561553609e-9 1.1901806837136646e-9 1.5789204200473908e-9 1.7928916399637255e-9 2.1661125091829733e-9 2.4682362843900383e-9
          2.686811184210818e-9 1.2637971499048305e-8 1.3391601658270577e-8 1.9002478284594584e-9 2.1539943106723765e-9 1.3010908964957554e-8
          2.9484572528678516e-9 3.241962111394608e-9 1.4149979566813674e-8 1.4870590554733265e-8 2.440535883350627e-9 2.7391295091163704e-9
          1.4671874690474139e-8 1.3475855286214047e-8 1.2905000417091069e-8 1.3069288611370645e-8 1.6327332247589274e-8 1.7980694521136815e-8
          2.1487372496570394e-8 3.984156221061826e-9 4.02429478264066e-9 8.084893570440363e-9 1.0354828601746644e-8 1.2422832431644513e-8
          1.954161087595337e-8 1.9833689639234124e-8 2.285676419626258e-8 2.479267181150805e-8 2.3996009047972057e-8 4.7487510743487025e-9
          1.212088883650079e-8 1.6371672806742413e-8 1.8479242420061685e-8 2.1319575837304554e-8 2.1036335321443486e-8 1.9027748951269304e-8
          1.8608878877817455e-8 1.508168598099398e-8 1.5295798726795868e-8 1.7174929924893305e-8 2.044335945081115e-8 1.9483383479081017e-8
          1.7898649074520838e-8 1.6861196406337333e-8 1.527228187804437e-8 1.493092327853849e-8 1.7210151159046597e-8 3.5505640146134457e-9
          3.5749078596168102e-9 4.040740103833827e-9 4.045524702187251e-9 3.5098707658356232e-9 3.917185144544201e-9 1.4987598024706123e-9
          2.0156752591880157e-9 2.241511691612708e-9 2.754704784142284e-9 4.544017432725779e-9 4.507554682934345e-9 5.007677689518077e-9
          4.921343728612215e-9 4.308104624606353e-9 4.659855612984753e-9 1.8189034118205154e-9 2.4611011396024696e-9 2.6610321452003293e-9
          3.332665835956168e-9 3.558975981802366e-9 3.886955368372403e-9 1.5508157915379274e-8 1.600604975365216e-8 3.0411356014626687e-9
          3.3303612350214772e-9 1.629565127377295e-8 4.2180792720761235e-9 4.529862152561335e-9 1.6303968460450427e-8 1.632932328334271e-8
          3.588155023413785e-9 3.805388347164773e-9 1.7435782480832746e-8 1.953222967226971e-8 2.0251670571306725e-8 1.7763022767116718e-8
          2.087590556228098e-8 2.1376881069909363e-8 1.840734537423572e-8 2.0430219279516348e-8 2.1345623966895276e-8 1.8634280827210543e-8
          1.9179271990497723e-8 2.1328208886762986e-8 2.2439577362483824e-8 1.9505538887304365e-8 2.2188003621760873e-8 2.291284673345926e-8
          1.957604858621622e-8 1.9821978205865346e-8 2.3500101681240764e-8 2.4448812397009156e-8 2.0744751798196715e-8 2.171314555699141e-8
          2.180983797819779e-8 1.842473324041984e-8 2.161178347580072e-8 2.1069951088569104e-8 1.7636849943508653e-8 2.34796802413597e-8
          2.3811079579253747e-8 1.9921763710521936e-8 1.9815696094666668e-8 2.5246214925727994e-8 2.58123211803097e-8 2.1418794180624037e-8
          2.3834088523402346e-8 2.3479689802235184e-8 1.945609288748457e-8 1.8841841675974925e-8 2.6056393571003973e-8 2.5889428515901257e-8
          2.1275335831460493e-8 1.716351691839098e-8 1.6454836356308613e-8 1.4696723388290356e-8 1.4631073370885357e-8 1.2543002986125398e-8
          1.1107343244229771e-8 1.1570015024706325e-8 2.682945215356841e-8 2.5753799067747643e-8 2.5163382436802603e-8 2.4071582643983497e-8
          2.2738694714306006e-8 2.1051718231646307e-8 2.0997407262567832e-8 2.0267836968525352e-8 1.960686998861291e-8 1.8127071048465346e-8
          1.8180258382480464e-8 1.6612506332135104e-8 1.55612733182758e-8 1.410135905214199e-8 1.817718239184836e-8 2.1033351192069475e-8
          2.125178295011759e-8 5.35128589724015e-9 5.261738890140306e-9 5.644761183035487e-9 5.517663301665826e-9 4.9499808707831935e-9
          5.176089374894241e-9 2.058854415126529e-9 2.846471036509025e-9 3.0186152487382346e-9 3.792549209566166e-9 8.583836850437482e-9
          1.2398366144629556e-8 1.9959248715785304e-8 2.318851834690945e-8 3.949960653992961e-9 4.035851338623803e-9 1.7557269952670012e-8
          2.0225642005774876e-8 1.9159929438913393e-8 1.602139714498657e-8 2.274627111971942e-8 2.1712585575940285e-8 1.7998767529354547e-8
          1.693315012263373e-8 2.5266900233663963e-8 2.426524171296718e-8 1.9976137913722522e-8 2.8923330059277655e-9 2.7597625922693197e-9
          2.8735577489967385e-9 2.8678550133173338e-9 2.6967612553735846e-9 1.869956932326725e-9 2.4128390541763884e-9 2.744420636283167e-9
          2.2869380896713205e-9 3.2864960737738426e-9 3.4499084170592076e-9 3.410527019147382e-9 3.531467636958858e-9 3.342331097084582e-9
          3.1904936017480507e-9 3.293168228216659e-9 3.396731237155862e-9 3.2728198834997108e-9 3.1533380212612735e-9 3.167888373483228e-9
          3.204192509261251e-9 2.5232175237445734e-9 2.5485712363657333e-9 2.6679509190701018e-9 2.617921385080106e-9 3.2582268989614595e-9
          3.274532835203467e-9 3.3719382273378267e-9 3.388356841061792e-9 3.3147917831751398e-9 3.4299260282041428e-9 2.7726203660243877e-9
          2.7986980459120172e-9 2.941905343719784e-9 2.867217889593288e-9 3.2203766014645904e-9 3.214806910111861e-9 2.7262855330129395e-9
          2.8402200395677507e-9 2.801136937371303e-9 3.330731683681667e-9 3.443559206972268e-9 3.3227185724585288e-9 3.4320418123220085e-9
          2.963150126589269e-9 3.0951716065154075e-9 3.025138913547727e-9 3.6853806947351097e-9 3.6447173034547436e-9 3.754226885986978e-9
          3.563904148689542e-9 3.907677376096908e-9 3.863170572884928e-9 3.968322045052042e-9 3.767817042039343e-9 3.49680685559216e-9
          3.5933872854801857e-9 3.4698593259796127e-9 3.6861695999508706e-9 3.772455968191318e-9 3.6553688854960055e-9 3.492180982888658e-9
          3.5075875543628106e-9 3.618887610824812e-9 3.6329504476885026e-9 3.548145796740906e-9 3.6705604840693153e-9 3.07513754536842e-9
          3.0971419814300274e-9 3.262728445905475e-9 3.1576343751834014e-9 3.751661250472065e-9 3.764635682203367e-9 3.8883970589339425e-9
          3.900718402838237e-9 3.7976458215102726e-9 3.927399937477671e-9 3.418380771029526e-9 3.4368363069377466e-9 3.618230812424133e-9
          3.486892274070289e-9 3.5571456261773375e-9 3.671839874746242e-9 3.5409937847098267e-9 3.6495720659060467e-9 3.2361996719056186e-9
          3.3854129928513384e-9 3.2848943484935663e-9 3.787398025029801e-9 3.90157485545887e-9 3.757114520973728e-9 3.86138958270493e-9
          3.5413334043133813e-9 3.7024040715744375e-9 3.577013948194044e-9 2.927187967605238e-9 3.034098067572879e-9 3.0477430618926062e-9
          3.1500283517233287e-9 3.2738223370406264e-9 3.281620959428071e-9 3.0083478360134615e-9 3.1236968555484154e-9 2.9534811610433968e-9
          3.2298181253427433e-9 3.3380622209670456e-9 3.1543146942160362e-9 3.40428774109978e-9 3.5431912952815492e-9 3.528047288070697e-9
          3.6912983611785905e-9 3.845489402620722e-9 3.788695212681103e-9 3.4585110811250464e-9 3.5782637834753723e-9 3.3673740446996994e-9
          3.684000104813368e-9 3.786270484511109e-9 3.5705128687038862e-9 2.0371926386677444e-9 2.0394450919321093e-9 2.209082116391735e-9
          2.2059413959325246e-9 2.061454803837509e-9 2.215066813316447e-9 1.7288383763430577e-9 1.7454003159407162e-9 1.9037621185228866e-9
          1.7847580198380356e-9 2.3912961262837233e-9 2.383590454713485e-9 2.581805222129743e-9 2.570709515953644e-9 2.3812059962338196e-9
          2.558390044261852e-9 2.0579811588125886e-9 2.0737116617010426e-9 2.2552061489913936e-9 2.1124263817346746e-9 2.1430344010337557e-9
          2.2817116735071157e-9 2.3134460829852212e-9 2.43759193720887e-9 1.8319285191233163e-9 1.9877242822383543e-9 1.885810549752281e-9
          2.4329725253702023e-9 2.596320181935902e-9 2.5739631490559295e-9 2.7220920415377635e-9 2.1536614300411594e-9 2.329646692380865e-9
          2.189735679374613e-9 1.1775871183236145e-9 1.228566603801542e-9 1.2821820331346886e-9 1.3366789008801285e-9 1.356383456641555e-9
          1.4726787680374152e-9 8.442529525982719e-10 9.202394904900523e-10 9.910951916319427e-10 1.106846853792942e-9 1.3939256316532405e-9
          1.4521076409744846e-9 1.5127765331406533e-9 1.5748235305205904e-9 1.5965699009279444e-9 1.7280753988741423e-9 9.757858470636878e-10
          1.065115427409373e-9 1.14208915269084e-9 1.2835157209332993e-9 1.510831772109499e-9 1.6362084845473445e-9 1.6483354179184831e-9
          1.7827842119739787e-9 1.3264996635072181e-9 1.4302112736778413e-9 1.521659359308256e-9 1.7691786952197672e-9 1.909651747209946e-9
          1.9235453881841847e-9 2.0704121763062803e-9 1.538974467065757e-9 1.652694437287824e-9 1.7641459761180853e-9 2.7798516344720698e-9
          2.7661792675485658e-9 2.9854337553922614e-9 2.969298294127108e-9 2.7451650183954513e-9 2.940207217869825e-9 2.4344184523641284e-9
          2.448080653857278e-9 2.651966829286249e-9 2.482468207587131e-9 3.19818466841005e-9 3.179183256847183e-9 3.4165776436356487e-9