<?xml version="1.0"?>
<VTKFile type="UnstructuredGrid" version="0.1" byte_order="LittleEndian" header_type="UInt32" compressor="vtkZLibDataCompressor">
  <UnstructuredGrid>
    <Piece NumberOfPoints="374" NumberOfCells="215">
      <PointData>
        <DataArray type="Int32" Name="libmesh_node_id" format="ascii" RangeMin="304" RangeMax="2602">
          645 646 647 648 655 656
          869 871 1175 1176 1177 1180
          1183 1185 1186 1187 1188 1192
          1193 1195 1196 1198 1221 1222
          1224 1227 1229 1230 1235 1236
          1585 1586 1589 1590 1591 1595
          1596 1597 1598 2144 2145 2146
          2147 2148 2149 2150 2151 2152
          2153 2154 2155 2156 2157 2168
          2169 2170 2171 2172 2173 2174
          2175 2176 2177 2188 2189 2190
          2191 2192 2193 2194 2195 2196
          2197 2205 2206 2207 2208 2209
          2210 2211 2212 2213 2214 2215
          2216 2217 2218 2219 2220 2221
          2222 2223 2224 2225 2226 2227
          2228 2229 2233 2234 2236 2237
          2239 2240 2241 2242 2243 2244
          2245 2246 2247 2248 2249 2250
          2251 2254 2255 2257 2259 2260
          2261 2262 2263 2264 2265 2266
          2267 2268 2269 2270 2271 2274
          2276 2277 2279 2280 2281 2282
          2283 2284 2285 2286 2287 2289
          2291 2293 2306 2307 2310 2348
          2349 2350 2351 2352 2353 2354
          2355 2356 2358 2359 2362 2363
          2365 2368 2412 2413 2414 2415
          2416 2417 2418 2419 2420 2421
          2429 2430 2431 2432 2433 2434
          2435 2446 2447 2448 2449 2450
          2451 2452 2453 2454 2455 2463
          2464 2465 2466 2467 2468 2469
          2470 2471 2472 2473 2474 2475
          2476 2477 2478 2479 2480 2481
          2484 2486 2487 2489 2490 2491
          2492 2494 2495 2496 2504 2505
          2506 2507 2508 2509 2510 2511
          2512 2513 2514 2515 2518 2520
          2521 2523 2524 2525 2526 2528
          2529 2530 404 870 863 864
          872 865 348 873 874 875
          1569 1570 1587 1588 1571 1592
          1593 1574 1594 1171 1172 1178
          1599 1600 1601 1602 1603 1604
          409 1189 649 1613 1608 1209
          1201 1615 1211 2134 2135 2136
          2139 1173 2142 1174 2160 2161
          2164 2166 1179 2180 2181 2183
          1181 2186 1182 2199 2201 2230
          2231 2232 2235 1190 2238 1191
          2252 2253 2256 2258 1194 2272
          2273 2275 650 2278 1197 2288
          2290 2292 651 1210 2357 2360
          2361 2364 2366 2367 1212 2369
          2371 2370 2375 2376 2377 2378
          2379 2373 2380 2404 2405 2407
          2482 2483 2485 1231 2488 1232
          2493 1233 2497 2498 2499 2500
          2501 2502 2503 2516 2517 2519
          304 2522 1237 2527 1238 2531
          2532 2533 2535 2536 2537 2601
          2595 2602
        </DataArray>
        <DataArray type="Float64" Name="bounds" format="ascii" RangeMin="0" RangeMax="0">
          0 0 0 0 0 0
          0 0 0 0 0 0
          0 0 0 0 0 0
          0 0 0 0 0 0
          0 0 0 0 0 0
          0 0 0 0 0 0
          0 0 0 0 0 0
          0 0 0 0 0 0
          0 0 0 0 0 0
          0 0 0 0 0 0
          0 0 0 0 0 0
          0 0 0 0 0 0
          0 0 0 0 0 0
          0 0 0 0 0 0
          0 0 0 0 0 0
          0 0 0 0 0 0
          0 0 0 0 0 0
          0 0 0 0 0 0
          0 0 0 0 0 0
          0 0 0 0 0 0
          0 0 0 0 0 0
          0 0 0 0 0 0
          0 0 0 0 0 0
          0 0 0 0 0 0
          0 0 0 0 0 0
          0 0 0 0 0 0
          0 0 0 0 0 0
          0 0 0 0 0 0
          0 0 0 0 0 0
          0 0 0 0 0 0
          0 0 0 0 0 0
          0 0 0 0 0 0
          0 0 0 0 0 0
          0 0 0 0 0 0
          0 0 0 0 0 0
          0 0 0 0 0 0
          0 0 0 0 0 0
          0 0 0 0 0 0
          0 0 0 0 0 0
          0 0 0 0 0 0
          0 0 0 0 0 0
          0 0 0 0 0 0
          0 0 0 0 0 0
          0 0 0 0 0 0
          0 0 0 0 0 0
          0 0 0 0 0 0
          0 0 0 0 0 0
          0 0 0 0 0 0
          0 0 0 0 0 0
          0 0 0 0 0 0
          0 0 0 0 0 0
          0 0 0 0 0 0
          0 0 0 0 0 0
          0 0 0 0 0 0
          0 0 0 0 0 0
          0 0 0 0 0 0
          0 0 0 0 0 0
          0 0 0 0 0 0
          0 0 0 0 0 0
          0 0 0 0 0 0
          0 0 0 0 0 0
          0 0 0 0 0 0
          0 0
        </DataArray>
        <DataArray type="Float64" Name="gradient_error" format="ascii" RangeMin="9.366059546939887e-11" RangeMax="2.053311634939286e-8">
          1.9758950308438766e-9 1.368593329021288e-9 8.269322607037811e-9 4.16972946465523e-9 1.5505678502822772e-8 1.1107481179176756e-8
          2.927036923771655e-9 1.9752601209449105e-9 1.8001033156827216e-9 2.4953504270078298e-9 2.163361225699321e-9 1.4231739617281288e-9
          6.965327161438365e-9 9.756116924261404e-10 8.877544605822833e-10 1.2759051096850443e-9 1.0987939086227287e-9 6.738654065441475e-10
          7.109551148485269e-10 4.635261455635122e-9 3.840038916512656e-9 2.2073401773221714e-9 1.698923796000109e-8 1.4776895962248756e-8
          8.812224684667374e-9 1.652778083516911e-8 1.0194714221630877e-8 8.778020855633583e-9 1.007344644514123e-8 1.0126689446329333e-8
          1.864645218151259e-9 1.7517380576572938e-9 9.601547934913677e-10 2.0479772250192755e-9 1.889454482332602e-9 5.171005612381913e-10
          4.848361134790092e-10 1.0199139548265714e-9 9.401283678678832e-10 1.2080525933664344e-9 1.1737519042877856e-9 1.7603913169096061e-9
          1.7065423426414903e-9 8.538819591544814e-10 1.2975236743907348e-9 1.256826214767492e-9 1.0757185435526016e-9 1.5547379280880206e-9
          1.1424446203772543e-9 3.310321978848992e-9 3.1977508531294305e-9 2.4075008398957544e-9 2.883927342299335e-9 9.327415743599977e-10
          1.3337634666736819e-9 6.762639598403332e-10 9.766877012030002e-10 7.670207123479289e-10 1.0797793363022433e-9 7.868249719903645e-10
          2.431870156800137e-9 1.8139287328993244e-9 1.921799560200288e-9 6.033555249036599e-9 5.807494727980336e-9 4.671777294244856e-9
          4.488524308145342e-9 5.179989565057874e-9 3.982885101013455e-9 1.0415061924943639e-8 9.992628050220623e-9 7.923184964243027e-9
          8.82794865292193e-9 4.287389299386352e-9 3.2705500637347257e-9 3.3045550684383973e-9 2.4954075552437157e-9 7.186761614451515e-9
          5.61694982367218e-9 5.405697269226062e-9 6.212753676650004e-10 6.03106979924297e-10 9.27205681752896e-10 8.97612811418053e-10
          4.159229338268182e-10 6.433104195501043e-10 6.225662098828037e-10 5.513651112185749e-10 8.14557382179361e-10 5.643951941569158e-10
          1.8163544614513325e-9 1.7506414272764417e-9 1.2288490247419439e-9 1.5685869738680365e-9 2.866584500829054e-10 2.7822564752285565e-10
          4.326987256056346e-10 4.186653973904856e-10 2.542684856079419e-10 3.793889976819595e-10 8.65427366133195e-10 8.331335833965181e-10
          7.440335200316205e-10 4.762301722274353e-10 6.944992701653424e-10 3.2800292318681354e-10 4.804506861182384e-10 3.894739882037987e-10
          5.577704822993364e-10 3.8516281357585086e-10 1.309470734789945e-9 9.144806134234621e-10 1.0219018609919769e-9 2.1951792825187027e-10
          3.2280177915751896e-10 1.7940369675664985e-10 2.5858405798779263e-10 6.181201478132028e-10 4.796004241253401e-10 3.479055420440201e-9
          3.3374340164571836e-9 2.488626275761141e-9 2.3842688374511772e-9 2.9483259603598667e-9 2.098583529433905e-9 6.327311873055791e-9
          6.049255293378085e-9 4.422136614305138e-9 5.2841181071607114e-9 1.709040780947215e-9 1.6357902730314198e-9 1.4359674463887432e-9
          3.243150005718449e-9 3.088830633639225e-9 2.66957736659791e-9 2.404482932774372e-9 1.7021236844199525e-9 1.8191222239457694e-9
          1.279461984080698e-9 4.219515750742523e-9 3.0400862068191926e-9 3.094855995027054e-9 1.1603242034946936e-9 8.685384182407065e-10
          2.0989962677141315e-9 1.5124173693895073e-9 4.40421395127427e-10 5.966647044215387e-10 5.042943816580885e-10 3.0954867204826174e-10
          4.21656172820413e-10 2.13861221404129e-10 2.914955590099758e-10 2.748180818902405e-10 3.5567509809732587e-10 2.4659847500639843e-10
          7.456391717119133e-10 5.170634846662896e-10 1.4230360764301085e-10 1.9498564990533722e-10 1.2609155202338462e-10 1.642608159615449e-10
          3.4775657901131166e-10 1.2879083050305734e-9 1.627972382542357e-8 1.5610570767009713e-8 1.3066376151548276e-8 1.2522100889665752e-8
          1.3730913643391378e-8 1.0995647160843916e-8 2.053311634939286e-8 2.0043200364060313e-8 1.6467534951144324e-8 1.8233116793484063e-8
          1.1057664071283041e-8 8.809337347451938e-9 8.173214188281164e-9 6.432153344288117e-9 1.4960921536618423e-8 1.2023484790354474e-8
          1.1046231991957605e-8 1.8804282795507683e-8 1.9516535734459118e-8 1.6910732590157936e-8 1.7058350361850965e-8 1.9781155619845618e-8
          1.6439224114832175e-8 1.6030853274017504e-8 1.76413767050728e-8 1.620128007913841e-8 1.9527889391802523e-8 1.7367873147712696e-8
          1.4035990331407663e-8 1.3109551123791017e-8 1.052151277253404e-8 1.8001531780011397e-8 1.460014023390236e-8 1.3819721078509802e-8
          1.0175452828368631e-8 9.742518317742164e-9 7.65063432222357e-9 7.306439388682002e-9 8.52060889354156e-9 6.34088654852907e-9
          1.3309156718929184e-8 1.288993327131262e-8 9.855045834422709e-9 1.1557448085512234e-8 5.4912950984495855e-9 5.228420852013951e-9
          4.500679205538337e-9 7.549231887856431e-9 7.262347024040503e-9 6.385147075507736e-9 6.76177776230861e-9 4.971148523556003e-9
          4.86435655099551e-9 9.366513553154397e-9 7.0207019500599215e-9 6.77298102122744e-9 1.355381722490896e-8 1.3552073763633583e-8
          1.0574281010205507e-8 1.0533260892469352e-8 1.2929223342361563e-8 9.966377281267649e-9 1.2744140836403762e-8 1.3076510854643377e-8
          1.0265084776204277e-8 1.3053759712584167e-8 8.124573929686476e-9 8.020069910509352e-9 7.428524444653631e-9 7.912940099878765e-9
          7.95904473621507e-9 7.637335778642867e-9 1.1010584389311768e-8 8.373479408477088e-9 8.173022114235772e-9 1.1475458459519022e-8
          8.775864141350602e-9 8.659591000256037e-9 7.716026383656896e-9 2.5100908772379647e-9 6.267100415222848e-9 5.275649138508521e-9
          1.652149998803787e-9 4.47391153438698e-9 1.4963333886956126e-9 7.088228276104727e-10 5.26342836307695e-10 4.5113798185045675e-10
          3.2331839776584346e-9 6.714513807940305e-9 3.830518083015437e-9 3.541560792129902e-9 6.238160969131613e-9 1.457072136798712e-9
          2.8072498586298092e-9 5.005924211394288e-9 1.4886679457889653e-9 3.708062044895831e-9 3.3890431742026338e-9 2.598925734882901e-9
          2.3281036686795952e-10 4.701597580491379e-10 4.339027029590167e-10 4.010435518028909e-10 7.403045078746364e-10 3.4255663474362856e-10
          4.4007638716704076e-10 4.0081097330733513e-10 3.0488626469209823e-10 5.099620640540782e-10 1.0260523785853502e-9 7.377853934362966e-10
          1.4962475149065363e-9 2.419480969658812e-10 3.3713894289796624e-10 1.575003167702777e-9 2.3214861726879206e-9 2.252828095457364e-9
          2.0586095246331384e-9 4.2477881862086994e-9 4.109209526302242e-9 3.7215618901708563e-9 1.2586400418190863e-9 1.7743912630257913e-9
          1.4457640596272704e-9 3.159605155390767e-9 2.5191904189744868e-9 7.515025913101417e-9 7.246839140827706e-9 6.499615729681157e-9
          1.2727327916244824e-8 1.2218001997710438e-8 1.082095572515567e-8 5.427377663575772e-9 4.231717047075261e-9 1.8216472627209612e-10
          2.8298694323903175e-10 2.7378493835856393e-10 2.4814446338496167e-10 5.671832232655358e-10 5.458979546356036e-10 4.872634822145297e-10
          1.4432034648723423e-10 2.1132960763701207e-10 1.6930053282111295e-10 4.046037671033674e-10 3.13733955681604e-10 1.1275560017064529e-9
          1.078609150877297e-9 9.45420486973412e-10 2.167165085759886e-9 2.0613453639177707e-9 1.7752884796175984e-9 7.624927706625455e-10
          5.69664447741153e-10 1.389279002527692e-9 9.962671049266906e-10 6.363149289433885e-10 5.791286245250307e-10 9.366059546939887e-11
          1.2787580363763987e-10 1.0810376361525069e-10 2.27576000211979e-10 2.687062137197223e-10 2.832175298321621e-10 8.997431956951801e-10
          5.954447552093001e-10 8.57365958654244e-10 6.081014814729495e-10 3.9811627054917513e-10 4.0069225710192147e-10 2.6193285695886393e-10
          1.011411544434817e-9 1.4867737415370227e-9 6.635531157155808e-10 1.9512241903947543e-8 1.876445801988905e-8 1.6602202159726184e-8
          3.743195405217712e-9 3.5554636464194494e-9 3.0407528798838732e-9 5.293777871774089e-9 5.068440288784435e-9 4.403392835717703e-9
          3.5248354933980836e-9 4.984235393760877e-9 3.4892997058349646e-9 2.336702816071711e-9 2.444350220847545e-9 1.6222507435179564e-9
          5.019251909497468e-9 3.410855978561627e-9 3.500762822127477e-9 5.918070247739326e-9 5.782666208775621e-9 5.2374280813761625e-9
          5.899652441431293e-9 5.847515947914149e-9 5.444975320572562e-9 6.086725838096474e-9 6.479145537297152e-9 6.0858616097059475e-9
          4.193061757047981e-9 4.31963640577887e-9 6.424320018084775e-9 4.453376059965894e-9 4.617253277668529e-9 1.5699413943367434e-9
          2.289580178942657e-9 1.0342416707463706e-9
        </DataArray>
        <DataArray type="Float64" Name="gradient_matprop_error" format="ascii" RangeMin="0" RangeMax="0">
          0 0 0 0 0 0
          0 0 0 0 0 0
          0 0 0 0 0 0
          0 0 0 0 0 0
          0 0 0 0 0 0
          0 0 0 0 0 0
          0 0 0 0 0 0
          0 0 0 0 0 0
          0 0 0 0 0 0
          0 0 0 0 0 0
          0 0 0 0 0 0
          0 0 0 0 0 0
          0 0 0 0 0 0
          0 0 0 0 0 0
          0 0 0 0 0 0
          0 0 0 0 0 0
          0 0 0 0 0 0
          0 0 0 0 0 0
          0 0 0 0 0 0
          0 0 0 0 0 0
          0 0 0 0 0 0
          0 0 0 0 0 0
          0 0 0 0 0 0
          0 0 0 0 0 0
          0 0 0 0 0 0
          0 0 0 0 0 0
          0 0 0 0 0 0
          0 0 0 0 0 0
          0 0 0 0 0 0
          0 0 0 0 0 0
          0 0 0 0 0 0
          0 0 0 0 0 0
          0 0 0 0 0 0
          0 0 0 0 0 0
          0 0 0 0 0 0
          0 0 0 0 0 0
          0 0 0 0 0 0
          0 0 0 0 0 0
          0 0 0 0 0 0
          0 0 0 0 0 0
          0 0 0 0 0 0
          0 0 0 0 0 0
          0 0 0 0 0 0
          0 0 0 0 0 0
          0 0 0 0 0 0
          0 0 0 0 0 0
          0 0 0 0 0 0
          0 0 0 0 0 0
          0 0 0 0 0 0
          0 0 0 0 0 0
          0 0 0 0 0 0
          0 0 0 0 0 0
          0 0 0 0 0 0
          0 0 0 0 0 0
          0 0 0 0 0 0
          0 0 0 0 0 0
          0 0 0 0 0 0
          0 0 0 0 0 0
          0 0 0 0 0 0
          0 0 0 0 0 0
          0 0 0 0 0 0
          0 0 0 0 0 0
          0 0
        </DataArray>
        <DataArray type="Float64" Name="initial_marker" format="ascii" RangeMin="0" RangeMax="2">
          1 0.5 2 2 2 2
          0 0 1 2 2 2
          2 1 1 2 2 0
          2 2 2 2 2 2
          2 2 2 2 2 2
          0 0 0 0 0 0
          0 0 0 2 2 2
          2 2 2 2 2 2
          2 2 2 2 2 2
          2 2 2 1 1.5 1.5
          2 2 2 2 2 2
          2 2 2 2 2 2
          2 2 2 2 2 2
          2 2 2 2 2 2
          2 2 2 2 2 2
          2 2 2 2 2 2
          2 2 1.5 1.75 2 2
          2 1.5 1.75 1 1.5 0.5
          1.25 1 2 2 2 0.5
          1.25 0 1 2 2 2
          2 2 2 2 2 2
          2 2 2 2 2 2
          2 2 2 2 2 2
          2 2 2 2 2 2
          2 2 0 1 1 0
          1 0 0.75 0 1 0.5
          2 1.75 0 0.5 0 0
          1.5 2 2 2 2 2
          2 2 2 2 2 2
          2 2 2 2 2 2
          2 2 2 2 2 2
          2 2 2 2 2 2
          2 2 2 2 2 2
          2 2 2 2 2 2
          2 2 2 2 2 2
          2 2 2 2 2 2
          2 2 2 2 2 2
          2 2 2 2 2 2
          2 2 2 2 2 2
          2 2 2 2 2 2
          2 2 0 0 0 0
          0 0 0 0 0 0
          0 0 0 0 0 0
          0 0 0 1 1 0.5
          0 0 0 0 0 0
          1 0.25 0 0 0 0
          0 0 0 2 2 2
          2 2 2 2 2 2
          1.5 2 2 2 2 2
          2 2 2 2 2 1.5
          2 1.75 1.25 2 2 2
          0 1 1 2 2 2
          2 2 2 2 2 2
          2 2 2 1.25 2 0
          0.5 0 1.5 1 0.5 2
          2 2 2 2 1.75 1.5
          2 2 2 2 2 2
          2 2 2 2 2 2
          2 2 2 2 2 2
          2 2 2 2 2 2
          2 2 2 2 2 2
          2 2 2 2 2 2
          2 2
        </DataArray>
        <DataArray type="Float64" Name="markers_norefine" format="ascii" RangeMin="0" RangeMax="1">
          0 0 0 0 0 0
          0 0 0 0 0 0
          0 0 0 0 0 0
          0 0 0 0 0 0
          0 0 0 0 0 0
          0 0 0 0 0 0
          0 0 0 0 0 0
          0 0 0 0 0 0
          0 0 0 0 0 0
          0 0 0 0 0 0
          0 0 0 0 0 0
          0 0 0 0 0 0
          0 0 0 0 0 0
          0 0 0 0 0 0
          0 0 0 0 0 0
          0 0 0 0 0 0
          0 0 0 0 0 0
          0 0 0 0 0 0
          0 0 0 0 0 0
          0 0 0 0 0 0
          0 0 0 0 0 0
          0 0 0 0 0 0
          0 0 0 0 0 0
          0 0 0 0 0 0
          0 0 0 0 0 0
          0 0 0 0 0 0
          0 0 0 0 0 0
          0 0 0 0 0 0
          0 0 0 0 0 0
          0 0 0 0 0 0
          0 0.5 0.25 0 0 0
          0 1 0.5 0 0 0
          0 0 0 0 0 0
          0 0 0 0 0 0
          0 0 0 0 0 0
          0 0 0 0 0 0
          0 0 0 0 0 0
          0 0 0 0 0 0
          0 0 0 0 0 0
          0 0 0 0 0 0
          0 0 0 0 0 0
          0 0 0 0 0 0
          0 0 0 0 0 0
          0 0 0 0 0 0
          0 0 0 0 0 0
          0 0 0 0 0 0
          0 0 0 0 0 0
          0 0 0 0 0 0
          0 0 0 0 0 0
          0 0 0 0 0 0
          0 0 0 0 0 0
          0 0 0 0 0 0
          0 0 0 0 0 0
          0 0 0 0 0 0
          0 0 0 0 0 0
          0 0 0 0 0 0
          0 0 0 0 0 0
          0 0 0 0 0 0
          0 0 0 0 0 0
          0 0 0 0 0 0
          0 0 0 0 0 0
          0 0 0 0 0 0
          0 0
        </DataArray>
        <DataArray type="Float64" Name="markers_mustrefine" format="ascii" RangeMin="0" RangeMax="2">
          1 0.5 2 2 2 2
          0 0 1 2 2 2
          2 1 1 2 2 0
          2 2 2 2 2 2
          2 2 2 2 2 2
          0 0 0 0 0 0
          0 0 0 2 2 2
          2 2 2 2 2 2
          2 2 2 2 2 2
          2 2 2 1 1.5 1.5
          2 2 2 2 2 2
          2 2 2 2 2 2
          2 2 2 2 2 2
          2 2 2 2 2 2
          2 2 2 2 2 2
          2 2 2 2 2 2
          2 2 1.5 1.75 2 2
          2 1.5 1.75 1 1.5 0.5
          1.25 1 2 2 2 0.5
          1.25 0 1 2 2 2
          2 2 2 2 2 2
          2 2 2 2 2 2
          2 2 2 2 2 2
          2 2 2 2 2 2
          2 2 0 1 1 0
          1 0 0.75 0 1 0.5
          2 1.75 0 0.5 0 0
          1.5 2 2 2 2 2
          2 2 2 2 2 2
          2 2 2 2 2 2
          2 2 2 2 2 2
          2 2 2 2 2 2
          2 2 2 2 2 2
          2 2 2 2 2 2
          2 2 2 2 2 2
          2 2 2 2 2 2
          2 2 2 2 2 2
          2 2 2 2 2 2
          2 2 2 2 2 2
          2 2 2 2 2 2
          2 2 0 0 0 0
          0 0 0 0 0 0
          0 0 0 0 0 0
          0 0 0 1 1 0.5
          0 0 0 0 0 0
          1 0.25 0 0 0 0
          0 0 0 2 2 2
          2 2 2 2 2 2
          1.5 2 2 2 2 2
          2 2 2 2 2 1.5
          2 1.75 1.25 2 2 2
          0 1 1 2 2 2
          2 2 2 2 2 2
          2 2 2 1.25 2 0
          0.5 0 1.5 1 0.5 2
          2 2 2 2 1.75 1.5
          2 2 2 2 2 2
          2 2 2 2 2 2
          2 2 2 2 2 2
          2 2 2 2 2 2
          2 2 2 2 2 2
          2 2 2 2 2 2
          2 2
        </DataArray>
        <DataArray type="Float64" Name="gradient_marker" format="ascii" RangeMin="0.5" RangeMax="1">
          1 1 1 1 1 1
          1 1 1 1 1 1
          1 1 1 1 1 1
          1 1 1 1 1 1
          1 1 1 1 1 1
          1 1 1 1 1 1
          1 1 1 1 1 1
          1 1 1 1 1 1
          1 1 1 1 1 1
          1 1 1 1 1 1
          1 1 1 1 1 1
          1 1 1 1 1 1
          1 1 1 1 1 1
          1 1 1 1 1 1
          1 1 1 1 1 1
          1 1 1 1 1 1
          1 1 1 1 1 1
          1 1 1 1 1 1
          1 1 1 1 1 1
          1 1 1 1 1 1
          1 1 1 1 1 1
          1 1 1 1 1 1
          1 1 1 1 1 1
          1 1 1 1 1 1
          1 1 1 1 1 1
          1 1 1 1 1 1
          1 1 1 1 1 1
          1 1 1 1 1 1
          1 1 1 1 1 1
          1 1 1 1 1 1
          1 1 1 1 1 1
          1 1 1 1 1 1
          1 1 1 1 1 1
          1 1 1 1 1 1
          1 1 1 1 1 1
          1 1 1 1 1 1
          1 1 1 1 1 1
          1 1 1 1 1 1
          1 1 1 1 1 1
          1 1 1 1 1 1
          1 1 0.75 1 0.5 0.75
          1 0.75 1 1 1 1
          1 1 1 1 1 1
          1 1 1 1 1 1
          1 1 1 1 1 1
          1 1 1 1 1 1
          1 1 1 1 1 1
          1 1 1 1 1 1
          1 1 1 1 1 1
          1 1 1 1 1 1
          1 1 1 1 1 1
          1 1 1 1 1 1
          1 1 1 1 1 1
          1 1 1 1 1 1
          1 1 1 1 1 1
          1 1 1 1 1 1
          1 1 1 1 1 1
          1 1 1 1 1 1
          1 1 1 1 1 1
          1 1 1 1 1 1
          1 1 1 1 1 1
          1 1 1 1 1 1
          1 1
        </DataArray>
        <DataArray type="Float64" Name="gradient_matprop_marker" format="ascii" RangeMin="0" RangeMax="0">
          0 0 0 0 0 0
          0 0 0 0 0 0
          0 0 0 0 0 0
          0 0 0 0 0 0
          0 0 0 0 0 0
          0 0 0 0 0 0
          0 0 0 0 0 0
          0 0 0 0 0 0
          0 0 0 0 0 0
          0 0 0 0 0 0
          0 0 0 0 0 0
          0 0 0 0 0 0
          0 0 0 0 0 0
          0 0 0 0 0 0
          0 0 0 0 0 0
          0 0 0 0 0 0
          0 0 0 0 0 0
          0 0 0 0 0 0
          0 0 0 0 0 0
          0 0 0 0 0 0
          0 0 0 0 0 0
          0 0 0 0 0 0
          0 0 0 0 0 0
          0 0 0 0 0 0
          0 0 0 0 0 0
          0 0 0 0 0 0
          0 0 0 0 0 0
          0 0 0 0 0 0
          0 0 0 0 0 0
          0 0 0 0 0 0
          0 0 0 0 0 0
          0 0 0 0 0 0
          0 0 0 0 0 0
          0 0 0 0 0 0
          0 0 0 0 0 0
          0 0 0 0 0 0
          0 0 0 0 0 0
          0 0 0 0 0 0
          0 0 0 0 0 0
          0 0 0 0 0 0
          0 0 0 0 0 0
          0 0 0 0 0 0
          0 0 0 0 0 0
          0 0 0 0 0 0
          0 0 0 0 0 0
          0 0 0 0 0 0
          0 0 0 0 0 0
          0 0 0 0 0 0
          0 0 0 0 0 0
          0 0 0 0 0 0
          0 0 0 0 0 0
          0 0 0 0 0 0
          0 0 0 0 0 0
          0 0 0 0 0 0
          0 0 0 0 0 0
          0 0 0 0 0 0
          0 0 0 0 0 0
          0 0 0 0 0 0
          0 0 0 0 0 0
          0 0 0 0 0 0
          0 0 0 0 0 0
          0 0 0 0 0 0
          0 0
        </DataArray>
        <DataArray type="Float64" Name="combo" format="ascii" RangeMin="0.5" RangeMax="1.5">
          1 1 1 1 1 1
          1 1 1 1 1 1
          1 1 1 1 1 1
          1 1 1 1 1 1
          1 1 1 1 1 1
          1 1 1 1 1 1
          1 1 1 1 1 1
          1 1 1 1 1 1
          1 1 1 1 1 1
          1 1 1 1 1 1
          1 1 1 1 1 1
          1 1 1 1 1 1
          1 1 1 1 1 1
          1 1 1 1 1 1
          1 1 1 1 1 1
          1 1 1 1 1 1
          1 1 1 1 1 1
          1 1 1 1 1 1
          1 1 1 1 1 1
          1 1 1 1 1 1
          1 1 1 1 1 1
          1 1 1 1 1 1
          1 1 1 1 1 1
          1 1 1 1 1 1
          1 1 1 1 1 1
          1 1 1 1 1 1
          1 1 1 1 1 1
          1 1 1 1 1 1
          1 1 1 1 1 1
          1 1 1 1 1 1
          1 1.25 1.125 1 1 1
          1 1.5 1.25 1 1 1
          1 1 1 1 1 1
          1 1 1 1 1 1
          1 1 1 1 1 1
          1 1 1 1 1 1
          1 1 1 1 1 1
          1 1 1 1 1 1
          1 1 1 1 1 1
          1 1 1 1 1 1
          1 1 0.75 1 0.5 0.75
          1 0.75 1 1 1 1
          1 1 1 1 1 1
          1 1 1 1 1 1
          1 1 1 1 1 1
          1 1 1 1 1 1
          1 1 1 1 1 1
          1 1 1 1 1 1
          1 1 1 1 1 1
          1 1 1 1 1 1
          1 1 1 1 1 1
          1 1 1 1 1 1
          1 1 1 1 1 1
          1 1 1 1 1 1
          1 1 1 1 1 1
          1 1 1 1 1 1
          1 1 1 1 1 1
          1 1 1 1 1 1
          1 1 1 1 1 1
          1 1 1 1 1 1
          1 1 1 1 1 1
          1 1 1 1 1 1
          1 1
        </DataArray>
        <DataArray type="Float64" Name="dHdT" format="ascii" RangeMin="25.820444536760114" RangeMax="46.932160649095785">
          26.111676703801834 26.013734784378425 29.690138498134058 27.521592776118226 37.60508214751903 32.06417183847266
          25.84757712934549 25.869100533394267 26.08241695149598 26.850447126459244 26.711338889218588 26.409531950360613
          28.894741580476342 25.95617495571999 25.94189888161307 26.32128641005331 26.251042360357285 25.909019471047138
          26.09982527202741 27.671755946453935 27.31950204469129 26.66087854466469 36.29209222531462 34.727248244962304
          30.057625989437117 37.12451576290803 32.060345652224285 30.371274679354023 35.96647513296682 33.2029931107963
          25.95757617335809 25.94899140476778 25.885999273559232 25.951741567192055 25.941198241251858 25.852385759492137
          25.850060882423048 25.881406613336555 25.876217016882272 26.36705940652667 26.351580564267913 26.589248938754537
          26.56574653984625 26.19929939639443 26.37360930112746 26.356396573783837 26.30929817882152 26.50054386750446
          26.30854125253607 27.234183594074814 27.183802312357436 26.813439806998737 27.04534426226896 26.247434188443126
          26.406197120272562 26.12304095472319 26.23929186279837 26.175937507599357 26.299471742399575 26.161253210515902
          26.850605181658263 26.567337097137354 26.637048244083175 28.50216461152121 28.38320064369646 27.773861949165656
          27.689410454817533 28.066576171581342 27.461612953370032 31.253008974021906 30.943703957038352 29.465911768245466
          30.121670296830814 27.644104836869683 27.153558328826957 27.20779124906774 26.83262406977071 29.091161065447253
          28.188590929894737 28.148009642499414 26.090653903975063 26.082692175895122 26.20728378477015 26.194950322713353
          25.996440596958823 26.082496394165023 26.073869599050663 26.060733730918106 26.160703693582548 26.05005839403908
          26.550284963709753 26.52361259790404 26.30255282060667 26.449988474588466 25.93834703493634 25.93470470603932
          25.99161262766867 25.985829934772564 25.924730044899192 25.969933076913314 26.152043640366927 26.139306309726614
          26.104487020565085 26.028645787802514 26.111310398798707 25.959640310000534 26.01597086805079 25.992263897890112
          26.05589477585268 25.97798486340326 26.346286947656186 26.17866654102292 26.23297034398042 25.91026881085905
          25.947287559318557 25.89395174434386 25.922186745884662 26.055753362832935 26.0028916354897 27.21190878365103
          27.1522861579891 26.78430586996335 26.742780631588406 26.990019451999007 26.629551203346203 28.513642254763983
          28.368484716207185 27.57510403011749 27.988970617638046 26.466346858850606 26.43793143823195 26.360990155582673
          27.06319857907064 26.998323979675984 26.827393054062078 26.76914237910356 26.47482260936198 26.53801378920564
          26.312878210881316 27.504366997837113 26.987697031725737 27.033983431480827 26.256122969098453 26.146377158792735
          26.60428427164809 26.38270072761478 26.022280885645337 26.087635114154512 26.053448874242033 25.9585365247509
          26.00408000424115 25.912057287296115 25.942791459571612 25.94309981530558 25.980200727865792 25.92668094429643
          26.127491162983954 26.027035774669038 25.878948283988496 25.899079336981686 25.872132988351304 25.88854138888099
          25.954532729612225 26.33142842290218 34.87595562298228 34.52165468284788 33.135639865853804 32.72910680441822
          33.410697328983076 31.57273332015466 38.22228802026732 37.708640074157294 35.95145013369542 36.42228692749679
          31.59898811270562 30.00902406263635 29.666180792431042 28.591118217259968 34.416151784617455 32.503192071770094
          31.67772010144855 43.39172144291724 41.62814903309217 37.45735491285182 37.328863850288606 38.45647882558748
          36.63691741707421 46.932160649095785 44.17362854759144 37.5466525523427 39.38069123529808 36.153839255489345
          34.583956027261294 33.38585561001439 31.471345009338613 36.64298839878534 35.33037941071838 34.01710530416386
          31.120846937006217 30.76153032708439 29.34345448529121 29.110234791015255 29.836943337018315 28.522773603238576
          34.59424956420256 34.069115464528615 31.580505588395123 32.565307214543864 28.12792143167919 27.98408093659095
          27.615287955491763 29.77558485152561 29.48107900382792 28.753345371466548 28.73564103303741 27.81685635882104
          27.78379067198943 30.54168659999312 28.98192126340348 28.769903906504126 36.97406316423538 36.55467040466465
          34.827330047924846 34.144899165932245 35.00243138483603 32.33164474511921 37.6211978699979 37.32175669172818
          35.23080289997575 35.91092939041297 31.59420711498554 31.10435191564516 29.930897912382473 32.4401748895053
          31.852265157980895 30.459037263653848 32.3383478220202 30.17336813109236 29.729465070942872 33.095556387144384
          30.705825952347517 30.14834935416038 25.864553872923008 25.842799810594457 25.887724520963992 25.98201025207249
          25.858681241946133 25.950555185606625 25.820444536760114 25.822531216234996 25.827969395744233 25.825425949985522
          26.050696580450534 26.27591688359866 26.075449096205194 26.05596081714504 26.243143013458873 25.927369597556996
          26.007649281806295 26.16042474333426 25.915512249294434 26.38088913312607 26.327013400253577 26.200048986435988
          25.830976453710566 25.844473241134157 25.842100401026798 25.8444180863513 25.863748490994737 25.836470448090065
          25.875497701637663 25.86927304684658 25.855004659569776 25.850805035452805 25.888353265796205 25.881107676128828
          25.95350804115717 25.830865681526824 25.843608759962997 26.54775002799968 26.862289169694066 26.831210373154153
          26.744832057924867 27.715997374394078 27.64891554372502 27.46466488947626 26.408166483557025 26.61958657026605
          26.477283584261507 27.206665279511604 26.924451126428632 29.44471419552602 29.277216541016845 28.837011149358247