<?xml version="1.0"?>
<VTKFile type="UnstructuredGrid" version="0.1" byte_order="LittleEndian" header_type="UInt32" compressor="vtkZLibDataCompressor">
  <UnstructuredGrid>
    <Piece NumberOfPoints="388" NumberOfCells="203">
      <PointData>
        <DataArray type="Int32" Name="libmesh_node_id" format="ascii" RangeMin="353" RangeMax="2426">
          353 406 598 631 632 633
          634 635 636 637 641 1067
          1068 1073 1091 1092 1093 1094
          1095 1097 1098 1099 1100 1101
          1102 1103 1104 1105 1106 1107
          1108 1109 1110 1111 1112 1113
          1114 1115 1116 1119 1120 1124
          1127 1128 1129 1130 1137 1138
          1139 1140 1141 1143 1144 1145
          1146 1147 1148 1149 1150 1153
          1154 1157 1161 1171 1172 1173
          1174 1178 1179 1181 1182 1184
          1567 1568 1570 1571 1573 1574
          1579 1581 1587 1588 1593 1700
          1701 1702 1708 1782 1783 1784
          1785 1787 1788 1789 1790 1800
          1802 1804 1816 1817 1818 1819
          1821 1822 1823 1824 1834 1836
          1838 1840 1841 1842 1843 1844
          1845 1846 1847 1848 1849 1850
          1854 1855 1856 1857 1858 1859
          1860 1861 1862 1863 1864 1865
          1866 1867 1868 1869 1870 1871
          1872 1873 1874 1875 1876 1877
          1878 1879 1880 1881 1882 1883
          1884 1885 1886 1887 1888 1889
          1890 1891 1892 1893 1894 1895
          1896 1897 1898 1899 1900 1901
          1902 1903 1904 1905 1906 1907
          1909 1910 1911 1912 1913 1914
          1915 1916 1917 1918 1919 1920
          1921 1922 1923 1924 1925 1926
          1927 1928 1929 1930 1933 1934
          1954 1955 1956 1957 1958 1959
          1960 1961 1962 1963 1964 1965
          1966 1967 1968 1969 1970 1971
          1972 1973 1974 1975 1976 1977
          1978 1979 1980 1988 1989 1990
          1991 1992 1993 1994 1995 1996
          1997 1998 1999 2000 2001 2002
          2003 2004 2005 2006 2007 2008
          2009 2010 2011 2012 2013 2014
          2022 2023 2024 2025 2026 2027
          2028 2029 2030 2031 2032 2033
          2034 2035 2036 2037 2038 2039
          2040 2041 2042 2043 2046 2047
          2049 2050 2052 2053 2054 2056
          2057 2058 2059 2060 2061 2062
          2063 2064 2065 2130 2131 2132
          2133 2134 2135 2136 2137 2138
          2139 2140 2141 2142 2143 2158
          2159 2160 2161 2162 2163 2164
          2165 2166 2167 2178 2179 2180
          2181 2182 2183 2184 2185 2186
          2187 2198 2199 2200 2201 2202
          2203 2204 2402 2403 2404 2405
          2406 2407 2408 2409 2411 2422
          2423 2424 2425 2426 1023 1026
          1027 1024 1031 1033 1032 1030
          599 1053 1070 1083 605 1087
          1698 1774 1775 1703 1786 1777
          1065 1780 1791 1066 1707 1799
          1709 1801 1803 1805 1808 1809
          1820 1811 1071 1814 1825 1072
          1833 1835 1837 1839
        </DataArray>
        <DataArray type="Float64" Name="bounds" format="ascii" RangeMin="0" RangeMax="0">
          0 0 0 0 0 0
          0 0 0 0 0 0
          0 0 0 0 0 0
          0 0 0 0 0 0
          0 0 0 0 0 0
          0 0 0 0 0 0
          0 0 0 0 0 0
          0 0 0 0 0 0
          0 0 0 0 0 0
          0 0 0 0 0 0
          0 0 0 0 0 0
          0 0 0 0 0 0
          0 0 0 0 0 0
          0 0 0 0 0 0
          0 0 0 0 0 0
          0 0 0 0 0 0
          0 0 0 0 0 0
          0 0 0 0 0 0
          0 0 0 0 0 0
          0 0 0 0 0 0
          0 0 0 0 0 0
          0 0 0 0 0 0
          0 0 0 0 0 0
          0 0 0 0 0 0
          0 0 0 0 0 0
          0 0 0 0 0 0
          0 0 0 0 0 0
          0 0 0 0 0 0
          0 0 0 0 0 0
          0 0 0 0 0 0
          0 0 0 0 0 0
          0 0 0 0 0 0
          0 0 0 0 0 0
          0 0 0 0 0 0
          0 0 0 0 0 0
          0 0 0 0 0 0
          0 0 0 0 0 0
          0 0 0 0 0 0
          0 0 0 0 0 0
          0 0 0 0 0 0
          0 0 0 0 0 0
          0 0 0 0 0 0
          0 0 0 0 0 0
          0 0 0 0 0 0
          0 0 0 0 0 0
          0 0 0 0 0 0
          0 0 0 0 0 0
          0 0 0 0 0 0
          0 0 0 0 0 0
          0 0 0 0 0 0
          0 0 0 0 0 0
          0 0 0 0 0 0
          0 0 0 0 0 0
          0 0 0 0 0 0
          0 0 0 0 0 0
          0 0 0 0 0 0
          0 0 0 0 0 0
          0 0 0 0 0 0
          0 0 0 0 0 0
          0 0 0 0 0 0
          0 0 0 0 0 0
          0 0 0 0 0 0
          0 0 0 0 0 0
          0 0 0 0 0 0
          0 0 0 0
        </DataArray>
        <DataArray type="Float64" Name="gradient_error" format="ascii" RangeMin="1.2586400418190863e-9" RangeMax="1.1988279094746233e-7">
          9.157165686164232e-9 6.354948591769038e-9 7.46344379010116e-8 6.331983887873666e-8 5.010086213247203e-8 7.339646648145841e-8
          7.464891587267321e-8 4.575161891106094e-9 1.7293478247701095e-8 9.62786020889475e-9 1.0837602531869679e-8 1.7069726113959328e-8
          1.8675759085043194e-8 1.536732083655113e-8 9.324359843620046e-8 8.600469202562571e-8 3.603607415922234e-8 8.51714527342499e-8
          7.783371138381304e-8 6.693971081457794e-8 5.918883530023403e-8 7.66737791129432e-8 7.039274727629811e-8 6.643010360407742e-8
          8.070636053087154e-8 1.9684176929271167e-8 1.8227924815188927e-8 4.429169569316812e-8 4.019357862938399e-8 5.852050978754791e-9
          6.455405327759901e-9 5.732950527694266e-9 1.4582790192659439e-8 3.01015937039983e-8 4.037675823653172e-9 4.4856767952380583e-8
          3.991789925155355e-8 1.4876141460059019e-8 4.0867389739992004e-8 2.0046306528161814e-8 3.7929681513466096e-8 7.640591798156874e-8
          1.1327644105917448e-8 2.018024027860538e-8 5.095010668741122e-9 4.215853332140027e-9 2.0881162902424745e-8 2.226793537868947e-8
          2.42175085340016e-8 2.5336700120341806e-8 8.19554879868392e-8 9.955495791101229e-9 1.8541148527945145e-8 2.0757758566276007e-8
          9.031661552206187e-8 2.5928787486039604e-8 2.6878746897035543e-8 2.57688322406837e-8 2.572747284342165e-8 1.3578131411845021e-8
          2.188156680414185e-8 1.0754445244149356e-7 1.1988279094746233e-7 3.708062044895831e-9 3.3890431742026338e-9 4.2477881862086994e-9
          3.7215618901708563e-9 2.598925734882901e-9 2.5191904189744868e-9 1.2727327916244824e-8 1.082095572515567e-8 6.759166132997273e-9
          1.1001474622332091e-8 1.020771306358397e-8 6.714513807940305e-9 6.238160969131613e-9 8.372822999041203e-9 5.005924211394288e-9
          6.038236693274777e-9 3.472498588557899e-9 3.830518083015437e-9 3.541560792129902e-9 2.8072498586298092e-9 2.108874233534813e-8
          2.0790870709404945e-8 2.2385666200087273e-8 1.9357594715571644e-8 1.858969560656092e-8 1.875179025887939e-8 2.034044584503701e-8
          2.0432997435688897e-8 2.060464202085484e-8 1.5155004379373954e-8 1.5651655783603652e-8 1.7545638879427015e-8 2.0128020529968798e-8
          1.9572306044568703e-8 2.018356305995931e-8 1.137857033963207e-8 1.2528750111048272e-8 1.2680439123148159e-8 1.4075551921958109e-8
          1.6411572824877203e-8 8.537780798289943e-9 1.0466898463243074e-8 1.154015475635271e-8 1.8949546308820704e-8 2.0546611688655058e-8
          1.8430412842088742e-8 2.4279478969393327e-8 2.3841311130725283e-8 2.5034808519219948e-8 2.249893500084615e-8 2.6415616983299905e-8
          2.5768445244456494e-8 2.5876269468845484e-8 2.3828909974634717e-8 2.0168514580560016e-8 2.068718340225333e-8 1.8742302451484972e-8
          4.377842662878864e-9 5.175577573969323e-9 5.043732077082363e-9 4.729444051241263e-9 8.538503319510057e-9 3.785288873910288e-9
          3.6902231537507457e-9 4.70800518457594e-9 4.5865218087935236e-9 2.6585507076440644e-9 3.787900096472993e-9 3.685952241812063e-9
          3.4355936234456904e-9 4.269647924583426e-9 3.394695875192415e-9 7.957355960736976e-9 7.70434072217362e-9 6.267360171861309e-9
          7.0736173680339334e-9 3.628931719027173e-9 4.2312217865029125e-9 3.6016105876317446e-9 6.838580578928933e-9 3.0470977642336182e-9
          3.7850864220641395e-9 2.1679905732703106e-9 2.9649612872635838e-9 2.57177759211054e-9 3.191329526453673e-9 2.4588661134894077e-9
          6.149234034692332e-9 4.948494505627547e-9 5.058355852523151e-9 1.344743473987803e-8 1.2915962868257931e-8 1.1790014307248868e-8
          2.6230670691847627e-8 2.5427750125837816e-8 2.1036854478636046e-8 2.2995586649506125e-8 1.2463504073985495e-8 1.2013058390687427e-8
          1.0671918751452653e-8 1.0319973032268523e-8 1.0926908954142586e-8 9.335193353069007e-9 1.9051378124400024e-8 1.8343706338314463e-8
          1.665670651162718e-8 1.6486756292136726e-8 1.0191240016432784e-8 8.239729654797795e-9 1.953709439972311e-8 1.6013373351029074e-8
          9.388734864087008e-9 7.935037068854648e-9 7.591117324918589e-9 6.366223757518474e-9 1.3877211337514615e-8 1.2349067653795579e-8
          1.1017549365119921e-8 2.476496750499487e-9 2.9101087135886605e-9 2.5324383026325357e-9 4.489431488435694e-9 2.090851244592799e-9
          2.555015333682644e-9 1.4841407449150644e-9 1.92950169318994e-9 1.856313020131578e-9 2.2232870424304747e-9 1.6658063706945333e-9
          3.98449936655801e-9 3.1079215269004415e-9 3.31086993501243e-9 6.532358816031448e-9 5.929423090502065e-9 4.836812513191484e-9
          2.2067763009189616e-8 2.210063069520871e-8 2.367603531676348e-8 2.36578685438093e-8 2.2060574293511446e-8 2.337019361616543e-8
          1.900541846452289e-8 1.947129125940114e-8 2.1348929342292144e-8 2.048901371608395e-8 2.5109561823649372e-8 2.5023415381834996e-8
          2.6195082316283794e-8 2.6016273452180413e-8 2.4447261600381758e-8 2.5130838426531947e-8 2.2652557566388928e-8 2.309728350258951e-8
          2.4592779270268142e-8 2.3937557456322894e-8 2.1220993174641177e-8 2.20750939356712e-8 2.0454336143487272e-8 2.104950240986667e-8
          2.170838965586681e-8 2.3141017906230267e-8 2.237591593384511e-8 1.3926445260389497e-8 1.5566326995197955e-8 1.496849991953943e-8
          1.6892038068548694e-8 1.8194089523430726e-8 1.9861707309188584e-8 9.698100640719118e-9 1.2550021731285778e-8 1.3367146020911765e-8
          1.7032365200870294e-8 1.5790801139642565e-8 1.798134661130442e-8 1.674197947466529e-8 1.899899224061549e-8 2.1305507433458242e-8
          2.2436475094211073e-8 1.0079993810506125e-8 1.4046511736643322e-8 1.4968703376210042e-8 1.98015131803995e-8 2.0664882032597397e-8
          2.233312486552452e-8 2.2147793748339756e-8 2.375841133022984e-8 2.018645652218351e-8 2.1847218387677577e-8 2.1710125464478865e-8
          2.6720427103036844e-8 2.6472325886438563e-8 2.6736740919098646e-8 2.6375333659557557e-8 2.52716272869226e-8 2.4784703339761013e-8
          2.5325456268997378e-8 2.5664378369306976e-8 2.630687711927917e-8 2.633953594933474e-8 2.6176341188095837e-8 2.5616433063879723e-8
          2.4724701331645896e-8 2.4011460627412445e-8 2.361186689638497e-8 2.1758660492339956e-8 2.61244083438115e-8 2.64963824221765e-8
          2.6013324951903336e-8 2.6732087514785937e-8 2.219128531334285e-8 2.1253327861552528e-8 2.565233585859674e-8 2.544475697475266e-8
          1.9919262977018152e-8 1.8079229152026052e-8 1.3782993296415015e-8 2.4616590060359296e-8 2.3037774340325406e-8 1.7837966194083753e-8
          1.993208212790974e-8 1.8587779982178936e-8 2.0504469390607685e-8 2.3270233802009064e-8 2.3913819296716995e-8 1.2235203364398807e-8
          1.6052309164244843e-8 1.6822840438208882e-8 2.1409063629687728e-8 2.115489352933395e-9 2.059031433659619e-9 2.9825544240928653e-9
          2.8979360883950684e-9 1.575003167702777e-9 2.3214861726879206e-9 2.252828095457364e-9 1.897069569910231e-9 2.658112788712695e-9
          2.0586095246331384e-9 5.293078482658523e-9 5.1286847495939614e-9 4.109209526302242e-9 4.667195657723062e-9 1.6584634732321388e-9
          2.305009223074397e-9 1.2586400418190863e-9 1.7743912630257913e-9 1.3794745470338288e-9 1.893254969208613e-9 1.4457640596272704e-9
          3.9934353547848324e-9 3.159605155390767e-9 3.2183822892807944e-9 9.071691169914843e-9 8.759918478906445e-9 7.515025913101417e-9
          7.246839140827706e-9 7.895384935719704e-9 6.499615729681157e-9 1.5090568430021955e-8 1.4503755761755593e-8 1.2218001997710438e-8
          1.288214184657729e-8 6.653894209043128e-9 5.427377663575772e-9 5.256133129144262e-9 4.231717047075261e-9 1.0616071103508397e-8
          8.871163380082424e-9 8.179660764751351e-9 2.24115023220679e-8 2.1648803696568454e-8 1.9512241903947543e-8 1.876445801988905e-8
          1.9358785431192606e-8 1.6602202159726184e-8 2.4773900366207904e-8 2.4796874265788675e-8 2.3915981087395077e-8 1.584404382935514e-8
          1.3443714021990379e-8 1.1926147267914673e-8 1.0025891288584798e-8 2.0745646468424902e-8 9.38206689548997e-8 9.587365288934601e-8
          8.93148635126096e-8 8.821044136329893e-8 6.919232719456847e-8 6.950237583559577e-8 6.519902672870638e-8 7.142351953212021e-8
          8.16541700000512e-8 7.963674375470847e-8 7.814527965718237e-8 1.0741660899781807e-7 8.440184412888228e-8 1.179827314813014e-7
          1.9127815846708436e-8 1.6939838038206797e-8 1.7164963433955195e-8 1.994088134084415e-8 1.91038088115226e-8 1.7654056154115023e-8
          1.3368717803469038e-8 1.3891841632592232e-8 1.692047122451942e-8 1.532731760640788e-8 1.833827345872802e-8 1.8892620193909592e-8
          1.7287783319229502e-8 1.849150767597183e-8 1.8662327632867185e-8 1.9632020004528877e-8 1.002871094740065e-8 1.0967013992651714e-8
          1.460499550979794e-8 1.2857502782122002e-8 7.817571415703488e-9 9.352455741320919e-9 1.36357848527581e-8 1.1913045034578036e-8
          1.7279124968418385e-8 1.9027188799705358e-8 1.6680561600193555e-8 1.848556962306712e-8
        </DataArray>
        <DataArray type="Float64" Name="gradient_matprop_error" format="ascii" RangeMin="0" RangeMax="0">
          0 0 0 0 0 0
          0 0 0 0 0 0
          0 0 0 0 0 0
          0 0 0 0 0 0
          0 0 0 0 0 0
          0 0 0 0 0 0
          0 0 0 0 0 0
          0 0 0 0 0 0
          0 0 0 0 0 0
          0 0 0 0 0 0
          0 0 0 0 0 0
          0 0 0 0 0 0
          0 0 0 0 0 0
          0 0 0 0 0 0
          0 0 0 0 0 0
          0 0 0 0 0 0
          0 0 0 0 0 0
          0 0 0 0 0 0
          0 0 0 0 0 0
          0 0 0 0 0 0
          0 0 0 0 0 0
          0 0 0 0 0 0
          0 0 0 0 0 0
          0 0 0 0 0 0
          0 0 0 0 0 0
          0 0 0 0 0 0
          0 0 0 0 0 0
          0 0 0 0 0 0
          0 0 0 0 0 0
          0 0 0 0 0 0
          0 0 0 0 0 0
          0 0 0 0 0 0
          0 0 0 0 0 0
          0 0 0 0 0 0
          0 0 0 0 0 0
          0 0 0 0 0 0
          0 0 0 0 0 0
          0 0 0 0 0 0
          0 0 0 0 0 0
          0 0 0 0 0 0
          0 0 0 0 0 0
          0 0 0 0 0 0
          0 0 0 0 0 0
          0 0 0 0 0 0
          0 0 0 0 0 0
          0 0 0 0 0 0
          0 0 0 0 0 0
          0 0 0 0 0 0
          0 0 0 0 0 0
          0 0 0 0 0 0
          0 0 0 0 0 0
          0 0 0 0 0 0
          0 0 0 0 0 0
          0 0 0 0 0 0
          0 0 0 0 0 0
          0 0 0 0 0 0
          0 0 0 0 0 0
          0 0 0 0 0 0
          0 0 0 0 0 0
          0 0 0 0 0 0
          0 0 0 0 0 0
          0 0 0 0 0 0
          0 0 0 0 0 0
          0 0 0 0 0 0
          0 0 0 0
        </DataArray>
        <DataArray type="Float64" Name="initial_marker" format="ascii" RangeMin="0" RangeMax="2">
          2 1 2 1 1 2
          2 0.5 2 2 2 2
          2 2 2 2 1.3333333333333333 2
          2 2 2 2 2 2
          2 1 1 2 2 1
          2 2 0.75 2 2 2
          2 2 2 0.6666666666666666 1.5 2
          0.25 1.5 0 1.5 2 2
          2 2 2 2 2 2
          2 2 2 2 2 2
          2 2 2 1 1 2
          2 0.5 2 2 2 2
          0 0 0 0 0 0
          0 0 0 0 0 2
          2 2 2 2 2 2
          2 2 2 2 2 2
          2 2 2 2 2 2
          2 2 2 2 2 2
          2 2 2 2 2 2
          2 2 2 2 2 2
          2 2 2 2 2 2
          2 2 2 2 2 2
          2 2 2 2 2 2
          2 2 2 1.5 2 2
          2 2 2 1 1.5 1.5
          2 2 2 2 2 2
          2 2 2 2 2 2
          2 2 2 2 2 2
          2 2 2 2 2 2
          2 2 2 2 2 2
          2 0 1 1 2 0
          1 0 1 0 1 1
          2 2 2 2 2 2
          2 2 2 2 2 2
          2 2 2 2 2 2
          2 2 2 2 2 2
          2 2 2 2 2 2
          2 2 2 2 2 2
          2 2 2 2 2 2
          2 2 2 2 2 2
          2 2 2 2 2 2
          2 2 2 2 2 2
          2 2 2 2 2 2
          2 2 2 2 2 2
          2 2 2 2 2 2
          2 2 2 2 2 2
          2 2 2 2 2 2
          2 2 2 2 2 2
          2 2 2 2 2 2
          2 2 2 2 2 2
          2 2 2 2 2 2
          2 2 2 1 1.5 1.5
          2 2 2 2 2 2
          2 2 2 2 2 2
          2 2 2 2 2 2
          2 2 2 2 2 2
          2 2 2 2 2 2
          2 2 2 2 2 2
          2 2 2 2 2 2
          2 2 2 2 2 2
          2 2 2 2 2 2
          2 2 2 2 2 2
          2 2 2 2 2 2
          2 2 2 2 2 2
          2 2 2 2
        </DataArray>
        <DataArray type="Float64" Name="markers_norefine" format="ascii" RangeMin="0" RangeMax="2">
          2 0 1 0 0 0
          0 0 0 0 2 2
          2 2 0 0 0 0
          0 0 0 0 0 0
          0 0 0 0 0 0
          0 0 0 0 0 0
          0 0 0 0 0 0
          0 0 0 0 2 2
          2 2 0.5 2 2 2
          1 2 1.5 1.5 0.75 2
          2 0 0 0 0 0
          0 0 0 0 0 0
          0 0 0 0 0 0
          0 0 0 0 0 1
          0.5 1 0 1.5 1.25 2
          1.5 1 2 2 2 0.5
          0 1.5 2 2 2 2
          2 2 2 2 2 2
          2 1 0.5 0 0 0
          0 0 0 0 0 0
          0 0 0 0 0 0
          0 0 0 0 0 0
          0 0 0 0 0 0
          0 0 0 0 0 0
          0 0 0 0 0 0
          0 0 0 0 0 0
          0 0 0 0 0 0
          0 0 0 0 0 0
          0 0 0 0 0 0
          0 0 0 0 0 0
          0 0 0 0 0 0
          0 0 0 0 0 0
          0 0 0 0 0 0
          1.5 1.25 1 1 1 1
          2 2 2 2 1 1
          1 1 1 1 2 2
          2 2 0.5 0.5 0 0
          1.5 1.5 1 2 2 2
          2 2 2 2 2 2
          2 2 2 2 2 2
          2 2 2 2 2 2
          2 2 2 2 2 2
          1 1 1 1 0.75 0.5
          2 2 2 1.75 1 0.75
          0.5 0.25 0.25 0 2 1.75
          1.25 1.25 0.25 0 0.75 0.5
          0 0 0 0.5 0.25 2
          2 2 2 2 2 2
          2 2 2 0 0 0
          0 0 0 0 0 0
          0 0 0 0 0 0
          0 0 0 0 0 0
          0 0 0 0 0 0
          0 0 0 0 0 0
          0 0 0 0 0 0
          0 0 0 0 0 0
          0 0 1 0.75 0.25 0
          0 0 0 0 0 0
          0 0 0 0 0 0
          0 0 0.5 0 1 0
          0 1 1 0 1 1
          2 2 2 2 0 0.5
          0 0 1.5 1 2 2
          2 2 2 2 2 2
          2 2 2 2
        </DataArray>
        <DataArray type="Float64" Name="markers_mustrefine" format="ascii" RangeMin="0" RangeMax="2">
          2 1 2 1 1 2
          2 0.5 2 2 2 2
          2 2 2 2 1.3333333333333333 2
          2 2 2 2 2 2
          2 1 1 2 2 1
          2 2 0.75 2 2 2
          2 2 2 0.6666666666666666 1.5 2
          0.25 1.5 0 1.5 2 2
          2 2 2 2 2 2
          2 2 2 2 2 2
          2 2 2 1 1 2
          2 0.5 2 2 2 2
          0 0 0 0 0 0
          0 0 0 0 0 2
          2 2 2 2 2 2
          2 2 2 2 2 2
          2 2 2 2 2 2
          2 2 2 2 2 2
          2 2 2 2 2 2
          2 2 2 2 2 2
          2 2 2 2 2 2
          2 2 2 2 2 2
          2 2 2 2 2 2
          2 2 2 1.5 2 2
          2 2 2 1 1.5 1.5
          2 2 2 2 2 2
          2 2 2 2 2 2
          2 2 2 2 2 2
          2 2 2 2 2 2
          2 2 2 2 2 2
          2 0 1 1 2 0
          1 0 1 0 1 1
          2 2 2 2 2 2
          2 2 2 2 2 2
          2 2 2 2 2 2
          2 2 2 2 2 2
          2 2 2 2 2 2
          2 2 2 2 2 2
          2 2 2 2 2 2
          2 2 2 2 2 2
          2 2 2 2 2 2
          2 2 2 2 2 2
          2 2 2 2 2 2
          2 2 2 2 2 2
          2 2 2 2 2 2
          2 2 2 2 2 2
          2 2 2 2 2 2
          2 2 2 2 2 2
          2 2 2 2 2 2
          2 2 2 2 2 2
          2 2 2 2 2 2
          2 2 2 1 1.5 1.5
          2 2 2 2 2 2
          2 2 2 2 2 2
          2 2 2 2 2 2
          2 2 2 2 2 2
          2 2 2 2 2 2
          2 2 2 2 2 2
          2 2 2 2 2 2
          2 2 2 2 2 2
          2 2 2 2 2 2
          2 2 2 2 2 2
          2 2 2 2 2 2
          2 2 2 2 2 2
          2 2 2 2
        </DataArray>
        <DataArray type="Float64" Name="gradient_marker" format="ascii" RangeMin="0" RangeMax="1">
          0 1 0.5 0.5 0.25 0.5
          0.75 1 1 1 0 0
          0 0 1 0.875 0.16666666666666666 0.75
          0.625 0.625 0.5 0.5 0.5 0.5
          0.75 0.5 0.5 0.75 0.75 1
          1 1 0.5 0.75 1 0.75
          0.75 1 0.875 0 0.25 0.75
          0.5 0.625 1 1 0 0
          0 0 0.5 0 0 0
          0.5 0.5 0.5 1 1 0.5
          0.5 1 1 1 1 1
          1 1 1 1 1 1
          0.5 0.5 1 1 0.5 1
          0.5 1 1 1 1 0
          0 0 0 0 0 0
          0 0 0 0 0 0
          0 0 0 0 0 0
          0 0 0 0 0 0
          0 0 0 0 0 0
          0 0 0 0 0 0
          1 1 1 1 1 1
          1 1 1 1 1 1
          1 1 1 1 1 1
          1 1 1 1 1 1
          1 1 1 1 1 1
          1 1 1 1 1 1
          0 0 0.6666666666666666 0 1 1
          1 1 1 1 1 1
          1 1 1 1 0 0.6666666666666666
          1 1 1 1 1 1
          1 1 1 1 1 1
          1 1 1 1 1 1
          1 1 1 1 1 1
          0 0 0 0 0 0
          0 0 0 0 0 0
          0 0 0 0 0 0
          0 0 0 0 0 0
          0 0 0 0 0 0
          0 0 0 0 0 0
          0 0 0 0 0 0
          0 0 0 0 0 0
          0 0 0 0 0 0
          0 0 0.5 0.5 0 0.5
          0 0 0.5 0 1 1
          1 1 1 1 1 1
          1 1 0 0.5 0 0.5
          1 1 1 1 1 0
          0 0.5 0.5 0 0.5 0
          0 0.5 0 1 1 1
          1 1 1 1 1 1
          1 1 1 1 1 1
          1 1 1 1 1 1
          1 1 1 1 1 1
          1 1 1 1 1 1
          1 1 1 1 1 1
          1 1 1 1 1 1
          1 1 1 1 1 1
          1 1 1 1 1 1
          1 1 0.5 0.5 0.5 0.75
          0.75 0.75 0.5 1 0.5 1
          0 0 0 0 0 0
          0 0 0 0 0 0
          0 0 0 0 0 0
          0 0 0 0 0 0
          0 0 0 0
        </DataArray>
        <DataArray type="Float64" Name="gradient_matprop_marker" format="ascii" RangeMin="0" RangeMax="0">
          0 0 0 0 0 0
          0 0 0 0 0 0
          0 0 0 0 0 0
          0 0 0 0 0 0
          0 0 0 0 0 0
          0 0 0 0 0 0
          0 0 0 0 0 0
          0 0 0 0 0 0
          0 0 0 0 0 0
          0 0 0 0 0 0
          0 0 0 0 0 0
          0 0 0 0 0 0
          0 0 0 0 0 0
          0 0 0 0 0 0
          0 0 0 0 0 0
          0 0 0 0 0 0
          0 0 0 0 0 0
          0 0 0 0 0 0
          0 0 0 0 0 0
          0 0 0 0 0 0
          0 0 0 0 0 0
          0 0 0 0 0 0
          0 0 0 0 0 0
          0 0 0 0 0 0
          0 0 0 0 0 0
          0 0 0 0 0 0
          0 0 0 0 0 0
          0 0 0 0 0 0
          0 0 0 0 0 0
          0 0 0 0 0 0
          0 0 0 0 0 0
          0 0 0 0 0 0
          0 0 0 0 0 0
          0 0 0 0 0 0
          0 0 0 0 0 0
          0 0 0 0 0 0
          0 0 0 0 0 0
          0 0 0 0 0 0
          0 0 0 0 0 0
          0 0 0 0 0 0
          0 0 0 0 0 0
          0 0 0 0 0 0
          0 0 0 0 0 0
          0 0 0 0 0 0
          0 0 0 0 0 0
          0 0 0 0 0 0
          0 0 0 0 0 0
          0 0 0 0 0 0
          0 0 0 0 0 0
          0 0 0 0 0 0
          0 0 0 0 0 0
          0 0 0 0 0 0
          0 0 0 0 0 0
          0 0 0 0 0 0
          0 0 0 0 0 0
          0 0 0 0 0 0
          0 0 0 0 0 0
          0 0 0 0 0 0
          0 0 0 0 0 0
          0 0 0 0 0 0
          0 0 0 0 0 0
          0 0 0 0 0 0
          0 0 0 0 0 0
          0 0 0 0 0 0
          0 0 0 0
        </DataArray>
        <DataArray type="Float64" Name="combo" format="ascii" RangeMin="0" RangeMax="2">
          2 1 1.5 0.5 0.25 0.5
          0.75 1 1 1 2 2
          2 2 1 0.875 0.16666666666666666 0.75
          0.625 0.625 0.5 0.5 0.5 0.5
          0.75 0.5 0.5 0.75 0.75 1
          1 1 0.5 0.75 1 0.75
          0.75 1 0.875 0 0.25 0.75
          0.5 0.625 1 1 2 2
          2 2 1 2 2 2
          1.5 2 1.625 1.75 1.375 2
          2 1 1 1 1 1
          1 1 1 1 1 1
          0.5 0.5 1 1 0.5 1
          0.5 1 1 1 1 1
          0.5 1 0 1.5 1.25 2
          1.5 1 2 2 2 0.5
          0 1.5 2 2 2 2
          2 2 2 2 2 2
          2 1 0.5 0 0 0
          0 0 0 0 0 0
          1 1 1 1 1 1
          1 1 1 1 1 1
          1 1 1 1 1 1
          1 1 1 1 1 1
          1 1 1 1 1 1
          1 1 1 1 1 1
          0 0 0.6666666666666666 0 1 1
          1 1 1 1 1 1
          1 1 1 1 0 0.6666666666666666
          1 1 1 1 1 1
          1 1 1 1 1 1
          1 1 1 1 1 1
          1 1 1 1 1 1
          1.5 1.25 1 1 1 1
          2 2 2 2 1 1
          1 1 1 1 2 2
          2 2 0.5 0.5 0 0
          1.5 1.5 1 2 2 2
          2 2 2 2 2 2
          2 2 2 2 2 2
          2 2 2 2 2 2
          2 2 2 2 2 2
          1 1 1.25 1.25 0.75 0.875
          2 2 2 1.75 1.5 1.375
          1.25 1.125 1.125 1 2 1.875
          1.625 1.625 0.25 0.5 0.75 0.875
          1 1 1 1.25 1.125 2
          2 2 2 2 2 2
          2 2 2 1 1 1
          1 1 1 1 1 1
          1 1 1 1 1 1
          1 1 1 1 1 1
          1 1 1 1 1 1
          1 1 1 1 1 1
          1 1 1 1 1 1
          1 1 1 1 1 1
          1 1 1.5 1.375 1.125 1
          1 1 1 1 1 1
          1 1 0.5 0.5 0.5 0.75
          0.75 0.75 1 1 1.5 1
          0 1 1 0 1 1
          2 2 2 2 0 0.5
          0 0 1.5 1 2 2
          2 2 2 2 2 2
          2 2 2 2
        </DataArray>
        <DataArray type="Float64" Name="dHdT" format="ascii" RangeMin="26.007649281806295" RangeMax="61.060526093313186">
          46.254579258940005 26.81358266923758 46.480998210864655 28.6893426955793 27.833548788334955 40.55098785743015
          34.470377791150995 26.50909887147212 35.57329095205039 31.206364240091798 46.27598305941075 53.61803169078517
          57.51159620937707 50.85812355758481 33.91294535135523 33.31744740657558 28.82094862516691 32.6384109981983
          32.17265917887081 31.822492179971675 30.777343844107133 44.435033639228074 39.859475273242076 37.851974914954496
          35.51564757954253 27.777419682323288 27.60489400208212 31.447475456938115 30.859348010234918 26.724439955075958
          29.083422472544548 28.65084518723998 27.191023126124467 29.460702191751995 27.739062292981526 38.313725101208846
          36.33600270839903 34.53764897149674 33.66741456282692 27.327645874028835 28.907784358082587 32.84864603841703
          26.731416187563315 27.922492555725754 26.30096575653416 26.877040577490106 52.74493609394203 55.6807856334878
          51.616691927054404 53.97366714052672 44.19354550352096 46.27406331373838 50.15982367467906 49.97944284178595
          49.54594072572857 53.1668313664798 51.86047512793709 52.39992732670283 45.61349428683678 46.24008699418917
          52.612794860218614 36.23510093630763 38.021919066520184 26.38088913312607 26.327013400253577 27.715997374394078
          27.46466488947626 26.200048986435988 26.924451126428632 32.892296948912985 31.62155204374374 28.94635393756659
          26.599601312489938 26.54513465517894 26.27591688359866 26.243143013458873 26.411166912126696 26.16042474333426
          26.248952362501697 26.06582224944968 26.075449096205194 26.05596081714504 26.007649281806295 55.52938338616681
          52.06212298501366 52.03768217059768 39.563462502703075 59.965836227230426 57.95422594298685 58.16338639327209
          56.73164086092243 52.57430069693672 55.20774155303517 55.89740336191885 54.33334354079693 45.788545688348606
          41.728385311396565 55.84847007893747 46.119064185362035 47.05484730681147 46.17117178945914 46.72588524268163
          53.04424026222223 46.224934332947775 46.1612167907453 46.21068295501657 58.6766325084769 58.54538318841344
          57.669953733073 54.13158786703923 51.15363461679894 49.60122478458402 44.89111368717077 49.108220624246634
          47.28992044730134 44.87523408050718 42.8273775317662 39.50489654270905 39.41821710120966 37.40324707763521
          27.75743279917381 28.50210478508307 28.428795937725056 28.229537817009973 30.59682138256475 27.55973440784826
          27.51768835101636 28.18795385539148 28.122576871837943 27.106862163430375 27.634017045553254 27.582629505241616
          27.399942970415875 27.94263666041924 27.439136884822105 30.157735473500345 29.990341073187963 28.967610406740704
          29.554976317262394 27.425676919716153 27.93604809424758 27.594215344477472 29.406618655039537 27.222399721281615
          27.678945436180502 26.874193792066208 27.2304160109542 27.011456215741134 27.373913164348895 26.991673020592856
          28.967204980484254 28.212499075678092 28.34317625446475 34.570104731857754 34.32416216901065 33.52434227258627
          44.57472971950216 42.723941641449265 38.569552934797606 39.12698739894319 33.73794675752633 33.476681433348816
          32.149008961846775 31.870739911052084 32.6615155610573 31.09198772305167 36.70123713801726 36.487107250661204
          35.323468551926794 35.820742724287626 32.12910882650374 30.555250935024358 37.22761050117687 35.8923400473821
          31.366204014582035 30.03701880494321 29.98524280409878 29.000678643166793 34.56182397300181 33.1164956654421
          32.64692098527334 26.94185276536511 27.250645191122796 27.08136733813291 28.042622272900655 26.7983937324428
          27.07155415831268 26.55019979801667 26.759724003358656 26.69443082931928 26.925099427734494 26.649902182725764
          27.76911488564452 27.295482538203494 27.43034571662014 29.262892606622703 28.849355639662416 28.133772347594338
          56.86240429253125 55.497515952096755 55.95288504168572 54.25830946910857 51.62411852537622 50.474231796553624
          52.86102584360242 53.52645262809814 53.30853981795305 56.33750923043971 53.8149265122168 52.48744796333407
          51.40403119223822 50.47096429788368 49.05953987724392 47.04411600211192 52.32917006030726 52.962732804411175
          52.70857564899166 54.926048517820405 45.310613256121535 44.37175162872224 41.5056170731529 40.35877356086867
          54.67867523008907 53.301156896782366 50.87421141189262 46.197835881513726 46.72351475541273 46.20914548129488
          46.97453971955213 52.36331484008861 52.29738655338977 46.266840793845866 46.23552154202374 46.2473939568313