<?xml version="1.0"?>
<VTKFile type="UnstructuredGrid" version="0.1" byte_order="LittleEndian" header_type="UInt32" compressor="vtkZLibDataCompressor">
  <UnstructuredGrid>
    <Piece NumberOfPoints="1359" NumberOfCells="951">
      <PointData>
        <DataArray type="Int32" Name="libmesh_node_id" format="ascii" RangeMin="1804" RangeMax="10695">
          1804 1924 2158 2159 2160 2161
          2166 2167 2190 2191 2351 2352
          2358 2359 2906 2907 2913 2915
          2916 2917 2918 2919 2920 2921
          2922 2923 2924 2925 2926 2927
          2928 2951 2952 2954 2957 2959
          2960 2961 2962 2963 2965 2966
          2967 2968 3017 3018 3019 3020
          3027 4171 4172 4173 4176 4179
          4194 4197 4199 4201 4202 4203
          4204 4205 4206 4207 4208 4209
          4210 4211 4212 4213 4214 4215
          4216 4217 4218 4219 4220 4221
          4222 4223 4224 4225 4226 4227
          4228 4229 4230 4231 4232 4233
          4234 4235 4236 4237 4238 4239
          4240 4241 4242 4243 4244 4246
          4248 4341 4342 4344 4347 4357
          4359 4361 4375 4376 4378 4381
          4391 4393 4395 4397 4398 4399
          4400 4401 4402 4403 4404 4405
          4406 4407 4408 4409 4410 4411
          4412 4413 4414 4415 4416 4417
          4418 4419 4420 4421 4422 4423
          4424 4426 4428 4431 4432 4433
          4434 4435 4436 4437 4438 4439
          4440 4441 4442 4443 4444 4445
          4446 4447 4448 4449 4450 4451
          4452 4453 4454 4455 4456 4457
          4458 4462 4713 4714 4715 4716
          4717 4718 4719 4720 4721 4722
          4723 4724 4725 5512 5513 5515
          5516 5518 5519 5581 5582 5583
          5584 5585 5586 5587 5588 5589
          5590 5591 5592 5593 5594 5595
          5596 5597 5598 5599 5600 5601
          5602 5603 5604 5605 5606 5607
          7564 7565 7566 7567 7568 7569
          7570 7571 7572 7573 7574 7575
          7576 7577 7588 7589 7590 7591
          7592 7593 7594 7595 7596 7597
          7608 7609 7610 7611 7612 7613
          7614 7615 7616 7617 7625 7626
          7627 7628 7629 7630 7631 7696
          7697 7698 7699 7700 7701 7702
          7703 7704 7705 7713 7714 7715
          7716 7717 7718 7719 7730 7731
          7732 7733 7734 7735 7736 7737
          7738 7739 7740 7741 7742 7743
          7744 7745 7746 7747 7748 7749
          7750 7751 7752 7753 7754 7755
          7756 7757 7758 7759 7760 7761
          7762 7763 7764 7765 7766 7767
          7768 7769 7770 7771 7772 7773
          7774 7775 7776 7777 7778 7779
          7780 7781 7782 7783 7784 7785
          7786 7787 7788 7789 7790 7791
          7792 7793 7794 7795 7796 7797
          7798 7799 7800 7801 7802 7803
          7804 7805 7806 7807 7808 7809
          7810 7811 7812 7813 7814 7815
          7816 7817 7818 7819 7820 7821
          7822 7823 7824 7825 7826 7827
          7828 7829 7830 7831 7832 7833
          7834 7835 7836 7837 7838 7839
          7840 7841 7842 7843 7844 7845
          7846 7847 7848 7849 7850 7851
          7852 7853 7854 7855 7856 7857
          7858 7859 7860 7861 7862 7863
          7864 7865 7866 7867 7868 7869
          7870 7871 7872 7873 7874 7875
          7876 7877 7878 7879 7880 7881
          7882 7883 7884 7885 7886 7887
          7888 7889 7890 7891 7892 7893
          7894 7895 7896 7897 7898 7899
          7900 7901 7902 7903 7904 7905
          7906 7907 7908 7909 7910 7911
          7912 7913 7914 7915 7916 7917
          7918 7919 7920 7921 7922 7923
          7924 7925 7926 7927 7928 7929
          7930 7931 7932 7933 7934 7935
          7936 7937 7938 7939 7940 7941
          7942 7943 7944 7945 7946 7947
          7948 7949 7951 7952 7953 7954
          7955 7956 7957 7958 7959 7960
          7961 7962 7963 8024 8025 8026
          8027 8031 8032 8094 8095 8096
          8097 8101 8102 8104 8105 8106
          8107 8111 8112 8134 8135 8136
          8137 8141 8142 8284 8285 8287
          8290 8300 8302 8304 8318 8319
          8321 8324 8334 8336 8338 8404
          8406 8408 8418 8420 8422 8432
          8434 8436 8446 8448 8450 8532
          8533 8535 8538 8548 8550 8552
          8566 8567 8569 8572 8582 8584
          8586 8652 8654 8656 8666 8668
          8670 8680 8682 8684 8694 8696
          8698 8700 8701 8702 8703 8704
          8705 8706 8707 8708 8709 8710
          8711 8712 8713 8714 8715 8716
          8717 8718 8719 8720 8721 8722
          8723 8724 8725 8726 8727 8728
          8729 8730 8731 8732 8733 8734
          8735 8736 8737 8738 8739 8740
          8741 8742 8743 8744 8745 8746
          8747 8748 8749 8750 8751 8752
          8753 8754 8755 8756 8757 8758
          8759 8760 8761 8762 8763 8764
          8765 8766 8767 8768 8769 8770
          8771 8772 8773 8774 8775 8776
          8777 8778 8779 8780 8781 8782
          8783 8784 8785 8786 8787 8788
          8789 8790 8791 8792 8793 8794
          8795 8796 8797 8798 8799 8800
          8801 8802 8803 8804 8805 8806
          8807 8808 8809 8810 8811 8812
          8813 8814 8815 8816 8817 8818
          8819 8820 8821 8822 8823 8824
          8825 8826 8827 8828 8829 8830
          8831 8832 8833 8834 8835 8836
          8837 8838 8839 8840 8841 8842
          8843 8844 8845 8846 8847 8848
          8849 8850 8851 8852 8853 8854
          8855 8856 8857 8858 8859 8860
          8861 8862 8863 8864 8865 8866
          8867 8868 8869 8870 8871 8872
          8873 8874 8875 8876 8877 8878
          8879 8880 8881 8882 8883 8884
          8885 8886 8887 8888 8889 8890
          8891 8892 8893 8894 8895 8896
          8897 8898 8899 8900 8901 8903
          8904 8905 8906 8907 8908 8909
          8910 8911 8912 8920 8921 8922
          8923 8924 8925 8926 8927 8928
          8929 8931 8932 8933 8934 8935
          8936 8937 8938 8939 8940 8948
          8949 8950 8951 8952 8953 8954
          8955 8956 8957 8958 8959 8960
          8961 8962 8963 8964 8965 8966
          8967 8968 8969 8970 8971 8972
          8973 8974 8975 8976 8977 8978
          8979 8980 8981 8982 8983 8984
          8985 8986 8987 8988 8989 8990
          8991 8992 8993 8994 8995 8996
          8997 8998 8999 9000 9001 9002
          9003 9004 9005 9006 9007 9008
          9009 9010 9011 9012 9013 9014
          9015 9016 9017 9018 9019 9020
          9021 9022 9023 9024 9025 9026
          9027 9028 9029 9030 9031 9032
          9033 9034 9035 9036 9037 9038
          9039 9040 9041 9042 9043 9044
          9045 9046 9047 9048 9049 9050
          9051 9052 9053 9054 9055 9056
          9057 9058 9059 9060 9061 9062
          9063 9064 9065 9066 9067 9068
          9069 9070 9071 9072 9073 9074
          9075 9076 9077 9078 9079 9080
          9081 9082 9083 9084 9085 9086
          9087 9088 9089 9090 9091 9092
          9093 9094 9095 9096 9097 9098
          9099 9100 9101 9102 9103 9104
          9105 9106 9107 9108 9109 9110
          9111 9112 9113 9114 9115 9116
          9117 9118 9119 9120 9121 9122
          9123 9124 9125 9126 9127 9128
          9129 9130 9131 9132 9133 9134
          9135 9136 9137 9138 9139 9140
          9141 9142 9143 9144 9145 9146
          9147 9149 9151 9153 9154 9155
          9156 9158 9159 9160 9168 9169
          9170 9171 9172 9173 9174 9175
          9177 9179 9181 9182 9183 9184
          9186 9187 9188 9260 9264 9656
          9657 9660 9661 9663 9664 9667
          9668 9712 9713 9716 9717 9741
          10649 10650 10651 10652 10653 10654
          10655 10656 10657 10658 10659 10660
          10661 10662 10663 10664 10665 10666
          10667 10668 10669 10670 10671 10672
          10673 10674 10675 10676 10677 10678
          10679 10680 10681 10682 10683 10684
          10685 10687 10688 10689 10690 10691
          10692 10693 10694 10695 2157 2939
          2931 2910 2940 2932 4191 4193
          4195 4192 4196 4261 4259 4262
          4260 4289 4290 4291 4292 4299
          4300 5505 5506 2156 2905 5509
          5559 5562 5563 5560 4167 4168
          5566 5565 4174 5577 5575 5561
          5576 5580 7554 7555 7556 7559
          4169 7562 4170 7580 7581 7584
          7586 4175 7600 7601 7603 4177
          7606 4178 7619 7621 7623 4180
          7688 7689 7692 7694 7707 7709
          7711 4198 7722 7723 7726 7728
          4200 8016 8017 8028 8029 8020
          8030 8022 8033 4266 4267 8098
          8099 8100 8103 4296 8108 8109
          8110 8113 4297 8138 8139 8140
          8143 4306 8274 8282 8283 8275
          8286 8277 8288 8289 8291 8299
          8293 8301 8295 8303 8305 8316
          8317 8320 8322 8323 8325 8333
          8335 8337 8339 8403 8397 8405
          8399 8407 8409 8417 8411 8419
          8413 8421 8423 8431 8433 8435
          8437 8445 8447 8449 8451 8530
          8531 8534 8536 8537 8539 8547
          8549 8551 8553 8564 8565 8568
          8570 8571 8573 8581 8583 8585
          8587 8651 8653 8655 8657 8665
          8667 8669 8671 8679 8681 8683
          8685 8693 8695 8697 8699 9259
          9253 9261 9255 9262 9263 4473
          9265 9288 9287 9290 9289 9292
          9291 9496 9495 9500 9499 9524
          9523 9528 9527 9658 9659 9662
          4521 9665 9666 9669 4522 9684
          9685 9686 9687 9688 9689 9691
          9692 9693 9694 9695 9696 9714
          9715 9718 4528 9740 9742 9743
          9744 9895 9896 9899 9900 9902
          9903 9906 9907 9923 9924 9927
          9928 9930 9931 9934 9935 9951
          9955 9979 9983
        </DataArray>
        <DataArray type="Float64" Name="bounds" format="ascii" RangeMin="0" RangeMax="0">
          0 0 0 0 0 0
          0 0 0 0 0 0
          0 0 0 0 0 0
          0 0 0 0 0 0
          0 0 0 0 0 0
          0 0 0 0 0 0
          0 0 0 0 0 0
          0 0 0 0 0 0
          0 0 0 0 0 0
          0 0 0 0 0 0
          0 0 0 0 0 0
          0 0 0 0 0 0
          0 0 0 0 0 0
          0 0 0 0 0 0
          0 0 0 0 0 0
          0 0 0 0 0 0
          0 0 0 0 0 0
          0 0 0 0 0 0
          0 0 0 0 0 0
          0 0 0 0 0 0
          0 0 0 0 0 0
          0 0 0 0 0 0
          0 0 0 0 0 0
          0 0 0 0 0 0
          0 0 0 0 0 0
          0 0 0 0 0 0
          0 0 0 0 0 0
          0 0 0 0 0 0
          0 0 0 0 0 0
          0 0 0 0 0 0
          0 0 0 0 0 0
          0 0 0 0 0 0
          0 0 0 0 0 0
          0 0 0 0 0 0
          0 0 0 0 0 0
          0 0 0 0 0 0
          0 0 0 0 0 0
          0 0 0 0 0 0
          0 0 0 0 0 0
          0 0 0 0 0 0
          0 0 0 0 0 0
          0 0 0 0 0 0
          0 0 0 0 0 0
          0 0 0 0 0 0
          0 0 0 0 0 0
          0 0 0 0 0 0
          0 0 0 0 0 0
          0 0 0 0 0 0
          0 0 0 0 0 0
          0 0 0 0 0 0
          0 0 0 0 0 0
          0 0 0 0 0 0
          0 0 0 0 0 0
          0 0 0 0 0 0
          0 0 0 0 0 0
          0 0 0 0 0 0
          0 0 0 0 0 0
          0 0 0 0 0 0
          0 0 0 0 0 0
          0 0 0 0 0 0
          0 0 0 0 0 0
          0 0 0 0 0 0
          0 0 0 0 0 0
          0 0 0 0 0 0
          0 0 0 0 0 0
          0 0 0 0 0 0
          0 0 0 0 0 0
          0 0 0 0 0 0
          0 0 0 0 0 0
          0 0 0 0 0 0
          0 0 0 0 0 0
          0 0 0 0 0 0
          0 0 0 0 0 0
          0 0 0 0 0 0
          0 0 0 0 0 0
          0 0 0 0 0 0
          0 0 0 0 0 0
          0 0 0 0 0 0
          0 0 0 0 0 0
          0 0 0 0 0 0
          0 0 0 0 0 0
          0 0 0 0 0 0
          0 0 0 0 0 0
          0 0 0 0 0 0
          0 0 0 0 0 0
          0 0 0 0 0 0
          0 0 0 0 0 0
          0 0 0 0 0 0
          0 0 0 0 0 0
          0 0 0 0 0 0
          0 0 0 0 0 0
          0 0 0 0 0 0
          0 0 0 0 0 0
          0 0 0 0 0 0
          0 0 0 0 0 0
          0 0 0 0 0 0
          0 0 0 0 0 0
          0 0 0 0 0 0
          0 0 0 0 0 0
          0 0 0 0 0 0
          0 0 0 0 0 0
          0 0 0 0 0 0
          0 0 0 0 0 0
          0 0 0 0 0 0
          0 0 0 0 0 0
          0 0 0 0 0 0
          0 0 0 0 0 0
          0 0 0 0 0 0
          0 0 0 0 0 0
          0 0 0 0 0 0
          0 0 0 0 0 0
          0 0 0 0 0 0
          0 0 0 0 0 0
          0 0 0 0 0 0
          0 0 0 0 0 0
          0 0 0 0 0 0
          0 0 0 0 0 0
          0 0 0 0 0 0
          0 0 0 0 0 0
          0 0 0 0 0 0
          0 0 0 0 0 0
          0 0 0 0 0 0
          0 0 0 0 0 0
          0 0 0 0 0 0
          0 0 0 0 0 0
          0 0 0 0 0 0
          0 0 0 0 0 0
          0 0 0 0 0 0
          0 0 0 0 0 0
          0 0 0 0 0 0
          0 0 0 0 0 0
          0 0 0 0 0 0
          0 0 0 0 0 0
          0 0 0 0 0 0
          0 0 0 0 0 0
          0 0 0 0 0 0
          0 0 0 0 0 0
          0 0 0 0 0 0
          0 0 0 0 0 0
          0 0 0 0 0 0
          0 0 0 0 0 0
          0 0 0 0 0 0
          0 0 0 0 0 0
          0 0 0 0 0 0
          0 0 0 0 0 0
          0 0 0 0 0 0
          0 0 0 0 0 0
          0 0 0 0 0 0
          0 0 0 0 0 0
          0 0 0 0 0 0
          0 0 0 0 0 0
          0 0 0 0 0 0
          0 0 0 0 0 0
          0 0 0 0 0 0
          0 0 0 0 0 0
          0 0 0 0 0 0
          0 0 0 0 0 0
          0 0 0 0 0 0
          0 0 0 0 0 0
          0 0 0 0 0 0
          0 0 0 0 0 0
          0 0 0 0 0 0
          0 0 0 0 0 0
          0 0 0 0 0 0
          0 0 0 0 0 0
          0 0 0 0 0 0
          0 0 0 0 0 0
          0 0 0 0 0 0
          0 0 0 0 0 0
          0 0 0 0 0 0
          0 0 0 0 0 0
          0 0 0 0 0 0
          0 0 0 0 0 0
          0 0 0 0 0 0
          0 0 0 0 0 0
          0 0 0 0 0 0
          0 0 0 0 0 0
          0 0 0 0 0 0
          0 0 0 0 0 0
          0 0 0 0 0 0
          0 0 0 0 0 0
          0 0 0 0 0 0
          0 0 0 0 0 0
          0 0 0 0 0 0
          0 0 0 0 0 0
          0 0 0 0 0 0
          0 0 0 0 0 0
          0 0 0 0 0 0
          0 0 0 0 0 0
          0 0 0 0 0 0
          0 0 0 0 0 0
          0 0 0 0 0 0
          0 0 0 0 0 0
          0 0 0 0 0 0
          0 0 0 0 0 0
          0 0 0 0 0 0
          0 0 0 0 0 0
          0 0 0 0 0 0
          0 0 0 0 0 0
          0 0 0 0 0 0
          0 0 0 0 0 0
          0 0 0 0 0 0
          0 0 0 0 0 0
          0 0 0 0 0 0
          0 0 0 0 0 0
          0 0 0 0 0 0
          0 0 0 0 0 0
          0 0 0 0 0 0
          0 0 0 0 0 0
          0 0 0 0 0 0
          0 0 0 0 0 0
          0 0 0 0 0 0
          0 0 0 0 0 0
          0 0 0 0 0 0
          0 0 0 0 0 0
          0 0 0 0 0 0
          0 0 0 0 0 0
          0 0 0 0 0 0
          0 0 0 0 0 0
          0 0 0 0 0 0
          0 0 0 0 0 0
          0 0 0 0 0 0
          0 0 0 0 0 0
          0 0 0 0 0 0
          0 0 0 0 0 0
          0 0 0 0 0 0
          0 0 0
        </DataArray>
        <DataArray type="Float64" Name="gradient_error" format="ascii" RangeMin="4.577366558030077e-12" RangeMax="4.125334001824504e-9">
          1.1125269196638582e-9 1.7698566525192206e-11 2.8207677881425717e-10 1.1646184746702234e-10 3.5447848325828585e-11 5.652122524975694e-11
          1.84687763541381e-9 1.8045310061354353e-9 9.574364008134148e-12 7.0518486585271086e-12 6.758317688506814e-12 1.4528132323795564e-11
          4.577366558030077e-12 4.635560158787467e-12 5.846595251158625e-11 4.890848403510169e-11 2.2617351772465306e-10 1.5305670909908533e-11
          2.3717602382988768e-11 2.3880717949141715e-11 5.059676456203831e-11 3.072778871416745e-11 4.136175047464569e-11 4.4040833574369266e-11
          5.037223321985575e-11 6.906562960180449e-11 3.641834007535344e-11 1.3563903910157745e-10 1.0744367293036956e-10 4.446492901789462e-11
          5.3798261275869506e-11 2.383912094930124e-9 1.8727735407167177e-9 9.162982615110935e-10 2.7128824792960066e-9 1.4752959245788708e-9
          1.1482726147911848e-9 7.898454588277738e-10 5.971923819943249e-10 5.240580488667569e-10 1.8101980346736597e-9 1.8204597605402688e-9
          1.1167307260557845e-9 1.1786953438091431e-9 3.009000562452222e-11 2.7009685750022447e-11 2.461883581236706e-11 2.1345876712704435e-11
          2.0592766164515746e-11 5.59983434429176e-11 7.941056935576002e-11 7.537916444920083e-11 6.428199939897261e-11 2.669116189769591e-10
          8.770663033991763e-11 1.0146793807696198e-10 1.7147479303538304e-10 3.8047907242124374e-11 3.584583370424073e-11 5.3497192653026954e-11
          5.070343335192943e-11 2.197975498067772e-11 3.484055786443201e-11 3.29851420460819e-11 4.535421257203358e-11 5.592703656380351e-11
          5.0037584836582597e-11 1.9905462082838644e-10 1.8805584487377826e-10 1.2795157481985456e-10 1.5860222067006938e-10 2.899976882343855e-11
          2.730722183257689e-11 3.58251054246237e-11 3.3994560458738457e-11 3.90122090729268e-11 3.683059415334269e-11 3.495666197533494e-11
          3.974008758387938e-11 3.8164126513979955e-11 3.0067552456761885e-11 8.91297608714137e-11 8.398345616427087e-11 5.3222933417858046e-11
          7.02975181044216e-11 6.582143413539964e-11 7.222637697549779e-11 7.035253599649986e-11 6.118479910632501e-11 7.894781643591715e-11
          6.745128055606595e-11 4.381050390367351e-11 1.194005300099584e-10 8.039543216449276e-11 8.042176416054122e-11 5.948968632616205e-11
          3.875719707677445e-11 3.5965861329596404e-11 2.35098337397413e-11 4.26639491480927e-11 2.7537918388109172e-11 5.237248608641675e-11
          3.4867978308001826e-11 8.922979073458104e-10 8.429516130138295e-10 7.099250817504561e-10 2.2423742251170763e-9 5.314960993341545e-10
          3.52685342063106e-10 1.3942557464502493e-9 4.001105631706185e-9 3.871168071705754e-9 3.3642780098279794e-9 2.207352229623097e-9
          2.5143791947397363e-9 1.6803882705624596e-9 2.475355689145568e-9 6.722870513885575e-10 6.334506525132043e-10 4.867086063221141e-10
          4.5740351683088574e-10 5.293569287072626e-10 3.79384324025862e-10 1.9013302513433005e-9 1.7890286432143806e-9 1.3864951277270156e-9
          1.491967226194599e-9 3.379124694616341e-10 3.168140354061291e-10 2.2480882082413634e-10 2.1036655860219008e-10 2.6102638744697267e-10
          1.7240418849995518e-10 1.104809027475525e-9 1.034736247587381e-9 7.368770239429119e-10 8.479025543111936e-10 3.9142845533677274e-10
          2.773585937535122e-10 2.557571786132137e-10 1.7878885302349763e-10 1.0984591342948466e-9 8.324841063794554e-10 7.07038185925236e-10
          1.8898504273119983e-10 1.204771665356455e-10 6.041568024022755e-10 3.4619669307662194e-9 3.271061558005624e-9 2.720633309749508e-9
          2.563599904316912e-9 2.7375414388881314e-9 2.155397912874601e-9 2.1258078494215425e-9 2.2594099133027746e-9 1.864725452396787e-9
          2.3285759503135554e-9 2.0909241792959403e-9 1.981578854616513e-9 1.5983643216418283e-9 1.5100472506780481e-9 1.6811242187023822e-9
          1.262855072538814e-9 1.3992232704250111e-9 1.4262616544759962e-9 1.1364876645390895e-9 1.4252580234423168e-9 2.0403243561495605e-9
          1.6258640748607597e-9 1.362872825817472e-9 1.0645362458687467e-9 1.985065088911846e-9 1.58593540918352e-9 1.4814564950237986e-9
          1.2510527177971794e-9 1.2524014240938383e-9 3.384911858207114e-11 3.2113680687264806e-11 2.235238897856719e-11 2.119000803752614e-11
          1.8213678215618506e-11 1.2716892322241234e-11 1.2076885789984646e-11 2.7489940412652314e-11 1.8097206197156977e-11 1.0356029243786898e-11
          3.466197063198241e-11 3.2623957541184036e-11 1.937483181741365e-11 1.2223162160482859e-11 1.135234686682449e-11 6.147178920603235e-12
          6.1417523808853985e-12 1.048153157316612e-11 6.136325841167563e-12 1.60594866351962e-11 1.6217054336064835e-11 3.7026592458168715e-11
          3.52844315490617e-11 1.1528597179013794e-11 2.3170881119861563e-11 2.205527442579586e-11 1.6053645940863443e-11 3.03015429354468e-11
          2.06175331722553e-11 7.835369729593839e-12 8.739672260681965e-12 1.3506800171637356e-11 1.3202123746715279e-11 7.669156142467834e-12
          9.558412929000857e-12 9.653985431734263e-12 9.643974791770095e-12 1.2897447321793204e-11 9.749557934467668e-12 1.6049489293285237e-11
          2.4479223107945545e-11 1.3778557934898118e-11 1.8499839574986616e-11 1.636630874177706e-11 2.189763098495218e-11 1.7026415096667638e-11
          3.378184786326863e-11 3.340840982574518e-11 4.9793987965560166e-11 4.9196073593136414e-11 2.7307266978560926e-11 4.0940385356124103e-11
          4.044153361912342e-11 3.224150014285794e-11 4.740656527626653e-11 3.897258884734105e-11 9.566769910317114e-11 9.444585401996998e-11
          7.838545060796292e-11 9.087138276530656e-11 3.0328290656037236e-11 4.453362592373923e-11 2.502004554945862e-11 3.662749810096595e-11
          2.82076525307142e-11 4.093660501235187e-11 3.3645116282976e-11 8.519743195383142e-11 7.058968355317567e-11 7.770770594791358e-11
          1.8016638403701568e-10 1.7779339767942225e-10 1.5126058081857165e-10 1.492409524447619e-10 1.7086510775991842e-10 1.4336202004922866e-10
          3.3143358757469427e-10 3.2695567716004227e-10 2.782044114452377e-10 3.138813338865484e-10 1.5990515475433183e-10 1.3411280086237177e-10
          1.4566637371493284e-10 1.2211302844356567e-10 2.932336386068765e-10 2.491127562233085e-10 2.665842171777665e-10 2.768203118181353e-11
          3.666581697654844e-11 2.2909603487444043e-11 3.009115264562994e-11 2.8157310116778982e-11 3.431070444405119e-11 2.814457311468044e-11
          6.822732981599338e-11 5.63943106419182e-11 6.629613258538496e-11 1.2945686694501836e-10 1.0838627121485564e-10 1.1215452502199762e-10
          9.370219267570864e-11 2.358092364633364e-10 1.9970401072330846e-10 2.0292954142575845e-10 6.667481037893636e-11 9.430032125369932e-11
          5.517546081130009e-11 7.859520350866066e-11 5.452550091718958e-11 7.716381998910645e-11 6.416001040309056e-11 1.6992417728370805e-10
          1.4323603954952618e-10 1.3850705624215327e-10 2.2424393437292147e-11 2.211938166804244e-11 3.3418001167267134e-11 3.298916945144184e-11
          1.780584527946704e-11 2.7087813064177614e-11 2.6715463520483675e-11 2.146014922591282e-11 3.181939081084662e-11 2.581237137827989e-11
          6.542967779412994e-11 6.45793954447124e-11 5.2797355782391225e-11 6.205648592710478e-11 1.4563531594721963e-11 1.4293354085703534e-11
          2.1797428505424874e-11 2.1483059227237476e-11 1.1654294087009769e-11 1.742042406592449e-11 1.716561495434211e-11 1.3951415843628133e-11
          2.0774369808839012e-11 1.6597879909023494e-11 4.3385848424634834e-11 4.281475498254949e-11 3.4380176472975024e-11 4.109542752552825e-11
          2.0892470694612576e-11 2.9915170349760554e-11 1.767697205617751e-11 2.428359359810656e-11 2.0250859418986767e-11 2.7341082451713223e-11
          2.3194565696916108e-11 5.796550925126916e-11 4.708757252529191e-11 5.25538582344324e-11 1.4755527284069538e-11 1.967447811686724e-11
          1.2067467915024155e-11 1.581525972721521e-11 1.5631399457567918e-11 1.8968906565106545e-11 1.5345565479143158e-11 3.7961483066061475e-11
          3.042903669648032e-11 3.897480571295323e-11 1.259887970471929e-10 1.2428360450567812e-10 1.0410326682577422e-10 1.0267647731079318e-10
          1.1932116208277534e-10 9.850676824936241e-11 2.3799723313668566e-10 2.3467950605241184e-10 1.962389430246871e-10 2.2502156699212586e-10
          8.534459649520008e-11 8.416085020250308e-11 6.946463766777199e-11 6.849218813274312e-11 8.06915018990605e-11 6.563344358463881e-11
          1.6503406254001316e-10 1.6266842376574174e-10 1.3367197847027827e-10 1.5579413549856905e-10 1.1169507649728856e-10 9.226376302624474e-11
          1.0188687990535238e-10 8.432049494015169e-11 2.0981680323023802e-10 1.7517616000189116e-10 1.90236570023954e-10 7.546112126809512e-11
          6.122882833277356e-11 6.88097217118724e-11 5.561720230505957e-11 1.449864938402965e-10 1.1896600518669662e-10 1.3110292794348108e-10
          1.0289176996313444e-11 1.0117671407944161e-11 1.3722951861600546e-11 1.3530794857740256e-11 9.674890425333883e-12 1.200797384095218e-11
          1.1848211985486494e-11 9.815330132249619e-12 1.3065191279526358e-11 1.1420069012307585e-11 2.7581993272543058e-11 2.7217951054997236e-11
          2.482674618145401e-11 2.611365258795386e-11 1.0018515167305469e-11 1.242331963724084e-11 9.217106034902296e-12 1.0841068430989365e-11
          1.0352535889686575e-11 1.205489456930893e-11 1.0530448967384364e-11 2.412683398321431e-11 2.2062863880511145e-11 2.4768955450029053e-11
          5.629839319481061e-11 5.5508101452988996e-11 4.51966457224055e-11 4.456229430500224e-11 5.316953167144386e-11 4.267482218524074e-11
          1.1046390651057185e-10 1.0884575829042075e-10 8.781333226313002e-11 1.0413767695517449e-10 2.3808169683302887e-11 2.3485139598697055e-11
          3.5638207824364293e-11 3.5134547546787226e-11 1.7956187614766552e-11 2.7800239899168554e-11 2.7403474808176118e-11 2.2500795045758333e-11
          3.364641585927249e-11 2.6246828339682472e-11 7.128549082614849e-11 7.022625571642364e-11 5.5677537776988296e-11 6.714473702428007e-11
          4.949173485056157e-11 3.966719177738863e-11 4.478988460316094e-11 3.58098046888181e-11 9.674730454911609e-11 7.797695176797671e-11
          8.728588568285272e-11 2.0909324302251834e-11 3.12863982915453e-11 1.6052806821738058e-11 2.443146120117341e-11 1.886528067915391e-11
          2.8260543410430733e-11 2.210493315471712e-11 6.231357386485242e-11 4.937573421501289e-11 5.614234530445016e-11 1.9685585867501037e-11
          2.4395565132199343e-11 1.8568868299192274e-11 2.1764668016572083e-11 1.9548465733220784e-11 2.2860862174416634e-11 2.0516755775282007e-11
          4.6033482755506364e-11 4.303991659034403e-11 4.496581785256326e-11 9.032862991512836e-11 7.463846665808249e-11 7.778316047261243e-11
          6.400492093560929e-11 1.6768807192978546e-10 1.395774902054704e-10 1.4369891097967892e-10 4.1896733624669247e-11 6.076687613392565e-11
          3.3284180366233864e-11 4.900065507160125e-11 3.577191019400647e-11 5.2028753701819786e-11 4.19358063500201e-11 1.1520130968918998e-10
          9.427653849651448e-11 9.83846435700927e-11 4.541671735163729e-11 6.505466853155021e-11 3.7092151362995816e-11 5.341605228263059e-11
          3.6970791836953564e-11 5.301185348957847e-11 4.3486871027333776e-11 1.1977093986422308e-10 9.932795429288814e-11 9.716428770844335e-11
          2.98749675564548e-11 4.342710148722298e-11 2.3875215146750154e-11 3.503454924346152e-11 2.439677391014972e-11 3.5364885954263e-11
          2.8548380147386666e-11 8.17054653509608e-11 6.666624613557066e-11 6.603827008024282e-11 2.6564138596243063e-11 3.936037021115797e-11
          2.1130282813673377e-11 3.1414689876321904e-11 2.2682047406242963e-11 3.36523567965041e-11 2.6839359294414763e-11 7.649737211445252e-11
          6.155295192455338e-11 6.515362475428773e-11 1.65496672051079e-11 2.4816712213179585e-11 1.2855090469177836e-11 1.944888869905486e-11
          1.4164264914326683e-11 2.121922319237433e-11 4.9122603241101413e-11 3.888242372004959e-11 4.176070055217109e-11 1.9056009377927225e-11
          2.8109731598389205e-11 1.513436683247505e-11 2.2403589319330147e-11 1.5638368923661882e-11 2.2898156557156056e-11 1.8233945638917097e-11
          5.3957990943063954e-11 4.332442278062379e-11 4.348178225032915e-11 4.394091525167345e-11 6.180354801635777e-11 3.6184511895813324e-11
          5.1280431141672974e-11 1.0998346874606378e-10 9.224048029121222e-11 2.9705124439160704e-11 4.230306313071195e-11 2.424206323341703e-11
          3.465653692859904e-11 7.677841163069033e-11 6.34173929390447e-11 1.9564572862453533e-11 2.8147586086489905e-11 1.5674785878582096e-11
          2.269246503012157e-11 5.197902453030281e-11 4.2273432969176657e-11 1.2499898623471431e-11 1.8175841528772365e-11 9.906005061276831e-12
          1.4454408868309145e-11 3.411395225278942e-11 2.731616933561751e-11 5.111640370073091e-10 5.040105137800191e-10 4.831253985050963e-10
          8.797123542155038e-10 4.50163121901804e-10 4.076547844454472e-10 7.848858268552831e-10 1.4912509770158945e-9 1.4700045163162202e-9
          1.4080485810252622e-9 2.3475751475393564e-9 1.3104000174786288e-9 1.1844846248191842e-9 2.079004811138747e-9 3.58715487776273e-10
          3.066826559646391e-10 6.235077104729167e-10 2.547525248692319e-10 2.056580564440227e-10 4.3957474157126244e-10 1.0392871645166775e-9
          8.845307471327778e-10 1.6398018159268757e-9 7.296658688897454e-10 5.829714310080192e-10 1.149020282452229e-9 3.497902311988501e-9
          3.4469307494610964e-9 3.2960672077292117e-9 3.9713325006109446e-9 3.053476709608675e-9 2.7378164803170914e-9 3.6743097471495454e-9
          2.8835357590014514e-9 2.9311267929533065e-9 3.046083790459909e-9 1.9457831213324847e-9 3.1459251092544266e-9 3.119873168450651e-9
          2.520584819024167e-9 2.3801544612506e-9 2.0141273395712145e-9 2.9606618513309123e-9 1.6601857163182526e-9 1.3273640715298246e-9
          2.0799191284599254e-9 2.9211726320001203e-9 2.5831090684815698e-9 2.6925653371290057e-9 2.188276967600278e-9 1.8104404598934901e-9
          2.1442767174951518e-9 4.380363242954796e-10 4.317860659808593e-10 3.718297046836431e-10 3.664258110137838e-10 4.135502389204864e-10
          3.506697159479078e-10 7.782935613375839e-10 7.670649885673037e-10 6.623713550039164e-10 7.342901505107988e-10 3.126100173945221e-10
          3.07988463875762e-10 2.602829190648738e-10 2.5637438109670055e-10 2.94523840174679e-10 2.4499570022680295e-10 5.749583447188198e-10
          5.662921310856529e-10 4.792169877886515e-10 5.410354566490032e-10 3.8481045328894573e-10 3.2587617268022107e-10 3.478284158189974e-10
          2.9404336698085484e-10 6.825963401653541e-10 5.87900618210962e-10 6.16007619127524e-10 2.7336580783246007e-10 2.2713991811776673e-10
          2.462572541993939e-10 2.0430808486017436e-10 5.013217014125974e-10 4.231649037092952e-10 4.504073467107917e-10 1.3235451742461938e-9
          1.3043495949345776e-9 1.164106508918228e-9 1.1468608833585207e-9 1.2483362717607705e-9 1.0965416683957107e-9 2.136722313209021e-9
          2.104148140255272e-9 1.8725273090441152e-9 2.0099153967296416e-9 1.0141401765614075e-9 9.987703775294972e-10 8.747241077919372e-10