<?xml version="1.0"?>
<VTKFile type="UnstructuredGrid" version="0.1" byte_order="LittleEndian" header_type="UInt32" compressor="vtkZLibDataCompressor">
  <UnstructuredGrid>
    <Piece NumberOfPoints="698" NumberOfCells="440">
      <PointData>
        <DataArray type="Int32" Name="libmesh_node_id" format="ascii" RangeMin="707" RangeMax="4916">
          707 708 715 716 878 879
          880 881 882 883 884 885
          886 887 888 889 890 891
          1160 1161 1163 1164 1179 1181
          1185 1186 1681 1682 1683 1686
          1689 1691 1692 1693 1694 1695
          1696 1697 1698 1699 1700 1701
          1702 1703 1704 1707 1708 1710
          1713 1715 1716 1717 1718 1719
          1720 1721 1722 1723 1724 1727
          1728 1731 1733 1735 1736 1737
          1738 1739 1740 1741 1742 1743
          1744 2654 2655 2656 2657 2661
          2662 2663 2664 2665 2666 2667
          2668 2669 2670 2671 2672 2673
          2674 2675 2676 2677 2688 2689
          2690 2691 2692 2693 2694 2695
          2696 2697 2705 2706 2707 2708
          2709 2710 2711 2722 2723 2724
          2725 2726 2727 2728 2729 2730
          2731 2739 2740 2741 2742 2743
          2744 2745 2746 2747 2748 2749
          2750 2751 2752 2753 2754 2755
          2756 2757 2758 2759 2760 2761
          2762 2763 2764 2765 2766 2767
          2768 2769 2770 2771 2772 2773
          2774 2775 2776 2777 2778 2779
          2780 2781 2782 2783 2784 2785
          2786 2787 2788 2789 2790 2791
          2792 2793 2794 2795 2796 2797
          2798 2799 2800 2801 2802 2803
          2804 2805 2806 2807 2808 2809
          2810 2811 2812 2813 2814 2815
          2817 2822 2842 2843 2846 2848
          2849 2851 2862 2866 2868 2876
          2877 2880 2882 2883 2885 2896
          2898 2900 2902 4151 4153 4154
          4155 4156 4157 4160 4161 4163
          4164 4165 4166 4167 4168 4169
          4170 4171 4172 4173 4174 4175
          4176 4177 4178 4179 4181 4182
          4183 4184 4185 4254 4255 4256
          4257 4258 4259 4260 4261 4262
          4263 4264 4265 4266 4267 4268
          4269 4270 4271 4272 4273 4274
          4275 4277 4278 4279 4281 4282
          4283 4284 4285 4286 4287 4288
          4289 4290 4291 4292 4293 4294
          4295 4296 4297 4298 4299 4300
          4301 4302 4303 4304 4305 4306
          4307 4308 4309 4311 4312 4313
          4315 4316 4317 4318 4319 4320
          4321 4337 4339 4340 4341 4343
          4345 4347 4349 4350 4351 4352
          4353 4354 4355 4356 4357 4358
          4359 4360 4361 4362 4363 4364
          4365 4366 4367 4368 4369 4370
          4371 4372 4373 4374 4375 4376
          4377 4378 4379 4380 4381 4382
          4383 4384 4385 4386 4387 4388
          4389 4390 4391 4392 4393 4394
          4395 4396 4397 4398 4399 4400
          4401 4402 4403 4404 4405 4406
          4407 4408 4409 4410 4411 4412
          4413 4414 4415 4416 4417 4418
          4419 4420 4421 4422 4423 4424
          4425 4426 4427 4428 4429 4430
          4431 4432 4433 4434 4435 4436
          4437 4438 4439 4440 4441 4442
          4443 4444 4445 4446 4447 4448
          4449 4450 4451 4452 4453 4454
          4455 4456 4457 4458 4459 4460
          4461 4462 4463 4464 4465 4466
          4467 4468 4469 4470 4471 4472
          4473 4474 4475 4476 4477 4478
          4479 4480 4481 4482 4483 4484
          4485 4486 4487 4488 4489 4490
          4491 4492 4493 4494 4495 4496
          4497 4498 4499 4500 4501 4502
          4503 4504 4505 4506 4507 4508
          4509 4510 4511 4512 4513 4514
          4515 4516 4517 4518 4519 4520
          4521 4522 4523 4524 4525 4526
          4527 4528 4529 4530 4531 4532
          4533 4534 4535 4536 4537 4538
          4539 4540 4541 4542 4543 4544
          4545 4546 4547 4548 4549 4550
          4551 4552 4553 4554 4555 4556
          4557 4558 4559 4560 4561 4562
          4563 4564 4565 4566 4567 4568
          4569 4570 4571 4572 4573 4574
          4575 4576 4577 4578 4579 4580
          4581 4582 4583 4584 4585 4586
          4587 4588 4589 4590 4591 4592
          4593 4594 4595 4596 4597 4598
          4599 4600 4601 4602 4603 4604
          4605 4606 4607 4608 4609 4610
          4611 4612 4613 4614 4615 4616
          4617 4618 4619 4620 4621 4622
          4623 4624 4625 4626 4627 4628
          4629 4630 4631 4632 4633 4634
          4635 4636 4637 4638 4639 4640
          4641 4642 4643 4644 4645 4646
          4647 4648 4649 4650 4651 4652
          4653 4654 4655 4660 4661 4662
          4666 4667 4668 4669 4670 4671
          4672 4673 4674 4675 4686 4687
          4688 4689 4690 4691 4692 4748
          4749 4750 4760 4761 4762 4763
          4764 4765 4766 4767 4768 4769
          4780 4781 4782 4783 4784 4785
          4786 4794 4795 4796 4797 4798
          4799 4800 4801 4802 4803 4814
          4815 4816 4817 4818 4819 4820
          4896 4897 4898 4899 4900 4901
          4902 4910 4911 4912 4913 4914
          4915 4916
        </DataArray>
        <DataArray type="Float64" Name="bounds" format="ascii" RangeMin="0" RangeMax="0">
          0 0 0 0 0 0
          0 0 0 0 0 0
          0 0 0 0 0 0
          0 0 0 0 0 0
          0 0 0 0 0 0
          0 0 0 0 0 0
          0 0 0 0 0 0
          0 0 0 0 0 0
          0 0 0 0 0 0
          0 0 0 0 0 0
          0 0 0 0 0 0
          0 0 0 0 0 0
          0 0 0 0 0 0
          0 0 0 0 0 0
          0 0 0 0 0 0
          0 0 0 0 0 0
          0 0 0 0 0 0
          0 0 0 0 0 0
          0 0 0 0 0 0
          0 0 0 0 0 0
          0 0 0 0 0 0
          0 0 0 0 0 0
          0 0 0 0 0 0
          0 0 0 0 0 0
          0 0 0 0 0 0
          0 0 0 0 0 0
          0 0 0 0 0 0
          0 0 0 0 0 0
          0 0 0 0 0 0
          0 0 0 0 0 0
          0 0 0 0 0 0
          0 0 0 0 0 0
          0 0 0 0 0 0
          0 0 0 0 0 0
          0 0 0 0 0 0
          0 0 0 0 0 0
          0 0 0 0 0 0
          0 0 0 0 0 0
          0 0 0 0 0 0
          0 0 0 0 0 0
          0 0 0 0 0 0
          0 0 0 0 0 0
          0 0 0 0 0 0
          0 0 0 0 0 0
          0 0 0 0 0 0
          0 0 0 0 0 0
          0 0 0 0 0 0
          0 0 0 0 0 0
          0 0 0 0 0 0
          0 0 0 0 0 0
          0 0 0 0 0 0
          0 0 0 0 0 0
          0 0 0 0 0 0
          0 0 0 0 0 0
          0 0 0 0 0 0
          0 0 0 0 0 0
          0 0 0 0 0 0
          0 0 0 0 0 0
          0 0 0 0 0 0
          0 0 0 0 0 0
          0 0 0 0 0 0
          0 0 0 0 0 0
          0 0 0 0 0 0
          0 0 0 0 0 0
          0 0 0 0 0 0
          0 0 0 0 0 0
          0 0 0 0 0 0
          0 0 0 0 0 0
          0 0 0 0 0 0
          0 0 0 0 0 0
          0 0 0 0 0 0
          0 0 0 0 0 0
          0 0 0 0 0 0
          0 0 0 0 0 0
          0 0 0 0 0 0
          0 0 0 0 0 0
          0 0 0 0 0 0
          0 0 0 0 0 0
          0 0 0 0 0 0
          0 0 0 0 0 0
          0 0 0 0 0 0
          0 0 0 0 0 0
          0 0 0 0 0 0
          0 0 0 0 0 0
          0 0 0 0 0 0
          0 0 0 0 0 0
          0 0 0 0 0 0
          0 0 0 0 0 0
          0 0 0 0 0 0
          0 0 0 0 0 0
          0 0 0 0 0 0
          0 0 0 0 0 0
          0 0 0 0 0 0
          0 0 0 0 0 0
          0 0 0 0 0 0
          0 0 0 0 0 0
          0 0 0 0 0 0
          0 0 0 0 0 0
          0 0 0 0 0 0
          0 0 0 0 0 0
          0 0 0 0 0 0
          0 0 0 0 0 0
          0 0 0 0 0 0
          0 0 0 0 0 0
          0 0 0 0 0 0
          0 0 0 0 0 0
          0 0 0 0 0 0
          0 0 0 0 0 0
          0 0 0 0 0 0
          0 0 0 0 0 0
          0 0 0 0 0 0
          0 0 0 0 0 0
          0 0 0 0 0 0
          0 0 0 0 0 0
          0 0 0 0 0 0
          0 0 0 0 0 0
          0 0
        </DataArray>
        <DataArray type="Float64" Name="gradient_error" format="ascii" RangeMin="2.6967202113363922e-9" RangeMax="5.00987594634162e-7">
          3.416258477404789e-8 9.955245487564654e-8 5.112578079476942e-9 3.9337106506202405e-8 6.066321363078897e-8 9.77411681865133e-8
          4.393538692876726e-7 3.2620767649568754e-7 1.0937197019510966e-7 4.476996110383808e-7 3.043525751469018e-7 9.752247726746752e-8
          1.0080421951863108e-7 1.0903730701982298e-7 3.2100446666466612e-9 5.00987594634162e-7 4.783482198724115e-7 7.853506743638432e-8
          2.420477515064386e-8 2.4397633731909106e-8 2.1011621422145423e-8 2.111924597161803e-8 2.0063491830338428e-8 1.7957977896056568e-8
          2.1358114173956753e-8 1.7628318125406152e-8 7.610008954091608e-8 3.908695800572377e-7 3.2651813832047704e-7 2.040077041020058e-7
          3.660094623654517e-7 5.559170187023314e-8 5.680785721280485e-8 3.7665187501911706e-7 3.10131176030054e-7 3.7836134640674206e-8
          3.5723640589955457e-7 2.8882986923409505e-7 5.8024012555376555e-8 2.43610477040991e-7 2.2042333256863559e-7 4.457826597300099e-7
          3.641935808431821e-7 3.573880483877989e-7 3.2636108574707537e-7 1.2222076565085854e-8 1.247935849471203e-7 4.0246246540391027e-7
          1.6108179834697198e-8 1.3304461475659202e-8 6.909011594143022e-8 1.5087845565980185e-8 7.625813997040201e-8 3.907198327235816e-7
          3.696172154579179e-7 4.0308343737471e-9 1.7954553519243496e-8 2.1151652928697125e-8 4.955607560162083e-7 2.2038286322251444e-7
          3.7307408775097496e-7 1.0714603289229971e-7 4.615014068180571e-7 2.548646290231139e-7 3.4153331018683006e-7 2.1989351320275584e-7
          3.019712605836237e-7 7.264147579900627e-8 7.758393771472615e-8 4.968160313712105e-8 4.2820199135054623e-7 3.840490079644916e-7
          8.252639963044603e-8 1.6925019107383095e-7 1.6502109414049558e-7 1.7182801195964858e-7 1.502786755717237e-7 1.2626482298774364e-7
          1.2902567335415102e-7 1.1276429203920009e-7 1.8500311185061932e-7 1.7920876218556277e-7 1.8727856893232457e-7 1.5992126996141722e-7
          2.034106138372189e-7 1.9592301319956183e-7 2.050853798786895e-7 1.6999125247231094e-7 1.3042466141555912e-7 1.3098000028644547e-7
          1.1442119542879e-7 1.3104408114888827e-7 1.3048461856808508e-7 1.1054106991505943e-7 9.54064246217279e-8 1.3093015916847876e-7
          9.97675988789263e-8 1.1644115941644867e-7 1.6259444928107554e-7 1.4858529590029564e-7 1.2053495459973147e-8 5.4258171417623024e-8
          3.604911134369779e-8 1.3854494630258345e-7 1.4377231392209295e-7 1.4790202772076941e-7 1.2905240420741695e-7 1.3184612483682072e-7
          1.7081155899307775e-7 1.7759518259807132e-7 1.6083375035301383e-7 5.519715701697925e-9 7.957070504729565e-9 6.1774894069025965e-9
          8.800687265073002e-9 5.8895342480455956e-8 6.161575898029648e-8 2.860352834506085e-9 6.6656825996833136e-9 7.525567823554708e-9
          1.5591207280299964e-8 1.4370480579934606e-7 1.5024532342209646e-7 1.8334217723462946e-7 1.9093508025954655e-7 1.0724524673427258e-7
          1.1232164993452988e-7 1.9035737013886502e-7 1.0433693857629854e-7 1.0162601238710642e-7 1.0929052142381043e-7 1.063553247615078e-7
          1.3403999309350588e-7 1.3884428520901194e-7 1.2659031915128799e-8 1.676619823981314e-8 1.7312314908130106e-8 8.774630919476132e-8
          1.146947849519823e-7 1.1140571882539919e-7 1.2051431161586014e-7 1.1681072608719217e-7 1.4400128527083955e-7 1.4942663647562913e-7
          1.4064257381058231e-8 1.8071154542563582e-8 1.9118569867431753e-8 7.248042357138727e-8 1.512311836064757e-7 1.541114068611155e-7
          1.33258081334007e-7 1.3370145129810328e-7 1.6158302201167868e-7 1.4479565919739804e-7 1.7102104296949046e-7 1.5692157226662764e-7
          1.5952764600080924e-7 1.3358720309163662e-7 1.3276423611281832e-7 1.498240189249171e-7 1.54947628699599e-7 1.8068081231328295e-7
          6.885221250622117e-9 9.806808735024238e-9 7.662286646050867e-9 1.0946178290753987e-8 4.1604061655482524e-8 2.048786948487153e-8
          3.5962784725892485e-9 8.442979109047241e-9 9.447883984580666e-9 1.68546429834344e-8 8.540168541185177e-9 1.2256147359653031e-8
          9.53057260700629e-9 1.375166664208493e-8 2.1653784309655572e-8 2.315291626598916e-8 4.5290898786730844e-9 1.0592020225277963e-8
          1.1926910927327379e-8 1.9408502898956698e-8 1.3437026598920757e-7 1.178972616955966e-7 1.989652520169123e-7 2.0727676270471068e-7
          1.1765401792642598e-7 1.2318221382114275e-7 2.079833853340677e-7 1.2310963931021595e-7 1.2845997943825517e-7 2.1581224251228926e-7
          2.2438562142457207e-7 1.2890652787528418e-7 1.3493367920477782e-7 2.2689619666622637e-7 2.2497160255950822e-7 2.1483167545634235e-7
          1.7970820845843795e-7 1.2919351998743254e-7 1.2676052433373755e-7 1.225587177453535e-7 1.5504533398877707e-7 1.6519870721695417e-8
          2.052815665754209e-8 8.034538334032448e-8 1.6175587517977155e-7 1.5995256184599033e-7 1.8845985398318405e-7 1.065943530470442e-8
          1.5500695994844567e-8 2.5050687377062354e-8 5.809533196172623e-9 1.3518527935225298e-8 2.318086693155043e-8 1.337268347399815e-7
          2.3263191554752273e-7 1.411178777600938e-7 2.4672871754950076e-7 2.131987695947235e-8 2.2130976317175336e-8 2.1884518511108467e-8
          2.246839704414606e-8 2.16380607050416e-8 2.2971063148034758e-8 1.8748327864377315e-8 1.929391721980031e-8 1.9839506575223303e-8
          1.2054774706804918e-8 1.313764109287797e-8 1.3146036399175537e-8 1.4781071613949794e-8 1.888897718403463e-8 1.9522331508786566e-8
          1.905413991366323e-8 1.9747741706207995e-8 2.01556858335385e-8 2.1280270480015774e-8 1.2105576221894134e-8 1.3191221387398484e-8
          1.329008745122325e-8 1.4853969085766503e-8 1.777795801874701e-8 1.797693782528937e-8 2.2994314844168637e-8 2.3030505245795482e-8
          1.817005650708894e-8 1.9871393917377987e-8 2.0331938862684038e-8 6.977941593130977e-9 7.722737948577862e-9 7.308220915166437e-9
          7.979699619355452e-9 1.0603461490922638e-8 1.0747827336648886e-8 5.198628886374504e-9 5.840138210887586e-9 6.197973189195911e-9
          7.606183735955105e-9 7.695859719144083e-9 8.295241776549721e-9 8.116778264465143e-9 8.68575406299053e-9 1.0942868836518243e-8
          1.1171293420494467e-8 5.8438159047597976e-9 6.572842981691525e-9 6.962915335577071e-9 8.355444506891988e-9 1.5567927719039093e-8
          1.5729817701457435e-8 1.8615159053161564e-8 1.171490775490346e-8 1.1893583557777754e-8 1.591357391017898e-8 1.6093099296389986e-8
          1.883603398127684e-8 1.9098341613306953e-8 1.2127158947060584e-8 1.2418386531931635e-8 1.7271875275927617e-8 3.5196675791867885e-9
          4.52283260190345e-9 3.7281678841927895e-9 4.795488145476108e-9 6.594915438302908e-9 6.999438374362665e-9 2.6967202113363922e-9
          3.893051232505421e-9 4.130313833048491e-9 6.266093178160253e-9 3.945657020243496e-9 5.078482037257492e-9 4.172315370001804e-9
          5.373655250100591e-9 7.4280908049344e-9 7.881926491548127e-9 3.0312272763612217e-9 4.379463395899075e-9 4.639899420851527e-9
          7.0867321214892555e-9 9.576415608113966e-9 9.865399901290196e-9 1.6293380436878638e-8 9.080913125752185e-9 9.426330264650387e-9
          1.022529922776417e-8 1.0654510917219589e-8 1.6534288954491372e-8 1.680667362843546e-8 9.853371874676196e-9 1.0360139757440166e-8
          1.583082954502615e-8 2.2749220613151717e-8 2.327235934844436e-8 2.381669334611244e-8 2.4419690747026768e-8 2.2473102238764613e-8
          2.3954175064386442e-8 2.2196983864377503e-8 2.29433305445093e-8 2.343032562127754e-8 2.4623807079966876e-8 2.5367467967226464e-8
          2.261430174057424e-8 2.304395789644264e-8 2.4827923412906983e-8 2.3181353749008985e-8 2.3054066800269532e-8 2.3630011773182577e-8
          2.3290274170713174e-8 2.417951910318618e-8 2.4203701819066123e-8 2.479644439980116e-8 2.473970361391236e-8 2.3515180078409235e-8
          2.4417127514270618e-8 2.3376591666922194e-8 2.511692887333503e-8 2.581479667627185e-8 2.4982335053791406e-8 1.926398134495408e-8
          1.9973736371779346e-8 1.9527839517617476e-8 2.0243913272725512e-8 2.1867886589476517e-8 2.2184976890727203e-8 1.24074928143257e-8
          1.3452749196917082e-8 1.3669234859126619e-8 1.6740232866491144e-8 1.984809473997802e-8 2.057178993247533e-8 2.021002585392245e-8
          2.0939594285486814e-8 2.2619471831253574e-8 2.30782674420772e-8 1.296444671026034e-8 1.3941846861708077e-8 1.4271787704237379e-8
          1.7006767997007886e-8 2.3339026972819927e-8 2.399951785624554e-8 2.3625772165291435e-8 2.4589068958870226e-8 2.0772040034082593e-8
          2.1072053079548926e-8 2.2561619914691353e-8 2.463278898309929e-8 2.5276673485489315e-8 2.532211942866408e-8 2.6065974803875403e-8
          2.149530165324659e-8 2.1957318385416728e-8 2.473490683811955e-8 2.5327057193930788e-8 2.5423975354099293e-8 2.6102596090065155e-8
          2.6139511817906294e-8 2.6658351320258733e-8 2.6825975601420263e-8 2.7549281440179442e-8 2.7695841805337606e-8 2.654038740802157e-8
          2.7304229213652204e-8 2.6322644694498353e-8 2.811796118112729e-8 2.8977939655144145e-8 2.783783863416115e-8 2.058738577610096e-8
          2.133412131776628e-8 2.097753240480265e-8 2.1756973149916423e-8 2.3562382041017533e-8 2.4084696585324197e-8 1.3667399057742094e-8
          1.4648235592488319e-8 1.5070989475241963e-8 1.766428147325085e-8 2.1402481484824265e-8 2.222160470165161e-8 2.1881548561042882e-8
          2.273577359870366e-8 2.4661639252879665e-8 2.5296649132458938e-8 1.4527840997740101e-8 1.5550660914908545e-8 1.6104736364898352e-8
          1.8550011418253928e-8 2.5938704749681882e-8 2.663186217527445e-8 2.683350227676029e-8 2.76307450749307e-8 2.2442821826448287e-8
          2.2965453959734823e-8 2.622805715993702e-8 2.7369956085602584e-8 2.8151668645281312e-8 2.845736158392479e-8 2.9300037662009187e-8
          2.3562645820212526e-8 2.423770513675031e-8 2.77947606187629e-8 2.573941784098983e-8 2.635703762385816e-8 2.740418885927484e-8
          2.6301983384624123e-8 2.824595594489193e-8 2.9096961775037324e-8 2.818004607723165e-8 2.9998786638155067e-8 3.0941502347746604e-8
          2.981079069200979e-8 8.548966556370988e-9 9.142671454147586e-9 8.99273211893782e-9 9.612136641896188e-9 1.1432620545993668e-8
          1.1774296139802088e-8 6.524560057275128e-9 7.363399845627537e-9 7.779254051237251e-9 9.287487295205701e-9 9.452775466803195e-9
          1.00870536744891e-8 9.938564117579857e-9 1.060091780144445e-8 1.2213666332817893e-8 1.2716927478945645e-8 7.262741012525104e-9
          8.213315612489458e-9 8.670980770876995e-9 1.0357017704669928e-8 1.628133476868548e-8 1.6499822277529298e-8 1.9433804797307806e-8
          2.176609623204358e-8 1.2771087511842507e-8 1.3171748048812703e-8 1.773533039326111e-8 1.6746089133071234e-8 1.70927709131308e-8
          2.2989956729664285e-8 2.3419908354981246e-8 1.3622335150784028e-8 1.4156241877635053e-8 2.0153948852584632e-8 4.408797688146704e-9
          5.682733174356446e-9 4.657203416479118e-9 6.0061978215546736e-9 8.360988578927388e-9 8.856854793156756e-9 3.398031686732904e-9
          4.911917115207994e-9 5.197505878442443e-9 7.977276934688272e-9 4.9193815992820206e-9 6.3475671157299115e-9 5.197461114882273e-9
          6.710046911174039e-9 9.36609974446632e-9 9.903280565497093e-9 3.806609063369405e-9 5.498794677927499e-9 5.819136646180699e-9
          8.93120079980758e-9 1.1150397705004016e-8 1.1735453678162777e-8 1.7117982601026673e-8 1.749956228114121e-8 1.0940083722759416e-8
          1.156485785288135e-8 1.6442630826608467e-8 1.2402204733171354e-8 1.309357333046584e-8 1.797772626583655e-8 1.8539689347104152e-8
          1.2209963217287492e-8 1.288411825579649e-8 1.735605993042145e-8 1.0473052175155338e-8 1.117251816523e-8 1.1071674567244497e-8
          1.1807150297042655e-8 1.327264482694965e-8 1.3889766159433449e-8 8.087561469067189e-9 9.161520134774447e-9 9.68573513921576e-9
          1.1579091908004241e-8 1.1731625308203933e-8 1.249595510164254e-8 1.2439839968878365e-8 1.3227181428180764e-8 1.4574116082062722e-8
          1.5329503176115275e-8 9.020443734989371e-9 1.024227753226722e-8 1.0834609787284133e-8 1.2978718994888478e-8 1.7548371537373847e-8
          1.8073368442201617e-8 2.4002279138095922e-8 2.4644117731443794e-8 1.478290921562348e-8 1.5485930950674196e-8 2.1025563663700963e-8
          1.8688941694572523e-8 1.9405649870702696e-8 2.535687140039019e-8 2.6137454799895994e-8 1.6261092363210996e-8 1.7116705793336752e-8
          2.235955407778974e-8 5.493452097912562e-9 7.096267107465233e-9 5.809241922905653e-9 7.509780881137187e-9 1.0477639564911803e-8
          1.1093061495716227e-8 4.270801850788367e-9 6.1623263722981976e-9 6.531763337211935e-9 9.999074285341499e-9 6.147622028787057e-9
          7.954194837790486e-9 6.511999681302324e-9 8.434418991975781e-9 1.175702718085165e-8 1.247557581245358e-8 4.80853685791283e-9
          6.9316567863974866e-9 7.366774293175997e-9 1.1232262399965664e-8 1.3808006227782987e-8 1.4577875704832629e-8 1.9180015201942275e-8
          1.9902232846035973e-8 1.3598315537512323e-8 1.4359213610147144e-8 1.864355554228004e-8 1.5412269645671715e-8 1.6315476700662898e-8
          2.070159230681169e-8 2.158148686938108e-8 1.5176897303719315e-8 1.6058828917975536e-8 2.0244120597524137e-8 2.603251470940192e-8
          2.6131927603291043e-8 2.4375298449460643e-8 2.5389279405533765e-8 2.5883485853645065e-8 2.6486993209650315e-8 2.7348162764492978e-8
          2.678025044265375e-8 2.787146717270281e-8 2.6045732501609633e-8 2.6696848793380162e-8 2.7478092402732005e-8 2.393297005369864e-8
          2.4458418088119124e-8 2.616546181806339e-8 2.7030101610598097e-8 2.3490641657936637e-8 2.3995722856844602e-8 2.6447437782481713e-8
          2.503511902962863e-8 2.5688205023013664e-8 2.796274813717204e-8 2.8900249589222324e-8 2.4595721851480464e-8 2.5274849128978115e-8
          2.8227828969563447e-8 2.8156959457855678e-8 2.8990054159419718e-8 2.8732798215672566e-8 2.9601703448329004e-8 2.74301172509093e-8
          2.821186790408257e-8 2.9452220590136863e-8 2.9878999366970184e-8 3.081397667449367e-8 3.053419205326074e-8 3.1519860025853353e-8
          2.9066435355574078e-8 2.998572235692548e-8 3.144262062175878e-8 2.640382962689686e-8 2.7186554961373072e-8 2.9807444292669464e-8
          3.0748592488275724e-8 2.6015387722794545e-8 2.683252065838311e-8 2.999599775917869e-8 2.805687586133929e-8 2.900672641582479e-8
          3.178181968548925e-8 3.288711917195529e-8 2.774009310731573e-8 2.872845911903934e-8 3.193599154197264e-8 2.794193232339849e-8
          2.8249378698858508e-8 2.895107327789895e-8 2.9387755545917336e-8 2.988298674819623e-8 3.086593616786643e-8 2.9547287478876322e-8
          2.2429822714963394e-8 2.3308899279876125e-8 2.3060310740896803e-8 2.3954056174508175e-8 2.5985183762392998e-8 2.672953817292496e-8
          1.5752291958602848e-8 1.6749455016989045e-8 1.7494421292313356e-8 1.978086956671562e-8 2.897389549350544e-8 2.9849339122396715e-8
          3.0165399307013746e-8 3.1087403507063064e-8 2.4976123267963767e-8 2.5766152992229065e-8 2.948584471512529e-8 3.191504188041151e-8
          3.29392055337425e-8 3.164680057119024e-8 1.3184519282720825e-8 1.4001297088677665e-8 1.3963872818202165e-8 1.483234533591071e-8
          1.6164026706702028e-8 1.7095746917827896e-8 1.0074935549333489e-8 1.1470820927183448e-8 1.2159147946455806e-8 1.4587355724855172e-8
          2.022062211959362e-8 2.112940628115393e-8 2.698498907035413e-8 2.791067801224682e-8 1.806215829281368e-8 1.9102511671703144e-8
          2.4046957233224477e-8 6.9063193914146726e-9 8.955989449655013e-9 7.334612119370634e-9 9.524958960296976e-9 1.3255564741703354e-8
          1.4105711546428794e-8 5.444935438926614e-9 7.842441049214111e-9 8.36450918599445e-9 1.268534429253784e-8 1.7294121140796544e-8
          1.836204984644346e-8 2.2546727979366393e-8 2.359742101524286e-8 1.7017727638040094e-8 1.8078325004257362e-8 2.2132508127879753e-8
          3.1788112997046726e-8 3.282649410080523e-8 3.2537513573802886e-8 3.359976875738816e-8 3.096416176413121e-8 3.2030318372320325e-8
          3.3650720502763895e-8 3.002503260995211e-8 3.113085016836317e-8 3.403938156725316e-8 3.529484070749328e-8 2.9782925805323723e-8
          3.0914846259953644e-8 3.420554870539407e-8
        </DataArray>
        <DataArray type="Float64" Name="gradient_matprop_error" format="ascii" RangeMin="0" RangeMax="0">
          0 0 0 0 0 0
          0 0 0 0 0 0
          0 0 0 0 0 0
          0 0 0 0 0 0
          0 0 0 0 0 0
          0 0 0 0 0 0
          0 0 0 0 0 0
          0 0 0 0 0 0
          0 0 0 0 0 0
          0 0 0 0 0 0
          0 0 0 0 0 0
          0 0 0 0 0 0
          0 0 0 0 0 0
          0 0 0 0 0 0
          0 0 0 0 0 0
          0 0 0 0 0 0
          0 0 0 0 0 0
          0 0 0 0 0 0
          0 0 0 0 0 0
          0 0 0 0 0 0
          0 0 0 0 0 0
          0 0 0 0 0 0
          0 0 0 0 0 0
          0 0 0 0 0 0
          0 0 0 0 0 0
          0 0 0 0 0 0
          0 0 0 0 0 0
          0 0 0 0 0 0
          0 0 0 0 0 0
          0 0 0 0 0 0
          0 0 0 0 0 0
          0 0 0 0 0 0
          0 0 0 0 0 0
          0 0 0 0 0 0
          0 0 0 0 0 0
          0 0 0 0 0 0
          0 0 0 0 0 0
          0 0 0 0 0 0
          0 0 0 0 0 0
          0 0 0 0 0 0
          0 0 0 0 0 0
          0 0 0 0 0 0
          0 0 0 0 0 0
          0 0 0 0 0 0
          0 0 0 0 0 0
          0 0 0 0 0 0
          0 0 0 0 0 0
          0 0 0 0 0 0
          0 0 0 0 0 0
          0 0 0 0 0 0
          0 0 0 0 0 0
          0 0 0 0 0 0
          0 0 0 0 0 0
          0 0 0 0 0 0
          0 0 0 0 0 0
          0 0 0 0 0 0
          0 0 0 0 0 0
          0 0 0 0 0 0
          0 0 0 0 0 0
          0 0 0 0 0 0
          0 0 0 0 0 0
          0 0 0 0 0 0
          0 0 0 0 0 0
          0 0 0 0 0 0
          0 0 0 0 0 0
          0 0 0 0 0 0
          0 0 0 0 0 0
          0 0 0 0 0 0
          0 0 0 0 0 0
          0 0 0 0 0 0
          0 0 0 0 0 0
          0 0 0 0 0 0
          0 0 0 0 0 0
          0 0 0 0 0 0
          0 0 0 0 0 0
          0 0 0 0 0 0
          0 0 0 0 0 0
          0 0 0 0 0 0
          0 0 0 0 0 0
          0 0 0 0 0 0
          0 0 0 0 0 0
          0 0 0 0 0 0
          0 0 0 0 0 0
          0 0 0 0 0 0
          0 0 0 0 0 0
          0 0 0 0 0 0
          0 0 0 0 0 0
          0 0 0 0 0 0
          0 0 0 0 0 0
          0 0 0 0 0 0
          0 0 0 0 0 0
          0 0 0 0 0 0
          0 0 0 0 0 0
          0 0 0 0 0 0
          0 0 0 0 0 0
          0 0 0 0 0 0
          0 0 0 0 0 0
          0 0 0 0 0 0
          0 0 0 0 0 0
          0 0 0 0 0 0
          0 0 0 0 0 0
          0 0 0 0 0 0
          0 0 0 0 0 0
          0 0 0 0 0 0
          0 0 0 0 0 0
          0 0 0 0 0 0
          0 0 0 0 0 0
          0 0 0 0 0 0
          0 0 0 0 0 0
          0 0 0 0 0 0
          0 0 0 0 0 0
          0 0 0 0 0 0
          0 0 0 0 0 0
          0 0 0 0 0 0
          0 0 0 0 0 0
          0 0 0 0 0 0
          0 0
        </DataArray>
        <DataArray type="Float64" Name="initial_marker" format="ascii" RangeMin="0" RangeMax="2">
          1 0 2 0 1 0
          2 1.25 0 2 1.5 0
          0 0 2 2 2 0
          0 0 0 0 0 0
          0 0 1 2 1.5 0.6666666666666666
          2 2 1 2 1.5 1
          2 1.5 0 1 1 2
          2 2 2 2 2 1.75
          2 2 2 2 2 2
          2 2 2 2 2 0.3333333333333333
          0.75 0 1 1 1 1
          1 0 0 0 1 1
          0 2 2 2 2 2
          2 2 2 2 2 2
          2 2 2 2 2 2
          2 2 2 2 2 2
          2 2 2 2 2 2
          2 2 2 2 2 2
          2 2 2 2 2 2
          2 2 2 2 2 2
          2 2 2 2 2 2
          2 2 2 2 2 2
          2 2 2 2 2 2
          2 2 2 2 2 2
          2 2 2 2 2 2
          2 2 2 2 2 2
          2 2 2 2 2 2
          2 2 2 2 2 2
          2 2 2 2 2 2
          2 2 2 2 2 2
          2 2 2 2 2 2
          2 2 2 2 2 2
          2 2 2 2 2 2
          2 2 2 2 2 2
          2 2 2 2 2 2
          2 2 2 2 2 2
          2 2 2 2 2 2
          2 2 2 2 2 2
          2 2 2 2 2 2
          2 2 2 2 2 2
          2 2 2 2 2 2
          2 2 2 2 2 2
          2 2 2 2 2 2
          2 2 2 2 2 2
          2 2 2 2 2 2
          2 2 2 2 2 2
          2 2 2 2 2 2
          2 2 2 2 2 2
          2 2 2 2 2 2
          2 2 2 2 2 2
          2 2 2 2 2 2
          2 2 2 2 2 2
          2 2 2 2 2 2
          2 2 2 2 2 2
          2 2 2 2 2 2
          2 2 2 2 2 2
          2 2 2 2 2 2
          2 2 2 2 2 2
          2 2 2 2 2 2
          2 2 2 2 2 2
          2 2 2 2 2 2
          2 2 2 2 2 2
          2 2 2 2 2 2
          2 2 2 2 2 2
          2 2 2 2 2 2
          2 2 2 2 2 2
          2 2 2 2 2 2
          2 2 2 2 2 2
          2 2 2 2 2 2
          2 2 2 2 2 2
          2 2 2 2 2 2
          2 2 2 2 2 2
          2 2 2 2 2 2
          2 2 2 2 2 2
          2 2 2 2 2 2
          2 2 2 2 2 2
          2 2 2 2 2 2
          2 2 2 2 2 2
          2 2 2 2 2 2
          2 2 2 2 2 2
          2 2 2 2 2 2
          2 2 2 2 2 2
          2 2 2 2 2 2
          2 2 2 2 2 2
          2 2 2 2 2 2
          2 2 2 2 2 2
          2 2 2 2 2 2
          2 2 2 2 2 2
          2 2 2 2 2 2
          2 2 2 2 2 2
          2 2 2 2 2 2
          2 2 2 2 2 2
          2 2 2 2 2 2
          2 2 2 2 2 2
          2 2 2 2 2 2
          2 2 2 2 2 2
          2 2 2 2 2 2
          2 2 2 2 2 2
          2 2 2 2 2 2
          2 2 2 2 2 2
          2 2 2 2 2 2
          2 2 2 2 2 2
          2 2 2 2 2 2
          2 2 2 2 2 2
          2 2 2 2 2 2
          2 2 2 2 2 2
          2 2 2 2 2 2
          2 2 2 2 2 2
          2 2 2 2 2 2
          2 2 2 2 2 2
          2 2 2 2 2 2
          2 2 2 2 2 2
          2 2 2 2 2 2
          2 2 2 2 2 2
          2 2 2 2 2 2
          2 2 2 2 2 2
          2 2
        </DataArray>
        <DataArray type="Float64" Name="markers_norefine" format="ascii" RangeMin="0" RangeMax="2">
          0 0 2 0 0 0
          0 0 0 0 0 0
          0 0 2 0 0 0
          0 0 0 0 0 0
          0 0 0 0 0 0
          0 0 0 0 0 0
          0 0 0 0 0 0
          0 0 0 2 0.5 0
          2 2 0.5 2 0.5 0
          0 2 2 2 0 0
          0 0 0 0 0 0
          0 0 0 0 0 0
          0 0 0 0 0 0
          0 0 0 0 0 0
          0 0 0 0 0 0
          0 0 0 0 0 0
          0 0 0 0 2 1.5
          1.5 0.25 0 0 0 0
          0 0 0 2 2 2