<?xml version="1.0"?>
<VTKFile type="UnstructuredGrid" version="0.1" byte_order="LittleEndian" header_type="UInt32" compressor="vtkZLibDataCompressor">
  <UnstructuredGrid>
    <Piece NumberOfPoints="890" NumberOfCells="462">
      <PointData>
        <DataArray type="Int32" Name="libmesh_node_id" format="ascii" RangeMin="72" RangeMax="6285">
          76 77 78 79 80 81
          82 83 84 85 86 87
          88 89 90 91 92 93
          94 95 96 97 98 99
          100 101 102 103 104 105
          106 107 108 109 110 111
          112 113 114 115 116 117
          118 119 158 159 160 161
          162 163 164 165 166 167
          168 169 170 171 172 173
          174 175 176 177 178 179
          218 219 220 221 222 223
          224 225 226 227 228 229
          230 231 232 233 234 235
          236 237 238 239 259 260
          261 262 263 264 265 266
          267 268 269 312 313 314
          315 316 317 318 319 320
          321 322 323 324 325 326
          327 328 329 351 352 353
          354 355 356 357 358 359
          402 403 404 405 406 407
          408 409 410 411 412 413
          414 415 416 417 418 419
          441 442 443 444 445 446
          447 448 449 492 493 494
          495 496 497 498 499 500
          501 502 503 504 505 506
          507 508 509 531 532 533
          534 535 536 537 538 539
          583 584 585 586 587 588
          589 590 591 592 593 594
          595 596 597 598 599 621
          622 623 624 625 626 627
          628 629 719 720 722 723
          726 727 728 732 733 734
          735 736 737 738 739 740
          741 742 744 745 746 906
          907 908 909 913 914 988
          989 990 991 992 993 994
          995 996 997 1036 1037 1038
          1039 1040 1041 1042 1043 1044
          1045 1198 1199 1200 1201 1202
          1203 1204 1205 1206 1207 1208
          1209 1210 1211 1212 1213 1214
          1215 1216 1217 1218 1219 1220
          1222 1223 1224 1225 1227 1232
          1235 1237 1813 1814 1815 1816
          1817 1818 1819 1820 1821 1822
          1823 1824 1825 1826 1827 1828
          1829 1830 1834 1835 1837 1838
          1844 1861 1862 1863 1865 1866
          1868 1870 2039 2041 2043 2044
          2045 2048 2289 2290 2291 2292
          2293 2294 2295 2296 2297 2298
          2299 2300 2303 2304 2305 2320
          2321 2322 2357 2358 2359 2360
          2361 2362 2363 2364 2365 2368
          2369 2371 2372 2375 2378 2978
          2979 2980 2981 2982 2987 2988
          2989 2992 2997 2998 2999 3001
          3003 3004 3005 3006 3007 3008
          3009 3010 3011 3012 3013 3014
          3015 3016 3031 3032 3033 3034
          3035 3036 3037 3038 3039 3040
          3051 3052 3053 3054 3055 3056
          3057 3058 3059 3060 3083 3084
          3086 3099 3101 3139 3140 3143
          3159 3161 3207 3208 3209 3214
          3215 3218 3219 3493 3494 3495
          3496 3497 3498 3499 3500 3501
          3502 3548 3549 3550 3551 3552
          3553 3554 3555 3556 3557 3562
          3563 3564 5252 5253 5254 5255
          5256 5257 5258 5259 5260 5261
          5262 5263 5264 5265 5266 5267
          5268 5269 5270 5271 5272 5273
          5274 5275 5276 5277 5278 5279
          5280 5281 5282 5283 5284 5285
          5286 5287 5288 5292 5293 5313
          5314 5317 5318 5333 5334 5335
          5336 5337 5338 5339 5340 5341
          5342 5343 5344 5345 5346 5347
          5348 5349 5350 5351 5352 5353
          5354 5355 5356 5357 5358 5359
          5360 5361 5362 5363 5364 5365
          5366 5367 5368 5369 5370 5371
          5372 5373 5374 5375 5376 5377
          5378 5379 5380 5449 5450 5451
          5452 5453 5454 5455 5456 5457
          5458 5459 5460 5461 5462 5463
          5464 5465 5466 5467 5468 5469
          5470 5471 5472 5473 5474 5475
          5476 5477 5478 5479 5480 5481
          5482 5483 5484 5485 5486 5491
          5492 5496 5509 5513 5521 5522
          5525 5526 5528 5530 5817 5818
          5819 5822 5824 5825 5828 5834
          5835 5836 5837 5839 5865 5944
          5945 5946 5947 5949 5951 5953
          5954 5955 5956 5957 5959 5961
          5963 5964 5965 5967 5969 5974
          5975 5977 5979 6272 6273 6274
          6276 6277 6280 6281 72 73
          74 75 156 157 216 217
          258 306 308 309 307 310
          311 349 348 350 400 401
          440 491 530 709 711 714
          725 724 743 731 982 983
          984 987 490 1028 1029 1032
          581 1034 620 1172 1173 1174
          1177 710 896 910 920 924
          921 927 1190 901 1191 915
          1221 1194 717 919 1196 730
          1226 1228 1229 1230 1233 1234
          1231 926 1236 929 1239 1240
          1241 1763 1764 1765 1768 1805
          1806 1809 1864 1867 1811 1869
          1871 1875 1872 1876 928 2040
          2042 2046 2047 898 2301 1836
          2302 1873 2316 2317 2318 2319
          2323 2325 2324 2366 2367 2370
          721 1831 2373 2374 2376 2377
          2379 2380 3017 3018 3019 3020
          3024 3025 3061 3065 3062 3066
          3148 3163 3103 3165 1846 1840
          3216 3162 3217 3220 3221 3210
          3223 3222 3503 3504 3507 3508
          3030 3558 3559 3560 3561 3070
          3224 3228 3226 5289 5290 5291
          5294 5295 5296 3027 5297 5298
          3028 5315 5316 5319 5320 5321
          5322 5381 5382 5385 5387 5388
          5390 5401 5403 5405 5407 5415
          5416 5419 5421 5422 5424 5435
          5437 5439 5441 5487 5488 5489
          5490 5493 5494 5495 5507 5508
          5510 5511 5512 3068 5523 5524
          5527 5529 5826 5827 5829 5830
          5831 3141 5832 5833 3142 5838
          5840 5841 5842 5843 3144 5876
          5877 5880 5896 5898 5948 5950
          5952 3160 5958 5960 5962 5871
          5872 5968 5970 5875 5971 5966
          1852 5972 5973 3164 5978 5980
          5981 5976 5982 5983 1855 5984
          5986 5985 5987 5998 5999 6000
          6001 6278 6279 6282 6283 6275
          6284 6285
        </DataArray>
        <DataArray type="Float64" Name="bounds" format="ascii" RangeMin="0" RangeMax="0">
          0 0 0 0 0 0
          0 0 0 0 0 0
          0 0 0 0 0 0
          0 0 0 0 0 0
          0 0 0 0 0 0
          0 0 0 0 0 0
          0 0 0 0 0 0
          0 0 0 0 0 0
          0 0 0 0 0 0
          0 0 0 0 0 0
          0 0 0 0 0 0
          0 0 0 0 0 0
          0 0 0 0 0 0
          0 0 0 0 0 0
          0 0 0 0 0 0
          0 0 0 0 0 0
          0 0 0 0 0 0
          0 0 0 0 0 0
          0 0 0 0 0 0
          0 0 0 0 0 0
          0 0 0 0 0 0
          0 0 0 0 0 0
          0 0 0 0 0 0
          0 0 0 0 0 0
          0 0 0 0 0 0
          0 0 0 0 0 0
          0 0 0 0 0 0
          0 0 0 0 0 0
          0 0 0 0 0 0
          0 0 0 0 0 0
          0 0 0 0 0 0
          0 0 0 0 0 0
          0 0 0 0 0 0
          0 0 0 0 0 0
          0 0 0 0 0 0
          0 0 0 0 0 0
          0 0 0 0 0 0
          0 0 0 0 0 0
          0 0 0 0 0 0
          0 0 0 0 0 0
          0 0 0 0 0 0
          0 0 0 0 0 0
          0 0 0 0 0 0
          0 0 0 0 0 0
          0 0 0 0 0 0
          0 0 0 0 0 0
          0 0 0 0 0 0
          0 0 0 0 0 0
          0 0 0 0 0 0
          0 0 0 0 0 0
          0 0 0 0 0 0
          0 0 0 0 0 0
          0 0 0 0 0 0
          0 0 0 0 0 0
          0 0 0 0 0 0
          0 0 0 0 0 0
          0 0 0 0 0 0
          0 0 0 0 0 0
          0 0 0 0 0 0
          0 0 0 0 0 0
          0 0 0 0 0 0
          0 0 0 0 0 0
          0 0 0 0 0 0
          0 0 0 0 0 0
          0 0 0 0 0 0
          0 0 0 0 0 0
          0 0 0 0 0 0
          0 0 0 0 0 0
          0 0 0 0 0 0
          0 0 0 0 0 0
          0 0 0 0 0 0
          0 0 0 0 0 0
          0 0 0 0 0 0
          0 0 0 0 0 0
          0 0 0 0 0 0
          0 0 0 0 0 0
          0 0 0 0 0 0
          0 0 0 0 0 0
          0 0 0 0 0 0
          0 0 0 0 0 0
          0 0 0 0 0 0
          0 0 0 0 0 0
          0 0 0 0 0 0
          0 0 0 0 0 0
          0 0 0 0 0 0
          0 0 0 0 0 0
          0 0 0 0 0 0
          0 0 0 0 0 0
          0 0 0 0 0 0
          0 0 0 0 0 0
          0 0 0 0 0 0
          0 0 0 0 0 0
          0 0 0 0 0 0
          0 0 0 0 0 0
          0 0 0 0 0 0
          0 0 0 0 0 0
          0 0 0 0 0 0
          0 0 0 0 0 0
          0 0 0 0 0 0
          0 0 0 0 0 0
          0 0 0 0 0 0
          0 0 0 0 0 0
          0 0 0 0 0 0
          0 0 0 0 0 0
          0 0 0 0 0 0
          0 0 0 0 0 0
          0 0 0 0 0 0
          0 0 0 0 0 0
          0 0 0 0 0 0
          0 0 0 0 0 0
          0 0 0 0 0 0
          0 0 0 0 0 0
          0 0 0 0 0 0
          0 0 0 0 0 0
          0 0 0 0 0 0
          0 0 0 0 0 0
          0 0 0 0 0 0
          0 0 0 0 0 0
          0 0 0 0 0 0
          0 0 0 0 0 0
          0 0 0 0 0 0
          0 0 0 0 0 0
          0 0 0 0 0 0
          0 0 0 0 0 0
          0 0 0 0 0 0
          0 0 0 0 0 0
          0 0 0 0 0 0
          0 0 0 0 0 0
          0 0 0 0 0 0
          0 0 0 0 0 0
          0 0 0 0 0 0
          0 0 0 0 0 0
          0 0 0 0 0 0
          0 0 0 0 0 0
          0 0 0 0 0 0
          0 0 0 0 0 0
          0 0 0 0 0 0
          0 0 0 0 0 0
          0 0 0 0 0 0
          0 0 0 0 0 0
          0 0 0 0 0 0
          0 0 0 0 0 0
          0 0 0 0 0 0
          0 0 0 0 0 0
          0 0 0 0 0 0
          0 0 0 0 0 0
          0 0 0 0 0 0
          0 0 0 0 0 0
          0 0
        </DataArray>
        <DataArray type="Float64" Name="gradient_error" format="ascii" RangeMin="1.7015382650590827e-15" RangeMax="3.161587192573418e-7">
          9.541882980466345e-12 6.4801188583516725e-12 2.3424940262809498e-11 1.6272058290388728e-11 4.040280510273707e-12 3.425010428207548e-12
          1.0326271796608473e-11 8.721371091236848e-12 1.3347181083128535e-12 1.3123612259219285e-12 3.69115243645766e-12 3.4641957922227018e-12
          2.6079531884026444e-14 2.975732419071926e-14 1.274167676300678e-13 1.2479284435222363e-13 1.9002755611352602e-14 1.9822872116866763e-14
          3.574993637461078e-14 3.330697931110679e-14 2.0278922015592755e-14 2.0368073839587724e-14 2.2150930919021647e-14 2.144185461092375e-14
          2.0207572858227488e-14 2.0195182696819917e-14 2.021563238188684e-14 2.0094828321327282e-14 2.00936760456827e-14 2.0081320510294575e-14
          1.9984143630548896e-14 1.9974907325856162e-14 2.00465803365284e-14 2.0039541192389496e-14 1.997151913575714e-14 1.9978281500353473e-14
          2.0032071399516608e-14 2.002722196379501e-14 1.9976497791735025e-14 1.9984929522011563e-14 2.0029115766567995e-14 2.0024757458492e-14
          1.9978286571632984e-14 1.9986779956386794e-14 3.4183547362370012e-12 9.119176317967955e-12 2.8097403461413893e-12 7.116470385865221e-12
          1.2900043435310034e-12 3.2372391479877434e-12 3.3435116497412075e-14 1.2216892107437947e-13 2.0642988622380923e-14 3.086402224760281e-14
          2.045722566358269e-14 2.0732778302825853e-14 2.0182792535412346e-14 1.9974024260767726e-14 2.0068964974906448e-14 1.9965671021163427e-14
          2.003250204825059e-14 1.9985043864949804e-14 2.002237252807342e-14 1.9993361252288098e-14 2.0020399150416e-14 1.9995273341140604e-14
          9.208877931005908e-11 6.590819931565616e-11 4.126340095126793e-11 3.5232385751480886e-11 1.5125496467137144e-11 1.4163236010192768e-11
          7.792499230388495e-13 7.73107193355438e-13 1.5315198246671977e-13 1.4818749847436002e-13 3.3744003278332135e-14 3.4644199228794476e-14
          1.7771959950631788e-14 1.8967181303561278e-14 1.950721742045767e-14 1.9654706046286974e-14 2.015792591678406e-14 2.0085424517305364e-14
          2.029166210214137e-14 2.0177066963658844e-14 2.031254971691432e-14 2.0191305844736802e-14 3.972761932125324e-11 2.920137055169385e-11
          1.3200975553248393e-11 7.669644636720267e-13 1.4322301448200032e-13 3.5544395179256824e-14 2.0162402656490758e-14 1.9802194672116283e-14
          2.0012923117826662e-14 2.006247182517631e-14 2.007006197255929e-14 6.06061637863507e-11 5.733130972542571e-11 4.423425693434635e-12
          4.396880421786738e-12 9.742411486230272e-13 9.418372423846501e-13 2.198821907999508e-13 2.1028918053517935e-13 5.893840626469602e-14
          5.616977531855545e-14 2.7851018676680138e-14 2.6373677094512806e-14 2.1336444723627214e-14 2.044773768328331e-14 1.99864490307954e-14
          1.9302516179273193e-14 1.9763038181280985e-14 1.912005286454562e-14 5.40564556645007e-11 4.370335150138841e-12 9.094333361462731e-13
          2.0069617027040788e-13 5.340114437241486e-14 2.4896335512345478e-14 1.95590306429394e-14 1.861858332775098e-14 1.8477067547810255e-14
          6.268142238493672e-11 1.315436484760512e-10 8.366860614292307e-12 8.212911740864101e-12 1.7909009650670144e-12 1.7312135775473276e-12
          4.0867005915138416e-13 3.8904943489499976e-13 9.807274876949192e-14 9.189949606112306e-14 2.8436658231178003e-14 2.6547652608237346e-14
          1.3681796580631243e-14 1.317971410457696e-14 1.1275413572545136e-14 1.109668060589549e-14 1.1081424005795986e-14 1.0920742896349707e-14
          1.995608160784755e-10 8.058962867435894e-12 1.6715261900276407e-12 3.694288106386154e-13 8.57262433527542e-14 2.4658646985296683e-14
          1.2677631628522676e-14 1.0917947639245845e-14 1.076006178690343e-14 5.850006356836367e-11 1.4075971810060333e-10 5.610239942009413e-12
          7.320640538027761e-12 1.7317495886065854e-12 1.6531855815899763e-12 3.757683059198843e-13 3.593792158377567e-13 8.186244649019531e-14
          7.882599314715678e-14 1.7988289435524785e-14 1.788790443287548e-14 4.7203617541186015e-15 5.345509552666096e-15 2.647920876353951e-15
          3.3741357025855883e-15 2.517975985609874e-15 3.217633012216521e-15 1.700077084714572e-10 9.040826987398819e-12 1.5746215745733668e-12
          3.429901257556292e-13 7.578953980411823e-14 1.7787519430226175e-14 5.97065735121359e-15 4.100350528817226e-15 3.917290038823169e-15
          2.2438941378048153e-11 1.6641890703776124e-12 5.981945809779634e-12 1.5763726965296258e-12 1.4780345824112242e-12 3.304958084026881e-13
          3.144651598805434e-13 7.013597997508146e-14 6.82526561478904e-14 1.5665476136553588e-14 1.598693988714568e-14 4.330625895646906e-15
          4.973239036451618e-15 2.0555126488791344e-15 2.74844570483701e-15 1.7015382650590827e-15 2.400076725632846e-15 1.3303640958201213e-11
          9.381372338510825e-12 1.3796964682928224e-12 2.984345113583987e-13 6.636933232069938e-14 1.630840363773777e-14 5.61585217725633e-15
          3.4413787607948848e-15 3.0986151862066092e-15 5.215768106699468e-10 4.6546596550767064e-10 4.3220865134348094e-10 9.602920887557804e-11
          5.47110560138027e-10 3.9991399629833543e-10 6.768586796059297e-11 1.6044417402897803e-10 4.024261522223299e-12 3.516555476313238e-12
          2.3055714817300464e-12 3.2546644128958745e-12 1.3812101438088385e-12 1.0611067212899758e-12 1.510485973272685e-12 3.0088494304031766e-12
          4.16719364225619e-12 1.959865225255394e-12 2.9378416735011997e-12 1.6397618027365313e-12 5.325537854109204e-12 8.905618333763256e-9
          2.4441699440371877e-9 1.963528314227638e-7 1.9622743712532755e-8 1.074892121057432e-9 1.2199136704811281e-9 8.370673010786152e-11
          9.107338276019965e-11 2.4095633657466095e-10 2.4237160357899974e-10 4.3050533267992456e-11 1.143946167795902e-10 1.0484459921985391e-10
          9.844003541253777e-11 2.4378687058333853e-10 9.529458166011762e-11 2.0413737756987694e-10 1.8041929631507988e-10 7.018647431492213e-11
          5.282852690743882e-11 1.0075818516725624e-10 7.249260741637562e-11 2.4600208575345964e-11 1.567012150602828e-10 3.5470579499955516e-11
          4.4227029665494994e-11 1.3567910830567218e-9 8.518276987177129e-10 2.8407210264061884e-9 1.9017493545295113e-9 3.8739524342303604e-10
          4.1681162850382166e-10 3.4579185366598643e-10 3.46864314378704e-10 1.0885736825501864e-9 3.3155599117351153e-10 8.422904744280494e-11
          5.4931577343582506e-11 5.1927735143838785e-11 4.246529320244255e-11 1.9088427578326756e-11 2.0251634501519238e-11 2.0258331401022734e-11
          2.563410724436006e-11 3.637248930305595e-11 2.0265028300526233e-11 7.024980272232512e-10 7.931048464533088e-10 1.462892160282533e-10
          2.362169174773254e-10 2.3987016460209493e-10 6.499777884060741e-11 8.837116656833666e-10 2.4352341172686443e-10 5.254586940189134e-13
          8.599689386331078e-13 4.887227456753153e-13 2.575276290261564e-8 1.5578204760143475e-8 1.8180904904821285e-7 1.2137736028606968e-7
          5.379130605605928e-9 8.448083380173602e-8 5.305914080289478e-8 4.0805390261557626e-9 3.217325380686269e-8 1.2476378051006612e-8
          3.161587192573418e-7 1.8768728352748712e-7 1.01049999441083e-7 5.0744941304887186e-8 5.711399674206417e-10 4.0740850136867334e-10
          1.6778246084811114e-10 7.904046154298068e-11 3.5840458234430565e-10 2.460040558309254e-10 8.03555941206269e-9 2.1844576367222136e-9
          1.738793256102512e-7 1.5906042263137866e-8 4.5192049929523273e-8 5.179440976543283e-9 2.6482473165889593e-9 3.4148886725955704e-9
          6.192034514764464e-8 4.185701596803381e-9 3.61676224637842e-11 1.978642224957074e-11 2.391112631812326e-11 2.093540925081448e-11
          8.801271854345484e-12 1.79596921835057e-11 2.3927569749730887e-9 3.5508614114739276e-9 2.483830109184124e-9 1.7524335945262876e-9
          2.5503817047000615e-9 7.978110776254943e-10 9.853298370764584e-10 7.474357544123627e-10 1.6999273196012607e-9 6.46359559216882e-10
          2.936340826282181e-10 2.392802891687663e-10 1.0633320427779536e-10 2.2142274079254726e-10 3.899637651540234e-11 1.268134427922692e-11
          9.917972786934673e-12 7.994085712792663e-12 5.708392542839099e-10 1.095298628280734e-9 8.435349766011082e-10 5.917713249214823e-10
          5.653491574068015e-10 3.9301649466682235e-10 6.718621765850048e-10 5.269686539769653e-10 1.3189166636384996e-10 2.2068383192684326e-10
          3.8207513136892586e-10 4.620496936900858e-11 3.25880818242654e-11 1.65865659705658e-11 1.8971194279522224e-11 1.6461167221782873e-9
          3.0161744127081884e-9 2.338991779253221e-9 1.0359867730338503e-9 1.02410330738711e-8 3.1791601199123595e-8 2.6115509270344448e-8
          1.4175294110932901e-8 1.374915508826191e-7 2.1233223390878077e-9 6.000159798451605e-9 2.1992576266387397e-9 2.2914319542812586e-8
          1.4133463797832612e-9 1.089938773002335e-9 1.7099871741579321e-9 1.3277655857444325e-9 2.9309292162805316e-10 2.0668702724340928e-10
          1.6440856686177632e-10 4.952671626384356e-10 6.113309935463488e-10 1.0972388084645763e-10 6.76450799330402e-9 5.299951793586754e-9
          1.2492080902869357e-10 2.7044122740411034e-9 1.7298505441085376e-8 1.4081641649213638e-8 1.3724840936073603e-9 1.0031396928093715e-9
          7.534499033965565e-9 3.859652255621259e-10 6.792521490537289e-8 5.547308342294448e-8 6.012238265614901e-9 2.8350930656924804e-8
          1.1873544007174278e-9 3.2019843045309085e-9 1.4241636729997394e-10 1.74344954900726e-10 6.061759231577035e-10 1.239377466198393e-9
          1.596206499081201e-10 8.803891746362943e-9 4.348834820469745e-10 2.3835091384516065e-9 1.4283183104427022e-7 1.5902214323084813e-7
          1.3287461423143334e-7 5.699598629823656e-8 1.4481832148765023e-8 8.031193574059874e-8 1.0650026956020417e-7 8.688659261622486e-8
          2.5115339456374353e-8 4.881840349024228e-9 7.261245134273693e-10 1.7333075908071086e-9 1.145808589041224e-9 5.185987685241482e-10
          1.0483810873782268e-9 2.8435758719759455e-10 7.106967886358369e-10 2.2341765552019583e-10 3.2520122530026594e-10 2.402380503310846e-10
          1.6296350263350327e-10 2.2240354642027687e-10 6.816181498285682e-11 8.078757005578286e-11 1.0192384621154386e-10 1.665656056188822e-10
          6.468859107485634e-11 1.742194209572011e-10 2.4747375450732063e-10 1.8558097233987302e-10 1.3447752389013274e-10 1.9064936089049333e-10
          5.868260629193749e-11 8.668379176285229e-11 8.693187368216005e-11 1.330255113005297e-10 4.697865855921777e-11 8.508235278803517e-12
          1.1112511254235244e-11 8.737755651221325e-12 1.2340175715894814e-10 1.4368266764951412e-10 1.304968499698635e-10 1.0313071004967524e-10
          4.4854956956338705e-10 1.0889692107093907e-10 9.906456583276388e-11 1.164979078253357e-10 1.0625324372064177e-10 4.5028744388639486e-11
          6.32679358826414e-11 5.821814734472751e-11 7.902722232620393e-11 8.424522833736298e-11 4.6554319531536415e-11 3.5126558364778546e-10
          3.2226402893488713e-10 1.5560726965609437e-10 2.584842809307398e-10 7.298716921104951e-11 7.212913576939429e-11 5.530788372965096e-11
          2.6360557888701757e-10 5.750073712532739e-11 5.908059183858219e-11 2.6850785978421906e-11 3.315748084739429e-11 4.617924019283561e-11
          4.56793066183863e-11 2.637468143852935e-11 1.8879017114372956e-10 8.84019232550662e-11 1.5935015988458076e-10 1.4126994559941565e-11
          1.302467909511661e-11 2.993145584680703e-11 2.7681362606699407e-11 1.0827921494331223e-11 2.2260268677389224e-11 9.648885274295013e-12
          1.618834083788099e-11 9.564291190219238e-12 1.3287413687575311e-11 1.0617693342919704e-9 9.742614964034478e-10 7.948652958595563e-10
          2.5592021802652655e-9 8.419390459668224e-10 7.753634166514069e-10 5.044578775420407e-10 4.670432503704051e-10 6.277909829873713e-10
          3.7121064249993064e-10 2.2197831145945834e-9 2.0374104124910274e-9 1.2710421250251906e-9 1.6257091068231462e-9 6.045765030886508e-10
          4.1622518892109716e-10 1.4779659008360858e-9 4.639665267790575e-10 2.56355120789539e-10 3.097493511163027e-10 1.5702225856336474e-10
          1.1474454214409768e-9 6.716336388438761e-10 6.859105524666037e-10 5.327902899902494e-9 4.894795004739731e-9 3.9960809674817956e-9
          1.1783370217062816e-8 4.691178623939516e-9 4.332198674628043e-9 3.4957400434825333e-9 3.2455720775372026e-9 3.4961982909985836e-9
          2.563819033574286e-9 1.1052636999746428e-8 1.021363819324669e-8 7.513868689073397e-9 8.242278657009731e-9 2.9479992164005546e-9
          1.7057968608094015e-9 6.978284551902996e-9 2.4773212697028246e-9 1.6937579064114437e-9 1.4168875361468176e-9 9.369114757672566e-10
          5.829746475124454e-9 3.991888587710686e-9 3.3128774147334808e-9 2.0295520049236728e-10 2.6673545863360546e-10 2.0719661239813092e-10
          5.033175197386245e-10 1.3995286369009577e-10 1.935699496660415e-10 5.47291454818556e-11 8.945710127636683e-11 1.0960375702238641e-10
          1.4878007201884115e-10 6.47872652039904e-11 3.78025881599302e-10 1.9923235019835134e-10 2.5189515891598733e-10 8.697564073530854e-10
          5.120372383221356e-10 1.96408061514599e-9 7.110013076555838e-10 4.512383171873057e-10 3.8806432840974523e-10 2.081185056793329e-10
          1.5982005749705082e-9 1.0154080750679011e-9 7.740571677719391e-10 2.1252426451182849e-10 2.728949881493888e-10 2.1515820015636198e-10
          4.3331223100060527e-10 1.5369248837334472e-10 2.0038891086648857e-10 6.79280499006538e-11 9.554767763253268e-11 1.1718149577578648e-10
          1.4834139065607255e-10 5.879388401268603e-11 3.311728618019536e-10 1.7821844341069354e-10 2.3445273151048253e-10 1.815066792222976e-11
          3.037422779031133e-11 6.383293170771255e-11 1.2181029142465396e-10 2.6555273221141623e-10 3.209685394934099e-11 4.966995407599787e-11
          2.0088128891476053e-11 2.8286688174347418e-11 1.0126942671067487e-10 5.374952277543096e-11 2.2593737691008574e-8 2.0882858095188405e-8
          1.736736466233552e-8 3.78060396462859e-8 1.989956311831667e-8 1.864250931286291e-8 1.5541926682384497e-8 1.3219405968055282e-8
          7.827794801966263e-9 2.2763416060559438e-8 1.1379832830683714e-8 6.6050183886502005e-9 2.1916683051968967e-8 3.8627268703252514e-9
          1.871890719832677e-9 6.873481524134482e-9 3.1889711470031746e-9 1.464912551851027e-9 5.764052574088556e-9 2.631106883576561e-9
          6.485915404492598e-10 4.993268887589069e-10 1.0816099138018693e-9 5.295708656881128e-10 3.584899483877146e-10 8.998320050911957e-10
          4.601949148000552e-10 1.104929606982675e-8 5.4620178001389765e-9 9.39689150280642e-9 4.32515268856988e-9 1.7721307541855728e-9
          8.193695798623703e-10 1.4740067313702033e-9 6.113619476258706e-10 2.0114427056896232e-10 2.47341702096886e-10 1.9133965441090988e-10
          1.6137862067400317e-10 1.9839483820688093e-10 1.1787912262269638e-10 1.357886977795522e-10 1.6861010085500298e-11 1.3142047701738852e-11
          4.1555020311144405e-11 3.30958756545902e-11 9.423085317977403e-12 2.4636730998036003e-11 1.6600778074964335e-10 1.3544578673741938e-10
          1.0488379272519536e-10 6.669695294353158e-10 3.627049072239799e-10 2.6764694663141383e-10 5.565240888468943e-10 1.6354022878480434e-10
          1.4183435317677578e-10 1.725889860388478e-10 4.460786482584727e-10 1.2012847756874726e-10 2.9562039417297506e-10 3.603697605600801e-10
          4.3575563510805253e-10 1.946236591984587e-9 5.122259333903146e-10 2.1746562769892834e-9 1.6074997866262596e-8 2.0151349458592713e-9
          3.9204930926150557e-11 6.34212836329512e-12 5.033381868723823e-13 3.933635668320764e-12 3.1943836143506657e-10 9.440524543557286e-10
          8.880244378451332e-10 8.31996421334538e-10 1.7129034743242307e-9 7.743705353380353e-10 7.780395040917503e-10 3.2860477009460933e-10
          1.1376091526493614e-9 7.817084728454653e-10 3.109915291649988e-10 1.5520912629222297e-9 5.805308935205709e-9 4.857190962207416e-9
          3.9090729892091234e-9 1.8195082199072123e-8 1.8243207906791032e-8 1.850841294179325e-10 6.909874873300787e-12 1.1391288003351063e-11
          1.8483554841828036e-11 3.719969151510844e-11 3.495744752064198e-9 1.6739978680270936e-8 3.6481461784374364e-9 1.3319226569432294e-10
          1.2969808019652734e-10 1.039692866448441e-9 7.507876834235944e-9 1.4639587714545726e-9 3.800547604810676e-9 1.6940396170653685e-10
          1.1310694436480144e-10 1.116420243342983e-12 9.881945909880454e-13 6.919219989733777e-13 3.6878803604347657e-13 4.287553908593959e-13
          7.813570669998085e-13 3.844241427073502e-12 8.897387157810005e-13 9.505119191680107e-12 5.8133318453044e-13 3.3205208769987845e-13
          9.19508492928893e-13 1.743335643592083e-8 2.317904559377261e-7 1.6246839036472784e-7 6.363684743240766e-8 3.887245251500593e-8
          8.866324100523409e-8 7.182116542020069e-9 1.4646710442419106e-8 1.2619441528162152e-9 1.2137228616194665e-7 2.0170195471201124e-8
          2.2461663831574508e-10 3.7039893859270265e-10 3.922729015717751e-10 4.461422952673528e-10 2.6670481087941086e-11 3.253151358313591e-11
          1.2301729429664201e-11 2.8895404702487618e-11 4.81703660975766e-12 9.522937524248042e-8 5.764926176183525e-11 3.068263667177002e-11
          4.3083076395585324e-11 4.3105907442928195e-11 9.860460496604889e-12 1.0298040070555473e-11 8.178621554473729e-12 6.61216982990364e-12
          1.0643067828356794e-11 1.306946967760176e-11 3.784105441519498e-12 1.5092622069342e-10 1.2416460249414353e-10 9.740298429486702e-11
          6.038137310395887e-11 6.142230162698301e-11 3.4729476663555144e-11 2.4799621870045476e-11 1.6032236829545706e-11 1.1672370104626334e-11
          1.4869767076535808e-11 7.312503379706962e-12 3.3625453480400667e-11 3.241674098457966e-11 2.1085806000859435e-11 1.959152256686535e-11
          2.5819343239606025e-11 2.4344194393430685e-11 3.57062191823207e-11 3.8551861343224585e-11 4.488806124334141e-11 4.117722497891456e-11
          1.1081510908463514e-7 5.5960128387027393e-8 1.2440964807804464e-7 9.337709188852164e-9 3.394074736006697e-8 2.1513838735969853e-10
          2.0453085153184875e-10 3.0110853054276823e-10 2.2147181640032192e-10 1.6772087221252943e-10 1.720531088486685e-9 3.0324751379304372e-9
          1.4175827364452444e-9 2.079923734667675e-10 2.337452018176746e-11 2.785199974437658e-11 2.6318382373081526e-11 2.528849645047253e-11
          2.5865254226450245e-11 1.579921215159393e-11 2.6784587321858802e-11 8.968838542377255e-12 1.4026558391679123e-11 7.063123692850937e-11
          6.510405992311834e-11 2.0328848876728482e-11 2.7089705337174632e-11 7.99744547633477e-12 1.784015665053217e-11 1.6493684317521918e-11
          1.3171856457570204e-11 1.004133870258281e-10 9.28882730415586e-11 6.193421860914933e-11 5.712022172259626e-11 7.359250481128158e-11
          4.471579392439672e-11 5.710809437676784e-12 9.377149161953702e-12 7.557797393278661e-12 4.99886725540007e-11 2.9756467458035605e-11
          3.623759692973246e-11 3.186115217959623e-10 2.9418298150454563e-10 2.3064098423044426e-10 9.316515749765526e-10 8.597598664438123e-10
          6.693617070542858e-10 1.5354776990609527e-10 8.848927563873422e-11 4.353205399015432e-10 2.4004901906600007e-10 2.491622104860987e-9
          2.3053664852329926e-9 1.79721268632246e-9 5.859199376197795e-9 5.460809016055397e-9 4.314579438226065e-9 1.1553219295901705e-9
          6.173212267480376e-10 2.7862634509468494e-9 1.4685361576536276e-9 2.527623481298622e-11 4.589238325167439e-11 1.4072329325468368e-11
          2.636221432172763e-11 1.6798118402909277e-11 1.1700441129218948e-10 7.108603579079795e-11 2.8594023211365764e-10 1.7985649254720174e-10
          7.327126082292565e-11 6.568008838648012e-10 4.198092301208105e-10 1.6359964377383195e-10 1.816304378401789e-11 2.850730845107626e-11
          1.6210741320433455e-11 5.987790425943458e-11 1.5314155329719367e-8 1.4571088242823379e-8 1.2090223699279608e-8 3.1227929731306754e-8
          3.0168662588513855e-8 2.5660816661789206e-8 2.4821572217195538e-8 2.64180878278765e-8 2.1305997212624726e-8 8.266887739469248e-9
          4.565445317256661e-9 1.9955199423607797e-8 1.5065706689783997e-8 1.1830660357776254e-8 8.519375821952808e-9 1.17213947991964e-8
          1.1086865270559084e-8 9.02500332960154e-9 5.958636039302056e-9 3.1491913225265848e-9 2.0924552167310213e-9 8.587001519955122e-10
          3.908017995720803e-9 1.5697241103024443e-9 3.2678956089665465e-10 1.7154785305767337e-10 5.768982776526111e-10 1.9077034711932903e-8