<?xml version="1.0"?>
<VTKFile type="UnstructuredGrid" version="0.1" byte_order="LittleEndian" header_type="UInt32" compressor="vtkZLibDataCompressor">
  <UnstructuredGrid>
    <Piece NumberOfPoints="697" NumberOfCells="457">
      <PointData>
        <DataArray type="Int32" Name="libmesh_node_id" format="ascii" RangeMin="729" RangeMax="6957">
          729 917 918 919 1840 1846
          1851 1852 1853 1854 1855 1856
          1857 1858 1859 1860 1864 1867
          1869 1871 1872 1875 1876 1878
          1880 3103 3133 3135 3137 3141
          3142 3144 3147 3148 3149 3150
          3153 3155 3156 3157 3158 3160
          3162 3163 3164 3165 3166 3168
          3170 3171 3172 3175 3176 3177
          3178 3181 3182 3183 3184 3185
          3186 3187 3188 3189 3190 3191
          3192 3193 3194 3195 3196 3197
          3198 3199 3200 3201 3202 3203
          3204 3205 3206 3210 3211 3212
          3213 3216 3217 3220 3221 3222
          3223 3225 3228 3229 3231 3233
          3234 3235 3236 3237 3238 3239
          3240 3241 3243 3245 3247 5826
          5827 5829 5830 5831 5832 5833
          5838 5840 5841 5842 5843 5854
          5855 5856 5857 5858 5859 5860
          5861 5862 5863 5869 5870 5871
          5872 5873 5874 5875 5882 5883
          5884 5885 5892 5893 5895 5900
          5901 5902 5907 5909 5910 5911
          5912 5913 5914 5915 5916 5917
          5918 5919 5920 5921 5922 5923
          5924 5925 5926 5927 5928 5929
          5930 5931 5932 5933 5934 5935
          5936 5937 5938 5939 5940 5941
          5942 5943 5948 5950 5952 5958
          5960 5962 5966 5968 5970 5971
          5972 5973 5976 5978 5980 5981
          5982 5983 5986 5988 5989 5990
          5995 5997 5998 6000 6002 6003
          6004 6009 6011 6012 6013 6014
          6015 6016 6017 6018 6019 6020
          6021 6022 6023 6024 6025 6026
          6027 6028 6029 6030 6031 6032
          6033 6034 6035 6036 6037 6038
          6039 6050 6051 6052 6053 6054
          6055 6056 6057 6058 6059 6063
          6067 6068 6069 6070 6071 6072
          6073 6084 6085 6086 6087 6088
          6089 6090 6091 6092 6093 6097
          6101 6102 6103 6104 6105 6106
          6107 6108 6109 6110 6111 6112
          6113 6114 6115 6116 6117 6118
          6119 6120 6121 6122 6123 6124
          6125 6126 6127 6128 6129 6130
          6131 6132 6133 6134 6135 6136
          6137 6138 6139 6140 6141 6142
          6143 6144 6145 6146 6147 6148
          6149 6150 6151 6152 6153 6154
          6155 6156 6157 6158 6159 6160
          6161 6162 6163 6164 6165 6166
          6167 6168 6169 6170 6171 6172
          6173 6174 6175 6176 6177 6178
          6179 6180 6181 6182 6183 6184
          6185 6186 6187 6188 6189 6190
          6191 6192 6193 6194 6195 6196
          6197 6198 6199 6200 6201 6202
          6203 6204 6205 6206 6207 6208
          6209 6210 6211 6212 6213 6214
          6215 6216 6217 6218 6219 6220
          6221 6222 6223 6224 6225 6226
          6227 6228 6229 6230 6231 6232
          6233 6234 6235 6236 6237 6238
          6239 6240 6241 6242 6243 6244
          6245 6246 6247 6248 6249 6250
          6251 6252 6253 6254 6255 6256
          6257 6258 6259 6260 6261 6262
          6263 6264 6265 6266 6267 6268
          6269 6270 6271 6275 6278 6279
          6282 6283 6284 6285 6286 6287
          6288 6289 6290 6291 6292 6293
          6294 6295 6296 6297 6298 6299
          6300 6301 6302 6303 6304 6305
          6306 6307 6308 6309 6310 6311
          6312 6313 6314 6315 6316 6317
          6318 6319 6320 6321 6322 6323
          6324 6325 6326 6327 6328 6329
          6330 6331 6332 6333 6334 6335
          6336 6337 6338 6339 6340 6341
          6342 6343 6344 6345 6346 6568
          6569 6572 6574 6575 6577 6588
          6590 6592 6594 6704 6706 6708
          6710 6718 6720 6722 6724 6773
          6774 6777 6779 6780 6782 6793
          6795 6797 6799 6807 6808 6811
          6813 6814 6816 6827 6829 6831
          6833 6909 6911 6913 6915 6923
          6925 6927 6929 6937 6939 6941
          6943 6951 6953 6955 6957 1873
          915 1874 1877 1879 730 3070
          3224 912 3226 3169 3227 3230
          3232 3242 3244 3246 3328 3576
          3332 3582 3362 3595 3366 3599
          5876 5877 5878 5879 5880 5881
          5886 5887 5888 5889 3151 5894
          5890 5891 3152 5896 5897 5898
          5899 5903 5904 5908 5905 5906
          3154 5984 5985 5987 5991 5992
          5996 5993 5994 3167 5999 6001
          6005 6006 6010 6007 6008 6540
          6541 3306 6542 6570 6571 6543
          3307 6573 3312 6576 3313 6558
          6559 6589 6560 3310 6591 6593
          3315 6674 6675 6705 6676 3326
          6707 6709 3330 6691 6692 6719
          6693 6721 6723 6775 6776 6778
          3340 6781 3341 6794 6796 6798
          3344 6809 6810 6812 3346 6815
          3347 6828 6830 6832 3349 6910
          6912 6914 3360 6924 6926 6928
          6938 6940 6942 3364 6952 6954
          6956
        </DataArray>
        <DataArray type="Float64" Name="bounds" format="ascii" RangeMin="0" RangeMax="0">
          0 0 0 0 0 0
          0 0 0 0 0 0
          0 0 0 0 0 0
          0 0 0 0 0 0
          0 0 0 0 0 0
          0 0 0 0 0 0
          0 0 0 0 0 0
          0 0 0 0 0 0
          0 0 0 0 0 0
          0 0 0 0 0 0
          0 0 0 0 0 0
          0 0 0 0 0 0
          0 0 0 0 0 0
          0 0 0 0 0 0
          0 0 0 0 0 0
          0 0 0 0 0 0
          0 0 0 0 0 0
          0 0 0 0 0 0
          0 0 0 0 0 0
          0 0 0 0 0 0
          0 0 0 0 0 0
          0 0 0 0 0 0
          0 0 0 0 0 0
          0 0 0 0 0 0
          0 0 0 0 0 0
          0 0 0 0 0 0
          0 0 0 0 0 0
          0 0 0 0 0 0
          0 0 0 0 0 0
          0 0 0 0 0 0
          0 0 0 0 0 0
          0 0 0 0 0 0
          0 0 0 0 0 0
          0 0 0 0 0 0
          0 0 0 0 0 0
          0 0 0 0 0 0
          0 0 0 0 0 0
          0 0 0 0 0 0
          0 0 0 0 0 0
          0 0 0 0 0 0
          0 0 0 0 0 0
          0 0 0 0 0 0
          0 0 0 0 0 0
          0 0 0 0 0 0
          0 0 0 0 0 0
          0 0 0 0 0 0
          0 0 0 0 0 0
          0 0 0 0 0 0
          0 0 0 0 0 0
          0 0 0 0 0 0
          0 0 0 0 0 0
          0 0 0 0 0 0
          0 0 0 0 0 0
          0 0 0 0 0 0
          0 0 0 0 0 0
          0 0 0 0 0 0
          0 0 0 0 0 0
          0 0 0 0 0 0
          0 0 0 0 0 0
          0 0 0 0 0 0
          0 0 0 0 0 0
          0 0 0 0 0 0
          0 0 0 0 0 0
          0 0 0 0 0 0
          0 0 0 0 0 0
          0 0 0 0 0 0
          0 0 0 0 0 0
          0 0 0 0 0 0
          0 0 0 0 0 0
          0 0 0 0 0 0
          0 0 0 0 0 0
          0 0 0 0 0 0
          0 0 0 0 0 0
          0 0 0 0 0 0
          0 0 0 0 0 0
          0 0 0 0 0 0
          0 0 0 0 0 0
          0 0 0 0 0 0
          0 0 0 0 0 0
          0 0 0 0 0 0
          0 0 0 0 0 0
          0 0 0 0 0 0
          0 0 0 0 0 0
          0 0 0 0 0 0
          0 0 0 0 0 0
          0 0 0 0 0 0
          0 0 0 0 0 0
          0 0 0 0 0 0
          0 0 0 0 0 0
          0 0 0 0 0 0
          0 0 0 0 0 0
          0 0 0 0 0 0
          0 0 0 0 0 0
          0 0 0 0 0 0
          0 0 0 0 0 0
          0 0 0 0 0 0
          0 0 0 0 0 0
          0 0 0 0 0 0
          0 0 0 0 0 0
          0 0 0 0 0 0
          0 0 0 0 0 0
          0 0 0 0 0 0
          0 0 0 0 0 0
          0 0 0 0 0 0
          0 0 0 0 0 0
          0 0 0 0 0 0
          0 0 0 0 0 0
          0 0 0 0 0 0
          0 0 0 0 0 0
          0 0 0 0 0 0
          0 0 0 0 0 0
          0 0 0 0 0 0
          0 0 0 0 0 0
          0 0 0 0 0 0
          0 0 0 0 0 0
          0 0 0 0 0 0
          0
        </DataArray>
        <DataArray type="Float64" Name="gradient_error" format="ascii" RangeMin="1.2076755387793547e-11" RangeMax="2.2571391556862176e-7">
          2.7921590438399033e-8 5.217963085519092e-8 1.4692555923095576e-10 1.4639587714545726e-9 2.1513838735969853e-10 3.394074736006697e-8
          4.732721794917009e-8 2.109415207926827e-8 1.6268972304628738e-8 4.630268271885554e-9 4.75037831413071e-10 9.32528571031181e-11
          5.793497325938239e-8 4.340045649881274e-8 1.0358900040147315e-8 9.380062633340597e-10 1.4646710442419106e-8 1.2619441528162152e-9
          2.0170195471201124e-8 2.2461663831574508e-10 3.922729015717751e-10 3.7039893859270265e-10 4.461422952673528e-10 5.466827046264635e-10
          4.879989906565995e-10 1.2440964807804464e-7 1.9541119429277643e-7 3.981500610510698e-8 2.2571391556862176e-7 2.5660816661789206e-8
          2.1305997212624726e-8 8.519375821952808e-9 4.776759017175913e-8 1.1081510908463514e-7 1.5026585215120957e-8 1.1920133307905224e-8
          4.108711178542731e-9 3.200905548181641e-8 2.8591126912870262e-8 1.3600709435579034e-8 1.109653751599286e-8 1.5697241103024443e-9
          3.0110853054276823e-10 5.5960128387027393e-8 4.005121938858004e-9 9.337709188852164e-9 6.30268872072772e-10 1.2102371935082606e-10
          1.675802552281811e-9 6.230433272625891e-10 1.8459721447164706e-10 5.675810396698881e-8 6.922828704817158e-8 1.1590663431346646e-7
          3.62151114322123e-8 7.688317920103433e-8 1.35327289162562e-7 3.995714367657503e-8 4.513619103249435e-8 2.4659617594920225e-8
          2.271986729386311e-8 1.954222639805811e-8 8.504586062931902e-9 3.970749317441729e-8 5.090657090973777e-8 2.6867156345419786e-8
          2.3499791950297243e-8 9.016502150836917e-8 7.077756585707451e-9 1.387686914090967e-8 7.92912825188274e-10 1.0529005216172042e-7
          8.546920566397933e-9 1.5801522474277866e-8 3.026969700341479e-9 1.1356263403557168e-9 2.890533929950758e-10 1.2400884356029656e-10
          3.6895248070025688e-9 1.3878733656256694e-9 3.4535041575800685e-10 3.0324751379304372e-9 4.4370236180936085e-9 3.448382703706285e-9
          5.144191203143261e-9 2.0453085153184875e-10 2.2147181640032192e-10 1.6772087221252943e-10 1.720531088486685e-9 2.079923734667675e-10
          1.4175827364452444e-9 8.432039372515159e-11 2.0328848876728482e-11 3.8632007871426e-11 6.957409416730237e-11 6.886304734471687e-11
          2.5276471978058174e-9 3.177847664187032e-10 2.166568135484766e-9 5.218918814970664e-10 2.9340370889411033e-9 3.690115241702817e-10
          2.5297683498744265e-9 7.05263883058282e-11 1.0054364918754478e-10 8.065998946883415e-11 1.136843089047178e-10 1.5314155329719367e-8
          1.4571088242823379e-8 1.2090223699279608e-8 3.1227929731306754e-8 3.0168662588513855e-8 2.4821572217195538e-8 2.64180878278765e-8
          8.266887739469248e-9 4.565445317256661e-9 1.9955199423607797e-8 1.5065706689783997e-8 1.1830660357776254e-8 4.5033993625540726e-8
          4.495563160236393e-8 3.8206218054825764e-8 3.785504416354481e-8 4.1166234093651246e-8 3.3823597877480214e-8 5.445308003757752e-8
          5.690063138852349e-8 4.9252443514514225e-8 5.645637587819885e-8 3.173974992869261e-8 2.4540541994111633e-8 1.9077034711932903e-8
          1.4127061476672917e-8 4.5228709840451095e-8 3.6252386635834874e-8 2.7307621347971415e-8 2.0097991342590052e-8 1.9339259169816138e-8
          1.4367707957654136e-8 1.6351056211624786e-8 1.0622366659713183e-8 1.0061667685925577e-8 8.157207098495464e-9 1.1197696906702424e-8
          7.917102349950468e-9 6.034014275870706e-9 5.267973906102978e-9 2.6596859056997077e-9 3.072007017552564e-8 3.0115533880193324e-8
          2.32176008559846e-8 2.261767559025631e-8 2.6341806685584804e-8 1.9497330377416975e-8 4.021179104325695e-8 4.09821282339612e-8
          3.1903728649404085e-8 3.8075072839278114e-8 1.67277888424636e-8 1.617341621363904e-8 1.142003137097272e-8 1.0905987177314128e-8
          1.366988449048207e-8 8.961442702768822e-9 2.3455920355774335e-8 2.3110731604854533e-8 1.5878660520375638e-8 2.0283386925635197e-8
          1.8600548315593336e-8 1.3437908335452087e-8 1.0282920325041139e-8 7.149137106251171e-9 2.782226967881943e-8 2.032745974519618e-8
          1.5681295891095285e-8 9.144359174490173e-9 5.810787373067938e-9 4.694453434669382e-9 2.9034853725004778e-9 1.40644200747761e-8
          9.115455393396226e-9 7.40388825425755e-9 2.0924552167310213e-9 8.587001519955122e-10 3.908017995720803e-9 3.2678956089665465e-10
          1.7154785305767337e-10 5.768982776526111e-10 1.6102965841683002e-8 6.570134743002076e-9 2.6224391454495707e-9 1.3855778317467155e-8
          9.949847197746524e-9 6.463365231017922e-9 2.597831905357494e-9 9.48272604447131e-10 3.2070657112205225e-10 2.1812913208907806e-9
          1.4279428933444804e-9 8.951662946010676e-10 5.371978516986548e-10 2.632352596630201e-9 1.7264794564363412e-9 9.977104941149985e-10
          1.0891702726197704e-9 3.882164251762019e-10 1.9509383418561134e-10 1.0011989850898292e-10 3.5146211046028727e-10 2.146267608107867e-10
          1.406739840978282e-10 1.2887452780139755e-10 6.278726644351948e-11 4.5224739191723505e-9 3.0078225732462977e-9 1.6905773316618394e-9
          1.0779695416408265e-9 6.99991339765336e-9 4.7235940891124745e-9 2.608365111319854e-9 1.9140000062421723e-9 1.1596168807283831e-9
          6.674617011753194e-10 3.981823702444791e-10 3.0310727936079875e-9 1.845784406461405e-9 1.0425349844979267e-9 5.830501689425822e-10
          3.5819197652318283e-10 1.8951448783441618e-10 1.378034866659014e-10 8.84110179908451e-10 5.452012379172911e-10 2.8355600925589056e-10
          2.156761964909398e-10 1.263252080781563e-10 1.035150866075064e-10 5.918101637693491e-11 3.2964077205741664e-10 1.9375294929756493e-10
          1.1955372370664098e-10 6.191543916449503e-8 6.654419973356851e-8 5.241233009480305e-8 5.687880231867139e-8 7.066847956048927e-8
          6.005453985250921e-8 6.686829848136445e-8 7.390791487315614e-8 6.265793667916274e-8 8.147050394476209e-8 4.85188016878166e-8
          5.9475495965451936e-8 4.862232000774419e-8 3.6442225913149797e-8 2.8856596761299546e-8 7.129516916639481e-8 5.909599444880504e-8
          4.524687631635964e-8 6.282922355041977e-8 7.472302870368146e-8 5.831801649560643e-8 6.594660341943837e-8 8.737098817657411e-8
          7.49516794816985e-8 5.8200785255461756e-8 7.295826183938888e-8 6.665477350581756e-8 8.888981941731657e-8 6.633562345403772e-8
          7.854610461993055e-8 6.581098174375503e-8 5.1555484688260786e-8 4.1500751150833915e-8 8.093548173270748e-8 6.808912935181142e-8
          5.382847364659392e-8 4.4731064004365144e-8 4.818084699199027e-8 3.81112107418384e-8 3.967138531280335e-8 4.898027363234576e-8
          3.784903360396137e-8 4.637970227198904e-8 5.198804556824221e-8 4.37972409066551e-8 5.694599349973315e-8 2.9689920184848517e-8
          2.992293191262948e-8 2.081967299737712e-8 2.070878177532511e-8 2.722020061912863e-8 1.841821678825742e-8 3.373310025189168e-8
          3.505715014776669e-8 2.4904906754395177e-8 3.330701466028672e-8 3.7763358088410196e-8 2.7807824714118466e-8 2.1652561932334215e-8
          1.547321474313615e-8 4.649795262459026e-8 3.461076510243133e-8 2.7265286888104508e-8 1.9397139070308247e-8 1.27665869675753e-8
          1.0456475242198915e-8 6.6180275654323e-9 2.4291877710401233e-8 1.610007312708035e-8 1.3298502968211822e-8 4.7669658236088384e-8
          5.42643295004291e-8 3.986792650482581e-8 4.526334769062219e-8 6.172177263625226e-8 4.94588236335348e-8 4.818907960872627e-8
          5.509080801081627e-8 4.5625360060967786e-8 6.336780012307964e-8 3.529248119588225e-8 3.776718134758822e-8 2.7131213894848214e-8
          2.7785096335674132e-8 3.735539391693505e-8 2.5768673920981196e-8 3.555670444981939e-8 3.853532920032361e-8 2.877477041720287e-8
          3.875659634413875e-8 5.233819134901236e-8 3.936130427330316e-8 3.1298338497435684e-8 2.2446689256043018e-8 5.4382951033000886e-8
          4.106909898686467e-8 3.2753429568566416e-8 2.7768723967776762e-8 1.843978686156632e-8 1.532513842734473e-8 9.863773059377981e-9
          2.9026115519381573e-8 1.928277276823588e-8 1.6061052349695677e-8 2.2120542572301983e-8 1.1199741001620456e-8 2.7498609783718715e-8
          1.9008804860817425e-8 1.3711457982518249e-8 8.975028946155558e-9 5.589173568243066e-9 2.372220992583442e-8 1.7256131643385816e-8
          1.128081201976942e-8 3.5399582299142073e-9 1.605534658577679e-9 4.359391970033551e-9 2.9862288056044696e-9 1.9716331538281686e-9
          1.2025152106611879e-9 6.411786560648224e-10 3.708599391264422e-9 2.4828829687641246e-9 1.4772693621784462e-9 3.143481989357162e-8
          1.6076122032670187e-8 3.311988877469059e-8 2.716020457165182e-8 1.9825643517728104e-8 1.2936739781495434e-8 8.149930087297675e-9
          2.8542399267590966e-8 2.0768770087165598e-8 1.3597249443825267e-8 4.898331318967293e-9 2.2146967748630743e-9 5.106997358432574e-9
          4.2027761983807e-9 2.851701835835422e-9 1.6644863513702387e-9 8.994087864723435e-10 4.390459377349899e-9 2.9880764490353453e-9
          1.7353511932008955e-9 9.786740826250357e-9 6.686300755485071e-9 3.6611432727389947e-9 2.3648905637437674e-9 1.2403832642705688e-8
          8.542224526141272e-9 4.666653682181884e-9 4.326262538006915e-9 2.6468045463068662e-9 1.476462100493655e-9 8.839387942056584e-10
          5.569118863461731e-9 3.4205172598352036e-9 1.893743520329956e-9 1.2244138482931435e-9 7.562605895469596e-10 3.864692600015061e-10
          2.306328398818575e-10 1.5471140245591635e-9 9.572261060145103e-10 4.816291986576724e-10 4.5894774569828565e-10 2.705647969512475e-10
          1.3525223188350251e-10 9.646701296988173e-11 5.820731063567017e-10 3.4352489540313604e-10 1.7025655581158394e-10 1.4290554353964304e-8
          9.878489822650399e-9 5.397447976957999e-9 3.5112569789734225e-9 1.498122874766467e-8 1.0365772969116522e-8 5.665338905575605e-9
          6.472402218236402e-9 3.987551405232238e-9 2.199155810156865e-9 1.3200045268772802e-9 6.802882040244897e-9 4.196393529215425e-9
          2.3116553835325976e-9 1.7817120748115348e-9 1.1038247660343571e-9 5.49454565351107e-10 3.3031206584864235e-10 1.867871423391246e-9
          1.1574807208491666e-9 5.741082338623521e-10 6.717482146484286e-10 3.9640342263120097e-10 1.945998822761488e-10 1.3913577890297285e-10
          7.04542658980512e-10 4.156952165986201e-10 2.034601437114669e-10 3.301439912599079e-10 9.235903392752905e-11 1.1448360017661512e-10
          6.31260142892503e-11 2.695656682466573e-10 1.6168137397208486e-10 1.7381553000232786e-10 5.034577558838493e-11 6.247611583831357e-11
          3.758645410075571e-11 4.543300564027275e-11 3.4646121697434575e-11 3.8456963709781434e-11 3.089963998925679e-11 8.966596215282876e-11
          5.813006751648555e-11 4.780415983529364e-11 4.0239803470009953e-10 3.03791194165753e-10 4.684927921066376e-10 3.3721399542258985e-10
          2.1171494169557777e-10 2.119482963232213e-10 9.654903787879012e-11 3.9877198711072376e-10 2.5701296032644665e-10 2.461089200173933e-10
          5.261009068702448e-10 3.9529402890588784e-10 5.532634500324073e-10 4.4823081763095886e-10 2.8948934954632023e-10 2.760682767301043e-10
          1.272842243951739e-10 4.69625371132094e-10 3.0162808031243413e-10 2.898825190036171e-10 1.1976734456849767e-10 6.978549570560293e-11
          5.829399981882246e-11 3.635949203423954e-11 1.4663946403577212e-10 8.581028464637864e-11 6.833983892272685e-11 3.538358603134792e-11
          4.042152220168411e-11 2.62900127030281e-11 2.940681488308222e-11 2.4485613015541604e-11 2.4705005431287548e-11 2.028634915485035e-11
          4.9361535803511756e-11 3.5406691847727094e-11 2.70270664078908e-11 1.654313318781479e-10 9.684733389448339e-11 7.675163210839455e-11
          4.553739938359955e-11 1.7239295660433152e-10 1.0108976722258192e-10 8.00710720605213e-11 5.577529117910336e-11 4.0100607624568354e-11
          3.06048095499898e-11 2.5912160313542692e-11 5.82869691232035e-11 4.191144861681886e-11 3.2079884131231485e-11 7.181230303742252e-9
          6.782692172043681e-9 5.4421686424092224e-9 1.0645629392180512e-8 1.0222817957317376e-8 8.463731357050959e-9 3.445852669500409e-9
          1.6908861539715668e-9 5.485874032952011e-9 2.7155758727724863e-9 6.679543784211163e-10 2.2798757903636776e-10 1.065499614152498e-9
          3.5680901079918574e-10 7.176692613830193e-11 3.32172376304505e-11 1.0997069769348482e-10 5.0462730804962915e-11 1.3966501046960723e-8
          1.3674113309927058e-8 1.1730260778269277e-8 1.6572097556108092e-8 1.652182434432463e-8 1.4638966526654703e-8 7.806611324095527e-9
          3.911545926610405e-9 9.980631373959966e-9 5.062770764680698e-9 1.819329565231604e-8 1.8369408599173003e-8 1.6635792762464348e-8
          1.8739194039370173e-8 1.90073367916809e-8 1.734548452383293e-8 1.1529560179474036e-8 5.9025695688463856e-9 1.2090210139895371e-8
          6.210929273096254e-9 1.532051798649731e-9 5.062392291888911e-10 1.9849813444782116e-9 6.50398744733412e-10 1.5345217620155066e-10
          6.986430264986379e-11 1.9478374864159994e-10 8.807199456309925e-11 2.3179789511629535e-9 7.561346416652519e-10 2.440773803554947e-9
          7.951147168172345e-10 2.247149812998424e-10 1.010358239516511e-10 2.356021452973971e-10 1.0559469399421849e-10 4.3105907442928195e-11
          1.3319226569432294e-10 7.526459100567773e-11 1.3343736691843355e-10 9.585978181474593e-11 1.6940396170653685e-10 7.063123692850937e-11
          6.510405992311834e-11 3.048560394765614e-11 2.7089705337174632e-11 6.070307584520293e-11 4.886877545089956e-11 1.2076755387793547e-11
          5.499277588791166e-11 5.069182271017437e-11 2.4249628959220364e-11 5.835237500093689e-11 2.0661196772387453e-11 1.760586764272111e-11
          4.3143681152317986e-11 3.228801157586008e-11 6.805376693718057e-11 4.7532393665263945e-11 7.949542208447617e-11 5.449340995890336e-11
          1.17213947991964e-8 1.1086865270559084e-8 8.508413252486643e-9 7.988845372688948e-9 9.02500332960154e-9 6.381927266636847e-9
          5.785885771916091e-9 5.399409810790864e-9 3.6853933559887244e-9 3.4211424553105264e-9 6.971679342338379e-9 6.547281913637466e-9
          4.2492235135297315e-9 2.6586289384043365e-9 5.205722776236503e-9 5.958636039302056e-9 4.106884643700224e-9 3.1491913225265848e-9
          2.1060842306052628e-9 2.682465371217411e-9 1.653957361507626e-9 3.2904458701975662e-9 1.3469000164613346e-9 8.192269450796906e-10
          1.6294963796417007e-9 1.3815547086327204e-9 8.942841285719955e-10 3.3589191612223714e-10 5.600486887452844e-10 3.366213354620638e-10
          6.569199513943249e-10 2.057265418504005e-10 1.2200149154671916e-10 2.3106181747228959e-10 1.179692507630394e-10 5.974671223307927e-11
          7.055794002587147e-11 4.113229065474345e-11 7.534558737852652e-11 3.537770595983612e-11 2.059877981970176e-11 4.245789083761772e-9
          3.959787107996702e-9 2.404828777342992e-9 2.230051906255451e-9 4.156385494176456e-9 3.8925130554098414e-9 3.1001150265443804e-9
          1.7250119571093847e-9 3.0676214013804667e-9 6.3433887233136215e-9 6.014048660912327e-9 4.850842207834043e-9 1.9287303778117837e-9
          1.0620263961938386e-9 1.91046563849129e-9 9.438299834862922e-10 5.170222583251516e-10 9.281568736412449e-10 3.0700189752666737e-9
          1.4959953663261469e-9 3.77823719388022e-10 2.0704798544262674e-10 3.657890782866676e-10 1.3226200974256888e-10 7.26201566114895e-11
          1.250979337512636e-10 5.834922378158324e-10 1.9556210714001836e-10 4.2832096298858265e-11 2.3557686226063152e-11 3.940443895087233e-11
          2.014347968247652e-11 1.8206510554935578e-11 6.015510121620879e-11 8.62246742702379e-9 8.286730017716553e-9 6.852798488471405e-9
          1.055354236903052e-8 1.0280854612069893e-8 8.705260174182166e-9 4.414658639025342e-9 2.1646216116476874e-9 5.699935279220051e-9
          2.814033940219526e-9 1.1797839947190629e-8 1.1613842748489683e-8 1.0010323739283941e-8 1.2220303422314243e-8 1.2076981100650291e-8
          1.0479140322019714e-8 6.6324912979526524e-9 3.2911137860109996e-9 6.973920672332294e-9 3.466918217836853e-9 8.394870722506882e-10
          2.77224160110614e-10 1.0886271730262667e-9 3.5594686804056217e-10 8.370788468328975e-11 3.741127986854481e-11 1.0607601530887811e-10
          1.2722743000274083e-9 4.1364044429540326e-10 1.3401167056375646e-9 4.3489419920258944e-10 1.223025226232695e-10 5.382585181471219e-11
          1.2821795392771185e-10
        </DataArray>
        <DataArray type="Float64" Name="gradient_matprop_error" format="ascii" RangeMin="0" RangeMax="0">
          0 0 0 0 0 0
          0 0 0 0 0 0
          0 0 0 0 0 0
          0 0 0 0 0 0
          0 0 0 0 0 0
          0 0 0 0 0 0
          0 0 0 0 0 0
          0 0 0 0 0 0
          0 0 0 0 0 0
          0 0 0 0 0 0
          0 0 0 0 0 0
          0 0 0 0 0 0
          0 0 0 0 0 0
          0 0 0 0 0 0
          0 0 0 0 0 0
          0 0 0 0 0 0
          0 0 0 0 0 0
          0 0 0 0 0 0
          0 0 0 0 0 0
          0 0 0 0 0 0
          0 0 0 0 0 0
          0 0 0 0 0 0
          0 0 0 0 0 0
          0 0 0 0 0 0
          0 0 0 0 0 0
          0 0 0 0 0 0
          0 0 0 0 0 0
          0 0 0 0 0 0
          0 0 0 0 0 0
          0 0 0 0 0 0
          0 0 0 0 0 0
          0 0 0 0 0 0
          0 0 0 0 0 0
          0 0 0 0 0 0
          0 0 0 0 0 0
          0 0 0 0 0 0
          0 0 0 0 0 0
          0 0 0 0 0 0
          0 0 0 0 0 0
          0 0 0 0 0 0
          0 0 0 0 0 0
          0 0 0 0 0 0
          0 0 0 0 0 0
          0 0 0 0 0 0
          0 0 0 0 0 0
          0 0 0 0 0 0
          0 0 0 0 0 0
          0 0 0 0 0 0
          0 0 0 0 0 0
          0 0 0 0 0 0
          0 0 0 0 0 0
          0 0 0 0 0 0
          0 0 0 0 0 0
          0 0 0 0 0 0
          0 0 0 0 0 0
          0 0 0 0 0 0
          0 0 0 0 0 0
          0 0 0 0 0 0
          0 0 0 0 0 0
          0 0 0 0 0 0
          0 0 0 0 0 0
          0 0 0 0 0 0
          0 0 0 0 0 0
          0 0 0 0 0 0
          0 0 0 0 0 0
          0 0 0 0 0 0
          0 0 0 0 0 0
          0 0 0 0 0 0
          0 0 0 0 0 0
          0 0 0 0 0 0
          0 0 0 0 0 0
          0 0 0 0 0 0
          0 0 0 0 0 0
          0 0 0 0 0 0
          0 0 0 0 0 0
          0 0 0 0 0 0
          0 0 0 0 0 0
          0 0 0 0 0 0
          0 0 0 0 0 0
          0 0 0 0 0 0
          0 0 0 0 0 0
          0 0 0 0 0 0
          0 0 0 0 0 0
          0 0 0 0 0 0
          0 0 0 0 0 0
          0 0 0 0 0 0
          0 0 0 0 0 0
          0 0 0 0 0 0
          0 0 0 0 0 0
          0 0 0 0 0 0
          0 0 0 0 0 0
          0 0 0 0 0 0
          0 0 0 0 0 0
          0 0 0 0 0 0
          0 0 0 0 0 0
          0 0 0 0 0 0
          0 0 0 0 0 0
          0 0 0 0 0 0
          0 0 0 0 0 0
          0 0 0 0 0 0
          0 0 0 0 0 0
          0 0 0 0 0 0
          0 0 0 0 0 0
          0 0 0 0 0 0
          0 0 0 0 0 0
          0 0 0 0 0 0
          0 0 0 0 0 0
          0 0 0 0 0 0
          0 0 0 0 0 0
          0 0 0 0 0 0
          0 0 0 0 0 0
          0 0 0 0 0 0
          0 0 0 0 0 0
          0 0 0 0 0 0
          0 0 0 0 0 0
          0 0 0 0 0 0
          0
        </DataArray>
        <DataArray type="Float64" Name="initial_marker" format="ascii" RangeMin="0" RangeMax="2">
          2 2 1.5 0 0.5 2
          2 2 2 2 2 1
          2 2 2 2 0.5 0
          0.5 0 0 0 0 0
          0 2 2 2 2 2
          2 2 2 2 2 2
          2 2 2 2 2 2
          1 2 2 2 2 1
          2 2 1.5 2 2 2
          2 2 2 2 2 2
          2 2 2 2 2 2
          2 2 2 2 2 2
          2 2 2 2 2 1.25
          2 2 2 1 1 0
          1 0 0 0 0.5 0
          0 0 0 0 0 0
          0.5 0 0 0 0.5 0
          0 0 0 0 0 2
          2 2 2 2 2 2
          2 2 2 2 2 2
          2 2 2 2 2 2
          2 2 2 2 2 2
          2 2 2 2 2 2
          2 2 2 2 2 2
          2 2 2 2 2 2
          2 2 2 2 2 2
          2 2 2 2 2 2
          2 2 2 2 2 2
          2 2 2 2 2 2
          2 2 2 2 2 2
          2 2 2 2 2 2
          2 2 2 2 2 2
          2 2 2 2 1.5 2
          2 2 2 2 2 2
          2 2 2 2 2 2
          1.3333333333333333 2 2 2 2 2
          2 2 2 2 2 2
          2 2 2 2 2 2
          2 1.25 1.3333333333333333 2 2 1.75
          2 2 2 2 2 2
          1.6666666666666667 2 2 2 2 2
          2 2 2 2 2 2
          2 2 2 2 2 2
          2 2 2 2 2 2
          2 2 2 2 2 2
          2 2 2 2 2 2
          2 2 2 2 2 2
          2 2 2 2 2 2
          2 2 2 2 2 2
          2 2 2 2 2 2
          2 2 2 2 2 2
          2 2 2 2 2 2
          2 2 2 2 2 2
          2 2 2 2 2 2
          2 2 2 2 2 2
          2 2 2 2 2 2
          2 2 2 2 2 2
          2 2 2 2 2 2
          2 2 2 2 2 2
          2 2 2 2 2 2
          2 2 2 2 2 2
          2 2 2 2 2 2
          2 2 2 2 2 2
          2 2 2 2 2 2
          2 2 2 2 2 2
          2 2 2 2 2 2
          2 2 2 2 2 2
          2 2 2 2 2 2
          1.5 1.3333333333333333 2 2 1.75 2
          2 2 2 2 2 2
          2 2 2 2 2 2
          2 2 2 2 2 2
          2 2 2 2 2 2
          2 2 2 1 0 0.5
          0 1 1 0 0 0.25
          0 0 0 0 0 0.75
          0.6666666666666666 0 1 0 1 1
          1 0 0 1 1 0
          1 0 1 1 1 0
          0 1 1 0 1 1
          0 0 1 1 0 0.5
          0.5 0 0 0 0 0
          0.75 0.5 0 1 1 0
          0 1 1 0 1 1
          0 0 1 1 0 2
          2 2 2 2 2 2
          2 2 2 2 2 2
          2 1.75 1.5 2 2 2
          2 2 2 2 2 2
          2 2 2 2 2 2
          2 2 2 2 2 2
          2 2 2 2 2 2
          2 2 2 2 2 2
          2 2 2 2 2 0
          0 0 0 0 0 0.25
          0 0 0 0.75 0 0
          0 0 0 0 0 0
          0.75 0 1 0 1 0
          2 2 2 2 2 2
          2 2 2 2 2 2
          2 2 2 2 2 2
          2 2 2 2 2 2
          2 2 2 2 2 2
          2 2 2 2 1.75 1.5
          1.5 1.25 1.75 1 0.5 2
          2 2 2 2 2 2
          2 2 2 2 2 2
          2 2 2 2 2 2
          2 2 2 2 2 2
          2 2 2 1.25 1 1.25
          0.5 0.5 1.75 2 2 2
          2 2 2 2 2 2
          2 2 2 2 2 2
          2 2 2 2 2 2
          2 2 2 2 2 2
          2 2 2 2 2 2
          2
        </DataArray>
        <DataArray type="Float64" Name="markers_norefine" format="ascii" RangeMin="0" RangeMax="2">
          0 0 0 0 0 0
          1 0 0 0 0 0
          2 0 0 0 0 0
          0 0 0 0 0 0
          0 0 0 0 0 0
          0 0 0.25 0 0 0
          0 0 0 0 0 0
          0 0 0 0 0 0