<?xml version="1.0"?>
<VTKFile type="UnstructuredGrid" version="0.1" byte_order="LittleEndian" header_type="UInt32" compressor="vtkZLibDataCompressor">
  <UnstructuredGrid>
    <Piece NumberOfPoints="366" NumberOfCells="219">
      <PointData>
        <DataArray type="Int32" Name="libmesh_node_id" format="ascii" RangeMin="380" RangeMax="2982">
          380 654 660 685 692 693
          1260 1274 1275 1277 1280 1290
          1294 1333 1347 1355 1368 1369
          1370 1371 1372 1373 1374 1375
          1376 1377 1378 1379 1382 1384
          1385 1387 1388 1392 2166 2209
          2210 2211 2318 2327 2328 2329
          2330 2331 2332 2333 2346 2347
          2349 2352 2361 2362 2363 2364
          2365 2366 2367 2387 2388 2389
          2390 2391 2392 2393 2415 2416
          2417 2418 2419 2420 2421 2551
          2558 2606 2629 2630 2633 2636
          2640 2665 2666 2667 2672 2673
          2712 2715 2716 2719 2720 2722
          2726 2755 2756 2757 2758 2765
          2766 2767 2768 2769 2770 2771
          2772 2773 2774 2775 2776 2777
          2778 2779 2780 2781 2782 2783
          2784 2785 2786 2787 2788 2789
          2790 2791 2792 2793 2794 2795
          2796 2797 2798 2799 2800 2801
          2802 2803 2804 2805 2806 2807
          2808 2809 2810 2811 2812 2813
          2814 2815 2816 2823 2824 2825
          2826 2833 2834 2836 2837 2838
          2839 2840 2841 2842 2843 2844
          2846 2848 2850 2851 2852 2853
          2854 2855 2856 2857 2858 2859
          2860 2861 2862 2865 2867 2868
          2870 2871 2872 2873 2874 2875
          2876 2877 2878 2880 2882 2884
          2885 2886 2887 2888 2889 2890
          2891 2892 2893 2896 2897 2913
          2914 2915 2916 2917 2918 2919
          2920 2921 2924 2925 2941 2942
          2945 2946 2948 2952 2969 2970
          2973 2974 2976 2980 2160 2161
          2163 2162 2164 2165 2206 2205
          2208 2207 2225 2223 2230 2229
          2402 2401 2406 2405 2430 2429
          2434 2433 2545 2547 2549 2546
          2548 2550 2552 2554 2556 2553
          2555 2557 2523 2594 2596 1329
          2627 2595 1342 2628 2631 2632
          2604 2634 2638 2661 2662 2663
          2664 2668 2669 2670 2674 2671
          1356 2676 2682 2678 2683 2686
          2692 2702 2659 2703 2704 1351
          2717 1359 2718 2721 1365 2714
          2724 2728 2312 2749 2750 2313
          2751 2752 2753 2315 2754 2759
          2760 2761 2762 2763 2764 1240
          2534 1331 2544 1332 2817 2818
          2819 2820 2821 2822 2827 2828
          2831 2616 1345 2626 2894 2895
          2898 1389 2899 2900 2903 2904
          2906 2910 2922 2923 2926 1393
          2927 2928 2931 2932 2934 2938
          2943 2944 2947 1395 2950 2954
          2971 2972 2975 1399 2978 2982
        </DataArray>
        <DataArray type="Float64" Name="bounds" format="ascii" RangeMin="0" RangeMax="0">
          0 0 0 0 0 0
          0 0 0 0 0 0
          0 0 0 0 0 0
          0 0 0 0 0 0
          0 0 0 0 0 0
          0 0 0 0 0 0
          0 0 0 0 0 0
          0 0 0 0 0 0
          0 0 0 0 0 0
          0 0 0 0 0 0
          0 0 0 0 0 0
          0 0 0 0 0 0
          0 0 0 0 0 0
          0 0 0 0 0 0
          0 0 0 0 0 0
          0 0 0 0 0 0
          0 0 0 0 0 0
          0 0 0 0 0 0
          0 0 0 0 0 0
          0 0 0 0 0 0
          0 0 0 0 0 0
          0 0 0 0 0 0
          0 0 0 0 0 0
          0 0 0 0 0 0
          0 0 0 0 0 0
          0 0 0 0 0 0
          0 0 0 0 0 0
          0 0 0 0 0 0
          0 0 0 0 0 0
          0 0 0 0 0 0
          0 0 0 0 0 0
          0 0 0 0 0 0
          0 0 0 0 0 0
          0 0 0 0 0 0
          0 0 0 0 0 0
          0 0 0 0 0 0
          0 0 0 0 0 0
          0 0 0 0 0 0
          0 0 0 0 0 0
          0 0 0 0 0 0
          0 0 0 0 0 0
          0 0 0 0 0 0
          0 0 0 0 0 0
          0 0 0 0 0 0
          0 0 0 0 0 0
          0 0 0 0 0 0
          0 0 0 0 0 0
          0 0 0 0 0 0
          0 0 0 0 0 0
          0 0 0 0 0 0
          0 0 0 0 0 0
          0 0 0 0 0 0
          0 0 0 0 0 0
          0 0 0 0 0 0
          0 0 0 0 0 0
          0 0 0 0 0 0
          0 0 0 0 0 0
          0 0 0 0 0 0
          0 0 0 0 0 0
          0 0 0 0 0 0
          0 0 0 0 0 0
        </DataArray>
        <DataArray type="Float64" Name="gradient_error" format="ascii" RangeMin="1.1413562525772826e-10" RangeMax="2.4634946967644306e-8">
          1.4416666994627802e-8 6.758295364429238e-9 1.84483017935456e-8 2.467836363236095e-9 1.2239631666524393e-8 8.123580989913892e-9
          3.095403507922346e-9 2.4634946967644306e-8 2.3094279970150117e-8 1.4564532581982995e-8 2.143903309604233e-8 6.103470679097763e-9
          7.722650061062685e-9 4.359926450727094e-9 1.2142909440188975e-9 1.863928670302841e-9 1.972951716008522e-8 1.7174944432670516e-8
          1.2711502615910225e-8 1.0881512212717157e-8 1.0044627626622405e-8 6.142744146454951e-9 1.5746930755812293e-8 1.8762589100828614e-8
          1.2459857887563908e-8 1.293180764418761e-8 7.2920389718628485e-9 6.087290381175254e-9 3.2134115047345354e-9 7.668209851600453e-9
          7.410014131091813e-9 4.398183289562323e-9 3.9155349907417636e-9 5.081425193335951e-9 8.064945192699614e-9 5.7488352634919365e-9
          4.730826316085183e-9 3.846035273683282e-9 2.443238384527477e-8 1.6539257382663267e-8 1.4269613058657699e-8 1.2314840261140238e-8
          1.0514081773505764e-8 2.2120373822505684e-8 1.9582109676705025e-8 1.6830874713363425e-8 1.9270918272501942e-8 2.0720971462108203e-8
          2.30667041098983e-8 1.68084946494289e-8 2.4379527751051563e-8 2.2261845002392214e-8 1.996386406395311e-8 1.7481784275959203e-8
          2.4407269299024145e-8 2.2632379698765182e-8 2.0959571927293e-8 8.526493360630205e-9 7.175469072956561e-9 5.555348558756752e-9
          4.565861259018165e-9 1.147438271966228e-8 9.783516716843535e-9 7.3073769711544865e-9 1.3741965859817798e-8 1.1780260688158483e-8
          8.636604525621813e-9 7.282552252768322e-9 1.4577857302054479e-8 1.2515271005550558e-8 9.131240549946786e-9 5.511706989145593e-9
          3.3371963180794774e-9 2.1271294930428226e-10 9.363382338936374e-10 6.39187000208647e-10 1.7617904559605135e-9 4.241154078279974e-10
          8.084706580305045e-10 3.792425489660594e-9 2.952405190793373e-9 2.4348004255835507e-9 2.227659826869603e-9 1.6272918748397717e-9
          1.502744408802524e-10 6.411924009506838e-10 4.3599658856406487e-10 1.1505437578639755e-9 7.87576348737069e-10 2.886363264171425e-10
          5.221974428606667e-10 2.2558225503746758e-8 2.212520138892045e-8 1.914307191422237e-8 2.03451323820337e-8 1.621303303583987e-8
          1.5642316157301844e-8 1.2261681209866945e-8 1.3882788177229598e-8 1.198327994117761e-8 9.795183091403185e-9 8.751485681276492e-9
          7.07975157402236e-9 1.676547315383611e-8 1.3872525198308441e-8 1.226091093249368e-8 7.773745239508954e-9 5.957439014455206e-9
          5.5415090837985625e-9 4.181922543458103e-9 1.1134626355786143e-8 8.686445132010802e-9 7.9925606589504e-9 1.8932638944354292e-8
          2.01052962610117e-8 1.8511322615795215e-8 1.90468933679138e-8 2.1435260532891836e-8 1.8990222848919906e-8 1.4639568739456862e-8
          1.6930261844439548e-8 1.7186493361005397e-8 2.0524535639110692e-8 1.642773222560275e-8 1.6471960033383587e-8 1.3104458420298953e-8
          1.3054390176098376e-8 1.5686208204338155e-8 1.23597705312304e-8 1.5016420609320468e-8 1.5604138612471448e-8 1.2530522758336246e-8
          1.5759218355533056e-8 1.955979589452549e-8 1.641957530198973e-8 1.4820079030338465e-8 1.2199080520577509e-8 2.0162749660415802e-8
          1.7075575188127107e-8 1.5688302497758665e-8 1.3244963138220137e-8 1.0426087489875627e-8 9.785082378687765e-9 7.614401480556392e-9
          1.381030174781425e-8 1.0898707151835943e-8 1.0393999489807039e-8 9.778928953130965e-9 9.416638054809336e-9 6.990272230483673e-9
          8.302010778289132e-9 5.17727979219518e-9 4.941132774975581e-9 4.2544024382006214e-9 4.388910882622393e-9 3.1019475113134407e-9
          3.036918670820873e-9 2.1207957189455378e-9 6.5380484722588414e-9 4.713546482715358e-9 4.53716742048457e-9 2.102785208108058e-9
          1.4246331177086058e-9 3.247048829822329e-9 2.1818269791666977e-9 1.0255532293735401e-8 1.0190246855580265e-8 7.936283192940205e-9
          7.82124272376744e-9 9.584420715953791e-9 7.210030886073619e-9 9.688536030165218e-9 9.870156807172237e-9 7.719296093038332e-9
          9.727153381676461e-9 5.857705512901434e-9 5.717150684555475e-9 5.15785188676194e-9 5.800983488721113e-9 5.7563200176897965e-9
          5.364668350051921e-9 7.976297004438181e-9 5.853316948264448e-9 5.698789503265007e-9 4.0824677607459025e-9 8.391037376242226e-9
          6.2059628236790145e-9 6.111434583140118e-9 4.093090423338598e-9 2.798178991830294e-9 4.368794438642379e-9 3.0264104262015814e-9
          5.878497889360589e-9 4.670407074634346e-9 3.6579287439638484e-9 2.846319487921486e-9 8.133321753243008e-9 6.567238532040469e-9
          4.96355234837732e-9 3.5889996099442307e-9 2.6630729293386393e-9 5.127678298052273e-9 3.859773888598493e-9 9.856054785955783e-9
          8.032968505860523e-9 5.979857209805925e-9 4.760677338683567e-9 1.0486508278475674e-8 8.570715051082037e-9 6.362080844049899e-9
          6.340335777703712e-9 4.821816530017514e-9 6.79067584554006e-9 5.183908130959244e-9 1.9062867857158823e-9 1.316299931180027e-9
          2.7963856139944554e-9 1.948880538178084e-9 8.774193008458234e-10 1.307151672762039e-9 3.5245300825428446e-9 2.4743409072621162e-9
          3.8017525300581276e-9 2.676492186137387e-9 1.6685223666988003e-9 1.808783254524838e-9 6.285568078091205e-9 5.186418682516624e-9
          3.99627281533784e-9 4.907476665135122e-9 1.0588816535542933e-8 8.969735316732637e-9 2.877645964306099e-9 3.591216268599055e-9
          1.937163460878442e-9 2.460465453300429e-9 1.2282223000022636e-9 1.5855553843085677e-9 1.9107676478234505e-9 2.4229310669929938e-9
          2.738319757581953e-9 3.4188121651063206e-9 3.5724214518629026e-9 4.402552706207002e-9 4.210906595331883e-9 5.143540396849589e-9
          4.449992177845305e-9 5.419212024976644e-9 4.1658437026754715e-9 3.1724003398464767e-9 7.405225790094032e-9 3.248152796073454e-9
          2.447976407136948e-9 5.936754986644697e-9 2.454274784974345e-9 1.8329077591972063e-9 4.603340628337103e-9 1.794999821935124e-9
          1.3305291157167465e-9 3.4436848117982716e-9 8.907989393752054e-10 6.221751710984985e-10 4.756262624619087e-10 6.829198441515681e-10
          1.2702800296898799e-9 4.224876442614156e-10 3.2238097485640463e-10 8.702235461654994e-10 2.482177271759566e-9 1.7232715018079187e-9
          2.7907153054284166e-10 5.77754365215942e-10 1.152916920257095e-9 2.2528350069656895e-9 1.7173704979022427e-9 1.4940098428079477e-9
          1.1249016184351754e-9 1.2728207540637272e-9 9.166130628551666e-10 8.251623184485381e-10 1.3863613423190812e-9 5.896472795301572e-10
          1.001004103463715e-9 9.32791613842896e-10 1.47438591244827e-9 6.9464214235057e-10 1.1101942351413604e-9 5.040577486154031e-10
          8.148164717757583e-10 3.3753897827789037e-10 4.86505943195299e-10 2.2848245454592388e-10 2.5663415230452126e-10 5.536387518767641e-10
          4.100579320811974e-10 2.608261110667466e-10 2.778537119783124e-10 7.016864638618623e-10 4.775152252915015e-10 1.1413562525772826e-10
          1.8328262520654035e-10 3.156259260953588e-10 2.0911224714237355e-8 1.792801563931312e-8 1.716220884460787e-8 2.0089229810568942e-8
          1.480444019483487e-8 1.415140934859734e-8 1.501732834103279e-8 1.7730233727421293e-8 1.2338107362401695e-8 1.185137634440225e-8
          1.1322934177442388e-8 9.237782322468887e-9 8.814991576539825e-9 9.854146073432532e-9 7.633074677254519e-9 1.1029811046176978e-8
          9.162685708786638e-9 7.407081071312803e-9 5.801346141168806e-9 4.381645989677426e-9 6.962534279335965e-9 6.626149532462426e-9
          5.027730545756149e-9 4.7711401331133834e-9 5.6924051479454115e-9 4.067081180624967e-9 3.467650597793454e-9 3.2831854608233646e-9
          2.7811974347485418e-9 3.1842058356265834e-9 2.2250900883857264e-9 1.495541662735176e-9 2.1466328591094677e-9 1.5674613304515106e-9
          2.9892447837189595e-9 2.2051852681495305e-9 2.143817490915998e-9 1.6343787952245487e-9 2.830255418855012e-9 2.180637545920664e-9
          1.211624629764937e-9 1.630633592373974e-9 3.6646511531730877e-9 2.722922684665307e-9 3.922997237109265e-9 2.922397955666063e-9
          3.3621796764100335e-9 2.6083387734206377e-9 3.5627380911380794e-9 2.7705942298402016e-9 1.961875982768965e-9 2.0882495970937216e-9
          1.1078750069158693e-9 7.581919929824822e-10 1.5710257154803156e-9 1.0811482795523738e-9 5.025769248567801e-10 7.189501868070574e-10
          1.9511709976457343e-9 1.3484656329380055e-9 2.0986045337932657e-9 1.4526873825688853e-9 8.991750527478258e-10 9.69739713277061e-10
        </DataArray>
        <DataArray type="Float64" Name="gradient_matprop_error" format="ascii" RangeMin="0" RangeMax="0">
          0 0 0 0 0 0
          0 0 0 0 0 0
          0 0 0 0 0 0
          0 0 0 0 0 0
          0 0 0 0 0 0
          0 0 0 0 0 0
          0 0 0 0 0 0
          0 0 0 0 0 0
          0 0 0 0 0 0
          0 0 0 0 0 0
          0 0 0 0 0 0
          0 0 0 0 0 0
          0 0 0 0 0 0
          0 0 0 0 0 0
          0 0 0 0 0 0
          0 0 0 0 0 0
          0 0 0 0 0 0
          0 0 0 0 0 0
          0 0 0 0 0 0
          0 0 0 0 0 0
          0 0 0 0 0 0
          0 0 0 0 0 0
          0 0 0 0 0 0
          0 0 0 0 0 0
          0 0 0 0 0 0
          0 0 0 0 0 0
          0 0 0 0 0 0
          0 0 0 0 0 0
          0 0 0 0 0 0
          0 0 0 0 0 0
          0 0 0 0 0 0
          0 0 0 0 0 0
          0 0 0 0 0 0
          0 0 0 0 0 0
          0 0 0 0 0 0
          0 0 0 0 0 0
          0 0 0 0 0 0
          0 0 0 0 0 0
          0 0 0 0 0 0
          0 0 0 0 0 0
          0 0 0 0 0 0
          0 0 0 0 0 0
          0 0 0 0 0 0
          0 0 0 0 0 0
          0 0 0 0 0 0
          0 0 0 0 0 0
          0 0 0 0 0 0
          0 0 0 0 0 0
          0 0 0 0 0 0
          0 0 0 0 0 0
          0 0 0 0 0 0
          0 0 0 0 0 0
          0 0 0 0 0 0
          0 0 0 0 0 0
          0 0 0 0 0 0
          0 0 0 0 0 0
          0 0 0 0 0 0
          0 0 0 0 0 0
          0 0 0 0 0 0
          0 0 0 0 0 0
          0 0 0 0 0 0
        </DataArray>
        <DataArray type="Float64" Name="initial_marker" format="ascii" RangeMin="0.6666666666666666" RangeMax="2">
          2 2 2 2 2 2
          2 2 2 2 2 2
          2 2 2 2 2 2
          2 2 2 2 2 2
          2 2 2 2 2 2
          2 2 2 2 2 2
          2 2 2 2 2 2
          2 2 2 2 2 2
          2 2 2 2 2 2
          2 2 2 2 2 2
          2 2 2 2 2 2
          2 2 2 2 2 2
          2 2 2 2 2 2
          2 2 2 2 2 2
          1.5 2 2 2 2 2
          2 2 2 2 2 2
          2 2 2 2 2 2
          2 2 2 2 2 2
          2 2 2 2 2 2
          2 2 2 2 2 2
          2 2 2 2 2 2
          2 2 2 2 2 2
          2 2 2 2 2 2
          2 2 2 2 2 2
          2 2 2 2 2 2
          2 2 2 2 2 2
          2 2 2 2 2 2
          2 2 2 2 2 2
          2 2 2 2 2 2
          2 2 2 2 2 2
          2 2 2 2 2 2
          2 2 2 2 2 2
          2 2 2 2 2 2
          2 2 2 2 2 2
          2 2 2 2 2 2
          2 2 2 2 2 2
          2 2 2 2 2 2
          2 2 2 2 2 2
          2 2 2 2 2 2
          2 2 1.5 1.5 2 2
          2 2 2 2 2 2
          2 2 2 2 2 2
          2 2 2 2 2 2
          2 2 2 2 2 2
          2 2 2 2 2 2
          2 2 2 2 2 2
          2 2 2 2 2 2
          2 1.5 2 1.5 2 1.5
          2 1.5 1.75 1.5 1.3333333333333333 1.25
          2 0.75 1.75 2 2 0.6666666666666666
          1.5 2 2 2 2 2
          2 2 2 2 2 2
          2 2 2 2 2 2
          2 2 2 2 2 2
          2 2 2 2 2 2
          2 2 2 2 2 2
          2 2 2 2 2 2
          2 2 2 2 2 2
          2 2 2 2 2 2
          2 2 2 2 2 2
          2 2 2 2 2 2
        </DataArray>
        <DataArray type="Float64" Name="markers_norefine" format="ascii" RangeMin="0" RangeMax="2">
          2 0 0 0 0 0
          0 1 0.25 0 1.5 0
          0 0 0 0 0 0
          0 0 0 0 0 0
          0 0 0 0 0 0
          0 0 0 0 0 0
          0 0 0.75 0 0 0
          0 0 0 0 2 1.75
          1 2 0.5 0.25 0 0
          1 0.5 0 0 0 0
          0 0 0 0 0 0
          0 0 0 0 0 0
          0 0 0 0 0 0
          0 0 0 0 0 0
          0 0 0 0 0 0
          0 0.5 0.25 0 0 0
          0 0 0 0 0 0
          0 0 0 0 0 0
          0 0 0 0 0 1
          0.75 0 0 0.25 0 1
          1 0 0.5 0 0 0
          0 0 0 0 0 0
          0 0 0 0 0 0
          0 0 0 0 0 0
          0 0 0 0 0 0
          0 0 0 0 0 0
          0 0 0 0 0 0
          0 0 0 0 0 0
          0 0 0 0 0 0
          0 0 0 0 0 0
          0 0 0 0 0 0
          0 0 0 0 0 0
          0 0 0 0 0 0
          0 0 0 0 0 0
          0 0 0 0 0 0
          0 0 0 0 0 0
          0 0 0 0 0 0
          0 0 0 0 0 0
          0 0 0 0 0 0
          0 0 0 0 0 0
          0 0 0 0 0 0
          0 0 0 0 0 0
          0 0 0 0 0 0
          0 0 0 0 0 0
          0 0 0 0 0 0
          0 0 0 0 0 0
          0 0 0 0 0 0
          0 0 0 0 0 0
          0 0 0 0 0 0
          0 0 0 0 0 0
          0 0 0 0 0 0
          0 0 0 0 0 0
          0 0 0 0 0 0
          0 0 0 0 0 0
          0 0 0 0 0 0
          0 0 0 0 0 0
          0 0 0 0 0 0
          0 0 0 0 0 0
          0 0 0 0 0 0
          0 0 0 0 0 0
          0 0 0 0 0 0
        </DataArray>
        <DataArray type="Float64" Name="markers_mustrefine" format="ascii" RangeMin="0.6666666666666666" RangeMax="2">
          2 2 2 2 2 2
          2 2 2 2 2 2
          2 2 2 2 2 2
          2 2 2 2 2 2
          2 2 2 2 2 2
          2 2 2 2 2 2
          2 2 2 2 2 2
          2 2 2 2 2 2
          2 2 2 2 2 2
          2 2 2 2 2 2
          2 2 2 2 2 2
          2 2 2 2 2 2
          2 2 2 2 2 2
          2 2 2 2 2 2
          1.5 2 2 2 2 2
          2 2 2 2 2 2
          2 2 2 2 2 2
          2 2 2 2 2 2
          2 2 2 2 2 2
          2 2 2 2 2 2
          2 2 2 2 2 2
          2 2 2 2 2 2
          2 2 2 2 2 2
          2 2 2 2 2 2
          2 2 2 2 2 2
          2 2 2 2 2 2
          2 2 2 2 2 2
          2 2 2 2 2 2
          2 2 2 2 2 2
          2 2 2 2 2 2
          2 2 2 2 2 2
          2 2 2 2 2 2
          2 2 2 2 2 2
          2 2 2 2 2 2
          2 2 2 2 2 2
          2 2 2 2 2 2
          2 2 2 2 2 2
          2 2 2 2 2 2
          2 2 2 2 2 2
          2 2 1.5 1.5 2 2
          2 2 2 2 2 2
          2 2 2 2 2 2
          2 2 2 2 2 2
          2 2 2 2 2 2
          2 2 2 2 2 2
          2 2 2 2 2 2
          2 2 2 2 2 2
          2 1.5 2 1.5 2 1.5
          2 1.5 1.75 1.5 1.3333333333333333 1.25
          2 0.75 1.75 2 2 0.6666666666666666
          1.5 2 2 2 2 2
          2 2 2 2 2 2
          2 2 2 2 2 2
          2 2 2 2 2 2
          2 2 2 2 2 2
          2 2 2 2 2 2
          2 2 2 2 2 2
          2 2 2 2 2 2
          2 2 2 2 2 2
          2 2 2 2 2 2
          2 2 2 2 2 2
        </DataArray>
        <DataArray type="Float64" Name="gradient_marker" format="ascii" RangeMin="1" RangeMax="1">
          1 1 1 1 1 1
          1 1 1 1 1 1
          1 1 1 1 1 1
          1 1 1 1 1 1
          1 1 1 1 1 1
          1 1 1 1 1 1
          1 1 1 1 1 1
          1 1 1 1 1 1
          1 1 1 1 1 1
          1 1 1 1 1 1
          1 1 1 1 1 1
          1 1 1 1 1 1
          1 1 1 1 1 1
          1 1 1 1 1 1
          1 1 1 1 1 1
          1 1 1 1 1 1
          1 1 1 1 1 1
          1 1 1 1 1 1
          1 1 1 1 1 1
          1 1 1 1 1 1
          1 1 1 1 1 1
          1 1 1 1 1 1
          1 1 1 1 1 1
          1 1 1 1 1 1
          1 1 1 1 1 1
          1 1 1 1 1 1
          1 1 1 1 1 1
          1 1 1 1 1 1
          1 1 1 1 1 1
          1 1 1 1 1 1
          1 1 1 1 1 1
          1 1 1 1 1 1
          1 1 1 1 1 1
          1 1 1 1 1 1
          1 1 1 1 1 1
          1 1 1 1 1 1
          1 1 1 1 1 1
          1 1 1 1 1 1
          1 1 1 1 1 1
          1 1 1 1 1 1
          1 1 1 1 1 1
          1 1 1 1 1 1
          1 1 1 1 1 1
          1 1 1 1 1 1
          1 1 1 1 1 1
          1 1 1 1 1 1
          1 1 1 1 1 1
          1 1 1 1 1 1
          1 1 1 1 1 1
          1 1 1 1 1 1
          1 1 1 1 1 1
          1 1 1 1 1 1
          1 1 1 1 1 1
          1 1 1 1 1 1
          1 1 1 1 1 1
          1 1 1 1 1 1
          1 1 1 1 1 1
          1 1 1 1 1 1
          1 1 1 1 1 1
          1 1 1 1 1 1
          1 1 1 1 1 1
        </DataArray>
        <DataArray type="Float64" Name="gradient_matprop_marker" format="ascii" RangeMin="0" RangeMax="0">
          0 0 0 0 0 0
          0 0 0 0 0 0
          0 0 0 0 0 0
          0 0 0 0 0 0
          0 0 0 0 0 0
          0 0 0 0 0 0
          0 0 0 0 0 0
          0 0 0 0 0 0
          0 0 0 0 0 0
          0 0 0 0 0 0
          0 0 0 0 0 0
          0 0 0 0 0 0
          0 0 0 0 0 0
          0 0 0 0 0 0
          0 0 0 0 0 0
          0 0 0 0 0 0
          0 0 0 0 0 0
          0 0 0 0 0 0
          0 0 0 0 0 0
          0 0 0 0 0 0
          0 0 0 0 0 0
          0 0 0 0 0 0
          0 0 0 0 0 0
          0 0 0 0 0 0
          0 0 0 0 0 0
          0 0 0 0 0 0
          0 0 0 0 0 0
          0 0 0 0 0 0
          0 0 0 0 0 0
          0 0 0 0 0 0
          0 0 0 0 0 0
          0 0 0 0 0 0
          0 0 0 0 0 0
          0 0 0 0 0 0
          0 0 0 0 0 0
          0 0 0 0 0 0
          0 0 0 0 0 0
          0 0 0 0 0 0
          0 0 0 0 0 0
          0 0 0 0 0 0
          0 0 0 0 0 0
          0 0 0 0 0 0
          0 0 0 0 0 0
          0 0 0 0 0 0
          0 0 0 0 0 0
          0 0 0 0 0 0
          0 0 0 0 0 0
          0 0 0 0 0 0
          0 0 0 0 0 0
          0 0 0 0 0 0
          0 0 0 0 0 0
          0 0 0 0 0 0
          0 0 0 0 0 0
          0 0 0 0 0 0
          0 0 0 0 0 0
          0 0 0 0 0 0
          0 0 0 0 0 0
          0 0 0 0 0 0
          0 0 0 0 0 0
          0 0 0 0 0 0
          0 0 0 0 0 0
        </DataArray>
        <DataArray type="Float64" Name="combo" format="ascii" RangeMin="1" RangeMax="2">
          2 1 1 1 1 1
          1 1.5 1.125 1 1.75 1
          1 1 1 1 1 1
          1 1 1 1 1 1
          1 1 1 1 1 1
          1 1 1 1 1 1
          1 1 1.375 1 1 1
          1 1 1 1 2 1.875
          1.5 2 1.25 1.125 1 1
          1.5 1.25 1 1 1 1
          1 1 1 1 1 1
          1 1 1 1 1 1
          1 1 1 1 1 1
          1 1 1 1 1 1
          1 1 1 1 1 1
          1 1.25 1.125 1 1 1
          1 1 1 1 1 1
          1 1 1 1 1 1
          1 1 1 1 1 1.5
          1.375 1 1 1.125 1 1.5
          1.5 1 1.25 1 1 1
          1 1 1 1 1 1
          1 1 1 1 1 1
          1 1 1 1 1 1
          1 1 1 1 1 1
          1 1 1 1 1 1
          1 1 1 1 1 1
          1 1 1 1 1 1
          1 1 1 1 1 1
          1 1 1 1 1 1
          1 1 1 1 1 1
          1 1 1 1 1 1
          1 1 1 1 1 1
          1 1 1 1 1 1
          1 1 1 1 1 1
          1 1 1 1 1 1
          1 1 1 1 1 1
          1 1 1 1 1 1
          1 1 1 1 1 1
          1 1 1 1 1 1
          1 1 1 1 1 1
          1 1 1 1 1 1
          1 1 1 1 1 1
          1 1 1 1 1 1
          1 1 1 1 1 1
          1 1 1 1 1 1
          1 1 1 1 1 1
          1 1 1 1 1 1
          1 1 1 1 1 1
          1 1 1 1 1 1
          1 1 1 1 1 1
          1 1 1 1 1 1
          1 1 1 1 1 1
          1 1 1 1 1 1
          1 1 1 1 1 1
          1 1 1 1 1 1
          1 1 1 1 1 1
          1 1 1 1 1 1
          1 1 1 1 1 1
          1 1 1 1 1 1
          1 1 1 1 1 1
        </DataArray>
        <DataArray type="Float64" Name="dHdT" format="ascii" RangeMin="25.858332214793094" RangeMax="62.212491940619486">
          62.212491940619486 28.95271418777109 36.19256465864855 26.760285484931234 37.63406006485783 29.86654401290437
          27.140428167072105 46.038320217279356 40.45270678018474 33.97163644365049 52.41651062308226 28.586985117198545
          29.56699363820913 27.606286327758 26.261502370500793 26.566004229183726 37.73196658276228 35.827946169770435
          34.05452613737309 32.047857311396804 30.933375147368146 28.434445447311504 46.073425673614466 39.048803213058015
          35.77595721641529 33.48099146300964 29.630747456526425 28.61364522487567 27.056227636512407 32.611446420926725
          30.51423163950219 27.680827947389417 27.413771202273516 27.964615322258283 29.89007391232378 28.48589573662975
          27.885050952716927 27.531592508917974 44.382378593085676 34.99198977371492 33.626536625468006 32.67253610801965
          31.32996681312428 38.82327537336045 36.83621748341284 35.31972669923053 57.26423167520756 55.03846455029927
          48.125168783845716 60.10311279646734 43.71451917299814 40.13720687141937 37.26499072917463 35.66656296260773
          46.29680273951911 41.999960058735795 38.14851187079235 30.180768225454074 29.186754819723863 28.377041351471753
          27.80438128704641 32.238294688220215 30.91704723668351 29.39513733649519 33.78048548600979 32.430890617632095
          30.320738290191855 29.280104532828602 34.29987580019917 33.00240811789316 30.709656857441356 28.2027168281907
          27.131927796053596 25.892529422731513 26.169400108491985 26.051828271278893 26.475019908355428 25.968093617113233
          26.106916599545407 27.398463294384005 27.003558219975865 26.82293679189103 26.68635268320152 26.437003520206947
          25.87050406133676 26.058324952108816 25.97659480890532 26.246325413171604 26.104583487078866 25.918979353945865
          26.00294253971392 41.20363138945605 40.130416054266625 37.214222547215925 37.742310090799336 35.80175103731467
          35.407853649751786 33.529077527824384 34.08363951650679 32.17112427972654 30.678661710657735 30.061812655370662
          28.968467865405426 35.27371485706189 33.65082528129743 32.486460766123244 29.341838653774712 28.302518327124005
          28.11002201303827 27.45982092498555 31.846567418508045 30.1025242680642 29.52897601794336 52.96510931499415
          49.413848988180256 42.754470122567454 41.0933576675127 42.37776451553708 38.12885931762075 60.33400798456813
          55.18640312135806 43.45022505414978 45.13351756946183 37.342927332749404 37.197215545393654 36.81909214041049
          36.365259997791405 36.39043785988194 34.72742039539063 37.54676652609807 37.51985887700795 37.29618312602041
          37.03717595336938 37.491855567057954 35.75594270141233 34.380222212487816 32.762158250921196 38.421808739102715
          36.404229294619384 35.03043401855027 34.14086976325399 32.00568500331697 30.98503814588073 29.42465811865936
          35.01187225052912 32.839903433170136 31.62473794295049 31.710359583122013 31.24292704880835 29.33707773318758
          30.071197669844103 28.26273339163442 28.08599565865873 27.640961257006502 27.545388497010034 26.993110150401293
          26.9677365751223 26.600674279652203 28.73207775187076 27.775483802660453 27.637360752858434 26.594519986546786
          26.333136320746963 27.107817161177188 26.636555450303405 34.7278875133723 34.029466503959505 31.64684901781332
          31.135724008067292 32.182271226745016 29.91497889135304 36.023154214367494 35.25711356118751 31.98779963644331
          33.15140956562282 29.432718605584157 29.14653776592857 28.438968744298357 29.968681786372755 29.62982082360329
          28.79623623618515 30.003548621372712 28.574863003026465 28.2926079156543 27.493488803785098 30.585954508373337
          28.92939733948377 28.57712092550012 27.620063887327532 26.92561851537061 27.843523864915888 27.048567610057873
          28.38057783436283 27.740913473508993 27.338309161232544 26.959022747484287 29.69936450876339 28.698718211547796
          27.93845456780705 27.232940948751445 26.83421708348336 27.92686417149836 27.333393554854386 30.97202336201224
          29.626181004379465 28.460328257631097 27.805673503428224 31.51145601642147 30.030946503018026 28.673356214984754
          28.57643308113444 27.791349398571423 28.852918331796022 27.983080114206942 26.52777813070125 26.29818763978226
          26.879889360238714 26.540524036487113 26.13130698269726 26.29316023409021 27.199857880957715 26.760140536540256
          27.332779314661742 26.85126386992385 26.439851800594337 26.500599223807573 28.815175475675908 28.132909771094035
          27.553283163206537 28.061956990992435 31.605893482402085 30.352047658097348 27.049048430392354 27.417669177940347
          26.65400407540766 26.915196761498287 26.370062881846977 26.552626614746227 26.641722008892387 26.899061692999013
          26.98680228739775 27.334783927862624 27.35539171555117 27.79988685441257 27.65062584220952 28.1744355256091
          27.76529229265234 28.320578011127637 27.583885364991776 27.140688414840998 29.245241955936734 27.140739007411756
          26.805937424328683 28.360920620291814 26.786611229070093 26.538148722350435 27.679158661643854 26.508580120395173
          26.32870188619925 27.15305696197358 26.165309659748843 26.054545152165453 25.998245068657234 26.08435880152007
          26.296148028402904 25.973897893642103 25.936053706959676 26.138380617092075 26.75193406055496 26.451843693197198
          25.917259255669983 26.025187270527283 26.23380014640934 26.750928026642462 26.51025134038396 26.44501425629322
          26.27850660338307 26.318831768929122 26.17030957982412 26.147799692794024 26.361035597149097 26.04764092621558
          26.20107149923693 26.226340344399826 26.435957959866663 26.114113836179648 26.272071420021042 26.027664857335367
          26.14326470952113 25.947335267998657 26.010421712565943 25.902117717049386 25.91869715798258 25.94636362431549
          25.973138152602242 25.87333484706331 25.919534056260986 26.080012065089388 25.99142471747716 25.858332214793094
          25.88203117532354 25.928818535435955 37.56423647292857 35.29337003139125 34.965828233941416 36.90547446568738
          33.88961827189322 33.52122821658905 33.94256658513507 35.44923135780952 32.39739548036892 32.23127864364481
          31.83918021881778 30.433452900189238 30.10592423459348 30.748655871158146 29.277285989486302 31.74556903246563