<?xml version="1.0"?>
<VTKFile type="UnstructuredGrid" version="0.1" byte_order="LittleEndian" header_type="UInt32" compressor="vtkZLibDataCompressor">
  <UnstructuredGrid>
    <Piece NumberOfPoints="481" NumberOfCells="230">
      <PointData>
        <DataArray type="Int32" Name="libmesh_node_id" format="ascii" RangeMin="16" RangeMax="4052">
          20 21 22 23 24 25
          26 27 28 29 30 31
          32 33 34 35 36 37
          38 39 40 41 42 43
          44 45 46 47 48 49
          50 51 62 63 64 65
          66 67 68 69 70 71
          72 73 74 75 76 77
          88 89 90 91 92 93
          94 95 96 97 98 99
          100 101 102 103 109 110
          111 112 113 114 115 116
          127 128 129 130 131 132
          133 134 135 136 137 138
          139 140 141 142 148 149
          150 151 152 153 154 155
          166 167 168 169 170 171
          172 173 174 175 176 177
          178 179 180 181 187 188
          189 190 191 192 193 194
          207 208 209 210 211 212
          213 214 215 216 217 218
          219 220 226 227 228 229
          230 231 232 233 246 247
          248 249 250 251 252 253
          254 255 256 257 258 259
          266 267 268 269 270 271
          272 295 296 297 298 305
          306 307 308 309 310 311
          322 334 335 336 337 344
          345 346 347 348 349 350
          491 493 494 495 496 500
          501 503 505 506 507 510
          734 735 736 741 744 748
          749 752 755 756 757 758
          759 762 763 764 765 766
          767 768 770 771 772 773
          774 776 777 1538 1539 1542
          1543 1544 1545 1546 1547 1550
          1551 3597 3598 3599 3604 3673
          3682 3683 3684 3685 3686 3687
          3688 3689 3690 3716 3719 3720
          3721 3724 3791 3792 3793 3794
          3795 3796 3821 3822 3823 3824
          3825 3826 3956 3970 3971 3976
          3998 3999 4000 4001 4002 4003
          4004 4005 4006 4007 4008 4009
          4010 4011 4012 4013 4014 4015
          4016 4017 4018 4019 4020 4021
          4022 4023 4024 4025 4026 4027
          4028 4029 4030 4031 4032 4033
          4034 4035 4036 4037 4038 4039
          4040 4041 4042 4043 4044 4045
          4046 4047 4048 4049 4050 4051
          4052 16 17 18 19 60
          61 86 87 108 125 126
          147 164 165 186 203 205
          206 204 225 244 245 243
          265 264 293 294 284 286
          304 288 290 292 333 361
          487 362 364 492 489 488
          490 498 497 499 377 378
          502 379 504 508 509 737
          738 739 740 742 743 745
          746 747 750 751 753 754
          358 371 374 760 761 384
          388 385 391 392 769 393
          397 775 389 1540 1541 390
          1548 1549 396 3600 3601 3602
          3603 3605 3606 3672 3674 3677
          400 404 407 405 3715 406
          3717 3718 3723 3722 3785 3786
          3787 3790 283 285 3813 3814
          3817 323 3819 325 343 3946
          3949 3950 3947 3954 3955 3953
          3952 3957 3968 3969 3973 3972
          3974 3975 3680 3977 3948 3727
          3728 3731 3737 401 3741 3743
          3746 3748 324 3751 410 3990
          3991 3994 3996 3754 3756 3761
          3764
        </DataArray>
        <DataArray type="Float64" Name="bounds" format="ascii" RangeMin="0" RangeMax="0">
          0 0 0 0 0 0
          0 0 0 0 0 0
          0 0 0 0 0 0
          0 0 0 0 0 0
          0 0 0 0 0 0
          0 0 0 0 0 0
          0 0 0 0 0 0
          0 0 0 0 0 0
          0 0 0 0 0 0
          0 0 0 0 0 0
          0 0 0 0 0 0
          0 0 0 0 0 0
          0 0 0 0 0 0
          0 0 0 0 0 0
          0 0 0 0 0 0
          0 0 0 0 0 0
          0 0 0 0 0 0
          0 0 0 0 0 0
          0 0 0 0 0 0
          0 0 0 0 0 0
          0 0 0 0 0 0
          0 0 0 0 0 0
          0 0 0 0 0 0
          0 0 0 0 0 0
          0 0 0 0 0 0
          0 0 0 0 0 0
          0 0 0 0 0 0
          0 0 0 0 0 0
          0 0 0 0 0 0
          0 0 0 0 0 0
          0 0 0 0 0 0
          0 0 0 0 0 0
          0 0 0 0 0 0
          0 0 0 0 0 0
          0 0 0 0 0 0
          0 0 0 0 0 0
          0 0 0 0 0 0
          0 0 0 0 0 0
          0 0 0 0 0 0
          0 0 0 0 0 0
          0 0 0 0 0 0
          0 0 0 0 0 0
          0 0 0 0 0 0
          0 0 0 0 0 0
          0 0 0 0 0 0
          0 0 0 0 0 0
          0 0 0 0 0 0
          0 0 0 0 0 0
          0 0 0 0 0 0
          0 0 0 0 0 0
          0 0 0 0 0 0
          0 0 0 0 0 0
          0 0 0 0 0 0
          0 0 0 0 0 0
          0 0 0 0 0 0
          0 0 0 0 0 0
          0 0 0 0 0 0
          0 0 0 0 0 0
          0 0 0 0 0 0
          0 0 0 0 0 0
          0 0 0 0 0 0
          0 0 0 0 0 0
          0 0 0 0 0 0
          0 0 0 0 0 0
          0 0 0 0 0 0
          0 0 0 0 0 0
          0 0 0 0 0 0
          0 0 0 0 0 0
          0 0 0 0 0 0
          0 0 0 0 0 0
          0 0 0 0 0 0
          0 0 0 0 0 0
          0 0 0 0 0 0
          0 0 0 0 0 0
          0 0 0 0 0 0
          0 0 0 0 0 0
          0 0 0 0 0 0
          0 0 0 0 0 0
          0 0 0 0 0 0
          0 0 0 0 0 0
          0
        </DataArray>
        <DataArray type="Float64" Name="gradient_error" format="ascii" RangeMin="1.524774788510499e-12" RangeMax="6.669893722068756e-7">
          2.4395531877589736e-11 2.5947743553621975e-11 3.861295200169401e-11 3.306815781279201e-11 2.6798599915955568e-11 2.7218472673735792e-11
          3.251553237336332e-11 2.990440336645067e-11 2.8682902571385567e-11 2.8118058337644026e-11 2.7531346457814932e-11 2.7422171692069054e-11
          2.7997645096136438e-11 2.773320424674305e-11 2.739544547696404e-11 2.740037509137454e-11 2.7255265814107422e-11 2.735091974757674e-11
          2.7882416695655047e-11 2.7670789522732035e-11 2.743441742588831e-11 2.7438756002369094e-11 2.7492013279523747e-11 2.7480521332638743e-11
          2.7453210251670753e-11 2.7452042653991134e-11 2.7449757138788643e-11 2.7451577039726113e-11 2.7454078717674732e-11 2.745325060539247e-11
          2.7446607790511372e-11 2.7448289158213182e-11 2.749995522965421e-11 2.752336362389002e-11 2.763834543151601e-11 2.7293274359538018e-11
          2.7553214103902485e-11 2.7312996926323177e-11 2.7468763397349662e-11 2.7405304705785036e-11 2.7446573681046057e-11 2.7459162349809013e-11
          2.7443094578849878e-11 2.7469029385753735e-11 2.7450875056311513e-11 2.7453396940663594e-11 2.7452422493110205e-11 2.7449970525915e-11
          8.074792331211231e-11 5.784320931431133e-11 6.283420399307625e-11 4.830513032345458e-11 4.9625217582959924e-11 3.9953375689653704e-11
          3.6743883503907475e-11 3.237798882857708e-11 2.6871935085241627e-11 2.7190872453278682e-11 2.7289757645826943e-11 2.7341339782348936e-11
          2.744635872086473e-11 2.7444308166093508e-11 2.7462280477087746e-11 2.745854689862817e-11 3.493849531651037e-11 3.377605665383292e-11
          3.028153379634748e-11 2.8012094153246675e-11 2.7509809821315737e-11 2.7392921918870926e-11 2.744225761132229e-11 2.7454813320168592e-11
          2.8501927899502034e-10 1.9275749742988097e-10 2.137926831370855e-10 1.4715592052265356e-10 1.4225875200368838e-10 9.58767910528256e-11
          8.23708844672e-11 5.6568602912612756e-11 3.536056074122197e-11 3.1723214676879816e-11 2.810576749797445e-11 2.7879874825306195e-11
          2.7511115930146573e-11 2.7512845668391056e-11 2.7446408481987623e-11 2.7459132836689905e-11 1.0049571586474162e-10 8.051915790822159e-11
          4.9494830101962836e-11 3.076632135802552e-11 2.808586861253767e-11 2.7653982152637933e-11 2.7514575406635538e-11 2.7471857191392187e-11
          1.1008251894193073e-9 8.059095379213296e-10 8.546654621509706e-10 6.076106879206794e-10 5.68959343356497e-10 3.8019352253980877e-10
          2.9543538961398945e-10 1.8710164653312908e-10 6.411248197273108e-11 5.16302893385872e-11 2.644726762344004e-11 2.68074119999823e-11
          2.685205394395799e-11 2.705282481339837e-11 2.7020263217000443e-11 2.7182243450782117e-11 5.109938864233518e-10 3.6055591369038816e-10
          1.9142770172312063e-10 7.876790345226872e-11 3.9148096704443315e-11 2.716755637652457e-11 2.7253595682838743e-11 2.7344223684563793e-11
          3.4276071315429542e-9 2.615726161811566e-9 2.329570926535815e-9 1.63434500371226e-9 1.1820017288903264e-9 7.744100200917472e-10
          1.9651706297251731e-10 1.5776185315883857e-10 3.802056790600249e-11 3.552712962633339e-11 2.984513021561941e-11 3.011682864106376e-11
          2.9912618258422024e-11 3.0178213322842436e-11 2.768027313583754e-9 1.8038451920801787e-9 9.39119080888705e-10 3.6681831129316785e-10
          1.190066433451598e-10 3.303369134666429e-11 3.03885270665081e-11 3.044380838726285e-11 6.585183368141463e-9 5.841872886996225e-9
          7.761558302032823e-9 3.881970480455406e-9 1.3220205347085503e-9 1.5285365679151814e-9 1.9304130465534006e-10 2.9201089112261183e-10
          3.693722789845817e-11 4.717418691819597e-11 3.38835590794726e-11 3.432116014899939e-11 3.2834454521508506e-11 3.311013296711391e-11
          7.834502195320474e-9 4.743858383490974e-9 1.9128351790616924e-9 4.0450325664648013e-10 5.6968089378741775e-11 3.475876121852619e-11
          3.3385811412719317e-11 2.0489202940904938e-11 2.220395056772266e-11 2.1916511707613577e-11 2.1171962964267638e-11 7.647483763230372e-9
          4.472786987122397e-9 1.792926019977066e-9 3.3801924850870694e-10 4.289334061726422e-11 2.398040879086356e-11 2.0427414220921696e-11
          3.364772065526346e-7 6.403865933283578e-12 9.395419255541818e-12 1.1356217328201082e-11 9.560099325585463e-12 1.4433922139419698e-8
          1.836033613840985e-8 1.6844260725187582e-9 7.822439446262778e-11 1.059346209541702e-11 1.231371232765563e-11 7.763981322969844e-12
          7.839282543479134e-10 6.842041819330046e-10 4.43744645756138e-9 9.68953773818192e-9 1.0267794352275408e-9 8.190688733189754e-9
          2.5143626124579304e-10 9.131267152189998e-11 1.6469886027453287e-10 2.880192278130817e-10 6.679867003476507e-11 4.1133959535163055e-10
          4.8313618244693904e-9 3.0277196049134953e-9 7.048770853908324e-9 5.750785651401708e-10 1.2240773853576e-9 2.6180747569753444e-10
          1.928383344324319e-10 6.226384936534778e-11 1.2386919316732933e-10 3.918523878844474e-10 1.0507317665975949e-10 1.7284117903124177e-11
          1.5946383653480652e-11 8.045077651780224e-12 8.146116620086197e-12 1.0592774538654804e-11 1.4608649403837127e-11 2.186131275615865e-11
          1.3039432457223411e-11 2.5494274111190515e-11 1.1188014106123582e-11 9.99111875275801e-12 1.3710276336661832e-11 1.4221069377442331e-11
          5.329875840591561e-12 8.794223399392437e-12 1.473186241822283e-11 3.4924846633243355e-12 3.076957827670803e-12 2.066878900468028e-12
          1.8209073157402214e-12 1.7958268444892636e-12 2.6614309920172697e-12 2.4311336190938574e-12 1.7707463732383055e-12 1.524774788510499e-12
          2.200836246170445e-12 1.2735638195165992e-8 7.709057813264119e-9 4.948394184910683e-9 2.6824774313622452e-9 3.6500560375606944e-7
          5.3583139880659426e-8 1.2695052303251392e-7 4.109494409340024e-7 3.1560841171321314e-7 1.413280857814024e-7 1.3711041525851e-7
          4.437330220269215e-7 4.499594846984094e-7 9.430197372510683e-8 5.280633523749965e-9 1.5672263720199421e-9 9.689011792470284e-9
          8.533449118907706e-9 1.781079721292063e-8 7.516507516504696e-9 4.74684719820077e-9 1.769673946188317e-8 1.4898142151333207e-8
          1.9771868798968444e-9 1.2099544840783246e-8 7.816690422666038e-9 2.196020439355932e-8 3.917580183588925e-9 1.1981847921350561e-8
          3.61037183644526e-8 2.0046115659112196e-8 3.340001097147678e-7 4.01858252787891e-7 4.223043425265892e-7 4.0155804517780996e-7
          8.260356971067998e-8 7.772913986634733e-8 1.7173256801895584e-7 1.4989344893131965e-7 7.347298619719363e-8 1.664730594847906e-7
          1.4416673021494197e-7 7.285471002201468e-8 1.280543298436835e-7 1.2186040094509332e-7 3.874725096909805e-7 3.510342921084886e-7
          3.680897114082241e-7 2.850198619368559e-7 7.820679134136533e-8 7.064526838748094e-8 1.585983578034572e-7 1.3617899952181516e-7
          6.308374543359655e-8 1.1375964124017311e-7 4.351133836944657e-7 3.8471597762106106e-7 2.9396183129728447e-7 4.4941500432480695e-7
          4.6532904520894506e-7 5.059875466397011e-7 5.153994114675309e-7 3.78152427854717e-7 3.9906048112975504e-7 3.8474655559488484e-7
          4.506472641972049e-7 5.09479874351304e-7 4.204020376368264e-7 5.736685397240188e-7 5.741339554432653e-7 4.1994507587281824e-7
          5.161002363246554e-7 5.805486863005578e-7 4.811651733230848e-7 1.6279125600197403e-7 1.970004953772351e-7 1.5822255731443783e-7
          1.9439499593260717e-7 9.971507524537385e-8 1.1893922113811927e-7 1.1548030590106504e-7 2.3120973475249621e-7 2.305674345507765e-7
          1.3816336703086466e-7 1.5156476016192448e-7 1.8938626884878574e-7 8.988116952730868e-8 1.1348175711444675e-7 2.2720777753564703e-7
          1.3708234470158486e-7 3.257723915108047e-11 3.001932297399164e-11 5.2242050184725043e-11 4.002072961375719e-11 2.7461406796902812e-11
          2.7799409042789334e-11 1.7076016136281659e-10 1.0562725526445417e-10 4.0494349166091744e-11 7.087113117493157e-10 4.293345372001881e-10
          1.4995776265106032e-10 3.1654463178597556e-9 1.9994220064869103e-9 8.333976951140651e-10 1.4723014721531895e-8 4.328288096375542e-9
          3.548157704979648e-9 9.724553358132203e-9 4.726091994732509e-9 9.352888498940643e-9 8.321566265087422e-9 1.8607814442636923e-8
          1.1778113176717383e-8 2.1998456566518607e-8 1.6591693859530747e-11 3.182575939019702e-11 1.3119352469697473e-7 8.830216961850126e-8
          1.1977612536271708e-8 4.2265384437648085e-8 6.13580014887292e-9 4.2126750071115086e-10 1.3239420025239974e-11 2.4188708535450212e-8
          2.2721179939564183e-9 2.8515991341288804e-8 5.7358548498243954e-9 1.2300831332125874e-9 1.2727619295770873e-8 4.3801252405303706e-9
          3.172494971775023e-8 5.9069774194970096e-8 2.3183120597585326e-8 1.6762380120772615e-9 1.6741637626099084e-9 1.3207592482589602e-9
          3.211339716595906e-10 2.7719961498934516e-10 9.189312390689206e-11 3.908316820733881e-10 9.247357629188416e-11 4.056762143302095e-8
          1.5186491711848797e-8 9.939252798498403e-9 2.5087183778122853e-8 1.5160777266320324e-9 1.5038815372869218e-9 4.692013885148009e-9
          9.606746123224761e-9 1.4916853479418113e-9 3.908432593251444e-10 3.913478236047959e-10 9.401056736997389e-11 9.954187201486669e-11
          6.223711878118744e-9 1.4280857783311714e-9 2.77896253594587e-10 1.8410437576828776e-11 2.0135875166493713e-11 1.5877171134858764e-11
          1.1304837502203268e-11 3.176353014733074e-11 4.391524367488179e-11 3.932961966754172e-11 2.584559350874266e-11 1.2063676307377901e-11
          2.8778920170830655e-11 2.6196912906294798e-11 6.569397285667801e-12 2.986341381206528e-12 2.708737500150193e-12 8.79705404792111e-12
          2.4801980990887204e-12 2.3405171726295825e-12 7.348038404388595e-12 3.140090225240243e-8 4.8657652874436044e-8 3.092736430203284e-8
          2.255192302128676e-8 1.3197075729629633e-8 1.3702943790171092e-8 1.480454954290284e-7 3.2433524799753595e-7 1.7305641695180485e-7
          1.119682623484507e-7 2.9682023746593027e-7 1.1500995210638122e-7 8.527184756719956e-8 5.392781651863987e-9 2.3378159625892896e-7
          3.3397422481481056e-8 2.0653864886289282e-8 3.6027096248828594e-8 6.140206331109813e-8 7.30160895499402e-9 2.2278513634901537e-8
          1.5928194382736183e-8 9.577875130570827e-9 5.990259868125738e-8 6.823038729534768e-8 1.485705371315749e-8 3.808341452314653e-8
          1.4925858624320707e-8 1.1934786938578072e-7 6.130977533313557e-8 1.0023195398819846e-7 2.4779990462097363e-8 1.7639878185359104e-7
          1.749047783410902e-7 1.5377575499654564e-7 1.5615214563249594e-7 3.437345018294835e-7 3.173337595131569e-7 1.3264673165200108e-7
          1.3590550941140085e-7 2.688554991874976e-7 3.6159209028162253e-7 3.850606165491867e-7 3.576909089879418e-7 3.3801247648472633e-7
          2.9671754759883426e-7 3.602452554261061e-7 3.927280519957321e-7 3.6703206019497474e-7 8.260193043892404e-8 7.074024341340648e-8
          1.476630300901663e-7 1.255513846268282e-7 1.0343973916349012e-7 4.5950709440760455e-7 4.0027778487917794e-7 6.549054780620171e-7
          6.435912080624909e-7 4.400956605043473e-7 6.047795234288871e-7 6.669893722068756e-7 5.136344753130205e-7 1.6564153439274514e-7
          1.977391168853392e-7 1.228468480600823e-7 2.2983669937793328e-7 1.4241266022826588e-7 1.8143467192896698e-7 1.1495496091220386e-7
          2.2045668362966808e-7
        </DataArray>
        <DataArray type="Float64" Name="gradient_matprop_error" format="ascii" RangeMin="0" RangeMax="0">
          0 0 0 0 0 0
          0 0 0 0 0 0
          0 0 0 0 0 0
          0 0 0 0 0 0
          0 0 0 0 0 0
          0 0 0 0 0 0
          0 0 0 0 0 0
          0 0 0 0 0 0
          0 0 0 0 0 0
          0 0 0 0 0 0
          0 0 0 0 0 0
          0 0 0 0 0 0
          0 0 0 0 0 0
          0 0 0 0 0 0
          0 0 0 0 0 0
          0 0 0 0 0 0
          0 0 0 0 0 0
          0 0 0 0 0 0
          0 0 0 0 0 0
          0 0 0 0 0 0
          0 0 0 0 0 0
          0 0 0 0 0 0
          0 0 0 0 0 0
          0 0 0 0 0 0
          0 0 0 0 0 0
          0 0 0 0 0 0
          0 0 0 0 0 0
          0 0 0 0 0 0
          0 0 0 0 0 0
          0 0 0 0 0 0
          0 0 0 0 0 0
          0 0 0 0 0 0
          0 0 0 0 0 0
          0 0 0 0 0 0
          0 0 0 0 0 0
          0 0 0 0 0 0
          0 0 0 0 0 0
          0 0 0 0 0 0
          0 0 0 0 0 0
          0 0 0 0 0 0
          0 0 0 0 0 0
          0 0 0 0 0 0
          0 0 0 0 0 0
          0 0 0 0 0 0
          0 0 0 0 0 0
          0 0 0 0 0 0
          0 0 0 0 0 0
          0 0 0 0 0 0
          0 0 0 0 0 0
          0 0 0 0 0 0
          0 0 0 0 0 0
          0 0 0 0 0 0
          0 0 0 0 0 0
          0 0 0 0 0 0
          0 0 0 0 0 0
          0 0 0 0 0 0
          0 0 0 0 0 0
          0 0 0 0 0 0
          0 0 0 0 0 0
          0 0 0 0 0 0
          0 0 0 0 0 0
          0 0 0 0 0 0
          0 0 0 0 0 0
          0 0 0 0 0 0
          0 0 0 0 0 0
          0 0 0 0 0 0
          0 0 0 0 0 0
          0 0 0 0 0 0
          0 0 0 0 0 0
          0 0 0 0 0 0
          0 0 0 0 0 0
          0 0 0 0 0 0
          0 0 0 0 0 0
          0 0 0 0 0 0
          0 0 0 0 0 0
          0 0 0 0 0 0
          0 0 0 0 0 0
          0 0 0 0 0 0
          0 0 0 0 0 0
          0 0 0 0 0 0
          0
        </DataArray>
        <DataArray type="Float64" Name="initial_marker" format="ascii" RangeMin="0" RangeMax="0">
          0 0 0 0 0 0
          0 0 0 0 0 0
          0 0 0 0 0 0
          0 0 0 0 0 0
          0 0 0 0 0 0
          0 0 0 0 0 0
          0 0 0 0 0 0
          0 0 0 0 0 0
          0 0 0 0 0 0
          0 0 0 0 0 0
          0 0 0 0 0 0
          0 0 0 0 0 0
          0 0 0 0 0 0
          0 0 0 0 0 0
          0 0 0 0 0 0
          0 0 0 0 0 0
          0 0 0 0 0 0
          0 0 0 0 0 0
          0 0 0 0 0 0
          0 0 0 0 0 0
          0 0 0 0 0 0
          0 0 0 0 0 0
          0 0 0 0 0 0
          0 0 0 0 0 0
          0 0 0 0 0 0
          0 0 0 0 0 0
          0 0 0 0 0 0
          0 0 0 0 0 0
          0 0 0 0 0 0
          0 0 0 0 0 0
          0 0 0 0 0 0
          0 0 0 0 0 0
          0 0 0 0 0 0
          0 0 0 0 0 0
          0 0 0 0 0 0
          0 0 0 0 0 0
          0 0 0 0 0 0
          0 0 0 0 0 0
          0 0 0 0 0 0
          0 0 0 0 0 0
          0 0 0 0 0 0
          0 0 0 0 0 0
          0 0 0 0 0 0
          0 0 0 0 0 0
          0 0 0 0 0 0
          0 0 0 0 0 0
          0 0 0 0 0 0
          0 0 0 0 0 0
          0 0 0 0 0 0
          0 0 0 0 0 0
          0 0 0 0 0 0
          0 0 0 0 0 0
          0 0 0 0 0 0
          0 0 0 0 0 0
          0 0 0 0 0 0
          0 0 0 0 0 0
          0 0 0 0 0 0
          0 0 0 0 0 0
          0 0 0 0 0 0
          0 0 0 0 0 0
          0 0 0 0 0 0
          0 0 0 0 0 0
          0 0 0 0 0 0
          0 0 0 0 0 0
          0 0 0 0 0 0
          0 0 0 0 0 0
          0 0 0 0 0 0
          0 0 0 0 0 0
          0 0 0 0 0 0
          0 0 0 0 0 0
          0 0 0 0 0 0
          0 0 0 0 0 0
          0 0 0 0 0 0
          0 0 0 0 0 0
          0 0 0 0 0 0
          0 0 0 0 0 0
          0 0 0 0 0 0
          0 0 0 0 0 0
          0 0 0 0 0 0
          0 0 0 0 0 0
          0
        </DataArray>
        <DataArray type="Float64" Name="markers_norefine" format="ascii" RangeMin="0" RangeMax="0">
          0 0 0 0 0 0
          0 0 0 0 0 0
          0 0 0 0 0 0
          0 0 0 0 0 0
          0 0 0 0 0 0
          0 0 0 0 0 0
          0 0 0 0 0 0
          0 0 0 0 0 0
          0 0 0 0 0 0
          0 0 0 0 0 0
          0 0 0 0 0 0
          0 0 0 0 0 0
          0 0 0 0 0 0
          0 0 0 0 0 0
          0 0 0 0 0 0
          0 0 0 0 0 0
          0 0 0 0 0 0
          0 0 0 0 0 0
          0 0 0 0 0 0
          0 0 0 0 0 0
          0 0 0 0 0 0
          0 0 0 0 0 0
          0 0 0 0 0 0
          0 0 0 0 0 0
          0 0 0 0 0 0
          0 0 0 0 0 0
          0 0 0 0 0 0
          0 0 0 0 0 0
          0 0 0 0 0 0
          0 0 0 0 0 0
          0 0 0 0 0 0
          0 0 0 0 0 0
          0 0 0 0 0 0
          0 0 0 0 0 0
          0 0 0 0 0 0
          0 0 0 0 0 0
          0 0 0 0 0 0
          0 0 0 0 0 0
          0 0 0 0 0 0
          0 0 0 0 0 0
          0 0 0 0 0 0
          0 0 0 0 0 0
          0 0 0 0 0 0
          0 0 0 0 0 0
          0 0 0 0 0 0
          0 0 0 0 0 0
          0 0 0 0 0 0
          0 0 0 0 0 0
          0 0 0 0 0 0
          0 0 0 0 0 0
          0 0 0 0 0 0
          0 0 0 0 0 0
          0 0 0 0 0 0
          0 0 0 0 0 0
          0 0 0 0 0 0
          0 0 0 0 0 0
          0 0 0 0 0 0
          0 0 0 0 0 0
          0 0 0 0 0 0
          0 0 0 0 0 0
          0 0 0 0 0 0
          0 0 0 0 0 0
          0 0 0 0 0 0
          0 0 0 0 0 0
          0 0 0 0 0 0
          0 0 0 0 0 0
          0 0 0 0 0 0
          0 0 0 0 0 0
          0 0 0 0 0 0
          0 0 0 0 0 0
          0 0 0 0 0 0
          0 0 0 0 0 0
          0 0 0 0 0 0
          0 0 0 0 0 0
          0 0 0 0 0 0
          0 0 0 0 0 0
          0 0 0 0 0 0
          0 0 0 0 0 0
          0 0 0 0 0 0
          0 0 0 0 0 0
          0
        </DataArray>
        <DataArray type="Float64" Name="markers_mustrefine" format="ascii" RangeMin="0" RangeMax="0">
          0 0 0 0 0 0
          0 0 0 0 0 0
          0 0 0 0 0 0
          0 0 0 0 0 0
          0 0 0 0 0 0
          0 0 0 0 0 0
          0 0 0 0 0 0
          0 0 0 0 0 0
          0 0 0 0 0 0
          0 0 0 0 0 0
          0 0 0 0 0 0
          0 0 0 0 0 0
          0 0 0 0 0 0
          0 0 0 0 0 0
          0 0 0 0 0 0
          0 0 0 0 0 0
          0 0 0 0 0 0
          0 0 0 0 0 0
          0 0 0 0 0 0
          0 0 0 0 0 0
          0 0 0 0 0 0
          0 0 0 0 0 0
          0 0 0 0 0 0
          0 0 0 0 0 0
          0 0 0 0 0 0
          0 0 0 0 0 0
          0 0 0 0 0 0
          0 0 0 0 0 0
          0 0 0 0 0 0
          0 0 0 0 0 0
          0 0 0 0 0 0
          0 0 0 0 0 0
          0 0 0 0 0 0
          0 0 0 0 0 0
          0 0 0 0 0 0
          0 0 0 0 0 0
          0 0 0 0 0 0
          0 0 0 0 0 0
          0 0 0 0 0 0
          0 0 0 0 0 0
          0 0 0 0 0 0
          0 0 0 0 0 0
          0 0 0 0 0 0
          0 0 0 0 0 0
          0 0 0 0 0 0
          0 0 0 0 0 0
          0 0 0 0 0 0
          0 0 0 0 0 0
          0 0 0 0 0 0
          0 0 0 0 0 0
          0 0 0 0 0 0
          0 0 0 0 0 0
          0 0 0 0 0 0
          0 0 0 0 0 0
          0 0 0 0 0 0
          0 0 0 0 0 0
          0 0 0 0 0 0
          0 0 0 0 0 0
          0 0 0 0 0 0
          0 0 0 0 0 0
          0 0 0 0 0 0
          0 0 0 0 0 0
          0 0 0 0 0 0
          0 0 0 0 0 0
          0 0 0 0 0 0
          0 0 0 0 0 0
          0 0 0 0 0 0
          0 0 0 0 0 0
          0 0 0 0 0 0
          0 0 0 0 0 0
          0 0 0 0 0 0
          0 0 0 0 0 0
          0 0 0 0 0 0
          0 0 0 0 0 0
          0 0 0 0 0 0
          0 0 0 0 0 0
          0 0 0 0 0 0
          0 0 0 0 0 0
          0 0 0 0 0 0
          0 0 0 0 0 0
          0
        </DataArray>
        <DataArray type="Float64" Name="gradient_marker" format="ascii" RangeMin="1" RangeMax="1">
          1 1 1 1 1 1
          1 1 1 1 1 1
          1 1 1 1 1 1
          1 1 1 1 1 1
          1 1 1 1 1 1
          1 1 1 1 1 1
          1 1 1 1 1 1
          1 1 1 1 1 1
          1 1 1 1 1 1
          1 1 1 1 1 1
          1 1 1 1 1 1
          1 1 1 1 1 1
          1 1 1 1 1 1
          1 1 1 1 1 1
          1 1 1 1 1 1
          1 1 1 1 1 1
          1 1 1 1 1 1
          1 1 1 1 1 1
          1 1 1 1 1 1
          1 1 1 1 1 1
          1 1 1 1 1 1
          1 1 1 1 1 1
          1 1 1 1 1 1
          1 1 1 1 1 1
          1 1 1 1 1 1
          1 1 1 1 1 1
          1 1 1 1 1 1
          1 1 1 1 1 1
          1 1 1 1 1 1
          1 1 1 1 1 1
          1 1 1 1 1 1
          1 1 1 1 1 1
          1 1 1 1 1 1
          1 1 1 1 1 1
          1 1 1 1 1 1
          1 1 1 1 1 1
          1 1 1 1 1 1
          1 1 1 1 1 1
          1 1 1 1 1 1
          1 1 1 1 1 1
          1 1 1 1 1 1
          1 1 1 1 1 1
          1 1 1 1 1 1
          1 1 1 1 1 1
          1 1 1 1 1 1
          1 1 1 1 1 1
          1 1 1 1 1 1
          1 1 1 1 1 1
          1 1 1 1 1 1
          1 1 1 1 1 1
          1 1 1 1 1 1
          1 1 1 1 1 1
          1 1 1 1 1 1
          1 1 1 1 1 1
          1 1 1 1 1 1
          1 1 1 1 1 1
          1 1 1 1 1 1
          1 1 1 1 1 1
          1 1 1 1 1 1
          1 1 1 1 1 1
          1 1 1 1 1 1
          1 1 1 1 1 1
          1 1 1 1 1 1
          1 1 1 1 1 1
          1 1 1 1 1 1
          1 1 1 1 1 1
          1 1 1 1 1 1
          1 1 1 1 1 1
          1 1 1 1 1 1
          1 1 1 1 1 1
          1 1 1 1 1 1
          1 1 1 1 1 1
          1 1 1 1 1 1
          1 1 1 1 1 1
          1 1 1 1 1 1
          1 1 1 1 1 1
          1 1 1 1 1 1
          1 1 1 1 1 1
          1 1 1 1 1 1
          1 1 1 1 1 1
          1
        </DataArray>
        <DataArray type="Float64" Name="gradient_matprop_marker" format="ascii" RangeMin="0" RangeMax="0">
          0 0 0 0 0 0
          0 0 0 0 0 0
          0 0 0 0 0 0
          0 0 0 0 0 0
          0 0 0 0 0 0
          0 0 0 0 0 0
          0 0 0 0 0 0
          0 0 0 0 0 0
          0 0 0 0 0 0
          0 0 0 0 0 0
          0 0 0 0 0 0
          0 0 0 0 0 0
          0 0 0 0 0 0
          0 0 0 0 0 0
          0 0 0 0 0 0
          0 0 0 0 0 0
          0 0 0 0 0 0
          0 0 0 0 0 0
          0 0 0 0 0 0
          0 0 0 0 0 0
          0 0 0 0 0 0
          0 0 0 0 0 0
          0 0 0 0 0 0
          0 0 0 0 0 0
          0 0 0 0 0 0
          0 0 0 0 0 0
          0 0 0 0 0 0
          0 0 0 0 0 0
          0 0 0 0 0 0
          0 0 0 0 0 0
          0 0 0 0 0 0
          0 0 0 0 0 0
          0 0 0 0 0 0
          0 0 0 0 0 0
          0 0 0 0 0 0
          0 0 0 0 0 0
          0 0 0 0 0 0
          0 0 0 0 0 0
          0 0 0 0 0 0
          0 0 0 0 0 0
          0 0 0 0 0 0
          0 0 0 0 0 0
          0 0 0 0 0 0
          0 0 0 0 0 0
          0 0 0 0 0 0
          0 0 0 0 0 0
          0 0 0 0 0 0
          0 0 0 0 0 0
          0 0 0 0 0 0
          0 0 0 0 0 0
          0 0 0 0 0 0
          0 0 0 0 0 0
          0 0 0 0 0 0
          0 0 0 0 0 0
          0 0 0 0 0 0
          0 0 0 0 0 0
          0 0 0 0 0 0
          0 0 0 0 0 0
          0 0 0 0 0 0
          0 0 0 0 0 0
          0 0 0 0 0 0
          0 0 0 0 0 0
          0 0 0 0 0 0
          0 0 0 0 0 0
          0 0 0 0 0 0
          0 0 0 0 0 0
          0 0 0 0 0 0
          0 0 0 0 0 0
          0 0 0 0 0 0
          0 0 0 0 0 0
          0 0 0 0 0 0
          0 0 0 0 0 0
          0 0 0 0 0 0
          0 0 0 0 0 0
          0 0 0 0 0 0
          0 0 0 0 0 0
          0 0 0 0 0 0
          0 0 0 0 0 0
          0 0 0 0 0 0
          0 0 0 0 0 0
          0
        </DataArray>
        <DataArray type="Float64" Name="combo" format="ascii" RangeMin="1" RangeMax="1">
          1 1 1 1 1 1
          1 1 1 1 1 1
          1 1 1 1 1 1
          1 1 1 1 1 1
          1 1 1 1 1 1
          1 1 1 1 1 1
          1 1 1 1 1 1
          1 1 1 1 1 1
          1 1 1 1 1 1
          1 1 1 1 1 1
          1 1 1 1 1 1
          1 1 1 1 1 1
          1 1 1 1 1 1
          1 1 1 1 1 1
          1 1 1 1 1 1
          1 1 1 1 1 1
          1 1 1 1 1 1
          1 1 1 1 1 1
          1 1 1 1 1 1
          1 1 1 1 1 1
          1 1 1 1 1 1
          1 1 1 1 1 1
          1 1 1 1 1 1
          1 1 1 1 1 1
          1 1 1 1 1 1
          1 1 1 1 1 1
          1 1 1 1 1 1
          1 1 1 1 1 1
          1 1 1 1 1 1
          1 1 1 1 1 1
          1 1 1 1 1 1
          1 1 1 1 1 1
          1 1 1 1 1 1
          1 1 1 1 1 1
          1 1 1 1 1 1
          1 1 1 1 1 1
          1 1 1 1 1 1
          1 1 1 1 1 1
          1 1 1 1 1 1
          1 1 1 1 1 1
          1 1 1 1 1 1
          1 1 1 1 1 1
          1 1 1 1 1 1
          1 1 1 1 1 1
          1 1 1 1 1 1
          1 1 1 1 1 1
          1 1 1 1 1 1
          1 1 1 1 1 1
          1 1 1 1 1 1
          1 1 1 1 1 1
          1 1 1 1 1 1
          1 1 1 1 1 1
          1 1 1 1 1 1
          1 1 1 1 1 1
          1 1 1 1 1 1
          1 1 1 1 1 1
          1 1 1 1 1 1
          1 1 1 1 1 1
          1 1 1 1 1 1
          1 1 1 1 1 1
          1 1 1 1 1 1
          1 1 1 1 1 1
          1 1 1 1 1 1
          1 1 1 1 1 1
          1 1 1 1 1 1
          1 1 1 1 1 1
          1 1 1 1 1 1
          1 1 1 1 1 1
          1 1 1 1 1 1
          1 1 1 1 1 1
          1 1 1 1 1 1
          1 1 1 1 1 1
          1 1 1 1 1 1
          1 1 1 1 1 1
          1 1 1 1 1 1
          1 1 1 1 1 1
          1 1 1 1 1 1
          1 1 1 1 1 1
          1 1 1 1 1 1
          1 1 1 1 1 1
          1
        </DataArray>
        <DataArray type="Float64" Name="dHdT" format="ascii" RangeMin="25.795397396203782" RangeMax="32.34850748754646">