<?xml version="1.0"?>
<VTKFile type="UnstructuredGrid" version="0.1" byte_order="LittleEndian" header_type="UInt32" compressor="vtkZLibDataCompressor">
  <UnstructuredGrid>
    <Piece NumberOfPoints="584" NumberOfCells="322">
      <PointData>
        <DataArray type="Int32" Name="libmesh_node_id" format="ascii" RangeMin="198" RangeMax="2439">
          198 199 200 201 202 203
          258 259 260 261 262 263
          290 291 318 320 321 322
          323 350 351 380 381 382
          383 410 411 420 421 422
          427 428 429 433 437 439
          440 441 442 443 444 445
          446 447 448 449 450 451
          452 453 454 455 456 460
          461 464 466 516 517 518
          522 528 529 530 531 532
          533 534 535 536 537 538
          539 540 541 542 543 544
          545 546 547 548 549 550
          551 552 553 554 555 556
          557 558 559 560 561 562
          563 564 565 566 567 568
          569 570 571 577 578 583
          640 641 642 643 644 645
          646 647 648 649 650 651
          652 653 654 655 656 657
          661 662 698 699 700 701
          704 705 706 708 709 711
          746 747 748 749 750 751
          752 753 754 755 756 757
          758 759 760 761 762 763
          764 765 766 767 768 769
          770 771 772 773 777 778
          780 781 782 783 786 787
          788 790 791 793 901 902
          903 906 909 911 912 913
          914 915 916 917 918 919
          920 921 922 923 924 925
          926 927 928 929 930 931
          932 933 934 935 936 937
          938 939 940 941 942 943
          944 945 946 947 948 949
          950 951 952 953 954 955
          956 957 958 959 960 961
          962 963 964 965 966 967
          968 969 970 971 972 973
          974 975 976 977 978 979
          980 981 982 983 984 985
          986 987 988 989 990 991
          992 993 994 995 996 997
          998 999 1000 1001 1002 1003
          1004 1005 1006 1007 1008 1009
          1010 1011 1012 1013 1014 1015
          1016 1017 1018 1019 1020 1023
          1024 1025 1026 1028 1029 1030
          1033 1036 1043 1044 1050 1078
          1080 1083 1084 1085 1088 1090
          1333 1334 1335 1336 1337 1338
          1339 1340 1341 1347 1348 1352
          1355 1357 1358 1359 1360 1361
          1362 1363 1364 1367 1368 1370
          1371 1372 1376 1381 1382 1386
          1389 1391 1392 1393 1394 1395
          1396 1397 1398 1399 1400 1401
          1402 1403 1404 1405 1406 1407
          1408 1409 1410 1411 1412 1413
          1414 1415 1416 1417 1418 1419
          1420 1421 1422 1440 1441 1442
          1446 1451 1452 1456 1459 1461
          1462 1463 1464 1465 1466 1467
          1468 1469 1470 1471 1472 1473
          1474 1475 1476 1477 1478 1479
          1480 1481 1482 1483 1484 1485
          1486 1487 1488 1489 1490 1491
          1492 1493 1494 1495 1496 1497
          1498 1499 1500 1501 1502 1503
          1504 1505 1506 1507 1508 1509
          1510 1511 1512 1513 1514 1515
          1516 1517 1518 1519 1520 1521
          1522 1523 1524 1525 1526 1527
          1528 1529 1530 1531 1532 1533
          1534 1535 1536 1537 1538 1539
          1540 1541 1542 1543 1544 1545
          1546 1547 1548 1549 1550 1551
          1552 1553 1554 1555 1556 1557
          1558 1559 1563 1564 1566 1567
          1568 1569 2419 2420 2421 2422
          2423 2424 2425 2426 2427 2428
          2429 2430 2431 2432 2433 2434
          2435 2436 2437 2438 2439 204
          205 264 265 292 325 352
          457 459 462 658 659 660
          663 324 702 703 707 385
          710 412 774 775 776 779
          458 574 784 579 785 789
          465 792 1021 1022 463 1027
          1031 1032 1034 1035 1037 1038
          1039 1040 1042 1045 1046 1047
          1048 1049 1051 1052 1057 1058
          1061 1064 1066 573 1056 1077
          1062 1071 1079 1081 1082 1086
          581 1076 1087 1089 1560 1561
          1562 1565
        </DataArray>
        <DataArray type="Float64" Name="bounds" format="ascii" RangeMin="0" RangeMax="0">
          0 0 0 0 0 0
          0 0 0 0 0 0
          0 0 0 0 0 0
          0 0 0 0 0 0
          0 0 0 0 0 0
          0 0 0 0 0 0
          0 0 0 0 0 0
          0 0 0 0 0 0
          0 0 0 0 0 0
          0 0 0 0 0 0
          0 0 0 0 0 0
          0 0 0 0 0 0
          0 0 0 0 0 0
          0 0 0 0 0 0
          0 0 0 0 0 0
          0 0 0 0 0 0
          0 0 0 0 0 0
          0 0 0 0 0 0
          0 0 0 0 0 0
          0 0 0 0 0 0
          0 0 0 0 0 0
          0 0 0 0 0 0
          0 0 0 0 0 0
          0 0 0 0 0 0
          0 0 0 0 0 0
          0 0 0 0 0 0
          0 0 0 0 0 0
          0 0 0 0 0 0
          0 0 0 0 0 0
          0 0 0 0 0 0
          0 0 0 0 0 0
          0 0 0 0 0 0
          0 0 0 0 0 0
          0 0 0 0 0 0
          0 0 0 0 0 0
          0 0 0 0 0 0
          0 0 0 0 0 0
          0 0 0 0 0 0
          0 0 0 0 0 0
          0 0 0 0 0 0
          0 0 0 0 0 0
          0 0 0 0 0 0
          0 0 0 0 0 0
          0 0 0 0 0 0
          0 0 0 0 0 0
          0 0 0 0 0 0
          0 0 0 0 0 0
          0 0 0 0 0 0
          0 0 0 0 0 0
          0 0 0 0 0 0
          0 0 0 0 0 0
          0 0 0 0 0 0
          0 0 0 0 0 0
          0 0 0 0 0 0
          0 0 0 0 0 0
          0 0 0 0 0 0
          0 0 0 0 0 0
          0 0 0 0 0 0
          0 0 0 0 0 0
          0 0 0 0 0 0
          0 0 0 0 0 0
          0 0 0 0 0 0
          0 0 0 0 0 0
          0 0 0 0 0 0
          0 0 0 0 0 0
          0 0 0 0 0 0
          0 0 0 0 0 0
          0 0 0 0 0 0
          0 0 0 0 0 0
          0 0 0 0 0 0
          0 0 0 0 0 0
          0 0 0 0 0 0
          0 0 0 0 0 0
          0 0 0 0 0 0
          0 0 0 0 0 0
          0 0 0 0 0 0
          0 0 0 0 0 0
          0 0 0 0 0 0
          0 0 0 0 0 0
          0 0 0 0 0 0
          0 0 0 0 0 0
          0 0 0 0 0 0
          0 0 0 0 0 0
          0 0 0 0 0 0
          0 0 0 0 0 0
          0 0 0 0 0 0
          0 0 0 0 0 0
          0 0 0 0 0 0
          0 0 0 0 0 0
          0 0 0 0 0 0
          0 0 0 0 0 0
          0 0 0 0 0 0
          0 0 0 0 0 0
          0 0 0 0 0 0
          0 0 0 0 0 0
          0 0 0 0 0 0
          0 0 0 0 0 0
          0 0
        </DataArray>
        <DataArray type="Float64" Name="gradient_error" format="ascii" RangeMin="2.426192770903976e-10" RangeMax="8.289208589323775e-7">
          9.695765874540682e-9 5.7516434890405125e-9 7.148582361771784e-9 4.166580848900565e-9 2.166048032591361e-9 1.3904735640199396e-9
          3.2930142785562e-8 1.2030037039548666e-8 1.4765105447285451e-8 7.665758365743625e-9 3.042845797486553e-9 2.4830715498597646e-9
          6.664978473636764e-9 2.580652717575528e-9 8.289208589323775e-7 5.082056449568984e-8 5.1362567223764643e-8 1.6170531958543623e-8
          1.0151747623843987e-8 7.3492696701011036e-9 2.4179675610666374e-9 1.7485065781621255e-7 1.0930589430724088e-7 3.1066304991544113e-7
          1.5293021728988226e-8 3.106995824341212e-8 1.1452827252283052e-9 4.446610351176356e-7 2.945244845546918e-7 5.245599828991206e-7
          6.98345129634352e-8 2.509978748951834e-7 4.6186574818772656e-7 8.782888608491537e-8 5.032780887203306e-7 2.1691065489490357e-8
          2.7929387569651676e-8 2.139688134361987e-7 4.0090538198640145e-7 1.3726263839435432e-8 1.6309082105891244e-7 8.049548881720263e-8
          3.0359405383697614e-8 2.8057149230452068e-8 1.139594794747689e-8 2.240463673502842e-7 4.677870254092255e-7 3.993328754916125e-7
          1.864138700662897e-8 9.120288400480055e-9 5.719235562852342e-9 1.0615448536899237e-7 4.2491972207561736e-8 3.455673324289275e-9
          5.379541289093758e-9 3.007272272914967e-7 1.5430970354828525e-8 4.6412107529967786e-7 3.191236664404619e-7 5.390936410558057e-7
          6.318340493738708e-7 2.3519095840375923e-7 4.474537471792688e-7 3.4753589068145666e-7 5.546070622391267e-7 4.23539178430301e-7
          3.8035758698169025e-7 5.688963908888757e-7 5.432942530035239e-7 6.143190268478646e-7 5.850822446721339e-7 1.9646749518426914e-7
          3.637542105912474e-7 4.022913856727171e-7 4.915976147794515e-7 1.895348415638262e-7 2.7045169000291494e-7 4.181111390540109e-7
          4.67472119181298e-7 1.1308949338493243e-7 4.6150305839553286e-7 3.781473655160989e-7 3.0276827338483294e-7 4.245404013558555e-7
          2.593641790231375e-7 2.605557000245226e-7 4.4795730141265666e-7 5.03071198855461e-7 4.3686130493918423e-7 1.3492097565927767e-7
          9.183322880618703e-8 5.113931807269463e-7 4.0166599656148745e-7 6.936904991450539e-8 5.680740242128156e-7 4.226680087126251e-7
          7.795443418431478e-8 2.2188103999064022e-7 1.799828769378439e-7 3.8684000827361453e-7 5.679999733697157e-7 6.441496371416447e-7
          3.537565472140806e-7 7.953301161988692e-8 5.17606085188306e-8 3.527176566948136e-8 1.36522687279062e-7 2.4178552097470606e-7
          4.251258640757276e-9 3.602477035862884e-9 1.1940838253108703e-8 4.91413912933837e-8 1.0822681016173755e-8 9.772649928769615e-9
          3.3387449109690417e-8 1.9283133331481908e-9 6.987359317510198e-9 5.355627246596046e-9 2.9536954309684932e-9 8.722618841365475e-9
          1.763350692599713e-8 3.7238951756818947e-9 1.5298934656679492e-9 9.542111989954892e-10 4.250594781955236e-9 2.7080416756403534e-9
          3.7852893232302914e-10 1.1654885693254718e-9 5.111298854307675e-10 1.85254655905328e-9 1.7262141683117371e-9 3.1251405348202444e-9
          2.426192770903976e-10 7.104713144750007e-10 9.097882494216168e-10 2.941298451192707e-9 4.397734510587208e-9 1.1783233518596037e-9
          2.4951327630775286e-8 1.7076858729854997e-8 1.8551350483220214e-8 1.2863349225488563e-7 1.0621418957305254e-7 7.107204394901598e-8
          8.744891117774558e-8 1.5526734849701844e-8 8.134744295675129e-8 5.7900511300868614e-8 9.202389828934707e-9 3.592989832497941e-8
          4.62643301006055e-8 3.445357964498594e-8 1.6235486321181042e-8 1.2775523747370149e-8 5.724712230748383e-8 4.266082243686625e-8
          8.793773688393875e-9 3.5174159992748226e-8 2.544228519810881e-8 9.315561173559257e-9 2.8074522566248677e-8 1.57104104034694e-8
          6.401410485077601e-9 4.869033699420672e-9 1.858281423335061e-8 1.3547071057907545e-8 3.3366569137637438e-9 8.511327882464482e-9
          3.54072772085247e-8 5.612952561622461e-8 7.619025322425641e-8 1.115139595948691e-7 6.602041855613373e-9 1.4036923066358284e-8
          1.7278493499220277e-8 1.1697322923998813e-7 1.6689839357351358e-7 2.1471804277103195e-8 3.157400357841889e-7 2.489736604929036e-7
          2.915777956663806e-7 3.313123074751327e-7 2.4350759194671696e-7 3.328319153794356e-7 3.285214052295295e-7 2.623505693449805e-7
          3.0672262970068857e-7 3.4224229562972896e-7 2.771154028341535e-7 3.2336278932494403e-7 3.21683372700963e-7 3.458181744843759e-7
          3.614819201162102e-7 1.8503643950887957e-7 2.5703279769385906e-7 2.720505921987149e-7 3.4674207287995314e-7 3.633546685794906e-7
          3.5699547775480476e-7 2.934565838010009e-7 3.4167832628344845e-7 3.7288507157303993e-7 3.1162132951405973e-7 3.618836372244992e-7
          3.462619669178985e-7 3.7839761350525163e-7 3.966801453925998e-7 2.0935906236534776e-7 2.8877204849204983e-7 3.0747461729152646e-7
          3.8223101210725456e-7 1.8856576582819784e-7 1.7622221300177414e-7 1.8366236227801541e-7 2.89054154345801e-7 2.9305585230011345e-7
          2.7179140888774834e-7 2.6822201033091284e-7 1.6847122002162258e-7 2.967790930561842e-7 2.743233839142954e-7 1.4069266414779407e-7
          2.1194720066051695e-7 2.2290762458313087e-7 2.1138330558384584e-7 4.3901665768852494e-7 4.2681013017122717e-7 4.080238355315516e-7
          4.468613395552432e-7 3.6236238583825466e-7 3.985950118255077e-7 3.9001444139769303e-7 3.31926335062432e-7 3.842125616493548e-7
          3.551311505266325e-7 4.080286637320334e-7 3.745106127743397e-7 4.1644095275668624e-7 4.368710027552154e-7 2.410160407245663e-7
          3.2851546075462724e-7 3.527913147847736e-7 4.2405850947780784e-7 3.8187507428362014e-7 4.3364972065316903e-7 4.122748754145091e-7
          4.634281380324552e-7 4.579306503056986e-7 4.812520088688982e-7 2.8326277196221953e-7 3.810397857376062e-7 4.1330914476139204e-7
          4.7433826610812763e-7 1.7870559844805429e-7 1.6165575011389874e-7 3.0009554881991555e-7 2.759632937947362e-7 1.545071239261512e-7
          3.026733979954774e-7 2.768639087465452e-7 1.1783072889141913e-7 2.0935414371916604e-7 2.0659381922444794e-7 4.856584902266235e-7
          4.6811185003979066e-7 4.903473567680635e-7 3.903686160089727e-7 1.631208791453517e-7 1.4631882876220547e-7 3.044095537284993e-7
          2.767982960946688e-7 1.3702417743338026e-7 3.05031387672948e-7 2.7555105444892303e-7 1.0407193334450357e-7 2.0278341098630682e-7
          1.9778958694302148e-7 5.387363169621648e-7 5.136694851032806e-7 5.382285055358648e-7 4.1249378915742075e-7 4.4714060076592925e-7
          4.982057012899418e-7 4.879313833806606e-7 5.377849247786758e-7 5.070454546514681e-7 5.346323322649033e-7 3.4444972027038846e-7
          4.504585399758759e-7 4.940958295881638e-7 5.342312358319037e-7 5.340688818581072e-7 5.818879218819529e-7 5.639904693557413e-7
          5.952768919010195e-7 4.3636335810353175e-7 5.437146369844767e-7 6.044882490247513e-7 1.4170352713742672e-7 1.265342645572287e-7
          1.1481119021157825e-7 8.895394626430039e-8 1.1303193446328087e-7 1.0190420854595413e-7 7.399926123103789e-8 2.327134053838299e-7
          3.8675943022514845e-7 1.23774035390548e-7 2.1328574414750408e-7 2.293950241518254e-7 4.5010330579292587e-7 2.536688946965382e-7
          4.0237008104664785e-8 2.4868426402380945e-8 3.108527590532797e-8 1.525257575152391e-7 1.153400568516571e-7 7.246515138245098e-8
          9.591212706866232e-8 9.499844700097105e-9 2.9590245913244842e-8 1.0054499380599338e-8 4.912692769228282e-8 1.7182078243931807e-8
          8.819935600396631e-8 4.741760252287325e-9 8.995345526227745e-9 1.6140778614483335e-9 2.0750172538808416e-9 1.3248930800168164e-8
          2.53595664631335e-9 6.611420217050662e-8 5.560378453628885e-8 1.7662516875037874e-7 1.3742609533366338e-7 2.1630649637056164e-8
          1.621486039731597e-7 1.2165602566741466e-7 8.116344736166967e-8 1.8792505396796762e-7 2.954065018875809e-7 5.732432020705744e-8
          4.028879498071941e-7 2.2987484781779456e-8 1.9037742371784272e-8 1.47167955694941e-7 1.0547865773300004e-7 1.508799996178909e-8
          6.37893597710591e-8 1.602242230953831e-7 2.612853665369814e-7 1.345793321484137e-7 2.3080689141722536e-7 2.07546576969907e-8
          2.3672934001002968e-8 1.250044356384494e-8 3.6234650997857965e-7 3.27034450686037e-7 2.6591210305015238e-8 1.1282322977948715e-7
          2.0324674300807425e-7 9.60015623679306e-8 1.7674495239200483e-7 7.469750763998668e-9 1.1670767423738528e-8 1.5300472971346162e-8
          2.9367025623666136e-7 2.574883424160791e-7 1.5871784083478388e-8 7.742622263843611e-8 1.461568073163931e-7 8.737358331607479e-9
          1.7730577787886363e-8 2.1488739199435008e-7 2.6723797244165247e-8 1.9375451645293337e-7 2.5712348170126624e-7 2.427932943176335e-7
          2.284631069340008e-7 2.713015335748312e-7 2.916496881669559e-7 2.5485669222350384e-7 3.119978427590805e-7 1.9920624407140234e-7
          1.9386628311657587e-7 2.6260268782459614e-7 2.472483159340584e-7 1.9365554089579605e-7 2.681709805391457e-7 2.5173257285204035e-7
          1.8852632216174942e-7 2.3189394404352067e-7 2.3529416516493513e-7 1.9820849211252616e-7 1.927577988713724e-7 2.7368186201742657e-7
          2.5608207515306744e-7 1.9105538814390546e-7 2.7908877611778094e-7 2.6026643706625664e-7 1.8730710563021865e-7 2.3848228828870826e-7
          2.4144409801473235e-7 2.777036230353631e-7 2.9985614147400045e-7 2.843074275865545e-7 3.083957517623005e-7 2.3877891812708376e-7
          2.591706240356458e-7 2.634378391079153e-7 3.2200865991263773e-7 3.324840759380466e-7 2.795623299442077e-7 2.908829474125634e-7
          3.170631856061324e-7 2.974197120481559e-7 3.258363366786473e-7 2.4425256793166925e-7 2.672312129676574e-7 2.7045832750703373e-7
          3.432434237997014e-7 3.5425296130913874e-7 2.9020985800364565e-7 1.943444254067766e-7 1.8841614495523728e-7 2.8434890982874714e-7
          2.642676826032705e-7 1.8248786450369796e-7 2.4418645537779387e-7 3.0390818190302145e-7 3.3468607639159476e-7 2.670876948300176e-7
          3.434960330868162e-7 2.471522674227804e-7 2.729890355060946e-7 2.7417623760063577e-7 3.6546397088016813e-7 3.765707773844064e-7
          2.9882580358940883e-7 2.4947542693660034e-7 3.5197333401002603e-7 2.523070182754278e-7 3.598478483816494e-7 1.8882968485062082e-7
          2.7350973443137287e-7 2.7177307967590365e-7 3.8746379511430017e-7 3.98406040708338e-7 3.050678575253379e-7 2.5256281109177376e-7
          3.671364082481734e-7 2.5160475172508745e-7 3.737161477833157e-7 1.7495360001856002e-7 2.69452709007365e-7 2.6580609721351594e-7
          4.092308850146481e-7 4.1955520176017235e-7 3.0646665804685206e-7 2.4933727012069624e-7 3.792715340760707e-7 2.455846793757531e-7
          3.83449113465905e-7 1.6228961517094754e-7 2.602690913464575e-7 2.52586175763105e-7 4.291386770948096e-7 4.375370491456527e-7
          3.0036677200553835e-7 4.841843063155356e-8 5.292342743114454e-8 1.0059975198676589e-7 1.073658041982467e-7 4.459421383668507e-8
          9.330273497348692e-8 3.0293970711536994e-8 5.983530739068894e-8 6.522315573534852e-8 5.4813353695335037e-8 2.4012665845526927e-7
          1.449746363307549e-7 4.183425505037357e-8 2.644647026729873e-8 5.0545973724962387e-8 3.860111199298376e-7 2.424488598026502e-7
          4.4454999629111483e-7 2.8432509101363145e-7 9.100246821776267e-8 1.021424168145395e-7 1.3673522459260575e-7 1.4128146186307023e-7
          7.545311327548568e-8 1.2938874688569023e-7 6.449826831528761e-8 1.0010301333956071e-7 1.0861978260879704e-7 8.787855737609528e-8
          6.825357162530185e-8 1.2416863116357534e-7 6.28621748966156e-8 1.1909729227016567e-7 4.5451587247508625e-8 8.146001365837537e-8
          7.606136558904854e-8 5.777682764984608e-8 1.1352348841695332e-7 3.692656698974427e-8 7.066719332213132e-8 2.8691775995958533e-10
          2.6053585502595915e-10 6.513043005802743e-10 5.503302512593537e-10 7.324500845955425e-10 1.957675317313375e-9 6.651702921904357e-10
          3.3686614517243786e-9 2.1325410402618605e-8 3.5330713771960703e-9 5.542843764414054e-10 2.308313494739031e-9 1.5582753137651042e-9
          8.082371327911778e-10 4.373209982191471e-9 5.272507519773796e-10 1.7496641192284199e-9 7.400719823745983e-10 9.683633220834578e-9
          2.97207748647946e-9 1.2321019557564242e-9 4.360312555808975e-9 1.6476132271012877e-8 1.525752787127995e-8 1.4038923471547026e-8
          6.188598581633842e-8 4.697459064743464e-8 1.7201840209124195e-8 9.583957312938024e-8 4.410910906754507e-8 9.336163496990552e-9
          1.7948650552519532e-7 7.101637792596595e-8 5.823699978963457e-7 6.293058652648398e-7 4.854247912577503e-7 5.962326509224159e-7
          3.045549083263171e-7 2.730318534911401e-7 3.0291164071581243e-7 2.6910422754975967e-7 1.9143649761940298e-7 1.835444653176729e-7
          5.986773040032231e-7 5.63532692356885e-7 4.318333806451654e-7 2.99651132163937e-7 2.636280494245291e-7 8.806446704232367e-8
          2.9453577831302497e-7 2.564699845062282e-7 1.7415026091499807e-7 1.6320885811789587e-7 5.104981040165064e-7 6.182484555512723e-7
          6.277593190843602e-7 5.292270792859715e-7 6.857709258528954e-7 4.3956025188500407e-7 4.447020933391205e-7 2.2292796471217352e-7
          6.605963105457245e-7 5.91522410861142e-7 3.8488559400425836e-7 2.106564970338342e-7 3.797511788185682e-7 1.940155752061402e-7
          7.278649393355199e-7 5.702494079335729e-7 4.533225324036335e-7 4.531587296036897e-7 8.562076443491869e-8 4.062042136269974e-8
          7.77948936984608e-8 4.7576261860561224e-8
        </DataArray>
        <DataArray type="Float64" Name="gradient_matprop_error" format="ascii" RangeMin="0" RangeMax="0">
          0 0 0 0 0 0
          0 0 0 0 0 0
          0 0 0 0 0 0
          0 0 0 0 0 0
          0 0 0 0 0 0
          0 0 0 0 0 0
          0 0 0 0 0 0
          0 0 0 0 0 0
          0 0 0 0 0 0
          0 0 0 0 0 0
          0 0 0 0 0 0
          0 0 0 0 0 0
          0 0 0 0 0 0
          0 0 0 0 0 0
          0 0 0 0 0 0
          0 0 0 0 0 0
          0 0 0 0 0 0
          0 0 0 0 0 0
          0 0 0 0 0 0
          0 0 0 0 0 0
          0 0 0 0 0 0
          0 0 0 0 0 0
          0 0 0 0 0 0
          0 0 0 0 0 0
          0 0 0 0 0 0
          0 0 0 0 0 0
          0 0 0 0 0 0
          0 0 0 0 0 0
          0 0 0 0 0 0
          0 0 0 0 0 0
          0 0 0 0 0 0
          0 0 0 0 0 0
          0 0 0 0 0 0
          0 0 0 0 0 0
          0 0 0 0 0 0
          0 0 0 0 0 0
          0 0 0 0 0 0
          0 0 0 0 0 0
          0 0 0 0 0 0
          0 0 0 0 0 0
          0 0 0 0 0 0
          0 0 0 0 0 0
          0 0 0 0 0 0
          0 0 0 0 0 0
          0 0 0 0 0 0
          0 0 0 0 0 0
          0 0 0 0 0 0
          0 0 0 0 0 0
          0 0 0 0 0 0
          0 0 0 0 0 0
          0 0 0 0 0 0
          0 0 0 0 0 0
          0 0 0 0 0 0
          0 0 0 0 0 0
          0 0 0 0 0 0
          0 0 0 0 0 0
          0 0 0 0 0 0
          0 0 0 0 0 0
          0 0 0 0 0 0
          0 0 0 0 0 0
          0 0 0 0 0 0
          0 0 0 0 0 0
          0 0 0 0 0 0
          0 0 0 0 0 0
          0 0 0 0 0 0
          0 0 0 0 0 0
          0 0 0 0 0 0
          0 0 0 0 0 0
          0 0 0 0 0 0
          0 0 0 0 0 0
          0 0 0 0 0 0
          0 0 0 0 0 0
          0 0 0 0 0 0
          0 0 0 0 0 0
          0 0 0 0 0 0
          0 0 0 0 0 0
          0 0 0 0 0 0
          0 0 0 0 0 0
          0 0 0 0 0 0
          0 0 0 0 0 0
          0 0 0 0 0 0
          0 0 0 0 0 0
          0 0 0 0 0 0
          0 0 0 0 0 0
          0 0 0 0 0 0
          0 0 0 0 0 0
          0 0 0 0 0 0
          0 0 0 0 0 0
          0 0 0 0 0 0
          0 0 0 0 0 0
          0 0 0 0 0 0
          0 0 0 0 0 0
          0 0 0 0 0 0
          0 0 0 0 0 0
          0 0 0 0 0 0
          0 0 0 0 0 0
          0 0 0 0 0 0
          0 0
        </DataArray>
        <DataArray type="Float64" Name="initial_marker" format="ascii" RangeMin="0" RangeMax="2">
          0 0 0 0 0 0
          0 0 0 0 0 0
          0 0 0 0 0 0
          0 0 0 2 0 2
          0 0 0 0 0 0
          0 0 0 0 0 0
          0 0 0 0 0 0
          0 0 0 2 0 0
          0 0 0 0 0 0
          0 0 0 0 1 0
          0 0 0 1 0.25 0
          1 0.5 0 0 0 2
          1 1 0 0 0 1
          0.5 0 2 0.5 0 0
          0 2 1 1 0 0
          0 2 0.5 0 2 0.5
          0 0 0 2 1 1
          0 0 0 0 0 0
          0 0 0 0 0 0
          0 0 0 0 0 0
          0 0 0 0 0 0
          0 0 0 0 0 0
          0 0 0 0 0 0
          0 0 0 0 0 0
          0 0 0 0 0 0
          0 0 0 0 0 0
          0 0 0 0 0 0
          0 0 0 0 0 0
          0 0 0 0 0 0
          0 0 0 0 0.5 2
          1.5 0.5 2 1 0.5 2
          1.5 0.75 2 1.75 0 0.5
          0.75 2 2 2 1 1
          1 2 2 1 2 2
          0.6666666666666666 1 1 2 2 2
          1 0 0 0 0 0.5
          0.25 0 0 1 0.5 0
          0 0 0 1.5 1.25 1
          1.5 0.5 1 1 2 2
          2 2 0.6666666666666666 1 1 2
          2 2 1 2 2 2
          2 1 1 2 2 2
          1 0 0 1 0.5 0
          1 0.5 0 0 0 2
          1.5 1.5 0.5 0 0 1
          0.5 0 1 0.5 0 0
          0 2 1.5 1.5 0.5 2
          2 2 2 1 1 2
          2 2 1 2 2 1
          1 2 2 1 0 0
          0 0 0 0 0 0
          0 0 0 0 0 0
          0 0 0 0 0 0
          0 0 0 0 0 0
          0 0 0 0 0 0
          0 0 0 0 0 0
          0 0 0 0 0 0
          0 0 0 0 0 0
          0 0 0 0 0 0
          0 0 0 0 0 0
          0 0 0 0 0 0
          0 0 0 0 0 0
          0 0 0 0 0 0
          0 0 0 0 0 0
          0 0 0 0 0 0
          0 0 0 0 0 0
          0 0 0 0 0 0
          0 0 0 0 0 0
          0 0 0 0 0 0
          0 0 0 0 0 0
          0 0 0 0 0 0
          0 0 0 0 0 0
          0 0 0 0 0 0
          0 0 0 0 0 0
          0 0 0 0 0 0
          0 0 0 0 0 0
          0 0 0 0 0 0
          0 0 0 0 0 0
          0 0 0 0 0 0
          0 0 0 0 0 0
          0 0 0 0 0 0
          0 0 0 0 0 0
          0 0 0 0 0 0
          0 0 0 0 0 0
          0 0 0 0 0 0
          0 0 0 0 0 0
          0 0 0 0 0 0
          0 0 0 0 0 0
          0 0 0 0 0 0
          0 0 0 0 0 0
          0 0 2 2 2 2
          1 0.75 1 1 0.25 0.5
          2 1.75 0.75 1 1 0
          1 1 0.5 0.5 2 2
          1 2 1 1 1 0
          1 1.25 0.25 0 0.5 0
          1 1.5 0.5 1 0 0
          0 0
        </DataArray>
        <DataArray type="Float64" Name="markers_norefine" format="ascii" RangeMin="0" RangeMax="0">
          0 0 0 0 0 0
          0 0 0 0 0 0
          0 0 0 0 0 0
          0 0 0 0 0 0
          0 0 0 0 0 0
          0 0 0 0 0 0
          0 0 0 0 0 0
          0 0 0 0 0 0
          0 0 0 0 0 0
          0 0 0 0 0 0
          0 0 0 0 0 0
          0 0 0 0 0 0
          0 0 0 0 0 0
          0 0 0 0 0 0
          0 0 0 0 0 0
          0 0 0 0 0 0
          0 0 0 0 0 0
          0 0 0 0 0 0
          0 0 0 0 0 0
          0 0 0 0 0 0
          0 0 0 0 0 0
          0 0 0 0 0 0
          0 0 0 0 0 0
          0 0 0 0 0 0
          0 0 0 0 0 0
          0 0 0 0 0 0
          0 0 0 0 0 0
          0 0 0 0 0 0
          0 0 0 0 0 0
          0 0 0 0 0 0
          0 0 0 0 0 0
          0 0 0 0 0 0
          0 0 0 0 0 0
          0 0 0 0 0 0
          0 0 0 0 0 0
          0 0 0 0 0 0
          0 0 0 0 0 0
          0 0 0 0 0 0
          0 0 0 0 0 0
          0 0 0 0 0 0
          0 0 0 0 0 0
          0 0 0 0 0 0
          0 0 0 0 0 0
          0 0 0 0 0 0
          0 0 0 0 0 0
          0 0 0 0 0 0
          0 0 0 0 0 0
          0 0 0 0 0 0
          0 0 0 0 0 0
          0 0 0 0 0 0
          0 0 0 0 0 0
          0 0 0 0 0 0
          0 0 0 0 0 0
          0 0 0 0 0 0
          0 0 0 0 0 0
          0 0 0 0 0 0
          0 0 0 0 0 0
          0 0 0 0 0 0
          0 0 0 0 0 0
          0 0 0 0 0 0
          0 0 0 0 0 0
          0 0 0 0 0 0
          0 0 0 0 0 0
          0 0 0 0 0 0
          0 0 0 0 0 0
          0 0 0 0 0 0
          0 0 0 0 0 0
          0 0 0 0 0 0
          0 0 0 0 0 0
          0 0 0 0 0 0
          0 0 0 0 0 0
          0 0 0 0 0 0
          0 0 0 0 0 0
          0 0 0 0 0 0
          0 0 0 0 0 0
          0 0 0 0 0 0
          0 0 0 0 0 0
          0 0 0 0 0 0
          0 0 0 0 0 0
          0 0 0 0 0 0
          0 0 0 0 0 0
          0 0 0 0 0 0
          0 0 0 0 0 0
          0 0 0 0 0 0
          0 0 0 0 0 0
          0 0 0 0 0 0
          0 0 0 0 0 0
          0 0 0 0 0 0
          0 0 0 0 0 0
          0 0 0 0 0 0
          0 0 0 0 0 0
          0 0 0 0 0 0
          0 0 0 0 0 0
          0 0 0 0 0 0
          0 0 0 0 0 0
          0 0 0 0 0 0
          0 0 0 0 0 0
          0 0
        </DataArray>
        <DataArray type="Float64" Name="markers_mustrefine" format="ascii" RangeMin="0" RangeMax="2">
          0 0 0 0 0 0
          0 0 0 0 0 0
          0 0 0 0 0 0
          0 0 0 2 0 2
          0 0 0 0 0 0
          0 0 0 0 0 0
          0 0 0 0 0 0
          0 0 0 2 0 0
          0 0 0 0 0 0
          0 0 0 0 1 0
          0 0 0 1 0.25 0
          1 0.5 0 0 0 2
          1 1 0 0 0 1
          0.5 0 2 0.5 0 0
          0 2 1 1 0 0
          0 2 0.5 0 2 0.5
          0 0 0 2 1 1
          0 0 0 0 0 0
          0 0 0 0 0 0
          0 0 0 0 0 0
          0 0 0 0 0 0
          0 0 0 0 0 0
          0 0 0 0 0 0
          0 0 0 0 0 0
          0 0 0 0 0 0
          0 0 0 0 0 0
          0 0 0 0 0 0
          0 0 0 0 0 0
          0 0 0 0 0 0
          0 0 0 0 0.5 2
          1.5 0.5 2 1 0.5 2
          1.5 0.75 2 1.75 0 0.5
          0.75 2 2 2 1 1
          1 2 2 1 2 2
          0.6666666666666666 1 1 2 2 2
          1 0 0 0 0 0.5
          0.25 0 0 1 0.5 0
          0 0 0 1.5 1.25 1
          1.5 0.5 1 1 2 2
          2 2 0.6666666666666666 1 1 2
          2 2 1 2 2 2
          2 1 1 2 2 2
          1 0 0 1 0.5 0
          1 0.5 0 0 0 2
          1.5 1.5 0.5 0 0 1
          0.5 0 1 0.5 0 0
          0 2 1.5 1.5 0.5 2
          2 2 2 1 1 2
          2 2 1 2 2 1
          1 2 2 1 0 0
          0 0 0 0 0 0
          0 0 0 0 0 0
          0 0 0 0 0 0
          0 0 0 0 0 0
          0 0 0 0 0 0
          0 0 0 0 0 0
          0 0 0 0 0 0
          0 0 0 0 0 0
          0 0 0 0 0 0
          0 0 0 0 0 0
          0 0 0 0 0 0
          0 0 0 0 0 0
          0 0 0 0 0 0
          0 0 0 0 0 0
          0 0 0 0 0 0
          0 0 0 0 0 0
          0 0 0 0 0 0
          0 0 0 0 0 0
          0 0 0 0 0 0
          0 0 0 0 0 0
          0 0 0 0 0 0
          0 0 0 0 0 0
          0 0 0 0 0 0
          0 0 0 0 0 0
          0 0 0 0 0 0
          0 0 0 0 0 0
          0 0 0 0 0 0
          0 0 0 0 0 0
          0 0 0 0 0 0
          0 0 0 0 0 0
          0 0 0 0 0 0
          0 0 0 0 0 0
          0 0 0 0 0 0
          0 0 0 0 0 0
          0 0 0 0 0 0
          0 0 0 0 0 0
          0 0 0 0 0 0
          0 0 0 0 0 0
          0 0 0 0 0 0
          0 0 0 0 0 0
          0 0 2 2 2 2
          1 0.75 1 1 0.25 0.5
          2 1.75 0.75 1 1 0
          1 1 0.5 0.5 2 2
          1 2 1 1 1 0
          1 1.25 0.25 0 0.5 0
          1 1.5 0.5 1 0 0
          0 0
        </DataArray>
        <DataArray type="Float64" Name="gradient_marker" format="ascii" RangeMin="0" RangeMax="1">
          1 1 1 1 1 1
          1 1 1 1 1 1
          1 1 1 1 1 1
          1 1 1 1 1 1
          1 1 1 1 1 1
          1 1 1 1 1 1
          1 1 1 1 1 0.75
          1 1 1 1 1 1
          1 1 1 1 0.75 1
          1 1 1 1 1 1
          1 1 1 1 1 1
          1 1 1 1 1 1
          1 1 1 1 1 1
          1 0.75 1 1 0.8333333333333334 1
          0.75 1 1 1 1 1
          0.75 1 1 0.5 1 1
          0.6666666666666666 0.75 0.75 1 1 1
          1 0.75 0.5 0.6666666666666666 0.75 1
          1 1 1 1 1 1
          1 1 1 1 1 1
          1 1 1 1 1 1
          1 1 1 1 1 1
          1 1 1 1 1 1
          1 1 1 1 1 1
          1 1 1 1 1 1
          1 1 1 1 1 1
          1 1 1 1 1 1