<?xml version="1.0"?>
<VTKFile type="UnstructuredGrid" version="0.1" byte_order="LittleEndian" header_type="UInt32" compressor="vtkZLibDataCompressor">
  <UnstructuredGrid>
    <Piece NumberOfPoints="596" NumberOfCells="312">
      <PointData>
        <DataArray type="Int32" Name="libmesh_node_id" format="ascii" RangeMin="0" RangeMax="5737">
          0 1 2 3 4 5
          6 7 8 9 10 11
          12 13 14 15 16 17
          18 19 20 21 22 23
          24 25 26 27 28 29
          30 31 32 33 34 35
          80 81 82 83 84 85
          86 87 88 89 90 91
          92 93 94 95 96 97
          120 121 122 123 124 125
          126 127 128 129 130 131
          132 133 134 135 136 137
          160 161 162 163 164 165
          166 167 168 180 181 182
          183 184 185 186 187 188
          189 190 191 192 193 220
          221 222 223 224 225 226
          240 241 242 243 244 245
          246 247 248 249 250 251
          252 280 281 282 283 284
          285 300 301 302 303 304
          305 306 307 308 309 310
          311 340 341 342 343 344
          345 360 361 362 363 364
          365 366 367 368 369 370
          371 400 401 402 403 404
          405 5040 5041 5042 5043 5044
          5045 5046 5047 5048 5049 5050
          5051 5052 5053 5054 5055 5056
          5057 5058 5059 5060 5061 5062
          5063 5064 5065 5066 5067 5068
          5069 5070 5071 5072 5073 5074
          5075 5076 5077 5078 5079 5080
          5081 5082 5083 5084 5085 5086
          5087 5088 5089 5090 5091 5092
          5093 5094 5095 5096 5097 5098
          5099 5100 5101 5102 5103 5104
          5105 5106 5107 5108 5109 5110
          5111 5112 5113 5114 5224 5225
          5226 5227 5228 5229 5230 5231
          5232 5233 5234 5235 5236 5237
          5238 5239 5242 5245 5246 5248
          5249 5252 5254 5255 5256 5257
          5258 5259 5260 5261 5262 5263
          5264 5265 5266 5267 5268 5269
          5270 5271 5272 5273 5274 5275
          5276 5277 5304 5305 5306 5307
          5308 5309 5310 5311 5312 5313
          5314 5315 5316 5317 5318 5319
          5320 5321 5322 5323 5324 5325
          5326 5327 5328 5329 5330 5331
          5332 5333 5334 5335 5336 5337
          5338 5339 5340 5341 5342 5343
          5344 5345 5346 5347 5348 5349
          5350 5351 5352 5353 5354 5355
          5356 5357 5358 5359 5360 5361
          5362 5363 5364 5365 5366 5367
          5368 5369 5370 5371 5372 5373
          5374 5375 5376 5377 5378 5379
          5380 5381 5382 5383 5384 5385
          5386 5387 5388 5389 5390 5391
          5392 5393 5394 5395 5396 5397
          5398 5399 5400 5401 5402 5403
          5404 5405 5406 5407 5408 5409
          5410 5411 5412 5413 5414 5415
          5416 5417 5418 5419 5420 5421
          5422 5423 5424 5425 5426 5427
          5428 5429 5430 5431 5432 5433
          5434 5435 5436 5437 5438 5439
          5440 5441 5442 5443 5444 5445
          5446 5447 5448 5449 5450 5451
          5452 5453 5454 5455 5456 5457
          5458 5459 5460 5461 5462 5463
          5464 5465 5466 5467 5468 5469
          5470 5471 5472 5473 5474 5475
          5476 5477 5478 5479 5480 5481
          5482 5483 5484 5485 5486 5487
          5488 5489 5490 5491 5492 5493
          5494 5495 5496 5497 5498 5499
          5500 5501 5502 5503 5504 5505
          5506 5507 5508 5509 5510 5511
          5512 5513 5514 5515 5516 5517
          5518 5519 5520 5524 5525 5527
          5528 5530 5545 5546 5549 5551
          5552 5554 5565 5566 5569 5570
          5572 5574 5708 5709 5710 5711
          5712 5713 5714 5715 5716 5717
          5718 5719 5720 5721 5722 5723
          5724 5725 5726 5727 5728 5729
          5730 5731 5732 5733 5734 5735
          5736 5737 194 195 196 197
          227 228 253 254 255 286
          287 313 346 5116 5122 5118
          5123 5240 5241 5243 5244 5247
          5115 5119 5250 5251 5018 5019
          5022 5253 5028 5278 5279 5282
          5283 5128 5285 5287 5521 5522
          5523 5526 5117 5529 5547 5548
          5550 5125 5553 5126 5567 5568
          5571 5573
        </DataArray>
        <DataArray type="Float64" Name="bounds" format="ascii" RangeMin="0" RangeMax="0">
          0 0 0 0 0 0
          0 0 0 0 0 0
          0 0 0 0 0 0
          0 0 0 0 0 0
          0 0 0 0 0 0
          0 0 0 0 0 0
          0 0 0 0 0 0
          0 0 0 0 0 0
          0 0 0 0 0 0
          0 0 0 0 0 0
          0 0 0 0 0 0
          0 0 0 0 0 0
          0 0 0 0 0 0
          0 0 0 0 0 0
          0 0 0 0 0 0
          0 0 0 0 0 0
          0 0 0 0 0 0
          0 0 0 0 0 0
          0 0 0 0 0 0
          0 0 0 0 0 0
          0 0 0 0 0 0
          0 0 0 0 0 0
          0 0 0 0 0 0
          0 0 0 0 0 0
          0 0 0 0 0 0
          0 0 0 0 0 0
          0 0 0 0 0 0
          0 0 0 0 0 0
          0 0 0 0 0 0
          0 0 0 0 0 0
          0 0 0 0 0 0
          0 0 0 0 0 0
          0 0 0 0 0 0
          0 0 0 0 0 0
          0 0 0 0 0 0
          0 0 0 0 0 0
          0 0 0 0 0 0
          0 0 0 0 0 0
          0 0 0 0 0 0
          0 0 0 0 0 0
          0 0 0 0 0 0
          0 0 0 0 0 0
          0 0 0 0 0 0
          0 0 0 0 0 0
          0 0 0 0 0 0
          0 0 0 0 0 0
          0 0 0 0 0 0
          0 0 0 0 0 0
          0 0 0 0 0 0
          0 0 0 0 0 0
          0 0 0 0 0 0
          0 0 0 0 0 0
          0 0 0 0 0 0
          0 0 0 0 0 0
          0 0 0 0 0 0
          0 0 0 0 0 0
          0 0 0 0 0 0
          0 0 0 0 0 0
          0 0 0 0 0 0
          0 0 0 0 0 0
          0 0 0 0 0 0
          0 0 0 0 0 0
          0 0 0 0 0 0
          0 0 0 0 0 0
          0 0 0 0 0 0
          0 0 0 0 0 0
          0 0 0 0 0 0
          0 0 0 0 0 0
          0 0 0 0 0 0
          0 0 0 0 0 0
          0 0 0 0 0 0
          0 0 0 0 0 0
          0 0 0 0 0 0
          0 0 0 0 0 0
          0 0 0 0 0 0
          0 0 0 0 0 0
          0 0 0 0 0 0
          0 0 0 0 0 0
          0 0 0 0 0 0
          0 0 0 0 0 0
          0 0 0 0 0 0
          0 0 0 0 0 0
          0 0 0 0 0 0
          0 0 0 0 0 0
          0 0 0 0 0 0
          0 0 0 0 0 0
          0 0 0 0 0 0
          0 0 0 0 0 0
          0 0 0 0 0 0
          0 0 0 0 0 0
          0 0 0 0 0 0
          0 0 0 0 0 0
          0 0 0 0 0 0
          0 0 0 0 0 0
          0 0 0 0 0 0
          0 0 0 0 0 0
          0 0 0 0 0 0
          0 0 0 0 0 0
          0 0 0 0 0 0
          0 0
        </DataArray>
        <DataArray type="Float64" Name="gradient_error" format="ascii" RangeMin="2.7136778634726206e-11" RangeMax="0.000003151622388880603">
          1.2672583234563442e-9 1.0616722903092003e-9 5.929652569259481e-10 7.160565152116347e-10 3.4252386449336987e-9 2.828611139240081e-9
          1.5794121800907517e-9 1.9290825599121587e-9 5.906132853430217e-10 3.291162251255773e-10 1.5135962238310344e-9 8.498438365283917e-10
          5.040616442901007e-10 2.8165936607878244e-10 1.2951469870643402e-9 7.288309578143839e-10 7.054847425812342e-10 3.7841182847209683e-10
          1.8621472161546857e-9 1.0019583142960322e-9 5.239144157923136e-10 2.75862810852579e-10 1.3906999236187965e-9 7.375923195704026e-10
          2.777080208846243e-10 1.5242239975967525e-10 7.189046263283053e-10 4.0098365689253857e-10 1.827397274974619e-10 1.114826446144992e-10
          4.407806060147276e-10 2.771415348643036e-10 1.567766979852917e-10 1.0004292504738228e-10 4.018544393734845e-10 2.6004543025984236e-10
          1.2425822354269578e-10 1.6485470696692512e-10 3.3021322094142166e-10 4.3292647489061874e-10 6.761916490813287e-11 1.8609144922574915e-10
          5.925708786746426e-11 1.6251492856442756e-10 5.133891436295931e-11 1.4176941243737882e-10 2.781120591284437e-11 8.448471552200889e-11
          2.7136778634726206e-11 8.306268745677179e-11 4.02255617315365e-11 1.1350246371387971e-10 4.330915210947286e-11 1.1823642114620018e-10
          1.3641463186001331e-8 1.1122046081975346e-8 6.284739493597797e-9 7.751154764763189e-9 5.850759189863685e-9 3.3545077734725952e-9
          5.282453867940842e-9 3.0126039675439087e-9 7.681015069176735e-9 4.166378126006945e-9 5.6880584325009195e-9 3.0586559687542696e-9
          2.849619446580532e-9 1.6353244753481987e-9 1.6599550643906512e-9 1.0936443080674428e-9 1.6282291236176836e-9 1.078032180110623e-9
          1.4474329052202479e-9 1.860846343525044e-9 8.582563570815054e-10 7.427540671469755e-10 6.517411828371546e-10 4.2925350500761926e-10
          4.210295041158651e-10 5.273335517442344e-10 5.278352366035625e-10 5.2499093213403214e-8 4.2294078988016135e-8 2.435483214428943e-8
          3.028518282624761e-8 2.21402264343174e-8 1.3075461412286896e-8 2.1436954413501233e-8 1.244137597918189e-8 3.11730120496689e-8
          1.710394223838067e-8 2.2741940245591684e-8 1.2450921181381068e-8 1.1038060769680764e-8 6.567791612046859e-9 6.415585300562726e-9
          8.071272439092e-9 4.0106963902563975e-9 3.44579754486255e-9 3.0348724270924524e-9 2.1599021171704503e-9 2.0975224544129527e-9
          1.6140968745389228e-7 1.2330842732443003e-7 7.144558139009957e-8 9.356637287583497e-8 7.5834927342541e-8 4.3202966345623584e-8
          1.1553013061894636e-7 6.197969591492361e-8 1.0614830099281108e-7 5.296681990080996e-8 3.3747529978270734e-8 1.2690714275008527e-8
          1.7802549246051e-8 1.9582735455769188e-8 2.5723058297777665e-8 1.0571005348706157e-8 8.429261210900845e-9 7.280724787172129e-9
          4.746780413143385e-9 0.0000013036625867422604 0.0000012834265494711582 9.587694686604464e-7 0.000001013191313111211 0.000001267652923866697
          6.607084747145988e-7 0.000001314295360295941 4.1264151309333313e-7 7.583694594811872e-7 3.671344410305323e-7 1.1634193917738252e-7
          2.94426595778503e-7 0.0000011008665484584878 0.0000011698427933790976 5.3536778906238e-7 1.2658788716830528e-8 1.3169711738856969e-8
          1.1587987664574991e-8 2.605630424185167e-7 2.875837157789628e-7 0.000002627408586642654 0.0000026524856285374483 3.2704036679448615e-7
          0.0000015250418863985255 3.8450109054777824e-7 4.441995081187926e-7 4.507683806837351e-7 4.011357760121198e-7 5.627957332134091e-7
          3.4435164690896574e-7 0.0000021730400990144623 0.000002301361320596588 0.0000011100229630643264 4.4815675783525376e-8 7.018508001990635e-8
          7.615971235120496e-8 0.0000023736789985035705 0.0000019208756936789227 0.0000019206815236990153 0.000001418272460672964 0.0000014294323629128657
          0.0000018328472691956406 0.0000018236596624798573 0.0000019204216994849555 0.0000014520596575537558 0.000001853446009571432 0.0000014680723888542748
          0.0000022472391726219086 0.0000022385843531391937 0.000002267722306573524 2.7037709067419206e-7 0.000001748629440351743 0.0000017284291133628216
          0.0000017928823984610615 0.0000030264059563895424 0.0000024032251786931967 0.000001918936501022697 0.000001477604910021243 0.0000018781831634081006
          0.00000190813521783009 0.0000015044565464009954 0.000001541098445233701 0.0000014346478233521969 0.0000022931351061164 0.0000011531531354238455
          3.061539930517153e-7 0.0000018459073693350195 0.0000012105057142863787 0.000003151622388880603 0.0000024296168856085328 0.0000018843793775133373
          0.0000015311601468933418 0.00000119909558611219 0.000001859592609241555 0.0000015563869449706944 0.0000012013335971454547 7.573885151665358e-7
          5.749740487095969e-7 5.643294292311603e-7 3.5690935803723725e-7 5.670818903451528e-7 6.016792504227448e-7 4.312455972068992e-7
          0.0000024234942314791967 0.0000018343232332617642 0.0000015794030235919876 0.000001202810475132026 8.527139206723823e-7 0.0000010976230550722195
          9.379468624534173e-7 6.873634750618594e-7 5.370831161119647e-7 5.027469835019616e-7 4.1424266084958595e-7 6.38244001328906e-7
          6.774323001519394e-7 4.257514497325344e-7 1.263752596894252e-7 3.510010233553584e-7 6.366009686988317e-7 6.812904753981233e-7
          3.3251984701467785e-7 6.73519734837978e-7 6.791775612444646e-7 4.179929836962584e-7 4.627006836536246e-7 4.234727981114443e-7
          5.075215369028276e-7 7.193369663858545e-7 7.660707365071604e-7 3.739959600786925e-7 4.0166599022597846e-8 2.533118868053827e-8
          2.9741869336291983e-8 5.1589973493339426e-8 5.048549892534147e-8 4.2776523471814143e-8 4.3057295656288577e-8 1.8016929057517596e-8
          4.70370017963926e-8 4.216122597283014e-8 1.0495778338478696e-8 3.506754801828683e-8 3.4524617819237727e-8 3.728545014926768e-8
          2.3725789045471057e-8 1.3986433768907869e-8 1.1978795032826059e-8 4.24707849234468e-9 4.104439183063694e-8 1.2808562969246671e-8
          1.0263915218125335e-8 7.719267467003996e-9 7.25813942641951e-8 8.479287544384036e-8 1.7435618507499988e-7 1.8569808345985647e-7
          6.14484524529949e-8 1.5836613073276256e-7 1.5588073449002898e-8 3.883187426756276e-8 2.9473295260038642e-8 4.348075816114921e-8
          2.7613097588580473e-7 2.866032914758726e-7 2.5528380901253026e-7 6.207567508612261e-8 5.2463813851889155e-8 1.414902111086497e-7
          4.216368843614386e-8 1.2260656564915717e-7 1.7750669807768654e-8 4.607135465569411e-8 4.6722291151762506e-8 2.3051660836541028e-7
          2.0304944286217053e-7 7.439203950361956e-8 4.733726531268449e-7 4.633973103577596e-7 4.592031548955334e-7 3.6465184308324665e-7
          3.684240770599335e-7 4.1211251034682643e-7 4.0805441061422956e-7 4.7420873017866737e-7 3.7778140899817646e-7 4.2241186883636757e-7
          4.534219675886743e-7 4.5580094363371937e-7 4.514569781452124e-7 4.6704232867455873e-7 2.634755009930221e-7 3.608277103358933e-7
          3.569056663329257e-7 3.7061500749406777e-7 4.5817991967876447e-7 5.004316678990369e-7 4.884368302363112e-7 3.895715165432527e-7
          4.356301878032977e-7 5.040535100293872e-7 4.022635853963828e-7 4.499196146222536e-7 4.7644199257358564e-7 4.816888590633427e-7
          4.975756438481245e-7 2.787113651874685e-7 3.828235453702842e-7 3.9578571921512007e-7 4.869357255530999e-7 5.341084923056213e-7
          5.203892724883331e-7 4.1545247958302895e-7 4.648031711415546e-7 5.376109520278477e-7 4.2906931720050247e-7 4.803920617242117e-7
          5.066700526710448e-7 5.141538627000802e-7 5.317148062479209e-7 2.9679646686043645e-7 4.0921706979477606e-7 4.231731714205757e-7
          5.216376727291157e-7 5.707077196030836e-7 5.559889702080052e-7 4.4307690381176933e-7 4.968849355516776e-7 5.743522660199947e-7
          4.586509764484694e-7 5.118855476751159e-7 5.412702208129269e-7 5.506929672915858e-7 5.267473894423639e-7 3.154460880204551e-7
          4.3778090089534985e-7 4.494188293302369e-7 5.601157137702446e-7 6.108329578194871e-7 5.929159890605501e-7 4.764691693438516e-7
          5.250536734832214e-7 6.135472782136282e-7 4.94806383107694e-7 5.408407079633163e-7 4.917886788442145e-7 5.208250924497521e-7
          5.404468425280975e-7 3.421053808682161e-7 4.571913579058928e-7 4.681341377130045e-7 5.498615060552898e-7 6.560217297056025e-7
          6.354091615857031e-7 5.132521307679207e-7 5.59697745152527e-7 6.577986525274935e-7 5.326746438571091e-7 5.796482572686864e-7
          5.292789968826849e-7 5.568029102626294e-7 5.723769177360495e-7 3.7048253183023897e-7 4.839863287193511e-7 5.014978620098793e-7
          5.84326823642574e-7 7.072330068527172e-7 6.81334503045334e-7 5.531652738344585e-7 6.006431938929733e-7 7.062106786016121e-7
          5.747772382771823e-7 6.227459603111816e-7 5.569959352083509e-7 5.883136870626835e-7 6.047708591655968e-7 3.990975408161997e-7
          5.199518847406125e-7 5.392812420207511e-7 6.19631438917016e-7 7.652344230195089e-7 7.326410854114972e-7 5.975741931538627e-7
          6.460578630084334e-7 6.217284750619823e-7 6.156204807562273e-7 6.664664117590954e-7 5.86130074386344e-7 6.218424525218379e-7
          6.385184377467446e-7 4.2991396328821635e-7 5.594746406053694e-7 5.827670484683593e-7 6.575548306573318e-7 3.717438833193804e-7
          3.688062550536463e-7 4.256331545996469e-7 4.2062112163754185e-7 3.744525650723914e-7 4.3059748309756515e-7 2.849318954600097e-7
          3.227600490254147e-7 3.2311027848324817e-7 3.2236793020911767e-7 4.795224258799133e-7 4.724359882214373e-7 4.867424011227389e-7
          3.6058820259081984e-7 3.768672293305434e-7 4.353862396614093e-7 3.790286736429482e-7 4.400113113389693e-7 2.815220576918844e-7
          3.2162910714214684e-7 3.202980899464127e-7 4.939052499922752e-7 5.009939490349904e-7 3.6173615659240927e-7 2.4114430788840363e-7
          2.1997399393836545e-7 2.468588751080014e-7 3.456411259082133e-7 3.4395546584193183e-7 3.06405134319164e-7 3.0585637509714287e-7
          1.841719109756741e-7 3.4107534889003146e-7 3.061071025602939e-7 1.9880367998832724e-7 2.6885480279639624e-7 2.6607162428607237e-7
          2.7113885623055624e-7 6.113930168335038e-7 5.744977515524669e-7 5.989203985422059e-7 5.209301147199302e-7 1.762232848838327e-7
          1.719313647642733e-7 3.39404323475815e-7 3.044944285541528e-7 1.660510551042604e-7 3.382209350826091e-7 3.027127684662682e-7
          1.676394446447139e-7 2.6958453363249055e-7 2.672046018499274e-7 6.558717920444668e-7 6.157688480232123e-7 6.304751412504869e-7
          5.510094690426978e-7 6.275459709471819e-7 6.832506069121326e-7 6.452594485355968e-7 7.044071005521707e-7 6.549085039869148e-7
          6.726982869522504e-7 4.790725320228163e-7 6.103419854192939e-7 6.39015698164843e-7 6.97874798696167e-7 6.717008078712039e-7
          7.313270442971279e-7 7.015665091925206e-7 7.605307845580478e-7 6.91438294472861e-7 7.104247552762879e-7 5.342433937212716e-7
          6.681738848918634e-7 6.994857684433981e-7 7.421271966918089e-7 3.810246329271872e-7 4.4450183557460246e-7 3.826707466616397e-7
          4.487140773995785e-7 2.7446389423744417e-7 3.1814190605245844e-7 3.1558633346340036e-7 5.079790382220176e-7 5.147574081375172e-7
          3.618199178674728e-7 3.8373375031331416e-7 4.5248097582010416e-7 3.8427341316747025e-7 4.558191540301675e-7 2.657709015024508e-7
          3.1303864341753817e-7 3.102838574313345e-7 5.212282013268942e-7 5.273648948928648e-7 3.6030638533262554e-7 1.6499627799438211e-7
          1.6125572482455587e-7 3.3663927287647934e-7 3.0048430782206105e-7 1.5751517165472968e-7 2.6432934276764286e-7 6.911207689599695e-7
          6.449719803139566e-7 5.696348562218656e-7 7.338931432540695e-7 7.917161085157919e-7 7.299479633034887e-7 5.938270163467767e-7
          7.33201147223237e-7 7.910153992144569e-7 3.8434164909257886e-7 4.5873829797053285e-7 2.5742511285544785e-7 3.071197431116026e-7
          5.331349468484869e-7 3.568143733677573e-7 1.080523576461034e-7 1.2551219576128427e-7 2.0368048762323872e-7 2.181036452835057e-7
          4.0469554377277145e-8 7.229851500344285e-8 1.2150709685923105e-7 2.99308617600374e-7 3.106950948057271e-7 1.0412747562960854e-7
          3.539543849552236e-7 3.4792807741991254e-7 4.08325442566777e-7 4.0647118611485314e-7 3.6193092305357766e-7 4.11667036062837e-7
          2.9933043252363143e-7 3.4863887785664114e-7 3.6294044170613897e-7 3.293154198884178e-7 4.626965001783304e-7 4.6501429480979374e-7
          4.614031490720964e-7 3.9794732318965085e-7 3.655855825995926e-7 4.156422465931265e-7 2.874097648996193e-7 3.238220321981276e-7
          4.656989105866603e-7 3.6023429949663587e-7 6.270034491427327e-9 4.3557965894554464e-9 6.656314101608323e-9 4.505318982693346e-9
          2.441558687483564e-9 2.354323863778369e-9 8.539993334345747e-9 1.0035549737408482e-8 8.85185033711713e-9 5.3667570039439836e-9
          8.102689606143327e-9 2.5343545464419894e-7 1.0117257585360314e-8 3.163713630353842e-7 3.6424660572194144e-7 6.76128094617936e-7
          3.845034465357972e-7 4.46799055349581e-8 4.286214868279752e-8 4.641865107865725e-8 4.5566092461974485e-8 4.4713533845291725e-8
          1.1331982879282305e-7 2.9933755304863335e-7 5.186656299611236e-8 4.952850688093807e-8 9.71758046689407e-9 6.300415619693324e-8
          5.5627530472859904e-8 4.719045076576378e-8 4.825090474878658e-8 3.0484088827255004e-8 1.0177307541351767e-7 1.5357204217486584e-8
          4.548877681442367e-8 3.12497878774271e-7 1.7306206199978036e-7 7.562034941136075e-8 1.5686411097474584e-7 3.3460436781093066e-7
          2.9778791725002383e-7 2.60971466689117e-7 7.090192004297858e-7 6.595353736970194e-7 7.68715533065498e-7 8.249541926563277e-7
          7.499892572099209e-7 6.275957653320849e-7 7.695493614439183e-7 8.169760679588775e-7 3.8386702277072974e-7 4.611688017159512e-7
          3.0355194125921785e-7 5.384705806611727e-7
        </DataArray>
        <DataArray type="Float64" Name="gradient_matprop_error" format="ascii" RangeMin="0" RangeMax="0">
          0 0 0 0 0 0
          0 0 0 0 0 0
          0 0 0 0 0 0
          0 0 0 0 0 0
          0 0 0 0 0 0
          0 0 0 0 0 0
          0 0 0 0 0 0
          0 0 0 0 0 0
          0 0 0 0 0 0
          0 0 0 0 0 0
          0 0 0 0 0 0
          0 0 0 0 0 0
          0 0 0 0 0 0
          0 0 0 0 0 0
          0 0 0 0 0 0
          0 0 0 0 0 0
          0 0 0 0 0 0
          0 0 0 0 0 0
          0 0 0 0 0 0
          0 0 0 0 0 0
          0 0 0 0 0 0
          0 0 0 0 0 0
          0 0 0 0 0 0
          0 0 0 0 0 0
          0 0 0 0 0 0
          0 0 0 0 0 0
          0 0 0 0 0 0
          0 0 0 0 0 0
          0 0 0 0 0 0
          0 0 0 0 0 0
          0 0 0 0 0 0
          0 0 0 0 0 0
          0 0 0 0 0 0
          0 0 0 0 0 0
          0 0 0 0 0 0
          0 0 0 0 0 0
          0 0 0 0 0 0
          0 0 0 0 0 0
          0 0 0 0 0 0
          0 0 0 0 0 0
          0 0 0 0 0 0
          0 0 0 0 0 0
          0 0 0 0 0 0
          0 0 0 0 0 0
          0 0 0 0 0 0
          0 0 0 0 0 0
          0 0 0 0 0 0
          0 0 0 0 0 0
          0 0 0 0 0 0
          0 0 0 0 0 0
          0 0 0 0 0 0
          0 0 0 0 0 0
          0 0 0 0 0 0
          0 0 0 0 0 0
          0 0 0 0 0 0
          0 0 0 0 0 0
          0 0 0 0 0 0
          0 0 0 0 0 0
          0 0 0 0 0 0
          0 0 0 0 0 0
          0 0 0 0 0 0
          0 0 0 0 0 0
          0 0 0 0 0 0
          0 0 0 0 0 0
          0 0 0 0 0 0
          0 0 0 0 0 0
          0 0 0 0 0 0
          0 0 0 0 0 0
          0 0 0 0 0 0
          0 0 0 0 0 0
          0 0 0 0 0 0
          0 0 0 0 0 0
          0 0 0 0 0 0
          0 0 0 0 0 0
          0 0 0 0 0 0
          0 0 0 0 0 0
          0 0 0 0 0 0
          0 0 0 0 0 0
          0 0 0 0 0 0
          0 0 0 0 0 0
          0 0 0 0 0 0
          0 0 0 0 0 0
          0 0 0 0 0 0
          0 0 0 0 0 0
          0 0 0 0 0 0
          0 0 0 0 0 0
          0 0 0 0 0 0
          0 0 0 0 0 0
          0 0 0 0 0 0
          0 0 0 0 0 0
          0 0 0 0 0 0
          0 0 0 0 0 0
          0 0 0 0 0 0
          0 0 0 0 0 0
          0 0 0 0 0 0
          0 0 0 0 0 0
          0 0 0 0 0 0
          0 0 0 0 0 0
          0 0 0 0 0 0
          0 0
        </DataArray>
        <DataArray type="Float64" Name="initial_marker" format="ascii" RangeMin="0" RangeMax="0">
          0 0 0 0 0 0
          0 0 0 0 0 0
          0 0 0 0 0 0
          0 0 0 0 0 0
          0 0 0 0 0 0
          0 0 0 0 0 0
          0 0 0 0 0 0
          0 0 0 0 0 0
          0 0 0 0 0 0
          0 0 0 0 0 0
          0 0 0 0 0 0
          0 0 0 0 0 0
          0 0 0 0 0 0
          0 0 0 0 0 0
          0 0 0 0 0 0
          0 0 0 0 0 0
          0 0 0 0 0 0
          0 0 0 0 0 0
          0 0 0 0 0 0
          0 0 0 0 0 0
          0 0 0 0 0 0
          0 0 0 0 0 0
          0 0 0 0 0 0
          0 0 0 0 0 0
          0 0 0 0 0 0
          0 0 0 0 0 0
          0 0 0 0 0 0
          0 0 0 0 0 0
          0 0 0 0 0 0
          0 0 0 0 0 0
          0 0 0 0 0 0
          0 0 0 0 0 0
          0 0 0 0 0 0
          0 0 0 0 0 0
          0 0 0 0 0 0
          0 0 0 0 0 0
          0 0 0 0 0 0
          0 0 0 0 0 0
          0 0 0 0 0 0
          0 0 0 0 0 0
          0 0 0 0 0 0
          0 0 0 0 0 0
          0 0 0 0 0 0
          0 0 0 0 0 0
          0 0 0 0 0 0
          0 0 0 0 0 0
          0 0 0 0 0 0
          0 0 0 0 0 0
          0 0 0 0 0 0
          0 0 0 0 0 0
          0 0 0 0 0 0
          0 0 0 0 0 0
          0 0 0 0 0 0
          0 0 0 0 0 0
          0 0 0 0 0 0
          0 0 0 0 0 0
          0 0 0 0 0 0
          0 0 0 0 0 0
          0 0 0 0 0 0
          0 0 0 0 0 0
          0 0 0 0 0 0
          0 0 0 0 0 0
          0 0 0 0 0 0
          0 0 0 0 0 0
          0 0 0 0 0 0
          0 0 0 0 0 0
          0 0 0 0 0 0
          0 0 0 0 0 0
          0 0 0 0 0 0
          0 0 0 0 0 0
          0 0 0 0 0 0
          0 0 0 0 0 0
          0 0 0 0 0 0
          0 0 0 0 0 0
          0 0 0 0 0 0
          0 0 0 0 0 0
          0 0 0 0 0 0
          0 0 0 0 0 0
          0 0 0 0 0 0
          0 0 0 0 0 0
          0 0 0 0 0 0
          0 0 0 0 0 0
          0 0 0 0 0 0
          0 0 0 0 0 0
          0 0 0 0 0 0
          0 0 0 0 0 0
          0 0 0 0 0 0
          0 0 0 0 0 0
          0 0 0 0 0 0
          0 0 0 0 0 0
          0 0 0 0 0 0
          0 0 0 0 0 0
          0 0 0 0 0 0
          0 0 0 0 0 0
          0 0 0 0 0 0
          0 0 0 0 0 0
          0 0 0 0 0 0
          0 0 0 0 0 0
          0 0 0 0 0 0
          0 0
        </DataArray>
        <DataArray type="Float64" Name="markers_norefine" format="ascii" RangeMin="0" RangeMax="0">
          0 0 0 0 0 0
          0 0 0 0 0 0
          0 0 0 0 0 0
          0 0 0 0 0 0
          0 0 0 0 0 0
          0 0 0 0 0 0
          0 0 0 0 0 0
          0 0 0 0 0 0
          0 0 0 0 0 0
          0 0 0 0 0 0
          0 0 0 0 0 0
          0 0 0 0 0 0
          0 0 0 0 0 0
          0 0 0 0 0 0
          0 0 0 0 0 0
          0 0 0 0 0 0
          0 0 0 0 0 0
          0 0 0 0 0 0
          0 0 0 0 0 0
          0 0 0 0 0 0
          0 0 0 0 0 0
          0 0 0 0 0 0
          0 0 0 0 0 0
          0 0 0 0 0 0
          0 0 0 0 0 0
          0 0 0 0 0 0
          0 0 0 0 0 0
          0 0 0 0 0 0
          0 0 0 0 0 0
          0 0 0 0 0 0
          0 0 0 0 0 0
          0 0 0 0 0 0
          0 0 0 0 0 0
          0 0 0 0 0 0
          0 0 0 0 0 0
          0 0 0 0 0 0
          0 0 0 0 0 0
          0 0 0 0 0 0
          0 0 0 0 0 0
          0 0 0 0 0 0
          0 0 0 0 0 0
          0 0 0 0 0 0
          0 0 0 0 0 0
          0 0 0 0 0 0
          0 0 0 0 0 0
          0 0 0 0 0 0
          0 0 0 0 0 0
          0 0 0 0 0 0
          0 0 0 0 0 0
          0 0 0 0 0 0
          0 0 0 0 0 0
          0 0 0 0 0 0
          0 0 0 0 0 0
          0 0 0 0 0 0
          0 0 0 0 0 0
          0 0 0 0 0 0
          0 0 0 0 0 0
          0 0 0 0 0 0
          0 0 0 0 0 0
          0 0 0 0 0 0
          0 0 0 0 0 0
          0 0 0 0 0 0
          0 0 0 0 0 0
          0 0 0 0 0 0
          0 0 0 0 0 0
          0 0 0 0 0 0
          0 0 0 0 0 0
          0 0 0 0 0 0
          0 0 0 0 0 0
          0 0 0 0 0 0
          0 0 0 0 0 0
          0 0 0 0 0 0
          0 0 0 0 0 0
          0 0 0 0 0 0
          0 0 0 0 0 0
          0 0 0 0 0 0
          0 0 0 0 0 0
          0 0 0 0 0 0
          0 0 0 0 0 0
          0 0 0 0 0 0
          0 0 0 0 0 0
          0 0 0 0 0 0
          0 0 0 0 0 0
          0 0 0 0 0 0
          0 0 0 0 0 0
          0 0 0 0 0 0
          0 0 0 0 0 0
          0 0 0 0 0 0
          0 0 0 0 0 0
          0 0 0 0 0 0
          0 0 0 0 0 0
          0 0 0 0 0 0
          0 0 0 0 0 0
          0 0 0 0 0 0
          0 0 0 0 0 0
          0 0 0 0 0 0
          0 0 0 0 0 0
          0 0 0 0 0 0
          0 0 0 0 0 0
          0 0
        </DataArray>
        <DataArray type="Float64" Name="markers_mustrefine" format="ascii" RangeMin="0" RangeMax="0">
          0 0 0 0 0 0
          0 0 0 0 0 0
          0 0 0 0 0 0
          0 0 0 0 0 0
          0 0 0 0 0 0
          0 0 0 0 0 0
          0 0 0 0 0 0
          0 0 0 0 0 0
          0 0 0 0 0 0
          0 0 0 0 0 0
          0 0 0 0 0 0
          0 0 0 0 0 0
          0 0 0 0 0 0
          0 0 0 0 0 0
          0 0 0 0 0 0
          0 0 0 0 0 0
          0 0 0 0 0 0
          0 0 0 0 0 0
          0 0 0 0 0 0
          0 0 0 0 0 0
          0 0 0 0 0 0
          0 0 0 0 0 0
          0 0 0 0 0 0
          0 0 0 0 0 0
          0 0 0 0 0 0
          0 0 0 0 0 0
          0 0 0 0 0 0
          0 0 0 0 0 0
          0 0 0 0 0 0
          0 0 0 0 0 0
          0 0 0 0 0 0
          0 0 0 0 0 0
          0 0 0 0 0 0
          0 0 0 0 0 0
          0 0 0 0 0 0
          0 0 0 0 0 0
          0 0 0 0 0 0
          0 0 0 0 0 0
          0 0 0 0 0 0
          0 0 0 0 0 0
          0 0 0 0 0 0
          0 0 0 0 0 0
          0 0 0 0 0 0
          0 0 0 0 0 0
          0 0 0 0 0 0
          0 0 0 0 0 0
          0 0 0 0 0 0
          0 0 0 0 0 0
          0 0 0 0 0 0
          0 0 0 0 0 0
          0 0 0 0 0 0
          0 0 0 0 0 0
          0 0 0 0 0 0
          0 0 0 0 0 0
          0 0 0 0 0 0
          0 0 0 0 0 0
          0 0 0 0 0 0
          0 0 0 0 0 0
          0 0 0 0 0 0
          0 0 0 0 0 0
          0 0 0 0 0 0
          0 0 0 0 0 0
          0 0 0 0 0 0
          0 0 0 0 0 0
          0 0 0 0 0 0
          0 0 0 0 0 0
          0 0 0 0 0 0
          0 0 0 0 0 0
          0 0 0 0 0 0
          0 0 0 0 0 0
          0 0 0 0 0 0
          0 0 0 0 0 0
          0 0 0 0 0 0
          0 0 0 0 0 0
          0 0 0 0 0 0
          0 0 0 0 0 0
          0 0 0 0 0 0
          0 0 0 0 0 0
          0 0 0 0 0 0
          0 0 0 0 0 0
          0 0 0 0 0 0
          0 0 0 0 0 0
          0 0 0 0 0 0
          0 0 0 0 0 0
          0 0 0 0 0 0
          0 0 0 0 0 0
          0 0 0 0 0 0
          0 0 0 0 0 0
          0 0 0 0 0 0
          0 0 0 0 0 0
          0 0 0 0 0 0
          0 0 0 0 0 0
          0 0 0 0 0 0
          0 0 0 0 0 0
          0 0 0 0 0 0
          0 0 0 0 0 0
          0 0 0 0 0 0
          0 0 0 0 0 0
          0 0 0 0 0 0
          0 0
        </DataArray>
        <DataArray type="Float64" Name="gradient_marker" format="ascii" RangeMin="1" RangeMax="1">
          1 1 1 1 1 1
          1 1 1 1 1 1
          1 1 1 1 1 1
          1 1 1 1 1 1
          1 1 1 1 1 1
          1 1 1 1 1 1
          1 1 1 1 1 1