<?xml version="1.0"?>
<VTKFile type="UnstructuredGrid" version="0.1" byte_order="LittleEndian" header_type="UInt32" compressor="vtkZLibDataCompressor">
  <UnstructuredGrid>
    <Piece NumberOfPoints="500" NumberOfCells="316">
      <PointData>
        <DataArray type="Int32" Name="libmesh_node_id" format="ascii" RangeMin="491" RangeMax="4906">
          491 1267 1268 1273 1309 1310
          1315 1316 1318 2182 2196 2210
          2211 2213 2216 2226 2230 2300
          2301 2302 2303 2310 2311 2313
          2318 2319 2328 2330 2331 2332
          2333 2334 2335 2336 2337 2338
          2339 2340 2341 2342 2345 2347
          2348 2350 2351 2352 2354 2355
          2356 2358 2360 2362 2364 3955
          3969 4061 4157 4158 4160 4163
          4173 4175 4177 4191 4192 4194
          4197 4207 4209 4211 4261 4263
          4265 4289 4291 4293 4479 4480
          4481 4482 4489 4490 4491 4492
          4497 4498 4499 4504 4505 4506
          4557 4558 4559 4560 4575 4576
          4577 4616 4617 4618 4623 4624
          4625 4631 4640 4641 4642 4655
          4656 4657 4658 4659 4664 4665
          4666 4669 4670 4671 4672 4673
          4674 4675 4676 4677 4678 4679
          4680 4681 4682 4683 4684 4685
          4686 4687 4688 4689 4690 4691
          4692 4693 4694 4695 4696 4697
          4698 4699 4700 4701 4702 4703
          4704 4705 4706 4707 4708 4709
          4710 4711 4712 4713 4714 4715
          4716 4717 4718 4719 4720 4721
          4722 4723 4724 4725 4726 4727
          4728 4729 4730 4731 4732 4733
          4734 4735 4736 4737 4738 4739
          4740 4741 4742 4743 4744 4745
          4746 4747 4758 4759 4760 4761
          4762 4763 4764 4772 4773 4774
          4775 4776 4777 4778 4779 4780
          4781 4792 4793 4794 4795 4796
          4797 4798 4806 4807 4808 4809
          4810 4811 4812 4813 4814 4815
          4816 4817 4818 4819 4821 4823
          4825 4827 4828 4829 4830 4831
          4832 4833 4834 4835 4836 4837
          4838 4839 4840 4841 4842 4843
          4844 4845 4846 4847 4849 4851
          4853 4855 4856 4857 4858 4859
          4860 4861 4862 4863 4864 4865
          4866 4867 4868 4871 4875 4876
          4877 4878 4879 4880 4881 4882
          4883 4884 4885 4886 4887 4888
          4889 4890 4891 4892 4895 4899
          4900 4901 4902 4903 4904 4905
          4906 2315 2322 2326 2317 1313
          2324 2327 2329 1314 2359 2361
          2363 637 2320 2545 2544 2353
          2548 2547 2357 2552 2551 2554
          2555 2556 2557 2561 2562 3947
          3949 3950 3948 3953 3954 3952
          3951 3956 3965 3964 3968 3967
          3966 3970 4057 4056 4060 4059
          4058 4062 4071 4070 4075 4074
          4155 4156 4159 4161 4162 4164
          4172 4174 4176 4178 4189 4190
          4193 4195 4196 4198 4206 4208
          4210 4212 4260 4262 4264 4266
          4275 4274 4279 4278 4288 4290
          4292 4294 4303 4302 4307 4306
          4473 4474 4475 4476 4477 4478
          4483 4484 4485 4486 4487 4488
          4493 4494 4495 4496 4500 4501
          4502 4503 4551 4552 4553 4554
          4555 4556 4561 4562 4567 4568
          4565 4570 4571 4572 4573 4574
          4578 4582 4580 4584 4612 4613
          4614 4615 4619 4620 4621 4622
          4626 4630 4627 4628 4073 4632
          1270 4629 4634 4636 4638 4639
          4600 4650 4652 4653 4651 4654
          4660 4661 4662 4663 4667 4668
          4748 4749 4752 4754 4755 4757
          4765 4767 4769 4771 4782 4783
          4786 4788 4789 4791 4799 4801
          4803 4805 4820 4822 4824 4826
          4848 4850 4852 4854 4869 4870
          4872 4873 4874 4893 4894 4896
          4897 4898
        </DataArray>
        <DataArray type="Float64" Name="bounds" format="ascii" RangeMin="0" RangeMax="0">
          0 0 0 0 0 0
          0 0 0 0 0 0
          0 0 0 0 0 0
          0 0 0 0 0 0
          0 0 0 0 0 0
          0 0 0 0 0 0
          0 0 0 0 0 0
          0 0 0 0 0 0
          0 0 0 0 0 0
          0 0 0 0 0 0
          0 0 0 0 0 0
          0 0 0 0 0 0
          0 0 0 0 0 0
          0 0 0 0 0 0
          0 0 0 0 0 0
          0 0 0 0 0 0
          0 0 0 0 0 0
          0 0 0 0 0 0
          0 0 0 0 0 0
          0 0 0 0 0 0
          0 0 0 0 0 0
          0 0 0 0 0 0
          0 0 0 0 0 0
          0 0 0 0 0 0
          0 0 0 0 0 0
          0 0 0 0 0 0
          0 0 0 0 0 0
          0 0 0 0 0 0
          0 0 0 0 0 0
          0 0 0 0 0 0
          0 0 0 0 0 0
          0 0 0 0 0 0
          0 0 0 0 0 0
          0 0 0 0 0 0
          0 0 0 0 0 0
          0 0 0 0 0 0
          0 0 0 0 0 0
          0 0 0 0 0 0
          0 0 0 0 0 0
          0 0 0 0 0 0
          0 0 0 0 0 0
          0 0 0 0 0 0
          0 0 0 0 0 0
          0 0 0 0 0 0
          0 0 0 0 0 0
          0 0 0 0 0 0
          0 0 0 0 0 0
          0 0 0 0 0 0
          0 0 0 0 0 0
          0 0 0 0 0 0
          0 0 0 0 0 0
          0 0 0 0 0 0
          0 0 0 0 0 0
          0 0 0 0 0 0
          0 0 0 0 0 0
          0 0 0 0 0 0
          0 0 0 0 0 0
          0 0 0 0 0 0
          0 0 0 0 0 0
          0 0 0 0 0 0
          0 0 0 0 0 0
          0 0 0 0 0 0
          0 0 0 0 0 0
          0 0 0 0 0 0
          0 0 0 0 0 0
          0 0 0 0 0 0
          0 0 0 0 0 0
          0 0 0 0 0 0
          0 0 0 0 0 0
          0 0 0 0 0 0
          0 0 0 0 0 0
          0 0 0 0 0 0
          0 0 0 0 0 0
          0 0 0 0 0 0
          0 0 0 0 0 0
          0 0 0 0 0 0
          0 0 0 0 0 0
          0 0 0 0 0 0
          0 0 0 0 0 0
          0 0 0 0 0 0
          0 0 0 0 0 0
          0 0 0 0 0 0
          0 0 0 0 0 0
          0 0
        </DataArray>
        <DataArray type="Float64" Name="gradient_error" format="ascii" RangeMin="3.0845087174396377e-12" RangeMax="3.65420226264035e-8">
          2.657538899679666e-8 1.2787538793476566e-8 3.6067350095976447e-9 1.0972290480885567e-8 1.3150714568495933e-9 3.187406030347284e-10
          3.797600742404612e-9 1.0271333247140705e-9 5.1645518191007237e-11 9.938421111082418e-9 6.45525981910148e-10 2.3206412140881182e-8
          2.0673108313624302e-8 8.373632488833813e-9 2.5687639571978257e-8 1.4243362272414914e-9 1.8577779821373132e-9 4.77361418733137e-9
          3.5293789575851016e-9 9.480146592144026e-10 1.2000686656402884e-9 2.781372461652824e-10 1.9917105172158756e-10 6.887220122224724e-11
          2.1013456530496055e-10 6.22111917143832e-11 2.3787435262429404e-11 2.2334995873479197e-11 9.95856550479692e-9 8.086453809075867e-9
          2.9865368261257197e-9 2.2712404872758436e-9 2.880456857099444e-9 7.668051101286983e-10 1.1967273546384203e-8 1.039361284207682e-8
          2.997630230143691e-9 3.842047077040477e-9 6.502734479596444e-10 4.794656882386929e-10 1.6281216855954425e-10 8.463295750239583e-10
          6.37721042556873e-10 2.1713855086093161e-10 4.645256545669509e-10 1.262646233860936e-10 4.2615753621749475e-11 6.066459804809825e-10
          1.643507240795521e-10 3.650186743716193e-11 2.0493449050045276e-11 4.651205225510369e-11 2.489611229330863e-11 1.2113844988517544e-8
          6.671601751205434e-9 1.6222738435854292e-9 1.857778199353882e-8 1.800563023144182e-8 1.5468742408739486e-8 2.3040932425716436e-8
          1.0782686437724982e-8 5.921438300821537e-9 1.4923793405705107e-8 2.5857071974934102e-8 2.6263370920143836e-8 2.4362847391950923e-8
          2.7295252741541934e-8 1.7981217906872666e-8 1.026260202581178e-8 1.910524872238153e-8 2.6406342905830106e-9 1.0229098390381716e-9
          3.736094952785005e-9 4.596615601005261e-9 1.7383238142038963e-9 4.924405665507296e-9 8.137002031631072e-9 7.641980809284418e-9
          4.454332743447535e-9 6.1444895454170604e-9 2.596323864129267e-9 2.4107960177608027e-9 1.2169529862503672e-9 1.890270193193434e-9
          4.0348236727065415e-9 2.2832061947258543e-9 2.1422555823409556e-9 1.2122084887287628e-9 6.059942678460383e-10 6.353976135730844e-10
          6.235732940162463e-10 5.75813268504898e-10 2.565603242440324e-10 4.4715184513422717e-10 2.8623337001970755e-10 1.281957093087601e-10
          1.5186355773285032e-10 9.521020467813866e-10 5.316074920242965e-10 3.7625629494197167e-10 2.829235496726046e-10 1.4346651742976985e-10
          1.1231727423398437e-10 7.774920851235584e-11 4.173102196783116e-11 2.5005793443849886e-11 2.302413012973074e-11 2.2567646180542047e-11
          1.0630405722267941e-11 6.921373867194354e-11 3.19176813374202e-11 3.323233033470712e-11 3.4323949550712065e-12 4.858273682530039e-12
          3.0845087174396377e-12 8.511812017708545e-12 1.2325676607098633e-8 1.1802868563894065e-8 7.508555894412559e-9 7.106986878018227e-9
          9.855604951104701e-9 5.787900388314705e-9 1.5692101807540157e-8 1.5395869425440607e-8 9.600446554551829e-9 1.3450378407014281e-8
          4.182733111940679e-9 3.926934768345814e-9 2.1510121170606554e-9 2.007363774255704e-9 3.1430201208252606e-9 1.5875217774469554e-9
          5.702996774379788e-9 5.428644713593055e-9 2.8168543372685158e-9 4.457110430341374e-9 6.651776486483135e-9 3.812590938953284e-9
          3.554548897191404e-9 2.0027280439083115e-9 9.382563753009365e-9 5.450349807539508e-9 5.079477971861316e-9 2.038156590398047e-9
          1.020806922750204e-9 1.061994922751557e-9 5.317886145235734e-10 2.937183494366373e-9 1.4762682208856307e-9 1.5316131052020735e-9
          1.7552174036575958e-8 1.7603255585319573e-8 1.1483917816873885e-8 1.126449206029818e-8 1.5977853545304127e-8 9.777997064196803e-9
          1.8088506157911024e-8 1.8309759265845356e-8 1.1825697059273383e-8 1.68741308380456e-8 6.739938204125361e-9 6.49615960999543e-9
          3.584699072837236e-9 3.4133291914384474e-9 5.453228832566011e-9 2.799252146859926e-9 7.095829001421076e-9 6.874768396809449e-9
          3.6302581639504962e-9 5.823076958710906e-9 1.144900180835063e-8 6.721021736104885e-9 6.275206418464658e-9 3.576120232922671e-9
          1.2216283761818823e-8 7.200434238199269e-9 6.729591919091398e-9 3.644795684665164e-9 1.8378219075026236e-9 1.9063484245451157e-9
          9.548192526298383e-10 3.913970641891182e-9 1.976091977298162e-9 2.050223928725895e-9 1.0284799334158846e-9 9.5577007585397e-10
          4.601377352469082e-10 4.264606439161538e-10 7.502494312848752e-10 3.3352582604916533e-10 1.4443625386827262e-9 1.3532586887342847e-9
          6.064582925391768e-10 1.077861585916848e-9 4.812243759743661e-10 2.144584564744335e-10 2.522444048244362e-10 1.1368339566162997e-10
          6.960202480153263e-10 3.094024517999437e-10 3.6280747250118615e-10 1.7513827275457609e-9 1.652931613337806e-9 7.934712727134477e-10
          7.441532000568099e-10 1.3337292261485147e-9 5.941435665627903e-10 1.863096891317437e-9 1.7636359165564382e-9 7.955402418250365e-10
          1.4305535266134963e-9 8.672354845852036e-10 3.8516437840758407e-10 4.5126874648139675e-10 2.0205452416626417e-10 9.328931330971232e-10
          4.14242334075554e-10 4.85300081539108e-10 1.5567825265881504e-9 8.700979016604352e-10 5.970807636443289e-10 3.3334500574479086e-10
          2.2127459196344543e-9 1.238753886211934e-9 8.323706435475696e-10 4.619639572816651e-10 2.3339197580731764e-10 1.780447494143202e-10
          9.077879790241188e-11 6.571349730407971e-10 3.3116945117029057e-10 2.4765242909355893e-10 1.189479925254458e-10 6.074465196661018e-11
          1.615830241377856e-10 6.386090802885959e-11 3.3038589827858096e-11 3.297975018581628e-11 1.8012028475629494e-11 8.645540515921267e-11
          4.4660554349381207e-11 4.308846866507606e-11 2.7314949107702145e-9 1.5316764641020842e-9 1.0168818340410052e-9 5.674266179648164e-10
          2.9297723694612435e-9 1.6439794922684094e-9 1.0872178818799247e-9 8.125922351610848e-10 4.0910690792342437e-10 3.0227701430033507e-10
          1.5386009213907974e-10 8.722152379177457e-10 4.389737779541769e-10 3.2307212507596843e-10 1.9442305979124127e-10 9.62209935503144e-11
          2.0675435505522911e-10 1.0385677495336885e-10 5.3495227985360016e-11 5.116186260181183e-11 2.69444136047861e-11 1.1044595293807084e-10
          5.69031037036627e-11 5.422543266627941e-11 1.124395938747464e-10 5.1624022226009305e-11 4.4158563079831676e-11 2.5156282226388732e-11
          1.5917964490062847e-10 7.286446993446047e-11 6.154415024876527e-11 1.3280817623506077e-11 1.8329966653669698e-11 1.333930086475426e-11
          1.6355195060146203e-11 8.934237646762913e-12 1.0666847201194019e-11 8.814920010781181e-12 9.793749732286897e-12 6.9249808526106215e-12
          2.2015704389995296e-11 1.4147057570982336e-11 1.2159616064144969e-11 1.962593002039835e-10 8.962314053181425e-11 7.483175549118579e-11
          4.24885131931774e-11 2.1043720686052005e-10 9.599805894631383e-11 7.986659704952359e-11 2.2314452733784043e-11 2.3791135781812627e-11
          2.632247927578964e-11 1.6937393759500138e-11 1.4455571017610692e-11 1.0437215581187515e-11 2.798463902712684e-11 1.7980129132660725e-11
          1.5364489360724052e-11 2.889682151029119e-11 1.5580670987476762e-11 2.2532569482570696e-11 2.981847972926213e-11 3.351131659048525e-11
          7.080801783836065e-12 5.92894295125648e-12 1.0337700718577324e-11 1.4056008644647123e-11 1.6592644453414997e-11 1.887468873916792e-11
          2.045462416458468e-11 2.0092203610588892e-11 7.52916978405442e-11 2.8060562429588893e-11 6.390724222622711e-11 1.3222012066749084e-10
          3.740996320625778e-11 1.0200599463861002e-10 1.6003977601576247e-10 4.409183988952362e-11 1.1979506398045937e-10 9.159706707718095e-12
          1.103397785104818e-11 4.404455654424297e-12 4.6895895982559715e-12 1.2908248994378262e-11 4.974723542087646e-12 1.0955182333606034e-8
          7.206352637809675e-9 6.717739628648712e-9 1.0275276563150669e-8 1.868207951933236e-8 1.7835424044624138e-8 5.3351235394343476e-9
          8.284565525763943e-9 1.4936833852392138e-8 3.49826607828876e-9 5.531756762008868e-9 1.0304007961349058e-8 1.8886277986958787e-9
          3.038688219480717e-9 5.720562326256832e-9 8.689578979498341e-10 1.418852281057927e-9 2.627699560410172e-9 3.597130240355243e-10
          5.945701984261681e-10 1.06240674745106e-9 1.3976721530191139e-10 2.3387520982010175e-10 2.4142673141043365e-10 4.0229586159856325e-10
          2.670017433082543e-8 2.604688983487847e-8 2.2743373247650517e-8 3.2253580977154285e-8 3.253315209512249e-8 2.998211413304382e-8
          1.627035017768944e-8 9.24173566111748e-9 2.2204442278606752e-8 1.2878066087773686e-8 3.382588782751976e-8 3.559600928251646e-8
          3.487139998278041e-8 3.3715510785262174e-8 3.6247336399395564e-8 3.65420226264035e-8 2.6616003380114974e-8 1.5631443707023247e-8
          2.82471202916856e-8 1.665854868554315e-8 4.241973124146825e-9 1.6768318490146855e-9 5.957487301361116e-9 2.3266871580848193e-9
          3.710593898261513e-10 6.163802951835667e-10 5.051210397116155e-10 8.372296941577949e-10 7.2898568596067095e-9 2.8326824469747086e-9
          7.793606615186939e-9 3.0247614344894866e-9 6.079939076597879e-10 1.0067521475054112e-9 6.465714034173221e-10 1.0704885589860613e-9
          4.412837165417499e-9 4.094688985338256e-9 2.522492354092965e-9 2.3322146847727162e-9 3.215870739296159e-9 1.8167513711159242e-9
          1.348758793197983e-9 1.2439390754336716e-9 6.770700396593279e-10 6.234990988884368e-10 9.641889161703323e-10 4.821723982408065e-10
          2.0819045734897976e-9 1.167013445647394e-9 1.1121041070811474e-9 6.208462577998942e-10 6.17475711272395e-10 3.0912402357429156e-10
          3.28968755017344e-10 1.6573946483199552e-10 3.201908858536131e-10 2.9466267291886954e-10 1.4317757577498703e-10 1.317763874679059e-10
          2.2789018795730978e-10 1.0213140514506586e-10 6.082523584191627e-11 5.602455924385611e-11 1.1720549650232578e-10 1.0810331769074535e-10
          4.3574941565561344e-11 8.408449732442987e-11 1.468339590290635e-10 6.634713608797075e-11 7.959204880651935e-11 3.6400623594455715e-11
          2.859117518125174e-11 5.466189533884387e-11 1.583042270811919e-11 2.981183427202979e-11 5.0842242973952e-10 2.840170694166779e-10
          2.0950294544187346e-10 1.17003510550019e-10 1.5154517872772957e-10 7.711596888465423e-11 6.238247497541695e-11 3.8544086900763734e-11
          8.094171364517205e-11 1.3960849329496353e-10 4.518645748422338e-11 4.4122655369631085e-11 7.618027823725823e-11 7.402516710357166e-11
          1.5159912112056388e-10 2.5168681617382933e-11 2.428395708741051e-11 1.676438015679589e-11 1.464875951824348e-11 1.106533339096705e-11
          3.643820042332856e-11 1.7734841922913413e-11 1.1167328554012008e-11 3.736487083297367e-11 9.915685842852498e-12 1.731249593227241e-11
          5.137280492832238e-12 7.631384610795841e-12 3.2436712172397214e-12 4.601474787328206e-12 1.3989772826887575e-11 6.906052761959294e-12
          1.937406568932161e-10 1.7931337738324457e-10 1.4016095897786346e-10 2.7442922562467746e-10 2.551946844327383e-10 2.0106279629024466e-10
          9.073894686310551e-11 4.8853264230623256e-11 1.3027872383559168e-10 6.955192016704943e-11 3.3599558322822995e-10 3.137649183278464e-10
          2.4902523611306916e-10 3.589373806648813e-10 3.35763663689683e-10 2.6728509707024404e-10 1.6181924787425551e-10 8.605911015873022e-11
          1.7391088094625054e-10 9.238499230345588e-11 2.1425673486714285e-10 1.1122279268548337e-10 2.9164908096059653e-10 1.491005057035603e-10
          3.511633783113019e-10 1.777737333079056e-10 3.7343549174700667e-10 1.8811434179999072e-10 2.247263622049773e-11 9.320242106245638e-12
          5.586724437841845e-12 3.1520904328137705e-11 1.3033528095135004e-11 3.865519805070451e-11 1.59078481425964e-11 9.145544386322743e-12
          4.1359802961113357e-11 1.700968434318347e-11
        </DataArray>
        <DataArray type="Float64" Name="gradient_matprop_error" format="ascii" RangeMin="0" RangeMax="0">
          0 0 0 0 0 0
          0 0 0 0 0 0
          0 0 0 0 0 0
          0 0 0 0 0 0
          0 0 0 0 0 0
          0 0 0 0 0 0
          0 0 0 0 0 0
          0 0 0 0 0 0
          0 0 0 0 0 0
          0 0 0 0 0 0
          0 0 0 0 0 0
          0 0 0 0 0 0
          0 0 0 0 0 0
          0 0 0 0 0 0
          0 0 0 0 0 0
          0 0 0 0 0 0
          0 0 0 0 0 0
          0 0 0 0 0 0
          0 0 0 0 0 0
          0 0 0 0 0 0
          0 0 0 0 0 0
          0 0 0 0 0 0
          0 0 0 0 0 0
          0 0 0 0 0 0
          0 0 0 0 0 0
          0 0 0 0 0 0
          0 0 0 0 0 0
          0 0 0 0 0 0
          0 0 0 0 0 0
          0 0 0 0 0 0
          0 0 0 0 0 0
          0 0 0 0 0 0
          0 0 0 0 0 0
          0 0 0 0 0 0
          0 0 0 0 0 0
          0 0 0 0 0 0
          0 0 0 0 0 0
          0 0 0 0 0 0
          0 0 0 0 0 0
          0 0 0 0 0 0
          0 0 0 0 0 0
          0 0 0 0 0 0
          0 0 0 0 0 0
          0 0 0 0 0 0
          0 0 0 0 0 0
          0 0 0 0 0 0
          0 0 0 0 0 0
          0 0 0 0 0 0
          0 0 0 0 0 0
          0 0 0 0 0 0
          0 0 0 0 0 0
          0 0 0 0 0 0
          0 0 0 0 0 0
          0 0 0 0 0 0
          0 0 0 0 0 0
          0 0 0 0 0 0
          0 0 0 0 0 0
          0 0 0 0 0 0
          0 0 0 0 0 0
          0 0 0 0 0 0
          0 0 0 0 0 0
          0 0 0 0 0 0
          0 0 0 0 0 0
          0 0 0 0 0 0
          0 0 0 0 0 0
          0 0 0 0 0 0
          0 0 0 0 0 0
          0 0 0 0 0 0
          0 0 0 0 0 0
          0 0 0 0 0 0
          0 0 0 0 0 0
          0 0 0 0 0 0
          0 0 0 0 0 0
          0 0 0 0 0 0
          0 0 0 0 0 0
          0 0 0 0 0 0
          0 0 0 0 0 0
          0 0 0 0 0 0
          0 0 0 0 0 0
          0 0 0 0 0 0
          0 0 0 0 0 0
          0 0 0 0 0 0
          0 0 0 0 0 0
          0 0
        </DataArray>
        <DataArray type="Float64" Name="initial_marker" format="ascii" RangeMin="0" RangeMax="2">
          2 2 2 2 2 2
          2 2 0.5 2 2 2
          2 2 2 2 2 2
          2 2 2 2 2 2
          2 1.75 0.75 0 2 2
          2 2 2 2 2 2
          2 2 2 2 2 2
          2 2 2 2 0.25 2
          2 1.5 0 1.5 0 2
          2 2 2 2 2 2
          2 2 2 2 2 2
          2 2 2 2 2 2
          2 2 2 2 2 2
          2 2 2 2 2 2
          2 2 2 2 2 2
          2 2 2 2 2 2
          2 2 2 2 2 2
          2 1.25 1 1 0 1.5
          0.5 2 1.75 1.6666666666666667 0 0
          0 0.5 2 2 2 2
          2 2 2 2 2 2
          2 2 2 2 2 2
          2 2 2 2 2 2
          2 2 2 2 2 2
          2 2 2 2 2 2
          2 2 2 2 2 2
          2 2 2 2 2 2
          2 2 2 2 2 2
          2 2 2 2 2 2
          2 2 2 2 2 2
          2 2 2 2 2 2
          2 2 2 2 2 2
          2 2 2 2 2 2
          2 2 2 2 2 2
          2 2 2 2 2 2
          2 2 2 2 2 2
          2 2 2 2 2 2
          2 2 2 2 2 2
          2 2 2 2 1.75 1.5
          2 1.25 1 0.5 0 1.75
          1.25 1.5 2 2 2 2
          2 2 2 2 2 2
          2 2 2 2 2 2
          2 2 1.5 2 1 2
          1.5 2 2 2 1.75 1.6666666666666667
          2 2 2 1 1.5 0.5
          0.75 0 0.5 0 0 0
          1 1 0 2 2 2
          2 2 2 2 2 2
          1 1 0 0 1 1
          0 0.75 0 0 0 0
          0 0 0 0 0.25 0
          0.5 0 0.25 0 0 1
          0 0 1 0 0 0
          0 0 0 0 0 2
          2 2 2 2 2 2
          2 2 2 2 2 2
          2 2 2 2 2 2
          2 2 1.5 1.75 2 2
          2 2 2 2 2 2
          2 2 2 2 2 2
          2 2 2 2 2 2
          2 2 2 2 2 2
          2 2 2 2 2 2
          2 2 2 2 2 2
          2 2 2 2 2 2
          2 2 2 2 2 2
          2 2 2 2 2 2
          2 2 2 2 2 2
          2 2 2 2 2 2
          2 2 2 2 2 2
          2 2 1.75 2 2 2
          2 2 2 2 1.75 1.6666666666666667
          1.25 1.75 1 0.5 1 1.5
          1 0 0.75 0.5 0 0
          1.75 1 0.5 1.75 0.6666666666666666 1.25
          0.5 0.75 0 0.5 1.25 0.6666666666666666
          2 2 2 2 2 2
          2 2 2 2 2 2
          2 2 2 2 2 2
          2 2 2 2 2 2
          2 2 2 2 1.5 0.75
          0 1.75 1.25 2 1.5 1
          2 1.5
        </DataArray>
        <DataArray type="Float64" Name="markers_norefine" format="ascii" RangeMin="0" RangeMax="0">
          0 0 0 0 0 0
          0 0 0 0 0 0
          0 0 0 0 0 0
          0 0 0 0 0 0
          0 0 0 0 0 0
          0 0 0 0 0 0
          0 0 0 0 0 0
          0 0 0 0 0 0
          0 0 0 0 0 0
          0 0 0 0 0 0
          0 0 0 0 0 0
          0 0 0 0 0 0
          0 0 0 0 0 0
          0 0 0 0 0 0
          0 0 0 0 0 0
          0 0 0 0 0 0
          0 0 0 0 0 0
          0 0 0 0 0 0
          0 0 0 0 0 0
          0 0 0 0 0 0
          0 0 0 0 0 0
          0 0 0 0 0 0
          0 0 0 0 0 0
          0 0 0 0 0 0
          0 0 0 0 0 0
          0 0 0 0 0 0
          0 0 0 0 0 0
          0 0 0 0 0 0
          0 0 0 0 0 0
          0 0 0 0 0 0
          0 0 0 0 0 0
          0 0 0 0 0 0
          0 0 0 0 0 0
          0 0 0 0 0 0
          0 0 0 0 0 0
          0 0 0 0 0 0
          0 0 0 0 0 0
          0 0 0 0 0 0
          0 0 0 0 0 0
          0 0 0 0 0 0
          0 0 0 0 0 0
          0 0 0 0 0 0
          0 0 0 0 0 0
          0 0 0 0 0 0
          0 0 0 0 0 0
          0 0 0 0 0 0
          0 0 0 0 0 0
          0 0 0 0 0 0
          0 0 0 0 0 0
          0 0 0 0 0 0
          0 0 0 0 0 0
          0 0 0 0 0 0
          0 0 0 0 0 0
          0 0 0 0 0 0
          0 0 0 0 0 0
          0 0 0 0 0 0
          0 0 0 0 0 0
          0 0 0 0 0 0
          0 0 0 0 0 0
          0 0 0 0 0 0
          0 0 0 0 0 0
          0 0 0 0 0 0
          0 0 0 0 0 0
          0 0 0 0 0 0
          0 0 0 0 0 0
          0 0 0 0 0 0
          0 0 0 0 0 0
          0 0 0 0 0 0
          0 0 0 0 0 0
          0 0 0 0 0 0
          0 0 0 0 0 0
          0 0 0 0 0 0
          0 0 0 0 0 0
          0 0 0 0 0 0
          0 0 0 0 0 0
          0 0 0 0 0 0
          0 0 0 0 0 0
          0 0 0 0 0 0
          0 0 0 0 0 0
          0 0 0 0 0 0
          0 0 0 0 0 0
          0 0 0 0 0 0
          0 0 0 0 0 0
          0 0
        </DataArray>
        <DataArray type="Float64" Name="markers_mustrefine" format="ascii" RangeMin="0" RangeMax="2">
          2 2 2 2 2 2
          2 2 0.5 2 2 2
          2 2 2 2 2 2
          2 2 2 2 2 2
          2 1.75 0.75 0 2 2
          2 2 2 2 2 2
          2 2 2 2 2 2
          2 2 2 2 0.25 2
          2 1.5 0 1.5 0 2
          2 2 2 2 2 2
          2 2 2 2 2 2
          2 2 2 2 2 2
          2 2 2 2 2 2
          2 2 2 2 2 2
          2 2 2 2 2 2
          2 2 2 2 2 2
          2 2 2 2 2 2
          2 1.25 1 1 0 1.5
          0.5 2 1.75 1.6666666666666667 0 0
          0 0.5 2 2 2 2
          2 2 2 2 2 2
          2 2 2 2 2 2
          2 2 2 2 2 2
          2 2 2 2 2 2
          2 2 2 2 2 2
          2 2 2 2 2 2
          2 2 2 2 2 2
          2 2 2 2 2 2
          2 2 2 2 2 2
          2 2 2 2 2 2
          2 2 2 2 2 2
          2 2 2 2 2 2
          2 2 2 2 2 2
          2 2 2 2 2 2
          2 2 2 2 2 2
          2 2 2 2 2 2
          2 2 2 2 2 2
          2 2 2 2 2 2
          2 2 2 2 1.75 1.5
          2 1.25 1 0.5 0 1.75
          1.25 1.5 2 2 2 2
          2 2 2 2 2 2
          2 2 2 2 2 2
          2 2 1.5 2 1 2
          1.5 2 2 2 1.75 1.6666666666666667
          2 2 2 1 1.5 0.5
          0.75 0 0.5 0 0 0
          1 1 0 2 2 2
          2 2 2 2 2 2
          1 1 0 0 1 1
          0 0.75 0 0 0 0
          0 0 0 0 0.25 0
          0.5 0 0.25 0 0 1
          0 0 1 0 0 0
          0 0 0 0 0 2
          2 2 2 2 2 2
          2 2 2 2 2 2
          2 2 2 2 2 2
          2 2 1.5 1.75 2 2
          2 2 2 2 2 2
          2 2 2 2 2 2
          2 2 2 2 2 2
          2 2 2 2 2 2
          2 2 2 2 2 2
          2 2 2 2 2 2
          2 2 2 2 2 2
          2 2 2 2 2 2
          2 2 2 2 2 2
          2 2 2 2 2 2
          2 2 2 2 2 2
          2 2 2 2 2 2
          2 2 1.75 2 2 2
          2 2 2 2 1.75 1.6666666666666667
          1.25 1.75 1 0.5 1 1.5
          1 0 0.75 0.5 0 0
          1.75 1 0.5 1.75 0.6666666666666666 1.25
          0.5 0.75 0 0.5 1.25 0.6666666666666666
          2 2 2 2 2 2
          2 2 2 2 2 2
          2 2 2 2 2 2
          2 2 2 2 2 2
          2 2 2 2 1.5 0.75
          0 1.75 1.25 2 1.5 1
          2 1.5
        </DataArray>
        <DataArray type="Float64" Name="gradient_marker" format="ascii" RangeMin="1" RangeMax="1">
          1 1 1 1 1 1
          1 1 1 1 1 1
          1 1 1 1 1 1
          1 1 1 1 1 1
          1 1 1 1 1 1
          1 1 1 1 1 1
          1 1 1 1 1 1
          1 1 1 1 1 1
          1 1 1 1 1 1
          1 1 1 1 1 1
          1 1 1 1 1 1
          1 1 1 1 1 1
          1 1 1 1 1 1
          1 1 1 1 1 1
          1 1 1 1 1 1
          1 1 1 1 1 1
          1 1 1 1 1 1
          1 1 1 1 1 1
          1 1 1 1 1 1
          1 1 1 1 1 1
          1 1 1 1 1 1
          1 1 1 1 1 1
          1 1 1 1 1 1
          1 1 1 1 1 1
          1 1 1 1 1 1
          1 1 1 1 1 1
          1 1 1 1 1 1
          1 1 1 1 1 1
          1 1 1 1 1 1
          1 1 1 1 1 1
          1 1 1 1 1 1
          1 1 1 1 1 1
          1 1 1 1 1 1
          1 1 1 1 1 1
          1 1 1 1 1 1
          1 1 1 1 1 1
          1 1 1 1 1 1
          1 1 1 1 1 1
          1 1 1 1 1 1
          1 1 1 1 1 1
          1 1 1 1 1 1
          1 1 1 1 1 1
          1 1 1 1 1 1
          1 1 1 1 1 1
          1 1 1 1 1 1
          1 1 1 1 1 1
          1 1 1 1 1 1
          1 1 1 1 1 1
          1 1 1 1 1 1
          1 1 1 1 1 1
          1 1 1 1 1 1
          1 1 1 1 1 1
          1 1 1 1 1 1
          1 1 1 1 1 1
          1 1 1 1 1 1
          1 1 1 1 1 1
          1 1 1 1 1 1
          1 1 1 1 1 1
          1 1 1 1 1 1
          1 1 1 1 1 1
          1 1 1 1 1 1
          1 1 1 1 1 1
          1 1 1 1 1 1
          1 1 1 1 1 1
          1 1 1 1 1 1
          1 1 1 1 1 1
          1 1 1 1 1 1
          1 1 1 1 1 1
          1 1 1 1 1 1
          1 1 1 1 1 1
          1 1 1 1 1 1
          1 1 1 1 1 1
          1 1 1 1 1 1
          1 1 1 1 1 1
          1 1 1 1 1 1
          1 1 1 1 1 1
          1 1 1 1 1 1
          1 1 1 1 1 1
          1 1 1 1 1 1
          1 1 1 1 1 1
          1 1 1 1 1 1
          1 1 1 1 1 1
          1 1 1 1 1 1
          1 1
        </DataArray>
        <DataArray type="Float64" Name="gradient_matprop_marker" format="ascii" RangeMin="0" RangeMax="0">
          0 0 0 0 0 0
          0 0 0 0 0 0
          0 0 0 0 0 0
          0 0 0 0 0 0
          0 0 0 0 0 0
          0 0 0 0 0 0
          0 0 0 0 0 0
          0 0 0 0 0 0
          0 0 0 0 0 0
          0 0 0 0 0 0
          0 0 0 0 0 0
          0 0 0 0 0 0
          0 0 0 0 0 0
          0 0 0 0 0 0
          0 0 0 0 0 0
          0 0 0 0 0 0
          0 0 0 0 0 0
          0 0 0 0 0 0
          0 0 0 0 0 0
          0 0 0 0 0 0
          0 0 0 0 0 0
          0 0 0 0 0 0
          0 0 0 0 0 0
          0 0 0 0 0 0
          0 0 0 0 0 0
          0 0 0 0 0 0
          0 0 0 0 0 0
          0 0 0 0 0 0
          0 0 0 0 0 0
          0 0 0 0 0 0
          0 0 0 0 0 0
          0 0 0 0 0 0
          0 0 0 0 0 0
          0 0 0 0 0 0
          0 0 0 0 0 0
          0 0 0 0 0 0
          0 0 0 0 0 0
          0 0 0 0 0 0
          0 0 0 0 0 0
          0 0 0 0 0 0
          0 0 0 0 0 0
          0 0 0 0 0 0
          0 0 0 0 0 0
          0 0 0 0 0 0
          0 0 0 0 0 0
          0 0 0 0 0 0
          0 0 0 0 0 0
          0 0 0 0 0 0
          0 0 0 0 0 0
          0 0 0 0 0 0
          0 0 0 0 0 0
          0 0 0 0 0 0
          0 0 0 0 0 0
          0 0 0 0 0 0
          0 0 0 0 0 0
          0 0 0 0 0 0
          0 0 0 0 0 0
          0 0 0 0 0 0
          0 0 0 0 0 0
          0 0 0 0 0 0
          0 0 0 0 0 0
          0 0 0 0 0 0
          0 0 0 0 0 0
          0 0 0 0 0 0
          0 0 0 0 0 0
          0 0 0 0 0 0
          0 0 0 0 0 0
          0 0 0 0 0 0
          0 0 0 0 0 0
          0 0 0 0 0 0
          0 0 0 0 0 0
          0 0 0 0 0 0
          0 0 0 0 0 0
          0 0 0 0 0 0
          0 0 0 0 0 0
          0 0 0 0 0 0
          0 0 0 0 0 0
          0 0 0 0 0 0
          0 0 0 0 0 0
          0 0 0 0 0 0
          0 0 0 0 0 0
          0 0 0 0 0 0
          0 0 0 0 0 0
          0 0
        </DataArray>
        <DataArray type="Float64" Name="combo" format="ascii" RangeMin="1" RangeMax="1">
          1 1 1 1 1 1
          1 1 1 1 1 1