<?xml version="1.0"?>
<VTKFile type="UnstructuredGrid" version="0.1" byte_order="LittleEndian" header_type="UInt32" compressor="vtkZLibDataCompressor">
  <UnstructuredGrid>
    <Piece NumberOfPoints="650" NumberOfCells="358">
      <PointData>
        <DataArray type="Int32" Name="libmesh_node_id" format="ascii" RangeMin="422" RangeMax="3253">
          422 511 512 519 520 617
          618 624 626 627 628 629
          630 631 632 633 634 635
          636 637 638 639 848 849
          851 852 854 855 866 868
          870 871 876 878 1137 1151
          1152 1154 1157 1161 1162 1163
          1164 1165 1167 1168 1169 1170
          1171 1172 1173 1174 1175 1176
          1177 1178 1179 1180 1181 1182
          1183 1184 1185 1186 1187 1188
          1189 1190 1191 1192 1193 1194
          1195 1196 1197 1198 1199 1200
          1201 1202 1203 1204 1205 1206
          1207 1208 1209 1210 1211 1212
          1213 1214 1215 1216 1217 1218
          1219 1220 1223 1224 1229 1231
          1232 1234 1249 1250 1253 1255
          1256 1258 1269 1270 1276 1714
          1715 1718 1721 1722 1723 1724
          1725 1726 1727 1826 1827 1828
          1829 1834 1835 1836 1837 1838
          1839 1840 1841 1842 1843 1844
          1845 1846 1847 1848 1849 1850
          1851 1852 1853 1854 1855 1856
          1857 1858 1859 1860 1861 1862
          1863 1864 1865 1866 1867 1868
          1869 1870 1871 1872 1873 1874
          1875 1876 1877 1878 1879 1880
          1881 1882 1883 1884 1885 1886
          1887 1888 1889 1890 1891 1892
          1893 1894 1895 1896 1897 1898
          1899 1900 1901 1902 1903 1904
          1905 1906 1907 1908 1909 1910
          1911 1912 1913 1914 1915 1916
          1917 1918 1919 1920 1921 1922
          1923 1924 1925 1926 1927 1928
          1929 1930 1931 1932 1933 1934
          1935 1936 1937 1938 1939 1940
          1941 1942 1943 1944 1945 1946
          1947 1948 1949 1950 1951 1952
          1953 1954 1955 1956 1958 1959
          1960 1961 1962 1964 1979 1980
          1981 1982 1983 1984 1985 1986
          1987 1988 1989 1990 1993 1995
          1996 1998 1999 2000 2001 2002
          2003 2004 2005 2006 2008 2010
          2012 2013 2014 2015 2016 2017
          2018 2019 2020 2021 2022 2023
          2024 2027 2029 2030 2032 2033
          2034 2035 2036 2037 2038 2039
          2040 2042 2044 2046 2885 2886
          2887 2888 2889 2890 2891 2892
          2893 2894 2895 2896 2897 2898
          2899 2900 2901 2902 2903 2904
          2905 2906 2907 2908 2909 2910
          2911 2912 2913 2914 2915 2916
          2917 2918 2919 2920 2921 2922
          2923 2924 2925 2926 2927 2928
          2929 2930 2931 2932 2933 2934
          2935 2936 2937 2938 2939 2940
          2941 2942 2943 2944 2945 2946
          2947 2948 2949 2950 2951 2952
          2953 2954 2955 2956 2957 2958
          2959 2960 2961 2962 2963 2964
          2965 2966 2967 2968 2969 2970
          2971 2972 2973 2974 2975 2976
          2977 2978 2979 2980 2981 2982
          2983 2984 2985 2986 2987 2988
          2989 2990 2991 2992 2993 2994
          2995 2996 2997 2998 2999 3000
          3001 3002 3003 3004 3005 3006
          3007 3008 3009 3010 3011 3012
          3013 3014 3015 3016 3017 3018
          3019 3020 3021 3022 3023 3024
          3025 3026 3027 3028 3029 3030
          3031 3032 3033 3034 3035 3036
          3037 3038 3039 3040 3041 3042
          3043 3044 3045 3046 3047 3048
          3049 3050 3051 3052 3053 3054
          3055 3056 3057 3058 3059 3060
          3061 3062 3063 3064 3065 3066
          3067 3068 3069 3070 3071 3072
          3073 3074 3075 3076 3077 3078
          3079 3080 3081 3082 3083 3084
          3085 3086 3087 3088 3089 3090
          3091 3092 3093 3094 3095 3096
          3097 3098 3099 3100 3101 3102
          3103 3104 3105 3106 3108 3109
          3110 3111 3119 3120 3121 3125
          3126 3127 3128 3129 3130 3131
          3132 3133 3134 3135 3136 3137
          3138 3139 3140 3141 3142 3143
          3144 3145 3146 3147 3148 3149
          3150 3151 3152 3153 3154 3155
          3156 3157 3158 3159 3160 3161
          3162 3163 3164 3165 3166 3167
          3168 3169 3170 3171 3172 3173
          3174 3175 3176 3177 3178 3179
          3180 3181 3182 3183 3184 3185
          3186 3187 3188 3189 3190 3191
          3192 3193 3194 3195 3196 3197
          3198 3199 3200 3201 3202 3209
          3210 3212 3213 3214 3215 3216
          3217 3218 3219 3227 3228 3229
          3230 3231 3232 3233 3234 3235
          3236 3237 3238 3241 3243 3244
          3246 3247 3248 3249 3250 3251
          3252 3253
        </DataArray>
        <DataArray type="Float64" Name="bounds" format="ascii" RangeMin="0" RangeMax="0">
          0 0 0 0 0 0
          0 0 0 0 0 0
          0 0 0 0 0 0
          0 0 0 0 0 0
          0 0 0 0 0 0
          0 0 0 0 0 0
          0 0 0 0 0 0
          0 0 0 0 0 0
          0 0 0 0 0 0
          0 0 0 0 0 0
          0 0 0 0 0 0
          0 0 0 0 0 0
          0 0 0 0 0 0
          0 0 0 0 0 0
          0 0 0 0 0 0
          0 0 0 0 0 0
          0 0 0 0 0 0
          0 0 0 0 0 0
          0 0 0 0 0 0
          0 0 0 0 0 0
          0 0 0 0 0 0
          0 0 0 0 0 0
          0 0 0 0 0 0
          0 0 0 0 0 0
          0 0 0 0 0 0
          0 0 0 0 0 0
          0 0 0 0 0 0
          0 0 0 0 0 0
          0 0 0 0 0 0
          0 0 0 0 0 0
          0 0 0 0 0 0
          0 0 0 0 0 0
          0 0 0 0 0 0
          0 0 0 0 0 0
          0 0 0 0 0 0
          0 0 0 0 0 0
          0 0 0 0 0 0
          0 0 0 0 0 0
          0 0 0 0 0 0
          0 0 0 0 0 0
          0 0 0 0 0 0
          0 0 0 0 0 0
          0 0 0 0 0 0
          0 0 0 0 0 0
          0 0 0 0 0 0
          0 0 0 0 0 0
          0 0 0 0 0 0
          0 0 0 0 0 0
          0 0 0 0 0 0
          0 0 0 0 0 0
          0 0 0 0 0 0
          0 0 0 0 0 0
          0 0 0 0 0 0
          0 0 0 0 0 0
          0 0 0 0 0 0
          0 0 0 0 0 0
          0 0 0 0 0 0
          0 0 0 0 0 0
          0 0 0 0 0 0
          0 0 0 0 0 0
          0 0 0 0 0 0
          0 0 0 0 0 0
          0 0 0 0 0 0
          0 0 0 0 0 0
          0 0 0 0 0 0
          0 0 0 0 0 0
          0 0 0 0 0 0
          0 0 0 0 0 0
          0 0 0 0 0 0
          0 0 0 0 0 0
          0 0 0 0 0 0
          0 0 0 0 0 0
          0 0 0 0 0 0
          0 0 0 0 0 0
          0 0 0 0 0 0
          0 0 0 0 0 0
          0 0 0 0 0 0
          0 0 0 0 0 0
          0 0 0 0 0 0
          0 0 0 0 0 0
          0 0 0 0 0 0
          0 0 0 0 0 0
          0 0 0 0 0 0
          0 0 0 0 0 0
          0 0 0 0 0 0
          0 0 0 0 0 0
          0 0 0 0 0 0
          0 0 0 0 0 0
          0 0 0 0 0 0
          0 0 0 0 0 0
          0 0 0 0 0 0
          0 0 0 0 0 0
          0 0 0 0 0 0
          0 0 0 0 0 0
          0 0 0 0 0 0
          0 0 0 0 0 0
          0 0 0 0 0 0
          0 0 0 0 0 0
          0 0 0 0 0 0
          0 0 0 0 0 0
          0 0 0 0 0 0
          0 0 0 0 0 0
          0 0 0 0 0 0
          0 0 0 0 0 0
          0 0 0 0 0 0
          0 0 0 0 0 0
          0 0 0 0 0 0
          0 0 0 0 0 0
          0 0
        </DataArray>
        <DataArray type="Float64" Name="gradient_error" format="ascii" RangeMin="1.106304017001127e-9" RangeMax="7.693898976712852e-7">
          2.8271783141652755e-8 1.1809177011057624e-7 2.0331107050536258e-8 1.106304017001127e-9 1.1678967089908127e-7 6.793415135818046e-7
          4.943797267303108e-7 7.29749174270776e-7 1.5913443926162495e-7 9.391220849668626e-8 5.589569704832707e-7 5.127375500152676e-7
          6.925768794460663e-8 4.0666273159651207e-7 4.103566227707697e-7 3.396471921308966e-8 9.96315757653647e-8 7.105163973761844e-8
          1.6445485044819353e-9 5.939083680821006e-7 4.159477014214503e-7 1.6904588497713355e-7 5.649880584492353e-8 3.7935306925788244e-8
          3.186504452739976e-8 2.1872319051675966e-8 1.9371808006652975e-8 1.1879593575952178e-8 2.155663113628117e-8 4.3207564823208874e-8
          1.3409291398294901e-8 2.4743575667947087e-8 6.485849851013657e-8 3.607785993759927e-8 6.460243689762276e-7 4.269710613211454e-7
          6.126043099687563e-7 6.745035849131071e-7 4.6134439873605564e-7 4.2159154963952783e-7 3.741317154436071e-7 1.9129536855660452e-7
          4.262441153824748e-7 3.7448825204386866e-7 2.4960124615475777e-7 2.415357386025058e-7 7.180261388771525e-7 6.784921958382112e-7
          6.100780716516972e-7 5.050732211340925e-7 2.0276278817899786e-7 1.7536260313844716e-7 4.2916189853364157e-7 3.7290834891677395e-7
          1.5714667498161246e-7 4.297517591056215e-7 3.6875556503412127e-7 1.1167875602532405e-7 2.3137264575221327e-7 2.1841678515532266e-7
          3.8999228817062055e-7 5.360591653476529e-7 4.5055192221968134e-7 5.167860372425551e-7 4.5924598149137283e-7 6.553257442693325e-7
          2.7001582405278076e-7 4.896968944545248e-7 7.065087227941678e-7 6.283928795584102e-7 3.0175217231817167e-9 4.966603690181411e-7
          2.9241746442076217e-7 7.693898976712852e-7 6.699606335435188e-8 3.152320889672317e-7 7.211765877714763e-8 2.1969598352125267e-7
          5.423747099578983e-7 4.5155962628821156e-7 1.236514178960776e-9 7.417218523071517e-8 8.09277590294205e-8 4.0554763582294807e-7
          2.300372706332047e-7 2.4300171012998356e-7 3.754614940878529e-7 3.8379607648762394e-7 2.1397627423899363e-7 3.6293782360174955e-7
          1.1078323403974024e-7 1.720069988447395e-7 1.9322665327477301e-7 1.4855231515068268e-7 4.3741144035168536e-7 4.4245517187796067e-7
          4.277802746589413e-7 1.987876260384879e-7 4.2738576589461074e-7 3.6173014383695785e-7 2.023460784428805e-7 4.228927132842553e-7
          3.594854809063951e-7 2.930622507294683e-7 7.737054452826554e-8 1.217349999518147e-7 3.5223424863188655e-7 1.845451244860673e-9
          8.842617578749524e-8 4.232153757161772e-7 1.9452119845647453e-7 3.456630777449272e-7 4.125297204862175e-7 5.736937669149206e-8
          1.0911790792708604e-7 5.7896727354423e-8 5.281279612065303e-8 9.968789478152104e-8 4.9809952336996616e-8 8.983356413521305e-8
          3.0230498288554426e-8 5.32852973585219e-8 5.0592928922401726e-8 7.31560981877096e-8 7.55933189521947e-8 8.468360275082923e-8
          7.80305397166798e-8 6.440400544973122e-8 7.114537909635629e-8 5.483295409997373e-8 7.133655673306206e-8 7.788675274298137e-8
          8.787428269269354e-8 5.5651912711752825e-8 6.669743924051787e-8 5.80872968913875e-8 7.774296576928291e-8 1.1266526896822412e-7
          1.1882617653635584e-7 1.161340897574363e-7 1.2226884271920006e-7 1.1344200297851673e-7 1.2994496984230506e-7 1.2757323097578798e-7
          1.329835076310606e-7 1.252014921092709e-7 1.073223135339358e-7 8.687363949999918e-8 9.066310595452828e-8 9.509356902843663e-8
          9.445257240905737e-8 1.1624711537379518e-7 1.14031420750595e-7 1.118157261273948e-7 9.438344824405191e-8 9.892731191099704e-8
          9.258737089387916e-8 1.0347117557794216e-7 1.199257699548908e-7 4.7325678557243666e-8 7.085955384685762e-8 4.9227077170617446e-8
          7.420467074650844e-8 9.409980648249809e-8 9.87098523097542e-8 4.001232274324336e-9 5.106293625894503e-8 5.3209433093572775e-8
          9.374704055593881e-8 5.055047285558838e-8 7.700285169360268e-8 2.9477769476318493e-8 5.704253248657024e-8 1.0273927504382293e-7
          9.692398045475117e-8 2.272408553409626e-9 5.479228037773273e-8 3.226356708361009e-8 1.020073745097037e-7 1.232053737404579e-7
          1.2240133002862605e-7 1.26484977526025e-7 1.1810540017195333e-7 1.1723610659075601e-7 1.2265954346363166e-7 1.2329347957832393e-7
          1.1636681300955867e-7 1.239274156930162e-7 6.508986842128573e-8 9.048106122074737e-8 9.477090283552832e-8 1.1891644419799476e-7
          1.2800372791507558e-7 1.2886497088618983e-7 1.3344565556883518e-7 1.3439818529625233e-7 1.297262138573041e-7 1.3319945436847946e-7
          6.958472917557265e-8 9.89075335082736e-8 8.879475478499986e-8 1.3174205870892043e-7 1.2383081917812163e-7 1.3060762769599466e-7
          1.222097613930125e-7 1.190532577584929e-7 1.0920958245888643e-7 1.363057566879386e-7 1.3840063515877825e-7 1.3356706472544204e-7
          6.671026927419223e-9 3.602644822562696e-8 5.605509553308232e-9 3.684834531057806e-8 9.509503740494982e-8 9.953935716390972e-8
          1.4080294473572464e-9 8.150099785303842e-9 7.24583867362181e-9 7.134047016468282e-8 4.764408542319992e-9 3.753642874578107e-8
          4.078070018129279e-9 2.3793802966150937e-8 1.0396697007726925e-7 9.443953189487941e-8 1.140625217026977e-9 6.436755330114544e-9
          5.744736306886768e-9 7.75326802203576e-8 1.2638970742260774e-7 1.325280413480421e-7 1.2572079531306945e-7 1.3175626206785428e-7
          1.2894859566709389e-7 1.344484550000896e-7 1.292318292331264e-7 1.3840544683939208e-7 1.444566577660561e-7 1.371915757649192e-7
          1.4269161393120848e-7 1.4050513699084555e-7 1.4670446378546985e-7 1.4081608680439638e-7 1.4149278704658997e-7 1.3867790465659595e-7
          1.447566549542096e-7 1.2762130680341147e-7 1.5530574910805328e-7 1.5132203348550967e-7 1.3756203452028773e-7 1.0873898524494523e-7
          1.1193399587772242e-7 9.809837914966943e-8 1.1561948425998028e-7 1.0345321734235117e-7 1.392543457149656e-7 1.402339909748943e-7
          1.4557871819041967e-7 1.465817443866787e-7 1.366532167959039e-7 1.4285411408158386e-7 7.469826927724093e-8 7.853036116343175e-8
          8.193166718341144e-8 1.1563386008745505e-7 1.5249324175929628e-7 1.5351050567782836e-7 1.4918399078809786e-7 8.019615722045646e-8
          8.560315774741408e-8 1.2801780114592117e-7 1.21162681263311e-7 1.2551655509806378e-7 1.102325651696371e-7 1.1290965261589759e-7
          1.410862166381906e-7 1.4721606954967404e-7 1.3297629898792836e-7 1.3010638993538023e-7 1.1637256789092519e-7 1.5353595807947897e-7
          1.4166646750435179e-7 3.6094743273972766e-9 9.04652321354334e-9 3.5832767374618703e-9 8.427090119287414e-9 8.51476898511264e-8
          8.949062872521774e-8 1.2850318539726662e-9 5.205369584606538e-9 5.029319271617117e-9 8.45009346156647e-8 4.0854605586958125e-9
          8.156045538996032e-9 9.41942930336769e-8 2.372148609540985e-9 5.416752541549262e-9 9.276392601502298e-8 1.5096336554761329e-7
          1.5798366425763345e-7 1.483089453928257e-7 1.542391839217449e-7 1.5334067510052212e-7 1.6063430373432404e-7 1.530320439993995e-7
          1.6560026761434576e-7 1.6057671462920298e-7 1.6872191468051373e-7 1.671124126892016e-7 7.1981328623729175e-9 6.7914500658622964e-9
          7.058454313667064e-9 7.3254585614718304e-9 6.918775764961209e-9 1.277599787550857e-8 7.523021874747605e-9 7.61301335467814e-9
          8.071340268461636e-9 7.703004834608672e-9 7.692541461609485e-9 8.07414347729132e-9 7.933250694867552e-9 8.455745492973158e-9
          6.4259388044701745e-9 7.120545767920455e-9 5.88947494440624e-9 7.130686193299714e-9 7.815152731370735e-9 8.37189744219319e-9
          5.328855734192743e-9 6.62807818116277e-9 6.190032118137793e-9 7.927300628132798e-9 5.5633724076426545e-9 6.988080743953109e-9
          5.239180202702036e-9 6.769251769603669e-9 8.412789080263564e-9 8.299323336505301e-9 3.434203353675824e-9 5.9020180106148966e-9
          5.605252844339785e-9 8.369832667553969e-9 7.128393755852426e-9 7.714222051315185e-9 7.433452954918904e-9 8.300050346777946e-9
          1.1465631757278494e-8 1.2203367325100384e-8 1.2941102892922272e-8 6.225076671814848e-9 7.064602100354293e-9 8.27216689617178e-9
          7.904127528893737e-9 1.3920394344766694e-8 4.884923267288177e-9 6.496746275071317e-9 4.494953010267245e-9 6.179125177252296e-9
          8.108569282854457e-9 7.863297344237347e-9 2.6414527787239293e-9 5.279270498827448e-9 4.924797399585688e-9 7.917088218930967e-9
          4.071591997455934e-9 5.804587440209333e-9 3.5905110883812865e-9 5.3555104145935434e-9 7.537582882962732e-9 8.989801197216952e-9
          1.91810732309702e-9 4.544572780064373e-9 4.1181388722755145e-9 7.171038237031727e-9 1.3242776247615795e-8 1.3757168385192338e-8
          1.2565158150464896e-8 1.2350152407131879e-8 1.2879004461515004e-8 1.3018639239852893e-8 1.3407856515898129e-8 1.3046730712705772e-8
          1.309900967189201e-8 1.3166722742767336e-8 1.3151288631078247e-8 1.31213161961428e-8 1.3218143274921883e-8 1.3246446466110706e-8
          1.3314970353700965e-8 1.3027796370897408e-8 1.3238748155745623e-8 1.3219915088529916e-8 1.3449699940593839e-8 1.6284199266109746e-8
          1.1314429926252346e-8 1.2079941851786449e-8 1.1099886649708274e-8 1.1854355890536664e-8 1.2845453777320555e-8 1.2608825131365052e-8
          7.470336055177053e-9 8.679105854972424e-9 8.159183644909112e-9 1.0987446818771964e-8 1.0895221230536713e-8 1.1659790861733713e-8
          1.0611108422737487e-8 1.1469905738363908e-8 1.2424360492930714e-8 1.2328703053990332e-8 6.101494774316884e-9 7.704703489946202e-9
          7.250757432937301e-9 1.03994788859619e-8 1.3786435616008292e-8 1.3531178776455544e-8 1.4386282085236285e-8 1.3394595113260686e-8
          1.3369038792100016e-8 1.4206577979786712e-8 3.0822076153413382e-9 4.870745245764774e-9 2.6727115188998805e-9 4.45113199418795e-9
          9.548859561812383e-9 9.10616876622941e-9 1.5024505657013803e-9 3.6641580236425926e-9 3.273969239778109e-9 8.75807441483831e-9
          2.384993078275276e-9 4.08056459812814e-9 2.1609618372492546e-9 3.725480117079055e-9 8.718054581424083e-9 8.313487629158614e-9
          1.3107083562844396e-9 2.9722942679392967e-9 2.7225341022439923e-9 7.685607011296907e-9 1.3178126100042662e-8 1.3059556579906014e-8
          1.3917815952648766e-8 1.4136328096829227e-8 1.2569816584077032e-8 1.2587934383356486e-8 1.3449349820061247e-8 1.2964198214711073e-8
          1.2882169587045229e-8 1.4268423384554986e-8 1.4427362312682082e-8 1.2533801316161461e-8 1.239530038199044e-8 1.4330268789323262e-8
          1.0333119388055829e-8 1.1282289425232519e-8 1.0047725761932143e-8 1.1084932823004584e-8 1.2231459462409209e-8 1.2122139884077027e-8
          5.162417778603587e-9 6.8311330092696964e-9 6.433173092979038e-9 9.734405059411362e-9 9.730188807044534e-9 1.0857404265513759e-8
          9.392010358470854e-9 1.0575012893976675e-8 1.1984619723982983e-8 1.3036760696709695e-8 4.402151565085691e-9 6.039161095089213e-9
          5.643651194929627e-9 9.046474356110342e-9 1.3360377042415188e-8 1.3354750217608848e-8 1.45172353864679e-8 1.6008910288361553e-8
          1.6423569345559016e-8 1.3337152273921159e-8 1.4078791338656505e-8 1.4887222729696761e-8 1.9809363719047386e-9 3.4130921913022105e-9
          1.8404815705509395e-9 3.139166130214423e-9 7.926608822709446e-9 7.557518643283196e-9 1.1819597665711593e-9 2.5103539396081814e-9
          2.335405254369232e-9 6.8255843418605734e-9 1.7416236211989896e-9 2.90140010332317e-9 1.6804798035643081e-9 2.7295914271955085e-9
          7.19330214251656e-9 6.818149530618762e-9 1.1115253554182573e-9 2.200538391749807e-9 2.101991163955196e-9 6.076662504553668e-9
          1.280744251101756e-8 1.2730999766788948e-8 1.4606915387315907e-8 1.478481293688941e-8 1.2254507979619929e-8 1.2107249315969045e-8
          1.4696595388163915e-8 1.2642783405840835e-8 1.2517521633451481e-8 1.49601391120959e-8 1.5177447256492142e-8 1.194841453776051e-8
          1.1783666914224882e-8 1.5033055494495043e-8 1.2663775782809964e-8 1.3176211371132928e-8 1.306373132368619e-8 1.5044014012025294e-8
          1.2032718814508393e-8 1.2856301711756944e-8 1.2570475462462673e-8 1.5387288198387067e-8 1.664328111873519e-8 1.718669158049026e-8
          1.6887181172875685e-8 1.7570993992175682e-8 1.797262618311698e-8 1.804729619658273e-8 1.1163196895715201e-8 1.223547883601799e-8
          1.1885563255687654e-8 1.5496435310218476e-8 1.836976111019448e-8 1.8749107356539126e-8 1.9054412376272786e-8 9.050780515209761e-9
          1.0232637346941047e-8 8.704217806435483e-9 9.895036197900366e-9 1.3415211208532193e-8 1.3165176692949851e-8 3.806879046250465e-9
          5.26351710125076e-9 4.947372377308474e-9 9.6107676818548e-9 8.363522593676659e-9 9.57932935020672e-9 8.061863872050096e-9
          9.276146273765778e-9 1.3028372924417486e-8 1.2884765018264315e-8 3.5236365923156395e-9 4.7383583844317454e-9 4.66149876051607e-9
          8.701908549530092e-9 1.613794877288218e-8 1.6375479595460334e-8 1.6859969307372305e-8 1.7506460394386222e-8 1.4354019829588798e-8
          1.4242684999859486e-8 1.6206659451719046e-8 1.6599496024112356e-8 1.6831351250809764e-8 1.7937382306126528e-8 1.8383601140572353e-8
          1.4215949417513101e-8 1.4183786155959026e-8 1.6981161912513865e-8 1.6636685865136523e-9 2.6431681756155302e-9 1.7380895335184424e-9
          2.6278070217167627e-9 6.442249994966021e-9 6.11935382973221e-9 1.1513643281359312e-9 2.048365471478708e-9 2.0872103609311223e-9
          5.449373031261536e-9 1.9449353153809076e-9 2.7190867194179583e-9 2.2540336195426993e-9 2.94995973219353e-9 5.892522565271476e-9
          5.785235010669209e-9 1.5369238189754592e-9 2.263813658628923e-9 2.558739028423802e-9 5.0506856819306654e-9 1.2345319602726551e-8
          1.2179029527396318e-8 1.542880698023847e-8 1.56368759052433e-8 1.1615215973304679e-8 1.1436956665504073e-8 1.5277052498907768e-8
          1.2029025974368358e-8 1.1883966882279047e-8 1.5766244941648776e-8 1.5843349588064042e-8 1.1254151169759545e-8 1.1090437771142591e-8
          1.5397634473940146e-8 7.834634390128115e-9 9.019104152131319e-9 7.708339057920938e-9 8.843264804329437e-9 1.2749924205444694e-8
          1.2646630395186969e-8 3.784356102197397e-9 4.72688902068426e-9 4.920849366755755e-9 8.235938956641817e-9 4.43928477291302e-9
          5.212048679774583e-9 8.194148077460911e-9 1.706470327510799e-8 1.7295644138337488e-8 1.8833132053461116e-8 1.9276218037038977e-8
          1.4160804651144545e-8 1.416030918552082e-8 1.7519153328176575e-8 2.5932769824288527e-9 3.2791001439964046e-9 2.918985820732191e-9
          3.6517262952281876e-9 5.812228491850292e-9 5.971460226924266e-9 2.123913645003937e-9 2.9071517148689383e-9 3.26272020991609e-9
          5.155992171087854e-9 3.2271899150465492e-9 4.036273815112181e-9 6.2489983534049175e-9 2.614686599436373e-9 3.6105446591392523e-9
          5.78780612000275e-9 1.1769890859656415e-8 1.1708380883209753e-8 1.5880248041176204e-8 1.5858308082295158e-8 1.0977817857045233e-8
          1.0938324315513714e-8 1.5334041156648698e-8
        </DataArray>
        <DataArray type="Float64" Name="gradient_matprop_error" format="ascii" RangeMin="0" RangeMax="0">
          0 0 0 0 0 0
          0 0 0 0 0 0
          0 0 0 0 0 0
          0 0 0 0 0 0
          0 0 0 0 0 0
          0 0 0 0 0 0
          0 0 0 0 0 0
          0 0 0 0 0 0
          0 0 0 0 0 0
          0 0 0 0 0 0
          0 0 0 0 0 0
          0 0 0 0 0 0
          0 0 0 0 0 0
          0 0 0 0 0 0
          0 0 0 0 0 0
          0 0 0 0 0 0
          0 0 0 0 0 0
          0 0 0 0 0 0
          0 0 0 0 0 0
          0 0 0 0 0 0
          0 0 0 0 0 0
          0 0 0 0 0 0
          0 0 0 0 0 0
          0 0 0 0 0 0
          0 0 0 0 0 0
          0 0 0 0 0 0
          0 0 0 0 0 0
          0 0 0 0 0 0
          0 0 0 0 0 0
          0 0 0 0 0 0
          0 0 0 0 0 0
          0 0 0 0 0 0
          0 0 0 0 0 0
          0 0 0 0 0 0
          0 0 0 0 0 0
          0 0 0 0 0 0
          0 0 0 0 0 0
          0 0 0 0 0 0
          0 0 0 0 0 0
          0 0 0 0 0 0
          0 0 0 0 0 0
          0 0 0 0 0 0
          0 0 0 0 0 0
          0 0 0 0 0 0
          0 0 0 0 0 0
          0 0 0 0 0 0
          0 0 0 0 0 0
          0 0 0 0 0 0
          0 0 0 0 0 0
          0 0 0 0 0 0
          0 0 0 0 0 0
          0 0 0 0 0 0
          0 0 0 0 0 0
          0 0 0 0 0 0
          0 0 0 0 0 0
          0 0 0 0 0 0
          0 0 0 0 0 0
          0 0 0 0 0 0
          0 0 0 0 0 0
          0 0 0 0 0 0
          0 0 0 0 0 0
          0 0 0 0 0 0
          0 0 0 0 0 0
          0 0 0 0 0 0
          0 0 0 0 0 0
          0 0 0 0 0 0
          0 0 0 0 0 0
          0 0 0 0 0 0
          0 0 0 0 0 0
          0 0 0 0 0 0
          0 0 0 0 0 0
          0 0 0 0 0 0
          0 0 0 0 0 0
          0 0 0 0 0 0
          0 0 0 0 0 0
          0 0 0 0 0 0
          0 0 0 0 0 0
          0 0 0 0 0 0
          0 0 0 0 0 0
          0 0 0 0 0 0
          0 0 0 0 0 0
          0 0 0 0 0 0
          0 0 0 0 0 0
          0 0 0 0 0 0
          0 0 0 0 0 0
          0 0 0 0 0 0
          0 0 0 0 0 0
          0 0 0 0 0 0
          0 0 0 0 0 0
          0 0 0 0 0 0
          0 0 0 0 0 0
          0 0 0 0 0 0
          0 0 0 0 0 0
          0 0 0 0 0 0
          0 0 0 0 0 0
          0 0 0 0 0 0
          0 0 0 0 0 0
          0 0 0 0 0 0
          0 0 0 0 0 0
          0 0 0 0 0 0
          0 0 0 0 0 0
          0 0 0 0 0 0
          0 0 0 0 0 0
          0 0 0 0 0 0
          0 0 0 0 0 0
          0 0 0 0 0 0
          0 0 0 0 0 0
          0 0 0 0 0 0
          0 0
        </DataArray>
        <DataArray type="Float64" Name="initial_marker" format="ascii" RangeMin="0" RangeMax="2">
          2 1 0 2 0 2
          1 1 1 0 2 1
          0 2 1 0 0 0
          2 1.5 2 0 0 0
          0 0 0 0 0 0
          0 0 0 0 2 2
          2 1 2 2 1.5 1
          2 1.5 0.5 0.5 2 2
          2 1 2 1 2 1.5
          1 2 1.5 0 0.5 0.5
          2 2 2 1 2 2
          2 2 1 1.25 2 2
          2 1 2 2 2 2
          1.5 1.5 2 2 2 2
          0 0 0.5 0.25 0 0.5
          0 0 0 0 1 0.5
          1 0 2 1.5 0.5 2
          2 1 2 2 1.5 2
          2 2 0 0.5 1 0
          0 0 0 0 0 0
          0 0 0 2 2 2
          2 2 2 2 2 2
          2 2 2 2 2 2
          2 2 2 2 2 2
          2 2 2 2 2 2
          2 2 2 2 2 2
          2 2 2 2 2 2
          2 2 2 2 2 2
          2 2 2 2 2 2
          2 2 2 2 2 2
          2 2 2 2 2 2
          2 2 2 2 2 2
          2 2 2 2 2 2
          2 2 2 2 2 2
          2 2 2 2 2 2
          2 2 2 2 2 2
          2 2 2 2 2 2
          2 2 2 2 2 2
          2 2 2 2 2 2
          2 2 2 2 2 2
          2 2 2 2 2 2
          2 2 2 2 2 2
          2 2 2 2 2 2
          2 2 2 2 2 2
          2 2 2 2 2 2
          2 2 2 2 2 2
          2 2 2 2 2 2
          2 2 2 2 2 2
          2 2 2 2 2 2
          2 2 2 2 2 2
          2 2 2 2 2 2
          2 2 2 2 2 2
          2 2 2 2 2 2
          2 2 2 2 2 2
          2 2 2 2 2 2
          2 2 2 2 2 2
          2 2 2 2 2 2
          2 2 2 2 2 2
          2 2 2 2 2 2
          2 2 2 2 2 2
          2 2 2 2 2 2
          2 2 2 2 2 2
          2 2 2 2 2 2
          2 2 2 2 2 2
          2 2 2 2 2 2
          2 2 2 2 2 2
          2 2 2 2 2 2
          2 2 2 2 2 2
          2 2 2 2 2 2
          2 2 2 2 2 2
          2 2 2 2 2 2
          2 2 2 2 2 2
          2 2 2 2 2 2
          2 2 2 2 2 2
          2 2 2 2 2 2
          2 2 2 2 2 2
          2 2 2 2 2 2
          2 2 2 2 2 2
          2 2 2 2 2 2
          2 2 2 2 2 2
          2 2 2 2 2 2
          2 2 2 2 2 2
          2 2 2 2 2 2
          2 2 2 2 2 2
          2 2 2 2 2 2
          2 2 2 2 2 2
          2 2 2 2 2 2
          2 2 2 2 2 2
          2 2 2 2 2 2
          2 2 2 2 2 2
          2 2 2 2 2 2
          2 2 2 2 2 2
          2 2 2 2 2 2
          2 2 2 2 2 2
          2 2 2 2 2 2
          2 2 2 2 2 2
          2 2 2 2 2 2
          2 2 2 2 2 2
          2 2 2 2 2 2
          2 2 2 2 2 2
          2 2 2 2 2 2
          2 2 2 2 2 2
          2 2 2 2 2 2
          2 2 2 2 2 2
          2 2 2 2 2 2
          2 2 2 2 2 2
          2 2 2 2 2 2
          2 2 2 2 2 2
          2 2
        </DataArray>
        <DataArray type="Float64" Name="markers_norefine" format="ascii" RangeMin="0" RangeMax="2">
          1 0 0 2 0 0
          0 0 0 0 0 0
          0 0 0 0 0 0
          2 0 0 0 0 0
          0 0 0 0 0 0
          0 0 0 0 0 0
          0 0 0 0 0 0
          0 0 0 0 0 0
          0 0 0 0 0 0
          0 0 0 0 0 0
          0 0 0 0 0 0
          0 0 0 0 2 0
          0 0 0 0 1 0
          0 0 2 0 0 0
          0 0 0 0 0 0
          0 0 0 0 0 0
          0 0 0 0 0 0
          0 0 1 0 0 2
          1 0 0 0 0 0
          0 0 0 0 0 0
          0 0 0 0 0 0
          0 0 0 0 0 0
          0 0 0 0 0 0
          0 0 0 0 0 0
          0 0 0 0 0 0
          0 0 0 0 0 0
          0 0 0 0.5 0 1
          0 0 0 2 0.5 1
          0 1 0.5 1.5 0.5 0
          0 2 1 1 0 0
          0 0 0 0 0 0
          0 0 0 0 0 0
          0 0 0 0 0 0
          0 0 0 0 0 0
          0 0 0 0 0 0
          2 0.75 2 1.5 0 0
          2 2 2 0 2 1.5
          2 1.75 0 0 2 2
          2 0 0 0 0 0
          0 0 0 0 0 0
          0 0 0 0 0 0
          0 0 0 0 0 0
          0 0 0 0 0 0
          0 0 0 0 1 0.5
          0.5 0 0 0 0 1
          0.75 0 0 0 0 0
          0 0 0 0 0 0
          0 2 2 2 2 0
          0.25 2 2 2 0.5 2
          2 0.5 2 2 1 0
          0 0 0 0 0 0
          0 0 0 0 0 1
          0.5 0 1 0 0 0
          0.5 0 2 1 1 0
          1 0.5 1.5 1 0 0.5
          2 1 1.5 0 2 1.5
          2 1.5 1 1 2 2
          2 2 2 1.5 2 1
          1 0.5 0 2 2 1.6666666666666667
          2 0 2 1.75 2 2
          1.5 2 2 2 2 2
          2 2 2 2 2 1.3333333333333333
          2 2 2 2 0 0
          0 0 0 0 0 0
          0 0 0 0 0 0
          0 1 0.5 1 0 0
          1 0.5 1 0.75 0 0.5
          2 1.5 1.75 0.6666666666666666 1 1
          1 1 1 1 2 2
          2 1.6666666666666667 0 0 0 0.5
          1 0 2 2 2 2
          1.25 1.5 2 2 2 1.5
          2 2 2 2 1.75 2
          2 2 2 2 0.25 0.5
          0 0 0.5 1 0 0.75
          1 0 0 1 1 0
          1 1 1 1 1 1
          2 2 2 2 1.5 1.25
          2 1.5 1 1 2 2
          2 2 1 1 0 0.5
          0 1 1 0 2 2
          2 2 2 2 2 2
          2 2 2 2 2 2
          2 2 2 2 2 2
          1 1 0 0 1 1
          0 1 1 0 0 1
          1 0 2 1.5 2 0.5
          2 2 2 1 0 0
          0 0 0 0 2 2
          2 1 0 0.5 0 2
          1.75 2 2 1.25 1.5 2
          2 2 2 2 2 2
          2 1.5 1.5 2 2 2
          2 0.5 0.5 0 0 1
          1 0 0.5 0.5 0 0
          1 1.25 0 2 2 2
          2 2 2 2 2 2
          2 2 2 2 2 2
          2 2 2 2 2 1
          1.25 0 0.5 1 1.5 0
          1.5 1.75 1 1.5 2 2
          2 2 2 2 2 1.5
          1.75 2 2 2 2 2