<?xml version="1.0"?>
<VTKFile type="UnstructuredGrid" version="0.1" byte_order="LittleEndian" header_type="UInt32" compressor="vtkZLibDataCompressor">
  <UnstructuredGrid>
    <Piece NumberOfPoints="388" NumberOfCells="186">
      <PointData>
        <DataArray type="Int32" Name="libmesh_node_id" format="ascii" RangeMin="0" RangeMax="3320">
          0 1 2 3 4 5
          6 7 8 9 10 11
          12 13 14 15 16 17
          18 19 20 21 22 23
          24 25 26 27 28 29
          30 31 32 33 34 35
          36 37 38 39 40 41
          42 43 44 45 46 47
          48 49 50 51 52 53
          54 55 56 57 58 59
          60 61 62 63 64 65
          66 67 68 69 70 71
          72 73 74 75 76 77
          78 79 80 81 82 83
          84 85 86 87 88 89
          90 91 92 93 94 95
          96 97 98 99 100 101
          102 103 104 105 106 107
          108 109 110 111 112 113
          114 121 122 123 124 125
          126 127 128 142 143 144
          145 159 160 175 176 177
          178 192 193 208 209 225
          226 241 242 258 259 266
          267 270 276 280 406 407
          408 413 599 600 601 609
          610 611 1254 1255 1256 1257
          1260 1261 1262 1263 1264 1265
          1267 1268 1269 1270 1272 1273
          3008 3009 3011 3012 3013 3014
          3039 3040 3041 3042 3043 3044
          3045 3046 3047 3048 3049 3050
          3051 3052 3053 3054 3055 3056
          3057 3058 3059 3060 3061 3062
          3063 3064 3065 3066 3067 3068
          3069 3070 3071 3072 3113 3114
          3115 3116 3117 3118 3270 3271
          3272 3275 3278 3280 3281 3282
          3283 3284 3285 3286 3287 3288
          3291 3292 3294 3297 3299 3300
          3301 3302 3303 3304 3307 3308
          3309 3310 3311 3313 3314 3315
          3316 3317 3318 3319 3320 115
          116 117 118 119 120 129
          130 131 132 133 134 135
          136 137 138 139 140 141
          146 147 148 149 154 155
          156 157 158 161 162 173
          174 179 180 191 194 207
          224 211 213 227 265 274
          269 275 401 400 403 402
          404 405 409 411 410 412
          260 602 603 604 605 606
          607 608 612 271 284 290
          287 1258 1259 264 1266 277
          282 1271 2996 3007 3010 2998
          3001 1276 1277 1280 1283 268
          327 328 331 337 278 341
          279 1285 1287 1290 1292 3087
          3088 3089 3090 3091 3092 3006
          3105 3106 3109 240 3111 257
          3266 3267 3268 3269 3273 3274
          3276 3277 3279 3289 3290 3293
          3295 3296 3298 3305 3306 3258
          3259 3262 3312 3264
        </DataArray>
        <DataArray type="Float64" Name="bounds" format="ascii" RangeMin="0" RangeMax="0">
          0 0 0 0 0 0
          0 0 0 0 0 0
          0 0 0 0 0 0
          0 0 0 0 0 0
          0 0 0 0 0 0
          0 0 0 0 0 0
          0 0 0 0 0 0
          0 0 0 0 0 0
          0 0 0 0 0 0
          0 0 0 0 0 0
          0 0 0 0 0 0
          0 0 0 0 0 0
          0 0 0 0 0 0
          0 0 0 0 0 0
          0 0 0 0 0 0
          0 0 0 0 0 0
          0 0 0 0 0 0
          0 0 0 0 0 0
          0 0 0 0 0 0
          0 0 0 0 0 0
          0 0 0 0 0 0
          0 0 0 0 0 0
          0 0 0 0 0 0
          0 0 0 0 0 0
          0 0 0 0 0 0
          0 0 0 0 0 0
          0 0 0 0 0 0
          0 0 0 0 0 0
          0 0 0 0 0 0
          0 0 0 0 0 0
          0 0 0 0 0 0
          0 0 0 0 0 0
          0 0 0 0 0 0
          0 0 0 0 0 0
          0 0 0 0 0 0
          0 0 0 0 0 0
          0 0 0 0 0 0
          0 0 0 0 0 0
          0 0 0 0 0 0
          0 0 0 0 0 0
          0 0 0 0 0 0
          0 0 0 0 0 0
          0 0 0 0 0 0
          0 0 0 0 0 0
          0 0 0 0 0 0
          0 0 0 0 0 0
          0 0 0 0 0 0
          0 0 0 0 0 0
          0 0 0 0 0 0
          0 0 0 0 0 0
          0 0 0 0 0 0
          0 0 0 0 0 0
          0 0 0 0 0 0
          0 0 0 0 0 0
          0 0 0 0 0 0
          0 0 0 0 0 0
          0 0 0 0 0 0
          0 0 0 0 0 0
          0 0 0 0 0 0
          0 0 0 0 0 0
          0 0 0 0 0 0
          0 0 0 0 0 0
          0 0 0 0 0 0
          0 0 0 0 0 0
          0 0 0 0
        </DataArray>
        <DataArray type="Float64" Name="gradient_error" format="ascii" RangeMin="1.5264320987515969e-10" RangeMax="0.000001230169009654528">
          1.7666318149800156e-10 1.7786735684439887e-10 2.0696779540260153e-10 2.0592902416491343e-10 7.252767423586168e-10 6.721233090801197e-10
          4.720953193987583e-10 5.029427185638733e-10 1.9375683045344211e-10 2.1560676503487927e-10 5.192754415626043e-10 3.878646401484555e-10
          2.257738537983986e-10 2.3190589918383905e-10 3.328488457276091e-10 2.896879470083682e-10 2.442358936982371e-10 2.4111150252688557e-10
          2.399607095573853e-10 2.4129851956483037e-10 2.414264320061942e-10 2.3954599597982657e-10 2.37592946528501e-10 2.3959060030214316e-10
          2.3768742080300545e-10 2.3771599849051475e-10 2.405019123610488e-10 2.404938958111002e-10 2.38152130295587e-10 2.381861938373578e-10
          2.389390484374923e-10 2.3888597800930814e-10 2.384016193409225e-10 2.3840100768603945e-10 2.3825736702328343e-10 2.3826179714263973e-10
          2.383654389988778e-10 2.383659702437082e-10 2.383000507542213e-10 2.3830154956716577e-10 2.3834371379769735e-10 2.383441376531147e-10
          2.383407976886263e-10 2.383423646735621e-10 2.360682339608042e-10 2.351948668318253e-10 2.7206732971739687e-10 2.8060869476912976e-10
          2.374566996163164e-10 2.5645383873430677e-10 2.380379445692795e-10 2.4652704828912736e-10 2.379871113555341e-10 2.4263632957227544e-10
          2.3766555995345893e-10 2.415882540757853e-10 2.3774457617802416e-10 2.4048587926115164e-10 2.3822025737912853e-10 2.38832907581124e-10
          2.3840039603115645e-10 2.382662272619961e-10 2.383665014885386e-10 2.383030483801103e-10 2.3834456150853205e-10 2.3834393165849786e-10
          3.2607794210454503e-9 2.9032273537842803e-9 1.740971183063068e-9 1.956721760738277e-9 1.9128174539961865e-9 1.1713567958609367e-9
          7.927055562998574e-10 5.551361265086444e-10 3.152873114955901e-10 2.903334946218292e-10 2.844222814489085e-10 2.6548884862989983e-10
          2.3963960856795223e-10 2.396300410766136e-10 2.3692584915563693e-10 2.3723165822296005e-10 2.384751983175432e-10 2.384771441702424e-10
          2.385507559771065e-10 2.385534897331232e-10 2.3844502753158503e-10 2.3844590011786975e-10 5.78715012341856e-10 6.526641004311046e-10
          4.2989613772568723e-10 3.175666967174315e-10 2.6537967774806824e-10 2.465554158108911e-10 2.3962047358527506e-10 2.3753746729028317e-10
          2.3847909002294167e-10 2.385562234891399e-10 2.3844677270415447e-10 1.6507651849077767e-8 1.4542516609713022e-8 8.750012825640317e-9
          9.955082440395084e-9 9.431695983543934e-9 5.729184478128979e-9 3.797057800498245e-9 2.5157008333996793e-9 1.0701387148430575e-9
          9.162883845446601e-10 6.465859601330825e-10 5.877775901101719e-10 3.85161390476521e-10 3.851362829054794e-10 2.762781470129732e-10
          2.7630957790016587e-10 2.9575090415676097e-9 3.4025130317124025e-9 2.026672972714024e-9 1.2343438663011132e-9 7.624380542462629e-10
          5.289692200872615e-10 3.8511117533443795e-10 2.763410087873586e-10 2.38975314030949e-9 2.3401109077086566e-9 1.1996251922614835e-9
          1.2437962564220514e-9 2.2904686751078232e-9 1.2879673205826192e-9 4.5858673981928846e-9 6.609625992432203e-9 2.1466211186631734e-9
          3.3804559512607615e-9 8.995092904483303e-9 4.716061760671703e-9 3.03973054509486e-8 9.790526328794756e-8 8.204159269375557e-9
          4.313641504781021e-9 7.922700367001167e-7 7.934675433212155e-8 4.948145685206312e-9 8.147817803856178e-10 1.118253087085877e-7
          5.860904253138706e-7 3.727355331674576e-7 1.1949679290981168e-7 7.001438755352471e-7 6.55352655650417e-10 5.046644320601476e-10
          1.0258336619634432e-9 3.5397620846987807e-10 1.076903328123882e-9 1.0759141812209966e-9 2.326580843726257e-9 1.074925034318111e-9
          3.556931503883921e-9 7.714740756105196e-9 4.017997645669776e-9 3.83381903231016e-9 4.988607016374164e-9 1.9045917474248305e-8
          1.8090702603444222e-8 3.649640418950545e-9 1.3034084648656575e-8 1.7135487732640136e-8 2.538655596936027e-9 4.595529133416602e-9
          1.7048058451011865e-8 1.8654688725160637e-9 1.9709179700641763e-9 3.568438604227808e-9 2.9500587768607137e-8 2.0763670676122885e-9
          5.126706252759836e-7 3.9462559941061484e-7 1.7395999839573964e-7 5.492855376538448e-7 5.88357681142604e-7 1.2355178350367928e-7
          1.6342335688610055e-8 2.525237860973747e-8 3.610683355746108e-8 1.632287577799022e-7 1.4139760121553274e-7 1.2064765230752637e-7
          1.401889531886936e-7 3.416242153086488e-8 9.989770339952001e-8 1.1714914859748502e-7 6.225394155316264e-7 5.315801070407696e-7
          5.103120535610738e-7 3.80811574177621e-7 8.330232315278201e-7 9.769945304510086e-7 9.343165181661357e-7 8.192154040052903e-7
          6.252380244130642e-7 5.900842749366757e-7 9.753630965812196e-7 0.0000010215157482560477 8.62077773708359e-7 7.620751801937846e-7
          1.6026268341670553e-7 1.786482294224788e-7 2.1453103275196426e-7 2.3258479450277137e-7 5.9332241400373435e-8 7.022452255906294e-8
          9.040861561495164e-8 2.68799382087223e-7 2.86521359583064e-7 8.111680371775245e-8 1.1290131402798566e-8 3.341934127934642e-8
          2.3505276551339852e-9 5.67819831897818e-9 5.554855115589427e-8 9.005868982822373e-9 6.084051883761616e-8 1.909853046696682e-7
          1.6650400891743522e-7 1.4202271316520228e-7 4.6006972099444824e-7 4.17295588992239e-8 4.829300867327417e-8 1.7943235607762865e-7
          1.5524920087305954e-7 5.4856458447324424e-8 1.3106604566849047e-7 5.489663322228018e-7 4.858700289423697e-7 3.7932389827953913e-7
          6.24309937564357e-7 6.415481785362853e-7 5.176103077696874e-7 6.351244140809286e-7 7.177681137485588e-7 7.227933465101572e-7
          5.536274948471004e-7 6.547387163075476e-7 7.360520282084202e-7 6.419069587197204e-7 2.020934507285748e-7 2.512378267281844e-7
          1.1974747795936834e-7 1.399677786012354e-7 1.2604145742520744e-7 3.0038220272779394e-7 1.6018807924310245e-7 1.9239952508926256e-7
          2.443960505247258e-7 9.237480666378318e-8 1.0935569062700651e-7 2.96392575960189e-7 1.2633657459022983e-7 2.4007280769958123e-10
          2.402665546781889e-10 2.369557727299374e-10 2.3731387370112923e-10 2.369989379705715e-10 2.37395560593227e-10 2.4046030165679656e-10
          2.3767197467232106e-10 2.3779218321588244e-10 8.411275863004387e-8 7.358365485305908e-8 4.522999263580509e-8 5.1748433939089974e-8
          4.739511109910104e-8 2.9467898928448805e-8 1.9524908057200907e-8 1.3174577813475627e-8 5.212690116283833e-9 4.538347863369325e-9
          4.957219053860081e-10 5.141475355114605e-10 2.4982377826294657e-10 2.557098666200713e-10 1.6876330418551095e-8 1.938410924813607e-8
          1.1540686757796572e-8 6.824247569750347e-9 3.864005610454818e-9 5.325731656369127e-10 2.6159595497719595e-10 8.076094224010457e-9
          1.1774968990367562e-8 4.823628203157442e-10 1.0988077774072591e-9 1.7029676727405723e-8 1.6636746355116782e-9 1.6686489380156826e-7
          1.538943240846488e-8 3.313153418731899e-8 4.392203202514259e-9 1.4252280469089589e-9 7.12243694836272e-8 7.968135965588776e-8
          3.2988106651508724e-7 7.085235632733433e-8 1.9328390800756446e-9 1.0617796466688307e-9 3.457104485836054e-9 1.5315953369388468e-9
          4.395710325771018e-10 5.518772396469238e-10 2.1192186158313828e-10 4.981369891596463e-9 2.0014110272088633e-9 6.641834467167461e-10
          1.5264320987515969e-10 8.241267514655065e-9 3.706875495810676e-9 3.631903499847299e-9 7.97800413538013e-9 3.4329049114063825e-10
          1.0684387068186623e-9 1.1149375468990948e-9 1.1614363869795274e-9 3.717468284630466e-8 1.5346475655093594e-8 1.7110930012006865e-8
          4.39351476498627e-9 1.3854858392703164e-8 1.3444471520679867e-8 1.6079329242123458e-8 7.666585235151469e-9 3.487150595086074e-8
          4.085294188247578e-8 1.2794514873366909e-8 1.8299576999834621e-7 1.507040866817321e-7 1.7229399955314003e-7 4.0274955279211577e-7
          2.2726568364571376e-7 1.6920230746487657e-8 1.1314017283169144e-7 9.604689694640707e-8 7.89536210611227e-8 6.555874367041055e-7
          5.467418204441717e-7 0.0000011617652383719334 0.0000010733583705564445 6.559774672198445e-7 0.000001230169009654528 0.000001228406663370872
          8.251665152803772e-7 1.367946812324219e-7 1.8886782425605305e-7 5.0732216813372576e-8 2.4094096727968414e-7 6.389752668118785e-9
          5.473961315853011e-9 2.3418247236548126e-8 2.0399621003533453e-8 4.558169963587236e-9 1.738099477051878e-8 4.820521903360795e-8
          2.327675082263369e-8 5.5287801871643335e-8 7.764262281225674e-9 1.6708111819732524e-7 8.729885292065299e-8 1.232240428020881e-8
          6.96703984872602e-8 7.289395778059972e-8 1.9872251828812413e-7 1.7455976546644536e-7 7.611751707393924e-8 1.503970126447666e-7
          4.780386048207889e-7 4.341446740871783e-7 3.591752920619118e-7 5.478230639918084e-7 5.727667640007863e-7 4.830745133573266e-7
          4.673435564310271e-7 5.534697529795071e-7 5.397243427295827e-7 2.0838593371898416e-7 2.5420317065306224e-7 2.118803427363366e-7
          2.5418819891761144e-7 1.5106667843552887e-7 3.000204075871403e-7 2.9649605509888625e-7
        </DataArray>
        <DataArray type="Float64" Name="gradient_matprop_error" format="ascii" RangeMin="0" RangeMax="0">
          0 0 0 0 0 0
          0 0 0 0 0 0
          0 0 0 0 0 0
          0 0 0 0 0 0
          0 0 0 0 0 0
          0 0 0 0 0 0
          0 0 0 0 0 0
          0 0 0 0 0 0
          0 0 0 0 0 0
          0 0 0 0 0 0
          0 0 0 0 0 0
          0 0 0 0 0 0
          0 0 0 0 0 0
          0 0 0 0 0 0
          0 0 0 0 0 0
          0 0 0 0 0 0
          0 0 0 0 0 0
          0 0 0 0 0 0
          0 0 0 0 0 0
          0 0 0 0 0 0
          0 0 0 0 0 0
          0 0 0 0 0 0
          0 0 0 0 0 0
          0 0 0 0 0 0
          0 0 0 0 0 0
          0 0 0 0 0 0
          0 0 0 0 0 0
          0 0 0 0 0 0
          0 0 0 0 0 0
          0 0 0 0 0 0
          0 0 0 0 0 0
          0 0 0 0 0 0
          0 0 0 0 0 0
          0 0 0 0 0 0
          0 0 0 0 0 0
          0 0 0 0 0 0
          0 0 0 0 0 0
          0 0 0 0 0 0
          0 0 0 0 0 0
          0 0 0 0 0 0
          0 0 0 0 0 0
          0 0 0 0 0 0
          0 0 0 0 0 0
          0 0 0 0 0 0
          0 0 0 0 0 0
          0 0 0 0 0 0
          0 0 0 0 0 0
          0 0 0 0 0 0
          0 0 0 0 0 0
          0 0 0 0 0 0
          0 0 0 0 0 0
          0 0 0 0 0 0
          0 0 0 0 0 0
          0 0 0 0 0 0
          0 0 0 0 0 0
          0 0 0 0 0 0
          0 0 0 0 0 0
          0 0 0 0 0 0
          0 0 0 0 0 0
          0 0 0 0 0 0
          0 0 0 0 0 0
          0 0 0 0 0 0
          0 0 0 0 0 0
          0 0 0 0 0 0
          0 0 0 0
        </DataArray>
        <DataArray type="Float64" Name="initial_marker" format="ascii" RangeMin="0" RangeMax="0">
          0 0 0 0 0 0
          0 0 0 0 0 0
          0 0 0 0 0 0
          0 0 0 0 0 0
          0 0 0 0 0 0
          0 0 0 0 0 0
          0 0 0 0 0 0
          0 0 0 0 0 0
          0 0 0 0 0 0
          0 0 0 0 0 0
          0 0 0 0 0 0
          0 0 0 0 0 0
          0 0 0 0 0 0
          0 0 0 0 0 0
          0 0 0 0 0 0
          0 0 0 0 0 0
          0 0 0 0 0 0
          0 0 0 0 0 0
          0 0 0 0 0 0
          0 0 0 0 0 0
          0 0 0 0 0 0
          0 0 0 0 0 0
          0 0 0 0 0 0
          0 0 0 0 0 0
          0 0 0 0 0 0
          0 0 0 0 0 0
          0 0 0 0 0 0
          0 0 0 0 0 0
          0 0 0 0 0 0
          0 0 0 0 0 0
          0 0 0 0 0 0
          0 0 0 0 0 0
          0 0 0 0 0 0
          0 0 0 0 0 0
          0 0 0 0 0 0
          0 0 0 0 0 0
          0 0 0 0 0 0
          0 0 0 0 0 0
          0 0 0 0 0 0
          0 0 0 0 0 0
          0 0 0 0 0 0
          0 0 0 0 0 0
          0 0 0 0 0 0
          0 0 0 0 0 0
          0 0 0 0 0 0
          0 0 0 0 0 0
          0 0 0 0 0 0
          0 0 0 0 0 0
          0 0 0 0 0 0
          0 0 0 0 0 0
          0 0 0 0 0 0
          0 0 0 0 0 0
          0 0 0 0 0 0
          0 0 0 0 0 0
          0 0 0 0 0 0
          0 0 0 0 0 0
          0 0 0 0 0 0
          0 0 0 0 0 0
          0 0 0 0 0 0
          0 0 0 0 0 0
          0 0 0 0 0 0
          0 0 0 0 0 0
          0 0 0 0 0 0
          0 0 0 0 0 0
          0 0 0 0
        </DataArray>
        <DataArray type="Float64" Name="markers_norefine" format="ascii" RangeMin="0" RangeMax="0">
          0 0 0 0 0 0
          0 0 0 0 0 0
          0 0 0 0 0 0
          0 0 0 0 0 0
          0 0 0 0 0 0
          0 0 0 0 0 0
          0 0 0 0 0 0
          0 0 0 0 0 0
          0 0 0 0 0 0
          0 0 0 0 0 0
          0 0 0 0 0 0
          0 0 0 0 0 0
          0 0 0 0 0 0
          0 0 0 0 0 0
          0 0 0 0 0 0
          0 0 0 0 0 0
          0 0 0 0 0 0
          0 0 0 0 0 0
          0 0 0 0 0 0
          0 0 0 0 0 0
          0 0 0 0 0 0
          0 0 0 0 0 0
          0 0 0 0 0 0
          0 0 0 0 0 0
          0 0 0 0 0 0
          0 0 0 0 0 0
          0 0 0 0 0 0
          0 0 0 0 0 0
          0 0 0 0 0 0
          0 0 0 0 0 0
          0 0 0 0 0 0
          0 0 0 0 0 0
          0 0 0 0 0 0
          0 0 0 0 0 0
          0 0 0 0 0 0
          0 0 0 0 0 0
          0 0 0 0 0 0
          0 0 0 0 0 0
          0 0 0 0 0 0
          0 0 0 0 0 0
          0 0 0 0 0 0
          0 0 0 0 0 0
          0 0 0 0 0 0
          0 0 0 0 0 0
          0 0 0 0 0 0
          0 0 0 0 0 0
          0 0 0 0 0 0
          0 0 0 0 0 0
          0 0 0 0 0 0
          0 0 0 0 0 0
          0 0 0 0 0 0
          0 0 0 0 0 0
          0 0 0 0 0 0
          0 0 0 0 0 0
          0 0 0 0 0 0
          0 0 0 0 0 0
          0 0 0 0 0 0
          0 0 0 0 0 0
          0 0 0 0 0 0
          0 0 0 0 0 0
          0 0 0 0 0 0
          0 0 0 0 0 0
          0 0 0 0 0 0
          0 0 0 0 0 0
          0 0 0 0
        </DataArray>
        <DataArray type="Float64" Name="markers_mustrefine" format="ascii" RangeMin="0" RangeMax="0">
          0 0 0 0 0 0
          0 0 0 0 0 0
          0 0 0 0 0 0
          0 0 0 0 0 0
          0 0 0 0 0 0
          0 0 0 0 0 0
          0 0 0 0 0 0
          0 0 0 0 0 0
          0 0 0 0 0 0
          0 0 0 0 0 0
          0 0 0 0 0 0
          0 0 0 0 0 0
          0 0 0 0 0 0
          0 0 0 0 0 0
          0 0 0 0 0 0
          0 0 0 0 0 0
          0 0 0 0 0 0
          0 0 0 0 0 0
          0 0 0 0 0 0
          0 0 0 0 0 0
          0 0 0 0 0 0
          0 0 0 0 0 0
          0 0 0 0 0 0
          0 0 0 0 0 0
          0 0 0 0 0 0
          0 0 0 0 0 0
          0 0 0 0 0 0
          0 0 0 0 0 0
          0 0 0 0 0 0
          0 0 0 0 0 0
          0 0 0 0 0 0
          0 0 0 0 0 0
          0 0 0 0 0 0
          0 0 0 0 0 0
          0 0 0 0 0 0
          0 0 0 0 0 0
          0 0 0 0 0 0
          0 0 0 0 0 0
          0 0 0 0 0 0
          0 0 0 0 0 0
          0 0 0 0 0 0
          0 0 0 0 0 0
          0 0 0 0 0 0
          0 0 0 0 0 0
          0 0 0 0 0 0
          0 0 0 0 0 0
          0 0 0 0 0 0
          0 0 0 0 0 0
          0 0 0 0 0 0
          0 0 0 0 0 0
          0 0 0 0 0 0
          0 0 0 0 0 0
          0 0 0 0 0 0
          0 0 0 0 0 0
          0 0 0 0 0 0
          0 0 0 0 0 0
          0 0 0 0 0 0
          0 0 0 0 0 0
          0 0 0 0 0 0
          0 0 0 0 0 0
          0 0 0 0 0 0
          0 0 0 0 0 0
          0 0 0 0 0 0
          0 0 0 0 0 0
          0 0 0 0
        </DataArray>
        <DataArray type="Float64" Name="gradient_marker" format="ascii" RangeMin="1" RangeMax="1">
          1 1 1 1 1 1
          1 1 1 1 1 1
          1 1 1 1 1 1
          1 1 1 1 1 1
          1 1 1 1 1 1
          1 1 1 1 1 1
          1 1 1 1 1 1
          1 1 1 1 1 1
          1 1 1 1 1 1
          1 1 1 1 1 1
          1 1 1 1 1 1
          1 1 1 1 1 1
          1 1 1 1 1 1
          1 1 1 1 1 1
          1 1 1 1 1 1
          1 1 1 1 1 1
          1 1 1 1 1 1
          1 1 1 1 1 1
          1 1 1 1 1 1
          1 1 1 1 1 1
          1 1 1 1 1 1
          1 1 1 1 1 1
          1 1 1 1 1 1
          1 1 1 1 1 1
          1 1 1 1 1 1
          1 1 1 1 1 1
          1 1 1 1 1 1
          1 1 1 1 1 1
          1 1 1 1 1 1
          1 1 1 1 1 1
          1 1 1 1 1 1
          1 1 1 1 1 1
          1 1 1 1 1 1
          1 1 1 1 1 1
          1 1 1 1 1 1
          1 1 1 1 1 1
          1 1 1 1 1 1
          1 1 1 1 1 1
          1 1 1 1 1 1
          1 1 1 1 1 1
          1 1 1 1 1 1
          1 1 1 1 1 1
          1 1 1 1 1 1
          1 1 1 1 1 1
          1 1 1 1 1 1
          1 1 1 1 1 1
          1 1 1 1 1 1
          1 1 1 1 1 1
          1 1 1 1 1 1
          1 1 1 1 1 1
          1 1 1 1 1 1
          1 1 1 1 1 1
          1 1 1 1 1 1
          1 1 1 1 1 1
          1 1 1 1 1 1
          1 1 1 1 1 1
          1 1 1 1 1 1
          1 1 1 1 1 1
          1 1 1 1 1 1
          1 1 1 1 1 1
          1 1 1 1 1 1
          1 1 1 1 1 1
          1 1 1 1 1 1
          1 1 1 1 1 1
          1 1 1 1
        </DataArray>
        <DataArray type="Float64" Name="gradient_matprop_marker" format="ascii" RangeMin="0" RangeMax="0">
          0 0 0 0 0 0
          0 0 0 0 0 0
          0 0 0 0 0 0
          0 0 0 0 0 0
          0 0 0 0 0 0
          0 0 0 0 0 0
          0 0 0 0 0 0
          0 0 0 0 0 0
          0 0 0 0 0 0
          0 0 0 0 0 0
          0 0 0 0 0 0
          0 0 0 0 0 0
          0 0 0 0 0 0
          0 0 0 0 0 0
          0 0 0 0 0 0
          0 0 0 0 0 0
          0 0 0 0 0 0
          0 0 0 0 0 0
          0 0 0 0 0 0
          0 0 0 0 0 0
          0 0 0 0 0 0
          0 0 0 0 0 0
          0 0 0 0 0 0
          0 0 0 0 0 0
          0 0 0 0 0 0
          0 0 0 0 0 0
          0 0 0 0 0 0
          0 0 0 0 0 0
          0 0 0 0 0 0
          0 0 0 0 0 0
          0 0 0 0 0 0
          0 0 0 0 0 0
          0 0 0 0 0 0
          0 0 0 0 0 0
          0 0 0 0 0 0
          0 0 0 0 0 0
          0 0 0 0 0 0
          0 0 0 0 0 0
          0 0 0 0 0 0
          0 0 0 0 0 0
          0 0 0 0 0 0
          0 0 0 0 0 0
          0 0 0 0 0 0
          0 0 0 0 0 0
          0 0 0 0 0 0
          0 0 0 0 0 0
          0 0 0 0 0 0
          0 0 0 0 0 0
          0 0 0 0 0 0
          0 0 0 0 0 0
          0 0 0 0 0 0
          0 0 0 0 0 0
          0 0 0 0 0 0
          0 0 0 0 0 0
          0 0 0 0 0 0
          0 0 0 0 0 0
          0 0 0 0 0 0
          0 0 0 0 0 0
          0 0 0 0 0 0
          0 0 0 0 0 0
          0 0 0 0 0 0
          0 0 0 0 0 0
          0 0 0 0 0 0
          0 0 0 0 0 0
          0 0 0 0
        </DataArray>
        <DataArray type="Float64" Name="combo" format="ascii" RangeMin="1" RangeMax="1">
          1 1 1 1 1 1
          1 1 1 1 1 1
          1 1 1 1 1 1
          1 1 1 1 1 1
          1 1 1 1 1 1
          1 1 1 1 1 1
          1 1 1 1 1 1
          1 1 1 1 1 1
          1 1 1 1 1 1
          1 1 1 1 1 1
          1 1 1 1 1 1
          1 1 1 1 1 1
          1 1 1 1 1 1
          1 1 1 1 1 1
          1 1 1 1 1 1
          1 1 1 1 1 1
          1 1 1 1 1 1
          1 1 1 1 1 1
          1 1 1 1 1 1
          1 1 1 1 1 1
          1 1 1 1 1 1
          1 1 1 1 1 1
          1 1 1 1 1 1
          1 1 1 1 1 1
          1 1 1 1 1 1
          1 1 1 1 1 1
          1 1 1 1 1 1
          1 1 1 1 1 1
          1 1 1 1 1 1
          1 1 1 1 1 1
          1 1 1 1 1 1
          1 1 1 1 1 1
          1 1 1 1 1 1
          1 1 1 1 1 1
          1 1 1 1 1 1
          1 1 1 1 1 1
          1 1 1 1 1 1
          1 1 1 1 1 1
          1 1 1 1 1 1
          1 1 1 1 1 1
          1 1 1 1 1 1
          1 1 1 1 1 1
          1 1 1 1 1 1
          1 1 1 1 1 1
          1 1 1 1 1 1
          1 1 1 1 1 1
          1 1 1 1 1 1
          1 1 1 1 1 1
          1 1 1 1 1 1
          1 1 1 1 1 1
          1 1 1 1 1 1
          1 1 1 1 1 1
          1 1 1 1 1 1
          1 1 1 1 1 1
          1 1 1 1 1 1
          1 1 1 1 1 1
          1 1 1 1 1 1
          1 1 1 1 1 1
          1 1 1 1 1 1
          1 1 1 1 1 1
          1 1 1 1 1 1
          1 1 1 1 1 1
          1 1 1 1 1 1
          1 1 1 1 1 1
          1 1 1 1
        </DataArray>
        <DataArray type="Float64" Name="dHdT" format="ascii" RangeMin="25.807665890241267" RangeMax="33.64653817450123">
          25.81146519479761 25.81146675667768 25.81147402866334 25.8114731687376 25.811538894526347 25.81153567316446
          25.81152425263202 25.811526031255006 25.811472022561297 25.81147678984622 25.81152670467383 25.81151945222203
          25.811478983548792 25.811480329018433 25.811516388499747 25.81151407366009 25.8114823847683 25.811482034444115
          25.81151124521479 25.81151140324428 25.811482078853615 25.811481864612013 25.8115110686656 25.811511285036428
          25.81148165755213 25.811481661111536 25.811511426553203 25.811511430353995 25.811481719871217 25.811481724032355
          25.81151134306072 25.811511340152848 25.81148175155071 25.811481751475014 25.81151129789057 25.811511298366778
          25.811481747067695 25.8114817471336 25.811511298781195 25.811511299032745 25.811481744375538 25.811481744428107
          25.81151130115231 25.811511301399083 25.811481300648996 25.811481142677593 25.811512832099574 25.811513167983666
          25.811481557131142 25.811512199770227 25.811481674488075 25.81151175882043 25.811481684119933 25.811511561273768
          25.811481650370403 25.81151150140726 25.811481664670943 25.811511434154795 25.81148172819349 25.811511337244983
          25.81148175139932 25.811511298842998 25.811481747199508 25.811511299284295 25.811481744480677 25.81151130164585
          25.81142257348825 25.811440971479563 25.81150004225638 25.811489779427347 25.811489002719142 25.811526168257444
          25.811541227945305 25.811553926041277 25.81156777953423 25.811568075648154 25.811570551509483 25.811569837468262
          25.811569646158347 25.811569655331798 25.811570159196172 25.811570178934254 25.811570414388903 25.811570415666118
          25.81157043321556 25.811570433993115 25.811570427602675 25.8115704281522 25.811559113033198 25.811556985366447
          25.811563333795743 25.81156662413725 25.81156837176207 25.81156912342704 25.811569664505246 25.811570198672335
          25.81157041694334 25.811570434770672 25.811570428701735 25.812398243025484 25.812298285203685 25.81200286966188
          25.812059426295136 25.81205009638217 25.81186522971746 25.811792765597513 25.811725214133418 25.811658675869865
          25.811651544659956 25.811635141363844 25.811636526925934 25.811634524568507 25.81163423652392 25.811631166566603
          25.81163105893601 25.811707454120086 25.811720609564794 25.81168036305275 25.811657662669322 25.81164441345005
          25.811637912488024 25.81163394847933 25.811630951305425 25.81162469069619 25.81162989720288 25.81165420920049
          25.811658469786142 25.811635103709573 25.811662730371793 25.811872061581692 25.812118181076713 25.8117914221214
          25.811906503856093 25.811950928102416 25.8118402624903 25.83710845682149 25.835159526636648 25.812149924205155
          25.811980273019234 32.12701801179851 25.92828350524907 25.81093260324996 25.811815473562977 25.848357577086034
          27.612758345981533 26.52803099980568 25.87582070645269 28.11047190378104 25.811872645748284 25.81185524372591
          25.811875591888807 25.811837841703536 25.811826373528376 25.81190959846463 25.812126701316885 25.811992823400878
          25.81139474417141 25.810828295673883 25.812140200606592 25.812425008873333 25.812577352426615 25.809993349020694
          25.80974474215797 25.812709817140075 25.810071139631784 25.809496135295245 25.812344285393472 25.81338526635542
          25.81624856810687 25.811998066079664 25.81179561636974 25.811460936154244 25.819111869858318 25.81159316665981
          27.6254835470624 26.627110963855124 25.910832174039285 30.936080945205738 28.05330952460897 25.992075715971833
          25.841926536549455 25.847180043761615 25.869227761138212 26.175143120090695 26.109044362735922 26.06153205837617
          26.119702522840523 25.852433550973775 26.014019754016424 26.06426192559035 27.589412353469694 27.199625226581734
          27.24919481225925 26.65551544288032 30.434321329569535 30.86127349911741 29.649673181198917 29.417135415650755
          27.511961581401998 27.54226514111842 32.91988448021783 31.175979982225094 30.70605849132584 28.12845297701305
          26.132686238330603 26.19349121607233 26.266001995916994 26.338025785721264 25.918502347407802 25.94615369231043
          25.991470790937647 26.399317753503393 26.48256035537019 25.973805037213054 25.815577628324682 25.82108442986288
          25.81186834424347 25.81086851374071 25.826591231401082 25.809868683237948 25.92561209114873 26.291547756395648
          26.225505230811734 26.159462705227817 27.30946342630669 25.896800027452947 25.89600547346157 26.23641984537953
          26.174849907347017 25.89521091947019 26.113279969314497 27.62486785420813 27.28569899406149 26.80001828932779
          29.76725959302668 29.03450150479527 27.566338848385897 29.9754745274519 30.063187338514354 29.20858100569257
          27.559451344915743 31.452678631918566 30.299458364494612 28.08454976541921 26.29970300083023 26.457998648389943
          26.06688588820622 26.129622315633437 26.085063016571954 26.616294295949654 26.192358743060655 26.24901860064378
          26.401751575438684 25.991042601133906 26.03857513391666 26.55448455023359 26.086107666699412 25.811629647350593
          25.811629673124823 25.81162940074831 25.81162944609352 25.81162938759217 25.81162943715409 25.811629698899047
          25.811629491438723 25.81162948671601 25.807665890241267 25.808202033256183 25.809686756022373 25.80937809161929
          25.809486084708524 25.810414496262965 25.81077086819038 25.811132116307338 25.8114589679892 25.811522656770897