<?xml version="1.0"?>
<VTKFile type="UnstructuredGrid" version="0.1" byte_order="LittleEndian" header_type="UInt32" compressor="vtkZLibDataCompressor">
  <UnstructuredGrid>
    <Piece NumberOfPoints="357" NumberOfCells="185">
      <PointData>
        <DataArray type="Int32" Name="libmesh_node_id" format="ascii" RangeMin="245" RangeMax="2808">
          364 370 518 540 542 543
          545 546 978 979 980 981
          982 983 984 986 987 1016
          1017 1018 1020 1021 1022 1023
          1024 1025 1026 1027 1028 1029
          1030 1031 1032 1033 1034 1035
          1069 1071 1073 1104 1106 1108
          1110 1200 1201 1204 1205 1207
          1209 1369 1370 1371 1372 1373
          1376 1377 1678 1679 1680 1681
          1682 1683 1684 1685 1686 1687
          1688 1823 1824 1825 1826 1827
          1828 1829 1830 1831 1832 1833
          1834 1835 1836 1837 1838 1839
          1840 1841 2006 2007 2010 2011
          2013 2015 2026 2028 2029 2030
          2032 2035 2040 2041 2042 2043
          2044 2045 2046 2047 2048 2049
          2050 2051 2054 2055 2057 2059
          2120 2121 2123 2138 2140 2148
          2149 2152 2154 2155 2157 2168
          2170 2172 2174 2250 2252 2253
          2254 2256 2264 2265 2266 2267
          2268 2269 2270 2273 2277 2278
          2280 2281 2282 2284 2292 2293
          2294 2295 2296 2297 2298 2301
          2305 2775 2776 2777 2778 2779
          2780 2781 2782 2783 2784 2785
          2786 2789 2790 2792 2794 2795
          2796 2797 2798 2799 2800 2801
          2802 2804 2806 2808 516 539
          537 517 538 544 295 575
          579 367 576 580 582 584
          744 747 750 749 510 513
          961 970 949 962 971 963
          974 512 967 985 976 515
          1002 1003 1015 1009 1011 1007
          521 1019 1013 522 1064 1068
          1065 1066 554 1067 1070 1202
          1203 1206 1208 759 1342 1339
          1374 1375 1378 555 1410 1422
          1435 1412 1043 1439 1413 1874
          1659 1875 2008 1876 2009 2012
          1879 1044 2014 1676 1912 1913
          2027 1916 1049 2031 2023 2025
          2033 2024 2034 2036 2037 2039
          2038 1072 2052 2053 2056 2058
          1769 2114 2115 1770 1000 1775
          2116 2117 1084 2122 2118 1772
          1001 2119 1085 2134 1784 1787
          2135 2139 2136 1785 2137 1088
          1801 1802 2150 2151 1804 2153
          245 1807 1090 2156 1006 1091
          1817 2169 1819 2171 1821 2173
          1093 2251 2255 2257 2259 2261
          2263 2271 2260 2272 2274 2275
          2276 1107 2279 2283 2285 2287
          2289 2291 2299 2300 2302 2303
          2304 560 2787 2788 2791 2793
          2803 2805 2807
        </DataArray>
        <DataArray type="Float64" Name="bounds" format="ascii" RangeMin="0" RangeMax="0">
          0 0 0 0 0 0
          0 0 0 0 0 0
          0 0 0 0 0 0
          0 0 0 0 0 0
          0 0 0 0 0 0
          0 0 0 0 0 0
          0 0 0 0 0 0
          0 0 0 0 0 0
          0 0 0 0 0 0
          0 0 0 0 0 0
          0 0 0 0 0 0
          0 0 0 0 0 0
          0 0 0 0 0 0
          0 0 0 0 0 0
          0 0 0 0 0 0
          0 0 0 0 0 0
          0 0 0 0 0 0
          0 0 0 0 0 0
          0 0 0 0 0 0
          0 0 0 0 0 0
          0 0 0 0 0 0
          0 0 0 0 0 0
          0 0 0 0 0 0
          0 0 0 0 0 0
          0 0 0 0 0 0
          0 0 0 0 0 0
          0 0 0 0 0 0
          0 0 0 0 0 0
          0 0 0 0 0 0
          0 0 0 0 0 0
          0 0 0 0 0 0
          0 0 0 0 0 0
          0 0 0 0 0 0
          0 0 0 0 0 0
          0 0 0 0 0 0
          0 0 0 0 0 0
          0 0 0 0 0 0
          0 0 0 0 0 0
          0 0 0 0 0 0
          0 0 0 0 0 0
          0 0 0 0 0 0
          0 0 0 0 0 0
          0 0 0 0 0 0
          0 0 0 0 0 0
          0 0 0 0 0 0
          0 0 0 0 0 0
          0 0 0 0 0 0
          0 0 0 0 0 0
          0 0 0 0 0 0
          0 0 0 0 0 0
          0 0 0 0 0 0
          0 0 0 0 0 0
          0 0 0 0 0 0
          0 0 0 0 0 0
          0 0 0 0 0 0
          0 0 0 0 0 0
          0 0 0 0 0 0
          0 0 0 0 0 0
          0 0 0 0 0 0
          0 0 0
        </DataArray>
        <DataArray type="Float64" Name="gradient_error" format="ascii" RangeMin="6.167203806461484e-10" RangeMax="1.5153110154922726e-7">
          4.023300620720741e-8 3.141202834685097e-8 2.9537560814255384e-8 2.3813437794277442e-8 3.3824645842075074e-8 1.752833277718547e-8
          1.5612217413335952e-8 3.956620047414264e-8 2.4759027040636898e-8 4.0050545683603965e-8 1.0808273110871986e-8 2.0485151910838526e-8
          1.9035967489368397e-8 2.890142210531095e-8 1.3199336553073683e-8 4.045810149420337e-8 4.44410095505571e-8 6.396166666521237e-8
          5.442353759671381e-8 2.759367639012536e-8 7.456800608797226e-8 6.156899922821872e-8 2.4526012472273372e-8 2.8479298806771518e-8
          2.3492089454440245e-8 3.2432585141269664e-8 2.1447563207577174e-8 2.461052146823669e-8 1.033288592027438e-8 1.2906144665077031e-8
          1.6599245207856936e-8 1.815144067255392e-8 1.0165055294833632e-8 2.7773479728896214e-8 1.4239893829324727e-8 1.9703636137250908e-8
          5.314344586654202e-9 5.057644514926591e-9 3.6100159747349724e-9 9.166814660195798e-9 3.3736191857228663e-9 1.1280561381202515e-8
          4.0131522165040935e-9 4.613596658958796e-9 3.536443275630543e-9 4.7693526857874285e-9 5.6633726939028845e-9 3.792584247110291e-9
          5.943461887800369e-9 4.510860809335651e-9 6.291468552792154e-9 4.671455451367136e-9 3.316074385416799e-9 4.640894355477965e-9
          2.4169582150530524e-9 3.286190043311255e-9 2.156443793214714e-9 2.5963173234309562e-9 2.23478403228731e-9 4.476341232753012e-9
          7.0755569262420876e-9 5.106223471030338e-9 1.039004115194173e-8 2.8234974606457355e-9 3.4757403833424287e-9 2.8842738397648972e-9
          4.971978920765817e-9 1.465125074888052e-8 1.0119514928940321e-8 1.8280547673820107e-8 6.6268107472659005e-9 4.263941454434926e-9
          7.951475579339362e-9 2.1341023642041484e-8 1.4449987977386596e-8 2.287799337094568e-8 8.92630498183442e-9 5.850169232463418e-9
          9.387305764029404e-9 2.0530223251550016e-9 2.460895638866346e-9 2.0770576662923433e-9 3.091503024872658e-9 3.4367721975046486e-9
          2.948276200432908e-9 3.5593072978416725e-9 1.779556779293375e-9 2.248318637557974e-9 1.5740475221302271e-9 1.938126801108402e-9
          3.870171452387578e-9 3.1563948631974913e-9 6.2263220100848254e-9 4.450402575568373e-9 3.3185867046016715e-9 9.337598451813497e-9
          6.533338508649719e-9 2.4800831941868693e-9 2.4170460179660473e-9 3.003614632492854e-9 1.7183789906945553e-9 2.185879991549268e-9
          1.976447121904758e-9 2.4382785429984103e-9 1.7075164778490367e-9 4.350326319216248e-9 3.2581956583180923e-9 3.077670299439283e-9
          1.2416715747150954e-9 1.601812384036829e-9 9.955456421136321e-10 1.2417112466825304e-9 2.435281533793603e-9 1.637315069208202e-9
          3.419109846400524e-8 3.452270436381934e-8 3.4301112966574594e-8 3.0884618574323066e-8 2.3824341374258042e-8 2.5948168807130445e-8
          2.8437920578306164e-8 3.3066884730309104e-8 2.0681848550626847e-8 2.4204451862404257e-8 3.107714067553336e-8 3.389530044380664e-8
          2.7851320070125903e-8 3.42401726175916e-8 2.9350022462426532e-8 1.3235665181187543e-8 9.028915318319803e-9 7.1184354640046635e-9
          1.6884729358306e-8 1.1315374349675502e-8 5.855577810981455e-9 4.489153277649138e-9 3.6771418437851267e-9 2.6960322470918862e-9
          7.156905133119847e-9 5.664791667003554e-9 4.53159951709803e-9 2.0047327861209264e-9 2.5347195128471133e-9 1.9844524021071093e-8
          1.3104171605720772e-8 1.070736222559375e-8 2.1145104395495342e-8 1.3886064027814499e-8 8.117464609323919e-9 6.535497197570754e-9
          5.1034645434191945e-9 3.842988191943422e-9 8.52180518295822e-9 6.856707292200471e-9 5.33156327309969e-9 2.909470137539556e-9
          3.0469326434401475e-9 1.8509964330555904e-9 2.165875995330243e-9 1.410734849994561e-9 1.6069172472497726e-9 1.5468022346108407e-9
          1.7513674003558993e-9 1.2189861922945909e-9 2.6863382470084685e-9 1.9639395622967806e-9 2.134636473935864e-9 1.0203016934231035e-9
          1.1623242677562173e-9 8.127867194334924e-10 8.720841419472793e-10 1.4225166128721098e-9 1.008826023743988e-9 3.0041002286293758e-9
          2.2153865098116465e-9 2.3987690559940076e-9 1.5812182106494775e-9 3.11627952084671e-9 2.3059935395347157e-9 2.4841977302172455e-9
          1.6095949639836702e-9 1.13221462940143e-9 1.6785035443124521e-9 1.1781587757759504e-9 7.508514646946799e-8 2.3642195798796178e-8
          7.628368186126622e-8 1.0211693956345535e-7 8.652147751633342e-8 9.817166659803651e-8 2.2177582199851237e-8 4.188230958331735e-9
          4.562534559629822e-9 2.7937545125873542e-8 4.555625482541195e-9 7.058271937102056e-9 5.816103056582574e-9 8.53223592613415e-9
          5.622594969168101e-8 2.32359751309965e-8 1.5137867254879913e-8 4.574884324731662e-8 7.198235540649116e-8 2.888603330944025e-8
          3.671629128984735e-8 3.197332225722992e-8 7.525877049301197e-8 6.400915361234529e-8 4.863583435101137e-8 3.17350307406119e-8
          3.6116120673759853e-8 9.668855466697505e-8 1.1174479431738172e-7 7.989676543327407e-8 9.069495878916135e-8 7.211214698880596e-8
          1.2468120708785056e-7 8.467066761333533e-8 1.229481922479904e-7 1.3381133634137856e-7 7.085648930464404e-8 1.1601637552785855e-7
          7.132596862367943e-8 1.414449179560037e-7 1.5153110154922726e-7 1.3134359834050194e-7 4.169063566744812e-9 5.004479971806049e-9
          3.677022768237931e-9 2.090743544634841e-9 3.4629207811452374e-9 1.8840591432836197e-9 2.661590623924472e-9 2.182762162777778e-9
          1.7533717258669496e-9 2.786340887087409e-9 1.9694445584346027e-9 3.55025203902649e-9 3.798687372354837e-9 5.979767996074139e-9
          1.5406913449811964e-9 2.1922088063337235e-9 1.3745789284647381e-9 1.9083796162677135e-9 5.714958840930216e-9 4.2445236506199715e-9
          2.988359795564984e-9 4.02252982578021e-9 3.4965081312362575e-9 2.305985080487698e-9 3.031775303707245e-9 2.2089109786505287e-9
          3.2769818895037226e-9 2.854919813585637e-9 1.192731498429816e-9 2.101291086567264e-9 1.6274865993460677e-9 1.3932425570394909e-9
          5.016417914937552e-9 3.7712499122366596e-9 2.842045923805878e-9 9.058706905882885e-9 8.12695133202448e-9 6.435724926462821e-9
          4.75971869265754e-9 1.2559077134203677e-8 1.0369549521464301e-8 7.442612810435016e-9 2.1060954723112033e-9 1.662915287258278e-9
          3.6410038256646377e-9 1.5407134716244726e-9 2.7266048462843808e-9 1.8259008479500727e-9 5.8719927667680724e-9 3.879145390260158e-9
          4.511645702371685e-9 2.9147477333042587e-9 8.926961945147555e-10 1.1631971951472103e-9 8.964100962198239e-10 1.7966922737074002e-9
          3.424753273494262e-8 3.2655382906898555e-8 3.179071733443661e-8 3.346360556381129e-8 3.450184537216865e-8 3.4699945507790996e-8
          2.983313467817072e-8 2.8843885903829332e-8 3.295177044796162e-8 3.3184687581002807e-8 2.9036441235663122e-8 3.14244943163939e-8
          5.8474641914164193e-8 2.5749943802545514e-8 3.233601173166245e-8 2.424414915766122e-8 2.5981140717599836e-8 3.306841151803714e-8
          2.0888775588891967e-8 2.800944581311631e-8 1.834611192820179e-8 1.9841049554180303e-8 1.55064726052162e-8 2.099589598486501e-8
          2.569512462906645e-8 2.8523039546529486e-8 2.5583930254532005e-8 2.7988613339831765e-8 3.309649527813777e-8 3.222637917698159e-8
          1.968712532821292e-8 2.412891338533987e-8 2.0238509266255327e-8 2.3647722256932064e-8 3.111907825198483e-8 3.051846326352498e-8
          3.488153729512872e-8 3.176006708088425e-8 3.123389600619234e-8 2.50613730634608e-8 3.4976015833883154e-8 3.2488320934758464e-8
          2.6477233257464e-8 1.0768212536470702e-8 1.4230119091686579e-8 8.743144451998268e-9 5.5974842850770845e-9 1.1762242843819957e-8
          7.353208522919575e-9 3.4206401372793907e-9 4.290724143668991e-9 2.5585341857823604e-9 1.4659924572599392e-9 4.386326090481382e-9
          3.3183997123187272e-9 1.8652313283488107e-9 1.6921112762471894e-8 1.7930774031607644e-8 1.4094882666839473e-8 8.68969587981174e-9
          1.4972715751936055e-8 9.189892393944965e-9 5.108005650728908e-9 3.894076197406754e-9 2.153188303444558e-9 5.376029520825189e-9
          4.108734990105639e-9 2.2592191050519404e-9 7.265817906092629e-10 8.316394320791278e-10 6.167203806461484e-10 1.0252264782793597e-9
          1.1640333103894162e-9 8.085839132168415e-10 1.2143107377691052e-9
        </DataArray>
        <DataArray type="Float64" Name="gradient_matprop_error" format="ascii" RangeMin="0" RangeMax="0">
          0 0 0 0 0 0
          0 0 0 0 0 0
          0 0 0 0 0 0
          0 0 0 0 0 0
          0 0 0 0 0 0
          0 0 0 0 0 0
          0 0 0 0 0 0
          0 0 0 0 0 0
          0 0 0 0 0 0
          0 0 0 0 0 0
          0 0 0 0 0 0
          0 0 0 0 0 0
          0 0 0 0 0 0
          0 0 0 0 0 0
          0 0 0 0 0 0
          0 0 0 0 0 0
          0 0 0 0 0 0
          0 0 0 0 0 0
          0 0 0 0 0 0
          0 0 0 0 0 0
          0 0 0 0 0 0
          0 0 0 0 0 0
          0 0 0 0 0 0
          0 0 0 0 0 0
          0 0 0 0 0 0
          0 0 0 0 0 0
          0 0 0 0 0 0
          0 0 0 0 0 0
          0 0 0 0 0 0
          0 0 0 0 0 0
          0 0 0 0 0 0
          0 0 0 0 0 0
          0 0 0 0 0 0
          0 0 0 0 0 0
          0 0 0 0 0 0
          0 0 0 0 0 0
          0 0 0 0 0 0
          0 0 0 0 0 0
          0 0 0 0 0 0
          0 0 0 0 0 0
          0 0 0 0 0 0
          0 0 0 0 0 0
          0 0 0 0 0 0
          0 0 0 0 0 0
          0 0 0 0 0 0
          0 0 0 0 0 0
          0 0 0 0 0 0
          0 0 0 0 0 0
          0 0 0 0 0 0
          0 0 0 0 0 0
          0 0 0 0 0 0
          0 0 0 0 0 0
          0 0 0 0 0 0
          0 0 0 0 0 0
          0 0 0 0 0 0
          0 0 0 0 0 0
          0 0 0 0 0 0
          0 0 0 0 0 0
          0 0 0 0 0 0
          0 0 0
        </DataArray>
        <DataArray type="Float64" Name="initial_marker" format="ascii" RangeMin="0" RangeMax="2">
          0 2 1.25 0 0 0
          0 0 1 1.5 0.3333333333333333 1.25
          0 1 0.3333333333333333 2 2 2
          2 2 2 2 1 1
          0 1 1 1 0.3333333333333333 0.5
          0 0 0 1 0.5 0
          0 2 1 2 2 2
          2 0 0 0 0 0
          0 0 0 0 0 0
          0 0 0 0.5 0 1.5
          2 2 2 1 1.5 1
          2 2 2 2 2 1.5
          2 2 2 2 2 2
          2 0 0.5 0 1 1
          0 1 0 0.5 0 0
          1.5 1.3333333333333333 2 2 2 2
          2 2 1 1.5 1 1.5
          0 1 1 2 2 1.3333333333333333
          1 1.5 0 1 2 1.3333333333333333
          2 2 2 2 2 2
          2 2 2 2 2 2
          2 2 2 2 2 2
          2 2 2 2 1.5 1.5
          2 2 2 1.5 2 2
          2 2 2 2 2 2
          2 2 2 2 2 2
          2 0 0.5 0 0.5 0
          0 0 1 1 0 0
          0.5 0 0 1 0 1
          1 0 0 1 1 0
          1 0 1 0 0 0
          0 1.5 0.25 0.5 0 0
          0 0 0 0 0 0
          0 0 0 0 1 0.5
          2 1 2 2 1.5 2
          1 2 2 2 2 2
          2 2 2 2 2 2
          2 2 2 2 0 0
          1 0 0 0.75 0 0
          0 0 0 0 0 0
          0 0 0 0.75 0 0
          0 0 0 0 0 0
          1 1 0 1 0.5 0
          2 2 1.5 2 2 2
          2 2 2 2 1.5 1.3333333333333333
          2 1.5 2 1.75 2 2
          2 2 0.5 1 0.5 1.75
          2 2 2 2 2 2
          2 2 2 2 2 2
          2 2 2 2 2 2
          2 2 2 2 2 2
          2 2 2 2 2 2
          2 2 2 2 2 2
          2 2 2 2 2 2
          2 2 2 2 2 2
          2 2 2 2 1.5 2
          2 2 2 2 2 2
          2 2 2 2 2 2
          2 2 0 0.5 0 1
          1 0 1
        </DataArray>
        <DataArray type="Float64" Name="markers_norefine" format="ascii" RangeMin="0" RangeMax="2">
          0 0 0 0 0 0
          0 0 0 0 0 0
          0 0 0 0 0 0
          0 0 0 0 0 0
          0 0 0 0 0 0
          0 0 0 0 0 0
          0 0 0 0 0 0
          0 0 0 0 0 0
          0 0 0 0 0 0
          0 0 0 0 0 0
          0 0 0 0 0 0
          0 0 0 0 0 0
          0 0 0 0 0 0
          0 0 0 0 0 0
          0 0 0 0 0 0
          0 0 0 0 0 0
          0 0 0 0 0 0
          0 0 0 0 0 0
          0 0 0 0 0 0
          1.5 1.25 0.75 0.25 0 2
          2 1.75 2 2 2 0.75
          0 1 0 0 0 0
          0 0 0 0 0 0
          0 0 0 0 0 0
          0 0 0 0 0 0
          0 0 0 0 0 0
          0 0 0 0 0 0
          0 0 0 0 0 0
          0 0 0 0 0 0
          0 0 0 0 0 0
          0 0 0 0 0 0
          0 0 0 0 0 0
          0 0 0 0 0 0
          0 0 0 0 0 0
          0 0 0 0 0 0
          0 0 0 0 0 0
          0.25 0 0 0 0 1
          0.5 0 0 0 0 0
          0 0 0 0 0 0
          0 0 0 0 0 0
          0 0 0 0 0 0
          0 0 0 0 0 0
          0 0 0 0 0 0
          0 0 0 0 0 0
          0 0 0 0 0 0
          0 0 0 0 0 0
          0 0 0 0 0 0
          1 0.5 0.25 0.75 2 1.75
          0 0 1 1 0 0.3333333333333333
          1.25 0 0.5 0 0 0.6666666666666666
          0 0 0 0 0 0
          2 2 2 2 2 1.25
          2 2 2 2 2 1.5
          1.25 0.25 0.3333333333333333 0 1.5 0.5
          0 0 0 0 0 0
          0 0 0 0 0 0
          0 0 0 0 0 0
          0 0 0 0 0 0
          0 0 0 0 0 0
          0 0 0
        </DataArray>
        <DataArray type="Float64" Name="markers_mustrefine" format="ascii" RangeMin="0" RangeMax="2">
          0 2 1.25 0 0 0
          0 0 1 1.5 0.3333333333333333 1.25
          0 1 0.3333333333333333 2 2 2
          2 2 2 2 1 1
          0 1 1 1 0.3333333333333333 0.5
          0 0 0 1 0.5 0
          0 2 1 2 2 2
          2 0 0 0 0 0
          0 0 0 0 0 0
          0 0 0 0.5 0 1.5
          2 2 2 1 1.5 1
          2 2 2 2 2 1.5
          2 2 2 2 2 2
          2 0 0.5 0 1 1
          0 1 0 0.5 0 0
          1.5 1.3333333333333333 2 2 2 2
          2 2 1 1.5 1 1.5
          0 1 1 2 2 1.3333333333333333
          1 1.5 0 1 2 1.3333333333333333
          2 2 2 2 2 2
          2 2 2 2 2 2
          2 2 2 2 2 2
          2 2 2 2 1.5 1.5
          2 2 2 1.5 2 2
          2 2 2 2 2 2
          2 2 2 2 2 2
          2 0 0.5 0 0.5 0
          0 0 1 1 0 0
          0.5 0 0 1 0 1
          1 0 0 1 1 0
          1 0 1 0 0 0
          0 1.5 0.25 0.5 0 0
          0 0 0 0 0 0
          0 0 0 0 1 0.5
          2 1 2 2 1.5 2
          1 2 2 2 2 2
          2 2 2 2 2 2
          2 2 2 2 0 0
          1 0 0 0.75 0 0
          0 0 0 0 0 0
          0 0 0 0.75 0 0
          0 0 0 0 0 0
          1 1 0 1 0.5 0
          2 2 1.5 2 2 2
          2 2 2 2 1.5 1.3333333333333333
          2 1.5 2 1.75 2 2
          2 2 0.5 1 0.5 1.75
          2 2 2 2 2 2
          2 2 2 2 2 2
          2 2 2 2 2 2
          2 2 2 2 2 2
          2 2 2 2 2 2
          2 2 2 2 2 2
          2 2 2 2 2 2
          2 2 2 2 2 2
          2 2 2 2 1.5 2
          2 2 2 2 2 2
          2 2 2 2 2 2
          2 2 0 0.5 0 1
          1 0 1
        </DataArray>
        <DataArray type="Float64" Name="gradient_marker" format="ascii" RangeMin="0" RangeMax="1">
          0.75 0.75 0.625 0.625 0 0.5
          0.5 0 0 0.125 0.6666666666666666 0.5
          0 0 0.6666666666666666 0.625 0.16666666666666666 0.875
          0.375 0.625 1 0.5 0 0
          0 0 0 0 0.6666666666666666 0.5
          0 0 0.5 0 0.5 0
          1 1 1 1 1 1
          1 1 1 1 1 1
          1 1 1 1 1 1
          1 1 1 1 1 1
          1 1 1 1 1 1
          1 1 1 1 1 1
          1 1 1 1 1 1
          1 1 1 1 1 1
          1 1 1 1 1 1
          1 1 1 1 1 1
          1 1 1 1 1 1
          1 1 1 1 1 1
          1 1 1 1 1 1
          1 1 1 1 1 1
          1 1 1 1 1 1
          1 1 1 1 1 1
          1 1 1 1 1 1
          1 1 1 1 1 1
          1 1 1 1 1 1
          1 1 1 1 1 1
          1 1 1 1 1 1
          1 1 1 1 1 1
          1 1 1 1 1 1
          1 1 1 1 1 1
          1 1 1 1 0.5 0.8333333333333334
          0.5 0.625 0.375 0.25 0.75 1
          1 0.875 1 1 1 1
          0.375 0.625 0.6666666666666666 0.25 0.375 0.625
          0 0 0.5 0.375 0.25 0.625
          0 0.75 0.75 0.5 0.75 0.875
          0.625 0.875 0.875 1 0.6666666666666666 0.5
          0.75 1 1 0.75 1 1
          1 1 1 1 1 1
          1 1 1 1 1 1
          1 1 1 1 1 1
          1 1 1 1 1 1
          1 1 1 1 1 1
          1 1 1 1 1 1
          1 1 1 1 1 1
          1 1 1 1 1 1
          1 1 1 1 1 1
          0.5 1 1 0.5 0.5 0.5
          1 1 1 1 1 0.6666666666666666
          0.625 1 1 1 1 0.6666666666666666
          1 1 1 1 1 1
          0.5 0.5 1 1 0.5 1
          0.5 0.5 1 1 0.5 1
          0.5 1 0.6666666666666666 1 0.5 1
          1 1 1 1 1 1
          1 1 1 1 1 1
          1 1 1 1 1 1
          1 1 1 1 1 1
          1 1 1 1 1 1
          1 1 1
        </DataArray>
        <DataArray type="Float64" Name="gradient_matprop_marker" format="ascii" RangeMin="0" RangeMax="0">
          0 0 0 0 0 0
          0 0 0 0 0 0
          0 0 0 0 0 0
          0 0 0 0 0 0
          0 0 0 0 0 0
          0 0 0 0 0 0
          0 0 0 0 0 0
          0 0 0 0 0 0
          0 0 0 0 0 0
          0 0 0 0 0 0
          0 0 0 0 0 0
          0 0 0 0 0 0
          0 0 0 0 0 0
          0 0 0 0 0 0
          0 0 0 0 0 0
          0 0 0 0 0 0
          0 0 0 0 0 0
          0 0 0 0 0 0
          0 0 0 0 0 0
          0 0 0 0 0 0
          0 0 0 0 0 0
          0 0 0 0 0 0
          0 0 0 0 0 0
          0 0 0 0 0 0
          0 0 0 0 0 0
          0 0 0 0 0 0
          0 0 0 0 0 0
          0 0 0 0 0 0
          0 0 0 0 0 0
          0 0 0 0 0 0
          0 0 0 0 0 0
          0 0 0 0 0 0
          0 0 0 0 0 0
          0 0 0 0 0 0
          0 0 0 0 0 0
          0 0 0 0 0 0
          0 0 0 0 0 0
          0 0 0 0 0 0
          0 0 0 0 0 0
          0 0 0 0 0 0
          0 0 0 0 0 0
          0 0 0 0 0 0
          0 0 0 0 0 0
          0 0 0 0 0 0
          0 0 0 0 0 0
          0 0 0 0 0 0
          0 0 0 0 0 0
          0 0 0 0 0 0
          0 0 0 0 0 0
          0 0 0 0 0 0
          0 0 0 0 0 0
          0 0 0 0 0 0
          0 0 0 0 0 0
          0 0 0 0 0 0
          0 0 0 0 0 0
          0 0 0 0 0 0
          0 0 0 0 0 0
          0 0 0 0 0 0
          0 0 0 0 0 0
          0 0 0
        </DataArray>
        <DataArray type="Float64" Name="combo" format="ascii" RangeMin="0" RangeMax="2">
          0.75 0.75 0.625 0.625 0 0.5
          0.5 0 0 0.125 0.6666666666666666 0.5
          0 0 0.6666666666666666 0.625 0.16666666666666666 0.875
          0.375 0.625 1 0.5 0 0
          0 0 0 0 0.6666666666666666 0.5
          0 0 0.5 0 0.5 0
          1 1 1 1 1 1
          1 1 1 1 1 1
          1 1 1 1 1 1
          1 1 1 1 1 1
          1 1 1 1 1 1
          1 1 1 1 1 1
          1 1 1 1 1 1
          1 1 1 1 1 1
          1 1 1 1 1 1
          1 1 1 1 1 1
          1 1 1 1 1 1
          1 1 1 1 1 1
          1 1 1 1 1 1
          1.75 1.625 1.375 1.125 1 2
          2 1.875 2 2 2 1.375
          1 1.5 1 1 1 1
          1 1 1 1 1 1
          1 1 1 1 1 1
          1 1 1 1 1 1
          1 1 1 1 1 1
          1 1 1 1 1 1
          1 1 1 1 1 1
          1 1 1 1 1 1
          1 1 1 1 1 1
          1 1 1 1 0.5 0.8333333333333334
          0.5 0.625 0.375 0.25 0.75 1
          1 0.875 1 1 1 1
          0.375 0.625 0.6666666666666666 0.25 0.375 0.625
          0 0 0.5 0.375 0.25 0.625
          0 0.75 0.75 0.5 0.75 0.875
          0.875 0.875 0.875 1 0.6666666666666666 1.5
          1.25 1 1 0.75 1 1
          1 1 1 1 1 1
          1 1 1 1 1 1
          1 1 1 1 1 1
          1 1 1 1 1 1
          1 1 1 1 1 1
          1 1 1 1 1 1
          1 1 1 1 1 1
          1 1 1 1 1 1
          1 1 1 1 1 1
          1.25 1.25 1.125 1.125 2 1.875
          1 1 1.5 1.5 1 1
          1.625 1 1.25 1 1 1.1666666666666667
          1 1 1 1 1 1
          2 2 2 2 2 1.625
          2 2 2 2 2 1.75
          1.5 1.125 1 1 1.75 1.25
          1 1 1 1 1 1
          1 1 1 1 1 1
          1 1 1 1 1 1
          1 1 1 1 1 1
          1 1 1 1 1 1
          1 1 1
        </DataArray>
        <DataArray type="Float64" Name="dHdT" format="ascii" RangeMin="25.84787861250553" RangeMax="55.992718479707946">
          26.25078150901531 28.72544864308728 27.341664013038304 26.14732325321676 26.124793617497964 25.973874829537436
          26.19612813342672 26.18527346105255 27.214591527394553 28.236694690047067 26.516986198026284 27.398487490316793
          26.878833124037804 27.48157948974706 26.668927281926518 29.362096829306033 28.600316813546545 32.130742386794076
          29.463128953708797 28.29139047295972 33.56926057763933 30.06794561482594 27.33980015723111 27.54132370926266
          26.87276425290249 27.74284726129421 27.099193174982652 27.255269637679476 26.497803701143088 26.716592581312852
          26.609254097297956 26.678043423312964 26.352314011216276 27.411346100376296 26.806652894669078 26.746832749327965
          26.223136125825548 27.589223971362607 26.543964909120806 29.29294135689208 27.003294812447947 30.409960453434408
          27.225119875849806 26.159719977159646 26.24234443033094 26.06554202725666 26.125819381682355 26.291814522069973
          26.15339304747925 26.078645322276365 26.165674813783347 26.062394752479754 26.01331482503906 26.076567998832772
          25.966889400378456 25.99986386950316 26.596025505927017 26.82221020162227 26.705754613569262 27.442544355116347
          28.45891900053286 27.684363577268634 30.11405377870595 26.894417111366458 27.11999076733919 26.886210952303472
          27.639064487708847 32.467244002513645 29.8931228340208 34.56405233046206 28.284264925903507 27.365022274802485
          28.935424221518893 35.64846117580762 32.37674853702636 35.95634232645705 29.438426188405785 27.943378823516415
          29.641969233475038 26.73142045268997 26.81620403463408 26.619462632484385 26.971583139823725 27.08671014249522
          26.781447158440727 27.13124162192117 26.48143908537948 26.67988151092741 26.41477464396855 26.581040820494334
          27.216977392752852 26.97507696472988 28.097982937497406 27.42649002491427 26.984957083725643 29.5211108888542
          28.235547441479643 26.664473892881663 26.739576755869393 26.93698213995664 26.47443171873359 26.623030453612582
          26.59322979228321 26.734540399940588 26.474263785392854 27.392878708780994 26.96709654905957 26.954759700667637
          26.284780181002787 26.395332203205204 26.205931398327657 26.28568976702858 26.652276495941948 26.41069610892598
          52.31189647914945 51.157668481472975 47.15020984900196 41.02137791102399 36.573899739171814 50.85271726330209
          52.83848577260309 53.22355994445482 46.13274851270336 50.48454312264644 54.35156582662184 46.37110040281847
          38.79603390357772 48.57938679614827 39.992588080820326 31.603861090856846 29.330196673929322 28.384198821286244
          33.66141323004601 30.563431108022183 27.9547445691793 27.38682849245664 27.15318347330867 26.787694735782438
          28.526215440013555 27.818860876087818 27.44448204650766 26.518500825995673 26.680748580286362 34.892438183503714
          31.56001905040703 30.084425934449232 35.267885336885136 31.94649245091282 28.9699894879155 28.1561859727456
          27.65680275120491 27.165018015453718 29.145667340644398 28.285743268601273 27.736794308809365 26.80368524582604
          26.849554887546493 26.601366352402433 26.67374724591173 26.375135397811125 26.428643657267713 26.458618071372953
          26.498033877381584 26.293815399260374 26.809690609160178 26.532216244717276 26.576789378876743 26.210654765852514
          26.25147210900476 26.125365623433893 26.15230908660725 26.33038853430067 26.204450824704224 26.912404114396207
          26.61204490434699 26.643287359882944 26.410668001799582 26.951555149893093 26.641809235983736 26.670445645402616
          26.39119820682294 26.244625132955527 26.413908797201554 26.259601166283215 26.84955006754897 26.03800466353654
          26.43739730308326 28.848335546542373 26.68282035793195 26.977364092829387 25.92708182303389 25.87183506543593
          25.857138982788584 25.88510702941113 25.90980650222673 25.879764869261617 25.942215572154876 25.892233183547944
          26.30937978469532 26.052229717394848 25.966989632999443 26.212000251112677 27.679190066942844 26.764460867400643
          27.94110800524112 27.70281471255222 30.879680860234977 29.87298353491024 29.03391471093431 28.636255716129888
          28.062383827871678 34.8275860088269 34.21507816318656 30.709632221670297 32.00035907261239 33.156610299513254
          40.72232576412037 38.36665293689627 33.854124823699465 35.50942661149789 31.063590168211864 45.85754868919708
          42.88422594150225 35.54778305675792 37.38314978708739 31.02415789624075 26.142750908244572 26.096739558171958
          26.54296945633384 25.97551702094687 25.93670076685848 26.184151991024056 26.015905743022806 25.983328495702345
          26.031599192273184 25.975364348951178 26.06079977064788 25.856959896659 25.84787861250553 25.86662624222457
          25.91389801890642 25.943016737804506 25.906502521229093 26.182330466208676 26.13422424959844 26.050954315459776
          25.99626452814247 26.05903216500964 26.265998003669615 25.97043929878936 26.021544219214825 26.618745322697812
          27.060040106609087 26.88565652279752 26.28750891826154 26.5866240263614 26.43500225226489 26.36424711869548
          27.636021237723725 27.14226104277894 26.830577412859366 29.449193687028107 28.95877198029943 28.123384535350993
          27.483594697485472 31.298535247009028 29.89531115369335 28.521970382631626 26.549655502733085 26.41526187071342
          27.039221978670643 26.33853120324425 26.701197064291108 26.42358870181671 27.812264902765612 27.118182035677986
          27.27405603668054 26.760368937992695 26.145107801085036 26.225370308709614 26.145028070405633 26.41403385719717
          45.64412773144305 42.96205542202571 41.93320589714777 44.69399040227691 52.76177192262202 52.785883313290945
          40.00725488267976 39.10977868344267 49.795204537135234 48.06909814605919 39.23494559182748 42.034715304913824
          49.75069573372848 37.01015753977386 43.446727296401505 36.45647210466243 37.31279741588049 44.648927199346815