<?xml version="1.0"?>
<VTKFile type="UnstructuredGrid" version="0.1" byte_order="LittleEndian" header_type="UInt32" compressor="vtkZLibDataCompressor">
  <UnstructuredGrid>
    <Piece NumberOfPoints="421" NumberOfCells="179">
      <PointData>
        <DataArray type="Int32" Name="libmesh_node_id" format="ascii" RangeMin="115" RangeMax="2753">
          115 116 117 118 119 120
          129 130 131 146 147 148
          149 150 151 152 153 161
          162 163 164 179 180 181
          182 183 184 185 186 194
          195 196 197 212 213 214
          215 216 217 218 219 227
          228 229 230 246 247 248
          249 250 251 252 260 261
          262 263 287 289 292 295
          297 298 299 300 301 302
          303 304 305 306 308 309
          310 311 312 313 314 315
          316 317 318 319 320 321
          322 323 324 367 376 378
          379 381 384 386 387 388
          389 390 391 392 393 394
          395 396 397 398 399 404
          405 409 412 414 415 416
          417 418 419 420 421 422
          423 428 429 433 436 438
          439 440 441 442 443 444
          445 446 447 539 570 585
          586 587 588 589 590 591
          592 593 594 597 598 606
          607 608 612 613 614 615
          616 617 618 619 620 621
          622 641 646 657 658 661
          662 663 664 665 666 667
          668 669 670 671 672 673
          674 675 676 677 678 679
          680 681 682 683 684 685
          686 765 768 770 771 772
          773 774 775 776 777 778
          779 780 781 782 783 784
          785 786 787 788 789 790
          791 792 793 794 795 796
          797 798 799 800 1141 1158
          1159 1160 1161 1162 1164 1165
          1194 1195 1196 1199 1220 1221
          1222 1223 1224 1225 1226 1227
          1228 1229 1244 1246 1248 1294
          1295 1296 1297 1298 1299 1300
          1301 1302 1303 1304 1305 1306
          1307 1338 1339 1340 1341 1343
          1345 1346 1347 1348 1349 1350
          1351 1352 1353 1354 1355 1356
          1357 1358 1359 1360 1361 1362
          1363 1364 1365 1366 1367 1368
          1386 1387 1388 1389 1390 1391
          1392 1393 1394 1395 1396 1397
          1398 1399 1400 1401 1402 1403
          1404 1405 1406 1460 1461 1462
          1463 1464 1467 1470 1471 1474
          1475 1476 1477 1478 1479 1480
          1481 1482 1483 1484 2744 2745
          2746 2747 2748 2749 2750 2752
          2753 380 385 642 659 660
          643 372 373 362 761 762
          763 766 767 764 755 757
          769 760 562 565 568 569
          577 578 581 583 377 1146
          1148 1150 1147 1149 1152 1151
          1139 1156 1140 1157 1154 1163
          1193 758 750 759 1342 1344
          575 579 375 1458 1459 1381
          1382 1385 1155 1466 1465 1212
          1213 1468 1216 1469 1218 1472
          1473 1189 2531 2691 2678 2729
          2692 2730 2695 1187 2733 2751
          2697
        </DataArray>
        <DataArray type="Float64" Name="bounds" format="ascii" RangeMin="0" RangeMax="0">
          0 0 0 0 0 0
          0 0 0 0 0 0
          0 0 0 0 0 0
          0 0 0 0 0 0
          0 0 0 0 0 0
          0 0 0 0 0 0
          0 0 0 0 0 0
          0 0 0 0 0 0
          0 0 0 0 0 0
          0 0 0 0 0 0
          0 0 0 0 0 0
          0 0 0 0 0 0
          0 0 0 0 0 0
          0 0 0 0 0 0
          0 0 0 0 0 0
          0 0 0 0 0 0
          0 0 0 0 0 0
          0 0 0 0 0 0
          0 0 0 0 0 0
          0 0 0 0 0 0
          0 0 0 0 0 0
          0 0 0 0 0 0
          0 0 0 0 0 0
          0 0 0 0 0 0
          0 0 0 0 0 0
          0 0 0 0 0 0
          0 0 0 0 0 0
          0 0 0 0 0 0
          0 0 0 0 0 0
          0 0 0 0 0 0
          0 0 0 0 0 0
          0 0 0 0 0 0
          0 0 0 0 0 0
          0 0 0 0 0 0
          0 0 0 0 0 0
          0 0 0 0 0 0
          0 0 0 0 0 0
          0 0 0 0 0 0
          0 0 0 0 0 0
          0 0 0 0 0 0
          0 0 0 0 0 0
          0 0 0 0 0 0
          0 0 0 0 0 0
          0 0 0 0 0 0
          0 0 0 0 0 0
          0 0 0 0 0 0
          0 0 0 0 0 0
          0 0 0 0 0 0
          0 0 0 0 0 0
          0 0 0 0 0 0
          0 0 0 0 0 0
          0 0 0 0 0 0
          0 0 0 0 0 0
          0 0 0 0 0 0
          0 0 0 0 0 0
          0 0 0 0 0 0
          0 0 0 0 0 0
          0 0 0 0 0 0
          0 0 0 0 0 0
          0 0 0 0 0 0
          0 0 0 0 0 0
          0 0 0 0 0 0
          0 0 0 0 0 0
          0 0 0 0 0 0
          0 0 0 0 0 0
          0 0 0 0 0 0
          0 0 0 0 0 0
          0 0 0 0 0 0
          0 0 0 0 0 0
          0 0 0 0 0 0
          0
        </DataArray>
        <DataArray type="Float64" Name="gradient_error" format="ascii" RangeMin="2.040297064549055e-12" RangeMax="2.7937545125873542e-8">
          2.4007280769958123e-10 2.402665546781889e-10 2.369557727299374e-10 2.3731387370112923e-10 2.369989379705715e-10 2.37395560593227e-10
          2.4046030165679656e-10 2.3767197467232106e-10 2.3779218321588244e-10 4.957219053860081e-10 5.141475355114605e-10 2.4982377826294657e-10
          2.557098666200713e-10 2.415927150100377e-10 2.4410797873459765e-10 2.440023400685714e-10 2.459339736603825e-10 5.325731656369127e-10
          2.6159595497719595e-10 2.4662324245915764e-10 2.4786560725219367e-10 4.823628203157442e-10 1.0988077774072591e-9 2.1674131395680883e-10
          3.38534665567207e-10 2.7143180196106446e-10 2.725083574164895e-10 2.654917263055212e-10 2.660985700426495e-10 1.6636746355116782e-9
          4.4987378568300373e-10 2.735849128719145e-10 2.6670541377977785e-10 1.323614161641888e-9 4.392203202514259e-9 1.0608365541266634e-10
          2.986517751424032e-10 1.81799561901176e-10 2.0045144109346695e-10 1.9901073152585925e-10 1.961152057321278e-10 1.4252280469089589e-9
          3.678000815079689e-10 2.184747866053864e-10 1.9321967993839635e-10 1.4746426603953124e-9 3.8401867197190796e-12 1.0387809891343537e-10
          6.701812647694469e-11 1.0883480952155699e-10 1.195969881202908e-10 1.1566130605499768e-10 1.5264320987515969e-10 1.1291413247290441e-10
          1.4655513474721477e-10 1.1172562398970457e-10 4.39351476498627e-9 2.1936238206722264e-8 3.999518549578127e-9 2.2177582199851237e-8
          1.6574336357681103e-10 6.781466769838334e-10 2.531229689482259e-10 8.151315419614341e-10 1.0195525717992107e-10 2.6246825658538243e-11
          7.618641545259626e-11 8.581481655364385e-10 6.822227485409631e-10 1.2197458318855327e-10 7.781457839568299e-10 4.483852456183427e-11
          3.3935309461589497e-10 3.407454519260606e-11 3.240524157028027e-11 2.1435910757670832e-11 2.8473612135546663e-11 1.9412587010596133e-11
          1.6297392241725845e-11 1.8974104831574616e-11 3.073593794795447e-11 3.455524842471232e-11 2.1650817421423384e-11 8.030758026521813e-12
          2.5019426527555774e-11 1.85356226525531e-11 3.837455890147017e-11 2.7937545125873542e-8 2.746734912799482e-10 1.4013718717775174e-10
          1.5090831560165841e-9 6.047370023234736e-10 7.909891495019152e-11 4.8451497285924384e-11 7.68960528829253e-11 1.4948478175539207e-11
          5.383569076310302e-11 2.6485030864661698e-11 1.0064513131809592e-11 2.080516026191583e-11 1.1134648364457105e-10 1.2639088572666183e-10
          3.9669060550562224e-11 3.5796602841443697e-12 2.410516982525846e-11 1.87413220086869e-11 1.2349121462519044e-10 4.395710325771018e-10
          5.518772396469238e-10 2.1192186158313828e-10 6.641834467167461e-10 1.741622149388621e-10 1.6551649507819916e-10 1.0968761570982989e-10
          9.681283213468266e-11 9.206472521882207e-11 8.245555384008412e-11 4.847950681195621e-11 1.5687077521753623e-10 8.393804855953545e-11
          7.284638246134615e-11 5.069763516689227e-9 8.857003045093616e-9 1.7671795531437758e-9 1.2644242573498005e-8 1.8835502414300327e-9
          2.817253073374654e-9 4.980552124026975e-10 6.959153303956599e-10 6.526265275140097e-10 8.249640726125943e-10 3.591460852862918e-10
          3.750955905319276e-9 8.937754483886224e-10 9.973016177111789e-10 2.3642195798796178e-8 9.056502153952943e-11 2.89647317374049e-11
          2.831410056064667e-11 9.197777361509006e-12 1.2366589068354728e-11 1.4499255778094083e-11 6.905422589303505e-12 1.0007066691128193e-11
          3.3360524872547385e-11 3.315766859079933e-11 1.7009782140608075e-11 8.37410758001239e-12 3.634280786205599e-11 3.4329049114063825e-10
          1.0684387068186623e-9 1.1149375468990948e-9 1.1614363869795274e-9 4.882599699531314e-11 8.532277007089237e-11 1.458971567869415e-10
          1.951359191135159e-10 6.017400780096033e-11 4.216640885211381e-11 7.726144830518262e-11 1.218195431464716e-10 2.443746814400903e-10
          1.1235648775825143e-10 1.0746708312970686e-9 2.0250305872718193e-9 1.940877942192143e-10 3.184268030027975e-10 1.1997600499070153e-10
          2.627275579864063e-10 2.734011472507458e-10 4.4276581178638066e-10 6.539669490991942e-10 2.840747365150854e-10 3.6053739651435404e-11
          3.855461531160556e-11 5.589131636024921e-11 5.607561284969606e-11 2.113752271059277e-11 2.0880993222473087e-11 2.734251737226544e-11
          4.105549097177573e-11 5.625990933914291e-11 3.38040415220578e-11 1.0499864928072518e-10 1.3952644177246568e-10 4.543344215105962e-11
          5.183391020980502e-11 8.526927343015141e-11 1.1734175232566474e-10 4.749925980039478e-11 1.7405423426420615e-10 5.823437826855042e-11
          1.4941423122117806e-10 7.206753576478397e-11 2.0482308250081845e-10 1.205369015304103e-10 3.382185528072484e-10 3.5250560278319475e-10
          1.7241726833601807e-10 1.5360232134330276e-10 3.703085390764231e-10 5.341042762767697e-10 1.7934013564332724e-10 3.8064520570158964e-10
          1.3470422096192427e-10 6.215823417053579e-10 2.619387671653307e-11 2.6164931561573887e-11 3.548290041057821e-11 3.426533985524575e-11
          1.900323735908491e-11 1.6009654051717967e-11 1.9505958086063776e-11 2.6135986406614704e-11 3.30477792999133e-11 2.3002262120409585e-11
          4.6588207052377564e-11 5.261622522303863e-11 3.3970747620499066e-11 3.3944130258339124e-11 4.763234439794168e-11 5.441158976212605e-11
          4.307884239426646e-11 5.86442433936997e-11 3.391751289617918e-11 6.119083512631042e-11 4.0449767223629275e-11 2.6819704065239342e-11
          3.8751604100643915e-11 5.657424792159943e-11 8.192941394389746e-11 3.0710538134119145e-11 4.3221390796527866e-11 8.277173775237757e-11
          4.528273694634613e-11 8.547637928224916e-11 6.618333868280294e-11 9.947696099152308e-11 1.6001158358997487e-11 1.494237191436985e-11
          1.2305778137672587e-11 1.674662007182304e-11 9.920637632491111e-12 1.1519512054662672e-11 1.1160005737439348e-11 1.2946485474831561e-11
          1.8362468297926195e-11 9.803298873233074e-12 1.538461307903237e-11 1.034257488171938e-11 1.675427638748416e-11 4.9623947907496095e-12
          6.877622399382771e-12 4.433456858239445e-12 7.506457314997988e-12 5.067417989292985e-12 2.3887695156588495e-12 5.161602667928805e-12
          8.792850008015933e-12 1.0579457771756533e-11 7.934435820198759e-12 3.90451892572928e-12 8.135292230613205e-12 5.255787346564623e-12
          1.2366065535497131e-11 4.104113442226526e-9 5.979767996074139e-9 4.193221163511716e-9 2.571022496137495e-9 6.514736279582439e-10
          1.8085195520309327e-9 2.674640361610308e-9 7.410732106942665e-10 1.9309392697755652e-10 2.709054826242055e-10 1.2117214808708938e-10
          1.4638176735892523e-10 1.8450287478638326e-10 2.392468710455241e-10 1.52406880411416e-10 3.447101848070638e-12 3.5094831930351234e-12
          3.2706927619828155e-12 3.622255227099831e-12 2.840001073246171e-12 2.040297064549055e-12 2.6514377095627085e-12 3.5718645379996085e-12
          3.973817692216848e-12 3.262578354576362e-12 3.0942836758949926e-12 3.73502726116454e-12 2.462874345879246e-12 4.375770846434087e-12
          1.049103438084063e-11 1.3482940785531402e-11 7.719493983232497e-12 8.220147265581586e-12 8.972683281760354e-12 1.1335063676882174e-11
          7.634196204913052e-12 3.6235409464587783e-12 3.2715540410929693e-12 4.450438110377082e-12 3.972047202687312e-12 2.23090910289928e-12
          2.348877920164687e-12 2.3931586131544532e-12 2.9195671357271603e-12 3.4936562949975426e-12 2.4374393061442194e-12 5.277335274295385e-12
          4.672540364281654e-12 2.5554081234096266e-12 4.067745454267925e-12 1.0208460260416109e-10 1.3099481512308186e-10 1.1930946918696117e-10
          1.5088681746764723e-10 1.0847553975734324e-10 2.1436303239226302e-10 2.5829822358136853e-10 1.2851405519227237e-10 2.703345481265443e-10
          6.67337898698557e-11 7.585667620216892e-11 4.0822381449261455e-11 4.091858977117108e-11 4.864291857047584e-11 5.3179149502677604e-11
          3.3620794635786246e-11 8.497956253448215e-11 4.101479809308071e-11 5.7715380434879374e-11 3.3307030782656676e-11 4.018176574142098e-11
          2.406419162327747e-11 2.8447708438721172e-11 2.519280354670998e-11 2.9553688651698265e-11 2.135943148373744e-11 3.7374167427977366e-11
          3.800100859221874e-11 3.051111175394851e-9 4.432050641623306e-9 3.9823008103724855e-9 1.0020859046214717e-9 8.280264268603329e-10
          3.003665698822152e-9 1.4564859171209357e-9 1.0859693869298092e-9 2.103372569141284e-8 2.497545865391814e-10 2.2885788618604427e-10
          2.1387655038964583e-10 1.2130352489944844e-10 1.1596527502092335e-10 3.2527374974622834e-10 1.0080867179384215e-9 7.460271003333908e-10
          3.6809455942362465e-10 1.035646006530382e-9 3.0783817844870336e-10 9.727860912185745e-11 3.5419539965946505e-10 2.1909986907374937e-10
          1.1596945131215304e-9 1.2204983868331991e-9 2.005156324264185e-9 1.4878998085633531e-9 1.1161439508835717e-10 4.826603025860215e-10
          1.8715691479908562e-10 2.5831171359509933e-10 3.4966059722666927e-10 1.8549145908017618e-10 2.0338976900648592e-10 2.921237030038866e-10
          9.997261388953738e-11 6.871438396407097e-11 7.259853093903363e-11 7.630962250734724e-11 1.5145143660956005e-10 6.836482100137981e-11
          7.305543958649369e-11 3.4313753551094913e-9 1.5137867254879913e-8 3.55025203902649e-9 3.798687372354837e-9 1.0065179732625102e-9
          4.188230958331735e-9 4.562534559629822e-9 9.61751259902318e-10 1.5100942375471384e-10 2.1393209807106982e-10 3.5486131741961725e-10
          4.868864498459626e-10 3.186669549270336e-10 3.6420106701854696e-10 1.7461645191413985e-10 3.6334170464420553e-10 8.171262310145751e-10
          8.456287492834265e-10 5.106110642532712e-10 5.577436864506319e-10 2.1169329860691224e-10 6.744764627484055e-10 5.713934916055572e-10
          2.41414433163616e-10 1.8150151375492986e-10 5.2352169454537385e-11 6.255444009631837e-11 1.283389063346856e-10 7.027890755824058e-11
          7.422980654167036e-11 4.305535889163633e-11 5.507568321440965e-11 1.7672926345861738e-10 9.640295075516653e-11 5.317908700902409e-11
          9.69512986611236e-11
        </DataArray>
        <DataArray type="Float64" Name="gradient_matprop_error" format="ascii" RangeMin="0" RangeMax="0">
          0 0 0 0 0 0
          0 0 0 0 0 0
          0 0 0 0 0 0
          0 0 0 0 0 0
          0 0 0 0 0 0
          0 0 0 0 0 0
          0 0 0 0 0 0
          0 0 0 0 0 0
          0 0 0 0 0 0
          0 0 0 0 0 0
          0 0 0 0 0 0
          0 0 0 0 0 0
          0 0 0 0 0 0
          0 0 0 0 0 0
          0 0 0 0 0 0
          0 0 0 0 0 0
          0 0 0 0 0 0
          0 0 0 0 0 0
          0 0 0 0 0 0
          0 0 0 0 0 0
          0 0 0 0 0 0
          0 0 0 0 0 0
          0 0 0 0 0 0
          0 0 0 0 0 0
          0 0 0 0 0 0
          0 0 0 0 0 0
          0 0 0 0 0 0
          0 0 0 0 0 0
          0 0 0 0 0 0
          0 0 0 0 0 0
          0 0 0 0 0 0
          0 0 0 0 0 0
          0 0 0 0 0 0
          0 0 0 0 0 0
          0 0 0 0 0 0
          0 0 0 0 0 0
          0 0 0 0 0 0
          0 0 0 0 0 0
          0 0 0 0 0 0
          0 0 0 0 0 0
          0 0 0 0 0 0
          0 0 0 0 0 0
          0 0 0 0 0 0
          0 0 0 0 0 0
          0 0 0 0 0 0
          0 0 0 0 0 0
          0 0 0 0 0 0
          0 0 0 0 0 0
          0 0 0 0 0 0
          0 0 0 0 0 0
          0 0 0 0 0 0
          0 0 0 0 0 0
          0 0 0 0 0 0
          0 0 0 0 0 0
          0 0 0 0 0 0
          0 0 0 0 0 0
          0 0 0 0 0 0
          0 0 0 0 0 0
          0 0 0 0 0 0
          0 0 0 0 0 0
          0 0 0 0 0 0
          0 0 0 0 0 0
          0 0 0 0 0 0
          0 0 0 0 0 0
          0 0 0 0 0 0
          0 0 0 0 0 0
          0 0 0 0 0 0
          0 0 0 0 0 0
          0 0 0 0 0 0
          0 0 0 0 0 0
          0
        </DataArray>
        <DataArray type="Float64" Name="initial_marker" format="ascii" RangeMin="0" RangeMax="2">
          0 0 0 0 0 0
          0 0 0 0 0 0
          0 0 0 0 0 0
          0 0 0 0 0 0
          0 0 0 0 0 0
          0 0 0 0 0 0
          0 0 0 0 0 0
          0 0 0 0 0 0
          0 0 0 0 0 0
          0 0 0 0 0 0
          0 0 0 0 0 0
          0 0 0 0 0 0
          0 0 0 0 0 0
          0 0 0 0 0 0
          0 0 0 0 0 0
          0 0 0 0 0 0
          0 0 0 0 0 0
          0 0 0 0 0 0
          0 0 0 0 0 0
          0 0 0 0 0 0
          0 0 0 0 0 0
          0 0 0 0 0 0
          0 0 0 0 0 0
          0 0 0 0 0 0
          0 0 0 0 0 0
          0 0 0 0 0 0
          0 0 0 0 0 0
          0 0 0 0 0 0
          0 0 0 0 0 0
          0 0 0 0 0 0
          0 0 0 0 0 0
          0 0 0 0 0 0
          0 0 0 0 0 0
          0 0 0 0 0 0
          0 0 0 0 0 0
          0 0 0 0 0 0
          0 0 0 0 0 0
          0 0 0 0 0 0
          0 0 0 0 0 0
          0.25 0 0 0 0 0
          0 0 0 0 0 0
          0 0 0 0 0 0
          0 0 0 0 0 0
          0 0 0 0 0 0
          0 0 0 0 0 0
          0 0 0 0 0 0
          0 0 0 0 0 0
          0 0 0 0 0 0
          0 0 0 0 0 0
          0 0 0 0 0 0
          0 0 0 0 0 0
          0 0 0 0 0 0
          0 0 0 0 0 0
          0 0 0 0 0 0
          0 0 0 0 0 0
          0 0 0 0 0 0.25
          0 0 0 0 0 0.5
          0 0 0 0 0 0
          0 0 0 0 0 0
          0 0 0 0 0 0
          0 0 0 0 0 0
          0 0 0 0 0 0
          0 0 0 0 0 0
          0 0 0 0 1 0.25
          1.25 0 0 0 0 0
          0 0 0 0 0 0
          0 0 0 0 0 0
          0 0 0 0 0 0
          0 0 0.6666666666666666 0.5 1.75 1.25
          0.75 1 0 2 1.75 0.75
          1
        </DataArray>
        <DataArray type="Float64" Name="markers_norefine" format="ascii" RangeMin="0" RangeMax="0">
          0 0 0 0 0 0
          0 0 0 0 0 0
          0 0 0 0 0 0
          0 0 0 0 0 0
          0 0 0 0 0 0
          0 0 0 0 0 0
          0 0 0 0 0 0
          0 0 0 0 0 0
          0 0 0 0 0 0
          0 0 0 0 0 0
          0 0 0 0 0 0
          0 0 0 0 0 0
          0 0 0 0 0 0
          0 0 0 0 0 0
          0 0 0 0 0 0
          0 0 0 0 0 0
          0 0 0 0 0 0
          0 0 0 0 0 0
          0 0 0 0 0 0
          0 0 0 0 0 0
          0 0 0 0 0 0
          0 0 0 0 0 0
          0 0 0 0 0 0
          0 0 0 0 0 0
          0 0 0 0 0 0
          0 0 0 0 0 0
          0 0 0 0 0 0
          0 0 0 0 0 0
          0 0 0 0 0 0
          0 0 0 0 0 0
          0 0 0 0 0 0
          0 0 0 0 0 0
          0 0 0 0 0 0
          0 0 0 0 0 0
          0 0 0 0 0 0
          0 0 0 0 0 0
          0 0 0 0 0 0
          0 0 0 0 0 0
          0 0 0 0 0 0
          0 0 0 0 0 0
          0 0 0 0 0 0
          0 0 0 0 0 0
          0 0 0 0 0 0
          0 0 0 0 0 0
          0 0 0 0 0 0
          0 0 0 0 0 0
          0 0 0 0 0 0
          0 0 0 0 0 0
          0 0 0 0 0 0
          0 0 0 0 0 0
          0 0 0 0 0 0
          0 0 0 0 0 0
          0 0 0 0 0 0
          0 0 0 0 0 0
          0 0 0 0 0 0
          0 0 0 0 0 0
          0 0 0 0 0 0
          0 0 0 0 0 0
          0 0 0 0 0 0
          0 0 0 0 0 0
          0 0 0 0 0 0
          0 0 0 0 0 0
          0 0 0 0 0 0
          0 0 0 0 0 0
          0 0 0 0 0 0
          0 0 0 0 0 0
          0 0 0 0 0 0
          0 0 0 0 0 0
          0 0 0 0 0 0
          0 0 0 0 0 0
          0
        </DataArray>
        <DataArray type="Float64" Name="markers_mustrefine" format="ascii" RangeMin="0" RangeMax="2">
          0 0 0 0 0 0
          0 0 0 0 0 0
          0 0 0 0 0 0
          0 0 0 0 0 0
          0 0 0 0 0 0
          0 0 0 0 0 0
          0 0 0 0 0 0
          0 0 0 0 0 0
          0 0 0 0 0 0
          0 0 0 0 0 0
          0 0 0 0 0 0
          0 0 0 0 0 0
          0 0 0 0 0 0
          0 0 0 0 0 0
          0 0 0 0 0 0
          0 0 0 0 0 0
          0 0 0 0 0 0
          0 0 0 0 0 0
          0 0 0 0 0 0
          0 0 0 0 0 0
          0 0 0 0 0 0
          0 0 0 0 0 0
          0 0 0 0 0 0
          0 0 0 0 0 0
          0 0 0 0 0 0
          0 0 0 0 0 0
          0 0 0 0 0 0
          0 0 0 0 0 0
          0 0 0 0 0 0
          0 0 0 0 0 0
          0 0 0 0 0 0
          0 0 0 0 0 0
          0 0 0 0 0 0
          0 0 0 0 0 0
          0 0 0 0 0 0
          0 0 0 0 0 0
          0 0 0 0 0 0
          0 0 0 0 0 0
          0 0 0 0 0 0
          0.25 0 0 0 0 0
          0 0 0 0 0 0
          0 0 0 0 0 0
          0 0 0 0 0 0
          0 0 0 0 0 0
          0 0 0 0 0 0
          0 0 0 0 0 0
          0 0 0 0 0 0
          0 0 0 0 0 0
          0 0 0 0 0 0
          0 0 0 0 0 0
          0 0 0 0 0 0
          0 0 0 0 0 0
          0 0 0 0 0 0
          0 0 0 0 0 0
          0 0 0 0 0 0
          0 0 0 0 0 0.25
          0 0 0 0 0 0.5
          0 0 0 0 0 0
          0 0 0 0 0 0
          0 0 0 0 0 0
          0 0 0 0 0 0
          0 0 0 0 0 0
          0 0 0 0 0 0
          0 0 0 0 1 0.25
          1.25 0 0 0 0 0
          0 0 0 0 0 0
          0 0 0 0 0 0
          0 0 0 0 0 0
          0 0 0.6666666666666666 0.5 1.75 1.25
          0.75 1 0 2 1.75 0.75
          1
        </DataArray>
        <DataArray type="Float64" Name="gradient_marker" format="ascii" RangeMin="0.6666666666666666" RangeMax="1">
          1 1 1 1 1 1
          1 1 1 1 1 1
          1 1 1 1 1 1
          1 1 1 1 1 1
          1 1 1 1 1 1
          1 1 1 1 1 1
          1 1 1 1 1 1
          1 1 1 1 1 1
          1 1 1 1 1 1
          1 1 1 1 1 0.75
          1 1 1 1 1 1
          1 1 1 1 1 1
          1 1 1 1 1 1
          1 1 1 1 1 1
          1 1 1 0.875 1 1
          1 1 1 1 1 1
          1 1 1 1 1 1
          1 1 1 1 1 1
          1 1 1 1 1 1
          1 1 1 1 1 1
          1 1 1 1 1 1
          1 1 1 1 1 1
          1 1 1 0.8333333333333334 1 1
          1 1 1 1 1 1
          1 1 1 1 1 1
          1 1 1 1 1 1
          1 1 1 1 1 1
          1 1 1 1 1 1
          1 1 1 1 1 1
          1 1 1 1 1 1
          1 1 1 1 1 1
          1 1 1 1 1 1
          1 1 1 1 1 1
          1 1 1 1 1 1
          1 1 1 1 1 1
          1 1 1 1 1 1
          1 1 1 1 1 1
          1 1 1 1 1 1
          1 1 1 1 1 1
          1 1 1 1 1 1
          1 1 1 1 1 1
          1 1 1 1 1 1
          1 1 1 1 1 1
          1 1 1 1 1 1
          1 1 1 1 1 1
          1 1 1 1 1 1
          1 1 1 1 1 1
          1 1 1 1 1 1
          1 1 1 1 1 1
          1 1 1 1 1 1
          1 1 1 1 1 1
          1 1 1 1 1 1
          1 1 1 1 1 1
          1 1 1 1 1 1
          1 1 1 1 1 1
          1 1 1 1 1 1
          1 1 1 1 1 1
          1 1 1 1 1 1
          1 1 1 0.875 1 1
          1 1 1 1 1 1
          1 1 1 1 1 1
          1 1 1 1 1 1
          1 1 1 1 1 1
          1 1 1 1 1 1
          1 1 0.6666666666666666 1 1 1
          1 1 1 1 1 1
          1 1 1 1 1 1
          1 1 1 1 1 1
          1 1 1 1 1 1
          1 1 1 1 1 1
          1
        </DataArray>
        <DataArray type="Float64" Name="gradient_matprop_marker" format="ascii" RangeMin="0" RangeMax="0">
          0 0 0 0 0 0
          0 0 0 0 0 0
          0 0 0 0 0 0
          0 0 0 0 0 0
          0 0 0 0 0 0
          0 0 0 0 0 0
          0 0 0 0 0 0
          0 0 0 0 0 0
          0 0 0 0 0 0
          0 0 0 0 0 0
          0 0 0 0 0 0
          0 0 0 0 0 0
          0 0 0 0 0 0
          0 0 0 0 0 0
          0 0 0 0 0 0
          0 0 0 0 0 0
          0 0 0 0 0 0
          0 0 0 0 0 0
          0 0 0 0 0 0
          0 0 0 0 0 0
          0 0 0 0 0 0
          0 0 0 0 0 0
          0 0 0 0 0 0
          0 0 0 0 0 0
          0 0 0 0 0 0
          0 0 0 0 0 0
          0 0 0 0 0 0
          0 0 0 0 0 0
          0 0 0 0 0 0
          0 0 0 0 0 0
          0 0 0 0 0 0
          0 0 0 0 0 0
          0 0 0 0 0 0
          0 0 0 0 0 0
          0 0 0 0 0 0
          0 0 0 0 0 0
          0 0 0 0 0 0
          0 0 0 0 0 0
          0 0 0 0 0 0
          0 0 0 0 0 0
          0 0 0 0 0 0
          0 0 0 0 0 0
          0 0 0 0 0 0
          0 0 0 0 0 0
          0 0 0 0 0 0
          0 0 0 0 0 0
          0 0 0 0 0 0
          0 0 0 0 0 0
          0 0 0 0 0 0
          0 0 0 0 0 0
          0 0 0 0 0 0
          0 0 0 0 0 0
          0 0 0 0 0 0
          0 0 0 0 0 0
          0 0 0 0 0 0
          0 0 0 0 0 0
          0 0 0 0 0 0
          0 0 0 0 0 0
          0 0 0 0 0 0
          0 0 0 0 0 0
          0 0 0 0 0 0
          0 0 0 0 0 0
          0 0 0 0 0 0
          0 0 0 0 0 0
          0 0 0 0 0 0
          0 0 0 0 0 0
          0 0 0 0 0 0
          0 0 0 0 0 0
          0 0 0 0 0 0
          0 0 0 0 0 0
          0
        </DataArray>
        <DataArray type="Float64" Name="combo" format="ascii" RangeMin="0.6666666666666666" RangeMax="1">
          1 1 1 1 1 1
          1 1 1 1 1 1
          1 1 1 1 1 1
          1 1 1 1 1 1
          1 1 1 1 1 1
          1 1 1 1 1 1
          1 1 1 1 1 1
          1 1 1 1 1 1
          1 1 1 1 1 1
          1 1 1 1 1 0.75
          1 1 1 1 1 1
          1 1 1 1 1 1
          1 1 1 1 1 1
          1 1 1 1 1 1
          1 1 1 0.875 1 1
          1 1 1 1 1 1
          1 1 1 1 1 1
          1 1 1 1 1 1
          1 1 1 1 1 1
          1 1 1 1 1 1
          1 1 1 1 1 1
          1 1 1 1 1 1
          1 1 1 0.8333333333333334 1 1
          1 1 1 1 1 1
          1 1 1 1 1 1
          1 1 1 1 1 1
          1 1 1 1 1 1
          1 1 1 1 1 1
          1 1 1 1 1 1
          1 1 1 1 1 1
          1 1 1 1 1 1
          1 1 1 1 1 1
          1 1 1 1 1 1
          1 1 1 1 1 1
          1 1 1 1 1 1
          1 1 1 1 1 1
          1 1 1 1 1 1
          1 1 1 1 1 1
          1 1 1 1 1 1
          1 1 1 1 1 1
          1 1 1 1 1 1
          1 1 1 1 1 1
          1 1 1 1 1 1
          1 1 1 1 1 1
          1 1 1 1 1 1
          1 1 1 1 1 1
          1 1 1 1 1 1
          1 1 1 1 1 1
          1 1 1 1 1 1
          1 1 1 1 1 1
          1 1 1 1 1 1
          1 1 1 1 1 1
          1 1 1 1 1 1
          1 1 1 1 1 1
          1 1 1 1 1 1
          1 1 1 1 1 1
          1 1 1 1 1 1
          1 1 1 1 1 1
          1 1 1 0.875 1 1
          1 1 1 1 1 1
          1 1 1 1 1 1
          1 1 1 1 1 1
          1 1 1 1 1 1
          1 1 1 1 1 1
          1 1 0.6666666666666666 1 1 1
          1 1 1 1 1 1
          1 1 1 1 1 1
          1 1 1 1 1 1
          1 1 1 1 1 1
          1 1 1 1 1 1
          1
        </DataArray>
        <DataArray type="Float64" Name="dHdT" format="ascii" RangeMin="25.81162938759217" RangeMax="26.03800466353654">
          25.811629647350593 25.811629673124823 25.81162940074831 25.81162944609352 25.81162938759217 25.81162943715409
          25.811629698899047 25.811629491438723 25.81162948671601 25.811676945388243 25.81167862966344 25.811686536251642
          25.8116871492182 25.81168872394231 25.81168910201757 25.81168903640564 25.8116893667315 25.811680313938638
          25.811687762184754 25.811689480092824 25.81168969705736 25.811733581956158 25.811767990027924 25.811743704232747
          25.81175098348676 25.811752157733984 25.8117529549745 25.81175219303214 25.81175283004106 25.811780780084234
          25.81175812410893 25.81175375221502 25.811753467049975 25.811914957680656 25.81257838480392 25.811816526264504
          25.81184564017555 25.811808136484412 25.81181088468308 25.81180948595678 25.811809818677986 25.811849471595714
          25.811816649212233 25.81181209698212 25.811810151399193 25.813683666193214 25.811860706816518 25.811893357069142
          25.811837678948763 25.81183915349544 25.811833880752474 25.81183383436303 25.81183752912555 25.811838720857303
          25.811836685014658 25.81183378797358 25.81281304937162 25.84051199720981 25.813466745763886 25.92708182303389
          25.81183906077776 25.81198030347955 25.812851924906816 25.81288087280503 25.811856668626053 25.811879082951272
          25.811914407717335 25.81204769261935 25.812169612252866 25.81190229097834 25.814661592717712 25.811942424573246
          25.812281636002552 25.811833605146347 25.811837265742163 25.81183830469584 25.811846134551274 25.811830430697356
          25.811834418021576 25.811837925434933 25.811840926337986 25.811851855101548 25.811841432848293 25.811843309149378
          25.811856192760022 25.81184542017251 25.811862783865116 25.88510702941113 25.812867433911713 25.813763746501017
          25.81671519332947 25.813881269117807 25.81518906062661 25.81201253132938 25.81207340555257 25.811999753379848
          25.81209336013839 25.811911038982732 25.811877614853618 25.811905202137858 25.812150029537865 25.81224435576179
          25.81195753013236 25.81196322503539 25.812058893202437 25.811901225048985 25.81229087108488 25.811912449232096
          25.81194634942117 25.81183654423156 25.81198024961024 25.811881755786324 25.81188429931682 25.811859739400994
          25.811861879604084 25.81182521878693 25.811832016098904 25.811832303179585 25.81188684284732 25.81186401980718
          25.81183881341088 25.82124477677712 25.8269350391812 25.815051137810272 25.832625301585274 25.81534289334356
          25.816944765965573 25.812910966779498 25.813268783123025 25.81313024155604 25.81337932793801 25.8125205357022
          25.818546638587577 25.81362659946656 25.81362841431998 26.03800466353654 25.814487388300382 25.81235402323963
          25.81235912597873 25.8123797453012 25.812343227530814 25.812048315860597 25.81198384566357 25.81201185310237
          25.812448640513654 25.81246577930706 25.81209081484231 25.812005229895618 25.812517975243857 25.811797872142364