<?xml version="1.0"?>
<VTKFile type="UnstructuredGrid" version="0.1" byte_order="LittleEndian" header_type="UInt32" compressor="vtkZLibDataCompressor">
  <UnstructuredGrid>
    <Piece NumberOfPoints="334" NumberOfCells="181">
      <PointData>
        <DataArray type="Int32" Name="libmesh_node_id" format="ascii" RangeMin="307" RangeMax="2944">
          307 566 567 573 595 596
          1136 1137 1138 1144 1178 1179
          1181 1184 1198 1230 1231 1232
          1233 1234 1235 1236 1237 1238
          1239 1240 1241 1242 1243 1245
          1247 1249 1250 1251 1252 1253
          2458 2459 2460 2461 2462 2463
          2464 2465 2466 2467 2468 2469
          2470 2471 2482 2483 2484 2485
          2486 2487 2488 2489 2490 2491
          2610 2611 2612 2613 2614 2615
          2616 2617 2618 2619 2627 2628
          2629 2630 2631 2632 2633 2644
          2645 2646 2647 2648 2649 2650
          2651 2652 2653 2661 2662 2663
          2664 2665 2666 2667 2734 2735
          2736 2737 2738 2739 2740 2741
          2742 2743 2761 2762 2763 2764
          2765 2766 2767 2769 2770 2771
          2773 2774 2836 2837 2838 2839
          2840 2841 2842 2843 2844 2845
          2846 2847 2848 2849 2850 2851
          2852 2853 2854 2855 2856 2857
          2858 2859 2860 2861 2862 2863
          2864 2865 2866 2867 2868 2869
          2870 2871 2872 2873 2874 2875
          2876 2877 2878 2879 2880 2881
          2882 2883 2884 2885 2886 2887
          2888 2889 2890 2891 2892 2893
          2894 2895 2896 2897 2898 2899
          2900 2901 2902 2903 2904 2905
          2906 2907 2908 2909 2910 2911
          2912 2913 2914 2915 2916 2917
          2918 2919 2920 2921 2922 2923
          2924 2925 2926 2927 2928 2929
          2930 2931 2932 2933 2934 2935
          2936 2937 2938 2939 2940 2941
          2942 2943 2944 588 591 594
          593 597 397 598 1132 377
          1133 1134 1135 565 1139 1141
          1140 1159 1157 1145 1164 1163
          1193 1194 1196 1195 1197 384
          1199 1220 1221 1222 1223 1227
          1228 1225 1226 587 1229 1246
          1244 1248 570 1387 1389 1393
          1394 1395 1396 1400 1401 1403
          1404 1406 1189 1476 1469 574
          1482 1473 2448 2449 2450 2453
          1142 2456 1143 2474 2475 2478
          2480 2602 2603 2605 1176 2608
          1177 2621 2623 2625 1180 2636
          2637 2639 1182 2642 1183 2655
          2657 2659 1185 2530 2728 2730
          2732 2755 2757 2759 2733 2752
          2751 2756 2768 2697 2753 2721
          2723 2760 2772 2725
        </DataArray>
        <DataArray type="Float64" Name="bounds" format="ascii" RangeMin="0" RangeMax="0">
          0 0 0 0 0 0
          0 0 0 0 0 0
          0 0 0 0 0 0
          0 0 0 0 0 0
          0 0 0 0 0 0
          0 0 0 0 0 0
          0 0 0 0 0 0
          0 0 0 0 0 0
          0 0 0 0 0 0
          0 0 0 0 0 0
          0 0 0 0 0 0
          0 0 0 0 0 0
          0 0 0 0 0 0
          0 0 0 0 0 0
          0 0 0 0 0 0
          0 0 0 0 0 0
          0 0 0 0 0 0
          0 0 0 0 0 0
          0 0 0 0 0 0
          0 0 0 0 0 0
          0 0 0 0 0 0
          0 0 0 0 0 0
          0 0 0 0 0 0
          0 0 0 0 0 0
          0 0 0 0 0 0
          0 0 0 0 0 0
          0 0 0 0 0 0
          0 0 0 0 0 0
          0 0 0 0 0 0
          0 0 0 0 0 0
          0 0 0 0 0 0
          0 0 0 0 0 0
          0 0 0 0 0 0
          0 0 0 0 0 0
          0 0 0 0 0 0
          0 0 0 0 0 0
          0 0 0 0 0 0
          0 0 0 0 0 0
          0 0 0 0 0 0
          0 0 0 0 0 0
          0 0 0 0 0 0
          0 0 0 0 0 0
          0 0 0 0 0 0
          0 0 0 0 0 0
          0 0 0 0 0 0
          0 0 0 0 0 0
          0 0 0 0 0 0
          0 0 0 0 0 0
          0 0 0 0 0 0
          0 0 0 0 0 0
          0 0 0 0 0 0
          0 0 0 0 0 0
          0 0 0 0 0 0
          0 0 0 0 0 0
          0 0 0 0 0 0
          0 0 0 0
        </DataArray>
        <DataArray type="Float64" Name="gradient_error" format="ascii" RangeMin="1.7735484871929675e-12" RangeMax="4.883145743115901e-10">
          1.0914094742598717e-10 3.0388666777793946e-11 3.296350972567967e-11 4.3966086041989284e-11 6.54401857391935e-12 1.188015929391599e-11
          4.507905895881061e-11 3.060929337205357e-11 3.2358583248762525e-11 2.9094429428200042e-11 7.946446075073283e-11 6.326832979955298e-11
          3.2636740557771534e-11 8.751349786613416e-11 5.411530064186934e-11 8.898995793955143e-12 1.2932822238467525e-11 6.226646820173403e-12
          1.5331646667703432e-11 1.5212984536100914e-11 1.2284437031219356e-11 5.132724447433425e-12 4.2957244944819076e-12 9.818207743182877e-12
          7.562023996166189e-12 2.0674860440070027e-11 1.665089484970294e-11 5.410119242103976e-12 1.227647240333936e-11 1.6593967652118334e-11
          1.3626220058092463e-11 2.2519001876987356e-11 1.1450911031911422e-11 1.885578993463189e-11 1.5288090900676843e-11 2.5226895051010387e-11
          2.1737899511316913e-11 2.0987024272940345e-11 3.2788771629595294e-11 3.142575438684417e-11 1.095266616057098e-11 1.6358004942670497e-11
          1.551709688122532e-11 1.8864520525604454e-11 2.7713935498584333e-11 1.5451579730089e-11 6.342270974177006e-11 6.040087794754166e-11
          2.8751954468372605e-11 5.2214729861914886e-11 1.603646380815806e-11 2.244213314194554e-11 1.1724481169597839e-11 1.5674913515793358e-11
          1.4580035599670993e-11 1.9519132430815455e-11 1.4347465480879993e-11 4.073205836080666e-11 2.3303321203141407e-11 3.2745273578564237e-11
          1.1238954023514856e-10 1.0634015904637918e-10 5.2538507832400624e-11 4.9761954886706e-11 9.013098209706945e-11 4.233179014069818e-11
          1.721621861663571e-10 1.624784307818665e-10 7.506586214096844e-11 1.363790547048196e-10 6.863502222351285e-11 3.253230142226575e-11
          4.742270960901501e-11 2.2874174185141174e-11 1.0196542235904669e-10 4.775215551572662e-11 6.876838529164092e-11 2.19419841168711e-10
          2.077088998145551e-10 1.0117089540024833e-10 9.573513111305386e-11 1.7505162208647227e-10 8.078793719857368e-11 2.362886147393385e-10
          2.2420398476380026e-10 1.0344006638271728e-10 1.8974098970517871e-10 1.3038560871870495e-10 6.061327689503498e-11 8.661725790069436e-11
          4.078272957497652e-11 1.4149410292046192e-10 6.564453672943053e-11 9.36543686992705e-11 2.4165064195271312e-11 3.0272162872196444e-11
          1.2269103943251456e-11 1.4999690535561692e-11 1.8921713957043517e-11 2.2997764636859446e-11 1.1637457204987534e-11 4.2391516577724425e-11
          2.051861223687876e-11 3.121367327799714e-11 5.224308915744081e-11 2.504218828794973e-11 3.7917594238357545e-11 1.8468963644728397e-11
          5.608240670855435e-11 2.6777429230013876e-11 4.0481657237396195e-11 4.4205796155237294e-11 4.430114626423773e-11 3.290075247302236e-11
          4.649448270868472e-11 4.651484910072453e-11 5.678979208716694e-12 5.6695426543786515e-12 7.9574300829638e-12 7.657336068702774e-12
          4.297439450371497e-12 5.258532203997516e-12 5.446506573786893e-12 5.660106100040609e-12 7.357242054441745e-12 5.6344809435762715e-12
          1.4244898515228639e-11 1.3447582282525216e-11 7.322995611123918e-12 1.2797350656901833e-11 2.3823764960119067e-11 2.2543993279458784e-11
          1.0400020589132696e-11 9.895170198366145e-12 1.917486071312768e-11 8.54529283512996e-12 3.532994774605521e-11 3.34287520259812e-11
          1.4417011039649258e-11 2.8324918452079913e-11 3.4258357959075024e-12 3.289955012932972e-12 4.4120997232717665e-12 4.213133685612755e-12
          2.1931203971866825e-12 2.7087123818664576e-12 2.5916125912345613e-12 2.9199501348593515e-12 3.6841243852244346e-12 2.2835184419915413e-12
          6.379725606360503e-12 6.056801045118991e-12 3.529496732537213e-12 5.208033881115934e-12 1.149953518855107e-11 1.488707901286326e-11
          5.391938861383962e-12 6.696426750940847e-12 8.435425640732478e-12 1.0704373636716942e-11 5.704124022678763e-12 2.169094448459318e-11
          9.444250781276272e-12 1.517563160181602e-11 2.4157616452070913e-12 2.953693223709687e-12 1.7735484871929675e-12 1.9952298732391123e-12
          2.145697250653922e-12 2.553305324924248e-12 1.897935663097808e-12 4.037195221973366e-12 2.5350765715322163e-12 3.392199165592341e-12
          4.4814179254614335e-11 4.242216954022149e-11 1.9170301321669786e-11 1.816334976229178e-11 3.589701838296939e-11 1.5434391023619952e-11
          4.8362076864110024e-11 4.5824786505374616e-11 1.9596311273932607e-11 3.8825084307103006e-11 7.978528535992733e-12 7.562334355086848e-12
          4.644242902307674e-12 4.402294440034624e-12 6.458841155001358e-12 3.756461513702221e-12 8.595969509900492e-12 8.147378978228255e-12
          4.735700200277261e-12 6.949913183360366e-12 2.7286398379306942e-11 1.1777692644292901e-11 1.8760194882113535e-11 9.626676657199671e-12
          2.9465530626602963e-11 1.2667798366530993e-11 2.014244819329644e-11 4.938884313264742e-12 3.063525768622964e-12 4.106226490707731e-12
          2.7744744876030605e-12 5.295002984795033e-12 3.273809653466752e-12 4.388968049425353e-12 6.035464380932996e-12 7.336339379914302e-12
          4.541843973619697e-12 5.160562937660131e-12 5.107627986441267e-12 5.952589684664377e-12 4.593929085726708e-12 9.857882534715511e-12
          6.5631547860301294e-12 7.624110236732708e-12 1.1837430225450639e-11 7.798620367139378e-12 8.963390505177942e-12 6.4032136511991e-12
          1.2596309760365865e-11 8.250213063919061e-12 9.476111919777957e-12 1.2366589068354728e-11 1.0007066691128193e-11 1.7009782140608075e-11
          3.315766859079933e-11 8.37410758001239e-12 2.410516982525846e-11 3.634280786205599e-11 1.5147834059217506e-10 1.1161439508835717e-10
          1.3528452418235364e-10 9.694105990457212e-11 8.585117617353629e-11 9.727860912185745e-11 9.997261388953738e-11 4.0449767223629275e-11
          7.259853093903363e-11 3.8751604100643915e-11 7.630962250734724e-11 6.756270264645542e-11 4.3221390796527866e-11 6.836482100137981e-11
          7.305543958649369e-11 4.528273694634613e-11 6.618333868280294e-11 8.547637928224916e-11 9.160710934907828e-11 7.909891495019152e-11
          9.947696099152308e-11 1.6001158358997487e-11 1.494237191436985e-11 1.2305778137672587e-11 1.674662007182304e-11 1.2946485474831561e-11
          1.8362468297926195e-11 1.1519512054662672e-11 1.1160005737439348e-11 9.197777361509006e-12 9.803298873233074e-12 1.034257488171938e-11
          1.538461307903237e-11 1.675427638748416e-11 9.056502153952943e-11 1.3482940785531402e-11 8.220147265581586e-12 3.6235409464587783e-12
          3.2715540410929693e-12 4.450438110377082e-12 3.972047202687312e-12 2.9195671357271603e-12 3.4936562949975426e-12 5.277335274295385e-12
          4.672540364281654e-12 4.067745454267925e-12 1.8150151375492986e-10 7.585667620216892e-11 2.1169329860691224e-10 2.1336547554542073e-10
          8.497956253448215e-11 2.41414433163616e-10 4.0768833586186184e-11 6.48825581851581e-11 6.20840160203676e-11 5.453641297264385e-11
          1.2838813859931454e-10 1.2194230443821962e-10 1.0463591396904873e-10 3.0445308245048316e-11 4.389350940225321e-11 3.7489947770617136e-11
          8.142353722113107e-11 2.317958420389756e-10 2.1885321258474886e-10 1.843623856337098e-10 3.5791499680569234e-10 3.3767358877643997e-10
          2.8280000347522703e-10 1.394632858357215e-10 9.585302760100496e-11 2.1004736431241768e-10 1.4007909406825641e-10 4.549839119451528e-10
          4.3125174202477423e-10 3.6385593661658007e-10 4.883145743115901e-10 4.64377321244276e-10 3.942198073925969e-10 2.700463184202142e-10
          1.776969222997349e-10 2.9341911600423195e-10 1.9254606963636317e-10 4.5530684496886286e-11 6.120435865403323e-11 4.305535889163633e-11
          8.632000735150118e-11 1.0713915547643321e-10 7.102681465585778e-11 1.1529175962392875e-10 9.640295075516653e-11 3.7374167427977366e-11
          5.317908700902409e-11 1.1703462372026146e-10 6.285620113320764e-11 9.69512986611236e-11 3.800100859221874e-11 1.1485557161993854e-10
          7.927148242089771e-11 1.249519775955472e-10 6.641072894855238e-11 1.2171371890465218e-10
        </DataArray>
        <DataArray type="Float64" Name="gradient_matprop_error" format="ascii" RangeMin="0" RangeMax="0">
          0 0 0 0 0 0
          0 0 0 0 0 0
          0 0 0 0 0 0
          0 0 0 0 0 0
          0 0 0 0 0 0
          0 0 0 0 0 0
          0 0 0 0 0 0
          0 0 0 0 0 0
          0 0 0 0 0 0
          0 0 0 0 0 0
          0 0 0 0 0 0
          0 0 0 0 0 0
          0 0 0 0 0 0
          0 0 0 0 0 0
          0 0 0 0 0 0
          0 0 0 0 0 0
          0 0 0 0 0 0
          0 0 0 0 0 0
          0 0 0 0 0 0
          0 0 0 0 0 0
          0 0 0 0 0 0
          0 0 0 0 0 0
          0 0 0 0 0 0
          0 0 0 0 0 0
          0 0 0 0 0 0
          0 0 0 0 0 0
          0 0 0 0 0 0
          0 0 0 0 0 0
          0 0 0 0 0 0
          0 0 0 0 0 0
          0 0 0 0 0 0
          0 0 0 0 0 0
          0 0 0 0 0 0
          0 0 0 0 0 0
          0 0 0 0 0 0
          0 0 0 0 0 0
          0 0 0 0 0 0
          0 0 0 0 0 0
          0 0 0 0 0 0
          0 0 0 0 0 0
          0 0 0 0 0 0
          0 0 0 0 0 0
          0 0 0 0 0 0
          0 0 0 0 0 0
          0 0 0 0 0 0
          0 0 0 0 0 0
          0 0 0 0 0 0
          0 0 0 0 0 0
          0 0 0 0 0 0
          0 0 0 0 0 0
          0 0 0 0 0 0
          0 0 0 0 0 0
          0 0 0 0 0 0
          0 0 0 0 0 0
          0 0 0 0 0 0
          0 0 0 0
        </DataArray>
        <DataArray type="Float64" Name="initial_marker" format="ascii" RangeMin="0" RangeMax="2">
          2 2 0.75 2 1 0
          0 0 0 1.75 2 2
          2 2 0.5 0.5 0.5 0
          0 2 2 0.5 0.25 1
          0 2 2 1 1.5 0
          0 0 0 0 0 0
          1 1 1.5 1.5 0 1
          1 0.5 1.25 1 2 2
          2 2 0 0.75 0 0.5
          0 0.5 0 1.75 1.6666666666666667 1.6666666666666667
          2 2 2 2 2 2
          2 2 2 2 2 2
          2 1.75 2 2 2 2
          2 2 2 2 2 2
          2 2 2 2 2 2
          2 2 2 2 1 1.25
          0.5 0.75 0 0.5 0 1.75
          1.25 1.5 2 1.5 2 1
          2 1.5 2 1 0 0
          1 0 0 0 0.5 0.5
          0 0 0 0 0.5 0
          1.5 1.5 0.6666666666666666 1.6666666666666667 2 2
          1.5 1.5 2 1.5 2 2
          2 2 0 0 0.5 0.5
          0 0 0 0 0.5 0
          1.5 1.5 1 1.25 1.5 1.75
          0.5 1 0.5 1 0.3333333333333333 2
          1.75 1.75 0 0.25 0 0
          0 0 0 0.75 0 0.5
          2 2 2 2 2 2
          2 2 2 2 2 2
          2 2 1.75 1.5 2 2
          2 2 2 2 2 2
          2 2 2 1.25 0.5 1
          0 1.5 1 1 0 0.25
          0 0 0 0 0 0.75
          0.5 0 1 1 0 0
          1 1 0 0 0 0
          0 0 0 0 0 0
          0 1 0.75 0 0 0
          0 0 0 1.75 0 0.25
          1.25 0.25 0 0 1.5 0
          0 0 0 0 0 0
          0 0 0 0 0 0
          0 0 0 0 0 0
          0 0 0 0 0 0
          0 0 0 0 0 0.5
          0 0 2 2 2 1.75
          2 2 2 0.5 1.25 1
          2 2 2 2 2 2
          2 2 2 2 2 2
          2 2 2 2 2 2
          2 2 2 1.3333333333333333 1.75 1
          2 2 2 2 1.75 0.5
          0.75 2 1 1 0 1.25
          0.5 2 1 1.5
        </DataArray>
        <DataArray type="Float64" Name="markers_norefine" format="ascii" RangeMin="0" RangeMax="0">
          0 0 0 0 0 0
          0 0 0 0 0 0
          0 0 0 0 0 0
          0 0 0 0 0 0
          0 0 0 0 0 0
          0 0 0 0 0 0
          0 0 0 0 0 0
          0 0 0 0 0 0
          0 0 0 0 0 0
          0 0 0 0 0 0
          0 0 0 0 0 0
          0 0 0 0 0 0
          0 0 0 0 0 0
          0 0 0 0 0 0
          0 0 0 0 0 0
          0 0 0 0 0 0
          0 0 0 0 0 0
          0 0 0 0 0 0
          0 0 0 0 0 0
          0 0 0 0 0 0
          0 0 0 0 0 0
          0 0 0 0 0 0
          0 0 0 0 0 0
          0 0 0 0 0 0
          0 0 0 0 0 0
          0 0 0 0 0 0
          0 0 0 0 0 0
          0 0 0 0 0 0
          0 0 0 0 0 0
          0 0 0 0 0 0
          0 0 0 0 0 0
          0 0 0 0 0 0
          0 0 0 0 0 0
          0 0 0 0 0 0
          0 0 0 0 0 0
          0 0 0 0 0 0
          0 0 0 0 0 0
          0 0 0 0 0 0
          0 0 0 0 0 0
          0 0 0 0 0 0
          0 0 0 0 0 0
          0 0 0 0 0 0
          0 0 0 0 0 0
          0 0 0 0 0 0
          0 0 0 0 0 0
          0 0 0 0 0 0
          0 0 0 0 0 0
          0 0 0 0 0 0
          0 0 0 0 0 0
          0 0 0 0 0 0
          0 0 0 0 0 0
          0 0 0 0 0 0
          0 0 0 0 0 0
          0 0 0 0 0 0
          0 0 0 0 0 0
          0 0 0 0
        </DataArray>
        <DataArray type="Float64" Name="markers_mustrefine" format="ascii" RangeMin="0" RangeMax="2">
          2 2 0.75 2 1 0
          0 0 0 1.75 2 2
          2 2 0.5 0.5 0.5 0
          0 2 2 0.5 0.25 1
          0 2 2 1 1.5 0
          0 0 0 0 0 0
          1 1 1.5 1.5 0 1
          1 0.5 1.25 1 2 2
          2 2 0 0.75 0 0.5
          0 0.5 0 1.75 1.6666666666666667 1.6666666666666667
          2 2 2 2 2 2
          2 2 2 2 2 2
          2 1.75 2 2 2 2
          2 2 2 2 2 2
          2 2 2 2 2 2
          2 2 2 2 1 1.25
          0.5 0.75 0 0.5 0 1.75
          1.25 1.5 2 1.5 2 1
          2 1.5 2 1 0 0
          1 0 0 0 0.5 0.5
          0 0 0 0 0.5 0
          1.5 1.5 0.6666666666666666 1.6666666666666667 2 2
          1.5 1.5 2 1.5 2 2
          2 2 0 0 0.5 0.5
          0 0 0 0 0.5 0
          1.5 1.5 1 1.25 1.5 1.75
          0.5 1 0.5 1 0.3333333333333333 2
          1.75 1.75 0 0.25 0 0
          0 0 0 0.75 0 0.5
          2 2 2 2 2 2
          2 2 2 2 2 2
          2 2 1.75 1.5 2 2
          2 2 2 2 2 2
          2 2 2 1.25 0.5 1
          0 1.5 1 1 0 0.25
          0 0 0 0 0 0.75
          0.5 0 1 1 0 0
          1 1 0 0 0 0
          0 0 0 0 0 0
          0 1 0.75 0 0 0
          0 0 0 1.75 0 0.25
          1.25 0.25 0 0 1.5 0
          0 0 0 0 0 0
          0 0 0 0 0 0
          0 0 0 0 0 0
          0 0 0 0 0 0
          0 0 0 0 0 0.5
          0 0 2 2 2 1.75
          2 2 2 0.5 1.25 1
          2 2 2 2 2 2
          2 2 2 2 2 2
          2 2 2 2 2 2
          2 2 2 1.3333333333333333 1.75 1
          2 2 2 2 1.75 0.5
          0.75 2 1 1 0 1.25
          0.5 2 1 1.5
        </DataArray>
        <DataArray type="Float64" Name="gradient_marker" format="ascii" RangeMin="1" RangeMax="1">
          1 1 1 1 1 1
          1 1 1 1 1 1
          1 1 1 1 1 1
          1 1 1 1 1 1
          1 1 1 1 1 1
          1 1 1 1 1 1
          1 1 1 1 1 1
          1 1 1 1 1 1
          1 1 1 1 1 1
          1 1 1 1 1 1
          1 1 1 1 1 1
          1 1 1 1 1 1
          1 1 1 1 1 1
          1 1 1 1 1 1
          1 1 1 1 1 1
          1 1 1 1 1 1
          1 1 1 1 1 1
          1 1 1 1 1 1
          1 1 1 1 1 1
          1 1 1 1 1 1
          1 1 1 1 1 1
          1 1 1 1 1 1
          1 1 1 1 1 1
          1 1 1 1 1 1
          1 1 1 1 1 1
          1 1 1 1 1 1
          1 1 1 1 1 1
          1 1 1 1 1 1
          1 1 1 1 1 1
          1 1 1 1 1 1
          1 1 1 1 1 1
          1 1 1 1 1 1
          1 1 1 1 1 1
          1 1 1 1 1 1
          1 1 1 1 1 1
          1 1 1 1 1 1
          1 1 1 1 1 1
          1 1 1 1 1 1
          1 1 1 1 1 1
          1 1 1 1 1 1
          1 1 1 1 1 1
          1 1 1 1 1 1
          1 1 1 1 1 1
          1 1 1 1 1 1
          1 1 1 1 1 1
          1 1 1 1 1 1
          1 1 1 1 1 1
          1 1 1 1 1 1
          1 1 1 1 1 1
          1 1 1 1 1 1
          1 1 1 1 1 1
          1 1 1 1 1 1
          1 1 1 1 1 1
          1 1 1 1 1 1
          1 1 1 1 1 1
          1 1 1 1
        </DataArray>
        <DataArray type="Float64" Name="gradient_matprop_marker" format="ascii" RangeMin="0" RangeMax="0">
          0 0 0 0 0 0
          0 0 0 0 0 0
          0 0 0 0 0 0
          0 0 0 0 0 0
          0 0 0 0 0 0
          0 0 0 0 0 0
          0 0 0 0 0 0
          0 0 0 0 0 0
          0 0 0 0 0 0
          0 0 0 0 0 0
          0 0 0 0 0 0
          0 0 0 0 0 0
          0 0 0 0 0 0
          0 0 0 0 0 0
          0 0 0 0 0 0
          0 0 0 0 0 0
          0 0 0 0 0 0
          0 0 0 0 0 0
          0 0 0 0 0 0
          0 0 0 0 0 0
          0 0 0 0 0 0
          0 0 0 0 0 0
          0 0 0 0 0 0
          0 0 0 0 0 0
          0 0 0 0 0 0
          0 0 0 0 0 0
          0 0 0 0 0 0
          0 0 0 0 0 0
          0 0 0 0 0 0
          0 0 0 0 0 0
          0 0 0 0 0 0
          0 0 0 0 0 0
          0 0 0 0 0 0
          0 0 0 0 0 0
          0 0 0 0 0 0
          0 0 0 0 0 0
          0 0 0 0 0 0
          0 0 0 0 0 0
          0 0 0 0 0 0
          0 0 0 0 0 0
          0 0 0 0 0 0
          0 0 0 0 0 0
          0 0 0 0 0 0
          0 0 0 0 0 0
          0 0 0 0 0 0
          0 0 0 0 0 0
          0 0 0 0 0 0
          0 0 0 0 0 0
          0 0 0 0 0 0
          0 0 0 0 0 0
          0 0 0 0 0 0
          0 0 0 0 0 0
          0 0 0 0 0 0
          0 0 0 0 0 0
          0 0 0 0 0 0
          0 0 0 0
        </DataArray>
        <DataArray type="Float64" Name="combo" format="ascii" RangeMin="1" RangeMax="1">
          1 1 1 1 1 1
          1 1 1 1 1 1
          1 1 1 1 1 1
          1 1 1 1 1 1
          1 1 1 1 1 1
          1 1 1 1 1 1
          1 1 1 1 1 1
          1 1 1 1 1 1
          1 1 1 1 1 1
          1 1 1 1 1 1
          1 1 1 1 1 1
          1 1 1 1 1 1
          1 1 1 1 1 1
          1 1 1 1 1 1
          1 1 1 1 1 1
          1 1 1 1 1 1
          1 1 1 1 1 1
          1 1 1 1 1 1
          1 1 1 1 1 1
          1 1 1 1 1 1
          1 1 1 1 1 1
          1 1 1 1 1 1
          1 1 1 1 1 1
          1 1 1 1 1 1
          1 1 1 1 1 1
          1 1 1 1 1 1
          1 1 1 1 1 1
          1 1 1 1 1 1
          1 1 1 1 1 1
          1 1 1 1 1 1
          1 1 1 1 1 1
          1 1 1 1 1 1
          1 1 1 1 1 1
          1 1 1 1 1 1
          1 1 1 1 1 1
          1 1 1 1 1 1
          1 1 1 1 1 1
          1 1 1 1 1 1
          1 1 1 1 1 1
          1 1 1 1 1 1
          1 1 1 1 1 1
          1 1 1 1 1 1
          1 1 1 1 1 1
          1 1 1 1 1 1
          1 1 1 1 1 1
          1 1 1 1 1 1
          1 1 1 1 1 1
          1 1 1 1 1 1
          1 1 1 1 1 1
          1 1 1 1 1 1
          1 1 1 1 1 1
          1 1 1 1 1 1
          1 1 1 1 1 1
          1 1 1 1 1 1
          1 1 1 1 1 1
          1 1 1 1
        </DataArray>
        <DataArray type="Float64" Name="dHdT" format="ascii" RangeMin="25.812005229895618" RangeMax="25.979420692688887">
          25.84643536159595 25.820501559983107 25.81645011356195 25.824253449941192 25.81281746115043 25.812505884064223
          25.81467978891485 25.815361931414948 25.815049100761062 25.81891469622728 25.83489890504439 25.829735712122933
          25.8211268932144 25.8378633925186 25.81722228762565 25.813726717248066 25.81361636788242 25.812445962963725
          25.813262033408662 25.81623834703548 25.81539860687581 25.812618569306856 25.812530240997937 25.81385273388549
          25.812534404382333 25.818065009702806 25.81671290297195 25.812678863780057 25.814352975698476 25.813251819575882
          25.812697136909705 25.813270904740243 25.81264956256289 25.81342560154275 25.81277819304117 25.81340821916388
          25.819274715066292 25.819030893021093 25.821893369509826 25.821499841905954 25.81575977013061 25.81702663863833
          25.816861817539813 25.81838319400234 25.8204542170974 25.81690880414782 25.829651577371443 25.828775319499222
          25.82011359260712 25.826475912845606 25.817565547438843 25.819149881857182 25.816010117248325 25.81696283632797
          25.817151777848895 25.818497643821644 25.81659325309507 25.823584867591002 25.818668368471744 25.821732436330777
          25.843283191253523 25.841448834621975 25.826544269729986 25.825733949849578 25.836711310845196 25.823633201646743
          25.86250347027817 25.859143714065354 25.833447348835648 25.850594910156897 25.830814342171767 25.821014449417824
          25.825372448757 25.818608314771605 25.84023938615948 25.8251970409233 25.83102987327515 25.881359676158443
          25.876373028380016 25.84297780880312 25.84084579430688 25.863814786936977 25.835449926955167 25.889487663478057
          25.883774449665633 25.844001470376387 25.869435789751805 25.84891027265209 25.82898507099157 25.836038122656646
          25.82334818382884 25.852534938422266 25.83056018396838 25.838084496678043 25.81967529636392 25.82120129832045
          25.816150913987144 25.816823198994065 25.81838722597113 25.81947823977046 25.81611589395627 25.824303616642126
          25.818211586798743 25.821620396591662 25.826942644499507 25.819416035042227 25.823386395717527 25.817919770310212
          25.828005355991742 25.819904380487962 25.82410125182153 25.825733482101306 25.826968093395067 25.822782073378782
          25.82645865298637 25.82765938700711 25.813970334236117 25.813959523606457 25.814466159047637 25.814439894345192
          25.81334086352925 25.813599602518202 25.813613857755136 25.8139487129768 25.81441362964275 25.81362811299207
          25.815959730535035 25.815834153762957 25.81405320504938 25.815750148357818 25.818542064260384 25.8182133352871
          25.814852971358125 25.814727350391014 25.81735125209854 25.81439679393088 25.822026720819544 25.82142778309843
          25.816003933812276 25.81988782921936 25.812978423276775 25.812945062271215 25.81320904773181 25.81316046977398
          25.812577658497297 25.812705710278028 25.812680617378884 25.812862848498895 25.81303532417452 25.812615771655445
          25.813711870963736 25.813627247551384 25.8129115230658 25.813407099774906 25.815430938465834 25.81624083631288
          25.813654492647796 25.81396222487724 25.81470359790475 25.815198330716623 25.81375349076575 25.81797496382984
          25.814633967194997 25.816241110120668 25.812768496102176 25.81288625635147 25.812489617935043 25.812547224651222
          25.812722996472218 25.81281375617004 25.812518430471297 25.81313897090595 25.81267705008046 25.813006366401112
          25.825329056285696 25.824460095911363 25.817523273067223 25.8171867363736 25.822248094594148 25.816326319462473
          25.826731322242164 25.825743253758084 25.817683924321127 25.82323708556428 25.814181767555954 25.814060575040937
          25.813193417234338 25.813133205139913 25.8137493848216 25.812977678989935 25.81437946537128 25.814242532255854
          25.813226940408704 25.81389236994353 25.8195533836994 25.815259360574863 25.817173838617567 25.814667043792667
          25.820207573899058 25.815520743866426 25.81755852052229 25.81337510699 25.812804196583194 25.813190826862737
          25.812726028232007 25.81347628876887 25.812859124372878 25.813273436791107 25.814179050243816 25.81445462567104
          25.813504689064715 25.813643194746717 25.813979490518122 25.814176364651345 25.81349109982944 25.815030856032738
          25.813953249698535 25.814582606422405 25.81554768207701 25.814256461012256 25.81494940066643 25.81394435445602
          25.81576385318682 25.814388123056165 25.815106827272622 25.812343227530814 25.81201185310237 25.81209081484231
          25.81246577930706 25.812005229895618 25.812058893202437 25.812517975243857 25.81951320913926 25.814357813209536
          25.8189466666387 25.822463409301786 25.82131082046454 25.81404240739677 25.81770708485708 25.814691202286177
          25.818862433341316 25.814388714295134 25.81735140516112 25.828358000735122 25.81512405059336 25.820189545235987
          25.826032127582824 25.81640114814988 25.815567258021684 25.81876752500152 25.829573288347067 25.81518906062661
          25.819592876612234 25.81300552870901 25.812964558476022 25.81298691039599 25.813062684309976 25.812896186055422
          25.813051591624024 25.812566641540208 25.812549595757254 25.8123797453012 25.812519503019033 25.81256847023518
          25.81303829663339 25.813030238976047 25.814487388300382 25.812929399640222 25.812533338284435 25.812120304630604
          25.81211729493008 25.812148680801265 25.812140901939852 25.81211428522955 25.81213312307844 25.812177056971926
          25.81216450894963 25.812151960927327 25.831343125701736 25.817020811833487 25.8241827220429 25.83460374031076
          25.817348584259197 25.825512773613234 25.82494193686921 25.83100588844228 25.830223051570655 25.828132605406637
          25.847578105280938 25.845761526031197 25.840986755625583 25.821950613951223 25.825333525151247 25.823757152732156
          25.834789926509817 25.877049984297912 25.873091234485454 25.862887575443672 25.91930263899505 25.911887672856885
          25.89309030661883 25.850188054829516 25.838464115668668 25.870489264111114 25.850581740825398 25.961242022612396
          25.950136458809958 25.92226862603981 25.979420692688887 25.966661155086783 25.93474851500102 25.88943272568983
          25.861358539665336 25.897399616148114 25.865789581252947 25.825523643256304 25.829439040428987 25.825010123301478
          25.836002690622053 25.841555304685045 25.83206337983927 25.843790273557087 25.83948680326597 25.82400563711483
          25.828917219793418 25.844920258038528 25.831510186625323 25.842290693154812 25.82526965217623 25.847313662090656
          25.838525467613216 25.847070879593236 25.83254408264235 25.84924265250255
        </DataArray>
        <DataArray type="Float64" Name="dk/dtemperature" format="ascii" RangeMin="0.01580458034934319" RangeMax="0.0158045803493432">
          0.015804580349343192 0.015804580349343195 0.015804580349343195 0.015804580349343192 0.015804580349343192 0.015804580349343192
          0.015804580349343192 0.015804580349343192 0.015804580349343192 0.015804580349343192 0.015804580349343195 0.015804580349343195
          0.015804580349343192 0.015804580349343192 0.015804580349343192 0.015804580349343192 0.015804580349343192 0.015804580349343192
          0.015804580349343192 0.015804580349343192 0.015804580349343192 0.015804580349343192 0.015804580349343192 0.015804580349343192
          0.015804580349343192 0.015804580349343192 0.015804580349343192 0.015804580349343195 0.015804580349343192 0.015804580349343192
          0.015804580349343192 0.015804580349343195 0.015804580349343195 0.015804580349343192 0.015804580349343192 0.015804580349343192