<?xml version="1.0"?>
<VTKFile type="UnstructuredGrid" version="0.1" byte_order="LittleEndian" header_type="UInt32" compressor="vtkZLibDataCompressor">
  <UnstructuredGrid>
    <Piece NumberOfPoints="1174" NumberOfCells="825">
      <PointData>
        <DataArray type="Int32" Name="libmesh_node_id" format="ascii" RangeMin="2436" RangeMax="9201">
          2444 2617 2619 2620 3057 3058
          3062 3066 3071 3073 3074 3075
          3076 3078 3079 3080 3081 3082
          3547 3548 3986 4016 4017 4020
          4054 4077 4078 4081 4084 4085
          4088 4090 4091 4092 4094 4095
          4096 4097 4098 4099 4100 4101
          4102 4104 4105 4106 4108 4109
          4110 4111 4112 4113 4114 4115
          4116 4117 4118 4119 4120 4121
          4122 4124 4125 4126 4128 4129
          4130 4131 4132 4133 4134 4135
          4136 4137 4138 4139 4140 4141
          4142 4143 4144 4145 4146 4147
          4148 4149 4150 4151 4152 4153
          4154 4155 4156 4157 4158 4159
          4160 4161 4162 4163 4164 4165
          4166 4167 4168 4169 4170 4231
          4235 4268 4272 4362 4363 4366
          4367 4369 4371 4382 4383 4389
          4402 4404 4406 4408 4416 4420
          5459 5460 5461 5462 5463 5464
          5465 5473 5474 5475 5476 5477
          5478 5479 5514 5515 5518 5519
          5528 5529 5532 5533 6124 6128
          6129 6132 6183 6184 6187 6190
          6191 6194 6331 6335 6336 6339
          6351 6355 6356 6359 6376 6377
          6380 6383 6384 6387 6404 6405
          6408 6411 6412 6415 6416 6417
          6418 6419 6420 6421 6422 6423
          6424 6425 6426 6427 6428 6429
          6430 6431 6432 6433 6434 6435
          6436 6437 6438 6439 6440 6441
          6442 6443 6444 6445 6446 6447
          6448 6449 6450 6451 6452 6453
          6454 6455 6456 6457 6458 6459
          6460 6461 6462 6463 6464 6465
          6466 6467 6468 6469 6470 6471
          6472 6473 6474 6475 6476 6477
          6478 6479 6480 6481 6482 6483
          6484 6485 6486 6487 6488 6489
          6490 6491 6492 6493 6494 6495
          6496 6497 6498 6499 6500 6501
          6502 6503 6504 6505 6506 6507
          6508 6509 6510 6511 6512 6513
          6514 6515 6516 6517 6518 6519
          6520 6521 6522 6523 6524 6525
          6526 6527 6528 6529 6530 6531
          6532 6533 6534 6535 6536 6537
          6538 6539 6540 6541 6542 6543
          6544 6545 6546 6547 6548 6549
          6550 6551 6552 6553 6554 6555
          6556 6557 6558 6559 6560 6561
          6562 6563 6564 6565 6566 6567
          6568 6569 6570 6571 6572 6573
          6574 6575 6576 6577 6578 6579
          6580 6581 6582 6583 6584 6585
          6586 6587 6588 6589 6590 6591
          6592 6593 6594 6595 6596 6597
          6598 6599 6600 6601 6602 6603
          6604 6605 6606 6607 6608 6609
          6610 6611 6612 6613 6614 6615
          6616 6617 6618 6619 6620 6621
          6622 6623 6624 6625 6626 6627
          6628 6629 6630 6631 6632 6633
          6634 6635 6636 6637 6638 6639
          6640 6641 6642 6643 6644 6645
          6646 6647 6648 6649 6650 6651
          6652 6653 6654 6655 6656 6657
          6658 6659 6660 6661 6662 6663
          6664 6665 6666 6667 6668 6669
          6670 6671 6672 6673 6674 6675
          6676 6677 6678 6679 6680 6681
          6682 6683 6684 6685 6686 6687
          6688 6689 6690 6691 6692 6693
          6694 6695 6696 6697 6698 6699
          6700 6701 6702 6703 6704 6705
          6706 6707 6708 6709 6710 6711
          6712 6713 6714 6715 6716 6717
          6718 6719 6720 6721 6722 6723
          6724 6725 6726 6727 6728 6729
          6730 6731 6732 6733 6734 6735
          6736 6737 6738 6739 6740 6741
          6742 6743 6744 6745 6746 6747
          6748 6749 6750 6751 6752 6753
          6754 6755 6756 6757 6758 6759
          6760 6761 6762 6763 6764 6765
          6766 6767 6768 6769 6770 6771
          6772 6773 6774 6775 6776 6777
          6778 6779 6780 6781 6782 6783
          6784 6785 6786 6787 6788 6789
          6790 6791 6792 6793 6794 6795
          6796 6797 6798 6799 6800 6801
          6802 6803 6804 6805 6806 6807
          6808 6809 6810 6811 6812 6813
          6814 6815 6816 6817 6818 6819
          6820 6821 6822 6823 6824 6825
          6826 6827 6828 6829 6830 6831
          6832 6833 6834 6835 6836 6837
          6838 6839 7125 7142 7143 7146
          7149 7374 7375 7378 7402 7403
          7406 8018 8019 8020 8021 8022
          8023 8024 8025 8026 8027 8028
          8029 8032 8033 8035 8037 8038
          8039 8040 8041 8042 8043 8044
          8045 8046 8047 8048 8049 8052
          8053 8055 8057 8058 8059 8060
          8061 8062 8063 8064 8065 8067
          8072 8073 8074 8075 8076 8077
          8078 8079 8081 8154 8155 8156
          8157 8158 8159 8160 8161 8162
          8163 8164 8165 8168 8169 8171
          8173 8174 8175 8176 8177 8178
          8179 8180 8181 8183 8188 8189
          8190 8191 8192 8193 8195 8196
          8197 8198 8199 8262 8263 8264
          8265 8266 8267 8268 8276 8277
          8278 8279 8280 8281 8282 8290
          8291 8292 8293 8294 8295 8296
          8304 8305 8306 8307 8308 8309
          8310 8374 8375 8376 8377 8378
          8379 8380 8388 8389 8390 8392
          8393 8394 8402 8403 8404 8405
          8406 8407 8408 8416 8417 8418
          8420 8421 8422 8947 8948 8949
          8950 8951 8952 8953 8954 8955
          8956 8957 8958 8959 8961 8962
          8963 8964 8965 8966 8967 8968
          8969 8971 8972 8973 8974 8975
          8976 8977 8978 8979 8981 8983
          8984 8985 8988 8989 9005 9007
          9008 9009 9012 9013 9025 9026
          9029 9030 9032 9033 9036 9037
          9059 9060 9063 9064 9066 9067
          9070 9071 9121 9122 9125 9126
          9128 9161 9165 9195 9199 3028
          2611 3065 3063 3047 3048 3064
          2616 3067 3069 3068 3052 3070
          2621 3072 3036 2612 3545 3037
          3038 3546 2436 3549 3551 3550
          3090 3562 3091 3563 3566 3567
          3582 3580 3077 3153 3151 3601
          3125 3161 3980 3984 4008 4014
          4010 3985 4015 4012 4018 4019
          4045 4047 4075 4079 3948 4103
          4089 3983 4043 4107 4123 4093
          4127 4386 4387 4384 4385 4388
          4509 4498 4510 4499 4511 4512
          4516 4501 4519 4520 4521 4522
          4529 4502 4533 4504 4563 4564
          3944 3945 5455 5453 3042 5458
          5457 3953 5454 3954 3955 3958
          2614 5469 5467 5472 5471 5468
          4203 4204 5516 4205 5517 5520
          4208 3096 4364 3121 5530 5531
          5534 6102 6110 6112 6123 6126
          6111 4044 6127 6125 6130 6131
          6154 6156 6181 6155 4050 6182
          6185 6186 6164 6166 6188 6165
          4051 6189 6192 6193 6330 6333
          6334 6332 6337 6338 6350 6353
          6354 6352 6357 6358 6374 6375
          6378 6379 6381 6382 6385 6386
          6402 6403 6406 6407 6409 6410
          6413 6414 6107 6101 6108 6109
          6151 6152 6153 6161 6162 6163
          7107 7109 7112 7111 7113 7114
          7115 7117 7121 7123 7119 7122
          7124 4232 7140 7141 7144 7145
          7147 7148 7150 7151 7153 7152
          3101 7372 7373 7376 7377 7379
          7381 7383 7385 7400 7401 7404
          7405 7407 7409 7411 7413 7110
          7120 8030 8031 8034 8036 4365
          8050 8051 8054 8056 4368 8066
          8068 8069 8070 8071 4370 8080
          8082 8083 8084 8085 3122 8166
          8167 8170 8172 8182 8184 8185
          8186 8187 4390 8194 4391 8200
          8201 8202 8203 8204 8205 8206
          8207 3126 8269 8271 8273 8275
          8283 8285 8287 8289 8297 8299
          8301 8303 8311 8313 8315 8317
          8381 8383 8385 8387 8391 4418
          8395 8397 8399 8401 8409 8411
          8413 8415 8419 4422 8423 8425
          8427 8429 8960 4517 8970 4526
          8980 4527 8986 8982 8987 8990
          4530 9010 9006 9011 9014 4534
          9027 9028 9031 4536 9034 9035
          9038 4537 9061 9062 9065 4540
          9068 9069 9072 4541 9123 9124
          9127 9129 9130 4570 9162 9163
          9164 9166 9167 4583 9196 9197
          9198 9200 9201 4587
        </DataArray>
        <DataArray type="Float64" Name="bounds" format="ascii" RangeMin="0" RangeMax="0">
          0 0 0 0 0 0
          0 0 0 0 0 0
          0 0 0 0 0 0
          0 0 0 0 0 0
          0 0 0 0 0 0
          0 0 0 0 0 0
          0 0 0 0 0 0
          0 0 0 0 0 0
          0 0 0 0 0 0
          0 0 0 0 0 0
          0 0 0 0 0 0
          0 0 0 0 0 0
          0 0 0 0 0 0
          0 0 0 0 0 0
          0 0 0 0 0 0
          0 0 0 0 0 0
          0 0 0 0 0 0
          0 0 0 0 0 0
          0 0 0 0 0 0
          0 0 0 0 0 0
          0 0 0 0 0 0
          0 0 0 0 0 0
          0 0 0 0 0 0
          0 0 0 0 0 0
          0 0 0 0 0 0
          0 0 0 0 0 0
          0 0 0 0 0 0
          0 0 0 0 0 0
          0 0 0 0 0 0
          0 0 0 0 0 0
          0 0 0 0 0 0
          0 0 0 0 0 0
          0 0 0 0 0 0
          0 0 0 0 0 0
          0 0 0 0 0 0
          0 0 0 0 0 0
          0 0 0 0 0 0
          0 0 0 0 0 0
          0 0 0 0 0 0
          0 0 0 0 0 0
          0 0 0 0 0 0
          0 0 0 0 0 0
          0 0 0 0 0 0
          0 0 0 0 0 0
          0 0 0 0 0 0
          0 0 0 0 0 0
          0 0 0 0 0 0
          0 0 0 0 0 0
          0 0 0 0 0 0
          0 0 0 0 0 0
          0 0 0 0 0 0
          0 0 0 0 0 0
          0 0 0 0 0 0
          0 0 0 0 0 0
          0 0 0 0 0 0
          0 0 0 0 0 0
          0 0 0 0 0 0
          0 0 0 0 0 0
          0 0 0 0 0 0
          0 0 0 0 0 0
          0 0 0 0 0 0
          0 0 0 0 0 0
          0 0 0 0 0 0
          0 0 0 0 0 0
          0 0 0 0 0 0
          0 0 0 0 0 0
          0 0 0 0 0 0
          0 0 0 0 0 0
          0 0 0 0 0 0
          0 0 0 0 0 0
          0 0 0 0 0 0
          0 0 0 0 0 0
          0 0 0 0 0 0
          0 0 0 0 0 0
          0 0 0 0 0 0
          0 0 0 0 0 0
          0 0 0 0 0 0
          0 0 0 0 0 0
          0 0 0 0 0 0
          0 0 0 0 0 0
          0 0 0 0 0 0
          0 0 0 0 0 0
          0 0 0 0 0 0
          0 0 0 0 0 0
          0 0 0 0 0 0
          0 0 0 0 0 0
          0 0 0 0 0 0
          0 0 0 0 0 0
          0 0 0 0 0 0
          0 0 0 0 0 0
          0 0 0 0 0 0
          0 0 0 0 0 0
          0 0 0 0 0 0
          0 0 0 0 0 0
          0 0 0 0 0 0
          0 0 0 0 0 0
          0 0 0 0 0 0
          0 0 0 0 0 0
          0 0 0 0 0 0
          0 0 0 0 0 0
          0 0 0 0 0 0
          0 0 0 0 0 0
          0 0 0 0 0 0
          0 0 0 0 0 0
          0 0 0 0 0 0
          0 0 0 0 0 0
          0 0 0 0 0 0
          0 0 0 0 0 0
          0 0 0 0 0 0
          0 0 0 0 0 0
          0 0 0 0 0 0
          0 0 0 0 0 0
          0 0 0 0 0 0
          0 0 0 0 0 0
          0 0 0 0 0 0
          0 0 0 0 0 0
          0 0 0 0 0 0
          0 0 0 0 0 0
          0 0 0 0 0 0
          0 0 0 0 0 0
          0 0 0 0 0 0
          0 0 0 0 0 0
          0 0 0 0 0 0
          0 0 0 0 0 0
          0 0 0 0 0 0
          0 0 0 0 0 0
          0 0 0 0 0 0
          0 0 0 0 0 0
          0 0 0 0 0 0
          0 0 0 0 0 0
          0 0 0 0 0 0
          0 0 0 0 0 0
          0 0 0 0 0 0
          0 0 0 0 0 0
          0 0 0 0 0 0
          0 0 0 0 0 0
          0 0 0 0 0 0
          0 0 0 0 0 0
          0 0 0 0 0 0
          0 0 0 0 0 0
          0 0 0 0 0 0
          0 0 0 0 0 0
          0 0 0 0 0 0
          0 0 0 0 0 0
          0 0 0 0 0 0
          0 0 0 0 0 0
          0 0 0 0 0 0
          0 0 0 0 0 0
          0 0 0 0 0 0
          0 0 0 0 0 0
          0 0 0 0 0 0
          0 0 0 0 0 0
          0 0 0 0 0 0
          0 0 0 0 0 0
          0 0 0 0 0 0
          0 0 0 0 0 0
          0 0 0 0 0 0
          0 0 0 0 0 0
          0 0 0 0 0 0
          0 0 0 0 0 0
          0 0 0 0 0 0
          0 0 0 0 0 0
          0 0 0 0 0 0
          0 0 0 0 0 0
          0 0 0 0 0 0
          0 0 0 0 0 0
          0 0 0 0 0 0
          0 0 0 0 0 0
          0 0 0 0 0 0
          0 0 0 0 0 0
          0 0 0 0 0 0
          0 0 0 0 0 0
          0 0 0 0 0 0
          0 0 0 0 0 0
          0 0 0 0 0 0
          0 0 0 0 0 0
          0 0 0 0 0 0
          0 0 0 0 0 0
          0 0 0 0 0 0
          0 0 0 0 0 0
          0 0 0 0 0 0
          0 0 0 0 0 0
          0 0 0 0 0 0
          0 0 0 0 0 0
          0 0 0 0 0 0
          0 0 0 0 0 0
          0 0 0 0 0 0
          0 0 0 0 0 0
          0 0 0 0 0 0
          0 0 0 0 0 0
          0 0 0 0 0 0
          0 0 0 0 0 0
          0 0 0 0 0 0
          0 0 0 0 0 0
          0 0 0 0 0 0
          0 0 0 0
        </DataArray>
        <DataArray type="Float64" Name="gradient_error" format="ascii" RangeMin="8.209592081300965e-12" RangeMax="3.7877625134272754e-8">
          5.085644892922487e-11 9.276225829128028e-11 2.2115868342154322e-8 9.179670789136905e-10 6.997481632107531e-10 5.083100973911916e-10
          1.1397451603069997e-9 1.497738581651912e-8 2.0178227707096004e-8 2.1532902824497197e-10 2.321606581581475e-10 1.1239050491535224e-10
          1.5009345364234935e-10 5.0496818852987386e-11 2.878038498833265e-11 4.174568522305079e-10 2.9817376610627816e-10 8.223049519905995e-11
          2.4468730461428764e-10 1.6174861197648885e-10 1.1085907998727122e-8 1.20831548806956e-8 1.0191841590820484e-8 1.3080401762664082e-8
          5.998190145841002e-10 5.254378173968612e-9 1.0975572235586374e-9 5.736121675462998e-9 9.8711602760468e-10 8.708939366730633e-10
          1.0312700573297213e-9 2.8990941411083145e-9 1.7527971897079123e-9 4.524551472307198e-9 9.53952904032918e-10 4.996622576972391e-10
          1.3930377335464267e-9 6.3743161077984086e-9 3.7923216269090655e-9 7.189998099633856e-9 1.864836562250195e-9 9.649289020256548e-10
          2.0972313960951904e-9 1.5941389792685964e-9 3.550311021535488e-10 2.2341589715267525e-10 9.611071057138133e-10 1.2607926090013236e-10
          2.5147610479086157e-9 4.2769994406036666e-10 1.4889085842283821e-9 2.579457728248079e-10 1.7436631065319242e-10 1.923574949831465e-10
          1.3789887779211674e-10 1.527554293603173e-10 9.53764986456025e-11 7.393645779499262e-11 3.555755856389373e-10 2.9414842372201125e-10
          1.861925494933652e-10 5.222218313875103e-10 1.180065686958656e-10 6.459561588098554e-11 2.864359171916602e-10 5.4869097772230154e-11
          7.697321170986885e-10 1.130293399469992e-10 3.995793936287021e-10 8.167811378010906e-11 4.72674716456444e-11 7.240941952870979e-11
          4.7969705154344155e-11 6.200264872154988e-11 3.790162050263238e-11 4.113245989214008e-11 8.74264701410372e-11 6.866958102688693e-11
          3.7561087900140073e-11 3.561641192234398e-9 6.760624459637989e-10 2.1078352539067887e-9 3.6149104846295184e-10 4.0231004659026784e-9
          7.552528778711901e-10 2.413442757831191e-9 5.897132825814388e-10 5.066282263000756e-10 3.030876591062254e-10 2.5257294368671313e-10
          6.65657459488551e-10 5.774869051867094e-10 3.542089591844923e-10 1.0371304042413684e-9 1.6933979922667388e-10 5.297780313557344e-10
          7.206232501384151e-11 1.169947999166252e-9 1.960578564977957e-10 5.954219353902507e-10 1.3636035336190964e-10 1.1022224076602083e-10
          5.558469527569628e-11 4.3615024182549776e-11 1.5990088961200863e-10 1.3053080097031161e-10 6.423104858052148e-11 1.8246164738871413e-10
          4.203362352413026e-10 7.493768669202143e-10 7.98212565851045e-10 1.4329620402407146e-10 1.0721283880766172e-10 8.286077341390669e-11
          5.656610877726173e-11 2.37976874380738e-10 1.1878675326636052e-10 6.64636170490481e-11 4.852717695322365e-11 5.320015367879449e-11
          4.2469499610297346e-10 2.060337385708416e-10 4.889259336043796e-10 2.455389026806159e-10 8.760743090935237e-11 1.046722006888792e-10
          1.7350943528977323e-10 2.985889507506842e-10 1.2559855822525787e-10 2.1982745773186136e-10 1.0994336681717765e-10 1.8151861929381737e-10
          1.3201989887111932e-10 6.41177133659247e-11 1.001344060636567e-10 4.5579075429414654e-11 7.185836747698524e-11 4.701517882351708e-11
          6.821207043319925e-11 4.857181387613185e-11 9.081804458321882e-11 1.6200216401550348e-10 5.658307993534279e-11 9.639239064001452e-11
          3.244495268756508e-11 5.1925776143644605e-11 2.3596047962107678e-11 3.480283009342767e-11 5.933046729548585e-10 5.625149145051046e-10
          5.074768571653364e-10 7.616098929362447e-10 4.6231904513436556e-10 4.221512180355266e-10 6.475392096332453e-10 3.845918526735473e-10
          3.4873703118597163e-10 5.536432829651754e-10 1.0317999944489674e-9 9.885275701211218e-10 9.170926905800749e-10 1.1432023853594537e-9
          1.2336486223635677e-9 1.207195894914159e-9 1.153363728005637e-9 1.2194173187366247e-9 8.622403251830155e-10 8.089707472397407e-10
          1.0428491943587164e-9 7.555802829543025e-10 7.017327993258001e-10 9.298248451015367e-10 1.0987755472906622e-9 1.043580925033479e-9
          1.0855806042818004e-9 9.8663211613741e-10 9.277492645176434e-10 9.755059251526841e-10 2.2616139664179427e-10 2.6019310976058245e-10
          2.0834535174717324e-10 3.6312131193332476e-10 1.9813069857295187e-10 2.356118467245705e-10 1.5688970937967295e-10 1.9592916346465256e-10
          1.5754642389753682e-10 1.8755327809513932e-10 1.5416564766837284e-10 3.3368525432512393e-10 2.860411596813114e-10 2.640176402541714e-10
          1.4051305849137724e-10 1.6332771952229275e-10 1.237399185062651e-10 2.2524054477312694e-10 1.2261435940573643e-10 1.4596005824252786e-10
          9.581137626506528e-11 1.1836346516902918e-10 9.265047019049399e-11 1.1022632945324591e-10 8.868452853041922e-11 2.039515551173712e-10
          1.7000854750763525e-10 1.527526848589109e-10 4.842293899943401e-10 3.8421037649087314e-10 6.432350996916736e-10 4.5493597112085705e-10
          4.045296795881782e-10 3.5800684646525894e-10 3.1371016780164415e-10 6.113387215413717e-10 5.551476563196725e-10 4.768129563058811e-10
          2.978478512326806e-10 2.2267337219964312e-10 3.8728882142491805e-10 2.747140999152323e-10 2.365949290854368e-10 2.041068063687135e-10
          1.736073892175225e-10 3.622738272914968e-10 3.197926042735178e-10 2.663562962229186e-10 1.347397156419581e-10 1.7003845453268944e-10
          1.181608829629023e-10 1.50094022464749e-10 1.0576331433814309e-10 1.3271206690765584e-10 1.1645543329505537e-10 2.5350727406436096e-10
          2.267375859694972e-10 1.9619721035421589e-10 1.0392512925813003e-10 1.3283440080175957e-10 9.121159826363493e-11 1.1727923754596534e-10
          8.077026343414285e-11 1.0259668183965627e-10 9.024697073780974e-11 2.029310209321402e-10 1.81037114965348e-10 1.5526216127789928e-10
          8.104832282745431e-11 1.0106048667129259e-10 7.02893236150986e-11 8.815472992646848e-11 6.073168417946611e-11 7.516795202948568e-11
          6.520495552226632e-11 1.4791880397536677e-10 1.305849505222511e-10 1.0873783565050732e-10 6.127672403203169e-11 7.729436152698416e-11
          5.3403922260210296e-11 6.772017844967996e-11 4.552066393208251e-11 5.6915120217324415e-11 4.9674721323973713e-11 1.1566401525063036e-10
          1.022638139752556e-10 8.402897480687334e-11 3.656565312628229e-10 3.3182041715830466e-10 2.8091917971177824e-10 2.531801147570156e-10
          5.099024409646215e-10 4.692719273625933e-10 3.892169503587044e-10 3.0066541139733075e-10 2.7127816077360215e-10 2.280827313011361e-10
          2.0472011132311204e-10 4.305790976242964e-10 3.930854994906001e-10 3.2414729609066484e-10 2.0979294917492846e-10 1.8770537172316835e-10
          1.524774687812857e-10 1.3544070480797425e-10 2.881154290419425e-10 2.6113925983504607e-10 2.07086157804491e-10 1.6808279259533555e-10
          1.5006529578337104e-10 1.2055429500624078e-10 1.0705224298829495e-10 2.3644953250082654e-10 2.1325161429324295e-10 1.674413081732727e-10
          7.822638774606807e-11 9.154666385536094e-11 6.734374866623656e-11 1.242914706432021e-10 6.836331305881046e-11 8.128339556094782e-11
          5.318536131207788e-11 6.489279201498783e-11 5.010361696144016e-11 5.928514075187469e-11 4.6575516728807194e-11 1.1162005287215954e-10
          9.126285667836476e-11 8.043862493571283e-11 4.1463904956842385e-11 4.7960521985840044e-11 4.156475204846262e-11 6.329709820141795e-11
          3.596858829519582e-11 4.205729892032391e-11 2.725279489390758e-11 3.2577777570454106e-11 3.106166687579385e-11 3.571662218610271e-11
          2.6779329247335595e-11 5.615612043438906e-11 4.471173932118113e-11 4.2343287253105063e-11 1.6170952936420706e-10 1.1680754302521168e-10
          2.05048353168385e-10 1.4752338931071637e-10 1.2415278386712546e-10 1.0524217271778162e-10 8.676643334523129e-11 1.8988291831872263e-10
          1.6397242371408986e-10 1.3374982473767164e-10 8.092992441915098e-11 5.5931739068180294e-11 9.989898763543083e-11 7.27200590068127e-11
          5.940926559148838e-11 4.9515358945968475e-11 3.9462300309067255e-11 9.108125690264294e-11 7.631098154705172e-11 6.19715812799295e-11
          4.443926006989229e-11 5.4607113053726034e-11 3.818064972515915e-11 4.7096516713963817e-11 3.1871138461896316e-11 3.880198947213468e-11
          3.3197025097453444e-11 7.80287452483935e-11 6.800145540651622e-11 5.4690598447611576e-11 3.3080201687148994e-11 4.094960322914334e-11
          2.8676534316115867e-11 3.555521696555609e-11 2.3594143382859794e-11 2.8542527284923238e-11 2.668221384347383e-11 5.972695739254974e-11
          5.239012980494614e-11 4.1043268017648293e-11 2.204282783612745e-11 2.6692450206598116e-11 1.8659709801782927e-11 2.267958015925602e-11
          1.8395892727010578e-11 2.1724999842007538e-11 1.843905524208353e-11 3.744521913230405e-11 3.2167347434931195e-11 2.7368137007886752e-11
          1.6511263640732502e-11 1.9654237901826846e-11 1.575644519588814e-11 1.8332736612237435e-11 1.4055923535825115e-11 1.6471067931416528e-11
          1.582385889175267e-11 2.778197790767145e-11 2.589166802587415e-11 2.0569692050612525e-11 1.0802610800220867e-10 9.528935304372823e-11
          7.474135793027832e-11 6.542324153440411e-11 1.4482445967117993e-10 1.2917654120339081e-10 9.881478487934828e-11 8.443470003258206e-11
          7.470454803045891e-11 5.761451000523448e-11 5.064092230982556e-11 1.1537165418884289e-10 1.0277796683278176e-10 7.755059883023597e-11
          5.063834131265035e-11 4.4003926595709454e-11 3.3305840826627754e-11 2.877533010489388e-11 6.594059348922048e-11 5.785687733349267e-11
          4.3171633175186524e-11 3.847079910133753e-11 3.355654596397651e-11 2.507408855938028e-11 2.1868620562672567e-11 5.097580011637358e-11
          4.4879227390121174e-11 3.2876628014917e-11 8.31456403920019e-10 6.488549787599956e-10 9.482755758771926e-10 7.915404184485104e-10
          7.263736716964045e-10 6.144621853508899e-10 5.576680579424747e-10 9.247388075311753e-10 8.761986084997499e-10 7.239633048049799e-10
          4.935146956182264e-10 3.6250191156656486e-10 5.732578110067531e-10 4.63584334929272e-10 4.145356170944283e-10 3.382067067432786e-10
          2.9839539917294704e-10 5.483593199817368e-10 5.033386105135334e-10 4.007365939983764e-10 1.021685034437749e-9 8.198483808332722e-10
          1.0597025045792046e-9 9.95204463927652e-10 9.435153848076438e-10 7.92270240089911e-10 7.412937073916246e-10 1.0169291350748856e-9
          9.49031240732617e-10 8.174508733747971e-10 6.331994648299091e-10 4.706056606940373e-10 6.636920495052445e-10 6.064387885295454e-10
          5.587032312756422e-10 4.460143325214497e-10 4.0389803932335093e-10 6.296107990462092e-10 5.743035843946348e-10 4.647667298224694e-10
          6.778229805751716e-10 6.31774775433585e-10 5.154438004824674e-10 4.767372156236559e-10 8.266743384327066e-10 7.775030000664668e-10
          6.318646300101792e-10 5.864188479912609e-10 5.413098109200244e-10 4.394263682505706e-10 4.029388581504792e-10 7.278270848628227e-10
          6.774393221636548e-10 5.480971977186158e-10 3.791130931743815e-10 3.4768876397112075e-10 2.6999746985760044e-10 2.4546193517840464e-10
          4.6537700913018466e-10 4.305841846853607e-10 3.3057402938563144e-10 3.1810331543231835e-10 2.896901522998852e-10 2.2287541374370903e-10
          2.015701473511098e-10 3.971047155448677e-10 3.643900508689698e-10 2.772895575816756e-10 8.935358385784386e-10 8.436363531964285e-10
          6.959293147239851e-10 6.522226846611275e-10 8.991997873329086e-10 8.494652267461174e-10 7.096878278674313e-10 7.927981072438822e-10
          7.40841201467344e-10 6.086392956621698e-10 5.648423565600715e-10 7.988339987718184e-10 7.470813499110315e-10 6.217065804985625e-10
          5.190214262104544e-10 4.823327222450002e-10 3.7120336667375387e-10 3.418620848038828e-10 5.341051033396717e-10 4.968570620311013e-10
          3.841647848235258e-10 4.4665803046400686e-10 4.114911906769821e-10 3.1404661012624375e-10 2.871681922273936e-10 4.605637494126089e-10
          4.2471875388468963e-10 3.257425331313102e-10 2.5567010010190466e-10 1.8048753812198244e-10 2.9711290683833393e-10 2.381117695442948e-10
          2.0848500080868201e-10 1.6569350351113407e-10 1.418653801841413e-10 2.8066152577439663e-10 2.5110654492061304e-10 1.942913430544726e-10
          1.2068731840681328e-10 8.285517658616995e-11 1.3811160034142968e-10 1.1095502296743705e-10 9.452575383147203e-11 7.466294979846451e-11
          6.172671930583672e-11 1.2852234404799749e-10 1.1163333277381362e-10 8.59213250542027e-11 3.291903107203396e-10 2.318180211686746e-10
          3.4510135903771447e-10 3.120832696131274e-10 2.8105533841177433e-10 2.1564541854831746e-10 1.8906610010637602e-10 3.253113410688048e-10
          2.913028182669263e-10 2.246692686410614e-10 1.511120188174724e-10 1.0349819889440447e-10 1.5730028994515406e-10 1.4143727741272037e-10
          1.2401304451594328e-10 9.42323464797062e-11 7.951715406178964e-11 1.4685128554933333e-10 1.28486780840715e-10 9.770635564856217e-11
          1.8663548160056366e-10 1.681959556454696e-10 1.2564853872463578e-10 1.1224284290943679e-10 2.2708090102583818e-10 2.0630223090686727e-10
          1.5148412298020832e-10 1.5156610354629384e-10 1.361473546160067e-10 1.0039155859139628e-10 8.957970452994249e-11 1.8723096383897448e-10
          1.6929848583974388e-10 1.2277367060695462e-10 8.269979694618983e-11 7.322336126627891e-11 5.3403866303310975e-11 4.685825252822881e-11
          9.860558573621917e-11 8.793961025908761e-11 6.29236286151306e-11 6.500925749298977e-11 5.7630183201727154e-11 4.129706542294174e-11
          3.637684143924397e-11 7.855549166522412e-11 7.003171761165924e-11 4.92644794494442e-11 2.554530479953877e-10 2.3312029916663767e-10
          1.7003997740505499e-10 1.537441948127159e-10 2.651360293430565e-10 2.4226314438089093e-10 1.7661357598797488e-10 2.1242480261890783e-10
          1.9280645066938367e-10 1.3896960069442346e-10 1.2521676896962657e-10 2.2101106632597092e-10 2.0081744129175123e-10 1.4470717485941739e-10
          1.1012481336883343e-10 9.864123716626651e-11 6.980375361917917e-11 6.191952713763475e-11 1.1428517911692864e-10 1.0250883051821587e-10
          7.231124588427367e-11 8.84471582359551e-11 7.912264467570883e-11 5.507435945621832e-11 4.891659006690049e-11 9.202510244494771e-11
          8.241386965474632e-11 5.719738003594347e-11 1.6056942041147998e-10 3.143762703522198e-10 2.815714509503643e-10 4.637951822182961e-10
          2.5047826602695954e-10 6.475963963455514e-10 5.935726313004296e-10 8.105860176720615e-10 8.671146653497732e-10 8.051437350535504e-10
          8.587524207427879e-10 7.970551863984349e-11 1.0307959335636496e-10 6.929039416585851e-11 9.011383531889878e-11 6.157125715505764e-11
          7.906453186786143e-11 6.89271064636352e-11 1.607010848848767e-10 1.4182603489184307e-10 1.219231837232181e-10 5.990139224356302e-11
          7.832706057726091e-11 4.6096895263572596e-11 5.976851620204812e-11 1.2439994265504333e-10 9.372510536647324e-11 4.6393515314494244e-11
          5.912619770011135e-11 4.013650577654745e-11 5.1388855373553816e-11 3.4240212635155075e-11 4.320700167205073e-11 3.7414207890663095e-11
          9.004864424269044e-11 7.889037995204232e-11 6.482502726478324e-11 3.4555625328820775e-11 4.443399252795376e-11 2.5334551418761234e-11
          3.224315968901571e-11 6.873105619518792e-11 4.9101126309539297e-11 2.434026606103042e-10 2.1703692133406918e-10 1.828008069617112e-10
          1.6226815472566948e-10 3.5669677541960047e-10 3.2156168758766067e-10 2.6540685743286274e-10 1.9226402318704192e-10 1.4314505652097777e-10
          1.3334800035856973e-10 1.1783967204241634e-10 9.466030204704447e-11 8.327325013766456e-11 1.913180965217964e-10 1.7062860633604274e-10
          1.3389559013746584e-10 1.0352137471035738e-10 7.284880592129968e-11 2.4714921166550382e-11 3.069149298496177e-11 2.1212991733755827e-11
          2.6414559332456833e-11 2.0988816166313966e-11 2.5365597664766417e-11 2.1720915892726403e-11 4.5611318467543514e-11 3.951626332877392e-11
          3.4481346176298014e-11 1.8145739855971935e-11 2.2678384053329375e-11 1.534831211503948e-11 1.8605610653705803e-11 3.415184288945529e-11
          2.5576704324586995e-11 6.570844840996233e-11 5.747199228733227e-11 4.42151385992327e-11 3.844063270988003e-11 9.117417113027522e-11
          8.047120039588701e-11 6.05847749792053e-11 5.004948154822871e-11 3.3332395047138706e-11 2.446036032313789e-11 2.915484039603498e-11
          2.1077472688446728e-11 2.526638420638847e-11 1.620570869694394e-11 1.9004682487152574e-11 3.938387653478786e-11 3.441075684612585e-11
          2.5129751401968364e-11 1.8137378709768383e-11 2.182752611429052e-11 4.965340452304477e-10 4.524007222445984e-10 3.6724979590310335e-10
          3.3254654311845653e-10 6.265518623125915e-10 5.755791895835423e-10 4.653965883352145e-10 2.6232237279760754e-10 2.3607302778527974e-10
          1.8135693339363205e-10 1.6222613719116915e-10 3.3240282452272256e-10 3.0130121143467244e-10 2.2880497149740902e-10 6.879870366171258e-10