<?xml version="1.0"?>
<VTKFile type="UnstructuredGrid" version="0.1" byte_order="LittleEndian" header_type="UInt32" compressor="vtkZLibDataCompressor">
  <UnstructuredGrid>
    <Piece NumberOfPoints="409" NumberOfCells="219">
      <PointData>
        <DataArray type="Int32" Name="libmesh_node_id" format="ascii" RangeMin="328" RangeMax="1876">
          328 359 368 431 432 433
          434 435 436 437 439 440
          441 442 443 444 513 516
          521 523 564 565 566 567
          568 569 570 571 572 573
          574 575 576 577 578 579
          580 581 582 583 584 585
          586 587 588 589 590 591
          592 593 594 595 596 597
          598 599 600 601 602 603
          604 605 606 607 608 609
          613 614 616 617 619 634
          635 638 639 641 643 778
          779 782 783 901 902 903
          907 908 909 910 911 912
          913 914 915 916 917 924
          925 926 927 931 932 998
          999 1000 1001 1002 1003 1004
          1005 1006 1007 1008 1009 1010
          1011 1012 1013 1014 1015 1016
          1017 1018 1019 1020 1021 1022
          1023 1024 1025 1026 1027 1028
          1029 1030 1031 1032 1033 1034
          1035 1036 1037 1038 1039 1040
          1041 1042 1043 1044 1045 1046
          1047 1048 1049 1050 1051 1052
          1053 1054 1055 1056 1057 1058
          1059 1060 1061 1062 1063 1064
          1065 1066 1067 1068 1069 1070
          1071 1072 1073 1074 1075 1076
          1077 1078 1079 1080 1081 1082
          1083 1084 1085 1086 1087 1088
          1089 1090 1091 1092 1093 1094
          1095 1096 1097 1098 1099 1100
          1101 1102 1103 1104 1105 1106
          1107 1108 1109 1124 1125 1126
          1127 1128 1129 1130 1131 1132
          1133 1144 1145 1146 1147 1148
          1149 1150 1151 1152 1153 1164
          1165 1166 1167 1168 1169 1170
          1546 1547 1548 1549 1550 1551
          1556 1557 1710 1711 1712 1713
          1714 1715 1716 1717 1718 1719
          1720 1721 1722 1723 1724 1725
          1726 1727 1728 1729 1730 1731
          1732 1733 1734 1735 1736 1737
          1738 1739 1740 1741 1742 1743
          1744 1745 1746 1747 1748 1749
          1750 1751 1752 1753 1754 1755
          1756 1757 1758 1759 1760 1761
          1762 1763 1764 1765 1766 1767
          1768 1769 1770 1771 1772 1773
          1774 1775 1776 1777 1778 1779
          1780 1781 1782 1783 1784 1785
          1786 1787 1788 1789 1790 1791
          1792 1793 1794 1795 1796 1811
          1812 1813 1814 1815 1816 1817
          1818 1819 1820 1821 1822 1823
          1824 1825 1826 1827 1828 1829
          1830 1831 1832 1833 1834 1835
          1836 1837 1838 1839 1840 1841
          1842 1843 1844 1845 1846 1847
          1848 1849 1850 1851 1852 1853
          1854 1855 1856 1857 1858 1859
          1860 1861 1862 1863 1864 1865
          1866 1867 1868 1869 1870 1871
          1872 1873 1874 1875 1876 453
          526 458 532 636 637 640
          642
        </DataArray>
        <DataArray type="Float64" Name="bounds" format="ascii" RangeMin="0" RangeMax="0">
          0 0 0 0 0 0
          0 0 0 0 0 0
          0 0 0 0 0 0
          0 0 0 0 0 0
          0 0 0 0 0 0
          0 0 0 0 0 0
          0 0 0 0 0 0
          0 0 0 0 0 0
          0 0 0 0 0 0
          0 0 0 0 0 0
          0 0 0 0 0 0
          0 0 0 0 0 0
          0 0 0 0 0 0
          0 0 0 0 0 0
          0 0 0 0 0 0
          0 0 0 0 0 0
          0 0 0 0 0 0
          0 0 0 0 0 0
          0 0 0 0 0 0
          0 0 0 0 0 0
          0 0 0 0 0 0
          0 0 0 0 0 0
          0 0 0 0 0 0
          0 0 0 0 0 0
          0 0 0 0 0 0
          0 0 0 0 0 0
          0 0 0 0 0 0
          0 0 0 0 0 0
          0 0 0 0 0 0
          0 0 0 0 0 0
          0 0 0 0 0 0
          0 0 0 0 0 0
          0 0 0 0 0 0
          0 0 0 0 0 0
          0 0 0 0 0 0
          0 0 0 0 0 0
          0 0 0 0 0 0
          0 0 0 0 0 0
          0 0 0 0 0 0
          0 0 0 0 0 0
          0 0 0 0 0 0
          0 0 0 0 0 0
          0 0 0 0 0 0
          0 0 0 0 0 0
          0 0 0 0 0 0
          0 0 0 0 0 0
          0 0 0 0 0 0
          0 0 0 0 0 0
          0 0 0 0 0 0
          0 0 0 0 0 0
          0 0 0 0 0 0
          0 0 0 0 0 0
          0 0 0 0 0 0
          0 0 0 0 0 0
          0 0 0 0 0 0
          0 0 0 0 0 0
          0 0 0 0 0 0
          0 0 0 0 0 0
          0 0 0 0 0 0
          0 0 0 0 0 0
          0 0 0 0 0 0
          0 0 0 0 0 0
          0 0 0 0 0 0
          0 0 0 0 0 0
          0 0 0 0 0 0
          0 0 0 0 0 0
          0 0 0 0 0 0
          0 0 0 0 0 0
          0
        </DataArray>
        <DataArray type="Float64" Name="gradient_error" format="ascii" RangeMin="2.6881365037117657e-9" RangeMax="2.8003390224971687e-7">
          3.9197630784372314e-9 3.5191393043209285e-8 8.40406880267945e-8 6.438302030733339e-8 1.0003960552653306e-7 1.945581057207626e-7
          1.9066884779784235e-7 2.4130065575321297e-8 1.180791940952318e-7 1.0068982225500041e-7 1.3899215900037158e-7 5.1870514324296185e-8
          1.5110730157748794e-7 2.2351230125823107e-7 1.697480044477197e-7 1.3239694758834182e-7 5.862117003811157e-8 3.3592095836321396e-8
          8.092199656233913e-8 4.6461742076931106e-8 2.493643307393864e-7 2.311857425677057e-7 2.667066397269509e-7 2.8003390224971687e-7
          1.7580563424591296e-7 1.7394568585756896e-7 1.7837945437406343e-7 2.0036000700624817e-7 2.4882386069453525e-7 1.9930875892618677e-7
          2.269405255535413e-7 2.6557937549693357e-7 1.74122194352383e-7 2.688628132234033e-7 1.2336104541643212e-7 1.0688989740863028e-7
          6.658914100832955e-8 6.273275574473017e-8 1.0084012721083475e-7 4.8252575221481615e-8 7.923114125362117e-8 1.0928220308457564e-7
          1.371877417958817e-7 1.373138060327741e-7 4.469277528643032e-9 6.573620665529838e-8 5.17519777028864e-8 1.6387406025494822e-7
          9.232986651976263e-8 1.0959959187282416e-7 1.549078131789788e-7 1.5742267508108962e-7 8.016049728369451e-8 1.440185323980072e-7
          5.4571164478100037e-8 8.365248451082143e-8 9.695542447271637e-8 6.692287643189962e-8 1.8207047802057684e-7 1.8143274855771616e-7
          1.7318959886450705e-7 9.611460059184144e-8 1.0286513369656548e-7 8.591290191378782e-8 5.9228240935449776e-8 6.802795433877429e-8
          8.288845906114213e-8 1.2638410066816304e-7 7.013067554067982e-9 6.767616977312535e-8 1.6274977570068156e-7 6.37568975590599e-8
          1.2357580484359997e-7 2.8650393725304398e-8 4.9160254611298774e-8 1.5239524948744188e-7 5.825382159389604e-8 3.4978852163005136e-8
          2.520617381397877e-8 1.7631309506184534e-8 1.3272884236929376e-8 6.081544786183788e-8 1.2984177025064734e-7 1.1616909018196303e-7
          8.850969076906068e-8 4.977805567726041e-8 4.699506420144484e-8 1.2239593898789812e-7 1.0837743197392867e-7 3.3121522012514604e-8
          1.0802415445650238e-7 9.424345359064924e-8 3.864531127572024e-8 7.441840215590502e-8 6.132844937384769e-8 2.442945366787469e-8
          2.1872012474604177e-8 8.682104427911738e-8 7.466037668634783e-8 1.5611374607287508e-8 4.629709153380349e-8 4.611075916407258e-8
          5.0737094055778764e-8 4.876805133281674e-8 4.534105198959666e-8 4.9680554268741085e-8 3.67553714789183e-8 4.045449172793622e-8
          3.702588808653384e-8 4.606834823832892e-8 4.5386136292443244e-8 4.64192637414017e-8 4.9945302839114544e-8 4.490276244688212e-8
          5.041926329938355e-8 4.840031211089816e-8 5.2855442099063396e-8 4.925019098086698e-8 4.721388994544005e-8 5.3279265790297164e-8
          5.150394918287407e-8 4.9680302289899226e-8 5.868809793996013e-8 5.6891941159728644e-8 4.259234640704863e-8 4.733825648226701e-8
          5.1298190516749206e-8 5.6012194438017275e-8 5.545781464019268e-8 6.61858876093768e-8 5.379007766245509e-8 5.458921277139945e-8
          5.219184024646263e-8 6.456775184949283e-8 6.221527687971308e-8 5.3954608425956706e-8 7.046569511350765e-8 6.734885876207766e-8
          4.549357795780875e-8 5.504761456959772e-8 5.8279142342356835e-8 5.836295649065443e-8 6.677434564339096e-8 6.668363783860613e-8
          7.088011505711592e-8 3.651025663154421e-8 4.10161172937948e-8 3.6416776058694416e-8 4.24901670189477e-8 3.301340935900428e-8
          3.708435419850656e-8 3.7479737383894146e-8 4.8755754790727105e-8 5.394760951183171e-8 4.483478909891212e-8 3.668701135875164e-8
          4.416164261719201e-8 3.652927833957835e-8 4.529774738869284e-8 3.21813345234116e-8 3.80908580051219e-8 3.826923250331967e-8
          5.882535347298938e-8 6.335354408253422e-8 5.116434717170146e-8 3.9664070841738865e-8 4.6880615127130667e-8 3.740375522863728e-8
          5.2038225080090434e-8 5.554630324789211e-8 6.631266609105417e-8 2.467951276302245e-8 3.8737329908482726e-8 3.555986695661308e-8
          5.559661772835944e-8 2.450503582203062e-8 4.26191670867969e-8 8.662274034714942e-9 3.096189570843167e-8 6.81519566666272e-8
          6.992967536672522e-8 2.6881365037117657e-9 2.275520108147687e-8 6.811990420774625e-9 5.928249620116366e-8 5.4059147071640404e-8
          6.139114725057376e-8 5.12486729315115e-8 5.681643590160649e-8 5.612876251787197e-8 6.345063345668509e-8 5.39830667032076e-8
          6.905391890716859e-8 7.7068970457951e-8 6.20678086499022e-8 6.681564598194816e-8 7.209340474399081e-8 8.149706918864091e-8
          6.58073044432337e-8 5.753651559833017e-8 5.4457409880747126e-8 7.557668398869712e-8 7.164968071850921e-8 5.322889060801721e-8
          7.897383872401479e-8 7.430323187768619e-8 4.6054686726813115e-8 6.059271809778254e-8 6.14133088648584e-8 5.412341853786704e-8
          6.226212924093635e-8 5.5773483061856915e-8 7.482658680545462e-8 3.5508718941688694e-8 4.5529906449584403e-8 3.347808184940982e-8
          4.45518215634564e-8 3.028636859291524e-8 3.759705415192502e-8 3.5909650428553576e-8 6.712601601139149e-8 6.950483359653276e-8
          5.487478084547597e-8 1.0158729084147623e-8 2.2996641154387447e-8 1.279736250412957e-8 1.4320840467633836e-8 6.733004535815973e-8
          6.330098304028791e-8 5.627622649675341e-9 8.147371610880311e-9 1.0607857644854644e-8 5.972298075604643e-8 8.478515304151547e-8
          9.136558843029272e-8 7.053345791979459e-8 7.241972611861641e-8 9.086936801772803e-8 9.934707094502293e-8 7.622509385957204e-8
          2.518500924368076e-8 3.2911298503032524e-8 4.104979697291264e-8 4.744243545628941e-8 1.4126688323591783e-8 2.9800108479736747e-8
          8.77287774882628e-9 2.0765156333593985e-8 1.0531381111196309e-8 1.1231286465418985e-8 1.1078592824440431e-8 1.2145758674601e-8
          1.092589918346188e-8 6.263241605544387e-9 6.891815802395082e-9 6.735832003956563e-9 7.3103771351835815e-9 6.579848205518044e-9
          6.582312704381233e-9 6.3946717977689946e-9 6.207030891156757e-9 6.526101989993603e-9 6.413624865204858e-9 6.518612520151143e-9
          5.883216657425161e-9 6.4792135636064055e-9 6.623600175097426e-9 7.075210469787648e-9 5.935433928014634e-9 6.301393036345721e-9
          5.648049992029228e-9 6.66735214467681e-9 1.065474670561574e-8 1.0545671124103767e-8 1.0436595542591794e-8 7.262322917951901e-9
          7.448794228148712e-9 8.431562636385318e-9 7.635265538345524e-9 1.0996641660043562e-8 1.0968665001823263e-8 1.170738931509727e-8
          1.1797750326139123e-8 1.0940688343602963e-8 1.1888111337180977e-8 8.526175474258435e-9 8.960005611577068e-9 9.243607511119258e-9
          9.708475817232165e-9 9.99051925279141e-9 1.0497460040203088e-8 1.1379414157533323e-8 1.065716412650108e-8 5.266083419285219e-9
          6.169674128984502e-9 4.785745793642521e-9 5.807666433033577e-9 7.073264838683784e-9 7.813709782748683e-9 3.2698439206185363e-9
          4.8905540298202894e-9 4.247969479994789e-9 6.511264139022042e-9 4.647434474427832e-9 5.537720748350288e-9 5.064604390075165e-9
          5.768769560208553e-9 8.068035299138329e-9 8.107672504083798e-9 3.0045148550069345e-9 4.014167452752536e-9 4.500066075855836e-9
          7.0510956243004335e-9 1.0017053110918918e-8 1.025215101844105e-8 1.0043586969046426e-8 1.0282162103875564e-8 1.0835761925183015e-8
          1.0856260631747218e-8 1.1929113572540375e-8 1.0066864167548043e-8 1.0292109692832706e-8 1.1055357136993355e-8 1.3440760750436333e-8
          1.325263840003445e-8 1.4434397473222918e-8 1.306451604963257e-8 1.5800851871605918e-8 1.5602127608669886e-8 1.67973194223281e-8
          1.5052553434494906e-8 1.3524587275962551e-8 1.4053288402691033e-8 1.5045829087033088e-8 1.3404873282126104e-8 1.2462304868496832e-8
          1.262773315596719e-8 1.3325197579079926e-8 1.3535424505645817e-8 1.2793161443437548e-8 1.4035088499712106e-8 9.231571091920854e-9
          9.820882429873953e-9 1.0671929604910237e-8 1.077258906114288e-8 1.4396541913576199e-8 1.458673257887674e-8 1.565580190108945e-8
          1.5788974328488133e-8 1.4935984146279407e-8 1.6027659932735314e-8 1.1390634993823453e-8 1.1817182016122092e-8 1.317235828841627e-8
          1.3163600166468713e-8 1.408702602029917e-8 1.3560089405885439e-8 1.2186355130753359e-8 1.3592259671059972e-8 1.2875330613732182e-8
          1.4618580569230658e-8 1.5665074930991682e-8 1.4142116090079783e-8 1.5196976752399557e-8 1.4590604174286754e-8 1.569242110058574e-8
          1.5097737054056818e-8 5.899087390783943e-9 6.522263451545243e-9 6.9623351782403794e-9 7.557099811507755e-9 8.601358183196275e-9
          9.363661433046633e-9 4.818881584283514e-9 5.405589955242511e-9 6.406791951263754e-9 7.304736193299494e-9 8.069902499613592e-9
          8.734142381772784e-9 9.161312842894536e-9 9.960185128158908e-9 1.039809256680087e-8 1.168180584550518e-8 6.35076696712676e-9
          7.405258280384977e-9 8.356282914133438e-9 9.288399658728219e-9 1.149700891536406e-8 1.2292103888415352e-8 1.2936740976642114e-8
          1.4008749355512567e-8 1.0807662699974764e-8 1.152055065255864e-8 1.2998151339552048e-8 1.3213558049399018e-8 1.4334582886133263e-8
          1.5029313229128274e-8 1.6064611494679447e-8 1.2429780485994807e-8 1.356864434604533e-8 1.4742511248176368e-8 2.3991931321489514e-8
          1.584471961960426e-8 4.010311671795215e-8 2.169404566924628e-8 4.5095923740582394e-8 7.532022917055588e-8 3.2415528495514075e-8
          8.266812054363216e-8
        </DataArray>
        <DataArray type="Float64" Name="gradient_matprop_error" format="ascii" RangeMin="0" RangeMax="0">
          0 0 0 0 0 0
          0 0 0 0 0 0
          0 0 0 0 0 0
          0 0 0 0 0 0
          0 0 0 0 0 0
          0 0 0 0 0 0
          0 0 0 0 0 0
          0 0 0 0 0 0
          0 0 0 0 0 0
          0 0 0 0 0 0
          0 0 0 0 0 0
          0 0 0 0 0 0
          0 0 0 0 0 0
          0 0 0 0 0 0
          0 0 0 0 0 0
          0 0 0 0 0 0
          0 0 0 0 0 0
          0 0 0 0 0 0
          0 0 0 0 0 0
          0 0 0 0 0 0
          0 0 0 0 0 0
          0 0 0 0 0 0
          0 0 0 0 0 0
          0 0 0 0 0 0
          0 0 0 0 0 0
          0 0 0 0 0 0
          0 0 0 0 0 0
          0 0 0 0 0 0
          0 0 0 0 0 0
          0 0 0 0 0 0
          0 0 0 0 0 0
          0 0 0 0 0 0
          0 0 0 0 0 0
          0 0 0 0 0 0
          0 0 0 0 0 0
          0 0 0 0 0 0
          0 0 0 0 0 0
          0 0 0 0 0 0
          0 0 0 0 0 0
          0 0 0 0 0 0
          0 0 0 0 0 0
          0 0 0 0 0 0
          0 0 0 0 0 0
          0 0 0 0 0 0
          0 0 0 0 0 0
          0 0 0 0 0 0
          0 0 0 0 0 0
          0 0 0 0 0 0
          0 0 0 0 0 0
          0 0 0 0 0 0
          0 0 0 0 0 0
          0 0 0 0 0 0
          0 0 0 0 0 0
          0 0 0 0 0 0
          0 0 0 0 0 0
          0 0 0 0 0 0
          0 0 0 0 0 0
          0 0 0 0 0 0
          0 0 0 0 0 0
          0 0 0 0 0 0
          0 0 0 0 0 0
          0 0 0 0 0 0
          0 0 0 0 0 0
          0 0 0 0 0 0
          0 0 0 0 0 0
          0 0 0 0 0 0
          0 0 0 0 0 0
          0 0 0 0 0 0
          0
        </DataArray>
        <DataArray type="Float64" Name="initial_marker" format="ascii" RangeMin="0" RangeMax="2">
          2 0 0 0 0 1
          0.25 0 1 0 0 0
          2 1.5 2 0 0 0
          0 0 1 0.75 2 1.75
          0.5 2 2 0.3333333333333333 0.75 1
          2 2 2 1 1 0.5
          2 2 1 2 2 0
          1.5 1.5 2 2 2 2
          0 0 0.5 0.25 0 0.5
          0 0 0 0 1 0.5
          1 0 1 1 2 2
          0 1.5 2 2 2 0
          0.5 0 0 1 0 0
          0 0 0 0 0 0
          0 0 0 0 0 0
          0 0 0 0 0 0
          0 0 0 0 0 1
          2 1.5 1 2 0 0.5
          0 1.5 2 2 2 2
          2 2 2 2 1.5 2
          1.75 2 2 2 0.5 1.25
          1.5 2 2 2 2 2
          2 2 2 2 2 2
          1.5 1.75 2 2 2 2
          2 0 0.75 0 1 0
          0.5 1 1.75 2 1.5 0.5
          1.25 1 1.5 0 1 1
          2 2 2 2 2 2
          2 2 2 2 2 2
          2 2 2 2 2 2
          2 2 2 2 2 2
          2 2 2 2 2 2
          2 2 2 2 2 2
          2 2 2 2 2 2
          2 2 2 2 2 2
          2 2 2 1 1.5 1
          1.5 0 1 1 2 2
          2 2 2 2 2 2
          2 2 2 2 2 2
          2 2 2 2 2 2
          0 0 0 0 0 0
          0 0 2 2 2 2
          2 2 2 2 2 2
          2 2 2 2 2 2
          2 2 2 2 2 2
          2 2 2 2 2 2
          2 2 2 2 2 2
          2 2 2 2 2 2
          2 2 2 2 2 2
          2 2 2 2 2 2
          2 2 2 2 2 2
          2 2 2 2 2 2
          2 2 2 2 2 2
          2 2 2 2 2 2
          2 2 2 2 2 2
          2 2 2 2 2 2
          2 2 2 2 2 2
          2 2 2 2 2 2
          2 2 2 2 2 2
          2 2 2 2 2 2
          2 2 2 2 2 2
          2 2 2 2 2 2
          2 2 2 2 2 2
          2 2 2 2 2 2
          2 2 2 2 2 2
          2 2 2 2 2 2
          2 2 2 2 2 0
          0 0 0 0 0.25 0
          0.5
        </DataArray>
        <DataArray type="Float64" Name="markers_norefine" format="ascii" RangeMin="0" RangeMax="2">
          2 0 0 0 0 0
          0 0 0 0 0 0
          0 0 0 0 0 0
          0 0 0 0 0 0
          0 0 0 0 0 0
          0 0 0 0 0 0
          0 0 0 0 0 0
          0 0 2 0 0 0
          0 0 0 0 0 0
          0 0 0 0 0 0
          0 0 0 0 0 0
          0 0 2 1 0 0
          0 0 0 0 0 0
          0 0 0 0 0 0
          0 0 0 0 0 0
          0 0 0 0 0 0
          0 0 0 0 0 0
          0 0 0 0 0 0
          0 0 0 0 0 0
          0 0 0 0 0 0
          0 0 0 0 0 0
          0 0 0 0 0 0
          0 0 0 0 0 0
          0 0 0 0 0 0
          0 0 0 0 0 0
          0 0 0 0 0 0
          0 0 0 0 0 0
          0 0 0 0 0 0.5
          0 0 0 0 0 0.5
          0 1 0.5 2 1.25 0
          0 2 1.5 2 0 0
          0 0 0 0 0 0
          0 0 0 0 0 0
          0 0 0 0 0 0
          0 0 0 0 0 0
          0 0 0 0 0 0
          0 0 0 0 0 0
          0 2 1.5 2 2 0
          0.5 2 2 2 1 0
          0 0 0 0 0 0
          0 0 0 0 0 0
          0 0 0 0 0 0
          0 0 0 0 0.5 0
          0 0 0 0 0.5 0.25
          1.5 1 0 0.5 1 0.5
          1.5 0 0 0 0 2
          1.5 1.3333333333333333 1 0.5 0.25 1
          0.75 0 0.5 1.5 1.25 1.75
          1 0 0.5 1 0 2
          1.75 2 2 1.5 1.6666666666666667 2
          2 2 2 2 2 2
          2 1.75 2 2 2 2
          2 0.5 0 1 0.75 1
          0 0 1 1 0 0
          0 0 0 0 0 0
          0 0 0 0 0 1
          1 1 1 1 0.6666666666666666 2
          2 2 2 1 1 1
          1 0.75 1 2 2 2
          1.75 0 0 1 0.6666666666666666 0
          0.25 0.5 0 0 1 1.5
          0.5 2 2 2 2 2
          2 2 2 2 2 2
          2 2 2 2 2 2
          2 2 2 1.25 1.5 0.5
          1 1.5 2 1 1.75 2
          1.5 2 2 2 2 0
          0 0 0 0 0 0
          0
        </DataArray>
        <DataArray type="Float64" Name="markers_mustrefine" format="ascii" RangeMin="0" RangeMax="2">
          2 0 0 0 0 1
          0.25 0 1 0 0 0
          2 1.5 2 0 0 0
          0 0 1 0.75 2 1.75
          0.5 2 2 0.3333333333333333 0.75 1
          2 2 2 1 1 0.5
          2 2 1 2 2 0
          1.5 1.5 2 2 2 2
          0 0 0.5 0.25 0 0.5
          0 0 0 0 1 0.5
          1 0 1 1 2 2
          0 1.5 2 2 2 0
          0.5 0 0 1 0 0
          0 0 0 0 0 0
          0 0 0 0 0 0
          0 0 0 0 0 0
          0 0 0 0 0 1
          2 1.5 1 2 0 0.5
          0 1.5 2 2 2 2
          2 2 2 2 1.5 2
          1.75 2 2 2 0.5 1.25
          1.5 2 2 2 2 2
          2 2 2 2 2 2
          1.5 1.75 2 2 2 2
          2 0 0.75 0 1 0
          0.5 1 1.75 2 1.5 0.5
          1.25 1 1.5 0 1 1
          2 2 2 2 2 2
          2 2 2 2 2 2
          2 2 2 2 2 2
          2 2 2 2 2 2
          2 2 2 2 2 2
          2 2 2 2 2 2
          2 2 2 2 2 2
          2 2 2 2 2 2
          2 2 2 1 1.5 1
          1.5 0 1 1 2 2
          2 2 2 2 2 2
          2 2 2 2 2 2
          2 2 2 2 2 2
          0 0 0 0 0 0
          0 0 2 2 2 2
          2 2 2 2 2 2
          2 2 2 2 2 2
          2 2 2 2 2 2
          2 2 2 2 2 2
          2 2 2 2 2 2
          2 2 2 2 2 2
          2 2 2 2 2 2
          2 2 2 2 2 2
          2 2 2 2 2 2
          2 2 2 2 2 2
          2 2 2 2 2 2
          2 2 2 2 2 2
          2 2 2 2 2 2
          2 2 2 2 2 2
          2 2 2 2 2 2
          2 2 2 2 2 2
          2 2 2 2 2 2
          2 2 2 2 2 2
          2 2 2 2 2 2
          2 2 2 2 2 2
          2 2 2 2 2 2
          2 2 2 2 2 2
          2 2 2 2 2 2
          2 2 2 2 2 2
          2 2 2 2 2 0
          0 0 0 0 0.25 0
          0.5
        </DataArray>
        <DataArray type="Float64" Name="gradient_marker" format="ascii" RangeMin="0" RangeMax="1">
          0 0.5 1 1 0.875 0.75
          0.875 0.5 1 0.75 0.875 0.625
          0.5 1 1 1 1 1
          1 1 1 1 1 1
          0.75 0.75 0.75 1 1 0.75
          1 1 0.75 1 1 0.5
          1 1 0.75 0.5 1 0.75
          0.75 0.75 0 1 0.5 1
          0.75 0.8333333333333334 1 1 0.625 0.875
          0.5 1 1 0.75 1 1
          1 1 1 0.625 0.5 0.75
          0.625 0.75 0 0.5 1 0.375
          0.625 0 0.25 0.75 0.5 1
          1 1 1 1 1 1
          0.8333333333333334 0.5 0.5 0.75 0.75 0
          0.5 0.5 0.25 0.625 0.5 0
          0 0.5 0.5 0 0.375 0
          0.5 0.5 0.25 0.5 0 0
          0 0.25 0 0 0.5 0
          0.75 0.5 1 0.5 0.25 0.75
          0.625 0.5 1 0.75 0 0.375
          0.5 0.75 0.75 1 0.75 1
          0.75 1 0.875 1 1 1
          0.25 0.625 0.75 0.75 0.875 0.75
          1 0 0.125 0 0.25 0
          0 0 0.5 0.75 0.25 0
          0.25 0 0.25 0 0 0
          0.75 0.75 0.5 0.25 0.375 0.5
          0.75 0.75 1 0 0.25 0.5
          0.75 0.25 0.5 0 0.25 0.875
          0.75 0 0.25 0 0.75 0.875
          1 0.75 1 1 1 1
          1 1 1 1 1 1
          1 1 1 1 1 0.75
          1 0.875 0.5 0.75 0.625 0.5
          0.625 0.5 0.875 0 0.25 0
          0.25 0 0 0 0.75 0.75
          0.5 0 0.125 0 0 0.625
          0.5 0 0 0 0.5 1
          1 1 1 1 1 1
          0 0 0.25 0.25 0 0.25
          0 0.125 0 0 0 0
          0 0 0 0 0 0
          0 0 0 0 0 0
          0 0 0 0 0 0
          0 0 0 0 0 0
          0 0 0 0 0 0
          0 0 0 0 0 0
          0 0 0 0 0 0
          0 0 0 0 0 0
          0 0 0 0 0 0
          0 0 0 0 0 0
          0 0 0 0 0 0
          0 0 0 0 0 0
          0 0 0 0 0 0
          0 0 0 0 0 0
          0 0 0 0 0 0
          0 0 0 0 0 0
          0 0 0 0 0 0
          0 0 0 0 0 0
          0 0 0 0 0 0
          0 0 0 0 0 0
          0 0 0 0 0 0
          0 0 0 0 0 0
          0 0 0 0 0 0
          0 0 0 0 0 0
          0 0 0 0 0 0.5
          1 0.5 1 0.25 0.375 0
          0.25
        </DataArray>
        <DataArray type="Float64" Name="gradient_matprop_marker" format="ascii" RangeMin="0" RangeMax="0">
          0 0 0 0 0 0
          0 0 0 0 0 0
          0 0 0 0 0 0
          0 0 0 0 0 0
          0 0 0 0 0 0
          0 0 0 0 0 0
          0 0 0 0 0 0
          0 0 0 0 0 0
          0 0 0 0 0 0
          0 0 0 0 0 0
          0 0 0 0 0 0
          0 0 0 0 0 0
          0 0 0 0 0 0
          0 0 0 0 0 0
          0 0 0 0 0 0
          0 0 0 0 0 0
          0 0 0 0 0 0
          0 0 0 0 0 0
          0 0 0 0 0 0
          0 0 0 0 0 0
          0 0 0 0 0 0
          0 0 0 0 0 0
          0 0 0 0 0 0
          0 0 0 0 0 0
          0 0 0 0 0 0
          0 0 0 0 0 0
          0 0 0 0 0 0
          0 0 0 0 0 0
          0 0 0 0 0 0
          0 0 0 0 0 0
          0 0 0 0 0 0
          0 0 0 0 0 0
          0 0 0 0 0 0
          0 0 0 0 0 0
          0 0 0 0 0 0
          0 0 0 0 0 0
          0 0 0 0 0 0
          0 0 0 0 0 0
          0 0 0 0 0 0
          0 0 0 0 0 0
          0 0 0 0 0 0
          0 0 0 0 0 0
          0 0 0 0 0 0
          0 0 0 0 0 0
          0 0 0 0 0 0
          0 0 0 0 0 0
          0 0 0 0 0 0
          0 0 0 0 0 0
          0 0 0 0 0 0
          0 0 0 0 0 0
          0 0 0 0 0 0
          0 0 0 0 0 0
          0 0 0 0 0 0
          0 0 0 0 0 0
          0 0 0 0 0 0
          0 0 0 0 0 0
          0 0 0 0 0 0
          0 0 0 0 0 0
          0 0 0 0 0 0
          0 0 0 0 0 0
          0 0 0 0 0 0
          0 0 0 0 0 0
          0 0 0 0 0 0
          0 0 0 0 0 0
          0 0 0 0 0 0
          0 0 0 0 0 0
          0 0 0 0 0 0
          0 0 0 0 0 0
          0
        </DataArray>
        <DataArray type="Float64" Name="combo" format="ascii" RangeMin="0" RangeMax="2">
          2 0.5 1 1 0.875 0.75
          0.875 0.5 1 0.75 0.875 0.625
          0.5 1 1 1 1 1
          1 1 1 1 1 1
          0.75 0.75 0.75 1 1 0.75
          1 1 0.75 1 1 0.5
          1 1 0.75 0.5 1 0.75
          0.75 0.75 2 1 0.5 1
          0.75 0.8333333333333334 1 1 0.625 0.875
          0.5 1 1 0.75 1 1
          1 1 1 0.625 0.5 0.75
          0.625 0.75 2 1.5 1 0.375
          0.625 0 0.25 0.75 0.5 1
          1 1 1 1 1 1
          0.8333333333333334 0.5 0.5 0.75 0.75 0
          0.5 0.5 0.25 0.625 0.5 0
          0 0.5 0.5 0 0.375 0
          0.5 0.5 0.25 0.5 0 0
          0 0.25 0 0 0.5 0
          0.75 0.5 1 0.5 0.25 0.75
          0.625 0.5 1 0.75 0 0.375
          0.5 0.75 0.75 1 0.75 1
          0.75 1 0.875 1 1 1
          0.25 0.625 0.75 0.75 0.875 0.75
          1 0 0.125 0 0.25 0
          0 0 0.5 0.75 0.25 0
          0.25 0 0.25 0 0 0
          0.75 0.75 0.5 0.25 0.375 1
          0.75 0.75 1 0 0.25 1
          0.75 1.25 1 2 1.5 0.875
          0.75 2 1.75 2 0.75 0.875
          1 0.75 1 1 1 1
          1 1 1 1 1 1
          1 1 1 1 1 0.75
          1 0.875 0.5 0.75 0.625 0.5
          0.625 0.5 0.875 0 0.25 0
          0.25 0 0 0 0.75 0.75
          0.5 2 1.625 2 2 0.625
          1 2 2 2 1.5 1
          1 1 1 1 1 1
          0 0 0.25 0.25 0 0.25
          0 0.125 0 0 0 0
          0 0 0 0 0.5 0
          0 0 0 0 0.5 0.25
          1.5 1 0 0.5 1 0.5
          1.5 0 0 0 0 2
          1.5 1.3333333333333333 1 0.5 0.25 1
          0.75 0 0.5 1.5 1.25 1.75
          1 0 0.5 1 0 2
          1.75 2 2 1.5 1.6666666666666667 2
          2 2 2 2 2 2
          2 1.75 2 2 2 2
          2 0.5 0 1 0.75 1
          0 0 1 1 0 0
          0 0 0 0 0 0
          0 0 0 0 0 1
          1 1 1 1 0.6666666666666666 2
          2 2 2 1 1 1
          1 0.75 1 2 2 2
          1.75 0 0 1 0.6666666666666666 0
          0.25 0.5 0 0 1 1.5
          0.5 2 2 2 2 2
          2 2 2 2 2 2
          2 2 2 2 2 2
          2 2 2 1.25 1.5 0.5
          1 1.5 2 1 1.75 2
          1.5 2 2 2 2 0.5
          1 0.5 1 0.25 0.375 0
          0.25
        </DataArray>
        <DataArray type="Float64" Name="dHdT" format="ascii" RangeMin="25.843284989749513" RangeMax="127.59540739346212">
          47.266974258885696 26.113923173609507 26.463993982544693 26.37007235019597 26.256221058701925 32.51673629822918
          29.157328053815043 26.008821293995233 31.47142233294751 28.017988101398302 26.45203367069157 26.160651528977127
          37.39427986245546 34.10018436107485 33.42284359516155 26.860493330992547 25.947217905445218 25.887805402394918
          25.99824957741575 25.917032528247713 32.745180465717524 31.913952547108035 36.517099650771385 35.629387972207795
          31.502444334429953 36.782014451383205 36.422282952386155 30.564583515819773 32.70397997536499 32.60272982180629
          37.51522768927147 36.84262977080567 36.90412292915342 33.9871489380246 32.148191339760054 30.876034308958054
          39.221752554503524 37.28314612326075 30.184264114445188 37.50585001038429 37.94148233438122 28.52454301767891
          32.3003910002113 31.651746723425582 90.89703613055197 40.13767409105388 46.11342899925703 34.022952646421125
          27.260112264487162 27.71538819883195 28.529980458179157 28.86907297880679 26.938643599882138 28.092580952887673
          26.57553817820704 27.022999113726254 27.304851162160492 26.73662860274107 29.23645656970389 29.586145007119846
          28.750827854988213 27.24330970813557 30.465482539534 29.22063417169582 42.4257928283617 36.13272317159499
          27.45932555659989 30.677049043718917 46.12421992563225 52.70865758378544 32.593377611070736 26.630433751230946
          27.568937984210898 26.19551763542202 26.467751326694515 28.12027868186575 26.600356912208987 25.889051590066885
          25.872096475125986 25.85128452585699 25.843284989749513 26.696538427324228 28.207694740250012 27.89167183136
          27.3077581008974 26.550680574363952 26.477690288811733 27.867403966089974 27.565543613877065 26.28055165720781
          27.459335281517834 27.19564117117151 26.309947515323202 26.94690351956447 26.66012920283421 26.156186620832877
          26.119455598228857 27.017385470920672 26.814982293081925 26.030548679858562 26.40854547918158 34.921381063220075
          36.5318694856958 36.30722047180322 35.333211051258615 37.2801152736687 31.474706096916524 33.28538777070466
          31.98692489680272 36.061376986031306 37.0180011079901 36.95843473077748 37.276308271516235 37.04969879460393
          37.15579739337505 36.65784659728249 37.28491025918028 35.31154651955461 34.83148965584853 36.436883175226406
          36.18861271323266 34.60604149948025 36.23782511888027 35.95279610365459 33.37695604907288 35.19413423296408
          34.91764961724548 37.36978600082613 37.35209670673153 38.469293797120585 37.21544798740761 34.796105529092515
          34.27223365458548 36.00510875437172 35.689805327915664 33.81299550711748 35.71922476142609 35.36207006499617
          32.73718083035385 34.60551400406664 34.210431149857925 39.0229440105536 38.779060573457 38.3461882351881