<?xml version="1.0"?>
<VTKFile type="UnstructuredGrid" version="0.1" byte_order="LittleEndian" header_type="UInt32" compressor="vtkZLibDataCompressor">
  <UnstructuredGrid>
    <Piece NumberOfPoints="410" NumberOfCells="221">
      <PointData>
        <DataArray type="Int32" Name="libmesh_node_id" format="ascii" RangeMin="381" RangeMax="3330">
          448 453 456 457 458 526
          532 615 621 623 627 628
          629 631 633 636 637 640
          642 644 645 648 649 651
          653 942 1174 1179 1181 1182
          1184 1185 1186 1187 1189 1190
          1191 1206 1207 1208 1209 1210
          1211 1212 1213 1214 1215 1220
          1221 1225 1230 1231 1235 1246
          1247 1248 1249 1250 1251 1252
          1253 1255 1256 1257 1259 1260
          1261 1262 1263 1264 1265 1266
          1267 1268 1269 1270 1271 1272
          1273 1274 1275 1276 1277 1278
          1279 1280 1281 1282 1283 1564
          1584 1585 1586 1587 1588 1591
          1592 1644 1645 1657 1658 1664
          1948 1950 1951 1952 1953 1960
          1968 1969 1970 1978 1979 1984
          1999 2000 2003 2004 2006 2008
          2023 2028 2039 2041 2043 2045
          2053 2054 2055 2056 2057 2058
          2059 2060 2061 2062 2063 2064
          2065 2068 2069 2071 2073 2084
          2086 2088 2090 2098 2099 2100
          2101 2102 2103 2104 2105 2106
          2107 2108 2109 2112 2113 2114
          2115 2117 2133 2145 2146 2148
          2178 2180 2182 2206 2210 2240
          2244 2252 2253 2254 2255 2256
          2257 2258 2259 2260 2261 2262
          2263 2264 2266 2267 2268 2270
          2273 2277 2278 2279 2280 2281
          2282 2283 2284 2285 2287 2288
          2289 2291 2292 2294 2295 2296
          2298 2301 2305 2306 2307 2308
          2309 2310 2311 2312 2313 2315
          2316 2317 2319 2320 2321 2322
          2323 2324 2325 2326 2327 2328
          2329 2330 2331 2332 2333 2334
          2335 2336 2337 2338 2339 2340
          2341 2342 2343 2344 2345 2346
          2347 2348 2349 2350 2351 2352
          2353 2354 2355 2356 2357 2358
          2359 2360 2563 2564 2568 2785
          2789 2813 2817 3304 3305 3308
          3309 3311 3313 3324 3326 3328
          3330 454 528 381 533 646
          647 650 652 1216 1217 1218
          451 1219 1222 1448 1452 1449
          1453 1455 1457 943 1566 1589
          1590 1593 1317 1595 1321 1599
          1649 1654 1193 1199 1660 1662
          1665 2001 1980 2002 2005 1195
          2007 1200 2024 2040 2042 1203
          2044 1205 2066 2067 2070 2072
          2085 2087 2089 1223 2083 2093
          2110 2094 2111 2097 1224 2116
          2188 2204 2189 2205 2207 2208
          2209 1240 2238 2239 2241 2242
          2243 1245 2265 2269 2095 2271
          2096 2272 2274 2275 2276 1254
          2286 2290 2293 2297 2299 2300
          2302 2303 2304 1258 2314 2318
          2559 2560 2561 2562 2565 2566
          2567 2783 2784 2786 2787 2788
          1354 2811 2812 2814 2815 2816
          1358 3306 3307 3310 3312 3325
          3327 3329
        </DataArray>
        <DataArray type="Float64" Name="bounds" format="ascii" RangeMin="0" RangeMax="0">
          0 0 0 0 0 0
          0 0 0 0 0 0
          0 0 0 0 0 0
          0 0 0 0 0 0
          0 0 0 0 0 0
          0 0 0 0 0 0
          0 0 0 0 0 0
          0 0 0 0 0 0
          0 0 0 0 0 0
          0 0 0 0 0 0
          0 0 0 0 0 0
          0 0 0 0 0 0
          0 0 0 0 0 0
          0 0 0 0 0 0
          0 0 0 0 0 0
          0 0 0 0 0 0
          0 0 0 0 0 0
          0 0 0 0 0 0
          0 0 0 0 0 0
          0 0 0 0 0 0
          0 0 0 0 0 0
          0 0 0 0 0 0
          0 0 0 0 0 0
          0 0 0 0 0 0
          0 0 0 0 0 0
          0 0 0 0 0 0
          0 0 0 0 0 0
          0 0 0 0 0 0
          0 0 0 0 0 0
          0 0 0 0 0 0
          0 0 0 0 0 0
          0 0 0 0 0 0
          0 0 0 0 0 0
          0 0 0 0 0 0
          0 0 0 0 0 0
          0 0 0 0 0 0
          0 0 0 0 0 0
          0 0 0 0 0 0
          0 0 0 0 0 0
          0 0 0 0 0 0
          0 0 0 0 0 0
          0 0 0 0 0 0
          0 0 0 0 0 0
          0 0 0 0 0 0
          0 0 0 0 0 0
          0 0 0 0 0 0
          0 0 0 0 0 0
          0 0 0 0 0 0
          0 0 0 0 0 0
          0 0 0 0 0 0
          0 0 0 0 0 0
          0 0 0 0 0 0
          0 0 0 0 0 0
          0 0 0 0 0 0
          0 0 0 0 0 0
          0 0 0 0 0 0
          0 0 0 0 0 0
          0 0 0 0 0 0
          0 0 0 0 0 0
          0 0 0 0 0 0
          0 0 0 0 0 0
          0 0 0 0 0 0
          0 0 0 0 0 0
          0 0 0 0 0 0
          0 0 0 0 0 0
          0 0 0 0 0 0
          0 0 0 0 0 0
          0 0 0 0 0 0
          0 0
        </DataArray>
        <DataArray type="Float64" Name="gradient_error" format="ascii" RangeMin="4.980210937960435e-10" RangeMax="1.0447252984186101e-7">
          6.000804206318688e-8 2.3991931321489514e-8 1.0338717165343133e-7 2.804960112525748e-9 4.010311671795215e-8 1.584471961960426e-8
          2.169404566924628e-8 8.44864505971465e-8 2.807635248110087e-8 5.334722120178866e-8 2.78363311133395e-8 2.7075052615531493e-8
          2.532333089635563e-9 5.109735678357614e-8 2.671920549782447e-8 4.5095923740582394e-8 7.532022917055588e-8 3.2415528495514075e-8
          8.266812054363216e-8 2.13923550587824e-8 2.4055774916875844e-8 1.023037429137045e-8 1.855245509531734e-8 1.6853699525461643e-8
          2.2759701964227143e-8 1.4791140762824396e-8 5.5004976152873625e-8 3.8603485884491025e-8 6.450849896567056e-8 1.5989331350611463e-8
          3.351951240291224e-8 3.114202339314195e-8 4.995171143132873e-8 2.566757183751742e-8 7.253122746177377e-8 5.099481703151309e-8
          8.17259789009824e-8 2.192115614390264e-8 3.321552612425338e-8 1.0603763258841866e-8 1.7917487436900885e-8 1.743975850121696e-8
          2.511261251073513e-8 1.2714096012191988e-8 6.201351343191974e-8 3.2558604993005186e-8 3.7153287073245815e-8 5.840102884182456e-9
          6.089672117840057e-9 4.017707183073717e-9 8.844369654955802e-8 6.114942204365826e-8 8.124189812237925e-8 9.199483030054818e-8
          4.95192902013586e-8 4.4824477398541106e-8 2.3657899061253423e-8 1.0447252984186101e-7 5.696697602296856e-8 5.0311757447340135e-8
          8.350892648484052e-9 3.5194041376301812e-9 2.341320638239947e-9 1.0142561983646488e-8 4.136942048522445e-9 2.137890158233737e-8
          2.4534800425358357e-8 2.0596140641830282e-8 2.7690699268379348e-8 1.935846593095128e-8 2.1990284862427918e-8 1.0365285048262391e-8
          1.2495266704870874e-8 1.531850099307392e-8 1.6675366831664057e-8 1.0611133462829785e-8 2.4622103793904563e-8 1.3719188305836316e-8
          1.803223267025419e-8 5.353461789955849e-9 4.194992723385377e-9 3.027138797706164e-9 2.4681019522968357e-9 5.605774617871812e-9
          6.751576350351383e-9 3.931577006889897e-9 4.519956139131216e-9 2.7621764727053205e-9 7.147330175765346e-9 7.3989527979229086e-9
          5.2076763078607755e-9 6.983703962797387e-9 5.322664554499537e-9 3.980112419614794e-9 5.4231112839750704e-9 2.954264384940121e-9
          3.904995547873163e-9 7.667649926841017e-9 6.370782397853265e-9 4.694115134561078e-9 3.699660635467661e-9 2.873415180072604e-9
          4.023098540199439e-9 3.096451108357233e-9 3.607926213391404e-9 3.0810537123985144e-9 5.9039833976796285e-9 1.0025795057191407e-8
          8.821584322971784e-9 7.37459427551174e-9 1.3224890469891717e-8 2.9445316915449648e-9 3.6596775319580936e-9 6.082356135817974e-9
          2.6179342890629224e-9 3.263960856398057e-9 2.2267351823900674e-9 2.7755816946224403e-9 5.361266100841709e-9 4.495655250589136e-9
          9.407132594465773e-9 1.4528865670656356e-8 8.227675282145154e-9 6.8365620180368185e-9 1.2505932195549291e-8 1.00906136464996e-8
          2.1473053814012735e-9 2.515295009719584e-9 2.2051456341622138e-9 4.014059862954231e-9 5.988811073022035e-9 4.536404398147351e-9
          8.467211301132313e-9 2.721373745223688e-9 3.2650399862710502e-9 2.76707913732234e-9 4.5127788248414186e-9 1.8437535932246598e-9
          2.2532913480972577e-9 1.6561004195234436e-9 1.9777950826587e-9 3.6031070396379493e-9 3.036226233154387e-9 5.466651404356592e-9
          4.1083292430008156e-9 7.852274800351045e-9 5.78787510911084e-9 2.4183816163958523e-9 2.929302507128258e-9 1.8864821028200578e-9
          2.331660989409452e-9 2.025330332661309e-9 2.44008437786514e-9 1.8882039164162067e-9 4.093659214121286e-9 3.3373414772649045e-9
          3.0211371905089364e-9 1.4938215156668403e-9 1.8692390335749494e-9 1.2339721633747312e-9 1.5027375149890545e-9 1.1846581916630728e-9
          2.72506343221666e-9 1.9341255786672544e-9 2.1858435686220555e-8 1.875644649740371e-8 1.5014420026613953e-8 2.2575652233428398e-8
          2.2721961534346795e-8 2.173546974647151e-8 2.208930233056792e-8 1.426592340090771e-8 1.802907691454298e-8 2.0479943975531198e-8
          2.1258595372542837e-8 1.1652669189218993e-8 8.408009561183138e-9 1.4267252117536555e-8 5.866492787082417e-9 3.957890399643293e-9
          6.918766570304338e-9 1.643028498108744e-8 1.1669701785531981e-8 1.7529768561448627e-8 7.715505147997869e-9 5.295385945953907e-9
          8.109611307187471e-9 1.0827472784987883e-8 7.765502595024663e-9 6.616865026525647e-9 1.3577433656292548e-8 9.554202142360079e-9
          5.642384643971909e-9 7.242803386930854e-9 5.3651675828650504e-9 4.461661216182454e-9 3.5556335486705743e-9 2.8614813918469286e-9
          6.442045599013932e-9 5.518573503412399e-9 4.307926419145908e-9 3.7103850960483747e-9 2.3281481854947712e-9 1.869276886576912e-9
          4.661466395898404e-9 2.8928395312598568e-9 1.5746584812822936e-8 1.096741687406754e-8 9.656720553695331e-9 1.66786161147416e-8
          1.15937484444096e-8 8.44708849838842e-9 8.893610887592016e-9 7.246406751418081e-9 6.297708749997038e-9 4.814127778966165e-9
          3.972766434112455e-9 7.59196244015649e-9 6.583749847003224e-9 5.019383242752743e-9 5.369179605846857e-9 3.2902590250361874e-9
          2.68019240475158e-9 5.630726299043395e-9 3.4356984238430117e-9 2.0755388436674565e-9 2.4493988081725724e-9 2.1091820736829765e-9
          3.0239619367552996e-9 3.3370007802722062e-9 2.9279598782129067e-9 3.4493364597115004e-9 1.9316713955167835e-9 2.233514702368237e-9
          1.5996651013991206e-9 1.8082987745966002e-9 1.6465720586989898e-9 1.8517091459884976e-9 1.4217864418713987e-9 2.7289367652821946e-9
          2.183429811947702e-9 2.2309690949712795e-9 1.2710121590200994e-9 1.4369032355662708e-9 9.920651331704732e-10 1.1280280495243108e-9
          1.0402992647577636e-9 1.1169892296510894e-9 8.645817116462307e-10 1.7379346355993359e-9 1.3753954683425667e-9 1.2865545184625059e-9
          3.0292589258274883e-9 2.4439814206019515e-9 2.4894733834778166e-9 1.82581587490416e-9 3.1360023303102773e-9 2.5380356651025787e-9
          2.5738548102910794e-9 1.9521677255949716e-9 1.5515349702899691e-9 1.435290259787643e-9 1.1241842918793951e-9 2.0312604921037145e-9
          1.6162699697729533e-9 1.4911506771946892e-9 7.36756700068561e-10 9.13829606848195e-10 1.2018653705422948e-9 1.468643336287067e-9
          1.856587533806291e-9 2.137123151748217e-9 2.2410111094584594e-9 7.599127406991407e-10 8.702499263701086e-10 6.086460445331922e-10
          6.609813695235372e-10 1.0702647963132455e-9 7.738925161650442e-10 1.212278708132369e-9 8.691101571461307e-10 1.2646149356793233e-9
          9.037519764760551e-10 7.568590442113242e-9 5.863867893021221e-9 1.2662988452998799e-8 7.998029601754322e-9 4.758937742665982e-9
          5.7972596135197755e-9 8.690035173508103e-9 7.577419693406444e-9 4.855096009902284e-9 4.023601296578203e-9 2.8627429171591336e-9
          4.535612181088592e-9 2.4584224427658823e-9 3.6174588904968587e-9 1.7024563169891712e-9 1.6092016923760129e-9 1.3955599110480133e-9
          2.20626362845545e-9 1.5739686980460738e-9 2.4618100932074263e-9 3.552453335177554e-9 3.4425500701413287e-9 2.114525659608791e-9
          3.007631807507347e-9 1.9030176589874344e-9 2.051362064592361e-9 1.6831603572068143e-9 1.4711474432149005e-9 1.0436954092554482e-9
          6.0413718873169e-9 4.975177706885821e-9 4.977166554127708e-9 4.030882005525335e-9 3.624349799104881e-9 1.9692727363188692e-9
          1.5643313856393171e-9 1.905159701204613e-9 2.9710757471068067e-9 2.625915256793962e-9 2.2147173544516044e-9 5.040519407486351e-9
          4.414751463532496e-9 3.6716096687589763e-9 8.21465273556302e-9 7.1072384947369876e-9 5.825602203950725e-9 1.3131828775770215e-8
          1.1105207989082693e-8 8.863026543879415e-9 1.3625589012713005e-9 1.7734888224158893e-9 1.5489440693269409e-9 2.885402358248921e-9
          4.534799451469095e-9 3.3422121249710425e-9 6.7227525760588e-9 4.860330835653542e-9 1.912773470250422e-9 2.7234411452376704e-9
          1.1732356387334684e-9 2.1937113566877415e-9 1.484410803572018e-9 4.053048461706243e-9 3.332033524372955e-9 2.2021244059701157e-9
          2.0888340489091876e-8 1.798027393150984e-8 1.9472502819689915e-8 1.6412356734056185e-8 1.2797683250254152e-8 2.194360132763682e-8
          2.102202257437236e-8 1.685346217796116e-8 2.2766210439315472e-8 2.2386808481360134e-8 1.9494812767941785e-8 2.223670748161849e-8
          2.2075514178714816e-8 2.026337949606765e-8 9.397156478663235e-9 1.2195731431241564e-8 5.730788145825206e-9 8.194242268577412e-9
          4.80031915895112e-9 7.004785513260863e-9 4.728854393257338e-9 1.0778982074124741e-8 9.32410703383001e-9 6.160312494956481e-9
          3.0426974025670014e-9 3.869046772039907e-9 1.4318950116114797e-8 1.5078458104956168e-8 1.2752415501748131e-8 1.1085558130976297e-8
          7.246173920926908e-9 1.3474692268736162e-8 1.1729976319506913e-8 7.649252851270046e-9 4.493609575370509e-9 4.725857568265544e-9
          9.047929783564111e-10 1.1554523831613962e-9 6.866673986702449e-10 8.818043162810659e-10 6.93352577927897e-10 1.740414844236996e-9
          1.342803236876508e-9 2.438829265263547e-9 1.904550260644348e-9 1.1281276293494174e-9 3.136599475807403e-9 2.4746921105544186e-9
          1.4365590626937031e-9 3.6697899253913495e-9 2.9145166059855423e-9 1.6616198121728882e-9 3.869321529187377e-9 3.080084272289814e-9
          1.745294738347535e-9 5.751655361930522e-10 6.599263823721331e-10 4.980210937960435e-10 8.150967829013229e-10 9.267230135541875e-10
          6.590325430154496e-10 9.67939689856943e-10
        </DataArray>
        <DataArray type="Float64" Name="gradient_matprop_error" format="ascii" RangeMin="0" RangeMax="0">
          0 0 0 0 0 0
          0 0 0 0 0 0
          0 0 0 0 0 0
          0 0 0 0 0 0
          0 0 0 0 0 0
          0 0 0 0 0 0
          0 0 0 0 0 0
          0 0 0 0 0 0
          0 0 0 0 0 0
          0 0 0 0 0 0
          0 0 0 0 0 0
          0 0 0 0 0 0
          0 0 0 0 0 0
          0 0 0 0 0 0
          0 0 0 0 0 0
          0 0 0 0 0 0
          0 0 0 0 0 0
          0 0 0 0 0 0
          0 0 0 0 0 0
          0 0 0 0 0 0
          0 0 0 0 0 0
          0 0 0 0 0 0
          0 0 0 0 0 0
          0 0 0 0 0 0
          0 0 0 0 0 0
          0 0 0 0 0 0
          0 0 0 0 0 0
          0 0 0 0 0 0
          0 0 0 0 0 0
          0 0 0 0 0 0
          0 0 0 0 0 0
          0 0 0 0 0 0
          0 0 0 0 0 0
          0 0 0 0 0 0
          0 0 0 0 0 0
          0 0 0 0 0 0
          0 0 0 0 0 0
          0 0 0 0 0 0
          0 0 0 0 0 0
          0 0 0 0 0 0
          0 0 0 0 0 0
          0 0 0 0 0 0
          0 0 0 0 0 0
          0 0 0 0 0 0
          0 0 0 0 0 0
          0 0 0 0 0 0
          0 0 0 0 0 0
          0 0 0 0 0 0
          0 0 0 0 0 0
          0 0 0 0 0 0
          0 0 0 0 0 0
          0 0 0 0 0 0
          0 0 0 0 0 0
          0 0 0 0 0 0
          0 0 0 0 0 0
          0 0 0 0 0 0
          0 0 0 0 0 0
          0 0 0 0 0 0
          0 0 0 0 0 0
          0 0 0 0 0 0
          0 0 0 0 0 0
          0 0 0 0 0 0
          0 0 0 0 0 0
          0 0 0 0 0 0
          0 0 0 0 0 0
          0 0 0 0 0 0
          0 0 0 0 0 0
          0 0 0 0 0 0
          0 0
        </DataArray>
        <DataArray type="Float64" Name="initial_marker" format="ascii" RangeMin="0" RangeMax="2">
          0 0 2 2 0 0
          0 1.5 0.75 2 0 1.5
          1.5 2 2 0 0.25 0
          0.5 0 0 0 0 0
          0 0 2 2 2 1.3333333333333333
          2 2 2 2 2 2
          2 1 1.5 0.3333333333333333 1.5 0
          1 0.3333333333333333 2 2 2 0
          0 1.5 2 2 2 2
          2 2 2 2 2 2
          2 2 2 2 2 1
          1 0 1 1 1 0.3333333333333333
          0.75 0 0 0 1 1
          0 0 0.5 0 0.5 0
          0 0 1 1 0 0
          0 0 0 0 0 0
          0 0 0 0 0 0
          2 2 2 1.5 2 2
          2 2 2 2 2 2
          2 2 1 1.5 2 2
          2 2 2 2 2 2
          0 1 1 2 2 2
          2 1 1.5 1 2 0
          1 0 1 2 2 2
          2 2 2 1 1.5 1
          1.5 0 1 1 2 2
          2 1 1.5 0 1 1
          2 2 2 2 2 2
          2 2 2 2 2 2
          2 2 2 2 2 2
          2 2 2 2 2 2
          2 2 2 2 2 2
          2 2 2 2 2 2
          2 2 2 2 2 2
          2 2 2 2 2 2
          2 2 2 2 2 2
          2 2 2 2 2 2
          2 2 2 1 1 0
          1.5 2 2 2 1 1
          1 1 0 0 0 1.5
          1.5 1 1 1 1 1
          0 0 0 1.5 1.5 1
          2 2 2 2 2 2
          2 2 2 2 2 2
          2 2 0 1 2 2
          2 2 2 1 1 0
          0 1.5 1 2 2 2
          2 0 0 0 0 0
          0 0 0 0 1.5 0
          0 1.5 0 0 0 0.25
          0 1 0 0 0 0
          0 0 0 0 1.5 0
          0 0 1 0.5 0 0
          0 2 2 2 1.5 2
          2 2 2 2 2 2
          2 2 0 1 1 2
          2 2 2 2 2 2
          1 2 1.5 2 2 2
          2 2 2 2 2 2
          2 2 2 2 2 2
          2 2 2 2 2 2
          2 2 2 2 2 2
          2 2 2 2 2 2
          2 2 2 2 2 2
          1 1.5 1 1.5 1 2
          2 2 2 2 2 2
          2 2 2 2 2 2
          2 1 1 0 1.25 1.75
          1.5 2
        </DataArray>
        <DataArray type="Float64" Name="markers_norefine" format="ascii" RangeMin="0" RangeMax="1.5">
          0 0 0 0 0 0
          0 0 0 0 0 0
          0 0.5 0 0 0 0
          0 0 0 0 0 0
          0 0 0 0 0 0
          0 0 0 0 0 0
          0 0 0 0 0 0
          0 0 0 0 0 0
          0 0 0.25 0 1 0
          0 0 0 0 0 0
          0 0 0 0 0 0
          0 0 0 0 0 0
          0 0 0 0 0 0
          0 0 0 0 0 0
          0 0 0 0 0 0
          0 0 0 0 0 0
          0 0 0 0 0 0
          0 0 0 0 0 0
          0 0 0 0 0 0
          0 0 0 0 0 0
          0 0 0 0 0 0
          0 0 0 0 0 0
          0 0 0 0 0 0
          0 0 0 0 0 0
          0 0 0 0 0 0
          0 0 0 0 0 0
          0 0 0 0 0 0
          0 0 0.6666666666666666 0 0 0.6666666666666666
          1.25 0.3333333333333333 1.5 0 0 0
          0 0 0 0 0 0
          0 0 0 0 0 0
          0 0 0 0 0 0
          0 0 0 0 0 0
          0 0 0 0 0 0
          0 0 0 0 0 0
          0 0 0 0 0 0
          0 0 0 0 0 0
          0 0 0 0 0 0
          0 0 0 0 0 0
          0 0 0 0 0 0
          0 0 0 0 0 0
          0 0 0 0 0 0
          0 0 0 0 0 0
          0 0 0 0 0 0
          0 0 0 0 0 0
          0 0 0 0 0 0
          0 0 0 0 0 0
          0 0 0 0 0 0
          0 0 0 0 0 0
          0 0 0 0 0 0
          0 0 0 0 0 0
          0 0 0 0 0 0
          0 0 0 0 0 0
          0 0 0 0 0 0
          0 0 0 0 0 0
          0 0 0 0 0 0
          0 0 0 0 0 0
          0 0 0 0 0 0
          0.25 0 0 0 0 0.5
          0.25 0 1 0.75 0 1
          1 0 0 0 0 0
          0 0 0 0 0 0
          0 0 0 0 0 0
          0 0 0 0 0 0
          0 0 0 0 0 0
          0 0 0 0 0 0
          0 0 0 0 0 0
          0 0 0 0 0 0
          0 0
        </DataArray>
        <DataArray type="Float64" Name="markers_mustrefine" format="ascii" RangeMin="0" RangeMax="2">
          0 0 2 2 0 0
          0 1.5 0.75 2 0 1.5
          1.5 2 2 0 0.25 0
          0.5 0 0 0 0 0
          0 0 2 2 2 1.3333333333333333
          2 2 2 2 2 2
          2 1 1.5 0.3333333333333333 1.5 0
          1 0.3333333333333333 2 2 2 0
          0 1.5 2 2 2 2
          2 2 2 2 2 2
          2 2 2 2 2 1
          1 0 1 1 1 0.3333333333333333
          0.75 0 0 0 1 1
          0 0 0.5 0 0.5 0
          0 0 1 1 0 0
          0 0 0 0 0 0
          0 0 0 0 0 0
          2 2 2 1.5 2 2
          2 2 2 2 2 2
          2 2 1 1.5 2 2
          2 2 2 2 2 2
          0 1 1 2 2 2
          2 1 1.5 1 2 0
          1 0 1 2 2 2
          2 2 2 1 1.5 1
          1.5 0 1 1 2 2
          2 1 1.5 0 1 1
          2 2 2 2 2 2
          2 2 2 2 2 2
          2 2 2 2 2 2
          2 2 2 2 2 2
          2 2 2 2 2 2
          2 2 2 2 2 2
          2 2 2 2 2 2
          2 2 2 2 2 2
          2 2 2 2 2 2
          2 2 2 2 2 2
          2 2 2 1 1 0
          1.5 2 2 2 1 1
          1 1 0 0 0 1.5
          1.5 1 1 1 1 1
          0 0 0 1.5 1.5 1
          2 2 2 2 2 2
          2 2 2 2 2 2
          2 2 0 1 2 2
          2 2 2 1 1 0
          0 1.5 1 2 2 2
          2 0 0 0 0 0
          0 0 0 0 1.5 0
          0 1.5 0 0 0 0.25
          0 1 0 0 0 0
          0 0 0 0 1.5 0
          0 0 1 0.5 0 0
          0 2 2 2 1.5 2
          2 2 2 2 2 2
          2 2 0 1 1 2
          2 2 2 2 2 2
          1 2 1.5 2 2 2
          2 2 2 2 2 2
          2 2 2 2 2 2
          2 2 2 2 2 2
          2 2 2 2 2 2
          2 2 2 2 2 2
          2 2 2 2 2 2
          1 1.5 1 1.5 1 2
          2 2 2 2 2 2
          2 2 2 2 2 2
          2 1 1 0 1.25 1.75
          1.5 2
        </DataArray>
        <DataArray type="Float64" Name="gradient_marker" format="ascii" RangeMin="0" RangeMax="1">
          0.5 0.5 0.75 1 0.5 1
          1 0.625 0.5 0.5 0.75 0.375
          1 0.25 0.25 0.25 0.375 0
          0.25 0.625 0.625 0.5 0.5 0.5
          0.5 0.625 0.6666666666666666 0 0.5 0.3333333333333333
          0.25 0 0.5 0.25 0.625 0.375
          0.875 0 0.25 0.5 0.25 0
          0 0.5 0.75 0.375 0.3333333333333333 1
          1 1 0.625 0.375 0.5 1
          0.5 0.5 0.25 1 0.5 0.5
          1 1 1 1 1 0
          0 0 0 0 0 0.5
          0.25 0 0 0.5 0 0.25
          0 1 1 1 1 1
          1 1 1 1 1 0.5
          1 1 1 1 1 1
          1 1 1 1 1 1
          0 0 0 0 0 0
          0 0 0 0.5 0.5 0.5
          0.5 0.5 0.5 0.5 0.5 0.5
          0.5 0.5 0.5 0.5 0.5 0.5
          0 0 0 0 0 0
          0 0 0 0 0 0.5
          0.5 0.5 0.5 0.5 0.5 0.5
          0.5 0.5 0.5 0.5 0.5 1
          1 0.5 0.5 1 0.5 1
          0.5 1 1 1 1 1
          1 1 0 0 0 0
          0 0 0 0.5 0.5 0.5
          0.5 0 0 0 0 0
          0 0 0 0 0 0
          0 0.5 0.5 1 0.5 0.5
          1 1 0.5 1 0.5 1
          0.5 1 0.5 1 1 1
          1 1 0.5 0.5 1 0.5
          0.5 1 1 0.5 1 0.5
          1 0.5 1 0.5 1 1
          1 1 1 0 0 0
          0 0 0 0 0.5 0.5
          1 1 0.5 0.5 1 0.5
          1 0.5 1 1 1 1
          1 1 1 1 1 1
          0.5 1 0.5 1 0.5 1
          0.5 1 1 1 1 1
          1 1 1 1 1 1
          1 1 1 1 1 1
          1 1 1 1 1 1
          1 1 1 1 1 1
          1 1 1 1 1 1
          1 1 1 1 1 1
          1 1 1 1 1 1
          1 1 1 1 1 1
          1 1 1 1 1 1
          1 1 1 1 1 1
          1 1 1 1 1 1
          1 1 1 1 1 1
          1 1 1 1 1 1
          1 1 1 1 1 1
          0.5 0.5 1 1 1 0.5
          1 1 0.5 1 1 0.5
          1 1 1 1 1 1
          1 1 1 1 1 1
          1 1 1 1 1 1
          1 1 1 1 1 1
          1 1 1 1 1 1
          1 1 1 1 1 1
          1 1 1 1 1 1
          1 1 1 1 1 1
          1 1
        </DataArray>
        <DataArray type="Float64" Name="gradient_matprop_marker" format="ascii" RangeMin="0" RangeMax="0">
          0 0 0 0 0 0
          0 0 0 0 0 0
          0 0 0 0 0 0
          0 0 0 0 0 0
          0 0 0 0 0 0
          0 0 0 0 0 0
          0 0 0 0 0 0
          0 0 0 0 0 0
          0 0 0 0 0 0
          0 0 0 0 0 0
          0 0 0 0 0 0
          0 0 0 0 0 0
          0 0 0 0 0 0
          0 0 0 0 0 0
          0 0 0 0 0 0
          0 0 0 0 0 0
          0 0 0 0 0 0
          0 0 0 0 0 0
          0 0 0 0 0 0
          0 0 0 0 0 0
          0 0 0 0 0 0
          0 0 0 0 0 0
          0 0 0 0 0 0
          0 0 0 0 0 0
          0 0 0 0 0 0
          0 0 0 0 0 0
          0 0 0 0 0 0
          0 0 0 0 0 0
          0 0 0 0 0 0
          0 0 0 0 0 0
          0 0 0 0 0 0
          0 0 0 0 0 0
          0 0 0 0 0 0
          0 0 0 0 0 0
          0 0 0 0 0 0
          0 0 0 0 0 0
          0 0 0 0 0 0
          0 0 0 0 0 0
          0 0 0 0 0 0
          0 0 0 0 0 0
          0 0 0 0 0 0
          0 0 0 0 0 0
          0 0 0 0 0 0
          0 0 0 0 0 0
          0 0 0 0 0 0
          0 0 0 0 0 0
          0 0 0 0 0 0
          0 0 0 0 0 0
          0 0 0 0 0 0
          0 0 0 0 0 0
          0 0 0 0 0 0
          0 0 0 0 0 0
          0 0 0 0 0 0
          0 0 0 0 0 0
          0 0 0 0 0 0
          0 0 0 0 0 0
          0 0 0 0 0 0
          0 0 0 0 0 0
          0 0 0 0 0 0
          0 0 0 0 0 0
          0 0 0 0 0 0
          0 0 0 0 0 0
          0 0 0 0 0 0
          0 0 0 0 0 0
          0 0 0 0 0 0
          0 0 0 0 0 0
          0 0 0 0 0 0
          0 0 0 0 0 0
          0 0
        </DataArray>
        <DataArray type="Float64" Name="combo" format="ascii" RangeMin="0" RangeMax="1.5">
          0.5 0.5 0.75 1 0.5 1
          1 0.625 0.5 0.5 0.75 0.375
          1 0.75 0.25 0.25 0.375 0
          0.25 0.625 0.625 0.5 0.5 0.5
          0.5 0.625 0.6666666666666666 0 0.5 0.3333333333333333
          0.25 0 0.5 0.25 0.625 0.375
          0.875 0 0.25 0.5 0.25 0
          0 0.5 0.75 0.375 0.3333333333333333 1
          1 1 0.875 0.375 1.5 1
          0.5 0.5 0.25 1 0.5 0.5
          1 1 1 1 1 0
          0 0 0 0 0 0.5
          0.25 0 0 0.5 0 0.25
          0 1 1 1 1 1
          1 1 1 1 1 0.5
          1 1 1 1 1 1
          1 1 1 1 1 1
          0 0 0 0 0 0
          0 0 0 0.5 0.5 0.5
          0.5 0.5 0.5 0.5 0.5 0.5
          0.5 0.5 0.5 0.5 0.5 0.5
          0 0 0 0 0 0
          0 0 0 0 0 0.5
          0.5 0.5 0.5 0.5 0.5 0.5
          0.5 0.5 0.5 0.5 0.5 1
          1 0.5 0.5 1 0.5 1
          0.5 1 1 1 1 1
          1 1 0.6666666666666666 0 0 0.6666666666666666
          1.25 0.3333333333333333 1.5 0.5 0.5 0.5
          0.5 0 0 0 0 0
          0 0 0 0 0 0
          0 0.5 0.5 1 0.5 0.5
          1 1 0.5 1 0.5 1
          0.5 1 0.5 1 1 1
          1 1 0.5 0.5 1 0.5
          0.5 1 1 0.5 1 0.5
          1 0.5 1 0.5 1 1
          1 1 1 0 0 0
          0 0 0 0 0.5 0.5
          1 1 0.5 0.5 1 0.5
          1 0.5 1 1 1 1
          1 1 1 1 1 1
          0.5 1 0.5 1 0.5 1
          0.5 1 1 1 1 1
          1 1 1 1 1 1
          1 1 1 1 1 1
          1 1 1 1 1 1
          1 1 1 1 1 1
          1 1 1 1 1 1
          1 1 1 1 1 1
          1 1 1 1 1 1
          1 1 1 1 1 1
          1 1 1 1 1 1
          1 1 1 1 1 1
          1 1 1 1 1 1
          1 1 1 1 1 1
          1 1 1 1 1 1
          1 1 1 1 1 1
          0.75 0.5 1 1 1 0.875
          1.125 1 1.25 1.375 1 1.25
          1.5 1 1 1 1 1
          1 1 1 1 1 1
          1 1 1 1 1 1
          1 1 1 1 1 1
          1 1 1 1 1 1
          1 1 1 1 1 1
          1 1 1 1 1 1
          1 1 1 1 1 1
          1 1
        </DataArray>
        <DataArray type="Float64" Name="dHdT" format="ascii" RangeMin="25.82560303935903" RangeMax="55.57617139446972">
          26.909747069517056 25.964731781066025 31.777167001623475 27.220806512538537 26.113850508711778 25.84757615475664
          25.86094439496265 29.457352187431056 27.135747648470165 34.40069018261035 26.441578144247984 27.918948215513577
          26.520895521900325 45.103599051712905 29.754801252734797 26.34661024473387 26.908808956995273 26.232904375255767
          27.2658885134283 26.088844436057684 26.296420897046723 25.945413242702656 26.049118523139022 26.38909575567282
          26.1036447787174 26.0086404208921 31.89224085063145 29.342468397491853 31.93172904886471 27.697156686866425
          30.68753303765361 28.536572200112495 30.62641032939694 29.412512244311078 37.5393482879218 36.62201842452933
          35.036452512782645 27.660003050310955 28.8648196401194 26.825148467895968 27.962233748741355 27.250130481615923
          27.986571506990984 27.031769521531427 31.589489052950405 30.346650882487634 29.3631919487641 26.27315863630408
          26.48082055195227 26.994788490273212 41.5624115439723 39.50430862592176 47.77715962382434 34.94144485802133
          33.620614631285264 30.370726731224956 29.185755813052594 36.77354784006967 35.137780524622734 31.05817180548678
          31.11168344151138 27.717214326861118 26.99087581380399 32.80393996785115 28.06723363235118 27.777421557670678
          28.02596396477452 27.205589055373917 28.27450637187836 27.51932908770046 27.721620066907853 26.810416757478166
          27.11344329899045 26.899383842139034 26.990412297777755 26.618477500447863 27.923911046115247 27.2431935560867
          27.08144075341648 26.38566733797513 26.53732831336011 26.14419658616399 26.247683533802874 26.22959710430388
          26.33700163892874 26.128923061452326 26.619471626175706 26.303344457644556 26.383580471997888 25.907100677605612
          26.211583531029035 26.349742464916773 26.18548808727997 26.12691332649824 26.234825408773183 26.04203736773377
          26.105404385240966 26.419584953604563 26.31441928656283 26.18447957050757 26.116099426878943 26.0520248668846
          28.14340204994997 27.390306475474777 27.886355709912593 27.58595735409748 29.320249172655203 33.30930578644593
          32.03049250900611 30.599217300611347 35.253251021796125 27.366960376116733 27.894986227208122 29.45027907491355
          27.21183934151416 27.661129621330478 27.02865261823111 27.388068517553844 28.933945747526185 28.369151696596703
          32.53093155825803 35.782069084132715 31.344152347138937 30.073459787809316 34.63546598725778 32.88674661965338
          26.972367623339146 27.27532356027038 27.120274996632297 28.08089790027845 29.37744151587789 28.408650442710947
          31.5013287609326 27.374887133460206 27.679970870311557 27.370799615882838 28.383213354104427 26.836111554895375
          27.110337490555967 26.740301595349873 26.97418660955455 27.830648644133568 27.514946356516173 28.98710154434368
          28.123193323583937 30.876991195747827 29.22444354287991 27.196816006666836 27.472564454408122 26.88294626052371