<?xml version="1.0"?>
<VTKFile type="UnstructuredGrid" version="0.1" byte_order="LittleEndian" header_type="UInt32" compressor="vtkZLibDataCompressor">
  <UnstructuredGrid>
    <Piece NumberOfPoints="426" NumberOfCells="218">
      <PointData>
        <DataArray type="Int32" Name="libmesh_node_id" format="ascii" RangeMin="359" RangeMax="2242">
          445 446 447 455 610 611
          612 618 620 622 630 800
          801 928 929 930 933 934
          935 936 937 939 941 1110
          1111 1112 1113 1114 1115 1116
          1117 1118 1119 1120 1121 1122
          1123 1134 1135 1136 1137 1138
          1139 1140 1141 1142 1143 1154
          1155 1156 1157 1158 1159 1160
          1161 1162 1163 1171 1172 1173
          1175 1176 1177 1178 1180 1183
          1188 1226 1227 1228 1229 1232
          1233 1234 1559 1642 1643 1646
          1647 1650 1653 1656 1659 1663
          1666 1667 1797 1798 1799 1800
          1801 1802 1803 1804 1805 1806
          1807 1808 1809 1810 1877 1878
          1879 1880 1881 1882 1883 1884
          1885 1886 1887 1888 1889 1890
          1891 1892 1893 1894 1895 1896
          1897 1898 1899 1900 1901 1902
          1903 1904 1905 1906 1907 1908
          1909 1910 1911 1912 1913 1914
          1915 1916 1917 1918 1919 1920
          1921 1922 1923 1924 1925 1926
          1927 1928 1929 1930 1931 1932
          1933 1934 1935 1936 1937 1938
          1939 1940 1941 1942 1943 1944
          1945 1946 1947 1949 1954 1955
          1956 1957 1958 1959 1961 1962
          1963 1964 1965 1966 1967 1971
          1972 1973 1974 1981 1982 2019
          2020 2025 2026 2118 2119 2120
          2121 2122 2123 2124 2125 2126
          2127 2128 2129 2130 2131 2132
          2134 2135 2136 2137 2138 2139
          2140 2141 2142 2143 2144 2147
          2149 2150 2151 2152 2153 2154
          2155 2156 2157 2158 2159 2160
          2161 2162 2163 2164 2165 2166
          2167 2168 2169 2170 2171 2172
          2173 2174 2175 2176 2177 2179
          2181 2183 613 448 636 634
          614 615 637 635 619 456
          642 641 782 783 359 435
          803 804 372 449 924 925
          926 927 931 932 606 607
          938 940 942 943 621 627
          944 945 946 947 1100 1101
          1102 1105 608 1108 609 1126
          1127 1130 1132 1149 1165 1167
          1174 617 1169 1179 1181 1182
          1184 1185 1186 1189 1190 1191
          1206 1207 1210 1211 1213 1215
          623 1231 1230 1246 1248 1235
          1250 1252 1557 1564 644 1648
          1649 1644 1651 1652 1654 1645
          1655 1192 1193 1660 1657 1661
          1662 1664 1658 1665 1668 1669
          1670 1671 1672 1673 1674 1675
          1791 1823 1824 1826 1146 1829
          1147 1795 1837 1839 1841 1855
          1856 1858 616 1861 1152 1871
          1873 1875 1975 1976 1977 1978
          1979 1948 1980 1194 1983 1984
          1195 2021 2022 2023 1960 2024
          1202 2027 2028 1203 2133 2148
          2178 2180 2182 631 2184 2185
          2186 2187 2188 2189 2190 2191
          2193 2204 2145 2208 2218 2219
          2222 2224 2225 2227 2238 2242
        </DataArray>
        <DataArray type="Float64" Name="bounds" format="ascii" RangeMin="0" RangeMax="0">
          0 0 0 0 0 0
          0 0 0 0 0 0
          0 0 0 0 0 0
          0 0 0 0 0 0
          0 0 0 0 0 0
          0 0 0 0 0 0
          0 0 0 0 0 0
          0 0 0 0 0 0
          0 0 0 0 0 0
          0 0 0 0 0 0
          0 0 0 0 0 0
          0 0 0 0 0 0
          0 0 0 0 0 0
          0 0 0 0 0 0
          0 0 0 0 0 0
          0 0 0 0 0 0
          0 0 0 0 0 0
          0 0 0 0 0 0
          0 0 0 0 0 0
          0 0 0 0 0 0
          0 0 0 0 0 0
          0 0 0 0 0 0
          0 0 0 0 0 0
          0 0 0 0 0 0
          0 0 0 0 0 0
          0 0 0 0 0 0
          0 0 0 0 0 0
          0 0 0 0 0 0
          0 0 0 0 0 0
          0 0 0 0 0 0
          0 0 0 0 0 0
          0 0 0 0 0 0
          0 0 0 0 0 0
          0 0 0 0 0 0
          0 0 0 0 0 0
          0 0 0 0 0 0
          0 0 0 0 0 0
          0 0 0 0 0 0
          0 0 0 0 0 0
          0 0 0 0 0 0
          0 0 0 0 0 0
          0 0 0 0 0 0
          0 0 0 0 0 0
          0 0 0 0 0 0
          0 0 0 0 0 0
          0 0 0 0 0 0
          0 0 0 0 0 0
          0 0 0 0 0 0
          0 0 0 0 0 0
          0 0 0 0 0 0
          0 0 0 0 0 0
          0 0 0 0 0 0
          0 0 0 0 0 0
          0 0 0 0 0 0
          0 0 0 0 0 0
          0 0 0 0 0 0
          0 0 0 0 0 0
          0 0 0 0 0 0
          0 0 0 0 0 0
          0 0 0 0 0 0
          0 0 0 0 0 0
          0 0 0 0 0 0
          0 0 0 0 0 0
          0 0 0 0 0 0
          0 0 0 0 0 0
          0 0 0 0 0 0
          0 0 0 0 0 0
          0 0 0 0 0 0
          0 0 0 0 0 0
          0 0 0 0 0 0
          0 0 0 0 0 0
        </DataArray>
        <DataArray type="Float64" Name="gradient_error" format="ascii" RangeMin="5.204251911836652e-10" RangeMax="1.6274977570068156e-7">
          1.462074541213943e-8 1.050254243697349e-8 7.887572019869817e-8 8.87954830381994e-9 6.44472174878826e-8 6.378824320634054e-8
          6.900175104329978e-8 8.017419195832298e-8 3.495532064368859e-8 3.761441269144881e-8 1.1797181142205458e-8 7.50474827931722e-9
          6.212262132411368e-9 1.3281717573379171e-8 6.217139402907743e-8 5.2758029519565173e-8 3.132088094658558e-8 8.085186172320542e-9
          7.338563631595643e-9 2.7778976954743687e-8 2.332427814912147e-8 3.0245507783855734e-9 5.301645890413163e-9 5.3395736181012654e-8
          5.005814140035872e-8 7.979280645859529e-8 7.447307131614074e-8 4.5000256974010176e-8 7.706280571273921e-8 7.124449966909907e-8
          4.120650308641875e-8 6.012687064447771e-8 5.6209629638143104e-8 6.291245105448061e-8 5.8584522263042003e-8 5.868809513100068e-8
          7.013546183480021e-8 3.046720428777502e-8 4.214259044855016e-8 2.6532885894252258e-8 3.824650013276062e-8 2.524194902241733e-8
          3.3184775781831124e-8 2.9499934614693972e-8 6.977284479114897e-8 6.723802206110543e-8 5.2917766835778595e-8 1.583034242595342e-8
          1.7104548998793857e-8 1.9034790968280913e-8 1.998951894712183e-8 6.901224826525932e-8 7.221249057912855e-8 8.127660191596125e-9
          1.3320593267930678e-8 1.5813619655657403e-8 7.508102457167061e-8 9.564069999813441e-8 9.607671190062113e-8 7.181256447653945e-8
          1.055536870232962e-7 1.0763749405030038e-7 7.891719782276664e-8 4.132547876928646e-8 7.043201480645528e-8 3.6818464600065505e-8
          6.1011092411067e-8 2.1609749971665778e-8 3.861294937002495e-8 2.3152811178551056e-8 3.966681900805789e-8 9.637562826831002e-9
          1.765417548859311e-8 1.8650983183756767e-8 1.3184505543522748e-8 6.064777764713751e-9 8.282304691629998e-9 4.6017487522179655e-9
          4.270590678399126e-9 1.856008578049345e-9 3.514646278650745e-9 3.603952364187687e-9 2.615506601570418e-9 2.141153250419632e-9
          1.0197137034899678e-9 9.623083520410291e-10 1.833703496724764e-8 1.80396486183151e-8 1.925616777398823e-8 1.7259183721921067e-8
          2.07544356865149e-8 2.031665640560217e-8 2.1166349529318076e-8 1.915980633746572e-8 1.5918163791294748e-8 1.669232626581188e-8
          1.506022240812992e-8 1.7307746137735462e-8 1.7746539337216054e-8 1.6174756725228927e-8 1.699253764512193e-8 1.7076417790950195e-8
          1.8356398755891094e-8 1.8396286706490895e-8 1.7192959935757283e-8 1.836090083231669e-8 1.4280962536152013e-8 1.4644414422779896e-8
          1.6195562679324812e-8 1.5676630425789864e-8 1.972449725118152e-8 1.9705896961560396e-8 2.1012947141999678e-8 2.0937265165350833e-8
          1.949110007148576e-8 2.0539091753572022e-8 1.7440478042495858e-8 1.7781523070827314e-8 1.9310103528720393e-8 1.8567381397941325e-8
          1.6666346007337727e-8 1.761734638594968e-8 1.610707007993936e-8 1.694906576435668e-8 1.6883362498981328e-8 1.8101988037840385e-8
          1.7421330455790712e-8 1.8461099093029467e-8 1.9139875377658257e-8 1.762729471502668e-8 1.8063150436874457e-8 1.93201662070661e-8
          2.0467956643482927e-8 1.9628137717408315e-8 1.0258949293228057e-8 1.1211558837848226e-8 1.1355286452252038e-8 1.2479164678538763e-8
          1.3095825139835302e-8 1.4544466447523122e-8 7.604013837148302e-9 9.247475793721953e-9 1.010360963742146e-8 1.1965125577684378e-8
          1.2393223899263039e-8 1.3693956115746104e-8 1.3257398939682988e-8 1.47619500835257e-8 1.596793841647731e-8 1.7300960970285212e-8
          8.60005052938251e-9 1.0920003607356197e-8 1.1611873910994208e-8 1.462350784257777e-8 1.5614293335377548e-8 1.696417987782915e-8
          1.720110477355288e-8 1.8442469765437537e-8 1.4876389896173147e-8 1.6266750186065017e-8 1.671346638727314e-8 1.833825131972975e-8
          1.9675200180242477e-8 1.9735314138734046e-8 2.1014979647282938e-8 1.765062227365077e-8 1.8947698491619555e-8 1.9294185547475894e-8
          3.6963890179504657e-9 4.318169988085959e-9 4.2425888406110525e-9 7.218210302747064e-9 2.2163713347962978e-8 2.184888400261131e-8
          2.2257588973977558e-8 2.056774984142227e-8 1.1379963534794138e-8 1.093487968464387e-8 2.2381973548788454e-8 2.2117060217490464e-8
          1.8181833228769977e-8 2.1852146886192478e-8 1.8094100387792937e-8 1.825262078294377e-8 1.6586755750000975e-8 3.190368719651327e-9
          3.1328135612348357e-9 3.9727804560561935e-9 3.893294791442665e-9 6.772285944950688e-9 6.574092668235986e-9 1.0617235454582728e-8
          1.0257054578097339e-8 1.6294426528160866e-8 1.5814361690123665e-8 2.208150239296084e-8 2.19555151231694e-8 2.2818852880389035e-8
          2.262388213580278e-8 2.1389741237344156e-8 2.2034703142501173e-8 2.0470140647758903e-8 2.0644652257429686e-8 2.171037551907417e-8
          2.12051844699055e-8 2.324990595085578e-8 2.2919212686720394e-8 2.3378182811998977e-8 2.2937870041867e-8 2.258851942258501e-8
          2.2474066229142477e-8 2.24866033727788e-8 2.315179934666607e-8 2.267478433268395e-8 1.9586745373207028e-8 1.9733922676111345e-8
          1.8223536125103705e-8 1.8221558707152226e-8 2.138808480841029e-8 2.2225408057621848e-8 2.118496454411004e-8 2.3238208800765903e-8
          2.34503456363102e-8 1.398949055544261e-8 1.5714361602389113e-8 1.4851495493947204e-8 1.6681072963498147e-8 1.8524009521260417e-8
          1.9579346201272016e-8 9.037991253326119e-9 1.2201564933646343e-8 1.2931570186475964e-8 1.6849382735975877e-8 1.5788096955347626e-8
          1.7520190298530676e-8 1.6440276935701116e-8 1.8020677235354304e-8 2.0280630880674362e-8 2.074775961137949e-8 1.0745899805333406e-8
          1.3788539007454074e-8 1.4451809731488129e-8 1.8211531241811565e-8 2.0893361481266032e-8 2.187351239320343e-8 2.2177936569346842e-8
          2.309898281691191e-8 2.0089943704332613e-8 2.1016524984613544e-8 2.184626055068004e-8 2.246796548412288e-8 2.3626952848610763e-8
          2.169772216747986e-8 2.380356006091133e-8 8.288845906114213e-8 6.000804206318688e-8 4.5095923740582394e-8 6.37568975590599e-8
          1.2638410066816304e-7 8.44864505971465e-8 7.532022917055588e-8 1.2357580484359997e-7 1.6274977570068156e-7 1.0338717165343133e-7
          8.266812054363216e-8 1.5239524948744188e-7 1.7631309506184534e-8 1.3272884236929376e-8 3.5191393043209285e-8 2.4130065575321297e-8
          2.680392769883742e-9 2.2328940308889587e-9 4.511536201623926e-9 3.2153536511404633e-9 2.442945366787469e-8 2.1872012474604177e-8
          8.682104427911738e-8 7.466037668634783e-8 1.5611374607287508e-8 4.629709153380349e-8 1.0286513369656548e-7 8.591290191378782e-8
          3.6386724202032683e-9 2.597887733986489e-9 1.4791140762824396e-8 3.552453335177554e-9 2.807635248110087e-8 2.78363311133395e-8
          1.6933825559800003e-9 1.4674144609051544e-9 1.1222739280888966e-9 9.530473009979302e-10 5.322889060801721e-8 7.897383872401479e-8
          7.430323187768619e-8 6.14133088648584e-8 5.9228240935449776e-8 5.5773483061856915e-8 6.802795433877429e-8 3.347808184940982e-8
          4.45518215634564e-8 3.5909650428553576e-8 6.950483359653276e-8 6.330098304028791e-8 9.136558843029272e-8 7.241972611861641e-8
          5.5004976152873625e-8 6.767616977312535e-8 9.934707094502293e-8 3.8603485884491025e-8 6.450849896567056e-8 1.5989331350611463e-8
          3.351951240291224e-8 3.114202339314195e-8 4.995171143132873e-8 7.253122746177377e-8 5.099481703151309e-8 8.17259789009824e-8
          2.192115614390264e-8 3.321552612425338e-8 1.743975850121696e-8 2.511261251073513e-8 6.201351343191974e-8 3.7153287073245815e-8
          5.334722120178866e-8 6.114942204365826e-8 8.844369654955802e-8 9.199483030054818e-8 4.4824477398541106e-8 8.124189812237925e-8
          1.0447252984186101e-7 5.0311757447340135e-8 2.0765156333593985e-8 7.3989527979229086e-9 2.13923550587824e-8 6.507672778999316e-9
          6.0413718873169e-9 7.667649926841017e-9 3.681433441987831e-9 3.4294770306610143e-9 4.975177706885821e-9 6.370782397853265e-9
          2.775867353166309e-9 5.3828520622705206e-9 4.977166554127708e-9 3.624349799104881e-9 4.694115134561078e-9 1.2286924212937492e-9
          1.9692727363188692e-9 2.873415180072604e-9 3.699660635467661e-9 1.5643313856393171e-9 2.0381338261309435e-9 1.8935708799457153e-9
          5.204251911836652e-10 1.0937274781195075e-9 1.0151981980468742e-9 8.121185877157413e-10 1.5241978065778255e-9 8.138749128917311e-10
          1.67973194223281e-8 1.565580190108945e-8 1.5788974328488133e-8 1.6027659932735314e-8 1.279736250412957e-8 1.317235828841627e-8
          1.4320840467633836e-8 1.5045829087033088e-8 1.5665074930991682e-8 1.5196976752399557e-8 1.569242110058574e-8 9.161312842894536e-9
          9.960185128158908e-9 1.168180584550518e-8 7.013067554067982e-9 8.356282914133438e-9 1.0607857644854644e-8 1.4334582886133263e-8
          1.6064611494679447e-8 1.356864434604533e-8 2.299233423753856e-9 3.2807759589291577e-9 3.201249036476609e-9 2.9445316915449648e-9
          3.6596775319580936e-9 4.023098540199439e-9 2.9710757471068067e-9 5.609611624594943e-9 5.461864375464964e-9 6.082356135817974e-9
          5.040519407486351e-9 9.24177059187718e-9 8.973755383015947e-9 9.407132594465773e-9 1.0025795057191407e-8 8.21465273556302e-9
          1.5032967654154677e-8 1.4536570260435968e-8 1.4528865670656356e-8 1.3131828775770215e-8 2.1858435686220555e-8 2.2575652233428398e-8
          2.2721961534346795e-8 2.173546974647151e-8 2.208930233056792e-8 5.109735678357614e-8 2.3026684812212022e-8 2.2508168011064076e-8
          2.1998684324808292e-8 2.137929466815801e-8 2.0888340489091876e-8 1.9472502819689915e-8 2.3551618610197488e-8 2.3653445808026478e-8
          2.3562963827618623e-8 1.798027393150984e-8 1.875644649740371e-8 2.194360132763682e-8 1.684792610837638e-8 1.832974932242959e-8
          2.1188021877321563e-8 1.2502222776185242e-8 1.475991951206024e-8 1.8993442025943754e-8 2.2766210439315472e-8 2.223670748161849e-8
        </DataArray>
        <DataArray type="Float64" Name="gradient_matprop_error" format="ascii" RangeMin="0" RangeMax="0">
          0 0 0 0 0 0
          0 0 0 0 0 0
          0 0 0 0 0 0
          0 0 0 0 0 0
          0 0 0 0 0 0
          0 0 0 0 0 0
          0 0 0 0 0 0
          0 0 0 0 0 0
          0 0 0 0 0 0
          0 0 0 0 0 0
          0 0 0 0 0 0
          0 0 0 0 0 0
          0 0 0 0 0 0
          0 0 0 0 0 0
          0 0 0 0 0 0
          0 0 0 0 0 0
          0 0 0 0 0 0
          0 0 0 0 0 0
          0 0 0 0 0 0
          0 0 0 0 0 0
          0 0 0 0 0 0
          0 0 0 0 0 0
          0 0 0 0 0 0
          0 0 0 0 0 0
          0 0 0 0 0 0
          0 0 0 0 0 0
          0 0 0 0 0 0
          0 0 0 0 0 0
          0 0 0 0 0 0
          0 0 0 0 0 0
          0 0 0 0 0 0
          0 0 0 0 0 0
          0 0 0 0 0 0
          0 0 0 0 0 0
          0 0 0 0 0 0
          0 0 0 0 0 0
          0 0 0 0 0 0
          0 0 0 0 0 0
          0 0 0 0 0 0
          0 0 0 0 0 0
          0 0 0 0 0 0
          0 0 0 0 0 0
          0 0 0 0 0 0
          0 0 0 0 0 0
          0 0 0 0 0 0
          0 0 0 0 0 0
          0 0 0 0 0 0
          0 0 0 0 0 0
          0 0 0 0 0 0
          0 0 0 0 0 0
          0 0 0 0 0 0
          0 0 0 0 0 0
          0 0 0 0 0 0
          0 0 0 0 0 0
          0 0 0 0 0 0
          0 0 0 0 0 0
          0 0 0 0 0 0
          0 0 0 0 0 0
          0 0 0 0 0 0
          0 0 0 0 0 0
          0 0 0 0 0 0
          0 0 0 0 0 0
          0 0 0 0 0 0
          0 0 0 0 0 0
          0 0 0 0 0 0
          0 0 0 0 0 0
          0 0 0 0 0 0
          0 0 0 0 0 0
          0 0 0 0 0 0
          0 0 0 0 0 0
          0 0 0 0 0 0
        </DataArray>
        <DataArray type="Float64" Name="initial_marker" format="ascii" RangeMin="0" RangeMax="2">
          0 0 1 2 1 2
          2 2 1 2 2 0
          0 0 0 0 0 0
          0 0 0 0 0 2
          2 2 2 2 2 2
          2 2 2 2 2 2
          2 1 1.5 1 1.5 0
          1 1 2 2 2 2
          2 2 2 2 2 2
          2 2 2 2 2 2
          2 2 2 2 2 2
          2 2 2 2 2 2
          2 2 0 0 0 0
          0 0 0 0 0 0
          0 0 2 2 2 2
          2 2 2 2 2 2
          2 2 2 2 2 2
          2 2 2 2 2 2
          2 2 2 2 2 2
          2 2 2 2 2 2
          2 2 2 2 2 2
          2 2 2 2 2 2
          2 2 2 2 2 2
          2 2 2 2 2 2
          2 2 2 2 2 2
          2 2 2 2 2 2
          2 2 2 2 2 2
          2 2 2 2 2 2
          2 2 2 2 2 2
          2 2 2 2 2 2
          2 2 2 2 2 2
          2 2 2 2 2 2
          2 2 2 2 2 2
          2 2 2 2 2 2
          2 2 2 2 2 2
          2 2 2 2 2 2
          2 2 2 2 2 2
          2 2 2 2 2 2
          2 2 2 2 2 2
          2 2 2 2 2 2
          2 2 2 2 2 2
          2 2 2 2 2 2
          2 2 0 0 0 0
          1.5 1.5 0.25 0.5 2 2
          0.5 1 0 0 0 0
          0 0 0 0 0 0
          0 0 0 0 1 1
          0 0 0 0 0.75 0
          0 0 0 0 2 2
          2 2 2 2 2 1
          1.5 1 2 2 2 2
          2 2 2 2 2 1.3333333333333333
          2 2 2 2 2 2
          1 1.5 0 1 2 2
          2 2 2 2 2 2
          2 2 0 0 0 0
          0 0 0 0 0 0
          0 1 1 0 0 0
          0 0 0 0 0 0
          0 0 0 0 0 0
          2 2 2 2 2 2
          2 2 2 2 2 2
          2 2 2 2 2 2
          2 2 2 2 2 2
          2 2 2 2 2 2
          2 2 2 2 2 2
          2 2 2 2 2 2
          2 2 2 2 2 2
          2 2 2 2 2 2
          2 2 2 2 2 2
          2 2 2 2 2 2
        </DataArray>
        <DataArray type="Float64" Name="markers_norefine" format="ascii" RangeMin="0" RangeMax="2">
          0 0 0 2 0 0
          0 1 0 0 2 0
          0 0 0 0 0 0
          0 0 0 0 0 0
          0 0 0 0 0 0
          0 0 0 0 0 0
          0 0 0 0 0 0
          0 0 0 0 0 2
          2 2 2 0.5 0.5 2
          2 2 1 0 0 0
          0 0 0 0 0 0
          0 2 1.75 2 1.5 2
          2 2 0 0 0 0
          0 0 0 0 0 0
          0 0 0 0 0 0
          0 0 0 0 0 0
          0 0 0 0 1 1
          1 1 1 1 2 2
          2 2 1 1 1 1
          1 1 2 2 2 2
          0.5 0.5 0 0 1.5 1.5
          1 0.5 0.5 0 0 1.5
          1.5 1 2 2 2 2
          2 2 2 2 2 2
          2 2 2 2 2 2
          2 2 2 2 2 2
          2 2 2 2 2 2
          2 2 2 2 2 2
          0 0 0 0 0 0
          0 0 0 0 0 0
          0 0 0 0 0 0
          0 0 0 0 0 0
          0 0 0 1 1 1
          1 1 1 2 2 2
          2 1 1 1 1 1
          2 2 2 2 0.5 0.5
          0 0 1.5 1.3333333333333333 1 1
          0 2 2 2 2 2
          2 2 2 2 2 2
          2 2 2 2 2 2
          2 2 2 2 1.75 2
          1.5 2 2 2 1.5 1
          2 2 0 0 0 0
          0 0 0 0 0 0
          0 0 0 0 0 0
          0 0 0 0 0 0
          0 0 0 0 0 0
          0 0 0 0 0 0
          0 0 0 0 0 0
          0 0 0 0 0 0
          0 0 0 0.5 0 0
          0 1 0 0 0 0
          0 0 0 0 0 0
          0 0 0 0 0 0
          0 0 0.25 0 0 1
          0 0 0 0 0 0
          0 0 0 0 0 0
          0 0 0 0 0 0
          0 0 0 0 0 0
          0 0 0 0 0 0
          0 1 1 1 2 2
          2 0 0.5 0 1.5 2
          2 2 2 2 2 2
          2 2 0 0 0 0
          0 0 0 0 0 0
          0 0 0 0 0 0
          0 0 0 0 0.6666666666666666 0.6666666666666666
          1.25 0.3333333333333333 1.5 0.5 0.5 0.5
          0 0 0.25 0 1.5 1.5
          1.25 0 0 0.5 2 2
          2 2 2 2 1 1
        </DataArray>
        <DataArray type="Float64" Name="markers_mustrefine" format="ascii" RangeMin="0" RangeMax="2">
          0 0 1 2 1 2
          2 2 1 2 2 0
          0 0 0 0 0 0
          0 0 0 0 0 2
          2 2 2 2 2 2
          2 2 2 2 2 2
          2 1 1.5 1 1.5 0
          1 1 2 2 2 2
          2 2 2 2 2 2
          2 2 2 2 2 2
          2 2 2 2 2 2
          2 2 2 2 2 2
          2 2 0 0 0 0
          0 0 0 0 0 0
          0 0 2 2 2 2
          2 2 2 2 2 2
          2 2 2 2 2 2
          2 2 2 2 2 2
          2 2 2 2 2 2
          2 2 2 2 2 2
          2 2 2 2 2 2
          2 2 2 2 2 2
          2 2 2 2 2 2
          2 2 2 2 2 2
          2 2 2 2 2 2
          2 2 2 2 2 2
          2 2 2 2 2 2
          2 2 2 2 2 2
          2 2 2 2 2 2
          2 2 2 2 2 2
          2 2 2 2 2 2
          2 2 2 2 2 2
          2 2 2 2 2 2
          2 2 2 2 2 2
          2 2 2 2 2 2
          2 2 2 2 2 2
          2 2 2 2 2 2
          2 2 2 2 2 2
          2 2 2 2 2 2
          2 2 2 2 2 2
          2 2 2 2 2 2
          2 2 2 2 2 2
          2 2 0 0 0 0
          1.5 1.5 0.25 0.5 2 2
          0.5 1 0 0 0 0
          0 0 0 0 0 0
          0 0 0 0 1 1
          0 0 0 0 0.75 0
          0 0 0 0 2 2
          2 2 2 2 2 1
          1.5 1 2 2 2 2
          2 2 2 2 2 1.3333333333333333
          2 2 2 2 2 2
          1 1.5 0 1 2 2
          2 2 2 2 2 2
          2 2 0 0 0 0
          0 0 0 0 0 0
          0 1 1 0 0 0
          0 0 0 0 0 0
          0 0 0 0 0 0
          2 2 2 2 2 2
          2 2 2 2 2 2
          2 2 2 2 2 2
          2 2 2 2 2 2
          2 2 2 2 2 2
          2 2 2 2 2 2
          2 2 2 2 2 2
          2 2 2 2 2 2
          2 2 2 2 2 2
          2 2 2 2 2 2
          2 2 2 2 2 2
        </DataArray>
        <DataArray type="Float64" Name="gradient_marker" format="ascii" RangeMin="0" RangeMax="1">
          0.5 0.5 0.75 0 0.5 0.5
          0.75 0.5 0.5 0.25 0 1
          1 0 0.5 0.5 0.25 0.5
          0.5 0.75 0.75 1 0.5 1
          0.5 1 0.75 0.25 0.75 0.625
          0 0.5 0.5 0.5 0.5 0.5
          0.75 0 0.25 0 0.25 0
          0 0 0.75 0.75 0.5 0
          0 0 0 0.5 0.5 0
          0 0 0.5 1 1 1
          1 1 1 0 0.5 0.25
          0.5 0 0.125 0 0.125 0
          0 0 0 1 1 1
          1 1 1 1 1 1
          1 1 0 0 0 0
          0 0 0 0 0 0
          0 0 0 0 0 0
          0 0 0 0 0 0
          0 0 0 0 0 0
          0 0 0 0 0 0
          0 0 0 0 0 0
          0 0 0 0 0 0
          0 0 0 0 0 0
          0 0 0 0 0 0
          0 0 0 0 0 0
          0 0 0 0 0 0
          0 0 0 0 0 0
          0 0 0 0 0 0
          0 0 0 0 0 0
          0 0 0 0 0 0
          0 0 0 0 0 0.5
          0.5 0.5 0.5 0.5 0.5 0.5
          0.5 0.5 0.5 0 0 0
          0 0 0 0 0 0
          0 0 0 0 0 0
          0 0 0 0 0 0
          0 0 0 0 0 0
          0 0 0 0 0 0
          0 0 0 0 0 0
          0 0 0 0 0 0
          0 0 0 0 0 0
          0 0 0 0 0 0
          0 0 0.625 0.5 0.25 0.375
          0.75 0.625 0.375 0.625 1 0.75
          0.25 0.75 1 1 0.5 0.5
          1 1 1 1 0 0
          0.5 0.5 0 0.375 1 0.625
          1 1 0.625 1 0.5 0.75
          1 1 1 1 0.75 1
          0.875 0.625 0.5 0.5 0.75 0
          0.25 0 0.75 0.5 1 1
          0.6666666666666666 0.5 1 0 0.5 0.3333333333333333
          0.25 0 0.5 0.625 0.375 0.875
          0 0.25 0 0 0.75 0.3333333333333333
          0.5 0.375 0.625 1 0.5 0.5
          1 0.5 0.125 0.5 0.625 1
          1 1 1 1 1 1
          1 1 1 1 1 1
          1 1 1 1 1 1
          1 1 1 1 1 1
          0 0 0 0 0 0
          0 0 0 0 0 0
          0 0 0 0 0 0
          0 0 1 1 1 0.5
          0.5 0 1 1 1 0.5
          1 1 1 0.5 0 1
          1 1 0.5 1 0 0
          0 0 0 0.25 0.5 0.5
          1 1 0.5 1 0.5 0.5
          0.5 0.5 0 0.5 0.5 0.5
          0.5 0.5 0.5 0.5 0.5 0.5
        </DataArray>
        <DataArray type="Float64" Name="gradient_matprop_marker" format="ascii" RangeMin="0" RangeMax="0">
          0 0 0 0 0 0
          0 0 0 0 0 0
          0 0 0 0 0 0
          0 0 0 0 0 0
          0 0 0 0 0 0
          0 0 0 0 0 0
          0 0 0 0 0 0
          0 0 0 0 0 0
          0 0 0 0 0 0
          0 0 0 0 0 0
          0 0 0 0 0 0
          0 0 0 0 0 0
          0 0 0 0 0 0
          0 0 0 0 0 0
          0 0 0 0 0 0
          0 0 0 0 0 0
          0 0 0 0 0 0
          0 0 0 0 0 0
          0 0 0 0 0 0
          0 0 0 0 0 0
          0 0 0 0 0 0
          0 0 0 0 0 0
          0 0 0 0 0 0
          0 0 0 0 0 0
          0 0 0 0 0 0
          0 0 0 0 0 0
          0 0 0 0 0 0
          0 0 0 0 0 0
          0 0 0 0 0 0
          0 0 0 0 0 0
          0 0 0 0 0 0
          0 0 0 0 0 0
          0 0 0 0 0 0
          0 0 0 0 0 0
          0 0 0 0 0 0
          0 0 0 0 0 0
          0 0 0 0 0 0
          0 0 0 0 0 0
          0 0 0 0 0 0
          0 0 0 0 0 0
          0 0 0 0 0 0
          0 0 0 0 0 0
          0 0 0 0 0 0
          0 0 0 0 0 0
          0 0 0 0 0 0
          0 0 0 0 0 0
          0 0 0 0 0 0
          0 0 0 0 0 0
          0 0 0 0 0 0
          0 0 0 0 0 0
          0 0 0 0 0 0
          0 0 0 0 0 0
          0 0 0 0 0 0
          0 0 0 0 0 0
          0 0 0 0 0 0
          0 0 0 0 0 0
          0 0 0 0 0 0
          0 0 0 0 0 0
          0 0 0 0 0 0
          0 0 0 0 0 0
          0 0 0 0 0 0
          0 0 0 0 0 0
          0 0 0 0 0 0
          0 0 0 0 0 0
          0 0 0 0 0 0
          0 0 0 0 0 0
          0 0 0 0 0 0
          0 0 0 0 0 0
          0 0 0 0 0 0
          0 0 0 0 0 0
          0 0 0 0 0 0
        </DataArray>
        <DataArray type="Float64" Name="combo" format="ascii" RangeMin="0" RangeMax="2">
          0.5 0.5 0.75 2 0.5 0.5
          0.75 1.5 0.5 0.25 2 1
          1 0 0.5 0.5 0.25 0.5
          0.5 0.75 0.75 1 0.5 1
          0.5 1 0.75 0.25 0.75 0.625
          0 0.5 0.5 0.5 0.5 0.5
          0.75 0 0.25 0 0.25 0
          0 0 0.75 0.75 0.5 2
          2 2 2 1 1 2
          2 2 1.5 1 1 1
          1 1 1 0 0.5 0.25
          0.5 2 1.875 2 1.625 2
          2 2 0 1 1 1
          1 1 1 1 1 1
          1 1 0 0 0 0
          0 0 0 0 0 0
          0 0 0 0 1 1
          1 1 1 1 2 2
          2 2 1 1 1 1
          1 1 2 2 2 2
          0.5 0.5 0 0 1.5 1.5
          1 0.5 0.5 0 0 1.5
          1.5 1 2 2 2 2
          2 2 2 2 2 2
          2 2 2 2 2 2
          2 2 2 2 2 2
          2 2 2 2 2 2
          2 2 2 2 2 2
          0 0 0 0 0 0
          0 0 0 0 0 0
          0 0 0 0 0 0.5
          0.5 0.5 0.5 0.5 0.5 0.5
          0.5 0.5 0.5 1 1 1
          1 1 1 2 2 2
          2 1 1 1 1 1
          2 2 2 2 0.5 0.5
          0 0 1.5 1.3333333333333333 1 1
          0 2 2 2 2 2
          2 2 2 2 2 2
          2 2 2 2 2 2
          2 2 2 2 1.75 2
          1.5 2 2 2 1.5 1
          2 2 0.625 0.5 0.25 0.375
          0.75 0.625 0.375 0.625 1 0.75
          0.25 0.75 1 1 0.5 0.5
          1 1 1 1 0 0
          0.5 0.5 0 0.375 1 0.625
          1 1 0.625 1 0.5 0.75
          1 1 1 1 0.75 1
          0.875 0.625 0.5 0.5 0.75 0
          0.25 0 0.75 1 1 1
          0.6666666666666666 1.5 1 0 0.5 0.3333333333333333
          0.25 0 0.5 0.625 0.375 0.875
          0 0.25 0 0 0.75 0.3333333333333333
          0.5 0.375 0.875 1 0.5 1.5
          1 0.5 0.125 0.5 0.625 1
          1 1 1 1 1 1
          1 1 1 1 1 1
          1 1 1 1 1 1
          1 1 1 1 1 1
          0 1 1 1 2 2
          2 0 0.5 0 1.5 2
          2 2 2 2 2 2
          2 2 1 1 1 0.5
          0.5 0 1 1 1 0.5
          1 1 1 0.5 0 1
          1 1 0.5 1 0.6666666666666666 0.6666666666666666
          1.25 0.3333333333333333 1.5 0.75 1 1
          1 1 0.75 1 1.75 1.75
          1.5 0.5 0 0.875 2 2
          2 2 2 2 1.25 1.25
        </DataArray>
        <DataArray type="Float64" Name="dHdT" format="ascii" RangeMin="25.817347118964882" RangeMax="61.315455923833866">
          25.932226749056383 25.89154101673655 29.003341402393154 46.26558734570924 28.12128566905858 40.9257382536654
          35.223200586690155 49.9384510327005 27.626189471355847 37.10778240281901 46.23521522912622 25.8294789855967
          25.826454705600113 25.996681612165403 26.606958268142478 26.468744086908956 26.193033607523333 25.924903994944934
          25.913042195259536 26.23000820461346 26.155198886366122 25.91925242309868 25.88389724184396 32.01640714952322
          31.43858497182578 34.13474087251001 33.67574250872919 30.35373865057066 33.257748643690334 32.834006165425315
          30.119099095788382 32.39173290249745 31.556642650039485 41.72052401526027 39.29144839159461 38.478030081193765
          35.79524211316732 28.74573970978737 30.401067353815797 28.188951255240873 29.653024881485596 28.114044022126308
          29.235413047585055 28.60302815005251 33.519133280631436 32.621859961478286 31.89821636611886 54.20764733372891
          57.89309967855184 52.6182318199272 55.78349170845376 44.462697684597856 43.39485635227677 46.24355858213847
          51.223864781378744 50.491210574387715 51.46545081192915 36.960179380830965 36.19370769349094 34.25850299499815
          38.938487198243266 38.260793971755625 35.07735533080239 29.68166801376471 32.35370521218334 31.207606066121535
          40.17826931394222 52.37523902155335 53.35185682858817 53.44765290110619 51.448988678176754 46.26791821125823
          50.25741399087164 52.7550848496684 25.984692639652366 26.174023208187485 26.46319104821966 26.10504351067517
          26.08879587186532 25.96239658490788 26.047946629852678 26.050027734031932 25.9967824916716 25.97021995669331
          25.901444903490706 25.89658634924579 47.68854894803934 47.216377244279855 46.88772079264372 42.43757739886586
          46.648659856761654 46.38396335178476 45.77338916140682 42.350330005863036 37.67452150701305 38.04033394573119
          37.21809375681474 37.994352837806595 37.6658554233703 37.40731251069499 55.81006275446801 55.02149252265114
          54.796049012544024 54.133829499939374 50.6242473337882 50.522452246511506 54.92821824527401 56.27037038971456