<?xml version="1.0"?>
<VTKFile type="UnstructuredGrid" version="0.1" byte_order="LittleEndian" header_type="UInt32" compressor="vtkZLibDataCompressor">
  <UnstructuredGrid>
    <Piece NumberOfPoints="376" NumberOfCells="226">
      <PointData>
        <DataArray type="Int32" Name="libmesh_node_id" format="ascii" RangeMin="459" RangeMax="2865">
          459 461 469 654 655 656
          657 658 659 660 664 665
          666 944 945 946 947 948
          949 950 1288 1289 1290 1293
          1296 1298 1299 1300 1301 1302
          1303 1304 1305 1306 1307 1308
          1309 1310 1311 1334 1335 1337
          1340 1342 1343 1344 1345 1346
          1347 1348 1349 1350 1351 1670
          1671 1672 1675 1676 1677 1678
          1679 1680 1681 1682 1683 1684
          1685 2375 2376 2377 2378 2379
          2380 2381 2382 2383 2384 2385
          2386 2387 2399 2400 2401 2402
          2403 2405 2407 2419 2420 2421
          2422 2424 2425 2426 2427 2437
          2439 2441 2443 2444 2445 2446
          2447 2448 2449 2450 2451 2452
          2453 2454 2455 2456 2457 2458
          2459 2460 2461 2462 2463 2464
          2465 2466 2467 2468 2469 2470
          2471 2472 2473 2474 2475 2476
          2477 2478 2479 2480 2481 2482
          2483 2484 2485 2486 2487 2488
          2489 2490 2491 2492 2493 2494
          2495 2496 2497 2498 2499 2500
          2501 2502 2503 2504 2505 2506
          2507 2508 2509 2510 2511 2512
          2513 2514 2515 2516 2517 2518
          2519 2520 2521 2522 2523 2524
          2538 2543 2553 2557 2580 2582
          2586 2587 2590 2592 2596 2597
          2599 2600 2603 2604 2606 2607
          2610 2611 2643 2644 2645 2646
          2648 2649 2650 2651 2661 2663
          2665 2677 2678 2679 2680 2682
          2683 2684 2685 2695 2697 2699
          2701 2702 2703 2704 2705 2706
          2707 2708 2709 2710 2711 2712
          2713 2714 2715 2716 2717 2718
          2719 2720 2721 2722 2723 2724
          2725 2726 2727 2728 2729 2730
          2731 2732 2733 2734 2735 2736
          2737 2738 2739 2740 2741 2742
          2743 2744 2745 2746 2747 2748
          2749 2750 2751 2752 2753 2754
          2755 2756 2757 2758 2759 2760
          2761 2762 2763 2764 2765 2766
          2767 2768 2777 2781 2805 2809
          2825 2826 2829 2830 2832 2833
          2836 2837 2853 2854 2857 2858
          2860 2861 2864 2865 1668 1669
          1284 1285 1674 1291 2365 2366
          2367 2370 1286 2373 2388 1287
          2391 2392 2404 2395 2406 2397
          2408 1292 2411 2412 2423 2414
          1294 2417 2428 1295 2436 2438
          2440 2442 2536 2542 2552 2556
          2635 2636 2647 2638 1332 2641
          2652 1333 2660 2662 2664 2666
          2669 2670 2681 2672 1338 2675
          2686 1339 2694 2696 2698 2700
          2776 2780 2804 2808
        </DataArray>
        <DataArray type="Float64" Name="bounds" format="ascii" RangeMin="0" RangeMax="0">
          0 0 0 0 0 0
          0 0 0 0 0 0
          0 0 0 0 0 0
          0 0 0 0 0 0
          0 0 0 0 0 0
          0 0 0 0 0 0
          0 0 0 0 0 0
          0 0 0 0 0 0
          0 0 0 0 0 0
          0 0 0 0 0 0
          0 0 0 0 0 0
          0 0 0 0 0 0
          0 0 0 0 0 0
          0 0 0 0 0 0
          0 0 0 0 0 0
          0 0 0 0 0 0
          0 0 0 0 0 0
          0 0 0 0 0 0
          0 0 0 0 0 0
          0 0 0 0 0 0
          0 0 0 0 0 0
          0 0 0 0 0 0
          0 0 0 0 0 0
          0 0 0 0 0 0
          0 0 0 0 0 0
          0 0 0 0 0 0
          0 0 0 0 0 0
          0 0 0 0 0 0
          0 0 0 0 0 0
          0 0 0 0 0 0
          0 0 0 0 0 0
          0 0 0 0 0 0
          0 0 0 0 0 0
          0 0 0 0 0 0
          0 0 0 0 0 0
          0 0 0 0 0 0
          0 0 0 0 0 0
          0 0 0 0 0 0
          0 0 0 0 0 0
          0 0 0 0 0 0
          0 0 0 0 0 0
          0 0 0 0 0 0
          0 0 0 0 0 0
          0 0 0 0 0 0
          0 0 0 0 0 0
          0 0 0 0 0 0
          0 0 0 0 0 0
          0 0 0 0 0 0
          0 0 0 0 0 0
          0 0 0 0 0 0
          0 0 0 0 0 0
          0 0 0 0 0 0
          0 0 0 0 0 0
          0 0 0 0 0 0
          0 0 0 0 0 0
          0 0 0 0 0 0
          0 0 0 0 0 0
          0 0 0 0 0 0
          0 0 0 0 0 0
          0 0 0 0 0 0
          0 0 0 0 0 0
          0 0 0 0 0 0
          0 0 0 0
        </DataArray>
        <DataArray type="Float64" Name="gradient_error" format="ascii" RangeMin="8.417334105603571e-11" RangeMax="1.745226162696071e-8">
          9.207549391569248e-10 2.424811656656408e-10 3.978057336210446e-9 1.0537984369796357e-9 7.479667194282794e-10 5.047580361172069e-9
          2.5844479647085434e-9 2.586015133139885e-10 1.2522510893566952e-9 6.035262505273753e-10 1.0993351768082724e-8 7.749050981399618e-9
          2.0842338091180734e-9 1.6933825559800003e-9 1.4674144609051544e-9 1.1222739280888966e-9 9.530473009979302e-10 4.223465858845607e-10
          3.078620203304855e-10 3.2507916495540336e-10 9.661852832419045e-10 1.3930930431605282e-9 1.2174351932597783e-9 8.194790380722701e-10
          4.261570027390509e-9 5.241640749914918e-10 4.800809058301211e-10 7.004731565090206e-10 6.099667565914945e-10 2.1895438508436076e-10
          3.1433878851877973e-10 2.73128471136426e-10 3.7104373003661677e-10 4.073879105265779e-10 2.178093730973371e-10 2.7143925499470552e-9
          2.264685144515409e-9 1.0377069832659151e-9 1.3352947546142539e-9 1.1489031436344183e-8 9.96878054712499e-9 5.9720032925453175e-9
          1.1269998876973468e-8 6.815025129603331e-9 5.779967748870567e-9 3.406163223232838e-9 2.8176199841394396e-9 3.2641778439168095e-9
          1.5196314308597012e-9 7.148199319451592e-9 6.944027104129029e-9 3.6024742720756626e-9 4.374604880824862e-9 5.204251911836652e-10
          1.0937274781195075e-9 1.0151981980468742e-9 8.138749128917311e-10 2.820047321133663e-10 2.6685725620833445e-10 5.501177929517647e-10
          5.103707537521753e-10 1.3363126408490152e-10 2.6083205482301775e-10 2.3957500449405694e-10 2.2593363796286353e-10 4.083828624246438e-10
          2.1970150023948703e-10 6.501838588879288e-10 6.32826619864256e-10 9.664201584707566e-10 9.384315850183261e-10 4.586216980538695e-10
          7.057044256797207e-10 6.849832411058311e-10 5.830829706235788e-10 8.592913610886571e-10 6.265305949078949e-10 1.8796737454181804e-9
          1.8185281027492321e-9 1.3467342532358839e-9 5.098546345470067e-10 7.431854443336366e-10 3.6925685148753074e-10 5.410301081827936e-10
          4.245241433589645e-10 4.4176960419666206e-10 1.0308935013902847e-9 3.574050875986454e-9 3.443907332115256e-9 2.7037082928827244e-9
          2.6020467924038693e-9 2.3208501457545484e-9 6.5046772218384655e-9 6.24708739366371e-9 4.838416542087489e-9 1.922356750994121e-9
          1.4843591741768531e-9 3.452846941909548e-9 3.324629019923106e-10 3.23511924744646e-10 5.017158821687692e-10 4.868637205634426e-10
          2.237909713094226e-10 3.481736671539865e-10 3.377577063883741e-10 2.9793918822227463e-10 4.45035529216437e-10 3.087154676344775e-10
          1.0024075833126011e-9 9.684972659987222e-10 6.764995181439414e-10 8.741486008681186e-10 1.5518036250751828e-10 1.505388146322204e-10
          2.355126036412154e-10 2.2827098841206148e-10 9.974122741121576e-11 1.5580976425598156e-10 1.5089767045766588e-10 1.39079190771414e-10
          2.0869629071287974e-10 1.3803615871799441e-10 4.757731717510107e-10 4.593885826085376e-10 3.0346677193225945e-10 4.137993851105372e-10
          2.603840630465466e-10 3.839517568632657e-10 1.8112273435594714e-10 2.6664655402649017e-10 2.1638503755287683e-10 3.132093715541094e-10
          2.1769957799605666e-10 7.385275288892823e-10 5.147016382946998e-10 5.854752202010637e-10 1.242194391712509e-10 1.809043906523601e-10
          8.417334105603571e-11 1.191263917770088e-10 1.0543971214834311e-10 1.477749899661312e-10 1.0676579485693958e-10 3.4916351426107367e-10
          2.2921511797231633e-10 2.763060959894133e-10 1.9774575204659633e-9 1.9010978871844425e-9 1.3978656213651646e-9 1.3428097334770184e-9
          1.6905923671859093e-9 1.1915333340194469e-9 3.773220220317193e-9 3.610714631007547e-9 2.5938463832831147e-9 3.1650793220810345e-9
          9.55773043412507e-10 9.176369516337292e-10 6.328547911286654e-10 6.074133021205318e-10 8.130317393152437e-10 5.376567491504189e-10
          1.878790571679891e-9 1.7933583489270371e-9 1.1944362384893052e-9 1.5610654956734081e-9 1.3941490480719978e-9 9.796964329231711e-10
          1.070888875334622e-9 7.500063256175445e-10 2.5461852528850364e-9 1.8112790468917254e-9 1.8895140697862956e-9 6.677745220095786e-10
          4.4131375156867716e-10 5.110183391063404e-10 3.3739601760190285e-10 1.2432804304464326e-9 8.243195786876582e-10 9.124156953142692e-10
          3.40698663897598e-10 6.110174127177653e-10 1.0762259307764579e-9 1.801597374714641e-9 2.4128447305077013e-10 1.6817648561941775e-10
          4.3490460829150133e-10 3.0229336009794767e-10 1.1371531030552117e-10 9.22635196662033e-11 2.0442328460432757e-10 1.5449846110548173e-10
          7.71948462280216e-10 5.385750158225901e-10 1.3055389447995133e-9 9.1668935029744e-10 3.6609302703451157e-10 2.4130248189935875e-10
          6.238909717613755e-10 4.1208826013789605e-10 1.0678786481500055e-8 1.0247908543911942e-8 8.456521135042597e-9 8.106102630094528e-9
          7.122680441556376e-9 1.442252320315621e-8 1.3945942749553225e-8 1.1115264532107102e-8 5.711893796728052e-9 4.180381645969935e-9
          8.135360661571175e-9 1.460903648027052e-8 1.4625245788269255e-8 1.1796100480072123e-8 1.1766342141535185e-8 1.1223923704830055e-8
          1.3392655792741936e-8 1.3855043386832963e-8 1.1259497257364007e-8 9.651960980789475e-9 7.297377238764391e-9 1.0047024212159342e-8
          6.485689162064069e-9 6.2024782651830335e-9 4.7765569111025635e-9 4.5568826865870345e-9 5.412570972281713e-9 3.950225387132841e-9
          8.986207912818618e-9 8.678804100828537e-9 6.555419211644848e-9 7.736058482702402e-9 3.3693056761933694e-9 3.2079322883587394e-9
          2.2765193754326797e-9 2.164037880375355e-9 2.765554262393402e-9 1.857689131422823e-9 4.934505849005701e-9 4.728411275003604e-9
          3.2536945313539916e-9 4.128099738356804e-9 4.294981120089347e-9 3.105180641381481e-9 3.10438176424102e-9 2.2206226363474553e-9
          6.2374382451753845e-9 4.591839449123796e-9 4.503889202777326e-9 2.1572002840314855e-9 1.440928738894429e-9 1.5300938654214003e-9
          1.0165497564322858e-9 3.2378902819561426e-9 2.1872338251484645e-9 2.2719619274425215e-9 9.404526339292869e-9 9.351121048747045e-9
          7.396442944259898e-9 7.296674709756082e-9 8.85428867186333e-9 6.779297793437332e-9 8.882643473094208e-9 9.043577922941668e-9
          7.192928474963785e-9 8.956463081569395e-9 5.553318922273213e-9 5.431436931380519e-9 3.94812111474729e-9 3.835886504536324e-9
          4.9499513506693205e-9 3.4425055479211303e-9 5.494500943659885e-9 5.457699091859514e-9 3.913534404017423e-9 5.129458857128779e-9
          7.515612213274746e-9 5.625668712990753e-9 5.571022557664283e-9 4.081462096102421e-9 7.87270215965276e-9 5.937621679667401e-9
          5.944863114505822e-9 4.024228181746252e-9 2.7513915932536266e-9 2.8668159991938556e-9 1.9309863532857196e-9 4.275326864380804e-9
          2.9398105663145703e-9 3.084599237734705e-9 2.8169848523984476e-9 3.9621775119972155e-9 4.8692443521696614e-9 5.207510628894374e-9
          2.0652672154419613e-9 1.4622607823212463e-9 2.937873376670095e-9 2.098575222186547e-9 1.0003834559799696e-9 6.620376141901588e-10
          1.4444013298174359e-9 9.58864168086355e-10 3.6408233707964093e-9 2.619059109978571e-9 3.906015760473286e-9 2.8175425079985513e-9
          1.8122099593127102e-9 1.2072274702393562e-9 1.9537953120617506e-9 1.3035954535780931e-9 2.0381338261309435e-9 1.8935708799457153e-9
          1.967478832915781e-9 1.806899875414341e-9 1.5241978065778255e-9 1.4065436110092353e-9 8.553384166416468e-10 1.29084943594897e-9
          1.254226757852861e-9 1.1503919387122214e-9 2.462295893726525e-9 2.3845214423506365e-9 1.6475589487520667e-9 2.1664240809685425e-9
          6.908500204235533e-10 9.975077730211628e-10 6.084063149672654e-10 8.195212591678583e-10 1.3997816802476404e-9 1.8486648806799606e-9
          1.117420682238525e-9 1.4838454397988549e-9 4.571967123865842e-9 4.411731939821091e-9 3.082726336476382e-9 3.9652629858653426e-9
          8.106636055158983e-9 7.797956060860074e-9 5.532580621871702e-9 6.940843863384912e-9 2.5676299021310076e-9 1.9963218232089817e-9
          4.519788298354699e-9 3.4173583715087095e-9 4.703912273617397e-10 8.36758701040469e-10 1.458315535549413e-9 2.408575703658863e-9
          1.3144983892422724e-8 1.2617468603393423e-8 9.043990922531654e-9 1.1152274891086222e-8 1.745226162696071e-8 1.695367407020603e-8
          1.2509746732391562e-8 1.5313111725680273e-8 7.319290632482343e-9 5.42788623580422e-9 1.0260232188060603e-8 7.628133162834949e-9
          1.6678522494475884e-8 1.7044160476928368e-8 1.4006439919709905e-8 1.688368767683737e-8 1.4451855024674777e-8 1.5527533992516354e-8
          1.4022041502958957e-8 1.6673509301956572e-8 1.2068420253987595e-8 9.216191008193526e-9 1.252759349799627e-8 9.747262187824655e-9
          3.7117621303779882e-9 5.152241350043167e-9 6.2721335524023825e-9 6.684301747548626e-9
        </DataArray>
        <DataArray type="Float64" Name="gradient_matprop_error" format="ascii" RangeMin="0" RangeMax="0">
          0 0 0 0 0 0
          0 0 0 0 0 0
          0 0 0 0 0 0
          0 0 0 0 0 0
          0 0 0 0 0 0
          0 0 0 0 0 0
          0 0 0 0 0 0
          0 0 0 0 0 0
          0 0 0 0 0 0
          0 0 0 0 0 0
          0 0 0 0 0 0
          0 0 0 0 0 0
          0 0 0 0 0 0
          0 0 0 0 0 0
          0 0 0 0 0 0
          0 0 0 0 0 0
          0 0 0 0 0 0
          0 0 0 0 0 0
          0 0 0 0 0 0
          0 0 0 0 0 0
          0 0 0 0 0 0
          0 0 0 0 0 0
          0 0 0 0 0 0
          0 0 0 0 0 0
          0 0 0 0 0 0
          0 0 0 0 0 0
          0 0 0 0 0 0
          0 0 0 0 0 0
          0 0 0 0 0 0
          0 0 0 0 0 0
          0 0 0 0 0 0
          0 0 0 0 0 0
          0 0 0 0 0 0
          0 0 0 0 0 0
          0 0 0 0 0 0
          0 0 0 0 0 0
          0 0 0 0 0 0
          0 0 0 0 0 0
          0 0 0 0 0 0
          0 0 0 0 0 0
          0 0 0 0 0 0
          0 0 0 0 0 0
          0 0 0 0 0 0
          0 0 0 0 0 0
          0 0 0 0 0 0
          0 0 0 0 0 0
          0 0 0 0 0 0
          0 0 0 0 0 0
          0 0 0 0 0 0
          0 0 0 0 0 0
          0 0 0 0 0 0
          0 0 0 0 0 0
          0 0 0 0 0 0
          0 0 0 0 0 0
          0 0 0 0 0 0
          0 0 0 0 0 0
          0 0 0 0 0 0
          0 0 0 0 0 0
          0 0 0 0 0 0
          0 0 0 0 0 0
          0 0 0 0 0 0
          0 0 0 0 0 0
          0 0 0 0
        </DataArray>
        <DataArray type="Float64" Name="initial_marker" format="ascii" RangeMin="0" RangeMax="2">
          0 0 2 1 0 2
          2 0 2 2 2 2
          2 0 0 0 0 0
          0 0 0.75 2 2 2
          2 0.5 0.25 2 2 0
          2 2 0 2 1.5 2
          2 2 2 2 2 2
          2 2 2 2 2 2
          2 2 2 2 2 0
          0 0 0 0 0 0
          0 0 0 0 0 0
          0 2 2 2 2 2
          2 2 2 2 1.75 2
          2 2 1 1.5 0.5 1.25
          0 1 2 2 2 2
          2 2 2 2 2 2
          2 2 2 2 2 2
          1 1.5 1.5 1 1.5 1.25
          2 2 2 2 0 0
          1 1 0 1 1 0
          1 1 2 2 2 2
          0 1 0 1 0 1
          1 2 2 2 0 1
          0 1 0 0.75 0.6666666666666666 2
          2 1.75 2 2 2 2
          2 2 2 2 2 2
          2 2 2 2 2 2
          2 2 2 2 2 2
          2 2 2 2 2 2
          2 2 2 2 2 2
          0.75 1.75 2 2 0.5 0.5
          1.5 1.5 0.25 0 1.25 1.3333333333333333
          2 2 2 2 2 2
          2 2 2 2 2 2
          2 2 2 2 2 2
          2 2 2 2 2 2
          2 2 2 2 2 2
          2 2 2 2 2 2
          2 2 2 2 2 2
          2 2 2 2 2 2
          2 2 2 2 2 2
          2 2 2 2 2 2
          2 2 2 2 2 2
          2 2 2 2 2 2
          2 2 2 2 2 2
          2 2 2 2 2 2
          2 2 2 2 2 2
          2 2 2 2 2 2
          2 2 2 2 2 2
          2 2 2 2 2 2
          2 2 2 2 2 2
          2 2 2 2 0 0
          1 1 0 0.25 2 2
          2 2 2 2 2 2
          1.5 1.75 1 1.25 2 2
          2 2 2 2 2 2
          2 2 2 2 2 2
          2 2 1 2 2 2
          2 2 2 2 2 2
          2 2 2 2 2 2
          2 2 2 2 2 2
          2 2 2 2 2 2
          2 2 2 2
        </DataArray>
        <DataArray type="Float64" Name="markers_norefine" format="ascii" RangeMin="0" RangeMax="0">
          0 0 0 0 0 0
          0 0 0 0 0 0
          0 0 0 0 0 0
          0 0 0 0 0 0
          0 0 0 0 0 0
          0 0 0 0 0 0
          0 0 0 0 0 0
          0 0 0 0 0 0
          0 0 0 0 0 0
          0 0 0 0 0 0
          0 0 0 0 0 0
          0 0 0 0 0 0
          0 0 0 0 0 0
          0 0 0 0 0 0
          0 0 0 0 0 0
          0 0 0 0 0 0
          0 0 0 0 0 0
          0 0 0 0 0 0
          0 0 0 0 0 0
          0 0 0 0 0 0
          0 0 0 0 0 0
          0 0 0 0 0 0
          0 0 0 0 0 0
          0 0 0 0 0 0
          0 0 0 0 0 0
          0 0 0 0 0 0
          0 0 0 0 0 0
          0 0 0 0 0 0
          0 0 0 0 0 0
          0 0 0 0 0 0
          0 0 0 0 0 0
          0 0 0 0 0 0
          0 0 0 0 0 0
          0 0 0 0 0 0
          0 0 0 0 0 0
          0 0 0 0 0 0
          0 0 0 0 0 0
          0 0 0 0 0 0
          0 0 0 0 0 0
          0 0 0 0 0 0
          0 0 0 0 0 0
          0 0 0 0 0 0
          0 0 0 0 0 0
          0 0 0 0 0 0
          0 0 0 0 0 0
          0 0 0 0 0 0
          0 0 0 0 0 0
          0 0 0 0 0 0
          0 0 0 0 0 0
          0 0 0 0 0 0
          0 0 0 0 0 0
          0 0 0 0 0 0
          0 0 0 0 0 0
          0 0 0 0 0 0
          0 0 0 0 0 0
          0 0 0 0 0 0
          0 0 0 0 0 0
          0 0 0 0 0 0
          0 0 0 0 0 0
          0 0 0 0 0 0
          0 0 0 0 0 0
          0 0 0 0 0 0
          0 0 0 0
        </DataArray>
        <DataArray type="Float64" Name="markers_mustrefine" format="ascii" RangeMin="0" RangeMax="2">
          0 0 2 1 0 2
          2 0 2 2 2 2
          2 0 0 0 0 0
          0 0 0.75 2 2 2
          2 0.5 0.25 2 2 0
          2 2 0 2 1.5 2
          2 2 2 2 2 2
          2 2 2 2 2 2
          2 2 2 2 2 0
          0 0 0 0 0 0
          0 0 0 0 0 0
          0 2 2 2 2 2
          2 2 2 2 1.75 2
          2 2 1 1.5 0.5 1.25
          0 1 2 2 2 2
          2 2 2 2 2 2
          2 2 2 2 2 2
          1 1.5 1.5 1 1.5 1.25
          2 2 2 2 0 0
          1 1 0 1 1 0
          1 1 2 2 2 2
          0 1 0 1 0 1
          1 2 2 2 0 1
          0 1 0 0.75 0.6666666666666666 2
          2 1.75 2 2 2 2
          2 2 2 2 2 2
          2 2 2 2 2 2
          2 2 2 2 2 2
          2 2 2 2 2 2
          2 2 2 2 2 2
          0.75 1.75 2 2 0.5 0.5
          1.5 1.5 0.25 0 1.25 1.3333333333333333
          2 2 2 2 2 2
          2 2 2 2 2 2
          2 2 2 2 2 2
          2 2 2 2 2 2
          2 2 2 2 2 2
          2 2 2 2 2 2
          2 2 2 2 2 2
          2 2 2 2 2 2
          2 2 2 2 2 2
          2 2 2 2 2 2
          2 2 2 2 2 2
          2 2 2 2 2 2
          2 2 2 2 2 2
          2 2 2 2 2 2
          2 2 2 2 2 2
          2 2 2 2 2 2
          2 2 2 2 2 2
          2 2 2 2 2 2
          2 2 2 2 2 2
          2 2 2 2 0 0
          1 1 0 0.25 2 2
          2 2 2 2 2 2
          1.5 1.75 1 1.25 2 2
          2 2 2 2 2 2
          2 2 2 2 2 2
          2 2 1 2 2 2
          2 2 2 2 2 2
          2 2 2 2 2 2
          2 2 2 2 2 2
          2 2 2 2 2 2
          2 2 2 2
        </DataArray>
        <DataArray type="Float64" Name="gradient_marker" format="ascii" RangeMin="1" RangeMax="1">
          1 1 1 1 1 1
          1 1 1 1 1 1
          1 1 1 1 1 1
          1 1 1 1 1 1
          1 1 1 1 1 1
          1 1 1 1 1 1
          1 1 1 1 1 1
          1 1 1 1 1 1
          1 1 1 1 1 1
          1 1 1 1 1 1
          1 1 1 1 1 1
          1 1 1 1 1 1
          1 1 1 1 1 1
          1 1 1 1 1 1
          1 1 1 1 1 1
          1 1 1 1 1 1
          1 1 1 1 1 1
          1 1 1 1 1 1
          1 1 1 1 1 1
          1 1 1 1 1 1
          1 1 1 1 1 1
          1 1 1 1 1 1
          1 1 1 1 1 1
          1 1 1 1 1 1
          1 1 1 1 1 1
          1 1 1 1 1 1
          1 1 1 1 1 1
          1 1 1 1 1 1
          1 1 1 1 1 1
          1 1 1 1 1 1
          1 1 1 1 1 1
          1 1 1 1 1 1
          1 1 1 1 1 1
          1 1 1 1 1 1
          1 1 1 1 1 1
          1 1 1 1 1 1
          1 1 1 1 1 1
          1 1 1 1 1 1
          1 1 1 1 1 1
          1 1 1 1 1 1
          1 1 1 1 1 1
          1 1 1 1 1 1
          1 1 1 1 1 1
          1 1 1 1 1 1
          1 1 1 1 1 1
          1 1 1 1 1 1
          1 1 1 1 1 1
          1 1 1 1 1 1
          1 1 1 1 1 1
          1 1 1 1 1 1
          1 1 1 1 1 1
          1 1 1 1 1 1
          1 1 1 1 1 1
          1 1 1 1 1 1
          1 1 1 1 1 1
          1 1 1 1 1 1
          1 1 1 1 1 1
          1 1 1 1 1 1
          1 1 1 1 1 1
          1 1 1 1 1 1
          1 1 1 1 1 1
          1 1 1 1 1 1
          1 1 1 1
        </DataArray>
        <DataArray type="Float64" Name="gradient_matprop_marker" format="ascii" RangeMin="0" RangeMax="0">
          0 0 0 0 0 0
          0 0 0 0 0 0
          0 0 0 0 0 0
          0 0 0 0 0 0
          0 0 0 0 0 0
          0 0 0 0 0 0
          0 0 0 0 0 0
          0 0 0 0 0 0
          0 0 0 0 0 0
          0 0 0 0 0 0
          0 0 0 0 0 0
          0 0 0 0 0 0
          0 0 0 0 0 0
          0 0 0 0 0 0
          0 0 0 0 0 0
          0 0 0 0 0 0
          0 0 0 0 0 0
          0 0 0 0 0 0
          0 0 0 0 0 0
          0 0 0 0 0 0
          0 0 0 0 0 0
          0 0 0 0 0 0
          0 0 0 0 0 0
          0 0 0 0 0 0
          0 0 0 0 0 0
          0 0 0 0 0 0
          0 0 0 0 0 0
          0 0 0 0 0 0
          0 0 0 0 0 0
          0 0 0 0 0 0
          0 0 0 0 0 0
          0 0 0 0 0 0
          0 0 0 0 0 0
          0 0 0 0 0 0
          0 0 0 0 0 0
          0 0 0 0 0 0
          0 0 0 0 0 0
          0 0 0 0 0 0
          0 0 0 0 0 0
          0 0 0 0 0 0
          0 0 0 0 0 0
          0 0 0 0 0 0
          0 0 0 0 0 0
          0 0 0 0 0 0
          0 0 0 0 0 0
          0 0 0 0 0 0
          0 0 0 0 0 0
          0 0 0 0 0 0
          0 0 0 0 0 0
          0 0 0 0 0 0
          0 0 0 0 0 0
          0 0 0 0 0 0
          0 0 0 0 0 0
          0 0 0 0 0 0
          0 0 0 0 0 0
          0 0 0 0 0 0
          0 0 0 0 0 0
          0 0 0 0 0 0
          0 0 0 0 0 0
          0 0 0 0 0 0
          0 0 0 0 0 0
          0 0 0 0 0 0
          0 0 0 0
        </DataArray>
        <DataArray type="Float64" Name="combo" format="ascii" RangeMin="1" RangeMax="1">
          1 1 1 1 1 1
          1 1 1 1 1 1
          1 1 1 1 1 1
          1 1 1 1 1 1
          1 1 1 1 1 1
          1 1 1 1 1 1
          1 1 1 1 1 1
          1 1 1 1 1 1
          1 1 1 1 1 1
          1 1 1 1 1 1
          1 1 1 1 1 1
          1 1 1 1 1 1
          1 1 1 1 1 1
          1 1 1 1 1 1
          1 1 1 1 1 1
          1 1 1 1 1 1
          1 1 1 1 1 1
          1 1 1 1 1 1
          1 1 1 1 1 1
          1 1 1 1 1 1
          1 1 1 1 1 1
          1 1 1 1 1 1
          1 1 1 1 1 1
          1 1 1 1 1 1
          1 1 1 1 1 1
          1 1 1 1 1 1
          1 1 1 1 1 1
          1 1 1 1 1 1
          1 1 1 1 1 1
          1 1 1 1 1 1
          1 1 1 1 1 1
          1 1 1 1 1 1
          1 1 1 1 1 1
          1 1 1 1 1 1
          1 1 1 1 1 1
          1 1 1 1 1 1
          1 1 1 1 1 1
          1 1 1 1 1 1
          1 1 1 1 1 1
          1 1 1 1 1 1
          1 1 1 1 1 1
          1 1 1 1 1 1
          1 1 1 1 1 1
          1 1 1 1 1 1
          1 1 1 1 1 1
          1 1 1 1 1 1
          1 1 1 1 1 1
          1 1 1 1 1 1
          1 1 1 1 1 1
          1 1 1 1 1 1
          1 1 1 1 1 1
          1 1 1 1 1 1
          1 1 1 1 1 1
          1 1 1 1 1 1
          1 1 1 1 1 1
          1 1 1 1 1 1
          1 1 1 1 1 1
          1 1 1 1 1 1
          1 1 1 1 1 1
          1 1 1 1 1 1
          1 1 1 1 1 1
          1 1 1 1 1 1
          1 1 1 1
        </DataArray>
        <DataArray type="Float64" Name="dHdT" format="ascii" RangeMin="25.817610578671648" RangeMax="41.91042771084169">
          25.817610578671648 25.850928050837695 28.50317516499598 25.989619949119735 25.935028094552713 28.165094993888363
          26.951015170173033 25.83862672938971 26.32956966196177 26.059976950964856 37.72939450963986 30.181683029974398
          26.736281018853724 25.834905916481592 25.832164698280945 25.847556949758093 25.841699695079566 25.81904044807232
          25.822288034031203 25.820940444027862 25.97327982773501 26.447097113260057 26.367248897939287 26.19000341678121
          27.748473850649336 25.898251974292926 25.89027801921246 26.120880378914524 26.0812133958483 25.847487278121687
          25.946524686357243 25.929279928016427 25.871586525608006 25.993286699111074 25.889089272338772 26.977108957833778
          26.77432629097043 26.238830133150437 26.37651182585657 34.042739898697114 32.15428357742785 28.706305277375925
          35.880599917781986 29.70158202735452 28.752616576443597 27.46848828432917 27.093887258554634 27.235101649203507
          26.445172681601264 32.57065000165253 30.635203130652105 27.83142638432612 27.896906588685795 25.857604597714978
          25.8957115452426 25.889876754503476 25.875651985690364 25.8371050575674 25.835787148915355 25.85415943675573
          25.85121275234888 25.824224861494038 25.8322100463493 25.830918023052543 25.832656603187132 25.844185819027395
          25.829933333077047 26.142703972989196 26.13405186240143 26.280932234948388 26.267617183272684 26.041726911903837
          26.149017440732084 26.139241297968233 26.11011758114318 26.230411262050357 26.112077432905277 26.686555925379277
          26.657857332872883 26.42593437243214 26.07482983327393 26.17613670017484 25.9990618765423 26.072515610786024
          26.033982497011646 26.027537247848258 26.28342641382087 27.472617328652717 27.407311111165807 27.026163925689808
          26.978417597137373 26.848487627838928 29.06859670902613 28.903601973826653 28.05077253391822 26.668731895172044
          26.475415055463657 27.35123851993919 25.977063817996516 25.972665495662227 26.048281392286064 26.041355088860826
          25.922285046763395 25.973714905141588 25.96896919593886 25.960517047327055 26.022077547198066 25.95571411983902
          26.26102547441536 26.245926287674997 26.110380938619766 26.20396143107419 25.88815893394048 25.886212926011112
          25.920259763199013 25.91713086309775 25.8609998463683 25.882907873122825 25.88092151912053 25.880591609442053
          25.90829465271708 25.875242323011406 26.01861519488675 26.01155663098238 25.941942869190818 25.991942411035993
          25.94269422394009 25.99405909623386 25.90154551472527 25.936439023794023 25.922332705019002 25.962428725013826
          25.914738791536102 26.14397951728613 26.039493572011203 26.07726819656273 25.872036620564604 25.89525760337406
          25.851777049468915 25.866870194669396 25.86242677591384 25.880604963311 25.861695838247943 25.963821368533466
          25.91114002542976 25.932768923914818 26.677939053275377 26.643826144910378 26.4128760465541 26.389015428516924
          26.550684787186224 26.323763811007034 27.48635435717243 27.406299540590787 26.92183142759181 27.193818445626547
          26.216666498311383 26.200481042910504 26.076247039128 26.06552727605201 26.15612779324113 26.03635407096663
          26.600459543019394 26.563192564335537 26.304898248413906 26.463199302689162 26.421269341857727 26.23305567096701
          26.282014183770293 26.13561275364392 26.911926700876926 26.577579875583478 26.62517079819878 26.094425083335246
          25.99591401069878 26.02834117959057 25.95277245537432 26.32920968512294 26.15035755785195 26.19212353032346
          25.985114271950366 26.10118616686477 26.297615663470776 26.607129063410518 25.932892956408963 25.894618794934935
          26.014293408053064 25.950170987955563 25.867240584062163 25.856019880032015 25.90412840955772 25.88050420889643
          26.154360856089454 26.04675192002373 26.37742252633671 26.202555936587526 25.96864769899594 25.914102179668706
          26.073811557546488 25.98247052559301 32.3055123407414 31.936992912412066 30.511920570977395 30.209594082303102
          29.442293468408458 35.82724619769004 35.4551118449003 33.54727438109392 28.521093883338402 27.693251701768805
          30.317865225782626 37.256407707236846 37.19071524318787 36.8565397186606 36.40591128959643 34.81965312784382
          37.32343758597861 37.43807873447576 37.3766390472179 32.21928036234961 29.726954829038096 33.05912130766448
          29.03954016197776 28.8443679091384 28.017062568155964 27.89011017974524 28.346913934014992 27.561782176804844
          31.714459239554543 31.282674381907594 29.429923225077232 30.195433716750717 27.294018044549308 27.21134963947356
          26.78478569750356 26.731090748792624 26.994467307754967 26.589199375141153 28.362336493862728 28.195818705183004
          27.363733748244023 27.77177459835608 27.73178279707701 27.14601587031342 27.155969867470418 26.748155812817455
          28.930513923951544 27.948248435632152 27.860948318018842 26.715484021599828 26.40553852211388 26.445594486633407
          26.227171991587667 27.251362912970592 26.757326044170007 26.775663543907786 34.66730093403227 34.00698996307948
          31.64388791139833 31.175331085847063 32.26735891524497 30.04145656225874 35.96538112286177 35.23061229596919
          32.00029555075517 33.22712613305853 29.517744927382722 29.24927348267582 28.183326472802367 28.020386677810478
          28.577952900000255 27.605596428581528 30.04639706940664 29.729121329302316 28.313702865485496 28.93926107382234
          30.205395916605646 28.76411611131906 28.54529353418693 27.698575118690744 30.789479795379194 29.127064071608075
          28.842305290303226 27.782385498198355 27.101540784880946 27.08661315892635 26.649705746051655 28.014279859196357