<?xml version="1.0"?>
<VTKFile type="UnstructuredGrid" version="0.1" byte_order="LittleEndian" header_type="UInt32" compressor="vtkZLibDataCompressor">
  <UnstructuredGrid>
    <Piece NumberOfPoints="405" NumberOfCells="218">
      <PointData>
        <DataArray type="Int32" Name="libmesh_node_id" format="ascii" RangeMin="330" RangeMax="3303">
          668 954 955 956 957 1366
          1367 1370 1380 1381 1382 1383
          1387 1388 1390 1391 1393 1404
          1405 1408 1409 1411 1424 1425
          1428 1430 1431 1433 1441 1445
          1700 1701 1702 1703 1704 1705
          1706 1707 1708 1709 2881 2882
          2883 2884 2885 2886 2887 2888
          2889 2890 2895 2896 2897 2898
          2899 2900 2901 2902 2903 2904
          2909 2911 2913 2919 2921 2923
          2963 2964 2965 2966 2967 2968
          2969 2970 2971 2972 2973 2974
          2975 2976 2977 2978 2979 2980
          2984 2985 2987 2988 2990 2991
          2992 2993 2994 2995 2996 2997
          2998 2999 3000 3001 3002 3005
          3006 3008 3010 3041 3042 3043
          3044 3045 3046 3047 3048 3049
          3050 3119 3120 3121 3122 3123
          3124 3125 3126 3127 3128 3129
          3130 3133 3135 3136 3138 3139
          3140 3141 3142 3143 3144 3145
          3146 3148 3150 3152 3153 3154
          3155 3156 3157 3158 3159 3160
          3161 3162 3163 3164 3167 3169
          3170 3172 3173 3174 3175 3176
          3177 3178 3179 3180 3182 3184
          3186 3246 3247 3248 3249 3250
          3251 3252 3253 3254 3257 3258
          3260 3262 3263 3264 3265 3266
          3267 3268 3269 3270 3271 3272
          3273 3274 3275 3276 3277 3278
          3279 3280 3282 3284 3286 3287
          3288 3289 3290 3291 3292 3293
          3294 3295 3296 3297 3298 3299
          3300 3301 3302 3303 810 813
          814 811 459 375 463 460
          948 949 950 958 959 960
          961 962 953 963 464 672
          669 658 675 462 465 1371
          1372 1384 1385 1386 1375 1389
          1396 1397 1406 1407 1400 1410
          674 1412 1402 1413 676 677
          1442 1444 1443 1615 1470 1437
          1616 1471 681 1447 1622 1476
          1680 1681 1682 1685 461 1302
          1373 2461 2462 2463 2466 1303
          2891 2892 2469 1368 2893 2894
          1304 1369 2905 2906 2907 2908
          2483 2910 2484 2912 2914 2487
          2915 2916 2489 2917 2920 2922
          2924 2925 2926 2927 2941 2942
          2944 670 2947 1378 2981 2982
          2983 2986 673 2989 1392 2957
          2959 2961 671 3003 3004 3007
          3009 3023 3024 3027 3029 3063
          3064 3066 1416 3069 1417 3131
          3132 3134 1426 3137 1427 3079
          3081 3083 1419 3147 3149 3151
          1429 3097 3098 3100 678 3103
          1422 3165 3166 3168 330 3171
          1432 3113 3115 3117 679 3181
          3183 3185 680 3195 3197 3199
          1435 3255 3256 3259 3261 3210
          3211 3214 3216 3226 3228 3230
          1439 3281 3283 3285 1446 3240
          3242 3244 471
        </DataArray>
        <DataArray type="Float64" Name="bounds" format="ascii" RangeMin="0" RangeMax="0">
          0 0 0 0 0 0
          0 0 0 0 0 0
          0 0 0 0 0 0
          0 0 0 0 0 0
          0 0 0 0 0 0
          0 0 0 0 0 0
          0 0 0 0 0 0
          0 0 0 0 0 0
          0 0 0 0 0 0
          0 0 0 0 0 0
          0 0 0 0 0 0
          0 0 0 0 0 0
          0 0 0 0 0 0
          0 0 0 0 0 0
          0 0 0 0 0 0
          0 0 0 0 0 0
          0 0 0 0 0 0
          0 0 0 0 0 0
          0 0 0 0 0 0
          0 0 0 0 0 0
          0 0 0 0 0 0
          0 0 0 0 0 0
          0 0 0 0 0 0
          0 0 0 0 0 0
          0 0 0 0 0 0
          0 0 0 0 0 0
          0 0 0 0 0 0
          0 0 0 0 0 0
          0 0 0 0 0 0
          0 0 0 0 0 0
          0 0 0 0 0 0
          0 0 0 0 0 0
          0 0 0 0 0 0
          0 0 0 0 0 0
          0 0 0 0 0 0
          0 0 0 0 0 0
          0 0 0 0 0 0
          0 0 0 0 0 0
          0 0 0 0 0 0
          0 0 0 0 0 0
          0 0 0 0 0 0
          0 0 0 0 0 0
          0 0 0 0 0 0
          0 0 0 0 0 0
          0 0 0 0 0 0
          0 0 0 0 0 0
          0 0 0 0 0 0
          0 0 0 0 0 0
          0 0 0 0 0 0
          0 0 0 0 0 0
          0 0 0 0 0 0
          0 0 0 0 0 0
          0 0 0 0 0 0
          0 0 0 0 0 0
          0 0 0 0 0 0
          0 0 0 0 0 0
          0 0 0 0 0 0
          0 0 0 0 0 0
          0 0 0 0 0 0
          0 0 0 0 0 0
          0 0 0 0 0 0
          0 0 0 0 0 0
          0 0 0 0 0 0
          0 0 0 0 0 0
          0 0 0 0 0 0
          0 0 0 0 0 0
          0 0 0 0 0 0
          0 0 0
        </DataArray>
        <DataArray type="Float64" Name="gradient_error" format="ascii" RangeMin="4.565476006580239e-12" RangeMax="9.207549391569248e-10">
          9.048340737797856e-11 1.3807809403302806e-10 1.239652081419672e-10 1.155478767237671e-10 1.665918420631237e-10 1.041980758295897e-10
          9.318359014568172e-11 6.758124235654603e-11 7.120021231776862e-11 6.425146146984109e-11 4.5237386747397414e-11 4.0525390060635766e-11
          4.902442863600335e-11 3.5782115686421224e-11 5.455781226187799e-11 4.551618243098804e-11 3.1863384837475776e-11 3.500268875647808e-11
          3.868393302950697e-11 2.9259230862863005e-11 4.1537604882486147e-11 3.476364129770555e-11 1.5103070164399806e-10 1.2202903138175438e-10
          6.494217705928431e-11 2.0469142140749063e-10 1.689929652530771e-10 8.958822317627931e-11 3.0020383893685984e-11 3.2901873127017434e-11
          6.590378183705478e-11 6.564828080600915e-11 1.1583803741557537e-10 1.0695954980540545e-10 4.590130355942434e-11 6.923422950448949e-11
          6.839574839548272e-11 6.539277977496353e-11 9.808106219523553e-11 6.755726728647597e-11 6.643752667008138e-11 6.447605479567946e-11
          1.0047884391208973e-10 9.737692384688272e-11 4.152737083415558e-11 6.355937647465951e-11 6.167156380470561e-11 5.946007595595467e-11
          8.888044102929157e-11 5.61661501898286e-11 2.71548230594793e-11 2.6408044215058204e-11 3.902504007953385e-11 3.7852586417777233e-11
          2.1217301057586684e-11 2.9522255296434326e-11 2.863101834929525e-11 2.4241204487795343e-11 3.455749929108366e-11 2.6136012159695513e-11
          5.398780288254323e-11 3.407066244114181e-11 5.157003677445464e-11 2.2061427725397162e-11 1.822871437536854e-11 2.1301711845840746e-11
          3.45631155754613e-11 3.3332579139316666e-11 5.139527149823156e-11 4.9385489400071445e-11 1.859047808154812e-11 2.855150377585447e-11
          2.7449584203919374e-11 2.9943998528355874e-11 4.386461664738136e-11 2.4469930195948245e-11 9.922605988383078e-11 9.472323404491503e-11
          5.212387680922082e-11 8.252417571056144e-11 1.0592016867272317e-11 1.023393425305485e-11 1.5556292131637294e-11 1.497429086391301e-11
          9.269099102169204e-12 1.3382210386949589e-11 2.924425596088708e-11 2.7967064417409483e-11 2.4490034748176034e-11 2.523028050370629e-11
          3.6213058854004546e-11 1.433598918473686e-11 2.0163595810940898e-11 1.993799058416394e-11 2.7874841829944785e-11 1.7576790795965525e-11
          6.609843131570541e-11 3.642384982235874e-11 4.9028146305180397e-11 8.028167201611342e-12 1.1073835374987578e-11 7.39398783772166e-12
          9.775539572264705e-12 1.958716803102187e-11 1.6228039331102867e-11 1.510180966436923e-11 2.0179410008289504e-11 1.187964764401951e-11
          1.523598343037812e-11 1.3002244814283437e-11 1.6681728071847166e-11 1.321158619679884e-11 3.382576145132129e-11 2.1802113252061746e-11
          2.4658493281861843e-11 1.7933266458718168e-10 1.7020783437754555e-10 9.746261585428862e-11 9.256565062827267e-11 1.457065173893102e-10
          7.940820270156662e-11 2.790014621321806e-10 2.645809014957231e-10 1.4322217389666684e-10 2.2529120557114564e-10 5.1432545600738103e-11
          4.88925724023153e-11 4.20601319061825e-11 7.913718203781382e-11 7.507146733349997e-11 6.406389525961508e-11 1.1316485389396757e-10
          6.192093290495212e-11 8.054134876879133e-11 4.425623360165279e-11 1.7214168136161487e-10 9.347735404337079e-11 1.1893917685720458e-10
          3.290691415789421e-11 2.3580150756065666e-11 4.9270283564601546e-11 3.446414587954797e-11 3.517568888050922e-10 3.3542145410788564e-10
          1.9155738556799137e-10 1.8240276866278437e-10 2.886451723629642e-10 1.5656322286748133e-10 3.7395149017352683e-10 3.580887055504123e-10
          1.955534274966294e-10 3.108578517075415e-10 1.0069013664498015e-10 9.579619105794682e-11 8.213293451994423e-11 1.0800305589003697e-10
          1.0301511089347656e-10 8.877359450840122e-11 2.215612181016201e-10 1.20110751073497e-10 1.5191089888141668e-10 8.26470987847078e-11
          2.401677558408376e-10 1.3025216266258411e-10 1.6478154205137176e-10 6.309181694020583e-11 4.363676691125058e-11 6.840206255331709e-11
          4.724203023228613e-11 5.339573374709914e-11 2.9448563374197804e-11 3.314409196314837e-11 2.132427911973723e-11 7.593569498847877e-11
          4.1749193306340133e-11 4.557186999288888e-11 1.237934018593613e-11 1.5630065152010277e-11 9.842841257810763e-12 1.2145992499205137e-11
          2.2230199411994257e-11 1.4999597606069958e-11 1.62424852151181e-11 1.9610751803933727e-11 1.2108799779206081e-11 1.4373674476718067e-11
          1.2437790001788735e-11 1.4641766815410403e-11 1.0932122302459992e-11 2.608830950345584e-11 1.646893033818678e-11 1.8887207723886403e-11
          9.489107102519181e-11 5.203718199034424e-11 5.545999291916026e-11 3.061773701021654e-11 1.0230770701719159e-10 5.606609384667957e-11
          5.92572955207522e-11 2.7776832484629e-11 1.6585301102131754e-11 2.99740562633539e-11 1.789577766545833e-11 3.099015976196904e-11
          1.7513086918135212e-11 2.19387888611587e-11 1.2914074396718925e-11 3.278271890977575e-11 1.864205291610528e-11 2.294890590357667e-11
          9.19511912519696e-12 9.74122705334263e-12 7.162435405536887e-12 7.23667166345791e-12 7.292718040287211e-12 7.411993360615295e-12
          5.76375326455834e-12 1.02873349814883e-11 7.310907921378933e-12 7.531268680943377e-12 8.084909705274707e-10 2.1581510950115823e-10
          1.9276065205392099e-10 6.824027164238064e-10 9.207549391569248e-10 1.8609191840195044e-10 1.739559790149932e-10 7.099895306684435e-10
          4.223465858845607e-10 3.078620203304855e-10 3.2507916495540336e-10 4.775317025549019e-11 7.174999901262277e-11 6.702962816428807e-11
          1.0271197328945109e-10 1.8216732972102954e-10 4.261937359105936e-10 6.635904270872686e-11 5.975733559748404e-11 5.270080778828515e-11
          1.494983249430367e-10 2.586015133139885e-10 1.7503857681897532e-10 4.212946170550959e-10 7.723384625097968e-11 6.581310845508154e-11
          5.7945087678025335e-11 2.416767001066635e-11 1.612458780862835e-11 1.468093029832943e-11 5.833919063897628e-11 1.9240636650564293e-11
          8.792539273912946e-11 8.627423228399365e-11 1.48210103297417e-11 2.1071999242631692e-11 9.600516693320861e-11 1.6786133154537674e-11
          1.518735659674263e-11 2.3394101937052692e-11 6.880683801436968e-11 4.248437686664691e-11 1.0343575085851669e-10 4.869436978952815e-11
          1.6443996465653157e-11 2.4987287906835275e-11 3.6817320600602665e-11 3.371867131368532e-11 8.135093429572851e-11 8.205756417057061e-11
          3.860147812202685e-11 9.419882328529366e-11 9.56241366945045e-11 3.6398160155242307e-11 4.348428493036838e-11 1.0540393378127282e-10
          1.3363126408490152e-10 2.6083205482301775e-10 2.3957500449405694e-10 2.1970150023948703e-10 2.424811656656408e-10 2.1895438508436076e-10
          1.4540897418863087e-10 9.974122741121576e-11 1.5580976425598156e-10 1.5089767045766588e-10 1.3803615871799441e-10 3.1433878851877973e-10
          2.0228870748325974e-10 1.9526299708433023e-10 3.0346677193225945e-10 1.2685109495569535e-10 1.2244742622437463e-10 1.7561370997262013e-10
          2.73128471136426e-10 1.1007920621835137e-10 7.758433288319048e-11 7.49151905457914e-11 5.166700542915781e-11 6.744369845205895e-11
          8.417334105603571e-11 7.595174211195307e-11 1.191263917770088e-10 4.7848110446300675e-11 6.84176059469987e-11 1.0676579485693958e-10
          4.314767164769586e-11 1.4633653649324772e-10 2.2921511797231633e-10 9.166402113109956e-11 2.983715238942761e-11 2.3431339255473263e-11
          2.72394389527085e-11 2.233043559371167e-11 5.621126054942743e-11 3.9122650706254104e-11 9.065069453551209e-11 8.707184900661475e-11
          7.71919794810846e-11 1.753664360509555e-10 1.6729763692068977e-10 1.455020592057693e-10 5.709040347777149e-12 8.387370128013383e-12
          8.089639679630732e-12 7.255220981192751e-12 1.5310028582074893e-11 1.466016807269079e-11 1.2876318857144969e-11 6.336053172891484e-11
          4.8375080966959695e-11 1.1598062892961378e-10 8.539539572817968e-11 4.565476006580239e-12 6.123946273839182e-12 5.5293598165409405e-12
          1.0425784135715323e-11 2.550472955807998e-11 3.4518754191725685e-11 2.811745442290984e-11 5.840517224819089e-11 3.198213725355719e-10
          3.0342683954347255e-10 2.5937818183354545e-10 4.97832524329906e-10 4.72300799015083e-10 4.023622295260514e-10 2.6417385199302054e-11
          2.514127820327635e-11 2.1701463606826655e-11 4.0217252797981817e-11 3.817594500507326e-11 3.266082557769252e-11 2.0065845063886362e-10
          1.4188311148197883e-10 3.0713700386463193e-10 2.1145471359027867e-10 1.708996615944684e-11 1.2363505486282002e-11 2.525593857394959e-11
          1.7798705193120925e-11 6.219839831998462e-10 5.943198051024511e-10 5.135873941648519e-10 6.56847032743653e-10 6.309619751102965e-10
          5.513092943883825e-10 5.119874054508102e-11 4.869337221564783e-11 4.1756071195678434e-11 5.506149248722816e-11 5.246731369380458e-11
          4.5157032111728185e-11 3.952696257466382e-10 2.7065814001223334e-10 4.279749566487497e-10 2.9366300964884696e-10 3.217360608573808e-11
          2.2402303906365452e-11 3.4846115612138146e-11 2.4204883780474537e-11 9.308658213935038e-11 5.74858875083641e-11 1.3369879380963666e-10
          7.945622437423944e-11 6.7181924412914125e-12 8.31959001706805e-12 6.5543453740631166e-12 1.160472458977894e-11 2.9025476198608348e-11
          3.445902498315801e-11 2.5946060426340477e-11 4.5164143607788594e-11 1.679827130165334e-10 9.728991149872692e-11 1.8146343702148384e-10
          1.0422677026644284e-10 1.4369397646424246e-11 1.0208037451753517e-11 1.54503337061353e-11 1.3163999220926234e-11 5.3742354567303465e-11
          3.757412231438163e-11 5.7048995686737404e-11 2.6626137003506628e-11
        </DataArray>
        <DataArray type="Float64" Name="gradient_matprop_error" format="ascii" RangeMin="0" RangeMax="0">
          0 0 0 0 0 0
          0 0 0 0 0 0
          0 0 0 0 0 0
          0 0 0 0 0 0
          0 0 0 0 0 0
          0 0 0 0 0 0
          0 0 0 0 0 0
          0 0 0 0 0 0
          0 0 0 0 0 0
          0 0 0 0 0 0
          0 0 0 0 0 0
          0 0 0 0 0 0
          0 0 0 0 0 0
          0 0 0 0 0 0
          0 0 0 0 0 0
          0 0 0 0 0 0
          0 0 0 0 0 0
          0 0 0 0 0 0
          0 0 0 0 0 0
          0 0 0 0 0 0
          0 0 0 0 0 0
          0 0 0 0 0 0
          0 0 0 0 0 0
          0 0 0 0 0 0
          0 0 0 0 0 0
          0 0 0 0 0 0
          0 0 0 0 0 0
          0 0 0 0 0 0
          0 0 0 0 0 0
          0 0 0 0 0 0
          0 0 0 0 0 0
          0 0 0 0 0 0
          0 0 0 0 0 0
          0 0 0 0 0 0
          0 0 0 0 0 0
          0 0 0 0 0 0
          0 0 0 0 0 0
          0 0 0 0 0 0
          0 0 0 0 0 0
          0 0 0 0 0 0
          0 0 0 0 0 0
          0 0 0 0 0 0
          0 0 0 0 0 0
          0 0 0 0 0 0
          0 0 0 0 0 0
          0 0 0 0 0 0
          0 0 0 0 0 0
          0 0 0 0 0 0
          0 0 0 0 0 0
          0 0 0 0 0 0
          0 0 0 0 0 0
          0 0 0 0 0 0
          0 0 0 0 0 0
          0 0 0 0 0 0
          0 0 0 0 0 0
          0 0 0 0 0 0
          0 0 0 0 0 0
          0 0 0 0 0 0
          0 0 0 0 0 0
          0 0 0 0 0 0
          0 0 0 0 0 0
          0 0 0 0 0 0
          0 0 0 0 0 0
          0 0 0 0 0 0
          0 0 0 0 0 0
          0 0 0 0 0 0
          0 0 0 0 0 0
          0 0 0
        </DataArray>
        <DataArray type="Float64" Name="initial_marker" format="ascii" RangeMin="0" RangeMax="2">
          0 0 0 0 0 0
          0 0 0 0 1 0.75
          0 0 2 2 1.75 0
          0 0 0 0.5 2 2
          2 2 2 2 1.75 2
          0 0 0 0 0 0
          0 0 0 0 0 0
          1 1 0 1 1 0
          1 1 0 0 1 0.75
          0 1 0.5 0 0.5 0
          0 0 0 0 0 0
          2 2 2 2 2 2
          2 2 2 1.75 2 2
          2 2 1 1 1.5 1.5
          0.5 1.25 2 2 2 1.5
          1.75 0.5 1.25 0.5 1.25 1
          2 2 2 0 1 0
          1 2 2 0 0.75 0
          0.5 0 0.5 0 1.75 1.6666666666666667
          1.3333333333333333 2 2 2 2 2
          2 2 2 2 2 2
          2 2 2 2 2 2
          2 2 2 2 2 2
          2 2 2 2 2 2
          2 2 2 2 2 2
          2 2 2 2 2 2
          2 2 2 2 2 2
          2 2 2 2 2 2
          2 2 2 1.75 1.6666666666666667 2
          2 2 1.5 1.75 1 1.5
          2 1.6666666666666667 0.5 0.75 0 0.5
          0 0 0 1 1 0
          2 2 2 2 2 2
          2 2 1.5 2 1.5 1.25
          1 0.5 0 1.5 1 1
          0.5 0.5 0 0 0 0
          0 0.5 0 0 0 0
          0 0 0 0 0 0
          0 0 0 0 0 0
          0 0 0 0 0 0
          0 0 0 0 0 1.5
          1 0 0 0 0.75 0
          0 0 0 0 0 0
          1 0 1.5 0 0 0
          0.75 0 0 0 0 0.25
          0 0 1 0 0 0
          0 0 0 0 0 0
          0 0 1 1 1 2
          2 2 2 2 2 2
          2 2 2 1.75 1.6666666666666667 1.5
          0 0.75 1 0.5 0.5 0.6666666666666666
          0 1.75 2 1.5 0.25 0
          0 0 1.25 1.3333333333333333 2 2
          2 2 2 2 0 1
          1 1 2 2 2 2
          1.75 2 2 0 0.75 0.5
          1.75 0.5 1.25 1 2 2
          2 2 2 2 2 2
          2 2 2 2 2 2
          2 2 2 2 1.75 2
          2 2 2 2 2 2
          2 2 2 2 2 2
          2 2 2 2 2 2
          2 2 2 2 2 2
          2 0.5 1 0.5 1.75 1
          1 0 1.25 2 2 2
          2 2 1.3333333333333333 2 1 1.75
          1.5 2 0
        </DataArray>
        <DataArray type="Float64" Name="markers_norefine" format="ascii" RangeMin="0" RangeMax="0">
          0 0 0 0 0 0
          0 0 0 0 0 0
          0 0 0 0 0 0
          0 0 0 0 0 0
          0 0 0 0 0 0
          0 0 0 0 0 0
          0 0 0 0 0 0
          0 0 0 0 0 0
          0 0 0 0 0 0
          0 0 0 0 0 0
          0 0 0 0 0 0
          0 0 0 0 0 0
          0 0 0 0 0 0
          0 0 0 0 0 0
          0 0 0 0 0 0
          0 0 0 0 0 0
          0 0 0 0 0 0
          0 0 0 0 0 0
          0 0 0 0 0 0
          0 0 0 0 0 0
          0 0 0 0 0 0
          0 0 0 0 0 0
          0 0 0 0 0 0
          0 0 0 0 0 0
          0 0 0 0 0 0
          0 0 0 0 0 0
          0 0 0 0 0 0
          0 0 0 0 0 0
          0 0 0 0 0 0
          0 0 0 0 0 0
          0 0 0 0 0 0
          0 0 0 0 0 0
          0 0 0 0 0 0
          0 0 0 0 0 0
          0 0 0 0 0 0
          0 0 0 0 0 0
          0 0 0 0 0 0
          0 0 0 0 0 0
          0 0 0 0 0 0
          0 0 0 0 0 0
          0 0 0 0 0 0
          0 0 0 0 0 0
          0 0 0 0 0 0
          0 0 0 0 0 0
          0 0 0 0 0 0
          0 0 0 0 0 0
          0 0 0 0 0 0
          0 0 0 0 0 0
          0 0 0 0 0 0
          0 0 0 0 0 0
          0 0 0 0 0 0
          0 0 0 0 0 0
          0 0 0 0 0 0
          0 0 0 0 0 0
          0 0 0 0 0 0
          0 0 0 0 0 0
          0 0 0 0 0 0
          0 0 0 0 0 0
          0 0 0 0 0 0
          0 0 0 0 0 0
          0 0 0 0 0 0
          0 0 0 0 0 0
          0 0 0 0 0 0
          0 0 0 0 0 0
          0 0 0 0 0 0
          0 0 0 0 0 0
          0 0 0 0 0 0
          0 0 0
        </DataArray>
        <DataArray type="Float64" Name="markers_mustrefine" format="ascii" RangeMin="0" RangeMax="2">
          0 0 0 0 0 0
          0 0 0 0 1 0.75
          0 0 2 2 1.75 0
          0 0 0 0.5 2 2
          2 2 2 2 1.75 2
          0 0 0 0 0 0
          0 0 0 0 0 0
          1 1 0 1 1 0
          1 1 0 0 1 0.75
          0 1 0.5 0 0.5 0
          0 0 0 0 0 0
          2 2 2 2 2 2
          2 2 2 1.75 2 2
          2 2 1 1 1.5 1.5
          0.5 1.25 2 2 2 1.5
          1.75 0.5 1.25 0.5 1.25 1
          2 2 2 0 1 0
          1 2 2 0 0.75 0
          0.5 0 0.5 0 1.75 1.6666666666666667
          1.3333333333333333 2 2 2 2 2
          2 2 2 2 2 2
          2 2 2 2 2 2
          2 2 2 2 2 2
          2 2 2 2 2 2
          2 2 2 2 2 2
          2 2 2 2 2 2
          2 2 2 2 2 2
          2 2 2 2 2 2
          2 2 2 1.75 1.6666666666666667 2
          2 2 1.5 1.75 1 1.5
          2 1.6666666666666667 0.5 0.75 0 0.5
          0 0 0 1 1 0
          2 2 2 2 2 2
          2 2 1.5 2 1.5 1.25
          1 0.5 0 1.5 1 1
          0.5 0.5 0 0 0 0
          0 0.5 0 0 0 0
          0 0 0 0 0 0
          0 0 0 0 0 0
          0 0 0 0 0 0
          0 0 0 0 0 1.5
          1 0 0 0 0.75 0
          0 0 0 0 0 0
          1 0 1.5 0 0 0
          0.75 0 0 0 0 0.25
          0 0 1 0 0 0
          0 0 0 0 0 0
          0 0 1 1 1 2
          2 2 2 2 2 2
          2 2 2 1.75 1.6666666666666667 1.5
          0 0.75 1 0.5 0.5 0.6666666666666666
          0 1.75 2 1.5 0.25 0
          0 0 1.25 1.3333333333333333 2 2
          2 2 2 2 0 1
          1 1 2 2 2 2
          1.75 2 2 0 0.75 0.5
          1.75 0.5 1.25 1 2 2
          2 2 2 2 2 2
          2 2 2 2 2 2
          2 2 2 2 1.75 2
          2 2 2 2 2 2
          2 2 2 2 2 2
          2 2 2 2 2 2
          2 2 2 2 2 2
          2 0.5 1 0.5 1.75 1
          1 0 1.25 2 2 2
          2 2 1.3333333333333333 2 1 1.75
          1.5 2 0
        </DataArray>
        <DataArray type="Float64" Name="gradient_marker" format="ascii" RangeMin="1" RangeMax="1">
          1 1 1 1 1 1
          1 1 1 1 1 1
          1 1 1 1 1 1
          1 1 1 1 1 1
          1 1 1 1 1 1
          1 1 1 1 1 1
          1 1 1 1 1 1
          1 1 1 1 1 1
          1 1 1 1 1 1
          1 1 1 1 1 1
          1 1 1 1 1 1
          1 1 1 1 1 1
          1 1 1 1 1 1
          1 1 1 1 1 1
          1 1 1 1 1 1
          1 1 1 1 1 1
          1 1 1 1 1 1
          1 1 1 1 1 1
          1 1 1 1 1 1
          1 1 1 1 1 1
          1 1 1 1 1 1
          1 1 1 1 1 1
          1 1 1 1 1 1
          1 1 1 1 1 1
          1 1 1 1 1 1
          1 1 1 1 1 1
          1 1 1 1 1 1
          1 1 1 1 1 1
          1 1 1 1 1 1
          1 1 1 1 1 1
          1 1 1 1 1 1
          1 1 1 1 1 1
          1 1 1 1 1 1
          1 1 1 1 1 1
          1 1 1 1 1 1
          1 1 1 1 1 1
          1 1 1 1 1 1
          1 1 1 1 1 1
          1 1 1 1 1 1
          1 1 1 1 1 1
          1 1 1 1 1 1
          1 1 1 1 1 1
          1 1 1 1 1 1
          1 1 1 1 1 1
          1 1 1 1 1 1
          1 1 1 1 1 1
          1 1 1 1 1 1
          1 1 1 1 1 1
          1 1 1 1 1 1
          1 1 1 1 1 1
          1 1 1 1 1 1
          1 1 1 1 1 1
          1 1 1 1 1 1
          1 1 1 1 1 1
          1 1 1 1 1 1
          1 1 1 1 1 1
          1 1 1 1 1 1
          1 1 1 1 1 1
          1 1 1 1 1 1
          1 1 1 1 1 1
          1 1 1 1 1 1
          1 1 1 1 1 1
          1 1 1 1 1 1
          1 1 1 1 1 1
          1 1 1 1 1 1
          1 1 1 1 1 1
          1 1 1 1 1 1
          1 1 1
        </DataArray>
        <DataArray type="Float64" Name="gradient_matprop_marker" format="ascii" RangeMin="0" RangeMax="0">
          0 0 0 0 0 0
          0 0 0 0 0 0
          0 0 0 0 0 0
          0 0 0 0 0 0
          0 0 0 0 0 0
          0 0 0 0 0 0
          0 0 0 0 0 0
          0 0 0 0 0 0
          0 0 0 0 0 0
          0 0 0 0 0 0
          0 0 0 0 0 0
          0 0 0 0 0 0
          0 0 0 0 0 0
          0 0 0 0 0 0
          0 0 0 0 0 0
          0 0 0 0 0 0
          0 0 0 0 0 0
          0 0 0 0 0 0
          0 0 0 0 0 0
          0 0 0 0 0 0
          0 0 0 0 0 0
          0 0 0 0 0 0
          0 0 0 0 0 0
          0 0 0 0 0 0
          0 0 0 0 0 0
          0 0 0 0 0 0
          0 0 0 0 0 0
          0 0 0 0 0 0
          0 0 0 0 0 0
          0 0 0 0 0 0
          0 0 0 0 0 0
          0 0 0 0 0 0
          0 0 0 0 0 0
          0 0 0 0 0 0
          0 0 0 0 0 0
          0 0 0 0 0 0
          0 0 0 0 0 0
          0 0 0 0 0 0
          0 0 0 0 0 0
          0 0 0 0 0 0
          0 0 0 0 0 0
          0 0 0 0 0 0
          0 0 0 0 0 0
          0 0 0 0 0 0
          0 0 0 0 0 0
          0 0 0 0 0 0
          0 0 0 0 0 0
          0 0 0 0 0 0
          0 0 0 0 0 0
          0 0 0 0 0 0
          0 0 0 0 0 0
          0 0 0 0 0 0
          0 0 0 0 0 0
          0 0 0 0 0 0
          0 0 0 0 0 0
          0 0 0 0 0 0
          0 0 0 0 0 0
          0 0 0 0 0 0
          0 0 0 0 0 0
          0 0 0 0 0 0
          0 0 0 0 0 0
          0 0 0 0 0 0
          0 0 0 0 0 0
          0 0 0 0 0 0
          0 0 0 0 0 0
          0 0 0 0 0 0
          0 0 0 0 0 0
          0 0 0
        </DataArray>
        <DataArray type="Float64" Name="combo" format="ascii" RangeMin="1" RangeMax="1">
          1 1 1 1 1 1
          1 1 1 1 1 1
          1 1 1 1 1 1
          1 1 1 1 1 1
          1 1 1 1 1 1
          1 1 1 1 1 1
          1 1 1 1 1 1
          1 1 1 1 1 1
          1 1 1 1 1 1
          1 1 1 1 1 1
          1 1 1 1 1 1
          1 1 1 1 1 1
          1 1 1 1 1 1
          1 1 1 1 1 1
          1 1 1 1 1 1
          1 1 1 1 1 1
          1 1 1 1 1 1
          1 1 1 1 1 1
          1 1 1 1 1 1
          1 1 1 1 1 1
          1 1 1 1 1 1
          1 1 1 1 1 1
          1 1 1 1 1 1
          1 1 1 1 1 1
          1 1 1 1 1 1
          1 1 1 1 1 1
          1 1 1 1 1 1
          1 1 1 1 1 1
          1 1 1 1 1 1
          1 1 1 1 1 1
          1 1 1 1 1 1
          1 1 1 1 1 1
          1 1 1 1 1 1
          1 1 1 1 1 1
          1 1 1 1 1 1
          1 1 1 1 1 1
          1 1 1 1 1 1
          1 1 1 1 1 1
          1 1 1 1 1 1
          1 1 1 1 1 1
          1 1 1 1 1 1
          1 1 1 1 1 1
          1 1 1 1 1 1
          1 1 1 1 1 1
          1 1 1 1 1 1
          1 1 1 1 1 1
          1 1 1 1 1 1
          1 1 1 1 1 1
          1 1 1 1 1 1
          1 1 1 1 1 1
          1 1 1 1 1 1
          1 1 1 1 1 1
          1 1 1 1 1 1
          1 1 1 1 1 1
          1 1 1 1 1 1
          1 1 1 1 1 1
          1 1 1 1 1 1
          1 1 1 1 1 1
          1 1 1 1 1 1
          1 1 1 1 1 1
          1 1 1 1 1 1
          1 1 1 1 1 1
          1 1 1 1 1 1
          1 1 1 1 1 1
          1 1 1 1 1 1
          1 1 1 1 1 1
          1 1 1 1 1 1
          1 1 1
        </DataArray>
        <DataArray type="Float64" Name="dHdT" format="ascii" RangeMin="25.812271499454056" RangeMax="26.161627547750015">
          25.818371984986122 25.814599897531693 25.814401754841846 25.814804356419025 25.815048955606688 25.828249157231607
          25.82714793752117 25.819452820897748 25.816844093588763 25.81651838186589 25.818655558069967 25.818006549322245
          25.81577122607789 25.81654477010682 25.833215187751698 25.829756328138195 25.822598706485564 25.81501895933913
          25.81556979136102 25.814688136665502 25.81538029451651 25.81750631383074 25.874888892916353 25.861147285439063
          25.837139112324557 25.911463784412476 25.887522513545065 25.8476660503296 25.821917912910276 25.82501546705329
          25.81817368414236 25.818096758385146 25.82111067716337 25.820794440799038 25.816056960401944 25.817495598129867
          25.81750458133739 25.818019832627932 25.820478204434707 25.81751356454491 25.844377645747606 25.843644741434453
          25.85741329378614 25.856184739339728 25.83199662866189 25.840434899576437 25.83969236505382 25.841461060674074
          25.852711812468108 25.837686878773333 25.82462628191246 25.82436876686074 25.829392398850224 25.828961584021314
          25.821447990072567 25.8251107320364 25.824799686723303 25.823747835040123 25.827841834641376 25.823996672185878
          25.838413793667787 25.829473081328082 25.836817303108727 25.82317206289182 25.820609497960863 25.822959707512403
          25.826512827827024 25.82604253455369 25.832734362036867 25.831962734848375 25.820208181939847 25.82371987117945
          25.823301275679917 25.82477176554349 25.829867004592625 25.82215947991474 25.850761855491573 25.84899873596537
          25.832276320188456 25.844265824490385 25.81680106124981 25.816663448981988 25.81844970231297 25.818230368541503
          25.8162832025417 25.817632807053197 25.8232907759742 25.82280740419265 25.821510637368508 25.822978109462397
          25.82695035042897 25.81849047977627 25.82057438149925 25.821050662132492 25.823854506162682 25.81967412785923
          25.837896159717435 25.826351584236306 25.83139011664449 25.815779330722137 25.816844985991445 25.815518093075042
          25.81643539264652 25.819789815289226 25.81864797148339 25.819399391989606 25.821202619866916 25.817561319161506
          25.818786284055584 25.8186823888324 25.82005402674104 25.817975151232293 25.825901878949878 25.82094827361675
          25.822815924354398 25.882943912113358 25.879089304162726 25.85009340349333 25.84807163601063 25.868947691269007
          25.842743412528563 25.930753089257166 25.923383419695348 25.87106453515395 25.90430596017111 25.831851849654974
          25.830826724652617 25.82812083974709 25.84427074243724 25.842355323132985 25.83737790906662 25.855850649759685
          25.8358304035411 25.84315894523687 25.829098111688296 25.880466351878145 25.848710995448172 25.858403294788104
          25.82460583236639 25.82118167522248 25.83111020276491 25.82524346375909 25.980030941742616 25.96875845799235
          25.900256209477092 25.894440699572947 25.93985925952953 25.87950933629579 26.00187571446117 25.988814148131787
          25.904737329902325 25.955432575915854 25.85685710878054 25.853965801946465 25.846527360550702 25.8623932234243
          25.85905688664793 25.850501719290026 25.904440897241663 25.861149201096264 25.87260127930952 25.844550484413976
          25.914780662207086 25.866492333127994 25.87859197642046 25.837342594742076 25.828984764471617 25.84000745936941