<?xml version="1.0"?>
<VTKFile type="UnstructuredGrid" version="0.1" byte_order="LittleEndian" header_type="UInt32" compressor="vtkZLibDataCompressor">
  <UnstructuredGrid>
    <Piece NumberOfPoints="459" NumberOfCells="247">
      <PointData>
        <DataArray type="Int32" Name="libmesh_node_id" format="ascii" RangeMin="0" RangeMax="4475">
          0 1 2 3 4 5
          6 7 8 9 10 11
          12 13 14 15 16 17
          18 19 40 41 42 43
          44 45 46 47 48 49
          60 61 62 63 64 65
          66 67 68 69 80 81
          82 83 84 90 91 92
          93 94 95 96 97 110
          111 112 113 120 121 122
          123 124 125 126 127 140
          141 142 143 150 151 152
          153 154 155 156 157 170
          171 172 173 180 181 182
          183 184 185 186 187 200
          201 202 203 257 258 259
          260 261 262 263 264 265
          266 269 512 4110 4111 4112
          4113 4114 4117 4118 4119 4120
          4121 4122 4123 4124 4125 4126
          4127 4128 4129 4130 4131 4132
          4133 4134 4135 4136 4137 4138
          4139 4140 4141 4142 4143 4144
          4145 4146 4147 4148 4149 4150
          4151 4152 4153 4154 4155 4156
          4157 4158 4159 4161 4163 4166
          4168 4170 4171 4172 4173 4174
          4175 4176 4177 4178 4179 4180
          4181 4182 4183 4184 4185 4186
          4187 4188 4189 4190 4191 4192
          4193 4194 4195 4196 4197 4198
          4199 4200 4201 4204 4205 4206
          4208 4209 4211 4212 4213 4214
          4215 4216 4217 4218 4219 4220
          4221 4222 4223 4224 4225 4226
          4227 4228 4229 4230 4231 4232
          4233 4234 4235 4236 4237 4238
          4239 4240 4241 4242 4243 4244
          4245 4246 4247 4248 4249 4250
          4251 4252 4253 4254 4255 4256
          4257 4258 4259 4260 4261 4262
          4263 4264 4265 4266 4267 4268
          4269 4270 4271 4272 4273 4274
          4275 4276 4277 4278 4279 4280
          4281 4282 4283 4284 4285 4286
          4287 4288 4289 4290 4291 4292
          4293 4294 4295 4296 4297 4298
          4299 4300 4301 4302 4303 4304
          4305 4306 4307 4308 4309 4310
          4311 4312 4313 4314 4315 4316
          4317 4318 4319 4320 4321 4322
          4323 4324 4325 4326 4327 4328
          4329 4330 4331 4332 4333 4334
          4335 4336 4337 4338 4339 4340
          4341 4342 4343 4344 4345 4346
          4347 4348 4349 4350 4351 4352
          4353 4354 4355 4356 4357 4358
          4359 4360 4361 4362 4363 4364
          4365 4366 4367 4368 4369 4370
          4371 4372 4373 4374 4375 4376
          4377 4378 4379 4380 4381 4382
          4383 4384 4385 4386 4387 4388
          4389 4390 4391 4392 4393 4394
          4395 4396 4397 4398 4399 4400
          4401 4402 4403 4404 4405 4406
          4407 4408 4409 4410 4411 4412
          4413 4414 4415 4416 4417 4418
          4419 4420 4421 4422 4423 4424
          4425 4426 4427 4428 4429 4430
          4431 4432 4433 4434 4435 4436
          4437 4438 4439 4440 4441 4442
          4443 4444 4445 4446 4447 4448
          4449 4450 4451 4452 4453 4454
          4455 4456 4457 4458 4459 4460
          4461 4462 4463 4464 4465 4466
          4467 4468 4469 4470 4471 4472
          4473 4474 4475
        </DataArray>
        <DataArray type="Float64" Name="bounds" format="ascii" RangeMin="0" RangeMax="0">
          0 0 0 0 0 0
          0 0 0 0 0 0
          0 0 0 0 0 0
          0 0 0 0 0 0
          0 0 0 0 0 0
          0 0 0 0 0 0
          0 0 0 0 0 0
          0 0 0 0 0 0
          0 0 0 0 0 0
          0 0 0 0 0 0
          0 0 0 0 0 0
          0 0 0 0 0 0
          0 0 0 0 0 0
          0 0 0 0 0 0
          0 0 0 0 0 0
          0 0 0 0 0 0
          0 0 0 0 0 0
          0 0 0 0 0 0
          0 0 0 0 0 0
          0 0 0 0 0 0
          0 0 0 0 0 0
          0 0 0 0 0 0
          0 0 0 0 0 0
          0 0 0 0 0 0
          0 0 0 0 0 0
          0 0 0 0 0 0
          0 0 0 0 0 0
          0 0 0 0 0 0
          0 0 0 0 0 0
          0 0 0 0 0 0
          0 0 0 0 0 0
          0 0 0 0 0 0
          0 0 0 0 0 0
          0 0 0 0 0 0
          0 0 0 0 0 0
          0 0 0 0 0 0
          0 0 0 0 0 0
          0 0 0 0 0 0
          0 0 0 0 0 0
          0 0 0 0 0 0
          0 0 0 0 0 0
          0 0 0 0 0 0
          0 0 0 0 0 0
          0 0 0 0 0 0
          0 0 0 0 0 0
          0 0 0 0 0 0
          0 0 0 0 0 0
          0 0 0 0 0 0
          0 0 0 0 0 0
          0 0 0 0 0 0
          0 0 0 0 0 0
          0 0 0 0 0 0
          0 0 0 0 0 0
          0 0 0 0 0 0
          0 0 0 0 0 0
          0 0 0 0 0 0
          0 0 0 0 0 0
          0 0 0 0 0 0
          0 0 0 0 0 0
          0 0 0 0 0 0
          0 0 0 0 0 0
          0 0 0 0 0 0
          0 0 0 0 0 0
          0 0 0 0 0 0
          0 0 0 0 0 0
          0 0 0 0 0 0
          0 0 0 0 0 0
          0 0 0 0 0 0
          0 0 0 0 0 0
          0 0 0 0 0 0
          0 0 0 0 0 0
          0 0 0 0 0 0
          0 0 0 0 0 0
          0 0 0 0 0 0
          0 0 0 0 0 0
          0 0 0 0 0 0
          0 0 0
        </DataArray>
        <DataArray type="Float64" Name="gradient_error" format="ascii" RangeMin="1.5130329416657134e-10" RangeMax="0.0000017136004623689184">
          2.1237262690173723e-10 2.3258598774203587e-10 1.969973323311243e-10 1.8501319680419319e-10 7.501271886357922e-10 7.888381160094804e-10
          5.044370558151437e-10 4.801218717505983e-10 2.420056622739657e-10 2.0490744467478372e-10 7.558341862973496e-10 4.946644448948705e-10
          2.666303306001444e-10 2.1513574548785144e-10 6.237857657330826e-10 4.1657049470310536e-10 2.9952398404477853e-10 2.2541363910567495e-10
          5.353475988206823e-10 3.486934570603872e-10 1.6140867692021274e-10 1.5765376670664914e-10 2.2003599562080693e-10 2.1011655486540438e-10
          1.6780922707560174e-10 2.3349470349239143e-10 1.6364116037555847e-10 2.0935522367312815e-10 1.5130329416657134e-10 1.6203931530009207e-10
          3.3592997947830965e-9 3.4183452837072713e-9 2.1281575400264318e-9 2.082201058522694e-9 3.0874376690687018e-9 1.976858763074738e-9
          2.4389504008773225e-9 1.5677205420003146e-9 2.095638259105054e-9 1.241896354385114e-9 8.379697963455914e-10 8.051023222622921e-10
          8.662798570807739e-10 6.964906831233069e-10 3.8815444966517427e-10 1.540374146476496e-8 1.5199572415597956e-8 9.655276482022966e-9
          9.72439358685368e-9 1.2997146060986608e-8 8.525713698354077e-9 9.817335133079444e-9 6.482934649029369e-9 4.110980548447977e-9
          4.045045708942402e-9 4.054281335721549e-9 3.148534164979294e-9 4.211679202319821e-8 3.814481515223975e-8 1.7952527542348264e-8
          1.9089610374203885e-8 2.681854787909778e-8 1.5368435478068382e-8 1.970452933168696e-8 1.2681221682981901e-8 1.7195039326632443e-8
          1.718953549065012e-8 1.6994933168218357e-8 1.5439793169596955e-8 2.8032961566578606e-7 2.3443767406606754e-7 3.109721242130189e-7
          3.483491279001522e-7 1.672955717105213e-7 2.569601190450421e-7 2.4199504697203934e-7 1.94635991911673e-7 1.9992852565570836e-8
          2.2048131985412275e-8 1.6699847381412714e-8 1.596773429263235e-8 4.881396814102863e-7 6.21683490210351e-7 1.988357182809175e-7
          2.4285170945132265e-7 8.929869939040449e-7 1.4446274463395242e-7 0.000001350272479956783 2.1364593065230949e-7 5.351115589354496e-8
          6.092457389536549e-8 3.507824989997845e-8 2.508974981208757e-8 8.318802753825711e-7 5.34380186131284e-7 2.6518060308061743e-7
          0.0000011189485159327342 0.0000017136004623689184 0.0000010896258856612595 6.608018014643686e-7 2.0324060934611444e-7 4.768812394822763e-7
          2.609647576009246e-7 0.0000010972452604016682 0.0000012490870385598185 1.3889468862783545e-8 1.047891565478529e-7 1.691348972655365e-7
          9.79484606809138e-8 6.508292226633295e-8 2.5376687984813006e-8 2.6629231545930877e-7 4.428684836577649e-7 4.600612126514587e-7
          6.856798928140744e-7 7.18563303140803e-7 7.440506108791791e-7 7.412268969499259e-7 4.015828903679039e-7 7.827679713658352e-7
          7.448909811494215e-7 4.4008952648913013e-7 4.229424982599422e-7 4.390421575303552e-7 3.858295576596458e-7 5.321910324557569e-7
          7.187214265289793e-7 6.864977907963924e-7 7.8142098207283e-7 2.291640015809607e-7 1.9656744118933267e-7 3.521665350074155e-7
          8.566749339881422e-7 7.389690234307338e-7 3.0553207890897544e-7 9.380932950989364e-7 7.248664314262331e-7 3.688253240755206e-7
          3.4310453286950555e-7 3.0299242725527403e-7 7.39423982979267e-7 8.52995241396818e-7 9.308206429920621e-7 1.654208677981364e-7
          1.7723834759168677e-7 2.74362344266539e-7 0.0000010260346851743443 6.998312561880711e-7 2.9407262864333194e-7 2.737720914100446e-7
          0.0000010927371064663927 0.0000010131737992341125 1.571037414706591e-7 3.200680960688423e-8 6.690122502109645e-8 1.5652394154420515e-8
          1.0179564043530868e-7 3.2840902986433395e-7 2.5648350268710686e-7 2.389368096150892e-7 4.400547401374261e-7 4.2182999600374187e-7
          3.4491926115696713e-7 3.642248111760891e-7 2.678929803077152e-7 4.1178160783346544e-7 3.343713367392856e-7 1.8455797550987973e-7
          2.6800852631019244e-7 2.8839488221475216e-7 2.569610656451059e-7 0.0000011671597351023294 9.962623942980233e-7 9.687683016271034e-7
          6.531775748123787e-7 0.000001503071580196938 0.0000016636485791140248 0.0000016127964201420194 0.0000014782415174855178 9.715956590909995e-7
          9.480798205040013e-7 0.0000015082286501665408 0.00000166642307131482 0.000001508459244453918 0.0000011391544945186833 2.3604087350148488e-7
          2.584158043223377e-7 3.0038917062935555e-7 3.2336661268576217e-7 1.632791295532675e-7 2.195312842467262e-7 2.0398503913761976e-7
          3.647374677572262e-7 3.883174210491866e-7 2.757834389401849e-7 5.678931243973501e-8 3.6095234578507444e-8 3.7729712190622285e-8
          1.5732769969029406e-7 1.4542905236161144e-7 8.827352143294956e-8 9.656748541881402e-8 3.1947286402245544e-8 1.1589386096634179e-7
          6.849085242585183e-8 1.5401156717279875e-8 3.111799050428765e-8 3.5807271147333984e-8 2.1087843885361866e-8 4.356344983494877e-8
          2.643726537980873e-8 7.915858080119993e-8 4.720821127073665e-8 1.9471406172859638e-8 4.8278259587055676e-8 3.273387211891993e-8
          9.311080924668687e-9 1.5257841740273357e-8 1.7189484650784173e-8 1.923209349025393e-8 1.169830967374783e-8 5.0767231490579154e-8
          3.6183871827885864e-8 4.164525857241729e-9 2.1600512165192573e-8 2.1746860917787937e-8 2.513027122892138e-8 7.205817895957054e-8
          7.909692133300517e-8 1.7411266381254385e-8 5.682817619187554e-8 1.5290604482741428e-8 3.7062781467028846e-8 3.8692116500637094e-8
          3.296573359497396e-8 1.2236949700135317e-7 1.3306357143708894e-7 9.62450860024967e-8 5.8834958451316264e-8 1.9062897240219e-8
          4.2643997742817815e-8 2.4195410417721565e-8 3.513205206744716e-8 9.025687757133772e-9 2.746862147801169e-8 2.0581630731778947e-8
          6.622509824541664e-8 4.606869371717274e-8 4.5911555198889604e-8 2.861000269968526e-8 4.091795175682248e-8 4.872558136479092e-9
          1.2794247611742702e-8 5.322590081395971e-8 2.0715937087006313e-8 3.030609259804164e-7 2.767678899361233e-7 2.7867394885229876e-7
          4.5883433064036736e-7 4.602642651523084e-7 4.104409546209637e-7 4.098698237639046e-7 2.719277594340727e-7 4.6375263288496607e-7
          4.1177502392437425e-7 2.504748538918302e-7 3.606176440896191e-7 3.6090531688744184e-7 3.5979741496378243e-7 6.949698392875076e-7
          6.584367216369106e-7 6.510037954762374e-7 6.773129496253063e-7 5.667211603513441e-7 2.9340242506496555e-7 2.661680137980435e-7
          4.6808618805906143e-7 4.1344186416447137e-7 2.602373778899975e-7 4.7227813947222237e-7 4.14842209159802e-7 2.389336025311215e-7
          3.587975402698813e-7 3.5740627884738163e-7 7.490802744962417e-7 7.019410842548942e-7 7.291259282384486e-7 5.904856335538667e-7
          6.233457283323737e-7 6.365925364655773e-7 7.078164074253436e-7 6.952359056004349e-7 6.701641058012802e-7 7.398501774300152e-7
          6.551538363505729e-7 6.479081739752207e-7 6.735398772642166e-7 5.007129986803397e-7 6.428733908826702e-7 6.295299189239055e-7
          6.766967440240934e-7 6.956061493178335e-7 7.144655678461401e-7 7.822467382816055e-7 7.655664329967248e-7 8.307906578919545e-7
          6.974839049106578e-7 7.238351735110321e-7 5.735405377529539e-7 7.213270225843217e-7 7.727764997366185e-7 7.485700984948358e-7
          3.471920945607127e-7 3.4776159814251595e-7 3.9469571021323177e-7 3.9452486784103123e-7 3.456394078930602e-7 3.949857952155452e-7
          2.380279160400199e-7 2.5812402611042777e-7 2.6035947060011736e-7 2.5242808496140757e-7 4.421993258657509e-7 4.412881375395465e-7
          4.4433218253803e-7 2.7822013618083563e-7 3.4361199849851006e-7 3.9521111330270095e-7 3.410088929297187e-7 3.949206652981496e-7
          2.25370884362513e-7 2.454823255011573e-7 2.381858663614192e-7 4.468102281068918e-7 4.4883243766658044e-7 2.655937666398016e-7
          2.8335860298941757e-7 2.539286400761019e-7 4.7557930545745607e-7 4.153098686346892e-7 2.474588666850838e-7 4.776163196736347e-7
          4.145381389719221e-7 2.2449867716278615e-7 3.550404318119224e-7 3.5145995827020934e-7 8.187328747316666e-7 7.576971798005634e-7
          7.872676209172037e-7 6.195245986938379e-7 2.7387074814634645e-7 2.4104801148404893e-7 4.779919495264069e-7 4.121820422225708e-7
          2.352412347638705e-7 4.7634352771660954e-7 4.0793581096711467e-7 2.0822527482175138e-7 3.463721349187347e-7 3.3952809421761975e-7
          8.964955699337256e-7 8.175803160764913e-7 8.483622105435686e-7 6.457225151977114e-7 8.231733616564817e-7 8.847129506544141e-7
          8.879611911097481e-7 9.443669255070282e-7 7.514200053693884e-7 7.798279899469317e-7 6.766809817751249e-7 8.307226389009778e-7
          8.958160204384088e-7 8.163442059285489e-7 9.609846529844382e-7 0.000001010461653856294 0.0000010435345845898345 0.000001083922053129021
          8.087693523533048e-7 8.379287104453543e-7 8.110913170078922e-7 9.690787485206978e-7 0.0000010517500723412634 8.912144294179015e-7
          3.3731448129587543e-7 3.935086337687011e-7 3.322961677992098e-7 3.906694636997085e-7 2.0937813624915768e-7 2.3042979645097207e-7
          2.2245560740986193e-7 4.4970278624152674e-7 4.490427596002073e-7 2.514814566527865e-7 3.2566474511175686e-7 3.8605129030564555e-7
          3.171683074825273e-7 3.793327754760587e-7 1.9149206906889363e-7 2.1450253063283135e-7 2.0711765172961636e-7 4.4643783549953424e-7
          4.414972434695901e-7 2.3751299219676908e-7 2.69489386655936e-7 2.3074572164807427e-7 4.72209317661152e-7 4.0142496314692274e-7
          2.2872544730030816e-7 4.651270892686956e-7 3.922596696802948e-7 1.9200205664021253e-7 3.3064060863269347e-7 3.19392250091894e-7
          9.81334094036096e-7 8.793026007542338e-7 9.099848803087632e-7 6.646314727317415e-7 2.806489664586001e-7 2.3066918063893016e-7
          4.5451939653034406e-7 3.7997729018460703e-7 1.806893948192602e-7 3.0543518383887e-7 0.0000010719760587221733 9.39976016784409e-7
          6.70028836551304e-7 0.0000011371013683014963 0.0000011658730834532346 0.0000012433633119850797 0.000001257654113343095 8.669432960962628e-7
          8.953326879377268e-7 9.864637971971688e-7 0.0000011452451700437726 0.0000012511323581289456 9.715789634075e-7 0.0000013643560406486572
          0.0000013609764404122732 9.22582463392366e-7 0.0000012131497904550556 0.000001371286246986012 0.0000010552121583870158 3.065152846487895e-7
          3.7012263784946554e-7 2.9339602365718575e-7 3.580209135978759e-7 1.7367836604709803e-7 2.0100348211137852e-7 1.9732136602140886e-7
          4.337299910501417e-7 4.22645803538566e-7 2.2832859817565905e-7 2.774756473150062e-7 3.4255599209761206e-7 1.6081673466938948e-7
          1.975438975863809e-7 4.0763633688021796e-7 2.3427106050337236e-7
        </DataArray>
        <DataArray type="Float64" Name="gradient_matprop_error" format="ascii" RangeMin="0" RangeMax="0">
          0 0 0 0 0 0
          0 0 0 0 0 0
          0 0 0 0 0 0
          0 0 0 0 0 0
          0 0 0 0 0 0
          0 0 0 0 0 0
          0 0 0 0 0 0
          0 0 0 0 0 0
          0 0 0 0 0 0
          0 0 0 0 0 0
          0 0 0 0 0 0
          0 0 0 0 0 0
          0 0 0 0 0 0
          0 0 0 0 0 0
          0 0 0 0 0 0
          0 0 0 0 0 0
          0 0 0 0 0 0
          0 0 0 0 0 0
          0 0 0 0 0 0
          0 0 0 0 0 0
          0 0 0 0 0 0
          0 0 0 0 0 0
          0 0 0 0 0 0
          0 0 0 0 0 0
          0 0 0 0 0 0
          0 0 0 0 0 0
          0 0 0 0 0 0
          0 0 0 0 0 0
          0 0 0 0 0 0
          0 0 0 0 0 0
          0 0 0 0 0 0
          0 0 0 0 0 0
          0 0 0 0 0 0
          0 0 0 0 0 0
          0 0 0 0 0 0
          0 0 0 0 0 0
          0 0 0 0 0 0
          0 0 0 0 0 0
          0 0 0 0 0 0
          0 0 0 0 0 0
          0 0 0 0 0 0
          0 0 0 0 0 0
          0 0 0 0 0 0
          0 0 0 0 0 0
          0 0 0 0 0 0
          0 0 0 0 0 0
          0 0 0 0 0 0
          0 0 0 0 0 0
          0 0 0 0 0 0
          0 0 0 0 0 0
          0 0 0 0 0 0
          0 0 0 0 0 0
          0 0 0 0 0 0
          0 0 0 0 0 0
          0 0 0 0 0 0
          0 0 0 0 0 0
          0 0 0 0 0 0
          0 0 0 0 0 0
          0 0 0 0 0 0
          0 0 0 0 0 0
          0 0 0 0 0 0
          0 0 0 0 0 0
          0 0 0 0 0 0
          0 0 0 0 0 0
          0 0 0 0 0 0
          0 0 0 0 0 0
          0 0 0 0 0 0
          0 0 0 0 0 0
          0 0 0 0 0 0
          0 0 0 0 0 0
          0 0 0 0 0 0
          0 0 0 0 0 0
          0 0 0 0 0 0
          0 0 0 0 0 0
          0 0 0 0 0 0
          0 0 0 0 0 0
          0 0 0
        </DataArray>
        <DataArray type="Float64" Name="initial_marker" format="ascii" RangeMin="0" RangeMax="0">
          0 0 0 0 0 0
          0 0 0 0 0 0
          0 0 0 0 0 0
          0 0 0 0 0 0
          0 0 0 0 0 0
          0 0 0 0 0 0
          0 0 0 0 0 0
          0 0 0 0 0 0
          0 0 0 0 0 0
          0 0 0 0 0 0
          0 0 0 0 0 0
          0 0 0 0 0 0
          0 0 0 0 0 0
          0 0 0 0 0 0
          0 0 0 0 0 0
          0 0 0 0 0 0
          0 0 0 0 0 0
          0 0 0 0 0 0
          0 0 0 0 0 0
          0 0 0 0 0 0
          0 0 0 0 0 0
          0 0 0 0 0 0
          0 0 0 0 0 0
          0 0 0 0 0 0
          0 0 0 0 0 0
          0 0 0 0 0 0
          0 0 0 0 0 0
          0 0 0 0 0 0
          0 0 0 0 0 0
          0 0 0 0 0 0
          0 0 0 0 0 0
          0 0 0 0 0 0
          0 0 0 0 0 0
          0 0 0 0 0 0
          0 0 0 0 0 0
          0 0 0 0 0 0
          0 0 0 0 0 0
          0 0 0 0 0 0
          0 0 0 0 0 0
          0 0 0 0 0 0
          0 0 0 0 0 0
          0 0 0 0 0 0
          0 0 0 0 0 0
          0 0 0 0 0 0
          0 0 0 0 0 0
          0 0 0 0 0 0
          0 0 0 0 0 0
          0 0 0 0 0 0
          0 0 0 0 0 0
          0 0 0 0 0 0
          0 0 0 0 0 0
          0 0 0 0 0 0
          0 0 0 0 0 0
          0 0 0 0 0 0
          0 0 0 0 0 0
          0 0 0 0 0 0
          0 0 0 0 0 0
          0 0 0 0 0 0
          0 0 0 0 0 0
          0 0 0 0 0 0
          0 0 0 0 0 0
          0 0 0 0 0 0
          0 0 0 0 0 0
          0 0 0 0 0 0
          0 0 0 0 0 0
          0 0 0 0 0 0
          0 0 0 0 0 0
          0 0 0 0 0 0
          0 0 0 0 0 0
          0 0 0 0 0 0
          0 0 0 0 0 0
          0 0 0 0 0 0
          0 0 0 0 0 0
          0 0 0 0 0 0
          0 0 0 0 0 0
          0 0 0 0 0 0
          0 0 0
        </DataArray>
        <DataArray type="Float64" Name="markers_norefine" format="ascii" RangeMin="0" RangeMax="0">
          0 0 0 0 0 0
          0 0 0 0 0 0
          0 0 0 0 0 0
          0 0 0 0 0 0
          0 0 0 0 0 0
          0 0 0 0 0 0
          0 0 0 0 0 0
          0 0 0 0 0 0
          0 0 0 0 0 0
          0 0 0 0 0 0
          0 0 0 0 0 0
          0 0 0 0 0 0
          0 0 0 0 0 0
          0 0 0 0 0 0
          0 0 0 0 0 0
          0 0 0 0 0 0
          0 0 0 0 0 0
          0 0 0 0 0 0
          0 0 0 0 0 0
          0 0 0 0 0 0
          0 0 0 0 0 0
          0 0 0 0 0 0
          0 0 0 0 0 0
          0 0 0 0 0 0
          0 0 0 0 0 0
          0 0 0 0 0 0
          0 0 0 0 0 0
          0 0 0 0 0 0
          0 0 0 0 0 0
          0 0 0 0 0 0
          0 0 0 0 0 0
          0 0 0 0 0 0
          0 0 0 0 0 0
          0 0 0 0 0 0
          0 0 0 0 0 0
          0 0 0 0 0 0
          0 0 0 0 0 0
          0 0 0 0 0 0
          0 0 0 0 0 0
          0 0 0 0 0 0
          0 0 0 0 0 0
          0 0 0 0 0 0
          0 0 0 0 0 0
          0 0 0 0 0 0
          0 0 0 0 0 0
          0 0 0 0 0 0
          0 0 0 0 0 0
          0 0 0 0 0 0
          0 0 0 0 0 0
          0 0 0 0 0 0
          0 0 0 0 0 0
          0 0 0 0 0 0
          0 0 0 0 0 0
          0 0 0 0 0 0
          0 0 0 0 0 0
          0 0 0 0 0 0
          0 0 0 0 0 0
          0 0 0 0 0 0
          0 0 0 0 0 0
          0 0 0 0 0 0
          0 0 0 0 0 0
          0 0 0 0 0 0
          0 0 0 0 0 0
          0 0 0 0 0 0
          0 0 0 0 0 0
          0 0 0 0 0 0
          0 0 0 0 0 0
          0 0 0 0 0 0
          0 0 0 0 0 0
          0 0 0 0 0 0
          0 0 0 0 0 0
          0 0 0 0 0 0
          0 0 0 0 0 0
          0 0 0 0 0 0
          0 0 0 0 0 0
          0 0 0 0 0 0
          0 0 0
        </DataArray>
        <DataArray type="Float64" Name="markers_mustrefine" format="ascii" RangeMin="0" RangeMax="0">
          0 0 0 0 0 0
          0 0 0 0 0 0
          0 0 0 0 0 0
          0 0 0 0 0 0
          0 0 0 0 0 0
          0 0 0 0 0 0
          0 0 0 0 0 0
          0 0 0 0 0 0
          0 0 0 0 0 0
          0 0 0 0 0 0
          0 0 0 0 0 0
          0 0 0 0 0 0
          0 0 0 0 0 0
          0 0 0 0 0 0
          0 0 0 0 0 0
          0 0 0 0 0 0
          0 0 0 0 0 0
          0 0 0 0 0 0
          0 0 0 0 0 0
          0 0 0 0 0 0
          0 0 0 0 0 0
          0 0 0 0 0 0
          0 0 0 0 0 0
          0 0 0 0 0 0
          0 0 0 0 0 0
          0 0 0 0 0 0
          0 0 0 0 0 0
          0 0 0 0 0 0
          0 0 0 0 0 0
          0 0 0 0 0 0
          0 0 0 0 0 0
          0 0 0 0 0 0
          0 0 0 0 0 0
          0 0 0 0 0 0
          0 0 0 0 0 0
          0 0 0 0 0 0
          0 0 0 0 0 0
          0 0 0 0 0 0
          0 0 0 0 0 0
          0 0 0 0 0 0
          0 0 0 0 0 0
          0 0 0 0 0 0
          0 0 0 0 0 0
          0 0 0 0 0 0
          0 0 0 0 0 0
          0 0 0 0 0 0
          0 0 0 0 0 0
          0 0 0 0 0 0
          0 0 0 0 0 0
          0 0 0 0 0 0
          0 0 0 0 0 0
          0 0 0 0 0 0
          0 0 0 0 0 0
          0 0 0 0 0 0
          0 0 0 0 0 0
          0 0 0 0 0 0
          0 0 0 0 0 0
          0 0 0 0 0 0
          0 0 0 0 0 0
          0 0 0 0 0 0
          0 0 0 0 0 0
          0 0 0 0 0 0
          0 0 0 0 0 0
          0 0 0 0 0 0
          0 0 0 0 0 0
          0 0 0 0 0 0
          0 0 0 0 0 0
          0 0 0 0 0 0
          0 0 0 0 0 0
          0 0 0 0 0 0
          0 0 0 0 0 0
          0 0 0 0 0 0
          0 0 0 0 0 0
          0 0 0 0 0 0
          0 0 0 0 0 0
          0 0 0 0 0 0
          0 0 0
        </DataArray>
        <DataArray type="Float64" Name="gradient_marker" format="ascii" RangeMin="1" RangeMax="1">
          1 1 1 1 1 1
          1 1 1 1 1 1
          1 1 1 1 1 1
          1 1 1 1 1 1
          1 1 1 1 1 1
          1 1 1 1 1 1
          1 1 1 1 1 1
          1 1 1 1 1 1
          1 1 1 1 1 1
          1 1 1 1 1 1
          1 1 1 1 1 1
          1 1 1 1 1 1
          1 1 1 1 1 1
          1 1 1 1 1 1
          1 1 1 1 1 1
          1 1 1 1 1 1
          1 1 1 1 1 1
          1 1 1 1 1 1
          1 1 1 1 1 1
          1 1 1 1 1 1
          1 1 1 1 1 1
          1 1 1 1 1 1
          1 1 1 1 1 1
          1 1 1 1 1 1
          1 1 1 1 1 1
          1 1 1 1 1 1
          1 1 1 1 1 1
          1 1 1 1 1 1
          1 1 1 1 1 1
          1 1 1 1 1 1
          1 1 1 1 1 1
          1 1 1 1 1 1
          1 1 1 1 1 1
          1 1 1 1 1 1
          1 1 1 1 1 1
          1 1 1 1 1 1
          1 1 1 1 1 1
          1 1 1 1 1 1
          1 1 1 1 1 1
          1 1 1 1 1 1
          1 1 1 1 1 1
          1 1 1 1 1 1
          1 1 1 1 1 1
          1 1 1 1 1 1
          1 1 1 1 1 1
          1 1 1 1 1 1
          1 1 1 1 1 1
          1 1 1 1 1 1
          1 1 1 1 1 1
          1 1 1 1 1 1
          1 1 1 1 1 1
          1 1 1 1 1 1
          1 1 1 1 1 1
          1 1 1 1 1 1
          1 1 1 1 1 1
          1 1 1 1 1 1
          1 1 1 1 1 1
          1 1 1 1 1 1
          1 1 1 1 1 1
          1 1 1 1 1 1
          1 1 1 1 1 1
          1 1 1 1 1 1
          1 1 1 1 1 1
          1 1 1 1 1 1
          1 1 1 1 1 1
          1 1 1 1 1 1
          1 1 1 1 1 1
          1 1 1 1 1 1
          1 1 1 1 1 1
          1 1 1 1 1 1
          1 1 1 1 1 1
          1 1 1 1 1 1
          1 1 1 1 1 1
          1 1 1 1 1 1
          1 1 1 1 1 1
          1 1 1 1 1 1
          1 1 1
        </DataArray>
        <DataArray type="Float64" Name="gradient_matprop_marker" format="ascii" RangeMin="0" RangeMax="0">
          0 0 0 0 0 0
          0 0 0 0 0 0
          0 0 0 0 0 0
          0 0 0 0 0 0
          0 0 0 0 0 0
          0 0 0 0 0 0
          0 0 0 0 0 0
          0 0 0 0 0 0
          0 0 0 0 0 0
          0 0 0 0 0 0
          0 0 0 0 0 0
          0 0 0 0 0 0
          0 0 0 0 0 0
          0 0 0 0 0 0
          0 0 0 0 0 0
          0 0 0 0 0 0
          0 0 0 0 0 0
          0 0 0 0 0 0
          0 0 0 0 0 0
          0 0 0 0 0 0
          0 0 0 0 0 0
          0 0 0 0 0 0
          0 0 0 0 0 0
          0 0 0 0 0 0
          0 0 0 0 0 0
          0 0 0 0 0 0
          0 0 0 0 0 0
          0 0 0 0 0 0
          0 0 0 0 0 0
          0 0 0 0 0 0
          0 0 0 0 0 0
          0 0 0 0 0 0
          0 0 0 0 0 0
          0 0 0 0 0 0
          0 0 0 0 0 0
          0 0 0 0 0 0
          0 0 0 0 0 0
          0 0 0 0 0 0
          0 0 0 0 0 0
          0 0 0 0 0 0
          0 0 0 0 0 0
          0 0 0 0 0 0
          0 0 0 0 0 0
          0 0 0 0 0 0
          0 0 0 0 0 0
          0 0 0 0 0 0
          0 0 0 0 0 0
          0 0 0 0 0 0
          0 0 0 0 0 0
          0 0 0 0 0 0
          0 0 0 0 0 0
          0 0 0 0 0 0
          0 0 0 0 0 0
          0 0 0 0 0 0
          0 0 0 0 0 0
          0 0 0 0 0 0
          0 0 0 0 0 0
          0 0 0 0 0 0
          0 0 0 0 0 0
          0 0 0 0 0 0
          0 0 0 0 0 0
          0 0 0 0 0 0
          0 0 0 0 0 0
          0 0 0 0 0 0
          0 0 0 0 0 0
          0 0 0 0 0 0
          0 0 0 0 0 0
          0 0 0 0 0 0
          0 0 0 0 0 0
          0 0 0 0 0 0
          0 0 0 0 0 0
          0 0 0 0 0 0
          0 0 0 0 0 0
          0 0 0 0 0 0
          0 0 0 0 0 0
          0 0 0 0 0 0
          0 0 0
        </DataArray>
        <DataArray type="Float64" Name="combo" format="ascii" RangeMin="1" RangeMax="1">
          1 1 1 1 1 1
          1 1 1 1 1 1
          1 1 1 1 1 1
          1 1 1 1 1 1
          1 1 1 1 1 1
          1 1 1 1 1 1
          1 1 1 1 1 1
          1 1 1 1 1 1
          1 1 1 1 1 1
          1 1 1 1 1 1
          1 1 1 1 1 1
          1 1 1 1 1 1
          1 1 1 1 1 1
          1 1 1 1 1 1
          1 1 1 1 1 1
          1 1 1 1 1 1
          1 1 1 1 1 1
          1 1 1 1 1 1
          1 1 1 1 1 1
          1 1 1 1 1 1
          1 1 1 1 1 1
          1 1 1 1 1 1
          1 1 1 1 1 1
          1 1 1 1 1 1
          1 1 1 1 1 1
          1 1 1 1 1 1
          1 1 1 1 1 1
          1 1 1 1 1 1
          1 1 1 1 1 1
          1 1 1 1 1 1
          1 1 1 1 1 1
          1 1 1 1 1 1
          1 1 1 1 1 1
          1 1 1 1 1 1
          1 1 1 1 1 1
          1 1 1 1 1 1
          1 1 1 1 1 1
          1 1 1 1 1 1
          1 1 1 1 1 1
          1 1 1 1 1 1
          1 1 1 1 1 1
          1 1 1 1 1 1
          1 1 1 1 1 1
          1 1 1 1 1 1
          1 1 1 1 1 1
          1 1 1 1 1 1
          1 1 1 1 1 1
          1 1 1 1 1 1
          1 1 1 1 1 1
          1 1 1 1 1 1
          1 1 1 1 1 1
          1 1 1 1 1 1
          1 1 1 1 1 1
          1 1 1 1 1 1
          1 1 1 1 1 1
          1 1 1 1 1 1
          1 1 1 1 1 1
          1 1 1 1 1 1
          1 1 1 1 1 1
          1 1 1 1 1 1
          1 1 1 1 1 1
          1 1 1 1 1 1
          1 1 1 1 1 1
          1 1 1 1 1 1
          1 1 1 1 1 1
          1 1 1 1 1 1
          1 1 1 1 1 1
          1 1 1 1 1 1
          1 1 1 1 1 1
          1 1 1 1 1 1
          1 1 1 1 1 1
          1 1 1 1 1 1
          1 1 1 1 1 1
          1 1 1 1 1 1
          1 1 1 1 1 1
          1 1 1 1 1 1
          1 1 1
        </DataArray>
        <DataArray type="Float64" Name="dHdT" format="ascii" RangeMin="25.78922713864718" RangeMax="34.785276642603336">
          25.811453260772105 25.811452425708367 25.81145838378243 25.81145871145832 25.811489359060893 25.811489486447037
          25.811481481180504 25.811481490597618 25.811452935518187 25.81145880122371 25.811487187869545 25.81148022419715
          25.811461619554205 25.811463072479523 25.811476566004444 25.81147507670187 25.811469891367558 25.811466945159367
          25.811467454975087 25.81147088550879 25.811464341856485 25.81146416214454 25.81147347591397 25.811473622134336
          25.81146466692924 25.811473260524764 25.811464525404837 25.811473587399302 25.811463998951176 25.811474316042492
          25.811431108760875 25.811432475862524 25.811469612718188 25.81146872659451 25.811446207850118 25.8114766632896
          25.811493272558053 25.811499200755243 25.811531488442803 25.81151651574943 25.81150674957384 25.811506344428146
          25.81150711872908 25.811505128952437 25.81150154305606 25.811812111248276 25.811797978792793 25.81163445094777
          25.811641685918737 25.81172512243112 25.811598873858244 25.81152781888165 25.811505952123085 25.811470923102746
          25.811471260589194 25.811472625285372 25.81148408536452 25.805345575337643 25.806508939713762 25.81132935910497