<?xml version="1.0"?>
<VTKFile type="UnstructuredGrid" version="0.1" byte_order="LittleEndian" header_type="UInt32" compressor="vtkZLibDataCompressor">
  <UnstructuredGrid>
    <Piece NumberOfPoints="466" NumberOfCells="256">
      <PointData>
        <DataArray type="Int32" Name="libmesh_node_id" format="ascii" RangeMin="234" RangeMax="2986">
          346 747 748 749 752 757
          758 759 760 762 764 765
          767 768 1020 1021 1024 1025
          1064 1065 1066 1067 1068 1069
          1070 1071 1075 1076 1320 1321
          1322 1323 1324 1329 1330 1331
          1339 1340 1341 1345 1346 1347
          1348 1349 1350 1351 1352 1353
          1354 1355 1356 1357 1358 1359
          1360 1361 1362 1366 1367 1369
          1370 1371 1372 1373 1374 1375
          1376 1377 1378 1381 1383 1384
          1387 1389 1390 1392 1393 1394
          1395 1396 1397 1398 1399 1403
          1404 1405 1406 1407 1408 1409
          1774 1775 1776 1777 1778 1779
          1780 1781 1782 1783 1784 1785
          1786 1787 1788 1789 1790 1829
          1830 1831 1832 1833 1834 1835
          1836 1837 1838 1839 1840 1841
          1842 1843 1844 1845 2326 2327
          2328 2329 2330 2331 2332 2333
          2334 2335 2336 2337 2338 2339
          2340 2341 2342 2343 2344 2345
          2346 2347 2348 2349 2350 2351
          2352 2353 2354 2355 2356 2357
          2358 2359 2360 2361 2362 2363
          2364 2365 2366 2367 2368 2369
          2370 2371 2372 2373 2374 2375
          2376 2377 2378 2379 2380 2381
          2382 2383 2384 2385 2386 2387
          2388 2389 2390 2391 2392 2393
          2394 2395 2396 2397 2398 2399
          2400 2401 2402 2403 2404 2405
          2406 2407 2408 2409 2410 2411
          2412 2413 2414 2415 2416 2417
          2418 2419 2420 2421 2422 2423
          2424 2425 2426 2427 2428 2429
          2430 2431 2432 2433 2434 2435
          2436 2437 2438 2439 2440 2441
          2442 2443 2444 2445 2446 2447
          2448 2449 2450 2451 2452 2454
          2455 2456 2457 2458 2459 2460
          2461 2462 2463 2464 2465 2466
          2467 2468 2469 2470 2471 2472
          2474 2475 2476 2477 2478 2479
          2480 2481 2482 2483 2484 2495
          2496 2497 2498 2499 2500 2501
          2509 2510 2511 2512 2513 2514
          2515 2516 2517 2518 2519 2520
          2521 2522 2523 2524 2526 2527
          2528 2529 2533 2534 2535 2537
          2538 2539 2540 2541 2542 2543
          2547 2548 2549 2550 2551 2552
          2553 2554 2555 2556 2557 2558
          2559 2560 2561 2562 2563 2564
          2565 2566 2567 2568 2569 2570
          2581 2582 2583 2584 2585 2586
          2587 480 243 484 481 482
          485 486 483 461 462 234
          347 336 489 488 350 246
          353 502 500 354 355 503
          501 743 744 745 746 750
          751 753 348 755 754 349
          756 1015 1013 1016 1014 793
          791 1022 766 1023 1019 1026
          801 805 803 1072 1073 1074
          1077 245 761 1363 1364 1365
          1368 763 1379 1380 1334 1382
          1400 1343 1402 1556 1549 770
          1558 1560 1412 1791 1795 1793
          2530 2525 2531 2532 1401 2544
          2536 2545 2546 2571 2572 2573
          1410 2588 2589 2590 2819 2826
          2827 2820 2828 2829 2830 2821
          2831 2839 2836 2840 2841 2837
          2842 2878 2879 2882 2898 2900
          2949 2946 2950 2986
        </DataArray>
        <DataArray type="Float64" Name="bounds" format="ascii" RangeMin="0" RangeMax="0">
          0 0 0 0 0 0
          0 0 0 0 0 0
          0 0 0 0 0 0
          0 0 0 0 0 0
          0 0 0 0 0 0
          0 0 0 0 0 0
          0 0 0 0 0 0
          0 0 0 0 0 0
          0 0 0 0 0 0
          0 0 0 0 0 0
          0 0 0 0 0 0
          0 0 0 0 0 0
          0 0 0 0 0 0
          0 0 0 0 0 0
          0 0 0 0 0 0
          0 0 0 0 0 0
          0 0 0 0 0 0
          0 0 0 0 0 0
          0 0 0 0 0 0
          0 0 0 0 0 0
          0 0 0 0 0 0
          0 0 0 0 0 0
          0 0 0 0 0 0
          0 0 0 0 0 0
          0 0 0 0 0 0
          0 0 0 0 0 0
          0 0 0 0 0 0
          0 0 0 0 0 0
          0 0 0 0 0 0
          0 0 0 0 0 0
          0 0 0 0 0 0
          0 0 0 0 0 0
          0 0 0 0 0 0
          0 0 0 0 0 0
          0 0 0 0 0 0
          0 0 0 0 0 0
          0 0 0 0 0 0
          0 0 0 0 0 0
          0 0 0 0 0 0
          0 0 0 0 0 0
          0 0 0 0 0 0
          0 0 0 0 0 0
          0 0 0 0 0 0
          0 0 0 0 0 0
          0 0 0 0 0 0
          0 0 0 0 0 0
          0 0 0 0 0 0
          0 0 0 0 0 0
          0 0 0 0 0 0
          0 0 0 0 0 0
          0 0 0 0 0 0
          0 0 0 0 0 0
          0 0 0 0 0 0
          0 0 0 0 0 0
          0 0 0 0 0 0
          0 0 0 0 0 0
          0 0 0 0 0 0
          0 0 0 0 0 0
          0 0 0 0 0 0
          0 0 0 0 0 0
          0 0 0 0 0 0
          0 0 0 0 0 0
          0 0 0 0 0 0
          0 0 0 0 0 0
          0 0 0 0 0 0
          0 0 0 0 0 0
          0 0 0 0 0 0
          0 0 0 0 0 0
          0 0 0 0 0 0
          0 0 0 0 0 0
          0 0 0 0 0 0
          0 0 0 0 0 0
          0 0 0 0 0 0
          0 0 0 0 0 0
          0 0 0 0 0 0
          0 0 0 0 0 0
          0 0 0 0 0 0
          0 0 0 0
        </DataArray>
        <DataArray type="Float64" Name="gradient_error" format="ascii" RangeMin="2.8670466322614165e-11" RangeMax="3.65293592521684e-7">
          8.336883698002974e-9 6.7433577712521595e-9 1.1526501861359306e-7 8.118560758911876e-8 2.8469286123974978e-8 5.111051024520932e-10
          4.53055716065295e-10 5.017208799669984e-10 5.438402277831488e-10 1.0648699219964633e-10 9.413577459008153e-10 1.201695391118647e-9
          8.905536158092395e-9 3.0451177392243964e-9 1.265766494471238e-9 1.0665303488120642e-9 4.5533891954827455e-10 9.675510411155907e-10
          5.957456042324811e-10 1.0205648058798754e-9 7.996150665466009e-10 5.786653272133264e-10 4.93518023111816e-10 3.928472637632455e-10
          6.609926969032949e-10 5.321058144249244e-10 2.9217650441467507e-10 4.0321893194655385e-10 8.914690159989869e-10 1.6256446128921676e-9
          1.6495648865561327e-9 1.6404928672077904e-9 1.4994759385875582e-8 4.424078371037336e-8 3.7242447457789574e-8 2.3562376343645512e-8
          5.502037096851778e-9 1.3085645378618796e-8 5.5086009184114515e-9 4.322783247283396e-10 5.701400084458805e-10 9.583178975805892e-10
          9.708685428160957e-10 2.1037567166228458e-10 1.653297369506498e-10 2.5806787362217173e-10 7.336777884994656e-10 1.1126362567420442e-9
          4.779605230714786e-10 9.542300372942216e-9 7.968125231121197e-9 4.88287167013669e-10 5.264279235123227e-9 1.4072417995019071e-10
          1.2899975666857662e-10 9.576456302728774e-11 2.150261417582266e-10 1.141279405562249e-10 2.814422247785729e-10 1.9427233757302982e-10
          2.694674668390872e-10 1.2019986655552036e-10 2.846484344938152e-10 2.4216322756082513e-8 2.0286623874550484e-8 2.204031459213229e-9
          1.735264583967092e-9 1.2732821686532572e-8 9.161451867578968e-10 6.733225005710321e-9 1.0275301508160088e-9 7.836545340153517e-10
          3.782298413221802e-10 4.8300668296053656e-9 3.5187984663732923e-9 1.4275476988781003e-9 3.4027514528681223e-9 7.2169660869422205e-9
          8.35058264832748e-10 7.254217993297601e-10 2.159557640939833e-9 3.4283262038747815e-9 8.809758421608911e-10 2.876228886554416e-10
          2.4587190938024524e-10 1.5581776869489043e-10 1.4347941123017558e-10 3.1854075391374453e-10 3.207712863687906e-10 1.724735286749639e-10
          1.0119173487529685e-9 1.3442564847727801e-9 1.0810123953500775e-9 6.747390551864646e-10 1.0391403381140444e-9 2.380517169013141e-10
          5.059973668412985e-10 5.901242255374193e-10 8.304280614712779e-10 4.0101833230389517e-10 1.0438147192026946e-10 1.9589230017283917e-10
          7.022027165787135e-11 1.1381405811839012e-10 9.778239611505171e-11 1.590586535033027e-10 9.592436999129324e-11 1.1168442078225885e-9
          1.3960262082001349e-9 1.0654998547297183e-9 8.584044677323073e-10 1.1125518507065878e-9 4.1754086411769e-10 5.927996885539259e-10
          6.16868955455513e-10 7.555728176191811e-10 3.248790120672342e-10 1.7312349359091473e-10 2.5236741006083884e-10 1.1112998658847561e-10
          1.4821293622686642e-10 1.1416897430542165e-10 1.5420234309968859e-10 1.0429244257355247e-10 3.7288922321926507e-10 4.682866233448453e-10
          4.49335888030177e-10 4.055945551298392e-10 1.0721797742417505e-9 2.824921514007279e-10 2.7477820919898285e-10 3.795401455648338e-10
          3.6377635147322706e-10 1.4021770335869072e-10 2.2960106093809e-10 2.1910801514578555e-10 2.516779356828646e-10 3.2509638155837834e-10
          2.1359546421102175e-10 8.777797810295156e-10 8.329190574375791e-10 4.75321454308934e-10 7.302892788476167e-10 2.861789926507718e-10
          3.425234221825602e-10 3.0424288682095055e-10 7.747208055552681e-10 2.2020044898527264e-10 2.7570676160124776e-10 1.5422190531977352e-10
          2.0889010101993535e-10 2.04109293602054e-10 2.492333174673591e-10 1.9422374811376768e-10 5.995283724693633e-10 3.959408696308184e-10
          5.369102585251625e-10 7.95009655070906e-11 8.589213044645805e-11 1.3593155041965785e-10 1.308070201887257e-10 5.493416387878009e-11
          8.393125686986723e-11 8.159876624657725e-11 9.228329538582551e-11 1.2568248995779358e-10 7.926627562328725e-11 3.0932750317126983e-10
          2.906051435416118e-10 1.8240959910472456e-10 2.856463819853414e-10 3.321815165962445e-11 3.526137236296956e-11 5.151558080821118e-11
          5.010517704806863e-11 2.8670466322614165e-11 3.862329462464599e-11 3.8627646605140163e-11 3.730459306631467e-11 4.86947732879261e-11
          3.863199858563434e-11 1.2272180454338833e-10 1.1484166997095986e-10 8.56603067649975e-11 1.1196136882261082e-10 2.0992582962294323e-9
          1.976692344648409e-9 1.723469136458425e-9 3.912990965699272e-9 1.7000966320770642e-9 1.6064997629479447e-9 1.0641366183830694e-9
          1.0097630922516317e-9 1.3956327726399184e-9 8.670125721747553e-10 3.4027917429414798e-9 3.188141682649909e-9 2.0732905686819673e-9
          2.7027830359791685e-9 1.4234154704696013e-9 1.09865051585438e-9 2.6356111543050323e-9 1.1354599678931402e-9 6.811078865874034e-10
          8.613592873262017e-10 4.963521540003126e-10 2.1111990329911557e-9 1.3127218096797194e-9 1.5121310105859975e-9 6.9888064756588424e-9
          6.519161798272465e-9 5.55083701072182e-9 1.256650375018803e-8 6.124727211625204e-9 5.72288460872827e-9 4.54417157200913e-9
          4.2472589468860204e-9 4.80794375163816e-9 3.479643058464272e-9 1.18840147875785e-8 1.1015204961467646e-8 8.309027934024985e-9
          9.066107157185108e-9 4.3591682380271366e-9 3.0118465667956664e-9 7.974227641230367e-9 3.6790204786322416e-9 2.5352022628026304e-9
          2.5148876404389926e-9 1.6829722888239749e-9 6.766175850718903e-9 4.776962181685568e-9 4.44629403145203e-9 6.845390800014394e-10
          6.468409399815928e-10 4.482084451703339e-10 4.216551435134168e-10 5.475646168805468e-10 3.5284502321491843e-10 1.5118494117070871e-9
          1.4160535734759303e-9 9.591839152094849e-10 1.1686179220147052e-9 2.9212999769988524e-10 2.7379988679529474e-10 1.8616789049460197e-10
          1.741162596666115e-10 2.2714986640175746e-10 1.4394377137055883e-10 6.819710791576309e-10 6.35234416286144e-10 5.155970943881792e-10
          2.734455642902146e-10 4.202070793926307e-10 1.6820579462747057e-10 2.66550239583534e-10 1.9831325894592329e-10 2.982754664964229e-10
          1.854879836999921e-10 8.631409873121876e-10 5.696625531635926e-10 5.853310896128242e-10 1.0632142037080432e-10 1.6995529609033453e-10
          6.790160885941945e-11 1.0681498753836451e-10 7.669967416037446e-11 1.1652981829545123e-10 8.189451310696238e-11 3.713210690201049e-10
          2.430314256621321e-10 3.274409648369923e-9 3.0470884216021794e-9 2.2962058977310376e-9 2.1292517519008846e-9 2.4594023168898625e-9
          1.7006144542070515e-9 6.674488745991964e-9 6.20063984080727e-9 4.467274367258489e-9 4.947425037639057e-9 1.7460577114725353e-9
          1.1871827740720428e-9 1.1248552034597906e-9 7.487864788765668e-10 3.4088147885675874e-9 2.376314921612002e-9 2.0981978168997344e-9
          6.365309756068435e-10 7.994835225072061e-10 6.556850743953904e-10 1.3203398133750342e-9 4.812004585689702e-10 6.226202725670605e-10
          2.48575173527406e-10 3.4583027612321384e-10 4.0474318374072455e-10 5.15079254806986e-10 2.8253643919129255e-10 1.037711943968575e-9
          6.055492995057526e-10 7.76017968042197e-10 2.0188134269333654e-9 1.3380840534643164e-9 1.648706063792325e-9 1.0511785386032828e-9
          1.0639906408340831e-9 6.355938683291315e-10 6.768158833317342e-10 8.254552447440047e-10 6.548556783314987e-10 5.307843221319694e-10
          6.482594467008065e-10 2.93890408179113e-10 3.6970209815611223e-10 4.1648570643228243e-10 4.993699182596103e-10 2.660936896522071e-10
          1.3957712329977258e-10 1.9953144720946216e-10 8.543978227854348e-11 1.2268673435452326e-10 1.1624527915601108e-10 1.5693968641199242e-10
          9.69097759027931e-11 3.7198588169781584e-10 2.348233232268394e-10 2.5787386871762643e-10 5.314297772111325e-11 7.53134561718146e-11
          4.328023196096958e-11 5.841280843399402e-11 4.356841219231648e-11 5.864791102058523e-11 4.6756199895565674e-11 1.4816472726508582e-10
          1.0771193167903845e-10 9.975511322542361e-11 6.798952340611245e-10 4.41865640324586e-10 3.9281656999846756e-10 2.484008975853677e-10
          1.67122321496795e-10 2.1938798267098727e-10 1.0350389479404943e-10 1.367770834016781e-10 1.2584993686015407e-10 1.5630087054748863e-10
          9.834494032937376e-11 5.231598929124393e-10 2.6565223494967566e-10 1.6272607862746296e-10 6.440926042019347e-10 3.7138496048783165e-9
          1.283173169625895e-10 3.281489644726657e-10 2.359046129533566e-9 1.3566590407774146e-8 7.75361021051092e-9 3.972312189019332e-8
          5.948183556457387e-9 6.224739928507963e-8 5.457937882968896e-10 1.087545365024294e-9 4.069218784557948e-10 1.0823170418781083e-9
          2.502882330156672e-9 4.2553609820000325e-10 2.852409110421052e-9 5.391253720547767e-9 6.709175537163454e-10 4.984467912793353e-10
          3.338735154101271e-9 2.8570504683238453e-8 2.723552679177554e-8 2.517114241283997e-7 1.8508560471318164e-7 2.0563581953277527e-8
          7.040220603909621e-8 3.65293592521684e-7 2.204646554034913e-7 1.292303099932032e-7 2.4023795935463993e-7 4.213615373630627e-8
          9.891301660729114e-8 3.873049845066974e-9 1.0437622844140286e-8 5.8193527746094444e-9 1.6153706480144146e-8 1.5954075942182652e-8
          4.2500183559006255e-8 2.844236959042891e-10 2.4983955439887774e-10 2.8224445246277417e-10 3.140139226655734e-9 2.585485217150243e-10
          1.2202542982712532e-9 1.8859401456853166e-9 3.6603451449477734e-10 1.2595158085328198e-10 1.9089034877469494e-10 1.7099338221319044e-10
          1.5109641565168595e-10 1.4829332206462372e-10 1.6303940071774927e-10 5.992572703347497e-11 7.418235367899488e-11 1.0467769506492169e-10
          1.334687889183764e-10 1.5608051729189105e-10 6.830165882828328e-8 5.644547733839219e-8 1.322847074561786e-7 3.234090629958376e-8
          1.4123511516649524e-8 3.3211177608602105e-8 5.6752910012241384e-9 2.2657374639883774e-9 2.965222410599212e-9 1.022180959209934e-9
          1.104223690581325e-9 1.4362424314030063e-9 4.10884022456512e-10 4.5831724000235264e-10 2.463349228790866e-10 2.2958673957743053e-10
          2.7517211438377787e-9 3.335090298397356e-9 1.806128522196022e-9 1.6662340846369405e-9 1.0308187806272537e-9 9.471208806173939e-10
          1.1922156412909777e-9 5.650524607587981e-10 7.191603391567927e-10 1.2033547439175965e-9 7.987010697573514e-10 6.618038020951113e-10
          4.2784536458855174e-10 3.5052619539702703e-10 2.2266882990848614e-10 2.3732907811919414e-10 2.2077732130025554e-8 1.9765753558440134e-8
          1.8405005739134036e-8 2.0361112590837002e-8 1.5717805585414284e-8 1.4769168039453607e-8 1.525608469087389e-8 1.6950114481803434e-8
          1.2059696193911004e-8 1.1401223577051647e-8 1.3112161760854532e-8 8.469211556547518e-9 7.379413822075198e-9 8.638544619514042e-9
          5.244611893436092e-9 1.235012060756631e-8 1.152717031871288e-8 9.222938426571502e-9 6.257938730896778e-9 3.7198728336419653e-9
          4.413219923745478e-9 5.2819998644013945e-9 2.9856970540260498e-9 2.0389919547556007e-9
        </DataArray>
        <DataArray type="Float64" Name="gradient_matprop_error" format="ascii" RangeMin="0" RangeMax="0">
          0 0 0 0 0 0
          0 0 0 0 0 0
          0 0 0 0 0 0
          0 0 0 0 0 0
          0 0 0 0 0 0
          0 0 0 0 0 0
          0 0 0 0 0 0
          0 0 0 0 0 0
          0 0 0 0 0 0
          0 0 0 0 0 0
          0 0 0 0 0 0
          0 0 0 0 0 0
          0 0 0 0 0 0
          0 0 0 0 0 0
          0 0 0 0 0 0
          0 0 0 0 0 0
          0 0 0 0 0 0
          0 0 0 0 0 0
          0 0 0 0 0 0
          0 0 0 0 0 0
          0 0 0 0 0 0
          0 0 0 0 0 0
          0 0 0 0 0 0
          0 0 0 0 0 0
          0 0 0 0 0 0
          0 0 0 0 0 0
          0 0 0 0 0 0
          0 0 0 0 0 0
          0 0 0 0 0 0
          0 0 0 0 0 0
          0 0 0 0 0 0
          0 0 0 0 0 0
          0 0 0 0 0 0
          0 0 0 0 0 0
          0 0 0 0 0 0
          0 0 0 0 0 0
          0 0 0 0 0 0
          0 0 0 0 0 0
          0 0 0 0 0 0
          0 0 0 0 0 0
          0 0 0 0 0 0
          0 0 0 0 0 0
          0 0 0 0 0 0
          0 0 0 0 0 0
          0 0 0 0 0 0
          0 0 0 0 0 0
          0 0 0 0 0 0
          0 0 0 0 0 0
          0 0 0 0 0 0
          0 0 0 0 0 0
          0 0 0 0 0 0
          0 0 0 0 0 0
          0 0 0 0 0 0
          0 0 0 0 0 0
          0 0 0 0 0 0
          0 0 0 0 0 0
          0 0 0 0 0 0
          0 0 0 0 0 0
          0 0 0 0 0 0
          0 0 0 0 0 0
          0 0 0 0 0 0
          0 0 0 0 0 0
          0 0 0 0 0 0
          0 0 0 0 0 0
          0 0 0 0 0 0
          0 0 0 0 0 0
          0 0 0 0 0 0
          0 0 0 0 0 0
          0 0 0 0 0 0
          0 0 0 0 0 0
          0 0 0 0 0 0
          0 0 0 0 0 0
          0 0 0 0 0 0
          0 0 0 0 0 0
          0 0 0 0 0 0
          0 0 0 0 0 0
          0 0 0 0 0 0
          0 0 0 0
        </DataArray>
        <DataArray type="Float64" Name="initial_marker" format="ascii" RangeMin="0" RangeMax="2">
          0.5 0.3333333333333333 2 1.5 0.25 0
          0 2 0.5 1 0 0
          2 2 0 0 0 0
          0 0 0 0 0 0
          0 0 0 0 0 1
          1 0.5 2 2 2 2
          0.5 1.5 0.5 0 0 0.5
          0.5 0 0 0 0 0.25
          0 2 2 1.75 1 0
          0 0 0 0 0 2
          1.25 1 0.5 2 2 2
          2 2 2 2 2 2
          2 2 2 2 0.25 1.25
          0 0.75 0 0.25 0 0
          0.5 0 0.25 0 0 0
          0 0 0 0 0 0
          0 0 0 0 0 0
          0 0 0 0 0 0
          0 0 0 0 0 0
          0 0 0 0 0 0
          0 0 0 0 0 1
          1 1 2 0 0 1
          1 0 1 1 0 1
          1 2 2 2 2 0
          0.5 0 1.5 0 0.5 0
          0.5 0 0 0 1.5 1.6666666666666667
          0.6666666666666666 0 0 1 1 0
          1 0.75 0 1 0.5 2
          2 1.75 2 0 0 0.5
          0.25 0 0 0 0 0
          0 1.5 1.25 1.3333333333333333 1.3333333333333333 2
          2 2 2 2 2 2
          2 2 2 2 2 2
          2 2 1.5 2 2 2
          1.5 1.5 2 2 2 2
          2 2 2 2 2 2
          2 2 2 2 2 2
          2 2 2 2 2 2
          2 2 2 2 2 2
          2 2 2 2 2 2
          2 2 2 2 2 2
          2 2 2 2 2 2
          2 2 2 2 1 1.5
          1.5 2 2 2 1.5 1.75
          1 1.5 0.5 1.25 1 2
          2 2 2 2 2 2
          2 2 2 2 2 2
          2 2 2 2 2 2
          0 1 1 2 0 1
          0 0.75 0 1 0.5 2
          1.75 1.3333333333333333 2 1.5 2 2
          1.5 1.5 0 0.5 0 0
          0.5 0 0.5 0 0 0
          0 0.5 0 0.5 0 0
          0 1.5 1.5 0.6666666666666666 0 0.5
          0 0.5 0 0 0 1.5
          1.3333333333333333 0.6666666666666666 2 2 1.5 1.5
          0 0.5 0 0.5 0 0
          0 0 0 0 0 0
          0 0 0 0 0 1
          0 0 0 0 0 0
          0 0 0 0 0 0
          0 2 1 2 1.5 0
          0.5 2 2 2 2 1.25
          1.5 0 0 0 0 0.25
          0.5 0 0 0 0 0
          0 0 0 0 0 0
          0 0 0 0 0 0
          0 0 2 2 2 2
          2 2 0.75 0 0 0.25
          0 0 0 0 0 0
          2 2 2 2 2 1.5
          1.5 1.25 1 2 2 2
          2 1 1 0 2 2
          2 2 2 2 2 2
          2 2 2 2 2 2
          2 2 2 2 2 2
          2 2 2 2
        </DataArray>
        <DataArray type="Float64" Name="markers_norefine" format="ascii" RangeMin="0" RangeMax="0">
          0 0 0 0 0 0
          0 0 0 0 0 0
          0 0 0 0 0 0
          0 0 0 0 0 0
          0 0 0 0 0 0
          0 0 0 0 0 0
          0 0 0 0 0 0
          0 0 0 0 0 0
          0 0 0 0 0 0
          0 0 0 0 0 0
          0 0 0 0 0 0
          0 0 0 0 0 0
          0 0 0 0 0 0
          0 0 0 0 0 0
          0 0 0 0 0 0
          0 0 0 0 0 0
          0 0 0 0 0 0
          0 0 0 0 0 0
          0 0 0 0 0 0
          0 0 0 0 0 0
          0 0 0 0 0 0
          0 0 0 0 0 0
          0 0 0 0 0 0
          0 0 0 0 0 0
          0 0 0 0 0 0
          0 0 0 0 0 0
          0 0 0 0 0 0
          0 0 0 0 0 0
          0 0 0 0 0 0
          0 0 0 0 0 0
          0 0 0 0 0 0
          0 0 0 0 0 0
          0 0 0 0 0 0
          0 0 0 0 0 0
          0 0 0 0 0 0
          0 0 0 0 0 0
          0 0 0 0 0 0
          0 0 0 0 0 0
          0 0 0 0 0 0
          0 0 0 0 0 0
          0 0 0 0 0 0
          0 0 0 0 0 0
          0 0 0 0 0 0
          0 0 0 0 0 0
          0 0 0 0 0 0
          0 0 0 0 0 0
          0 0 0 0 0 0
          0 0 0 0 0 0
          0 0 0 0 0 0
          0 0 0 0 0 0
          0 0 0 0 0 0
          0 0 0 0 0 0
          0 0 0 0 0 0
          0 0 0 0 0 0
          0 0 0 0 0 0
          0 0 0 0 0 0
          0 0 0 0 0 0
          0 0 0 0 0 0
          0 0 0 0 0 0
          0 0 0 0 0 0
          0 0 0 0 0 0
          0 0 0 0 0 0
          0 0 0 0 0 0
          0 0 0 0 0 0
          0 0 0 0 0 0
          0 0 0 0 0 0
          0 0 0 0 0 0
          0 0 0 0 0 0
          0 0 0 0 0 0
          0 0 0 0 0 0
          0 0 0 0 0 0
          0 0 0 0 0 0
          0 0 0 0 0 0
          0 0 0 0 0 0
          0 0 0 0 0 0
          0 0 0 0 0 0
          0 0 0 0 0 0
          0 0 0 0
        </DataArray>
        <DataArray type="Float64" Name="markers_mustrefine" format="ascii" RangeMin="0" RangeMax="2">
          0.5 0.3333333333333333 2 1.5 0.25 0
          0 2 0.5 1 0 0
          2 2 0 0 0 0
          0 0 0 0 0 0
          0 0 0 0 0 1
          1 0.5 2 2 2 2
          0.5 1.5 0.5 0 0 0.5
          0.5 0 0 0 0 0.25
          0 2 2 1.75 1 0
          0 0 0 0 0 2
          1.25 1 0.5 2 2 2
          2 2 2 2 2 2
          2 2 2 2 0.25 1.25
          0 0.75 0 0.25 0 0
          0.5 0 0.25 0 0 0
          0 0 0 0 0 0
          0 0 0 0 0 0
          0 0 0 0 0 0
          0 0 0 0 0 0
          0 0 0 0 0 0
          0 0 0 0 0 1
          1 1 2 0 0 1
          1 0 1 1 0 1
          1 2 2 2 2 0
          0.5 0 1.5 0 0.5 0
          0.5 0 0 0 1.5 1.6666666666666667
          0.6666666666666666 0 0 1 1 0
          1 0.75 0 1 0.5 2
          2 1.75 2 0 0 0.5
          0.25 0 0 0 0 0
          0 1.5 1.25 1.3333333333333333 1.3333333333333333 2
          2 2 2 2 2 2
          2 2 2 2 2 2
          2 2 1.5 2 2 2
          1.5 1.5 2 2 2 2
          2 2 2 2 2 2
          2 2 2 2 2 2
          2 2 2 2 2 2
          2 2 2 2 2 2
          2 2 2 2 2 2
          2 2 2 2 2 2
          2 2 2 2 2 2
          2 2 2 2 1 1.5
          1.5 2 2 2 1.5 1.75
          1 1.5 0.5 1.25 1 2
          2 2 2 2 2 2
          2 2 2 2 2 2
          2 2 2 2 2 2
          0 1 1 2 0 1
          0 0.75 0 1 0.5 2
          1.75 1.3333333333333333 2 1.5 2 2
          1.5 1.5 0 0.5 0 0
          0.5 0 0.5 0 0 0
          0 0.5 0 0.5 0 0
          0 1.5 1.5 0.6666666666666666 0 0.5
          0 0.5 0 0 0 1.5
          1.3333333333333333 0.6666666666666666 2 2 1.5 1.5
          0 0.5 0 0.5 0 0
          0 0 0 0 0 0
          0 0 0 0 0 1
          0 0 0 0 0 0
          0 0 0 0 0 0
          0 2 1 2 1.5 0
          0.5 2 2 2 2 1.25
          1.5 0 0 0 0 0.25
          0.5 0 0 0 0 0
          0 0 0 0 0 0
          0 0 0 0 0 0
          0 0 2 2 2 2
          2 2 0.75 0 0 0.25
          0 0 0 0 0 0
          2 2 2 2 2 1.5
          1.5 1.25 1 2 2 2
          2 1 1 0 2 2
          2 2 2 2 2 2
          2 2 2 2 2 2
          2 2 2 2 2 2
          2 2 2 2
        </DataArray>
        <DataArray type="Float64" Name="gradient_marker" format="ascii" RangeMin="0" RangeMax="1">
          0.5 0.3333333333333333 0.25 0.25 0.25 1
          1 1 1 1 1 1
          1 1 1 1 1 1
          1 1 1 1 1 1
          1 1 1 1 0 0
          0 0 0 0 0 0
          0 0 0 0.5 0.5 0.5
          0.5 1 1 1 0.5 0.5
          1 0.5 0.5 1 0.5 1
          1 1 1 1 1 1
          1 1 1 0.5 0.5 1
          1 0.5 1 1 1 1
          1 1 1 1 0.5 0.5
          1 1 0.5 0.5 1 1
          1 1 1 1 1 1
          0 0 0 0.5 0.5 1
          1 0.5 0.5 1 1 1
          1 1 1 1 1 0
          0 0 0.5 0.5 1 1
          0.5 0.5 1 1 1 1
          1 1 1 1 1 1
          1 1 1 1 1 1
          1 1 1 1 1 1
          1 1 1 1 1 1
          1 1 1 1 1 1
          1 1 1 1 1 1
          1 1 1 1 1 1
          1 1 1 1 1 1
          1 1 1 1 1 1
          1 1 1 1 1 1
          1 1 1 1 1 1
          1 1 1 1 1 1
          1 1 1 1 1 1
          1 1 1 1 1 1
          1 1 1 1 1 1
          1 1 1 1 1 1
          1 1 1 1 1 1
          1 1 1 1 1 1
          1 1 1 1 1 1
          1 1 1 1 1 1
          1 1 1 1 1 1
          1 1 1 1 1 1
          1 1 1 1 1 1
          1 1 1 1 1 1
          1 1 1 1 1 1
          1 1 1 1 1 1
          1 1 1 1 1 1
          1 1 1 1 1 1
          1 1 1 1 1 1
          1 1 1 1 1 1
          1 1 1 1 1 1
          1 1 1 1 1 1
          1 1 1 1 1 1
          1 1 1 1 1 1
          1 1 1 1 1 1
          1 1 1 1 1 1
          1 1 1 1 1 1
          1 1 1 1 1 1
          1 1 1 1 1 1
          1 1 1 1 1 0.5
          0.625 0.625 1 1 1 1
          0.8333333333333334 1 1 0.75 1 1
          1 0 0 0.5 0.5 0
          0.25 1 0.75 0.375 0.75 0.125
          0.375 0.5 0 0.375 0 0.25
          0.125 1 1 1 0.5 1
          1 1 1 1 1 1
          1 1 1 1 1 1
          1 1 0.75 0.625 0.5 0.5
          0.5 0 0.5 0.5 0 1
          1 0.5 1 1 1 1
          1 1 1 1 1 1
          1 1 1 1 1 1
          1 1 1 1 1 1
          1 1 1 1 1 1
          1 1 1 1 1 1
          1 1 1 1 1 1
          1 1 1 1
        </DataArray>
        <DataArray type="Float64" Name="gradient_matprop_marker" format="ascii" RangeMin="0" RangeMax="0">
          0 0 0 0 0 0
          0 0 0 0 0 0
          0 0 0 0 0 0
          0 0 0 0 0 0
          0 0 0 0 0 0
          0 0 0 0 0 0
          0 0 0 0 0 0
          0 0 0 0 0 0
          0 0 0 0 0 0
          0 0 0 0 0 0
          0 0 0 0 0 0
          0 0 0 0 0 0
          0 0 0 0 0 0
          0 0 0 0 0 0
          0 0 0 0 0 0
          0 0 0 0 0 0
          0 0 0 0 0 0
          0 0 0 0 0 0
          0 0 0 0 0 0
          0 0 0 0 0 0
          0 0 0 0 0 0
          0 0 0 0 0 0
          0 0 0 0 0 0
          0 0 0 0 0 0
          0 0 0 0 0 0
          0 0 0 0 0 0
          0 0 0 0 0 0
          0 0 0 0 0 0
          0 0 0 0 0 0
          0 0 0 0 0 0
          0 0 0 0 0 0
          0 0 0 0 0 0
          0 0 0 0 0 0
          0 0 0 0 0 0
          0 0 0 0 0 0
          0 0 0 0 0 0
          0 0 0 0 0 0
          0 0 0 0 0 0
          0 0 0 0 0 0
          0 0 0 0 0 0
          0 0 0 0 0 0
          0 0 0 0 0 0
          0 0 0 0 0 0
          0 0 0 0 0 0
          0 0 0 0 0 0
          0 0 0 0 0 0
          0 0 0 0 0 0
          0 0 0 0 0 0
          0 0 0 0 0 0
          0 0 0 0 0 0
          0 0 0 0 0 0
          0 0 0 0 0 0
          0 0 0 0 0 0
          0 0 0 0 0 0
          0 0 0 0 0 0
          0 0 0 0 0 0
          0 0 0 0 0 0
          0 0 0 0 0 0
          0 0 0 0 0 0
          0 0 0 0 0 0
          0 0 0 0 0 0
          0 0 0 0 0 0
          0 0 0 0 0 0
          0 0 0 0 0 0
          0 0 0 0 0 0
          0 0 0 0 0 0
          0 0 0 0 0 0
          0 0 0 0 0 0
          0 0 0 0 0 0
          0 0 0 0 0 0
          0 0 0 0 0 0
          0 0 0 0 0 0
          0 0 0 0 0 0
          0 0 0 0 0 0
          0 0 0 0 0 0
          0 0 0 0 0 0
          0 0 0 0 0 0
          0 0 0 0
        </DataArray>
        <DataArray type="Float64" Name="combo" format="ascii" RangeMin="0" RangeMax="1">
          0.5 0.3333333333333333 0.25 0.25 0.25 1
          1 1 1 1 1 1
          1 1 1 1 1 1
          1 1 1 1 1 1
          1 1 1 1 0 0
          0 0 0 0 0 0
          0 0 0 0.5 0.5 0.5
          0.5 1 1 1 0.5 0.5
          1 0.5 0.5 1 0.5 1
          1 1 1 1 1 1
          1 1 1 0.5 0.5 1
          1 0.5 1 1 1 1
          1 1 1 1 0.5 0.5
          1 1 0.5 0.5 1 1
          1 1 1 1 1 1
          0 0 0 0.5 0.5 1
          1 0.5 0.5 1 1 1
          1 1 1 1 1 0
          0 0 0.5 0.5 1 1
          0.5 0.5 1 1 1 1
          1 1 1 1 1 1
          1 1 1 1 1 1
          1 1 1 1 1 1
          1 1 1 1 1 1
          1 1 1 1 1 1
          1 1 1 1 1 1
          1 1 1 1 1 1
          1 1 1 1 1 1
          1 1 1 1 1 1
          1 1 1 1 1 1
          1 1 1 1 1 1
          1 1 1 1 1 1
          1 1 1 1 1 1
          1 1 1 1 1 1
          1 1 1 1 1 1
          1 1 1 1 1 1
          1 1 1 1 1 1
          1 1 1 1 1 1
          1 1 1 1 1 1
          1 1 1 1 1 1
          1 1 1 1 1 1
          1 1 1 1 1 1
          1 1 1 1 1 1
          1 1 1 1 1 1
          1 1 1 1 1 1
          1 1 1 1 1 1
          1 1 1 1 1 1
          1 1 1 1 1 1
          1 1 1 1 1 1
          1 1 1 1 1 1
          1 1 1 1 1 1
          1 1 1 1 1 1
          1 1 1 1 1 1
          1 1 1 1 1 1
          1 1 1 1 1 1
          1 1 1 1 1 1
          1 1 1 1 1 1
          1 1 1 1 1 1
          1 1 1 1 1 1
          1 1 1 1 1 0.5
          0.625 0.625 1 1 1 1
          0.8333333333333334 1 1 0.75 1 1
          1 0 0 0.5 0.5 0
          0.25 1 0.75 0.375 0.75 0.125
          0.375 0.5 0 0.375 0 0.25
          0.125 1 1 1 0.5 1
          1 1 1 1 1 1
          1 1 1 1 1 1
          1 1 0.75 0.625 0.5 0.5