<?xml version="1.0"?>
<VTKFile type="UnstructuredGrid" version="0.1" byte_order="LittleEndian" header_type="UInt32" compressor="vtkZLibDataCompressor">
  <UnstructuredGrid>
    <Piece NumberOfPoints="550" NumberOfCells="253">
      <PointData>
        <DataArray type="Int32" Name="libmesh_node_id" format="ascii" RangeMin="100" RangeMax="2017">
          132 133 146 162 163 164
          165 166 167 168 169 176
          177 178 179 193 195 196
          197 198 199 206 207 208
          209 229 230 231 232 233
          235 236 237 238 239 240
          242 243 244 246 247 248
          249 250 251 252 255 256
          271 272 273 274 275 276
          277 278 279 280 281 282
          283 284 318 319 320 321
          322 323 324 325 326 327
          328 329 330 331 332 333
          335 336 339 340 341 345
          347 353 364 365 366 367
          368 369 372 388 389 390
          391 392 393 394 395 396
          397 398 399 400 401 402
          403 404 405 406 407 408
          410 412 413 414 415 417
          418 420 421 422 423 424
          425 426 427 428 429 430
          431 446 447 448 449 450
          451 452 453 454 455 456
          457 458 459 460 461 462
          463 464 465 466 467 468
          469 470 471 472 473 474
          475 476 477 478 479 480
          481 482 483 484 486 487
          488 489 490 491 492 493
          494 495 496 497 498 499
          500 501 502 503 504 505
          506 507 508 509 524 525
          526 527 528 529 530 531
          532 533 534 535 536 537
          623 624 625 626 627 628
          629 630 631 632 633 634
          635 636 637 638 639 640
          641 642 643 644 645 646
          647 648 649 650 651 652
          653 654 655 656 657 658
          659 660 661 662 663 664
          665 666 667 668 669 670
          671 672 673 674 675 676
          677 678 679 680 684 719
          720 721 722 723 724 725
          726 727 728 729 730 731
          732 839 840 841 844 847
          893 894 895 896 897 898
          899 900 901 902 903 904
          905 906 907 908 973 974
          975 976 977 978 979 980
          981 982 983 984 985 986
          987 988 989 990 991 992
          993 994 995 996 997 998
          999 1000 1001 1002 1003 1004
          1005 1006 1007 1008 1009 1092
          1093 1094 1095 1096 1098 1099
          1100 1101 1102 1103 1104 1105
          1106 1107 1108 1109 1110 1111
          1112 1113 1114 1115 1116 1117
          1118 1119 1120 1123 1124 1125
          1126 1127 1128 1129 1130 1131
          1132 1133 1134 1135 1136 1137
          1138 1139 1140 1141 1142 1143
          1144 1145 1146 1147 1148 1149
          1150 1151 1152 1153 1154 1155
          1760 1761 1762 1763 1764 1765
          1766 1767 1768 1769 1770 1771
          1772 1773 1890 1891 1892 1893
          1894 1895 1896 1897 1898 1899
          1900 1901 1902 1903 1904 1905
          1906 1907 1908 1909 1910 1911
          1912 1913 1914 1915 1916 1917
          1918 1919 1920 1921 1922 1923
          1924 1925 1926 1927 1928 1929
          1930 1932 1933 1934 1935 1936
          1937 1938 1939 1940 1941 1942
          1943 1944 1945 1946 1947 1948
          1949 1950 1951 2010 2011 2016
          2017 100 102 103 101 130
          131 104 105 134 135 116
          115 145 117 147 136 137
          138 139 161 175 148 149
          217 219 223 381 382 383
          387 160 409 411 416 191
          419 205 439 440 441 445
          218 308 593 594 595 598
          309 601 310 615 616 618
          190 621 316 885 313 886
          889 227 891 947 948 952
          955 967 969 971
        </DataArray>
        <DataArray type="Float64" Name="bounds" format="ascii" RangeMin="0" RangeMax="0">
          0 0 0 0 0 0
          0 0 0 0 0 0
          0 0 0 0 0 0
          0 0 0 0 0 0
          0 0 0 0 0 0
          0 0 0 0 0 0
          0 0 0 0 0 0
          0 0 0 0 0 0
          0 0 0 0 0 0
          0 0 0 0 0 0
          0 0 0 0 0 0
          0 0 0 0 0 0
          0 0 0 0 0 0
          0 0 0 0 0 0
          0 0 0 0 0 0
          0 0 0 0 0 0
          0 0 0 0 0 0
          0 0 0 0 0 0
          0 0 0 0 0 0
          0 0 0 0 0 0
          0 0 0 0 0 0
          0 0 0 0 0 0
          0 0 0 0 0 0
          0 0 0 0 0 0
          0 0 0 0 0 0
          0 0 0 0 0 0
          0 0 0 0 0 0
          0 0 0 0 0 0
          0 0 0 0 0 0
          0 0 0 0 0 0
          0 0 0 0 0 0
          0 0 0 0 0 0
          0 0 0 0 0 0
          0 0 0 0 0 0
          0 0 0 0 0 0
          0 0 0 0 0 0
          0 0 0 0 0 0
          0 0 0 0 0 0
          0 0 0 0 0 0
          0 0 0 0 0 0
          0 0 0 0 0 0
          0 0 0 0 0 0
          0 0 0 0 0 0
          0 0 0 0 0 0
          0 0 0 0 0 0
          0 0 0 0 0 0
          0 0 0 0 0 0
          0 0 0 0 0 0
          0 0 0 0 0 0
          0 0 0 0 0 0
          0 0 0 0 0 0
          0 0 0 0 0 0
          0 0 0 0 0 0
          0 0 0 0 0 0
          0 0 0 0 0 0
          0 0 0 0 0 0
          0 0 0 0 0 0
          0 0 0 0 0 0
          0 0 0 0 0 0
          0 0 0 0 0 0
          0 0 0 0 0 0
          0 0 0 0 0 0
          0 0 0 0 0 0
          0 0 0 0 0 0
          0 0 0 0 0 0
          0 0 0 0 0 0
          0 0 0 0 0 0
          0 0 0 0 0 0
          0 0 0 0 0 0
          0 0 0 0 0 0
          0 0 0 0 0 0
          0 0 0 0 0 0
          0 0 0 0 0 0
          0 0 0 0 0 0
          0 0 0 0 0 0
          0 0 0 0 0 0
          0 0 0 0 0 0
          0 0 0 0 0 0
          0 0 0 0 0 0
          0 0 0 0 0 0
          0 0 0 0 0 0
          0 0 0 0 0 0
          0 0 0 0 0 0
          0 0 0 0 0 0
          0 0 0 0 0 0
          0 0 0 0 0 0
          0 0 0 0 0 0
          0 0 0 0 0 0
          0 0 0 0 0 0
          0 0 0 0 0 0
          0 0 0 0 0 0
          0 0 0 0
        </DataArray>
        <DataArray type="Float64" Name="gradient_error" format="ascii" RangeMin="1.999105849309216e-12" RangeMax="7.02816604235249e-7">
          7.407877394706057e-10 1.0453052979318153e-9 1.4543578413380739e-9 1.9239282571475343e-9 3.447937081034998e-9 7.303211729610872e-11
          2.350614379291042e-10 1.0912293451017532e-10 1.0615242044900048e-10 1.321108256169882e-10 1.1808640008896417e-10 1.3189263607424283e-9
          2.59638901112615e-10 1.0430380389975908e-10 1.0406197456094017e-10 2.5973250426138064e-9 6.065270791882706e-11 5.924369200289099e-11
          6.53776505110457e-11 1.0540200658073423e-10 8.846415028276275e-11 4.6025982179532727e-10 4.999431607439994e-11 6.729304414434061e-11
          7.152629398479127e-11 6.553765848474463e-9 8.507715072092922e-9 1.66513108271175e-7 3.169083182877846e-8 3.3656064239376726e-9
          4.884274514125848e-8 1.0000568673543236e-8 8.86651668282887e-9 3.800734474673143e-9 1.879672627363329e-9 9.680793021020548e-8
          5.035408057337013e-9 2.6565223494967566e-10 9.488301367166744e-10 1.0823170418781083e-9 1.276505648951768e-10 3.150942896048409e-11
          1.0664955660544874e-10 1.2673468935343372e-9 1.0307853466205715e-9 1.3533841016844504e-10 4.751515058701668e-11 3.730831946168005e-10
          4.365606090819475e-11 3.987697664223047e-11 2.618415000494363e-11 3.4818384954247665e-11 1.8613653379603913e-11 1.6971412914259294e-11
          1.7958797839755737e-11 3.609789237626618e-11 4.257716373290388e-11 1.894618276525218e-11 7.86797695827688e-12 2.937971649029564e-11
          1.7303942299907558e-11 4.905643508954157e-11 2.3605107898651015e-7 1.4724623013539118e-7 7.02816604235249e-7 4.642296448423618e-7
          9.722579825015535e-8 3.9865524444649945e-7 3.735731067919871e-7 6.228163546698704e-8 1.01480997043353e-7 6.378537830362247e-8
          3.246005104129927e-7 6.993725024222809e-7 3.4287881378610824e-7 1.5510408481011885e-7 9.647076051655576e-8 9.198410363399175e-8
          2.579384668261439e-7 6.224739928507963e-8 7.090631807194402e-8 7.897333123456944e-8 6.036669542643485e-8 5.020341047428797e-8
          5.948183556457387e-9 2.502882330156672e-9 3.61963331364767e-11 1.6197160816698304e-11 1.9228480432489557e-11 1.4407994183042075e-10
          1.324250806780966e-10 4.541056032269998e-11 1.2977629561949706e-11 1.2911596954506967e-9 8.694479540230747e-10 2.404688745997437e-9
          2.02264473800799e-9 3.6568351452494373e-10 1.0349356767037187e-9 9.035196764957141e-10 4.4773621259545264e-10 1.6406007300185421e-9
          7.721036762877094e-10 9.067406231160978e-11 1.0812239857545972e-10 2.545543277266059e-10 2.830911457789321e-10 4.595950877135846e-11
          4.82076047164007e-11 6.85798038900958e-11 1.2557073483930965e-10 3.1162796383125823e-10 8.895200306379089e-11 2.0357594565909274e-9
          2.36843817591489e-9 9.891183976243883e-10 1.0469727409108453e-9 5.980885675270292e-10 1.0204411236849993e-9 4.0428755116396575e-10
          2.7011168952388523e-9 1.1048270841973026e-9 1.4427936798429695e-9 3.985086249819752e-10 3.726154481534695e-10 9.25556662541604e-11
          7.726989009123936e-11 1.592802425888583e-10 1.351121518616855e-10 4.3593257398872716e-11 3.467222713249638e-10 6.198411392831832e-11
          1.1094406113451267e-10 1.3857973456618384e-8 1.0025126602156218e-8 1.1904070364327337e-7 8.431499695748206e-8 6.786840358628686e-9
          7.053891286811301e-8 4.8133401550189176e-8 6.192279747694053e-9 4.958929027169076e-8 2.5727890232265343e-8 5.463392097816604e-9
          4.205207775059456e-9 3.441563616970047e-8 2.1562584699614558e-8 2.119343566849651e-9 1.3566590407774146e-8 7.75361021051092e-9
          2.947023452302307e-9 8.709533229528657e-9 1.9406300132476955e-9 1.1554884444201795e-8 1.6317675236364713e-8 1.704457378805929e-8
          2.7307693545431663e-8 8.542866899864129e-9 1.0549856309280613e-8 4.280043268549256e-9 4.755708203053861e-9 5.224880925765974e-9
          3.3398236152647055e-9 2.253426313191678e-8 3.829771185449861e-8 1.2556845718697098e-8 5.231373137558465e-9 5.231598929124393e-10
          6.440926042019347e-10 3.7138496048783165e-9 2.359046129533566e-9 1.6272607862746296e-10 3.281489644726657e-10 7.650253154914302e-10
          1.087545365024294e-9 5.457937882968896e-10 2.5742617145591887e-11 4.032405508128936e-11 2.7792968510955755e-11 7.77102482764299e-11
          2.5719083488861063e-11 2.8515815908055447e-11 3.97819006527169e-11 5.4905493016986836e-11 1.260562045863651e-10 5.1047985397378355e-11
          2.852409110421052e-9 3.338735154101271e-9 4.2553609820000325e-10 4.984467912793353e-10 1.1823671495454209e-9 1.0974885921763077e-9
          1.9997566245262636e-10 3.82506119778149e-9 5.713574843586673e-10 1.0126100348071945e-9 8.859795497340712e-12 9.28670196821791e-12
          5.640417631095562e-12 7.707067588427477e-12 6.090013119632938e-12 3.494838634921654e-12 5.287805271955892e-12 9.71360843909511e-12
          9.82835824714421e-12 7.0807719089901295e-12 2.337883423793902e-12 6.1405160169638845e-12 4.485597424278845e-12 9.943108055193309e-12
          2.6136087776646514e-7 2.2875082287617575e-7 4.11253120166675e-7 3.664893053380376e-7 2.1485865619639311e-7 4.213009779063286e-7
          3.7050326755985075e-7 1.4872680492822853e-7 2.4775197519422423e-7 2.4014834793779293e-7 6.402391100042631e-7 6.036054729033723e-7
          6.536473000514011e-7 4.4934486428527793e-7 2.282165197580678e-7 1.9603171218401627e-7 4.287277883974281e-7 3.71103865034263e-7
          1.7205895666495603e-7 4.314509070790911e-7 3.6658340564856175e-7 1.2099865044046347e-7 2.2864724451655124e-7 2.123077835940452e-7
          5.599303100303598e-7 5.980991853113447e-7 4.316917483338865e-7 4.7376962373182143e-7 6.253976708420493e-7 6.754667818125125e-7
          5.706220937069426e-7 6.876824581491474e-7 5.983077129674841e-7 6.417113445946965e-7 5.314624842424572e-7 6.479504056181799e-7
          5.95306482683145e-7 6.447028428246322e-7 2.98235312760674e-7 4.83923253761507e-7 7.553041718365206e-8 2.2731502795870242e-7
          5.713417032168319e-7 3.8610674757774245e-7 4.078413153003461e-9 3.1705798944067976e-7 1.0855034169525025e-7 5.335805897540065e-7
          1.6806377523945745e-7 1.4372856776351885e-7 4.2621473882506476e-7 3.545270155424963e-7 1.1213888449624011e-7 4.0922183727555734e-7
          3.3202089558133374e-7 8.968981561186913e-8 1.9009800902746305e-7 1.9768972000283008e-7 2.5643310180810956e-7 1.5636714797891179e-7
          1.8107444973899314e-7 2.640219128642626e-7 2.899930266141448e-7 1.503387286021306e-7 2.2798032285328496e-7 6.730666410471501e-8
          8.474899606139774e-8 1.1011914437299943e-7 6.149952616753773e-8 3.107564392981412e-7 3.366822997003667e-7 2.7186952821685853e-7
          9.105130231440621e-8 1.324286454144882e-11 1.3656723371427526e-11 1.2630772300841384e-11 1.112506624728366e-11 9.895886719948609e-12
          3.2531263655029825e-8 5.133746043283989e-8 6.2942519338182545e-9 7.6956683936286e-9 7.014365721064996e-8 9.097084853438944e-9
          1.1721864366260523e-10 1.307115388020596e-10 5.185835319279859e-11 5.196016709632828e-11 5.462797620729266e-11 4.7392918452278754e-11
          2.3884520324804356e-11 1.44204433941514e-10 5.206198099985796e-11 4.015786069726484e-11 7.117953128217441e-8 1.1956576703626649e-7
          6.25134639476434e-8 1.0865764145785047e-7 4.104622069377802e-8 6.535307419348465e-8 5.672414425348795e-8 2.270718933544406e-7
          2.1598201771591266e-7 1.2242589394080672e-7 5.427556064104998e-8 9.64058467012212e-8 4.733159875420224e-8 8.308837235213271e-8
          3.040072501113777e-8 4.899714604043771e-8 4.327708173420754e-8 2.00776474389149e-7 9.270982427665904e-8 3.243353539274103e-7
          3.1847234180240833e-7 1.775911747028281e-7 1.5831273250187134e-7 3.6247892393629795e-7 3.59782467141049e-7 1.99990489217234e-7
          3.074740359298452e-7 1.3549271492813106e-7 3.519312558427847e-7 1.5315934837268163e-7 4.292033397229717e-8 6.918362174986838e-8
          4.152042725346045e-8 6.217718904021473e-8 2.5854397008436384e-8 4.101051770473856e-8 4.092512584615957e-8 1.1712578467702343e-7
          1.2653578536098398e-7 1.2229989111154408e-7 1.3199312184230994e-7 1.1806399686210415e-7 8.832846817811976e-8 8.269059896835113e-8
          8.6549905642484e-8 9.040921231661687e-8 8.477134310684822e-8 1.226572450206402e-7 1.1929539451990632e-7 1.1593354401917243e-7
          9.553610060595282e-8 9.752812038679611e-8 1.1443176022453657e-7 9.95201401676394e-8 1.2663780277140839e-7 1.2464537784393747e-7
          1.3593109086532982e-7 1.35284260747093e-7 1.2265295291646656e-7 1.3046786179717466e-7 9.387386341193064e-8 1.1050037851073547e-7
          1.0720221043515705e-7 1.2810738848971837e-7 1.2044305372581403e-7 1.2547454540727652e-7 1.310180219899256e-7 1.2104000382584838e-7
          6.937975166304368e-8 8.498915953479014e-8 5.7020054407052967e-8 8.661851656536733e-8 1.0065802072004865e-7 1.196795834041378e-7
          4.261721215356596e-8 7.262661360412783e-8 6.234784505850558e-8 1.017959012724579e-7 3.368783239942143e-8 7.938378772448361e-8
          7.390496232137915e-9 5.6757225639338965e-8 1.2841872778664807e-7 1.2400538511225005e-7 2.5797168000572803e-9 6.417100219454169e-8
          3.7264682592246636e-8 1.282973273241331e-7 1.2456611304222252e-7 1.2157319385044e-7 1.2868917235863098e-7 1.2914954405571492e-7
          1.385290073511875e-7 1.249033148946893e-7 1.3150300928713474e-7 1.3282454270415337e-7 1.4194563132695205e-7 1.287666259635302e-7
          4.008837901582134e-12 3.4665920313786587e-12 4.296232486027876e-12 3.745627293235009e-12 2.082221635425171e-12 2.1083466971382977e-12
          2.0537262732237567e-12 2.9243461611751834e-12 3.1950221004421432e-12 1.999105849309216e-12 4.583627070473619e-12 4.024662555091361e-12
          2.0252309110223428e-12 3.4656980397091027e-12 1.4156970279984497e-8 1.4659058161391068e-8 1.4596938460262844e-8 1.520214673022498e-8
          1.4534818759134618e-8 9.371000044853594e-9 9.37214693717856e-9 9.499003942444392e-9 9.343501655434666e-9 9.625860947710223e-9
          8.883716105309119e-9 9.244319682912966e-9 9.604923260516813e-9 9.117639320972337e-9 7.900174894636072e-9 8.873836578304735e-9
          6.472397536980337e-9 8.159484505036813e-9 9.847498261973398e-9 9.846571473093292e-9 6.428202852093585e-9 8.248669214165078e-9
          6.975467354638962e-9 1.0069135576236573e-8 1.3563210750240115e-8 1.3699662095564727e-8 1.3836113440889336e-8 8.139419584313538e-9
          8.970195787154254e-9 1.010929974698786e-8 9.80097198999497e-9 1.3238476106393746e-8 1.367243183404945e-8 1.2704819152021828e-8
          1.3563621987109588e-8 1.4106387561705156e-8 1.4422424822197347e-8 8.759304248712577e-9 1.021290275302394e-8 9.32590818399724e-9
          1.1666501257335306e-8 5.675452973421459e-9 7.6115093844432e-9 4.850262873992932e-9 7.073767828867423e-9 9.547565795464944e-9
          9.297272783741912e-9 3.2114863625293818e-9 6.252822981732149e-9 5.604762992825534e-9 9.294159600934916e-9 3.924516682080278e-9
          6.3255158510227114e-9 3.1980294327927554e-9 5.53072191201398e-9 8.726515019965146e-9 1.0263276680127257e-8 2.148318918131825e-9
          4.9731514038335995e-9 4.3347247000276745e-9 7.797983889535376e-9 2.760716200933837e-9 4.805400894496748e-9 1.7525911064105188e-9
          3.722553681191509e-9 4.52912549743518e-9 6.523046301583812e-10 5.358693585550681e-10 2.6577098811175866e-9 4.775177985070274e-9
          4.713405997134752e-9 2.0450426408259605e-10 1.8887826080525966e-10 1.8491157268444883e-10 2.597959314285468e-10 4.1943408695175506e-10
          7.862942647999932e-10 5.180573626229057e-9 1.732522575279232e-10 3.308220344103131e-10 1.686989487781567e-10 1.5851315234459038e-10
          1.6732532397170414e-10 1.5668013676117754e-10 2.3651186694357847e-8 5.328778856040268e-9 1.483273559110241e-10 1.4603494955065092e-10
          2.4736442021694773e-8 9.072094191394729e-8 2.4968504879851733e-8 1.8413199632741337e-9 8.024918820189224e-9 6.3401957626706504e-9
          4.6554727051520765e-9 1.4193853882237078e-8 5.5055846161212924e-9 6.540091201890457e-9 2.126500603471305e-9 1.2062290794736662e-8
          7.574597787659622e-9 2.7016831239430322e-9 1.1967831865998421e-8 1.7107763017194173e-7 1.239991838043852e-7 7.692073743682863e-8
          2.986469718248049e-7 1.977117921229011e-7 2.384482152661544e-7 3.9924046824087507e-7 3.598299618198099e-7 2.5206189263451405e-7
          5.843589297953633e-7 5.57663921682861e-7 4.3229895520274877e-7 5.449404434510458e-7 5.998492511853025e-7 5.566082447505199e-7
          4.4979715078298916e-7 5.655823673783488e-7 5.933493158615404e-7 5.623505477023204e-8 1.4687997329375268e-7 8.457598586360619e-8
          1.0801817060918607e-8 2.1526323527996677e-7 1.1291691695698036e-7 7.97113354009176e-8 1.2893325345220614e-7 7.416217703412903e-8
          2.3451939437817523e-7 3.258669970097884e-7 1.9327556343809618e-7 3.608503767667211e-7
        </DataArray>
        <DataArray type="Float64" Name="gradient_matprop_error" format="ascii" RangeMin="0" RangeMax="0">
          0 0 0 0 0 0
          0 0 0 0 0 0
          0 0 0 0 0 0
          0 0 0 0 0 0
          0 0 0 0 0 0
          0 0 0 0 0 0
          0 0 0 0 0 0
          0 0 0 0 0 0
          0 0 0 0 0 0
          0 0 0 0 0 0
          0 0 0 0 0 0
          0 0 0 0 0 0
          0 0 0 0 0 0
          0 0 0 0 0 0
          0 0 0 0 0 0
          0 0 0 0 0 0
          0 0 0 0 0 0
          0 0 0 0 0 0
          0 0 0 0 0 0
          0 0 0 0 0 0
          0 0 0 0 0 0
          0 0 0 0 0 0
          0 0 0 0 0 0
          0 0 0 0 0 0
          0 0 0 0 0 0
          0 0 0 0 0 0
          0 0 0 0 0 0
          0 0 0 0 0 0
          0 0 0 0 0 0
          0 0 0 0 0 0
          0 0 0 0 0 0
          0 0 0 0 0 0
          0 0 0 0 0 0
          0 0 0 0 0 0
          0 0 0 0 0 0
          0 0 0 0 0 0
          0 0 0 0 0 0
          0 0 0 0 0 0
          0 0 0 0 0 0
          0 0 0 0 0 0
          0 0 0 0 0 0
          0 0 0 0 0 0
          0 0 0 0 0 0
          0 0 0 0 0 0
          0 0 0 0 0 0
          0 0 0 0 0 0
          0 0 0 0 0 0
          0 0 0 0 0 0
          0 0 0 0 0 0
          0 0 0 0 0 0
          0 0 0 0 0 0
          0 0 0 0 0 0
          0 0 0 0 0 0
          0 0 0 0 0 0
          0 0 0 0 0 0
          0 0 0 0 0 0
          0 0 0 0 0 0
          0 0 0 0 0 0
          0 0 0 0 0 0
          0 0 0 0 0 0
          0 0 0 0 0 0
          0 0 0 0 0 0
          0 0 0 0 0 0
          0 0 0 0 0 0
          0 0 0 0 0 0
          0 0 0 0 0 0
          0 0 0 0 0 0
          0 0 0 0 0 0
          0 0 0 0 0 0
          0 0 0 0 0 0
          0 0 0 0 0 0
          0 0 0 0 0 0
          0 0 0 0 0 0
          0 0 0 0 0 0
          0 0 0 0 0 0
          0 0 0 0 0 0
          0 0 0 0 0 0
          0 0 0 0 0 0
          0 0 0 0 0 0
          0 0 0 0 0 0
          0 0 0 0 0 0
          0 0 0 0 0 0
          0 0 0 0 0 0
          0 0 0 0 0 0
          0 0 0 0 0 0
          0 0 0 0 0 0
          0 0 0 0 0 0
          0 0 0 0 0 0
          0 0 0 0 0 0
          0 0 0 0 0 0
          0 0 0 0 0 0
          0 0 0 0
        </DataArray>
        <DataArray type="Float64" Name="initial_marker" format="ascii" RangeMin="0" RangeMax="2">
          0 0 0 0 0 0
          0 0 0 0 0 0
          0 0 0 0 0 0
          0 0 0 0 0 0
          0 0 0 0 0 0
          0 0 0 0 2 0
          0 0 0 0 0 0
          0 0 0 0 0 0
          0 0 0 0 0 0
          0 0 0 0 0 0
          0 0 0 0 2 1
          0 2 1 0 0 0
          2 1 1.5 0 1 0
          1 0 0 0 0 0
          0 0 0 0 0 0
          0 0 0 0 0 0
          0 0 0 0 0 0
          0 0 0 0 0 0
          0 0 0 0 0 0
          0 0 0 0 0 0
          0 0 0 0 0 0
          0 0 0 0 0 0
          0 0 0 0 0 0
          0 0 0 0 0 0
          0 0 0 0 0 0
          0 0 0 0 0 0
          0 0 0 0 0 0
          0 0 0 0 0 0
          0 0 0 0 0 0
          0 0 0 0 0 0
          0 0 0 0 0 0
          0 0 0 0 0 0
          0 0 0 0 0 0
          0 0 0 0 0 0
          0 0 0 0 0 0
          0 0 1 1 0 1
          1 0 0.5 0.5 2 2
          2 1 0 0 1 1
          0 1 1 0 0.5 0.5
          2 2 2 1 2 2
          2 2 1 1 2 2
          2 1 2 2 2 2
          1 1.25 2 2 2 1
          1 0.5 1.5 1.25 1 2
          1.5 0 0.5 0.6666666666666666 1 0
          0 0.5 0.25 0 0.5 0
          0 0 0 1 0.5 1
          0 0 0 0 0 0
          0 0 0 0 0 0
          0 0 0 0 0 0
          0 0 0 0 0 0
          0 0 0 0 0 0
          0 0 0 0 0 0
          0 0 0 0 0 0
          0 0 0 0 0 0
          0 0 0 0 0 0
          0 0 0 0 0 2
          2 2 2 2 2 2
          2 2 2 2 2 2
          2 2 2 2 2 2
          2 2 2 2 2 2
          2 2 2 2 2 2
          2 2 2 2 2 2
          2 2 2 2 2 2
          2 2 2 2 2 2
          2 2 2 2 2 2
          2 2 2 2 2 2
          0 0 0 0 0 0
          0 0 0 0 0 0
          0 0 2 2 2 2
          2 2 2 2 2 2
          2 2 2 2 2 2
          2 2 2 2 2 2
          2 2 2 2 2 2
          2 2 2 2 2 2
          2 2 2 2 2 2
          2 2 2 2 2 2
          2 2 2 2 2 2
          2 2 2 2 2 2
          2 2 2 2 2 2
          2 0 0 0 0 0
          0 0 0 0 0 0
          0 0 0 0 0 0
          0 0 0 0 0 0
          0 0 0 0 0 0
          0 0 0 0 0 0
          0 0 0 0 0 0
          0 0 0 1 1 0.5
          2 2 1 2 2 1
          2 2 1 0 0 0
          0 0 0 0 0 0
          0 0 0 0
        </DataArray>
        <DataArray type="Float64" Name="markers_norefine" format="ascii" RangeMin="0" RangeMax="2">
          0 0 0 0 0 0
          0 0 0 0 0 0
          0 0 0 0 0 0
          0 0 0 0 0 0
          0 0 0 0 0 0
          0 0 0 0 2 0
          0 0 0 0 0 0
          0 0 0 0 0 0
          0 0 0 0 0 0
          0 0 0 0 0 0
          0 0 0 0 0 0
          0 0 0 0 0 0
          0 0 0 0 0 0
          0 0 0 0 0 0
          0 0 0 0 0 0
          0 0 0 0 0 0
          0 0 0 0 0 0
          0 0 0 0 0 0
          0 0 0 0 0 0
          0 0 0 0 0 0
          0 0 0 0 0 0
          0 0 0 0 0 0
          0 0 0 0 0 0
          0 0 0 0 0 0
          0 0 0 0 0 0
          0 0 0 0 0 0
          0 0 0 0 0 0
          0 0 0 0 0 0
          0 0 0 0 0 0
          0 0 0 0 0 0
          0 0 0 0 0 0
          0 0 0 0 0 0
          0 0 0 0 0 0
          0 0 0 0 0 0
          0 0 0 0 0 0
          0 0 0 0 0 0
          0 0 0 0 0 0
          0 0 0 0 0 0
          0 0 0 0 0 0
          0 0 0 0 0 0
          0 0 0 0 0 0
          0 0 0 0 0 0
          0 0 2 0 0 0
          0 0 0 0 0 0
          0 0 0 0 0 0
          0 0 0 0 0 0
          0 0 0 0 0 0
          0 0 0 0 0 0
          0 0 0 0 0 0
          0 0 0 0 0 0
          0 0 0 0 0 0
          0 0 0 0 0 0
          0 0 0 0 0 0
          0 0 0 0 0 0
          0 0 0 0 0 0
          0 0 0 0 0 0
          0 0 0 0 0 0
          0 0 0 0 0 0
          0 0 0 0 0 0
          0 0 0 0 0 0
          0 0 0 0 0 0
          0 0 0 0 0 0
          0 0 1 0 0 0
          1 0 1 0 1.5 0.5
          2 0.75 0 0 2 1
          1.5 0 0 0 0 0
          0 0 0 0 0 0
          0 0 0 0 0 0
          0 0 0 0 0 0
          0 0 0 0 0 0
          0 0 1 0.5 1 0
          1 0.5 0 1 1.5 1
          2 1.5 0.5 1 2 1.5
          2 1 1 0.5 0 2
          1.5 1.6666666666666667 1 1 0.5 1
          0.75 0 0.5 2 1.5 1.75
          1 2 1.75 2 2 1.5
          2 2 2 2 2 2
          2 2 2 2 1.6666666666666667 2
          2 2 2 2 2 2
          2 0 0 0 0 0
          0 0 0 0 0 0
          0 0 0 0 0 0
          0 0 0 0 0 0
          0 0 0 0 0 0
          0 0 0 0 0 0
          0 0 0 0 0 0
          0 0 0 0 0 0
          0 0 0 0 0 0
          0 0 0 0 0 0
          0 0 0 0 0 0
          0 0 0 0
        </DataArray>
        <DataArray type="Float64" Name="markers_mustrefine" format="ascii" RangeMin="0" RangeMax="2">
          0 0 0 0 0 0
          0 0 0 0 0 0
          0 0 0 0 0 0
          0 0 0 0 0 0
          0 0 0 0 0 0
          0 0 0 0 2 0
          0 0 0 0 0 0
          0 0 0 0 0 0
          0 0 0 0 0 0
          0 0 0 0 0 0
          0 0 0 0 2 1
          0 2 1 0 0 0
          2 1 1.5 0 1 0
          1 0 0 0 0 0
          0 0 0 0 0 0
          0 0 0 0 0 0
          0 0 0 0 0 0
          0 0 0 0 0 0
          0 0 0 0 0 0
          0 0 0 0 0 0
          0 0 0 0 0 0
          0 0 0 0 0 0
          0 0 0 0 0 0
          0 0 0 0 0 0
          0 0 0 0 0 0
          0 0 0 0 0 0
          0 0 0 0 0 0
          0 0 0 0 0 0
          0 0 0 0 0 0
          0 0 0 0 0 0
          0 0 0 0 0 0
          0 0 0 0 0 0
          0 0 0 0 0 0
          0 0 0 0 0 0
          0 0 0 0 0 0
          0 0 1 1 0 1
          1 0 0.5 0.5 2 2
          2 1 0 0 1 1
          0 1 1 0 0.5 0.5
          2 2 2 1 2 2
          2 2 1 1 2 2
          2 1 2 2 2 2
          1 1.25 2 2 2 1
          1 0.5 1.5 1.25 1 2
          1.5 0 0.5 0.6666666666666666 1 0
          0 0.5 0.25 0 0.5 0
          0 0 0 1 0.5 1
          0 0 0 0 0 0
          0 0 0 0 0 0
          0 0 0 0 0 0
          0 0 0 0 0 0
          0 0 0 0 0 0
          0 0 0 0 0 0
          0 0 0 0 0 0
          0 0 0 0 0 0
          0 0 0 0 0 0
          0 0 0 0 0 2
          2 2 2 2 2 2
          2 2 2 2 2 2
          2 2 2 2 2 2
          2 2 2 2 2 2
          2 2 2 2 2 2
          2 2 2 2 2 2
          2 2 2 2 2 2
          2 2 2 2 2 2
          2 2 2 2 2 2
          2 2 2 2 2 2
          0 0 0 0 0 0
          0 0 0 0 0 0
          0 0 2 2 2 2
          2 2 2 2 2 2
          2 2 2 2 2 2
          2 2 2 2 2 2
          2 2 2 2 2 2
          2 2 2 2 2 2
          2 2 2 2 2 2
          2 2 2 2 2 2
          2 2 2 2 2 2
          2 2 2 2 2 2
          2 2 2 2 2 2
          2 0 0 0 0 0
          0 0 0 0 0 0
          0 0 0 0 0 0
          0 0 0 0 0 0
          0 0 0 0 0 0
          0 0 0 0 0 0
          0 0 0 0 0 0
          0 0 0 1 1 0.5
          2 2 1 2 2 1
          2 2 1 0 0 0
          0 0 0 0 0 0
          0 0 0 0
        </DataArray>
        <DataArray type="Float64" Name="gradient_marker" format="ascii" RangeMin="0" RangeMax="1">
          1 1 1 1 1 1
          1 1 1 1 1 1
          1 1 1 1 1 1
          1 1 1 1 1 1
          1 1 1 1 0.75 1
          0.875 1 1 1 0 0.75
          1 1 1 1 1 1
          1 1 1 1 1 1
          1 1 1 1 1 1
          1 1 1 1 1 1
          1 1 1 0.75 1 1
          0.625 0.75 0.875 0.6666666666666666 0.625 0.5
          0.5 1 0.75 1 0.75 0.625
          0.625 0.625 0.8333333333333334 0.625 0.625 0.5
          0.625 0.8333333333333334 1 1 1 1
          1 1 1 1 1 1
          1 1 1 1 1 1
          1 1 1 1 1 1
          1 1 1 1 1 1
          1 1 1 1 1 1
          1 1 1 1 1 1
          1 1 1 1 1 1
          1 1 1 1 1 1
          1 1 1 1 1 1
          1 1 1 1 1 1
          1 1 1 1 1 1
          1 1 1 1 1 1
          1 1 1 1 1 1
          1 1 1 1 1 1
          1 1 1 1 1 1
          1 1 1 1 1 1
          1 1 1 1 1 1
          1 1 1 1 1 1
          1 1 1 1 1 1
          1 1 1 1 1 1
          1 1 1 1 1 1
          1 0.5 0.75 0.75 1 1
          1 1 1 1 1 1
          0.75 1 0.875 0.5 0.75 0.625
          0.75 0.875 0.625 1 1 1
          0.75 0.875 1 1 1 1
          0.75 1 0.25 0.5 0.25 0.625
          0.875 0.625 0 0.25 0.5 0.75
          1 0.5 1 0.75 0.25 0.75
          0.625 0 0.375 0.3333333333333333 0.625 0.375
          0.5 0.5 0.625 0.3333333333333333 0.5 0
          0 0.25 0 0.5 0.75 0.5
          0 1 1 1 1 1
          1 1 1 1 1 1
          1 1 1 1 1 1
          1 1 1 1 0 0.25
          0 0.25 0 0 0 0.75
          0.625 0.5 0 0.25 0 0.25
          0 0 0 0.5 0 1
          0.875 1 0.75 1 1 1
          0.75 0.5 1 1 0 0.125
          0 0 0 0 0 0
          0 0 0.25 0 0 0
          0 0 0 0 0 0
          0 0 0 0 0 0
          0.5 0.375 0 0.16666666666666666 0 0
          0.375 0.16666666666666666 0 0.25 0.3333333333333333 0
          0 0 0 0 0 0
          0 0 0 0 0 0
          0 0.125 0.25 0.625 0 0
          0 0.25 0 0 0 0.25
          0.625 0 0.25 0.25 0.75 0
          1 1 1 1 1 1
          1 1 1 1 1 1
          1 1 0 0 0 0
          0 0 0 0 0 0
          0 0 0 0 0 0
          0 0 0 0 0 0
          0 0 0 0 0 0
          0 0 0 0 0 0
          0 0 0 0 0 0
          0 0 0 0 0 0
          0 0 0 0 0 0
          0 0 0 0 0 0
          0 0 0 0 0 0
          0 1 1 1 1 1
          1 1 1 1 1 1
          1 1 1 1 1 1
          1 1 1 1 1 1
          1 0.75 1 1 1 1
          1 1 1 1 1 1
          1 1 1 1 1 1
          1 0.75 1 1 1 0.75
          1 1 1 1 1 1
          1 1 1 1 0.75 1
          1 1 1 0 0.25 0