<?xml version="1.0"?>
<VTKFile type="UnstructuredGrid" version="0.1" byte_order="LittleEndian" header_type="UInt32" compressor="vtkZLibDataCompressor">
  <UnstructuredGrid>
    <Piece NumberOfPoints="432" NumberOfCells="254">
      <PointData>
        <DataArray type="Int32" Name="libmesh_node_id" format="ascii" RangeMin="194" RangeMax="4107">
          194 370 371 825 826 827
          828 830 831 832 833 835
          836 837 838 843 845 846
          848 1633 1634 1636 1639 1641
          1642 1643 1644 1645 1646 1647
          1648 1649 1650 1658 1659 1662
          1663 1665 1666 1667 1668 1670
          1671 1672 1673 1675 1676 1677
          1678 1679 1680 1681 1682 1683
          1684 1692 1693 1695 1696 1697
          1701 1702 1704 1705 1707 1708
          1709 1710 1711 1712 1713 1714
          1715 1716 1717 1718 1719 1720
          1721 1722 1723 1724 1725 1726
          1727 1728 1729 1730 1731 1732
          1809 1815 1816 1817 1818 1819
          1820 1821 1822 1823 1824 1825
          1826 1827 1828 3520 3534 3548
          3549 3551 3554 3564 3566 3568
          3576 3577 3578 3579 3586 3587
          3588 3589 3594 3595 3596 3601
          3602 3603 3604 3605 3606 3607
          3608 3609 3610 3611 3612 3613
          3614 3615 3616 3617 3618 3619
          3620 3621 3622 3623 3624 3625
          3626 3627 3628 3629 3630 3631
          3632 3633 3634 3635 3636 3637
          3704 3705 3714 3715 3716 3717
          3718 3720 3721 3722 3724 3725
          3726 3727 3728 3729 3730 3743
          3744 3746 3749 3751 3752 3753
          3754 3755 3756 3757 3758 3759
          3760 3769 3771 3773 3777 3778
          3780 3783 3785 3786 3787 3788
          3789 3790 3791 3792 3793 3794
          3803 3805 3807 3809 3810 3811
          3812 3813 3814 3815 3816 3817
          3818 3819 3820 3821 3822 3823
          3824 3825 3826 3827 3828 3829
          3830 3831 3832 3833 3834 3835
          3836 3837 3838 3839 3840 3841
          3842 3843 3844 3845 3846 3847
          3848 3849 3850 3851 3852 3853
          3854 3855 3856 3857 3858 3859
          3860 3861 3862 3863 3864 3865
          3866 3867 3868 3869 3870 3871
          3872 3873 3874 3875 3876 3933
          3934 3936 3937 3938 3940 3941
          3942 3943 3944 3945 3946 3954
          3955 3957 3958 3959 3961 3962
          3963 3964 3965 3966 3967 3985
          3986 3987 3988 3996 3997 3998
          3999 4000 4001 4002 4003 4004
          4005 4006 4007 4008 4009 4010
          4011 4012 4013 4014 4015 4016
          4017 4018 4019 4020 4021 4022
          4023 4024 4025 4026 4027 4028
          4029 4030 4031 4032 4033 4034
          4035 4036 4037 4038 4039 4040
          4041 4042 4043 4044 4045 4046
          4047 4048 4049 4050 4051 4052
          4053 4054 4055 4056 4057 4058
          4059 4060 4061 4062 4063 4064
          4065 4066 4067 4068 4069 4070
          4071 4072 4073 4074 4075 4076
          4077 4078 4079 4080 4081 4082
          4083 4084 4085 4086 4087 4088
          4089 4090 4091 4092 4093 4094
          4095 4096 4097 4098 4099 4100
          4101 4102 4103 4104 4105 4106
          4107 365 839 840 841 844
          847 372 1762 1763 1770 1771
        </DataArray>
        <DataArray type="Float64" Name="bounds" format="ascii" RangeMin="0" RangeMax="0">
          0 0 0 0 0 0
          0 0 0 0 0 0
          0 0 0 0 0 0
          0 0 0 0 0 0
          0 0 0 0 0 0
          0 0 0 0 0 0
          0 0 0 0 0 0
          0 0 0 0 0 0
          0 0 0 0 0 0
          0 0 0 0 0 0
          0 0 0 0 0 0
          0 0 0 0 0 0
          0 0 0 0 0 0
          0 0 0 0 0 0
          0 0 0 0 0 0
          0 0 0 0 0 0
          0 0 0 0 0 0
          0 0 0 0 0 0
          0 0 0 0 0 0
          0 0 0 0 0 0
          0 0 0 0 0 0
          0 0 0 0 0 0
          0 0 0 0 0 0
          0 0 0 0 0 0
          0 0 0 0 0 0
          0 0 0 0 0 0
          0 0 0 0 0 0
          0 0 0 0 0 0
          0 0 0 0 0 0
          0 0 0 0 0 0
          0 0 0 0 0 0
          0 0 0 0 0 0
          0 0 0 0 0 0
          0 0 0 0 0 0
          0 0 0 0 0 0
          0 0 0 0 0 0
          0 0 0 0 0 0
          0 0 0 0 0 0
          0 0 0 0 0 0
          0 0 0 0 0 0
          0 0 0 0 0 0
          0 0 0 0 0 0
          0 0 0 0 0 0
          0 0 0 0 0 0
          0 0 0 0 0 0
          0 0 0 0 0 0
          0 0 0 0 0 0
          0 0 0 0 0 0
          0 0 0 0 0 0
          0 0 0 0 0 0
          0 0 0 0 0 0
          0 0 0 0 0 0
          0 0 0 0 0 0
          0 0 0 0 0 0
          0 0 0 0 0 0
          0 0 0 0 0 0
          0 0 0 0 0 0
          0 0 0 0 0 0
          0 0 0 0 0 0
          0 0 0 0 0 0
          0 0 0 0 0 0
          0 0 0 0 0 0
          0 0 0 0 0 0
          0 0 0 0 0 0
          0 0 0 0 0 0
          0 0 0 0 0 0
          0 0 0 0 0 0
          0 0 0 0 0 0
          0 0 0 0 0 0
          0 0 0 0 0 0
          0 0 0 0 0 0
          0 0 0 0 0 0
        </DataArray>
        <DataArray type="Float64" Name="gradient_error" format="ascii" RangeMin="3.256336917057472e-12" RangeMax="1.435839410546868e-8">
          5.951266038592099e-12 2.6588238701432427e-10 5.3676662971056286e-11 2.4834019936912876e-9 5.50191397564476e-10 1.2810060890478715e-10
          3.815819126811171e-11 3.5753160179817e-11 5.087553779470742e-9 1.1211288084177901e-9 6.53504878309518e-11 1.7172758582515056e-11
          1.5437765328469398e-11 2.4628760635596088e-11 1.7816247983349593e-11 1.792630207591506e-11 1.3052298060222634e-11 1.5270501843919153e-11
          2.1954339191149455e-11 9.599495946082356e-10 6.649604004230158e-10 2.3277883311148943e-10 1.7253392492346992e-9 2.421524473808907e-10
          1.7021396878098319e-10 5.176201833021651e-11 3.7385315909941716e-11 6.392989023355657e-11 2.216186529731444e-11 6.218092931196694e-10
          4.3080107596248496e-10 9.046723164802256e-11 1.4653336547556845e-10 3.38623492635408e-11 2.362656664331787e-11 4.8094656564799515e-11
          3.395424145334743e-11 1.250118368315073e-8 9.569742468901872e-9 4.282815834791123e-9 3.0584589018637503e-9 9.367528753467917e-10
          1.435839410546868e-8 1.140018509999592e-8 3.6940323537974533e-9 1.0902459415380168e-9 7.601269547025518e-10 2.214559835214521e-10
          1.5566544281394444e-10 2.4505325441545743e-10 5.5360723075757996e-11 1.3099591725292353e-9 9.19133658568233e-10 1.8698406287716614e-10
          2.917194064460266e-10 7.214447096732414e-11 4.1290700781785326e-11 5.0245358033265e-11 8.270500759567055e-11 4.6713615366868475e-11
          2.1972585500340494e-11 1.7424941295058794e-11 3.0223251747706304e-11 2.471284825529647e-11 1.727439537491159e-11 1.4212535854763029e-11
          3.084159201175167e-11 2.3283236671724308e-11 1.671913436579838e-11 1.8199336024632722e-11 3.828377813292491e-11 2.7686281852868954e-11
          1.1087614429663813e-11 8.742505475279351e-12 1.495023638716169e-11 1.0997652745937216e-11 4.564617605171598e-11 3.2901419941879366e-11
          1.0192777639754652e-11 1.7275609423967144e-11 1.749803983430409e-11 1.632417865427069e-11 1.0828546253728583e-11 1.4337651400464984e-11
          1.3908808880600131e-11 1.935997428671594e-11 8.056357386259738e-12 1.8291566536621704e-11 1.5843779249760065e-11 2.1563579793121046e-11
          1.52002223645632e-11 8.389548855253139e-12 7.026980394099167e-12 9.348666571189682e-12 7.799123541040625e-12 4.6761605224155e-12
          5.117108316851101e-12 4.487247190314418e-12 5.664411932945195e-12 6.2495805108915675e-12 3.857386063777734e-12 1.0307784287126226e-11
          8.571266687982082e-12 4.298333858213336e-12 6.834749088837939e-12 8.769528396501247e-10 4.2126913587156713e-10 1.6240282866242501e-9
          1.4851796382028158e-9 1.121510182830132e-9 2.279687289184104e-9 6.966093355801486e-10 3.719311227161464e-10 1.0586982964503024e-9
          4.934019443347132e-10 4.509948555286547e-10 2.2172003726665129e-10 3.4357876961194576e-10 1.1400720314292753e-10 1.0467618947962605e-10
          4.769352931526365e-11 8.113466053004401e-11 2.204586682097967e-10 1.1108484523105211e-10 1.2413619215171397e-10 5.41206025554591e-11
          2.5340033547675753e-11 3.190503380606432e-11 8.33323890887876e-10 7.613748184248024e-10 4.0638691141918847e-10 3.7151538489712287e-10
          5.759565809667241e-10 2.8261685557175226e-10 1.2778602137339831e-9 1.1697447053668942e-9 5.687064630080909e-10 8.835837836969368e-10
          1.8949625390925993e-10 1.7356856607754393e-10 8.503053506316276e-11 7.810905663100645e-11 1.3314508395243084e-10 6.056403476972183e-11
          2.881456010073387e-10 2.637513445064782e-10 1.1750511600692582e-10 2.0111173421949612e-10 3.61674357328726e-10 1.8034574790220334e-10
          1.9681467155182039e-10 1.0043506264566793e-10 5.46646225612204e-10 2.703605519075152e-10 2.8936033385333687e-10 8.683289064805998e-11
          4.019263216517094e-11 4.958714809785134e-11 2.764542133943125e-11 1.28821828708357e-10 5.910411336361739e-11 7.17441426571237e-11
          6.446009013676444e-11 3.3808428221356234e-11 1.707298158631603e-11 1.1340744747455054e-11 1.1652955427658167e-11 9.882626958981583e-11
          5.1504826714490577e-11 2.946579152979e-11 1.4082579287607156e-10 7.313699616843818e-11 2.5718136060578475e-11 1.6937553720179014e-11
          1.7278467562540478e-11 1.1828389401561027e-11 3.629905116507014e-11 1.9932777239138002e-11 2.3887093999232422e-11 1.0322089089993914e-8
          9.710331515970095e-9 7.646494745592074e-9 1.1912130816615613e-8 6.180569680987977e-9 5.750613106906007e-9 3.427228392866749e-9
          3.1641347346835137e-9 4.4381437792755226e-9 2.411243555738519e-9 7.630341536264171e-9 7.163076640475698e-9 3.9787717691444505e-9
          5.603473682089988e-9 1.4708982389509433e-9 7.494708053795783e-10 1.8625461596440832e-9 1.3890407923837724e-8 1.3374368975473428e-8
          1.0917012920336355e-8 1.3880932548850764e-8 8.608179899385937e-9 8.1371325384606e-9 4.8761218743787e-9 4.552179493697393e-9
          6.433428775105088e-9 3.524232496099717e-9 8.950738059155525e-9 8.483213868065259e-9 4.758424594317373e-9 6.734145836885303e-9
          2.1465854567719444e-9 1.0717811799065498e-9 2.2506474430332987e-9 1.773968034928354e-9 1.629733341973765e-9 8.640657406680603e-10
          7.918343846525091e-10 1.2345004742393096e-9 5.996529234759408e-10 2.2322481563186e-9 2.0593565091943283e-9 1.0017315657306998e-9
          1.567588713665241e-9 3.9919239915316825e-10 3.656581450216077e-10 1.7628156635931387e-10 1.6167456801556565e-10 2.781616850425755e-10
          1.2402004114870093e-10 5.0334542962427e-10 4.617223924555545e-10 2.0321672252635444e-10 3.512124899142213e-10 7.569125921835361e-10
          3.721215302123306e-10 3.923951009213571e-10 1.9749690721571022e-10 9.567894028551317e-10 4.686022220742824e-10 4.889788192992815e-10
          1.7575501340849017e-10 8.007863111969011e-11 9.595576731527705e-11 4.485989405417419e-11 2.2005587347412884e-10 9.966957130248914e-11
          1.183864367491426e-10 2.5555781845033414e-9 2.365578137172776e-9 1.251503232613946e-9 1.1524310714059177e-9 1.808624999474376e-9
          8.765035904793843e-10 2.672017171047877e-9 2.47654980245924e-9 1.2072940740698957e-9 1.896784184316451e-9 5.780441135411503e-10
          5.309476596364248e-10 2.5400958398913607e-10 2.332410806573682e-10 4.0416730565323244e-10 1.7859041641408833e-10 6.052273416282983e-10
          5.562112539911579e-10 2.442110437232246e-10 4.2357132983353636e-10 1.1019296975587452e-9 5.386200285553422e-10 5.585390731910065e-10
          2.79242463816746e-10 1.155150851962349e-9 5.642886278737404e-10 5.839520347942668e-10 2.5221829087129495e-10 1.1384075661240013e-10
          1.3454268006511776e-10 6.269158359881746e-11 2.6398674056930544e-10 1.1901022634381633e-10 1.40407357189273e-10 1.8616801554863764e-10
          9.627271682358425e-11 5.2758202586713e-11 2.2768566260510447e-10 1.173077376224702e-10 4.7639843208195754e-11 2.2779949236858342e-11
          3.067869940771391e-11 1.502485997916414e-11 5.780248221155414e-11 2.773720435831427e-11 3.661821333147706e-11 2.571694168307804e-10
          1.3223449994014684e-10 7.053286852283557e-11 2.6785541230214525e-10 1.3763388964812717e-10 6.500074482210248e-11 3.1055310751179504e-11
          4.086930568179389e-11 1.9700712026948153e-11 6.760759825879667e-11 3.2277454062651824e-11 4.2426469964602835e-11 2.2788183569156275e-11
          2.108480100332569e-11 1.2746003795441805e-11 1.6712997771908538e-11 1.1408592647106121e-11 7.107763119883614e-12 8.77260818789027e-12
          3.69792503450593e-11 3.408961800023707e-11 2.213822746142808e-11 2.047552466249798e-11 2.6728475442167864e-11 1.6109810255817237e-11
          5.5116907332856617e-11 5.071776117324016e-11 2.4403461266600995e-11 3.9473988625517316e-11 1.7935717682956614e-11 1.1151148523279021e-11
          1.3614470136992334e-11 8.895498398491457e-12 2.619171035394235e-11 1.3099635955032562e-11 1.720962006596894e-11 7.50152753743264e-11
          6.898439846485124e-11 3.054314977726742e-11 2.8197729835050963e-11 5.34887929657574e-11 2.2157883667271146e-11 9.353756684140977e-11
          8.600937588348422e-11 3.5314897184012274e-11 6.655971135688102e-11 1.0328323946490833e-11 9.5719009681248e-12 1.2161053486032303e-11
          1.1270579514472157e-11 6.39325281225359e-12 7.341047224987395e-12 6.815472664245775e-12 7.693846244426861e-12 9.013700892851964e-12
          5.48149962389304e-12 1.530687141763622e-11 1.4170357033825022e-11 7.983709674268324e-12 1.126230020113969e-11 3.5381817202100593e-11
          1.5025111014154696e-11 2.0426951539599794e-11 1.0770034589907221e-11 4.3827338432472584e-11 1.8640824409641928e-11 2.5219859903736854e-11
          5.446258746388274e-12 6.262671101863338e-12 3.759870100322138e-12 3.964719030669699e-12 4.32030299368159e-12 4.878045960934761e-12
          3.256336917057472e-12 7.689349947943615e-12 4.553922333991235e-12 5.887942143621675e-12 1.0709732929470262e-10 9.848794884665065e-11
          4.368038358790843e-11 4.02769402708669e-11 7.611838978820586e-11 3.150752477432571e-11 1.120138638459706e-10 1.0301794862910217e-10
          4.208671069180261e-11 7.95896798996525e-11 1.7391926477436886e-11 1.6083466371144776e-11 9.83287807332363e-12 9.116215008648316e-12
          1.2741837130393611e-11 7.2429874857897574e-12 1.8163893145175103e-11 1.6795476735459028e-11 9.502703184997945e-12 1.329262939978491e-11
          4.987162189033104e-11 2.110777294817207e-11 2.8439932000545965e-11 1.470773844019375e-11 5.206386158279204e-11 2.200499113921922e-11
          2.9610710479424847e-11 8.652206757136371e-12 5.132558216252368e-12 6.5957455183381845e-12 4.1786934048982265e-12 9.004797075723911e-12
          5.326839725539525e-12 6.851395677620952e-12 9.509235054277683e-12 1.0787716326778703e-11 6.779392032885246e-12 7.215581370893206e-12
          6.897726851596096e-12 7.461099602420255e-12 5.294588145267967e-12 1.3023729599852322e-11 8.314809032833006e-12 8.624178468972688e-12
          1.4524614275438652e-11 9.295780326278024e-12 9.554397152634437e-12 6.6163319350110005e-12 1.5067966950452384e-11 9.613713295791201e-12
          9.884909720567915e-12 1.6197160816698304e-11 1.324286454144882e-11 1.3656723371427526e-11 1.2630772300841384e-11 1.112506624728366e-11
          9.895886719948609e-12 1.2977629561949706e-11 4.296232486027876e-12 3.745627293235009e-12 4.583627070473619e-12 4.024662555091361e-12
        </DataArray>
        <DataArray type="Float64" Name="gradient_matprop_error" format="ascii" RangeMin="0" RangeMax="0">
          0 0 0 0 0 0
          0 0 0 0 0 0
          0 0 0 0 0 0
          0 0 0 0 0 0
          0 0 0 0 0 0
          0 0 0 0 0 0
          0 0 0 0 0 0
          0 0 0 0 0 0
          0 0 0 0 0 0
          0 0 0 0 0 0
          0 0 0 0 0 0
          0 0 0 0 0 0
          0 0 0 0 0 0
          0 0 0 0 0 0
          0 0 0 0 0 0
          0 0 0 0 0 0
          0 0 0 0 0 0
          0 0 0 0 0 0
          0 0 0 0 0 0
          0 0 0 0 0 0
          0 0 0 0 0 0
          0 0 0 0 0 0
          0 0 0 0 0 0
          0 0 0 0 0 0
          0 0 0 0 0 0
          0 0 0 0 0 0
          0 0 0 0 0 0
          0 0 0 0 0 0
          0 0 0 0 0 0
          0 0 0 0 0 0
          0 0 0 0 0 0
          0 0 0 0 0 0
          0 0 0 0 0 0
          0 0 0 0 0 0
          0 0 0 0 0 0
          0 0 0 0 0 0
          0 0 0 0 0 0
          0 0 0 0 0 0
          0 0 0 0 0 0
          0 0 0 0 0 0
          0 0 0 0 0 0
          0 0 0 0 0 0
          0 0 0 0 0 0
          0 0 0 0 0 0
          0 0 0 0 0 0
          0 0 0 0 0 0
          0 0 0 0 0 0
          0 0 0 0 0 0
          0 0 0 0 0 0
          0 0 0 0 0 0
          0 0 0 0 0 0
          0 0 0 0 0 0
          0 0 0 0 0 0
          0 0 0 0 0 0
          0 0 0 0 0 0
          0 0 0 0 0 0
          0 0 0 0 0 0
          0 0 0 0 0 0
          0 0 0 0 0 0
          0 0 0 0 0 0
          0 0 0 0 0 0
          0 0 0 0 0 0
          0 0 0 0 0 0
          0 0 0 0 0 0
          0 0 0 0 0 0
          0 0 0 0 0 0
          0 0 0 0 0 0
          0 0 0 0 0 0
          0 0 0 0 0 0
          0 0 0 0 0 0
          0 0 0 0 0 0
          0 0 0 0 0 0
        </DataArray>
        <DataArray type="Float64" Name="initial_marker" format="ascii" RangeMin="0" RangeMax="2">
          0 2 0 2 2 2
          1.75 0 2 2 2 0
          0 0 0 0 0 0
          0 2 2 2 2 2
          2 2 2 2 1 2
          2 2 2 0.25 0 1.25
          0 2 2 2 2 2
          2 2 2 2 2 2
          2 2 2 2 2 2
          2 1.5 0.5 0 1.5 0.5
          0.5 0.25 0 0 0 0
          1.5 1.25 0 0.25 2 2
          0 0 0.5 0 2 2
          0 0.5 0 0 0 0
          0 0 0 0 0 0
          0 0 0 0 0 0
          0 0 0 0 0 0
          0 0 0 2 2 2
          2 2 2 2 2 2
          2 2 2 2 2 2
          2 2 2 2 2 2
          1.75 1.75 2 2 2 2
          2 2 2 2 2 2
          2 2 2 2 2 2
          2 2 2 2 2 2
          2 2 2 2 2 2
          2 2 2 2 2 2
          1.75 1.25 0.75 0.5 0 2
          1.75 1 2 2 1.25 1
          0.5 0 1.5 1 1 2
          2 2 2 2 2 2
          2 2 2 2 2 2
          2 2 2 2 2 2
          2 2 2 2 2 2
          2 2 2 2 2 2
          2 2 2 2 2 2
          2 2 2 2 2 2
          2 2 2 2 2 2
          2 2 2 2 2 2
          2 2 2 2 2 2
          2 2 2 2 2 2
          2 2 2 2 2 2
          2 2 2 2 2 2
          2 2 2 2 2 2
          2 2 2 2 2 2
          2 2 2 2 2 2
          2 2 2 2 2 2
          2 2 2 2 1.75 1.25
          1.5 0.5 2 1.5 2 2
          2 2 2 2 2 1.5
          2 1 2 1.5 2 1.5
          1.5 1 1.25 0.75 0 0.5
          2 2 2 2 1.75 1.5
          2 2 2 2 1.25 0.5
          1 0 1.75 1 1.3333333333333333 2
          2 2 2 2 1.75 2
          2 2 2 1 1 1
          1 0 0 0 0.5 0.75
          0 1 1 0 1 2
          1.25 1.5 0.6666666666666666 2 1.5 1.5
          0 0.25 0 0 0 0
          0 0.5 0 0 2 2
          2 2 2 2 2 2
          2 2 1 1 0 0
          1 0 1 1 0 1
          2 1.5 1.5 0.6666666666666666 2 1.5
          1.5 0.5 0 0 0 0.5
          0 0 0.5 0.5 0 0
          0 0 0 0.5 0 0
          0.5 0 0 0 0.5 0
          0 0 0 0 0 0
          0 0 0 0 0 0
        </DataArray>
        <DataArray type="Float64" Name="markers_norefine" format="ascii" RangeMin="0" RangeMax="0">
          0 0 0 0 0 0
          0 0 0 0 0 0
          0 0 0 0 0 0
          0 0 0 0 0 0
          0 0 0 0 0 0
          0 0 0 0 0 0
          0 0 0 0 0 0
          0 0 0 0 0 0
          0 0 0 0 0 0
          0 0 0 0 0 0
          0 0 0 0 0 0
          0 0 0 0 0 0
          0 0 0 0 0 0
          0 0 0 0 0 0
          0 0 0 0 0 0
          0 0 0 0 0 0
          0 0 0 0 0 0
          0 0 0 0 0 0
          0 0 0 0 0 0
          0 0 0 0 0 0
          0 0 0 0 0 0
          0 0 0 0 0 0
          0 0 0 0 0 0
          0 0 0 0 0 0
          0 0 0 0 0 0
          0 0 0 0 0 0
          0 0 0 0 0 0
          0 0 0 0 0 0
          0 0 0 0 0 0
          0 0 0 0 0 0
          0 0 0 0 0 0
          0 0 0 0 0 0
          0 0 0 0 0 0
          0 0 0 0 0 0
          0 0 0 0 0 0
          0 0 0 0 0 0
          0 0 0 0 0 0
          0 0 0 0 0 0
          0 0 0 0 0 0
          0 0 0 0 0 0
          0 0 0 0 0 0
          0 0 0 0 0 0
          0 0 0 0 0 0
          0 0 0 0 0 0
          0 0 0 0 0 0
          0 0 0 0 0 0
          0 0 0 0 0 0
          0 0 0 0 0 0
          0 0 0 0 0 0
          0 0 0 0 0 0
          0 0 0 0 0 0
          0 0 0 0 0 0
          0 0 0 0 0 0
          0 0 0 0 0 0
          0 0 0 0 0 0
          0 0 0 0 0 0
          0 0 0 0 0 0
          0 0 0 0 0 0
          0 0 0 0 0 0
          0 0 0 0 0 0
          0 0 0 0 0 0
          0 0 0 0 0 0
          0 0 0 0 0 0
          0 0 0 0 0 0
          0 0 0 0 0 0
          0 0 0 0 0 0
          0 0 0 0 0 0
          0 0 0 0 0 0
          0 0 0 0 0 0
          0 0 0 0 0 0
          0 0 0 0 0 0
          0 0 0 0 0 0
        </DataArray>
        <DataArray type="Float64" Name="markers_mustrefine" format="ascii" RangeMin="0" RangeMax="2">
          0 2 0 2 2 2
          1.75 0 2 2 2 0
          0 0 0 0 0 0
          0 2 2 2 2 2
          2 2 2 2 1 2
          2 2 2 0.25 0 1.25
          0 2 2 2 2 2
          2 2 2 2 2 2
          2 2 2 2 2 2
          2 1.5 0.5 0 1.5 0.5
          0.5 0.25 0 0 0 0
          1.5 1.25 0 0.25 2 2
          0 0 0.5 0 2 2
          0 0.5 0 0 0 0
          0 0 0 0 0 0
          0 0 0 0 0 0
          0 0 0 0 0 0
          0 0 0 2 2 2
          2 2 2 2 2 2
          2 2 2 2 2 2
          2 2 2 2 2 2
          1.75 1.75 2 2 2 2
          2 2 2 2 2 2
          2 2 2 2 2 2
          2 2 2 2 2 2
          2 2 2 2 2 2
          2 2 2 2 2 2
          1.75 1.25 0.75 0.5 0 2
          1.75 1 2 2 1.25 1
          0.5 0 1.5 1 1 2
          2 2 2 2 2 2
          2 2 2 2 2 2
          2 2 2 2 2 2
          2 2 2 2 2 2
          2 2 2 2 2 2
          2 2 2 2 2 2
          2 2 2 2 2 2
          2 2 2 2 2 2
          2 2 2 2 2 2
          2 2 2 2 2 2
          2 2 2 2 2 2
          2 2 2 2 2 2
          2 2 2 2 2 2
          2 2 2 2 2 2
          2 2 2 2 2 2
          2 2 2 2 2 2
          2 2 2 2 2 2
          2 2 2 2 1.75 1.25
          1.5 0.5 2 1.5 2 2
          2 2 2 2 2 1.5
          2 1 2 1.5 2 1.5
          1.5 1 1.25 0.75 0 0.5
          2 2 2 2 1.75 1.5
          2 2 2 2 1.25 0.5
          1 0 1.75 1 1.3333333333333333 2
          2 2 2 2 1.75 2
          2 2 2 1 1 1
          1 0 0 0 0.5 0.75
          0 1 1 0 1 2
          1.25 1.5 0.6666666666666666 2 1.5 1.5
          0 0.25 0 0 0 0
          0 0.5 0 0 2 2
          2 2 2 2 2 2
          2 2 1 1 0 0
          1 0 1 1 0 1
          2 1.5 1.5 0.6666666666666666 2 1.5
          1.5 0.5 0 0 0 0.5
          0 0 0.5 0.5 0 0
          0 0 0 0.5 0 0
          0.5 0 0 0 0.5 0
          0 0 0 0 0 0
          0 0 0 0 0 0
        </DataArray>
        <DataArray type="Float64" Name="gradient_marker" format="ascii" RangeMin="1" RangeMax="1">
          1 1 1 1 1 1
          1 1 1 1 1 1
          1 1 1 1 1 1
          1 1 1 1 1 1
          1 1 1 1 1 1
          1 1 1 1 1 1
          1 1 1 1 1 1
          1 1 1 1 1 1
          1 1 1 1 1 1
          1 1 1 1 1 1
          1 1 1 1 1 1
          1 1 1 1 1 1
          1 1 1 1 1 1
          1 1 1 1 1 1
          1 1 1 1 1 1
          1 1 1 1 1 1
          1 1 1 1 1 1
          1 1 1 1 1 1
          1 1 1 1 1 1
          1 1 1 1 1 1
          1 1 1 1 1 1
          1 1 1 1 1 1
          1 1 1 1 1 1
          1 1 1 1 1 1
          1 1 1 1 1 1
          1 1 1 1 1 1
          1 1 1 1 1 1
          1 1 1 1 1 1
          1 1 1 1 1 1
          1 1 1 1 1 1
          1 1 1 1 1 1
          1 1 1 1 1 1
          1 1 1 1 1 1
          1 1 1 1 1 1
          1 1 1 1 1 1
          1 1 1 1 1 1
          1 1 1 1 1 1
          1 1 1 1 1 1
          1 1 1 1 1 1
          1 1 1 1 1 1
          1 1 1 1 1 1
          1 1 1 1 1 1
          1 1 1 1 1 1
          1 1 1 1 1 1
          1 1 1 1 1 1
          1 1 1 1 1 1
          1 1 1 1 1 1
          1 1 1 1 1 1
          1 1 1 1 1 1
          1 1 1 1 1 1
          1 1 1 1 1 1
          1 1 1 1 1 1
          1 1 1 1 1 1
          1 1 1 1 1 1
          1 1 1 1 1 1
          1 1 1 1 1 1
          1 1 1 1 1 1
          1 1 1 1 1 1
          1 1 1 1 1 1
          1 1 1 1 1 1
          1 1 1 1 1 1
          1 1 1 1 1 1
          1 1 1 1 1 1
          1 1 1 1 1 1
          1 1 1 1 1 1
          1 1 1 1 1 1
          1 1 1 1 1 1
          1 1 1 1 1 1
          1 1 1 1 1 1
          1 1 1 1 1 1
          1 1 1 1 1 1
          1 1 1 1 1 1
        </DataArray>
        <DataArray type="Float64" Name="gradient_matprop_marker" format="ascii" RangeMin="0" RangeMax="0">
          0 0 0 0 0 0
          0 0 0 0 0 0
          0 0 0 0 0 0
          0 0 0 0 0 0
          0 0 0 0 0 0
          0 0 0 0 0 0
          0 0 0 0 0 0
          0 0 0 0 0 0
          0 0 0 0 0 0
          0 0 0 0 0 0
          0 0 0 0 0 0
          0 0 0 0 0 0
          0 0 0 0 0 0
          0 0 0 0 0 0
          0 0 0 0 0 0
          0 0 0 0 0 0
          0 0 0 0 0 0
          0 0 0 0 0 0
          0 0 0 0 0 0
          0 0 0 0 0 0
          0 0 0 0 0 0
          0 0 0 0 0 0
          0 0 0 0 0 0
          0 0 0 0 0 0
          0 0 0 0 0 0
          0 0 0 0 0 0
          0 0 0 0 0 0
          0 0 0 0 0 0
          0 0 0 0 0 0
          0 0 0 0 0 0
          0 0 0 0 0 0
          0 0 0 0 0 0
          0 0 0 0 0 0
          0 0 0 0 0 0
          0 0 0 0 0 0
          0 0 0 0 0 0
          0 0 0 0 0 0
          0 0 0 0 0 0
          0 0 0 0 0 0
          0 0 0 0 0 0
          0 0 0 0 0 0
          0 0 0 0 0 0
          0 0 0 0 0 0
          0 0 0 0 0 0
          0 0 0 0 0 0
          0 0 0 0 0 0
          0 0 0 0 0 0
          0 0 0 0 0 0
          0 0 0 0 0 0
          0 0 0 0 0 0
          0 0 0 0 0 0
          0 0 0 0 0 0
          0 0 0 0 0 0
          0 0 0 0 0 0
          0 0 0 0 0 0
          0 0 0 0 0 0
          0 0 0 0 0 0
          0 0 0 0 0 0
          0 0 0 0 0 0
          0 0 0 0 0 0
          0 0 0 0 0 0
          0 0 0 0 0 0
          0 0 0 0 0 0
          0 0 0 0 0 0
          0 0 0 0 0 0
          0 0 0 0 0 0
          0 0 0 0 0 0
          0 0 0 0 0 0
          0 0 0 0 0 0
          0 0 0 0 0 0
          0 0 0 0 0 0
          0 0 0 0 0 0
        </DataArray>
        <DataArray type="Float64" Name="combo" format="ascii" RangeMin="1" RangeMax="1">
          1 1 1 1 1 1
          1 1 1 1 1 1
          1 1 1 1 1 1
          1 1 1 1 1 1
          1 1 1 1 1 1
          1 1 1 1 1 1
          1 1 1 1 1 1
          1 1 1 1 1 1
          1 1 1 1 1 1
          1 1 1 1 1 1
          1 1 1 1 1 1
          1 1 1 1 1 1
          1 1 1 1 1 1
          1 1 1 1 1 1
          1 1 1 1 1 1
          1 1 1 1 1 1
          1 1 1 1 1 1
          1 1 1 1 1 1
          1 1 1 1 1 1
          1 1 1 1 1 1
          1 1 1 1 1 1
          1 1 1 1 1 1
          1 1 1 1 1 1
          1 1 1 1 1 1
          1 1 1 1 1 1
          1 1 1 1 1 1
          1 1 1 1 1 1
          1 1 1 1 1 1
          1 1 1 1 1 1
          1 1 1 1 1 1
          1 1 1 1 1 1
          1 1 1 1 1 1
          1 1 1 1 1 1
          1 1 1 1 1 1
          1 1 1 1 1 1
          1 1 1 1 1 1
          1 1 1 1 1 1
          1 1 1 1 1 1
          1 1 1 1 1 1
          1 1 1 1 1 1
          1 1 1 1 1 1
          1 1 1 1 1 1
          1 1 1 1 1 1
          1 1 1 1 1 1
          1 1 1 1 1 1
          1 1 1 1 1 1
          1 1 1 1 1 1
          1 1 1 1 1 1
          1 1 1 1 1 1
          1 1 1 1 1 1
          1 1 1 1 1 1
          1 1 1 1 1 1
          1 1 1 1 1 1
          1 1 1 1 1 1
          1 1 1 1 1 1
          1 1 1 1 1 1
          1 1 1 1 1 1
          1 1 1 1 1 1
          1 1 1 1 1 1
          1 1 1 1 1 1
          1 1 1 1 1 1
          1 1 1 1 1 1
          1 1 1 1 1 1
          1 1 1 1 1 1
          1 1 1 1 1 1
          1 1 1 1 1 1
          1 1 1 1 1 1
          1 1 1 1 1 1
          1 1 1 1 1 1
          1 1 1 1 1 1
          1 1 1 1 1 1
          1 1 1 1 1 1
        </DataArray>
        <DataArray type="Float64" Name="dHdT" format="ascii" RangeMin="25.811623818826494" RangeMax="29.952683667219">
          25.81171545681096 25.861848067552067 25.81293076767413 26.296266328718783 25.900123158213795 25.833960255242
          25.81702014686192 25.812506238795844 26.9548028440379 25.994332103598637 25.822281336357573 25.811862986276335
          25.811795294758547 25.812383321760294 25.81199436205365 25.81179330543177 25.812775221099486 25.812114751366238
          25.811830834495474 25.981128907266594 25.921763315364696 25.848912286411103 26.112228483315178 25.852681854665224
          25.839317518730127 25.820183399675095 25.81769080221784 25.82187478182665 25.814066089220567 25.925397921854042
          25.884314151964542 25.826648009025725 25.83511112793976 25.81458186609902 25.81265264723387 25.817177967018132
          25.813371263226685 29.057999354347285 27.700177310208204 26.732239820637737 26.36894271455582 25.963739279433845
          29.952683667219 28.16373508109404 26.49723724539214 26.027230298162124 25.944892844403054 25.852537919752685
          25.838268575416247 25.851166231217523 25.820657282391466 26.078907241183792 25.975459833712222 25.84397620176375
          25.858812858648534 25.820083375924803 25.814168432297016 25.81310374133513 25.821386769905192 25.814520501038245
          25.813133433535427 25.81278141335473 25.812452954271645 25.81230735702878 25.812339739557256 25.812054605361578
          25.815325367941746 25.814290582394257 25.812377561674214 25.81284614954611 25.818448193419076 25.816368234797917
          25.812634709271954 25.812401965860147 25.813426657408534 25.812174935691715 25.81983573468737 25.81727079878206
          25.8125013668482 25.81370667346902 25.81226318627405 25.812379046921304 25.811995625646603 25.81209418702765
          25.81210408531755 25.812247790244278 25.81195334437938 25.81246609383492 25.812139415594874 25.812314021504008
          25.812114183055506 25.811950490040584 25.811902683294846 25.811963123235355 25.811914616805428 25.811777817759655
          25.811787841991848 25.811772979939768 25.811854876549113 25.811866110375508 25.81175811788769 25.811975756430122